chitosan Film  in water:acetic acid 2% t= 2000.00000 step= 2000000
97101
    1CHTO  H203    1   6.328   6.632   6.344 -1.3942 -0.7018  0.9191
    1CHTO   O82    2   6.260   6.595   6.291 -0.4946 -0.2357 -0.5752
    1CHTO  C123    3   6.297   6.563   6.152 -0.2475 -0.1939 -0.4350
    1CHTO  H227    4   6.395   6.514   6.150 -0.6542 -1.0307  0.1843
    1CHTO   O77    5   6.204   6.459   6.124  0.3840 -0.9800  0.4350
    1CHTO  C118    6   6.207   6.397   5.995  0.3171  0.0529  0.4161
    1CHTO  H222    7   6.308   6.354   5.982  0.5501  0.5818  0.4575
    1CHTO  C125    8   6.101   6.282   5.985  0.7758 -0.1328 -0.0529
    1CHTO   O84    9   6.135   6.169   6.069  0.1713  0.3776  0.4033
    1CHTO  H205   10   6.103   6.088   6.035  3.0795 -1.0219  0.8168
    1CHTO  C114   11   6.178   6.511   5.885  0.5716 -0.5774 -1.0524
    1CHTO  H218   12   6.078   6.549   5.905  0.5383 -0.7152 -0.9602
    1CHTO  C116   13   6.269   6.628   5.897 -0.2164  0.7766  0.2260
    1CHTO  H220   14   6.372   6.608   5.859 -0.9561 -1.2713 -0.7765
    1CHTO   O79   15   6.211   6.725   5.807 -0.0128  0.4948 -0.1422
    1CHTO  H201   16   6.270   6.798   5.809  0.4384  0.1103  0.3869
    1CHTO  C120   17   6.282   6.682   6.045  0.2443  0.5555 -0.3816
    1CHTO  H224   18   6.187   6.735   6.067  0.7190  1.3968 -0.3278
    1CHTO   N21   19   6.382   6.795   6.050 -0.3056  0.0552  0.2181
    1CHTO  H211   20   6.484   6.758   6.053 -0.7016 -1.0425  0.7909
    1CHTO  H212   21   6.352   6.864   5.973 -1.9812 -0.4255  0.4247
    1CHTO   O75   22   6.184   6.435   5.765  0.1971 -0.3199 -0.1745
    1CHTO  C112   23   6.096   6.463   5.640 -0.4706  0.2094  0.4432
    1CHTO  H216   24   6.059   6.565   5.653 -0.7161  0.2667 -0.6110
    1CHTO   O73   25   5.993   6.366   5.653 -0.2626 -0.0547  0.5776
    1CHTO  C113   26   5.897   6.343   5.549  0.0369  0.5304 -0.2541
    1CHTO  H217   27   5.829   6.430   5.550 -1.9056 -0.9166 -2.3541
    1CHTO  C124   28   5.825   6.219   5.603 -0.1130 -0.2086 -0.1559
    1CHTO   O83   29   5.900   6.100   5.626 -0.2022 -0.2908 -0.2650
    1CHTO  H204   30   5.875   6.060   5.707  1.5992 -1.0174 -0.0293
    1CHTO  C109   31   5.963   6.319   5.413  1.0671  0.1865 -0.4295
    1CHTO  H213   32   6.014   6.222   5.424 -0.5104 -0.6371 -0.2273
    1CHTO  C110   33   6.067   6.436   5.385  0.5568  0.0642 -0.0390
    1CHTO  H214   34   6.021   6.532   5.365  0.0724  0.1249  1.3062
    1CHTO   O78   35   6.132   6.407   5.257 -0.4813  0.5193  0.8354
    1CHTO  H200   36   6.155   6.316   5.249  1.0926  0.9060  0.7671
    1CHTO  C111   37   6.168   6.452   5.500 -0.1740 -0.3108 -0.3634
    1CHTO  H215   38   6.226   6.358   5.504  1.3773  0.5246 -2.1719
    1CHTO   N19   39   6.271   6.555   5.485 -0.3649  0.0909  1.2117
    1CHTO  H207   40   6.335   6.542   5.571 -0.5085 -0.0149  1.3049
    1CHTO  H208   41   6.332   6.528   5.400 -1.5675 -1.4707  0.8113
    1CHTO   O74   42   5.856   6.299   5.314  0.5804 -0.9002  0.0544
    1CHTO  C115   43   5.844   6.161   5.236  0.6608 -0.2479  0.5497
    1CHTO  H219   44   5.907   6.085   5.282  2.0955  0.2808 -0.4780
    1CHTO   O76   45   5.685   6.097   5.247 -0.2732 -0.5840  0.0621
    1CHTO  C122   46   5.599   6.141   5.142  0.0476  0.0497  0.0436
    1CHTO  H226   47   5.565   6.239   5.176  1.4306  1.1566 -1.7159
    1CHTO  C126   48   5.471   6.046   5.153 -0.4357  0.0255  0.4569
    1CHTO   O85   49   5.492   5.922   5.085  0.5099 -0.4931 -0.5078
    1CHTO  H206   50   5.566   5.886   5.130  0.3051  0.1792  0.3822
    1CHTO  C121   51   5.655   6.148   4.987  0.1583  0.2815 -0.3910
    1CHTO  H225   52   5.593   6.078   4.927 -1.3922  0.2467  1.2301
    1CHTO   O81   53   5.648   6.278   4.925  0.3143  0.2772  0.0895
    1CHTO  H202   54   5.709   6.266   4.854  0.2829  0.3203  0.0562
    1CHTO  C119   55   5.804   6.089   4.998 -0.3374 -0.1951  0.8091
    1CHTO  H223   56   5.792   5.995   5.051 -1.0308  1.3557  3.5096
    1CHTO  C117   57   5.889   6.182   5.089  0.2298 -0.6980 -0.2053
    1CHTO  H221   58   5.884   6.290   5.070  0.4055 -0.8710 -1.2593
    1CHTO   N20   59   6.036   6.150   5.077 -0.7183  0.1739  0.7176
    1CHTO  H209   60   6.067   6.171   4.976 -1.8749  0.6431  0.4537
    1CHTO  H210   61   6.057   6.045   5.091  0.6119  0.1492 -1.3054
    1CHTO   O80   62   5.863   6.041   4.853  0.0527 -0.1320  0.3111
    1CHTO  C103   63   5.917   5.889   4.838  0.8071  0.2921 -0.5160
    1CHTO  H190   64   5.962   5.857   4.932 -1.2336  1.3064  0.8405
    1CHTO  C101   65   5.812   5.779   4.794 -0.3268 -0.2940 -0.1050
    1CHTO  H188   66   5.753   5.820   4.712  1.1516 -1.9245 -2.0251
    1CHTO   O68   67   5.722   5.755   4.911 -0.1812  0.1874  0.1341
    1CHTO  H168   68   5.640   5.727   4.875 -1.0782  0.0586  2.2052
    1CHTO   C99   69   5.888   5.640   4.742 -0.2584  0.2101 -0.2699
    1CHTO  H186   70   5.938   5.596   4.831 -1.9768  1.3164  1.2673
    1CHTO   N17   71   5.791   5.535   4.703 -0.0112  0.0892 -0.6142
    1CHTO  H174   72   5.729   5.577   4.626  1.0505 -0.4267 -1.7597
    1CHTO  H175   73   5.739   5.506   4.793 -1.6059  0.8866 -1.2570
    1CHTO   C97   74   5.999   5.678   4.641  0.1541 -0.5508 -0.0921
    1CHTO  H184   75   5.953   5.719   4.550  1.6016  1.1411 -0.0811
    1CHTO   O64   76   6.088   5.772   4.701  0.3329 -0.2448 -0.3566
    1CHTO  C104   77   6.034   5.905   4.732 -0.0004 -0.1581  0.2081
    1CHTO  H191   78   5.998   5.955   4.642  1.8243  4.8368  2.0967
    1CHTO  C108   79   6.154   5.984   4.781 -0.1829  0.1992  0.0905
    1CHTO   O71   80   6.250   6.003   4.676  0.2237 -0.0575 -0.4359
    1CHTO  H171   81   6.211   5.985   4.593 -2.2117 -0.1947  0.6808
    1CHTO   O62   82   6.082   5.560   4.607  0.2282  0.1422 -0.0409
    1CHTO   C91   83   6.178   5.567   4.501  0.0557 -0.1644  0.5529
    1CHTO  H178   84   6.216   5.669   4.494  0.5720 -0.3815  0.2432
    1CHTO   C92   85   6.097   5.549   4.374  0.0382  0.7637  0.4722
    1CHTO  H179   86   6.006   5.611   4.377 -1.4229 -1.2619 -1.2012
    1CHTO   O66   87   6.165   5.611   4.267 -0.4929  0.1294 -0.6786
    1CHTO  H166   88   6.094   5.627   4.209 -0.7537 -0.5654 -0.5656
    1CHTO   C93   89   6.078   5.395   4.333  0.2674 -0.0427  0.4240
    1CHTO  H180   90   6.056   5.394   4.226  0.4412 -2.6114  0.3819
    1CHTO   N16   91   5.979   5.307   4.400 -0.0127 -0.1510  0.6708
    1CHTO  H172   92   5.885   5.350   4.368  0.6080  0.6812 -0.0542
    1CHTO  H173   93   6.001   5.306   4.505 -0.2102 -1.0278  0.7083
    1CHTO   C94   94   6.221   5.316   4.346  0.0341 -0.8353 -0.5602
    1CHTO  H181   95   6.218   5.238   4.422  1.3623 -0.0151  0.3445
    1CHTO   O61   96   6.323   5.410   4.379 -0.3153 -0.3874  0.0200
    1CHTO   C95   97   6.305   5.475   4.506 -0.2578  0.3938  0.0121
    1CHTO  H182   98   6.298   5.399   4.584 -0.9652 -0.1617 -0.5762
    1CHTO  C106   99   6.426   5.557   4.541  1.0101  0.1760 -0.3128
    1CHTO   O69  100   6.542   5.472   4.579 -0.1515 -0.0194  0.1630
    1CHTO  H169  101   6.621   5.520   4.562 -0.4011  0.4641  0.3524
    1CHTO   O63  102   6.263   5.254   4.214 -0.2734 -0.4836  0.1682
    1CHTO   C96  103   6.355   5.134   4.220  0.1624  0.1455 -0.0471
    1CHTO  H183  104   6.323   5.077   4.307  0.7198 -0.3217 -0.1503
    1CHTO   C98  105   6.507   5.172   4.214  0.0210 -0.2504 -0.1656
    1CHTO  H185  106   6.527   5.248   4.291 -1.8750 -1.1297  1.2130
    1CHTO   O67  107   6.593   5.066   4.245 -0.2487  0.1464 -0.2161
    1CHTO  H167  108   6.581   4.989   4.193 -0.0601 -1.3731  1.9066
    1CHTO  C102  109   6.542   5.235   4.074  0.2813 -0.0579 -0.2851
    1CHTO  H189  110   6.650   5.253   4.080 -0.1839  2.2568  1.9247
    1CHTO   N18  111   6.487   5.372   4.046  0.3088 -0.6333 -0.2154
    1CHTO  H176  112   6.381   5.366   4.024  0.2938 -0.1609 -0.2627
    1CHTO  H177  113   6.530   5.413   3.957  0.4301  2.4499  1.2116
    1CHTO  C105  114   6.516   5.126   3.966 -0.2097  0.7891  0.0908
    1CHTO  H192  115   6.511   5.170   3.866  1.5647  0.3014 -0.2157
    1CHTO   O65  116   6.401   5.039   3.986 -0.3045 -0.0581 -0.8404
    1CHTO  C100  117   6.308   5.043   4.092 -0.1723  0.7176 -0.6410
    1CHTO  H187  118   6.214   5.081   4.050 -0.3246  1.5398  0.4077
    1CHTO  C107  119   6.265   4.903   4.124  0.2100  0.6658 -0.8040
    1CHTO   O70  120   6.379   4.832   4.158  0.1802 -0.0892  0.0925
    1CHTO  H170  121   6.418   4.870   4.234 -0.4770  2.2331 -0.6965
    1CHTO   O57  122   6.634   5.040   3.979 -0.7682 -0.4065 -0.0085
    1CHTO   C85  123   6.732   4.997   3.881 -0.1145 -0.0486  0.7382
    1CHTO  H157  124   6.676   4.987   3.786 -0.0713  2.4368  0.4251
    1CHTO   C83  125   6.779   4.853   3.926  0.8468  0.2583  0.4244
    1CHTO  H155  126   6.698   4.784   3.900  1.2182  0.6303 -1.8546
    1CHTO   O56  127   6.780   4.851   4.063 -0.7032 -0.2121 -0.4476
    1CHTO  H135  128   6.821   4.927   4.101 -0.8750  0.2472 -1.1757
    1CHTO   C81  129   6.904   4.812   3.851  0.2524  0.2280  0.1270
    1CHTO  H153  130   6.884   4.808   3.744 -1.3287  0.9777  0.3947
    1CHTO   N14  131   6.945   4.677   3.892 -0.0416  0.3633  0.2634
    1CHTO  H141  132   6.970   4.615   3.808  1.5998  0.7724  0.4348
    1CHTO  H142  133   7.028   4.687   3.959  2.0377 -1.9903 -1.8524
    1CHTO   C79  134   7.018   4.920   3.874  0.5544 -0.0276 -0.7930
    1CHTO  H151  135   7.109   4.877   3.831  0.7838 -1.5804  1.1475
    1CHTO   O52  136   6.979   5.045   3.819 -0.0503  0.2740  0.4941
    1CHTO   C86  137   6.850   5.095   3.869  0.0437  0.3470 -0.1443
    1CHTO  H158  138   6.875   5.127   3.972  0.4214 -2.4946  0.6909
    1CHTO   C90  139   6.810   5.220   3.789 -0.0651  0.5606  0.4234
    1CHTO   O60  140   6.815   5.199   3.649 -0.3875  0.4703 -0.5678
    1CHTO  H138  141   6.773   5.121   3.619  0.7358 -0.4950  0.3214
    1CHTO   O50  142   7.052   4.942   4.017 -0.0543  0.3078 -0.0735
    1CHTO   C73  143   7.151   4.994   4.111 -0.0934 -0.1903 -0.1137
    1CHTO  H145  144   7.248   4.941   4.109  1.1615  2.0263  0.5088
    1CHTO   C74  145   7.089   4.988   4.251 -0.3892 -0.9699 -0.3733
    1CHTO  H146  146   7.061   4.882   4.263  0.4780 -1.0338  1.1583
    1CHTO   O54  147   7.192   5.012   4.346 -0.0119  0.1174  0.5291
    1CHTO  H133  148   7.259   4.947   4.345 -0.1422 -0.0245 -2.3922
    1CHTO   C75  149   6.963   5.084   4.268  0.0881 -0.9568 -0.1217
    1CHTO  H147  150   6.887   5.065   4.191  0.0607 -1.0088 -0.0831
    1CHTO   N13  151   6.898   5.075   4.402 -0.1708 -0.1855  0.1585
    1CHTO  H139  152   6.914   4.982   4.456  0.8492 -1.3059 -2.0205
    1CHTO  H140  153   6.919   5.165   4.456 -0.3224 -0.7046  1.1058
    1CHTO   C76  154   7.008   5.232   4.236 -0.0892 -0.3289  0.6132
    1CHTO  H148  155   7.083   5.260   4.309  0.3228  1.1646 -0.3592
    1CHTO   O49  156   7.059   5.234   4.095 -0.5788 -0.0173 -0.1576
    1CHTO   C77  157   7.183   5.149   4.085 -0.1985  0.0491  0.4955
    1CHTO  H149  158   7.257   5.187   4.155 -0.4317  2.8031 -0.6532
    1CHTO   C88  159   7.254   5.181   3.950  0.2819 -0.4618 -0.1344
    1CHTO   O58  160   7.405   5.125   3.944  0.4687 -0.5941  0.1553
    1CHTO  H136  161   7.403   5.033   3.926 -1.3325 -0.4236 -0.6814
    1CHTO   O51  162   6.872   5.337   4.216  0.4084 -0.8178 -0.2846
    1CHTO   C78  163   6.904   5.473   4.262 -0.4148  0.1858  0.4423
    1CHTO  H150  164   7.013   5.492   4.266 -0.0803 -1.6880  0.6492
    1CHTO   C80  165   6.844   5.489   4.401  0.5548 -0.0993  0.0799
    1CHTO  H152  166   6.736   5.467   4.392 -0.1721  1.1277  4.5106
    1CHTO   O55  167   6.904   5.403   4.491  0.7249  1.2553  0.1219
    1CHTO  H134  168   6.882   5.314   4.472  1.2465  0.7698  1.6941
    1CHTO   C84  169   6.870   5.635   4.447 -0.9454  0.1521 -0.3987
    1CHTO  H156  170   6.976   5.651   4.469 -0.6342 -0.5767 -1.3139
    1CHTO   N15  171   6.802   5.675   4.581 -0.3712  1.3970  0.6826
    1CHTO  H143  172   6.697   5.666   4.565 -0.0225  1.7457 -2.1045
    1CHTO  H144  173   6.831   5.615   4.665 -1.2183 -0.7311 -0.4998
    1CHTO   C87  174   6.826   5.730   4.336  0.0052 -0.6129  0.2916
    1CHTO  H159  175   6.717   5.726   4.332  0.0403 -0.5767 -0.6878
    1CHTO   O53  176   6.872   5.701   4.210 -0.0264 -0.1242 -0.2283
    1CHTO   C82  177   6.848   5.571   4.157 -0.5006 -0.6228  0.5959
    1CHTO  H154  178   6.743   5.554   4.132  0.2336  0.5661 -3.8227
    1CHTO   C89  179   6.922   5.562   4.025 -0.3791 -0.2893  0.1693
    1CHTO   O59  180   6.854   5.632   3.920 -0.3731  0.3047  0.0611
    1CHTO  H137  181   6.893   5.634   3.835 -2.4716  0.2082 -0.9358
    1CHTO   O45  182   6.867   5.890   4.365  0.2586 -0.0632 -0.2985
    1CHTO   C67  183   6.765   5.990   4.320 -0.9712  1.0299 -0.9954
    1CHTO  H124  184   6.724   5.955   4.225 -0.0195 -0.6030 -0.8278
    1CHTO   C65  185   6.649   5.999   4.421  0.2508 -0.0011  0.2376
    1CHTO  H122  186   6.682   5.945   4.509 -1.6690 -0.1070  0.9071
    1CHTO   O44  187   6.536   5.932   4.367  0.0643  0.5393  0.1187
    1CHTO  H102  188   6.545   5.839   4.353 -1.4952  0.1700  1.4864
    1CHTO   C63  189   6.624   6.148   4.475  0.0806 -0.8375  0.0332
    1CHTO  H120  190   6.711   6.185   4.529 -1.3831  0.1203  1.8105
    1CHTO   N11  191   6.515   6.158   4.571  0.9494 -0.1318  0.3626
    1CHTO  H108  192   6.447   6.076   4.568  0.2833  0.3830  1.1875
    1CHTO  H109  193   6.467   6.253   4.575 -1.1466 -1.1225 -0.6114
    1CHTO   C61  194   6.621   6.251   4.357 -0.0143 -0.3895 -0.0212
    1CHTO  H118  195   6.634   6.347   4.408 -3.6144  0.7066 -0.9559
    1CHTO   O40  196   6.730   6.235   4.264  0.6402  0.3847 -0.1232
    1CHTO   C68  197   6.833   6.134   4.293  0.0740 -0.4106  0.0852
    1CHTO  H125  198   6.902   6.154   4.378  1.4801 -1.6041 -0.7482
    1CHTO   C72  199   6.929   6.115   4.167 -0.3732 -0.2708 -0.0962
    1CHTO   O48  200   7.004   6.231   4.126 -0.3277 -0.2355  0.3503
    1CHTO  H105  201   6.952   6.307   4.144 -0.7912 -0.1431 -1.3093
    1CHTO   O38  202   6.497   6.257   4.292  0.0278  0.2141  0.1431
    1CHTO   C55  203   6.476   6.376   4.210 -0.3707 -0.2886  0.5343
    1CHTO  H112  204   6.565   6.441   4.207  0.0595 -0.7059  2.8912
    1CHTO   C56  205   6.345   6.457   4.262 -0.2797  0.4293 -0.5016
    1CHTO  H113  206   6.265   6.381   4.254  0.5143 -0.3626 -0.8991
    1CHTO   O42  207   6.365   6.491   4.394 -0.2844  0.4912 -0.5200
    1CHTO  H100  208   6.387   6.422   4.453  1.7896  2.7967  1.5095
    1CHTO   C57  209   6.314   6.584   4.176 -0.2198 -0.3046 -0.6131
    1CHTO  H114  210   6.403   6.646   4.186 -0.7818  0.4202 -0.0026
    1CHTO   N10  211   6.187   6.656   4.213  0.4232  0.3885  0.8054
    1CHTO  H106  212   6.202   6.732   4.287 -0.7081 -0.3273  1.7900
    1CHTO  H107  213   6.107   6.590   4.244 -0.5988  0.0844 -2.2691
    1CHTO   C58  214   6.303   6.535   4.026 -0.3677 -0.3670  0.6847
    1CHTO  H115  215   6.206   6.484   4.010 -1.0316 -0.1517  3.7519
    1CHTO   O37  216   6.417   6.457   3.981 -0.5788 -0.2386 -0.0932
    1CHTO   C59  217   6.448   6.339   4.061 -0.0623  0.1409 -0.2308
    1CHTO  H116  218   6.363   6.272   4.056  0.1272 -0.0691 -0.6575
    1CHTO   C70  219   6.570   6.280   3.990 -0.1624  0.4253  0.4451
    1CHTO   O46  220   6.599   6.143   4.026  0.1661 -0.3260 -0.6344
    1CHTO  H103  221   6.660   6.110   3.963 -0.3210 -1.0417 -0.7372
    1CHTO   O39  222   6.310   6.657   3.935  0.1294 -0.2074  0.1214
    1CHTO   C60  223   6.249   6.642   3.807 -0.0742  1.0292 -0.2407
    1CHTO  H117  224   6.234   6.534   3.802  0.2985  0.9084  1.0250
    1CHTO   C62  225   6.113   6.721   3.797 -0.0215 -0.8311 -0.3823
    1CHTO  H119  226   6.049   6.666   3.869 -0.7065  2.3248  1.4955
    1CHTO   O43  227   6.121   6.856   3.835  0.7650  0.6455  0.3449
    1CHTO  H101  228   6.082   6.871   3.919  0.0273 -1.8913  0.5176
    1CHTO   C66  229   6.050   6.697   3.643  0.8700 -0.6034 -0.5558
    1CHTO  H123  230   6.045   6.589   3.630 -0.7905 -0.4802 -1.0373
    1CHTO   N12  231   5.919   6.760   3.625 -0.2026 -0.7785 -0.1456
    1CHTO  H110  232   5.877   6.733   3.530 -0.2049  1.2102 -0.7338
    1CHTO  H111  233   5.939   6.866   3.624 -1.2803 -0.5616  0.5098
    1CHTO   C69  234   6.152   6.743   3.534 -0.4685  0.2961 -0.1021
    1CHTO  H126  235   6.165   6.853   3.537 -0.4589  0.3777 -2.0888
    1CHTO   O41  236   6.280   6.668   3.552  0.1803 -0.7466  0.2642
    1CHTO   C64  237   6.340   6.682   3.688 -0.2948  0.6366 -0.0239
    1CHTO  H121  238   6.360   6.789   3.707  1.0420  0.3061  0.4769
    1CHTO   C71  239   6.474   6.611   3.698 -0.0447 -0.4172 -0.2193
    1CHTO   O47  240   6.559   6.644   3.588  0.3327  0.0088  0.2341
    1CHTO  H104  241   6.649   6.626   3.605  0.7553 -0.5576 -2.3046
    1CHTO   O34  242   6.105   6.714   3.396  0.2194  0.5893  0.4845
    1CHTO   C49  243   6.094   6.713   3.268 -0.1624 -0.5599 -0.0493
    1CHTO   H91  244   6.093   6.609   3.235 -0.2216  0.0317 -1.9795
    1CHTO   C47  245   6.215   6.786   3.201  0.3179 -0.1731 -0.4476
    1CHTO   H89  246   6.212   6.760   3.093  0.6062 -0.0615 -0.4837
    1CHTO   O33  247   6.341   6.739   3.264 -0.4368  0.3104  0.0677
    1CHTO   H70  248   6.418   6.755   3.213 -0.8572 -0.8768 -0.9481
    1CHTO   C45  249   6.199   6.944   3.228  0.2836  0.2190 -0.6125
    1CHTO   H87  250   6.187   6.960   3.337 -1.7171 -1.4328 -0.5567
    1CHTO    N8  251   6.312   7.025   3.174  0.0116 -0.1473  0.5983
    1CHTO   H75  252   6.371   7.080   3.245 -1.4497  1.3545  0.6657
    1CHTO   H76  253   6.267   7.083   3.095  1.2179 -0.8801 -0.6568
    1CHTO   C43  254   6.057   6.985   3.161  0.5482  0.4453  0.5031
    1CHTO   H85  255   6.040   7.090   3.183  1.6571  0.5956  0.6799
    1CHTO   O29  256   5.955   6.909   3.209  0.4053  0.4253  0.3817
    1CHTO   C50  257   5.962   6.767   3.217  0.1892  0.3430  0.7928
    1CHTO   H92  258   5.883   6.741   3.289  1.5992 -0.3447  2.1494
    1CHTO   C54  259   5.916   6.709   3.076 -0.1621 -0.1258 -0.3335
    1CHTO   O36  260   5.776   6.700   3.041  0.1700  0.7035  0.1317
    1CHTO   H72  261   5.742   6.782   3.010 -1.7916 -0.1454 -0.0732
    1CHTO   O27  262   6.068   6.969   3.018 -0.1859 -0.3382  0.0683
    1CHTO   C37  263   6.009   6.988   2.889  0.3082 -0.5554 -0.1880
    1CHTO   H79  264   5.925   6.918   2.879 -0.9615  0.5991  1.9400
    1CHTO   C38  265   5.951   7.133   2.881  0.3518  0.1865 -0.0307
    1CHTO   H80  266   6.031   7.203   2.909  1.6034 -0.0263 -2.8574
    1CHTO   O31  267   5.839   7.135   2.974  0.1875  0.7895  0.2428
    1CHTO   H68  268   5.867   7.163   3.059  1.3630  0.0488  0.1167
    1CHTO   C39  269   5.899   7.176   2.739 -0.0195 -0.2696 -0.7937
    1CHTO   H81  270   5.802   7.127   2.734  0.9688 -2.2995 -0.3596
    1CHTO    N7  271   5.870   7.323   2.722  0.1113  0.2564 -0.2023
    1CHTO   H73  272   5.781   7.328   2.660 -0.9568  0.2834  1.2994
    1CHTO   H74  273   5.851   7.366   2.819  1.8580 -2.0617  1.2057
    1CHTO   C40  274   5.984   7.123   2.620  0.4377 -0.0555  0.5753
    1CHTO   H82  275   6.060   7.197   2.594 -0.4153  0.3780 -0.7495
    1CHTO   O26  276   6.038   6.991   2.640 -0.3936 -0.5483  0.4871
    1CHTO   C41  277   6.108   6.982   2.768  0.6195 -0.2145 -0.0683
    1CHTO   H83  278   6.180   7.064   2.778  0.5089 -0.3191  1.7513
    1CHTO   C52  279   6.200   6.853   2.778  0.4623 -0.5307 -0.6946
    1CHTO   O35  280   6.315   6.875   2.689 -0.3578 -0.6376 -0.6115
    1CHTO   H71  281   6.402   6.858   2.720 -0.5013 -0.8354 -0.3123
    1CHTO   O28  282   5.903   7.100   2.494  0.3387 -0.4470 -0.2877
    1CHTO   C42  283   5.952   7.101   2.353 -0.1899 -0.5019 -0.5233
    1CHTO   H84  284   5.861   7.088   2.292 -0.3606  0.3706 -0.4608
    1CHTO   C44  285   6.049   6.984   2.302  0.9522 -0.0858 -0.1213
    1CHTO   H86  286   6.148   6.998   2.346 -0.6438 -0.3400  3.7359
    1CHTO   O32  287   6.002   6.854   2.351 -0.1916  0.3119 -0.4634
    1CHTO   H69  288   5.915   6.832   2.323 -0.8571 -0.4963  2.1590
    1CHTO   C48  289   6.054   6.979   2.142  0.1184 -0.0828 -0.1061
    1CHTO   H90  290   5.956   6.946   2.110  0.3465 -2.4571  1.5224
    1CHTO    N9  291   6.138   6.868   2.084 -0.1382 -0.3024  0.1732
    1CHTO   H77  292   6.227   6.861   2.144  0.0152 -0.0937 -0.0271
    1CHTO   H78  293   6.157   6.894   1.981 -0.4034 -3.6244 -0.7524
    1CHTO   C51  294   6.104   7.117   2.093  0.4305 -0.0462 -0.0700
    1CHTO   H93  295   6.208   7.136   2.116  0.8660  0.1019 -2.0111
    1CHTO   O30  296   6.021   7.225   2.139  0.6840  0.6068 -0.6185
    1CHTO   C46  297   6.019   7.238   2.306  0.3658 -0.1059 -0.3682
    1CHTO   H88  298   6.121   7.243   2.344 -0.0448  0.4042  0.6721
    1CHTO   C53  299   5.933   7.362   2.338  0.1994 -0.1478  0.9027
    1CHTO   O72  300   5.806   7.338   2.288 -0.1321 -0.6829  0.5238
    1CHTO  H199  301   5.805   7.371   2.200 -1.4712  0.6683  1.0138
    1CHTO   O22  302   6.087   7.126   1.947  0.4496 -0.0546  0.3819
    1CHTO   C31  303   6.155   7.227   1.860 -0.3570  0.0802 -0.0615
    1CHTO   H59  304   6.147   7.190   1.756  0.8744 -1.6026  0.4052
    1CHTO   C29  305   6.094   7.372   1.868 -0.4740 -0.1036  0.4251
    1CHTO   H57  306   6.108   7.392   1.975  1.5449 -2.1986  0.5913
    1CHTO   O21  307   5.955   7.366   1.846  0.1334  0.3464  0.1609
    1CHTO   H37  308   5.922   7.453   1.861 -2.5920 -0.7154  0.6207
    1CHTO   C27  309   6.169   7.475   1.778 -0.6621  0.7836 -0.0933
    1CHTO   H55  310   6.141   7.450   1.675 -1.3354  1.2958 -0.0354
    1CHTO    N5  311   6.129   7.613   1.799 -0.5826  0.0652  0.1159
    1CHTO   H43  312   6.121   7.629   1.906 -0.0289 -0.8291  0.2998
    1CHTO   H44  313   6.198   7.680   1.752 -0.0636 -1.4932 -1.3710
    1CHTO   C25  314   6.328   7.461   1.787  1.1994 -0.5522  0.0649
    1CHTO   H53  315   6.362   7.518   1.875  0.2722 -1.3602  0.9632
    1CHTO   O17  316   6.370   7.322   1.787  0.3497 -0.1444 -0.2613
    1CHTO   C32  317   6.308   7.231   1.879 -0.2514 -0.4799  0.0459
    1CHTO   H60  318   6.325   7.260   1.983 -1.6098 -0.3835  0.2523
    1CHTO   C36  319   6.380   7.093   1.867  0.3984  0.2575 -0.4372
    1CHTO   O25  320   6.516   7.102   1.908  0.0781  0.5759 -0.1407
    1CHTO   H40  321   6.559   7.019   1.897  0.5310  0.8236 -0.2378
    1CHTO   O15  322   6.396   7.518   1.677  0.0440 -0.0008 -0.2992
    1CHTO   C19  323   6.391   7.554   1.531  0.0839  0.4268  0.4082
    1CHTO   H47  324   6.284   7.562   1.504  1.0537  1.1810 -3.5416
    1CHTO   C20  325   6.453   7.695   1.498  0.6711  0.0423  0.0233
    1CHTO   H48  326   6.552   7.707   1.545  1.2523 -0.0051 -1.1709
    1CHTO   O19  327   6.373   7.794   1.557 -0.1070  0.0150 -0.3059
    1CHTO   H35  328   6.405   7.829   1.638 -0.4996  0.0423 -0.1587
    1CHTO   C21  329   6.466   7.727   1.340  0.0267 -0.3706 -0.7638
    1CHTO   H49  330   6.364   7.753   1.311 -1.7226 -5.1146  0.5945
    1CHTO    N4  331   6.563   7.838   1.320  0.4351 -0.3988  0.3513
    1CHTO   H41  332   6.661   7.813   1.359 -0.2174  2.5091  4.2652
    1CHTO   H42  333   6.539   7.937   1.357 -3.1199 -0.1235 -2.4296
    1CHTO   C22  334   6.510   7.598   1.262  0.5017  0.8607 -0.0021
    1CHTO   H50  335   6.616   7.575   1.271  0.1164 -1.4198 -0.9662
    1CHTO   O14  336   6.439   7.484   1.293 -0.1607  0.3382 -0.0942
    1CHTO   C23  337   6.453   7.446   1.435 -0.2676  0.1078 -0.0311
    1CHTO   H51  338   6.559   7.428   1.456 -0.3197 -0.0418  0.1034
    1CHTO   C34  339   6.382   7.310   1.459  0.0638 -0.4404  0.2753
    1CHTO   O23  340   6.460   7.207   1.404  0.0645 -0.2568  0.5729
    1CHTO   H38  341   6.410   7.130   1.383  0.2816 -0.0796 -0.6430
    1CHTO   O16  342   6.478   7.624   1.125 -0.2838 -0.1665  0.3208
    1CHTO   C24  343   6.530   7.528   1.004 -0.0943 -0.4380  0.4194
    1CHTO   H52  344   6.573   7.435   1.041 -0.4092 -1.2617 -1.2265
    1CHTO   C26  345   6.641   7.589   0.923 -0.0624  0.8297 -0.7758
    1CHTO   H54  346   6.615   7.695   0.902 -0.2110  0.8911 -0.2757
    1CHTO   O20  347   6.755   7.579   1.006 -0.4938  0.7881 -0.1180
    1CHTO   H36  348   6.777   7.662   1.044  2.3152  0.6853 -1.3761
    1CHTO   C30  349   6.674   7.512   0.792  0.3926  0.0852 -0.5629
    1CHTO   H58  350   6.709   7.409   0.808 -1.6317 -0.4725  0.4897
    1CHTO    N6  351   6.780   7.581   0.718  0.6220  0.4300  0.6128
    1CHTO   H45  352   6.842   7.508   0.667  0.6151  1.4560 -0.8863
    1CHTO   H46  353   6.744   7.655   0.648 -0.9609  1.5499  2.5698
    1CHTO   C33  354   6.535   7.490   0.714 -0.3092 -0.3107  0.1861
    1CHTO   H61  355   6.490   7.585   0.684  0.5184  0.3537  1.0389
    1CHTO   O18  356   6.450   7.417   0.807 -0.4408  0.2887  0.4937
    1CHTO   C28  357   6.407   7.495   0.918  0.3313  0.6285  0.2275
    1CHTO   H56  358   6.358   7.588   0.888 -1.3488 -0.2019  0.3346
    1CHTO   C35  359   6.307   7.411   1.006 -0.4272  0.1572  0.6721
    1CHTO   O24  360   6.210   7.358   0.913  0.5652  0.4789  0.4413
    1CHTO   H39  361   6.133   7.411   0.926 -0.1700 -0.6302  0.6627
    1CHTO    O9  362   6.554   7.417   0.591 -0.0487 -0.2757 -0.0514
    1CHTO   C13  363   6.492   7.503   0.455 -0.2112 -0.2344 -0.7867
    1CHTO   H26  364   6.541   7.601   0.464 -1.4794  0.1730  2.5904
    1CHTO   C11  365   6.332   7.522   0.466 -0.1947  0.6943 -0.1914
    1CHTO   H24  366   6.317   7.565   0.566  0.0807  1.9489 -0.6913
    1CHTO    O8  367   6.263   7.392   0.479 -0.4318 -0.5130  0.3136
    1CHTO    H3  368   6.324   7.337   0.434  1.7321 -0.5432  3.1048
    1CHTO    C9  369   6.281   7.594   0.335 -0.3279 -0.1323 -0.2882
    1CHTO   H22  370   6.335   7.690   0.330  0.2833 -0.3866  1.0387
    1CHTO    N2  371   6.136   7.637   0.340  0.4830 -0.1293  0.6058
    1CHTO   H10  372   6.077   7.555   0.302 -0.9356  1.7312 -1.2963
    1CHTO   H11  373   6.113   7.671   0.440  1.0858 -1.3098  1.1593
    1CHTO    C7  374   6.334   7.510   0.208  1.0779 -0.2941  0.0288
    1CHTO   H20  375   6.372   7.588   0.139  0.7936 -1.1808 -1.1391
    1CHTO    O4  376   6.431   7.407   0.243  0.2815  0.0134  0.6877
    1CHTO   C14  377   6.547   7.436   0.319  0.0275  0.1694 -0.7910
    1CHTO   H27  378   6.603   7.501   0.249 -0.6609  1.0585 -0.5343
    1CHTO   C18  379   6.632   7.315   0.346 -0.6714 -0.0112  0.0614
    1CHTO   O13  380   6.557   7.204   0.396 -0.2283 -0.0134 -0.0098
    1CHTO    H7  381   6.594   7.169   0.474  0.3043 -4.6402 -2.1671
    1CHTO    O2  382   6.211   7.440   0.138 -0.6863  0.2970 -0.1503
    1CHTO    C1  383   6.254   7.357   0.028  0.3459 -0.4498 -0.0035
    1CHTO   H14  384   6.357   7.317   0.032 -0.3699 -2.2762  0.2364
    1CHTO    C2  385   6.234   7.442  -0.110 -0.2919  0.1346 -0.4637
    1CHTO   H15  386   6.127   7.468  -0.111 -0.0388  1.2158  0.2716
    1CHTO    O6  387   6.314   7.562  -0.107 -0.0074 -0.2978  0.3151
    1CHTO    H1  388   6.391   7.549  -0.055 -0.0214 -1.2971  0.0940
    1CHTO    C3  389   6.268   7.328  -0.231 -0.1524 -0.1700 -0.3525
    1CHTO   H16  390   6.375   7.301  -0.239  0.1053  0.5569  0.6136
    1CHTO    N1  391   6.234   7.389  -0.361  0.5536  0.0805  0.1780
    1CHTO    H8  392   6.206   7.315  -0.434  1.1934 -0.4046  0.4178
    1CHTO    H9  393   6.154   7.461  -0.358 -0.9441 -1.5975  2.0042
    1CHTO    C4  394   6.194   7.194  -0.216  0.7329 -0.8493 -0.3176
    1CHTO   H17  395   6.092   7.205  -0.253  0.8340  0.6784 -0.1449
    1CHTO    O1  396   6.200   7.139  -0.083 -0.2898  0.0411  0.4571
    1CHTO    C5  397   6.161   7.235   0.018  0.4804  0.0627  0.0998
    1CHTO   H18  398   6.058   7.267   0.003 -0.1898 -1.5854  1.0196
    1CHTO   C16  399   6.164   7.145   0.146  0.2176  0.2907 -0.1158
    1CHTO   O11  400   6.289   7.109   0.204  0.1653  0.2668 -0.2233
    1CHTO    H5  401   6.268   7.059   0.281 -0.3615  0.3410 -0.3140
    1CHTO    O3  402   6.258   7.090  -0.295 -0.0475 -0.3568  0.1112
    1CHTO    C6  403   6.161   6.991  -0.340 -0.1906  0.4184  0.3192
    1CHTO   H19  404   6.060   7.002  -0.299 -0.3570  1.6584 -0.4261
    1CHTO    C8  405   6.160   7.011  -0.496  0.4107  0.3091 -1.0683
    1CHTO   H21  406   6.261   7.002  -0.534  0.7387  1.1136 -0.4129
    1CHTO    O7  407   6.102   7.143  -0.522 -0.2360 -0.1587 -0.1527
    1CHTO    H2  408   6.099   7.164  -0.614 -0.3055  1.9837  0.3093
    1CHTO   C12  409   6.077   6.891  -0.566 -0.1944  0.3074  0.6097
    1CHTO   H25  410   5.970   6.899  -0.536 -0.7131 -1.0062 -0.8327
    1CHTO    N3  411   6.075   6.905  -0.714  0.5962  0.4069  0.0160
    1CHTO   H12  412   6.172   6.915  -0.761  2.5400 -0.3053  3.6706
    1CHTO   H13  413   6.023   6.997  -0.735 -0.7228 -0.4342 -0.4904
    1CHTO   C15  414   6.130   6.753  -0.516  1.1866  0.2645  0.1268
    1CHTO   H28  415   6.226   6.731  -0.561  1.2411  0.0836  0.3292
    1CHTO   O10  416   6.033   6.619  -0.557  0.1259 -0.2084 -0.1720
    1CHTO    H4  417   5.946   6.650  -0.572 -0.0094  0.2157  1.3904
    1CHTO    O5  418   6.132   6.748  -0.370  0.3308  0.0361  0.2306
    1CHTO   C10  419   6.218   6.849  -0.307  0.1540 -0.4196 -0.0382
    1CHTO   H23  420   6.319   6.834  -0.345 -0.0758 -0.0282 -0.8064
    1CHTO   C17  421   6.240   6.833  -0.153  0.2520 -0.0037 -0.3002
    1CHTO   O12  422   6.114   6.838  -0.088 -0.0344  0.2306  0.0016
    1CHTO    H6  423   6.109   6.779  -0.015  1.6720 -0.3584 -0.3148
    2CHTO  H203  424   6.074   5.122   7.192 -0.7870 -1.3927  0.6538
    2CHTO   O82  425   5.996   5.174   7.198  0.0184 -0.1287  0.1844
    2CHTO  C123  426   5.912   5.136   7.085  0.4656  0.0102  1.1014
    2CHTO  H227  427   5.926   5.028   7.073 -0.4856 -0.5441  4.4923
    2CHTO   O77  428   5.774   5.162   7.132  0.4903 -0.0906 -1.4961
    2CHTO  C118  429   5.674   5.138   7.027 -0.6210  0.1988 -0.4099
    2CHTO  H222  430   5.672   5.034   6.991  0.2682 -0.8970  2.6271
    2CHTO  C125  431   5.540   5.168   7.095 -0.4411  0.0179  0.1638
    2CHTO   O84  432   5.543   5.299   7.161  0.1669  0.1254  0.1922
    2CHTO  H205  433   5.485   5.311   7.234  1.7111 -0.4319  1.5292
    2CHTO  C114  434   5.700   5.233   6.913  0.0498 -0.5140 -0.3547
    2CHTO  H218  435   5.697   5.337   6.947  0.3883 -0.7582  0.4581
    2CHTO  C116  436   5.839   5.202   6.850 -0.3961 -0.1033 -0.0380
    2CHTO  H220  437   5.845   5.099   6.808  1.3656  0.3568 -0.9838
    2CHTO   O79  438   5.858   5.305   6.747  0.0852 -0.3358 -0.3357
    2CHTO  H201  439   5.818   5.286   6.664  0.0748 -1.3710 -0.1002
    2CHTO  C120  440   5.953   5.217   6.953 -0.4262 -0.5593 -0.4220
    2CHTO  H224  441   5.956   5.323   6.984  2.0241 -1.1147  1.3357
    2CHTO   N21  442   6.090   5.194   6.904 -0.1821 -0.2636 -0.5229
    2CHTO  H211  443   6.114   5.098   6.861  3.4063  0.8106 -1.1150
    2CHTO  H212  444   6.154   5.222   6.987  1.9797  0.3847 -2.3381
    2CHTO   O75  445   5.592   5.218   6.818 -0.2272  0.1107  0.0759
    2CHTO  C112  446   5.542   5.374   6.768  0.2917 -0.2827  0.4596
    2CHTO  H216  447   5.625   5.445   6.750  0.2133  0.0071  1.1900
    2CHTO   O73  448   5.457   5.421   6.870 -0.9076 -0.5827 -1.0996
    2CHTO  C113  449   5.398   5.546   6.850  0.3243 -0.9148  0.1032
    2CHTO  H217  450   5.476   5.618   6.819  0.4478 -0.3426  1.7237
    2CHTO  C124  451   5.321   5.595   6.969 -0.3948 -0.2076 -0.1785
    2CHTO   O83  452   5.417   5.612   7.075  0.3412  0.1696 -0.0799
    2CHTO  H204  453   5.425   5.530   7.120  1.2586 -0.5315 -1.5269
    2CHTO  C109  454   5.305   5.531   6.729 -1.3088  0.0857  0.3164
    2CHTO  H213  455   5.225   5.460   6.755  0.2399 -1.8237 -0.0170
    2CHTO  C110  456   5.385   5.489   6.604  0.2226 -0.0747 -0.1615
    2CHTO  H214  457   5.454   5.569   6.578  0.2311  0.0699  0.3030
    2CHTO   O78  458   5.300   5.469   6.490 -0.3354 -0.1650 -0.0588
    2CHTO  H200  459   5.232   5.406   6.506 -0.8612 -0.2914 -2.6087
    2CHTO  C111  460   5.463   5.357   6.630  0.3794 -0.9152 -0.2744
    2CHTO  H215  461   5.394   5.276   6.658  0.3078 -0.1979  1.7573
    2CHTO   N19  462   5.551   5.305   6.520  0.1334  0.2714  0.6574
    2CHTO  H207  463   5.630   5.251   6.571  1.6330 -0.1343 -1.9756
    2CHTO  H208  464   5.486   5.242   6.461 -2.0775  1.3926  1.8696
    2CHTO   O74  465   5.243   5.665   6.703  0.0806 -0.0715 -0.1509
    2CHTO  C115  466   5.076   5.648   6.644  0.6048  0.2200  0.3521
    2CHTO  H219  467   5.069   5.667   6.537  0.0273 -2.7407 -0.1761
    2CHTO   O76  468   5.024   5.518   6.671  0.2009 -0.3372  0.8210
    2CHTO  C122  469   4.888   5.488   6.637 -0.2827 -0.2299 -0.1959
    2CHTO  H226  470   4.854   5.402   6.694  1.5369 -0.0812  1.1570
    2CHTO  C126  471   4.877   5.454   6.488 -0.5347 -0.6493  0.4505
    2CHTO   O85  472   4.960   5.344   6.447  0.8642  0.5848  0.3675
    2CHTO  H206  473   4.941   5.317   6.359  0.0022  1.1860  0.3657
    2CHTO  C121  474   4.789   5.612   6.676  0.6384 -0.8917 -0.7268
    2CHTO  H225  475   4.696   5.614   6.616  1.4923  0.3117 -2.0541
    2CHTO   O81  476   4.751   5.595   6.816 -0.2895 -0.0049  0.5804
    2CHTO  H202  477   4.737   5.506   6.840 -0.3519  0.3539  1.9240
    2CHTO  C119  478   4.851   5.754   6.658 -0.6513 -0.3930  0.2997
    2CHTO  H223  479   4.858   5.758   6.549 -1.9243 -2.2433  0.1209
    2CHTO  C117  480   4.991   5.755   6.719 -0.8574 -0.4978  0.6804
    2CHTO  H221  481   5.004   5.743   6.827 -2.0965 -1.7257  0.7062
    2CHTO   N20  482   5.056   5.888   6.686 -0.4229 -0.5561  0.2261
    2CHTO  H209  483   5.003   5.978   6.714 -0.4854 -0.1138 -1.2714
    2CHTO  H210  484   5.082   5.896   6.581  2.5049  2.6028  1.0955
    2CHTO   O80  485   4.756   5.880   6.695  0.0278 -0.8954  0.1478
    2CHTO  C103  486   4.621   5.903   6.632 -0.2620 -0.0198 -0.5461
    2CHTO  H190  487   4.609   5.840   6.544 -2.3446  0.3624 -0.5752
    2CHTO  C101  488   4.499   5.871   6.717  0.0220  0.4549 -0.7337
    2CHTO  H188  489   4.517   5.921   6.812 -0.3302  0.2680 -0.5712
    2CHTO   O68  490   4.493   5.711   6.738 -0.5932  0.4031  0.4179
    2CHTO  H168  491   4.422   5.672   6.691 -0.3356 -0.7636  0.9873
    2CHTO   C99  492   4.357   5.923   6.651 -0.1150  0.8653 -0.4619
    2CHTO  H186  493   4.343   5.856   6.564 -3.6032 -1.1030  1.4764
    2CHTO   N17  494   4.236   5.902   6.740 -0.2035  0.2981 -0.6794
    2CHTO  H174  495   4.215   5.800   6.770  1.5523  0.0753 -0.2015
    2CHTO  H175  496   4.153   5.960   6.702 -1.0200  0.2131  0.9222
    2CHTO   C97  497   4.377   6.067   6.605 -0.8959 -0.3419  0.9490
    2CHTO  H184  498   4.396   6.133   6.691 -0.1600  1.2191 -0.3797
    2CHTO   O64  499   4.490   6.075   6.516 -0.8449 -0.3569  0.6505
    2CHTO  C104  500   4.615   6.049   6.580  0.5082 -0.1705  0.0833
    2CHTO  H191  501   4.635   6.121   6.659 -0.4672  0.0586  0.1313
    2CHTO  C108  502   4.716   6.078   6.468  0.7637  0.3045  0.5537
    2CHTO   O71  503   4.854   6.107   6.511 -0.4499  0.6124 -0.4260
    2CHTO  H171  504   4.872   6.039   6.572  0.5899 -0.3969 -1.8406
    2CHTO   O62  505   4.273   6.119   6.527  0.2332 -0.0702 -0.0777
    2CHTO   C91  506   4.193   6.223   6.597 -0.1679  0.0126  0.0400
    2CHTO  H178  507   4.184   6.199   6.703 -0.2294 -2.5452 -0.5026
    2CHTO   C92  508   4.048   6.227   6.538 -0.1961  0.5698 -0.0672
    2CHTO  H179  509   4.006   6.126   6.527 -0.9891  0.8868  0.0375
    2CHTO   O66  510   3.975   6.282   6.642  0.4123 -0.0353 -0.2188
    2CHTO  H166  511   3.909   6.222   6.673 -0.1389  0.2361 -0.8647
    2CHTO   C93  512   4.029   6.298   6.403 -0.3276 -0.4518 -1.1075
    2CHTO  H180  513   3.932   6.351   6.398 -0.4798 -0.6492 -0.3336
    2CHTO   N16  514   4.016   6.219   6.279 -0.8275  0.0597  0.3457
    2CHTO  H172  515   3.943   6.249   6.204  0.0761  0.8038 -0.2459
    2CHTO  H173  516   4.040   6.114   6.283  3.6008  0.9096 -1.2198
    2CHTO   C94  517   4.141   6.407   6.387 -0.4061 -0.5192  0.2762
    2CHTO  H181  518   4.231   6.364   6.344  0.8486  0.6880  1.6479
    2CHTO   O61  519   4.181   6.462   6.508  0.1614  0.1323 -0.1635
    2CHTO   C95  520   4.263   6.368   6.584 -0.0386 -0.0725  0.3486
    2CHTO  H182  521   4.360   6.350   6.537 -0.5075  0.8713 -1.0086
    2CHTO  C106  522   4.287   6.431   6.729  0.1511  0.3864 -0.4474
    2CHTO   O69  523   4.165   6.424   6.807  0.4603 -0.3511 -0.1781
    2CHTO  H169  524   4.187   6.459   6.892 -1.1288  3.0156 -1.0397
    2CHTO   O63  525   4.098   6.510   6.295  0.2999  0.0930 -0.1172
    2CHTO   C96  526   4.226   6.597   6.228 -0.6515  0.2633  0.1903
    2CHTO  H183  527   4.324   6.552   6.247 -0.8646 -0.2206  0.1568
    2CHTO   C98  528   4.245   6.741   6.276  0.9141 -0.2932 -0.1023
    2CHTO  H185  529   4.150   6.797   6.273  0.5868 -0.9487 -2.6239
    2CHTO   O67  530   4.279   6.731   6.419  0.2703 -0.1197 -0.5009
    2CHTO  H167  531   4.279   6.805   6.478  0.8252 -2.5057  2.6077
    2CHTO  C102  532   4.360   6.830   6.198 -0.3376 -0.5769 -0.6876
    2CHTO  H189  533   4.456   6.780   6.216 -1.0859 -2.1699 -1.0887
    2CHTO   N18  534   4.377   6.974   6.240 -0.1830 -0.2203 -0.1881
    2CHTO  H176  535   4.281   7.018   6.263  0.4213  0.6684  0.6555
    2CHTO  H177  536   4.423   7.028   6.159  4.3800 -0.3286  2.1842
    2CHTO  C105  537   4.353   6.811   6.043 -0.5241 -0.4280  0.7489
    2CHTO  H192  538   4.272   6.869   5.999  0.1974  0.7685  0.9572
    2CHTO   O65  539   4.340   6.670   6.010 -0.1125  0.5450 -0.2837
    2CHTO  C100  540   4.223   6.604   6.070 -0.5678 -0.3758  0.1314
    2CHTO  H187  541   4.133   6.661   6.042  1.3117  2.5737 -0.0972
    2CHTO  C107  542   4.203   6.460   6.013  0.1036 -0.6468 -0.1691
    2CHTO   O70  543   4.325   6.386   6.004  0.1279  0.8345  0.2239
    2CHTO  H170  544   4.323   6.321   6.071  2.8802  0.1978 -0.2470
    2CHTO   O57  545   4.492   6.874   5.975  0.2759  0.8830  0.2858
    2CHTO   C85  546   4.596   6.785   5.928  0.1111  0.7235  0.3032
    2CHTO  H157  547   4.551   6.697   5.877 -0.9839  1.9789 -0.9634
    2CHTO   C83  548   4.681   6.729   6.041 -0.2857 -0.4172  0.1325
    2CHTO  H155  549   4.617   6.667   6.103  1.8422 -1.0779  1.7194
    2CHTO   O56  550   4.735   6.837   6.121 -0.3474  0.0210 -0.5133
    2CHTO  H135  551   4.666   6.885   6.164 -0.3412 -0.8432  0.4751
    2CHTO   C81  552   4.789   6.637   5.966  0.7581  0.7030 -0.1030
    2CHTO  H153  553   4.735   6.570   5.899 -0.4129  1.1704  0.3621
    2CHTO   N14  554   4.864   6.557   6.071  0.5127 -0.1001  0.2122
    2CHTO  H141  555   4.942   6.615   6.115  2.6614  0.4386 -4.0673
    2CHTO  H142  556   4.798   6.511   6.141  0.4386 -0.4555 -0.0884
    2CHTO   C79  557   4.891   6.720   5.884 -0.5279 -0.0764 -1.0719
    2CHTO  H151  558   4.956   6.650   5.833  0.7470 -1.1655  1.9004
    2CHTO   O52  559   4.802   6.774   5.775 -0.1258 -0.0893 -0.0513
    2CHTO   C86  560   4.694   6.860   5.828  0.2667 -1.2553 -0.4956
    2CHTO  H158  561   4.751   6.943   5.876  0.3881 -0.5796 -1.7899
    2CHTO   C90  562   4.627   6.925   5.711 -0.6920  0.0192  0.6345
    2CHTO   O60  563   4.723   6.997   5.636 -0.3538 -0.3591  0.1222
    2CHTO  H138  564   4.682   7.058   5.578 -0.1431  0.0730  0.4276
    2CHTO   O50  565   4.960   6.831   5.941  0.0963  0.0298 -0.0317
    2CHTO   C73  566   5.000   6.964   5.925 -0.2998 -0.0952 -0.1700
    2CHTO  H145  567   4.918   7.038   5.930  0.4480  0.6107  2.1484
    2CHTO   C74  568   5.084   6.980   5.795 -1.0584  0.1803  0.1884
    2CHTO  H146  569   5.012   6.947   5.719 -2.0426  2.1340  0.2643
    2CHTO   O54  570   5.114   7.117   5.767  0.2972  0.4910  0.5296
    2CHTO  H133  571   5.033   7.162   5.760  1.9902  3.3165 -2.3307
    2CHTO   C75  572   5.212   6.886   5.802  0.1200 -0.8555 -0.9313
    2CHTO  H147  573   5.175   6.782   5.807 -0.7134 -0.5300  0.0019
    2CHTO   N13  574   5.299   6.878   5.683 -0.0940  0.6649  0.5250
    2CHTO  H139  575   5.330   6.775   5.670  1.2705  0.8070  2.4331
    2CHTO  H140  576   5.260   6.920   5.592 -1.3179 -2.3049 -0.4092
    2CHTO   C76  577   5.301   6.934   5.926  0.4452 -0.2344 -0.5218
    2CHTO  H148  578   5.329   7.035   5.895  0.8150 -1.1870 -3.4371
    2CHTO   O49  579   5.217   6.938   6.045 -0.0553  0.1266 -0.0607
    2CHTO   C77  580   5.096   7.009   6.047 -0.3303 -0.2502  0.0058
    2CHTO  H149  581   5.115   7.116   6.041  0.6893 -0.4825 -1.2815
    2CHTO   C88  582   5.040   6.987   6.187 -0.0999 -0.1237  0.4131
    2CHTO   O58  583   5.135   7.034   6.303  0.2384 -0.4670  0.3976
    2CHTO  H136  584   5.164   6.952   6.339  1.9619  0.7330  1.8761
    2CHTO   O51  585   5.417   6.828   5.958  0.2452 -0.0236  0.0128
    2CHTO   C78  586   5.513   6.848   6.068 -0.0314 -0.1830 -0.1328
    2CHTO  H150  587   5.495   6.945   6.120 -0.6384  1.2776 -2.9988
    2CHTO   C80  588   5.653   6.855   6.000  0.5083  0.5263  0.5366
    2CHTO  H152  589   5.657   6.769   5.931 -0.6309  1.1653 -0.3458
    2CHTO   O55  590   5.667   6.987   5.936  0.6061  0.1646 -0.1711
    2CHTO  H134  591   5.632   6.990   5.849  1.9581 -0.9230 -0.7773
    2CHTO   C84  592   5.768   6.835   6.104  0.4927 -0.0839  0.1211
    2CHTO  H156  593   5.779   6.932   6.153  2.3777  0.5115 -1.4099
    2CHTO   N15  594   5.902   6.831   6.039 -0.2292 -0.0576  0.6689
    2CHTO  H143  595   5.901   6.833   5.932  1.9304  2.7336  0.6479
    2CHTO  H144  596   5.970   6.906   6.075 -0.9878  0.8561  0.2315
    2CHTO   C87  597   5.746   6.713   6.192  0.3338  0.4257 -0.2638
    2CHTO  H159  598   5.748   6.619   6.137 -1.6464  1.0412 -1.4449
    2CHTO   O53  599   5.614   6.743   6.253 -0.0801  0.0051  0.7657
    2CHTO   C82  600   5.501   6.735   6.167 -0.5963  0.2645  0.2346
    2CHTO  H154  601   5.502   6.636   6.123  1.0129 -0.0377  0.9346
    2CHTO   C89  602   5.375   6.739   6.254 -0.3831 -0.6173 -0.8073
    2CHTO   O59  603   5.266   6.690   6.178  0.4463 -0.1432  0.4682
    2CHTO  H137  604   5.191   6.707   6.232  1.4936  2.2130  1.2582
    2CHTO   O45  605   5.862   6.708   6.313  0.4533  0.7611  0.3487
    2CHTO   C67  606   5.820   6.615   6.419  0.3704 -0.5195  0.0618
    2CHTO  H124  607   5.718   6.586   6.397  0.3041  0.1987 -0.6073
    2CHTO   C65  608   5.911   6.491   6.413  0.3914 -0.3097  0.5000
    2CHTO  H122  609   6.007   6.515   6.368  1.9391  0.7792  4.2159
    2CHTO   O44  610   5.851   6.403   6.324 -0.1103 -0.1557 -0.5296
    2CHTO  H102  611   5.908   6.329   6.311  0.7013  0.3599  0.0386
    2CHTO   C63  612   5.962   6.436   6.549 -0.3857 -0.1140  0.8870
    2CHTO  H120  613   6.041   6.500   6.589  0.5732 -1.9134  1.9596
    2CHTO   N11  614   6.032   6.304   6.536  0.2947  0.0112 -0.6814
    2CHTO  H108  615   6.094   6.287   6.621  1.9007  2.4930 -1.2958
    2CHTO  H109  616   5.955   6.230   6.542  0.1514  0.2930  1.1437
    2CHTO   C61  617   5.853   6.450   6.657 -0.6403  0.1678 -0.3872
    2CHTO  H118  618   5.903   6.431   6.753  0.6785 -0.0920 -1.1175
    2CHTO   O40  619   5.799   6.587   6.669 -0.5674 -0.1329 -0.3266
    2CHTO   C68  620   5.820   6.682   6.563  0.1012 -0.0747  0.4192
    2CHTO  H125  621   5.921   6.725   6.581 -0.2024  1.1503 -0.6856
    2CHTO   C72  622   5.718   6.796   6.585  0.7015 -0.4150 -0.2072
    2CHTO   O48  623   5.579   6.758   6.550 -0.5052 -0.6637 -0.5914
    2CHTO  H105  624   5.561   6.675   6.589 -0.2085 -0.4285  0.0589
    2CHTO   O38  625   5.739   6.361   6.639 -0.0329 -0.0189 -0.4530
    2CHTO   C55  626   5.685   6.295   6.757  0.3701  0.0836  0.9436
    2CHTO  H112  627   5.716   6.349   6.847 -3.3986 -0.1601  2.4557
    2CHTO   C56  628   5.733   6.144   6.760  0.2164 -0.8996 -0.4191
    2CHTO  H113  629   5.700   6.096   6.667  0.5700 -3.4290  0.7105
    2CHTO   O42  630   5.877   6.136   6.776  0.4615  0.2088 -0.2060
    2CHTO  H100  631   5.901   6.178   6.856 -2.7181  0.5861  0.6272
    2CHTO   C57  632   5.664   6.072   6.888  0.3355  0.2437 -0.1435
    2CHTO  H114  633   5.712   6.116   6.975 -0.4915  1.0081 -0.0660
    2CHTO   N10  634   5.692   5.926   6.887 -0.1570 -0.6903  0.8868
    2CHTO  H106  635   5.692   5.891   6.989 -2.6109 -1.2796  0.7138
    2CHTO  H107  636   5.614   5.877   6.831 -0.7024 -0.9459  1.8714
    2CHTO   C58  637   5.510   6.095   6.892  0.3140  0.0051  0.5991
    2CHTO  H115  638   5.458   6.035   6.815  0.3961  0.3198  0.2989
    2CHTO   O37  639   5.490   6.235   6.868 -0.2067  0.2863 -0.3936
    2CHTO   C59  640   5.531   6.304   6.751 -0.2353  0.1278 -0.5389
    2CHTO  H116  641   5.487   6.251   6.667  1.3142 -2.3415  0.1745
    2CHTO   C70  642   5.496   6.451   6.754  0.5170  0.8895  0.2234
    2CHTO   O46  643   5.356   6.473   6.760  0.9921  0.4121 -0.0324
    2CHTO  H103  644   5.308   6.435   6.688 -2.1217  0.3935  1.9590
    2CHTO   O39  645   5.444   6.053   7.035  0.4466 -0.2921  0.3000
    2CHTO   C60  646   5.304   6.087   7.050  0.3955 -0.0021  0.7534
    2CHTO  H117  647   5.249   6.119   6.961  2.4626 -0.3296 -0.6760
    2CHTO   C62  648   5.222   5.960   7.087 -0.4352 -0.4258 -0.5570
    2CHTO  H119  649   5.231   5.889   7.003  0.6490 -2.5819  1.3144
    2CHTO   O43  650   5.277   5.884   7.195  0.7484 -0.5614 -0.2903
    2CHTO  H101  651   5.216   5.815   7.215  2.5930 -2.2458 -0.2817
    2CHTO   C66  652   5.060   6.001   7.093 -0.1539 -0.0182  0.1191
    2CHTO  H123  653   5.033   6.041   6.995 -1.0774 -2.4364 -0.6421
    2CHTO   N12  654   4.963   5.889   7.114 -0.8168  0.1437  0.1578
    2CHTO  H110  655   5.020   5.797   7.117 -0.4045  0.4318  3.9501
    2CHTO  H111  656   4.924   5.897   7.215  2.2906  0.0053  1.4362
    2CHTO   C69  657   5.035   6.121   7.190 -0.3402  0.0719  0.3383
    2CHTO  H126  658   5.024   6.094   7.297  1.4315  0.8007  0.7358
    2CHTO   O41  659   5.142   6.235   7.171 -0.0430 -0.9140  0.0080
    2CHTO   C64  660   5.284   6.197   7.158 -0.0911  0.2355  0.3608
    2CHTO  H121  661   5.322   6.155   7.253  0.0979  3.2128  1.6604
    2CHTO   C71  662   5.376   6.317   7.141  0.1940 -0.2136  0.4971
    2CHTO   O47  663   5.316   6.419   7.061  0.2062  0.2430  0.1352
    2CHTO  H104  664   5.358   6.503   7.055  0.0924  0.1824 -1.9390
    2CHTO   O34  665   4.890   6.191   7.145 -0.2061 -0.4128 -0.4245
    2CHTO   C49  666   4.813   6.296   7.044 -0.0288  0.6222 -0.4157
    2CHTO   H91  667   4.707   6.292   7.070 -0.2788  3.5687 -0.8238
    2CHTO   C47  668   4.850   6.279   6.899 -0.9723  0.2173  0.6744
    2CHTO   H89  669   4.778   6.346   6.847 -1.6456 -0.6877  0.4459
    2CHTO   O33  670   4.821   6.141   6.871  0.5074  0.0259  0.2053
    2CHTO   H70  671   4.869   6.090   6.934 -0.2312  2.1380  2.5367
    2CHTO   C45  672   5.002   6.318   6.866 -0.0766  0.0884 -0.0436
    2CHTO   H87  673   5.059   6.256   6.937  0.9206  1.8254  0.7065
    2CHTO    N8  674   5.048   6.290   6.727  0.4516  0.4953 -0.0275
    2CHTO   H75  675   4.983   6.340   6.656 -0.9576  3.0906  2.9805
    2CHTO   H76  676   5.144   6.333   6.707 -0.6167  1.6700 -2.8948
    2CHTO   C43  677   5.018   6.472   6.913  0.7695  0.7828 -0.5529
    2CHTO   H85  678   5.123   6.493   6.898  1.5926 -2.6784 -0.2087
    2CHTO   O29  679   4.978   6.488   7.050  0.7193 -0.6162  0.3703
    2CHTO   C50  680   4.849   6.442   7.088 -0.1209 -0.6472 -0.1969
    2CHTO   H92  681   4.846   6.441   7.198  3.6556 -2.5592 -0.0593
    2CHTO   C54  682   4.745   6.552   7.061 -0.4353  0.1519 -0.1751
    2CHTO   O36  683   4.776   6.667   7.142 -0.2911 -0.0782  0.5765
    2CHTO   H72  684   4.828   6.723   7.087  0.6277  0.8731  2.3467
    2CHTO   O27  685   4.948   6.563   6.827 -0.8137 -0.0081 -0.1009
    2CHTO   C37  686   4.945   6.650   6.715  0.2079  0.3682  1.1515
    2CHTO   H79  687   5.015   6.616   6.637 -0.6248 -2.0560  1.4158
    2CHTO   C38  688   4.816   6.637   6.637  0.4322  0.1652 -1.1805
    2CHTO   H80  689   4.734   6.640   6.710 -0.0460 -1.2142 -1.6523
    2CHTO   O31  690   4.825   6.509   6.573 -0.7755  0.5906 -0.2080
    2CHTO   H68  691   4.745   6.484   6.532 -0.2111  0.9256 -1.5306
    2CHTO   C39  692   4.800   6.757   6.533 -0.5899 -0.6122 -0.2353
    2CHTO   H81  693   4.877   6.749   6.456 -1.2782  0.0906 -1.0063
    2CHTO    N7  694   4.676   6.757   6.447 -0.0143 -0.1234  0.5847
    2CHTO   H73  695   4.692   6.690   6.363  1.2174  2.1717 -1.0574
    2CHTO   H74  696   4.577   6.761   6.488  1.1147 -0.3377  3.4443
    2CHTO   C40  697   4.831   6.897   6.602  0.2598  0.0597  0.0106
    2CHTO   H82  698   4.749   6.917   6.672  1.0730  1.7028  0.5253
    2CHTO   O26  699   4.958   6.900   6.665  0.7881  0.1055  0.3433
    2CHTO   C41  700   4.968   6.793   6.765 -0.1000 -0.3604  0.7095
    2CHTO   H83  701   4.897   6.815   6.846 -1.2029  0.2061 -0.4064
    2CHTO   C52  702   5.112   6.802   6.817 -0.1747 -0.1632  0.2610
    2CHTO   O35  703   5.150   6.932   6.879 -0.3286 -0.1357 -0.6474
    2CHTO   H71  704   5.219   6.922   6.941 -1.3865 -1.0750  0.4138
    2CHTO   O28  705   4.841   7.005   6.507  0.0777  0.0096  0.3885
    2CHTO   C42  706   4.826   7.147   6.534  0.2737  0.0566  0.2242
    2CHTO   H84  707   4.842   7.188   6.434 -0.5899 -0.0385  0.0386
    2CHTO   C44  708   4.934   7.205   6.615 -0.4668  0.1926 -0.0119
    2CHTO   H86  709   4.945   7.145   6.706  0.5637  1.4120  0.6929
    2CHTO   O32  710   5.061   7.198   6.551 -0.0283  0.1722 -0.2826
    2CHTO   H69  711   5.130   7.149   6.593  0.7690  1.9583  0.5529
    2CHTO   C48  712   4.914   7.358   6.651  0.4781  0.2651  0.0051
    2CHTO   H90  713   4.932   7.410   6.557  1.4540  1.5408  0.8765
    2CHTO    N9  714   5.008   7.413   6.757 -0.0430  0.0796  0.0286
    2CHTO   H77  715   4.943   7.439   6.839 -1.6755  1.1798 -1.5760
    2CHTO   H78  716   5.048   7.502   6.711  1.2376  0.0404  1.0463
    2CHTO   C51  717   4.767   7.390   6.691 -0.2881  0.3439  0.3524
    2CHTO   H93  718   4.748   7.341   6.787 -0.6691 -0.1543  0.0259
    2CHTO   O30  719   4.677   7.344   6.587 -0.2782 -0.5770  0.5971
    2CHTO   C46  720   4.684   7.184   6.571 -0.1983 -0.2856  0.1314
    2CHTO   H88  721   4.666   7.141   6.669  3.0052 -0.9742  0.4538
    2CHTO   C53  722   4.571   7.153   6.470 -0.0753 -0.3693 -0.1919
    2CHTO   O72  723   4.432   7.183   6.513  0.1936  0.3712  0.0618
    2CHTO  H199  724   4.394   7.111   6.561 -1.0247  0.8532 -0.1552
    2CHTO   O22  725   4.739   7.532   6.697 -0.4863  0.2972  0.1704
    2CHTO   C31  726   4.623   7.603   6.745  0.0151 -0.1521 -0.6191
    2CHTO   H59  727   4.640   7.708   6.712  1.4092 -0.1174  0.1883
    2CHTO   C29  728   4.487   7.564   6.680 -0.5483 -0.1123 -1.1399
    2CHTO   H57  729   4.489   7.460   6.714 -1.5232 -0.0757 -0.9537
    2CHTO   O21  730   4.502   7.565   6.533  0.8029  0.3123 -0.5899
    2CHTO   H37  731   4.477   7.652   6.506  0.7195  0.7179  0.7555
    2CHTO   C27  732   4.366   7.643   6.743 -0.4122 -0.2736  0.1308
    2CHTO   H55  733   4.383   7.750   6.723 -0.6909 -0.0648  0.9619
    2CHTO    N5  734   4.236   7.611   6.679 -0.8390  0.2555 -0.2847
    2CHTO   H43  735   4.200   7.687   6.612  0.8483 -0.3593 -1.9251
    2CHTO   H44  736   4.167   7.569   6.750  3.0863 -0.4955  3.3144
    2CHTO   C25  737   4.372   7.632   6.897 -0.2735 -0.2984 -0.4708
    2CHTO   H53  738   4.366   7.532   6.941 -1.6563 -0.2146 -0.4477
    2CHTO   O17  739   4.501   7.692   6.940 -0.0439  0.6723  0.1128
    2CHTO   C32  740   4.614   7.608   6.900 -0.3240  0.0810  0.0326
    2CHTO   H60  741   4.590   7.507   6.932  1.3776 -0.8765 -1.6290
    2CHTO   C36  742   4.749   7.664   6.955  0.1724 -0.1191  0.5317
    2CHTO   O25  743   4.783   7.797   6.923  0.2114 -0.2235  0.2347
    2CHTO   H40  744   4.770   7.847   7.001 -1.3922 -1.5174  0.8276
    2CHTO   O15  745   4.270   7.717   6.982  0.1473 -0.9266  0.0254
    2CHTO   C19  746   4.190   7.690   7.106  0.6067 -0.2100  0.1855
    2CHTO   H47  747   4.126   7.779   7.116  1.7889  0.5513  1.1433
    2CHTO   C20  748   4.106   7.553   7.093  0.1506  0.0883 -0.5145
    2CHTO   H48  749   4.171   7.465   7.081 -1.2719 -1.2484  1.2164
    2CHTO   O19  750   4.019   7.559   6.974 -0.4490  0.1513 -0.0427
    2CHTO   H35  751   3.957   7.628   6.978  0.7205  1.3107 -1.2939
    2CHTO   C21  752   4.015   7.538   7.226  0.1160  0.1177  0.5766
    2CHTO   H49  753   3.939   7.616   7.229  1.2464  1.4731 -2.9276
    2CHTO    N4  754   3.938   7.410   7.226  0.4739 -0.7252  0.3607
    2CHTO   H41  755   3.877   7.397   7.314  1.1383  0.3695  0.9780
    2CHTO   H42  756   3.872   7.407   7.140 -0.1843 -2.2313  0.8977
    2CHTO   C22  757   4.107   7.547   7.346  0.2113  0.6909 -0.4667
    2CHTO   H50  758   4.182   7.470   7.360 -0.5897  0.0050  0.1380
    2CHTO   O14  759   4.180   7.671   7.348 -0.1244  0.0547 -0.6039
    2CHTO   C23  760   4.271   7.692   7.238  0.0353  0.4149 -0.6772
    2CHTO   H51  761   4.350   7.615   7.242  0.1823  0.5872 -0.0341
    2CHTO   C34  762   4.342   7.819   7.272  0.4079 -0.1992  0.8965
    2CHTO   O23  763   4.433   7.863   7.167  0.6132 -0.9981 -0.4359
    2CHTO   H38  764   4.475   7.940   7.198  1.4945 -1.9432  0.7485
    2CHTO   O16  765   4.025   7.556   7.462  0.0908 -0.1523  0.4913
    2CHTO   C24  766   4.068   7.507   7.589  0.8496  0.0026 -0.0044
    2CHTO   H52  767   4.173   7.480   7.590  0.2458 -2.4554 -0.5407
    2CHTO   C26  768   3.999   7.374   7.622  0.8500  0.0209 -0.8056
    2CHTO   H54  769   3.891   7.384   7.599  0.5520  0.8887  0.8650
    2CHTO   O20  770   4.045   7.269   7.532  0.1103 -0.2591 -0.0291
    2CHTO   H36  771   3.981   7.255   7.465 -2.0103 -1.1091  2.0822
    2CHTO   C30  772   4.009   7.331   7.773 -0.0429 -0.0530  0.1981
    2CHTO   H58  773   4.114   7.301   7.790 -0.6366 -1.2724  1.7633
    2CHTO    N6  774   3.926   7.209   7.799  0.2400  0.2570 -0.5370
    2CHTO   H45  775   3.820   7.230   7.792  0.2932  0.8227  0.3571
    2CHTO   H46  776   3.946   7.182   7.901  1.5311  3.2355  0.0366
    2CHTO   C33  777   3.976   7.450   7.864  0.0197 -0.4329  0.9006
    2CHTO   H61  778   3.871   7.478   7.847  0.1167 -1.3311 -1.3300
    2CHTO   O18  779   4.061   7.561   7.833  0.2225  0.1710  0.0649
    2CHTO   C28  780   4.045   7.610   7.701 -0.6074  0.4339  0.0657
    2CHTO   H56  781   3.948   7.658   7.688 -0.1702  0.9493 -1.3686
    2CHTO   C35  782   4.149   7.721   7.670 -0.3493 -0.1386  0.3392
    2CHTO   O24  783   4.130   7.832   7.759 -0.2735 -0.2600  0.3065
    2CHTO   H39  784   4.122   7.811   7.850 -0.2941  1.2080  0.6548
    2CHTO    O9  785   3.987   7.420   8.006  0.4408 -0.5019 -0.0116
    2CHTO   C13  786   3.901   7.510   8.100 -0.2256 -0.3501  0.0307
    2CHTO   H26  787   3.804   7.527   8.048 -0.6911  2.5918  1.7890
    2CHTO   C11  788   3.978   7.646   8.124  0.4376  0.0370  0.1391
    2CHTO   H24  789   3.965   7.702   8.031 -1.2351  0.4356  0.5820
    2CHTO    O8  790   4.114   7.631   8.151 -0.0810 -0.6065 -0.5551
    2CHTO    H3  791   4.131   7.554   8.202 -0.9379  0.3099  1.1546
    2CHTO    C9  792   3.903   7.720   8.237 -0.3280 -0.8683 -0.1037
    2CHTO   H22  793   3.795   7.712   8.218 -0.6433 -2.1458  2.0790
    2CHTO    N2  794   3.929   7.867   8.233 -0.1070 -0.7777 -0.3663
    2CHTO   H10  795   3.876   7.921   8.311 -2.1105  0.7640 -2.7301
    2CHTO   H11  796   4.034   7.887   8.247 -0.4312  0.1093  0.9736
    2CHTO    C7  797   3.917   7.633   8.375  0.6491 -0.1383  0.1390
    2CHTO   H20  798   3.818   7.643   8.424 -0.3850  1.1648 -2.1194
    2CHTO    O4  799   3.942   7.491   8.338  0.5254 -0.5018 -0.3901
    2CHTO   C14  800   3.862   7.435   8.230  0.5766 -0.1120 -0.0320
    2CHTO   H27  801   3.754   7.436   8.253  0.9088 -0.1534  1.5936
    2CHTO   C18  802   3.900   7.285   8.218 -0.4321  0.1002  0.2317
    2CHTO   O13  803   3.836   7.195   8.123  0.5528  0.1568 -0.3180
    2CHTO    H7  804   3.789   7.126   8.164  2.8153 -1.4365 -0.2913
    2CHTO    O2  805   4.042   7.697   8.470 -0.6019  0.2180  0.3109
    2CHTO    C1  806   4.016   7.718   8.609  1.1879  0.0442 -0.1675
    2CHTO   H14  807   3.952   7.631   8.635 -0.9722  1.6628  0.1188
    2CHTO    C2  808   3.936   7.855   8.642  0.0586  0.4989 -0.7220
    2CHTO   H15  809   4.009   7.923   8.597  1.6288 -0.7070 -0.0705
    2CHTO    O6  810   3.810   7.856   8.576  0.6285  0.4769  0.2528
    2CHTO    H1  811   3.775   7.942   8.578  0.3174  0.3588 -0.1697
    2CHTO    C3  812   3.919   7.882   8.798  0.4367  0.2001 -0.0977
    2CHTO   H16  813   3.845   7.813   8.842  1.1193 -1.8309 -2.0390
    2CHTO    N1  814   3.867   8.016   8.826 -0.2392  0.5566 -0.0632
    2CHTO    H8  815   3.935   8.076   8.886  1.6113  0.6153 -2.1650
    2CHTO    H9  816   3.770   8.012   8.874 -0.1314  0.3259  0.1384
    2CHTO    C4  817   4.058   7.863   8.871  0.0382  0.4080  0.8149
    2CHTO   H17  818   4.126   7.943   8.844 -0.1745  0.5004  0.5381
    2CHTO    O1  819   4.109   7.735   8.836 -0.1633  0.2648 -0.9698
    2CHTO    C5  820   4.147   7.713   8.693  0.2044 -1.0202 -0.0693
    2CHTO   H18  821   4.214   7.795   8.665 -0.1505 -0.3649  0.9805
    2CHTO   C16  822   4.224   7.578   8.674  0.0980 -0.5433  0.0892
    2CHTO   O11  823   4.359   7.571   8.708 -0.7229 -0.4365 -0.0196
    2CHTO    H5  824   4.390   7.483   8.719  0.1602 -0.3711 -1.8468
    2CHTO    O3  825   4.049   7.857   9.014 -0.1347  0.4628 -0.0998
    2CHTO    C6  826   4.169   7.882   9.098  0.1305 -0.4483  0.2186
    2CHTO   H19  827   4.260   7.877   9.038 -0.8966  0.3781 -1.4212
    2CHTO    C8  828   4.146   8.009   9.173 -0.1387  0.3984  0.2247
    2CHTO   H21  829   4.055   7.996   9.232 -0.4794 -0.8450 -0.5634
    2CHTO    O7  830   4.146   8.110   9.072  0.9866 -0.0541 -0.5642
    2CHTO    H2  831   4.159   8.196   9.105 -0.4364 -0.2066  0.4652
    2CHTO   C12  832   4.258   8.029   9.283  0.5200  0.3897 -0.0927
    2CHTO   H25  833   4.357   8.027   9.233  0.6857 -1.9552  0.2782
    2CHTO    N3  834   4.235   8.165   9.351  0.3697 -0.4450  0.6425
    2CHTO   H12  835   4.311   8.164   9.428  0.0468 -1.3526  0.9590
    2CHTO   H13  836   4.140   8.171   9.401  1.2658  0.6455  2.2541
    2CHTO   C15  837   4.256   7.900   9.382  0.6529 -0.9464  1.0078
    2CHTO   H28  838   4.168   7.898   9.445 -1.1693  3.3774 -1.2058
    2CHTO   O10  839   4.384   7.906   9.475  0.1398  0.1968  0.3782
    2CHTO    H4  840   4.376   7.847   9.547 -1.1868  0.7645  0.7144
    2CHTO    O5  841   4.276   7.782   9.303  0.1980  0.1875  0.0320
    2CHTO   C10  842   4.177   7.764   9.201 -0.1149  0.0026 -1.1790
    2CHTO   H23  843   4.086   7.752   9.260  0.7061 -1.7984 -0.2570
    2CHTO   C17  844   4.212   7.637   9.140 -0.2935 -0.1066  0.4753
    2CHTO   O12  845   4.107   7.568   9.082 -0.2663  0.1399 -0.0803
    2CHTO    H6  846   4.067   7.622   9.016  0.9262  0.2362 -0.7354
    3CHTO  H203  847   5.947   3.521   4.835  0.6442  1.9558  0.3319
    3CHTO   O82  848   5.867   3.520   4.884  0.6371  0.1824  0.3175
    3CHTO  C123  849   5.777   3.418   4.833  0.1905 -0.5274 -0.0926
    3CHTO  H227  850   5.696   3.405   4.906  1.5682  1.1778  1.7916
    3CHTO   O77  851   5.720   3.491   4.717 -0.1727  0.4647  0.4642
    3CHTO  C118  852   5.607   3.426   4.651 -0.1255  0.0656 -0.0970
    3CHTO  H222  853   5.529   3.407   4.725  0.5300 -0.1906  0.5283
    3CHTO  C125  854   5.555   3.520   4.532  0.0106  0.2386 -0.0180
    3CHTO   O84  855   5.513   3.654   4.573 -0.4543  0.5529  0.3623
    3CHTO  H205  856   5.580   3.706   4.613  1.6894 -1.0625 -1.0504
    3CHTO  C114  857   5.666   3.294   4.587 -0.4811  0.1040  0.2261
    3CHTO  H218  858   5.745   3.320   4.517 -0.5213  1.6122  0.7199
    3CHTO  C116  859   5.726   3.206   4.695  0.3476  0.1303 -0.3420
    3CHTO  H220  860   5.644   3.151   4.745  1.3381 -2.1853 -1.1661
    3CHTO   O79  861   5.802   3.100   4.630  0.3622  0.1648  0.1190
    3CHTO  H201  862   5.894   3.108   4.614  0.6499 -2.5133  0.1632
    3CHTO  C120  863   5.827   3.279   4.787 -0.0395  0.5982 -0.8093
    3CHTO  H224  864   5.922   3.287   4.730  0.4512 -0.1280 -0.1073
    3CHTO   N21  865   5.863   3.197   4.908 -0.0753  0.2137  0.0258
    3CHTO  H211  866   5.867   3.094   4.876 -0.1286  0.4562 -0.7897
    3CHTO  H212  867   5.959   3.239   4.933  0.1409 -0.4163  0.2604
    3CHTO   O75  868   5.562   3.233   4.519  0.8718 -1.0140 -0.4566
    3CHTO  C112  869   5.612   3.129   4.389  0.4836  0.5270 -0.0975
    3CHTO  H216  870   5.623   3.029   4.432  1.0934  1.1632  1.2787
    3CHTO   O73  871   5.730   3.182   4.323  0.5663 -0.1396  0.4101
    3CHTO  C113  872   5.773   3.115   4.207 -0.0364  0.1726 -0.0156
    3CHTO  H217  873   5.791   3.010   4.238  1.1445  0.6480  0.9383
    3CHTO  C124  874   5.905   3.174   4.164 -0.0967 -0.6500  0.4577
    3CHTO   O83  875   6.010   3.150   4.261 -0.1557 -0.6690 -0.3716
    3CHTO  H204  876   6.063   3.076   4.239  1.2717  0.4945 -0.9631
    3CHTO  C109  877   5.663   3.122   4.094  0.4291  0.8164 -0.0236
    3CHTO  H213  878   5.645   3.229   4.077 -0.1429  0.4732 -1.6812
    3CHTO  C110  879   5.536   3.056   4.154 -0.3995 -0.0844  0.4864
    3CHTO  H214  880   5.554   2.949   4.166  0.2771  0.1363  1.4833
    3CHTO   O78  881   5.438   3.068   4.055 -0.2359  0.1020  0.1235
    3CHTO  H200  882   5.368   3.007   4.069 -0.5784 -0.3084 -2.9951
    3CHTO  C111  883   5.494   3.132   4.290 -0.0655  1.1145 -0.3002
    3CHTO  H215  884   5.480   3.239   4.270 -0.6799  1.6577  2.7703
    3CHTO   N19  885   5.367   3.088   4.348  0.4221 -0.0742 -0.3799
    3CHTO  H207  886   5.304   3.173   4.372  2.3304  0.4903  3.0273
    3CHTO  H208  887   5.318   3.015   4.287 -0.5497 -0.4138  0.7928
    3CHTO   O74  888   5.716   3.064   3.967 -0.8203 -0.4563  0.0898
    3CHTO  C115  889   5.727   3.150   3.862  0.1534  0.5131  0.5737
    3CHTO  H219  890   5.711   3.253   3.892 -4.8939 -0.4563  1.6671
    3CHTO   O76  891   5.871   3.138   3.781 -0.0042 -0.1534 -0.5935
    3CHTO  C122  892   5.904   3.003   3.735  0.0446 -0.1760  0.0519
    3CHTO  H226  893   5.946   2.952   3.822 -3.4910 -1.3295  1.1841
    3CHTO  C126  894   6.029   3.019   3.635 -0.2406  0.6819  0.0367
    3CHTO   O85  895   5.999   3.098   3.519  0.2481 -0.1862  1.4591
    3CHTO  H206  896   6.077   3.133   3.481 -0.7264 -0.9090 -1.3476
    3CHTO  C121  897   5.784   2.934   3.667 -0.3606  0.3254  0.1411
    3CHTO  H225  898   5.822   2.877   3.580 -2.0016 -0.4734 -0.0835
    3CHTO   O81  899   5.733   2.833   3.757  0.5470 -0.1661 -0.4591
    3CHTO  H202  900   5.671   2.779   3.712  0.1536  0.0071 -0.1252
    3CHTO  C119  901   5.670   3.035   3.621 -0.7077 -0.1283 -0.5007
    3CHTO  H223  902   5.720   3.104   3.553 -0.4237  0.6814  0.5093
    3CHTO  C117  903   5.618   3.106   3.747 -0.3155 -0.4041 -0.2375
    3CHTO  H221  904   5.547   3.046   3.804 -0.0313 -0.3265  0.2000
    3CHTO   N20  905   5.535   3.230   3.699 -0.1057  0.6659  0.2135
    3CHTO  H209  906   5.583   3.269   3.610  2.0627 -0.2368  0.9487
    3CHTO  H210  907   5.542   3.301   3.779 -1.1893  1.3647 -0.2999
    3CHTO   O80  908   5.569   2.969   3.519 -0.1150 -0.3426  0.5869
    3CHTO  C103  909   5.490   2.862   3.567 -0.1367  0.2142  0.4724
    3CHTO  H190  910   5.529   2.816   3.657 -1.5657 -1.5759  0.1962
    3CHTO  C101  911   5.339   2.886   3.594  0.2850 -0.4386  0.1515
    3CHTO  H188  912   5.299   2.937   3.507  0.5114 -0.0763  0.2589
    3CHTO   O68  913   5.315   2.964   3.730  0.4841 -0.0463  0.1016
    3CHTO  H168  914   5.363   3.044   3.743 -0.1573  0.3525  0.0417
    3CHTO   C99  915   5.247   2.753   3.587 -0.3648 -0.2096 -0.2570
    3CHTO  H186  916   5.257   2.696   3.682 -0.7926 -0.8055 -0.5722
    3CHTO   N17  917   5.099   2.781   3.592 -0.0152  0.2939 -0.7426
    3CHTO  H174  918   5.071   2.825   3.687  0.0081 -0.7716 -0.2276
    3CHTO  H175  919   5.073   2.848   3.512  0.7409 -0.9517 -2.0579
    3CHTO   C97  920   5.291   2.660   3.473  0.0216  0.7536  0.2099
    3CHTO  H184  921   5.257   2.707   3.379 -1.0459  1.4154  0.9177
    3CHTO   O64  922   5.428   2.631   3.477  0.1872 -0.1060  0.2977
    3CHTO  C104  923   5.500   2.750   3.454 -0.0209 -0.1678 -0.3991
    3CHTO  H191  924   5.478   2.793   3.356 -0.3016 -1.1075 -0.7509
    3CHTO  C108  925   5.648   2.705   3.448 -0.0298  0.2136 -0.1134
    3CHTO   O71  926   5.672   2.615   3.336  0.0632 -0.3470  0.2179
    3CHTO  H171  927   5.734   2.549   3.360  0.5505  0.3474  0.8656
    3CHTO   O62  928   5.227   2.528   3.476  0.8329 -0.3466  0.0990
    3CHTO   C91  929   5.203   2.463   3.355 -0.1358 -0.0781  0.4404
    3CHTO  H178  930   5.180   2.542   3.283  0.6048 -1.9741 -1.9629
    3CHTO   C92  931   5.077   2.366   3.377  0.3105 -0.2758  0.1231
    3CHTO  H179  932   5.083   2.310   3.472 -1.6485  0.3875  0.6688
    3CHTO   O66  933   4.967   2.459   3.384  0.0079 -0.0847 -0.1392
    3CHTO  H166  934   4.954   2.499   3.301 -0.9059 -1.2051 -0.5477
    3CHTO   C93  935   5.064   2.260   3.257 -0.1454 -0.4167 -0.0633
    3CHTO  H180  936   5.053   2.322   3.167  1.5996  0.2851  0.1939
    3CHTO   N16  937   4.946   2.170   3.261 -0.9667 -0.5743  0.0283
    3CHTO  H172  938   4.907   2.146   3.163 -0.3388  0.0345 -0.3749
    3CHTO  H173  939   4.957   2.088   3.331 -1.8954  0.1671  1.0435
    3CHTO   C94  940   5.193   2.171   3.244 -0.1169  0.1718 -0.0091
    3CHTO  H181  941   5.192   2.085   3.312 -0.7267  0.2543  0.0940
    3CHTO   O61  942   5.311   2.237   3.299  0.6682  1.0036 -0.7394
    3CHTO   C95  943   5.327   2.383   3.301 -0.3480 -0.4505 -0.8439
    3CHTO  H182  944   5.417   2.407   3.359  0.0734 -0.9690 -1.2809
    3CHTO  C106  945   5.364   2.434   3.153  0.2320  0.1320 -0.2356
    3CHTO   O69  946   5.458   2.346   3.103  0.3298  0.1099  0.5932
    3CHTO  H169  947   5.533   2.389   3.066 -0.9268 -0.3515 -2.5897
    3CHTO   O63  948   5.201   2.126   3.101 -0.5199  0.1164 -0.0219
    3CHTO   C96  949   5.288   1.985   3.098 -0.0153 -0.0846 -0.0817
    3CHTO  H183  950   5.248   1.921   3.020  3.1030  0.9331 -2.6572
    3CHTO   C98  951   5.301   1.884   3.220 -0.2709  0.0488 -0.3597
    3CHTO  H185  952   5.344   1.942   3.304 -2.7934  0.2650  0.8296
    3CHTO   O67  953   5.169   1.838   3.249  0.5518 -0.2621  0.1571
    3CHTO  H167  954   5.152   1.759   3.202  1.6492  0.1735 -0.9968
    3CHTO  C102  955   5.395   1.749   3.192 -0.3242 -0.1513 -0.4761
    3CHTO  H189  956   5.331   1.679   3.136  1.2463 -1.1309 -1.0909
    3CHTO   N18  957   5.437   1.672   3.316 -0.2875  0.2973 -0.6093
    3CHTO  H176  958   5.523   1.613   3.288  0.0812  0.1773  0.7367
    3CHTO  H177  959   5.469   1.741   3.393  1.9268 -0.8803 -0.4426
    3CHTO  C105  960   5.511   1.788   3.094  0.5346  1.2231  0.4363
    3CHTO  H192  961   5.604   1.737   3.122 -1.1975 -1.1571  2.0273
    3CHTO   O65  962   5.540   1.928   3.080  0.3217 -0.3596  0.2222
    3CHTO  C100  963   5.437   2.021   3.047 -0.0249  0.0878 -1.0310
    3CHTO  H187  964   5.469   2.106   3.108  2.0722 -1.1957 -0.2831
    3CHTO  C107  965   5.442   2.062   2.896  0.0213  0.1120 -0.0407
    3CHTO   O70  966   5.343   2.159   2.870  0.7280  0.6320  0.2384
    3CHTO  H170  967   5.386   2.242   2.880  1.3184  0.5067 -1.2222
    3CHTO   O57  968   5.459   1.709   2.954  0.5499 -0.2382 -0.0976
    3CHTO   C85  969   5.451   1.588   2.890 -0.1884  0.0802  0.3619
    3CHTO  H157  970   5.533   1.591   2.815 -0.3028 -0.3542  0.2217
    3CHTO   C83  971   5.318   1.589   2.807 -0.0298  0.2642 -0.5263
    3CHTO  H155  972   5.331   1.664   2.728  2.5012 -0.3606 -0.7411
    3CHTO   O56  973   5.209   1.643   2.888  0.4132  0.1736 -0.2779
    3CHTO  H135  974   5.164   1.579   2.940  0.3321  1.4788  1.3137
    3CHTO   C81  975   5.298   1.447   2.741  0.5890  0.6131 -0.3386
    3CHTO  H153  976   5.388   1.424   2.685 -0.6157 -1.1004 -1.6413
    3CHTO   N14  977   5.196   1.440   2.638  0.3040  0.3849 -0.7759
    3CHTO  H141  978   5.205   1.521   2.569 -0.7919  0.8432 -0.3897
    3CHTO  H142  979   5.096   1.436   2.677 -0.4740 -0.5746 -2.7879
    3CHTO   C79  980   5.287   1.347   2.859  0.6226 -0.4860 -0.4451
    3CHTO  H151  981   5.275   1.246   2.819  0.3874 -0.3529 -0.7169
    3CHTO   O52  982   5.406   1.337   2.935  0.5521  0.0306 -0.1104
    3CHTO   C86  983   5.463   1.460   2.990  0.8302  0.3685  0.1027
    3CHTO  H158  984   5.401   1.469   3.082 -1.5424  0.6678 -1.4779
    3CHTO   C90  985   5.605   1.437   3.035 -0.1093 -0.1119 -0.1060
    3CHTO   O60  986   5.684   1.402   2.923  0.1144  0.3603  0.1663
    3CHTO  H138  987   5.697   1.482   2.876  3.0903  0.7288  1.5157
    3CHTO   O50  988   5.171   1.368   2.941 -0.1175 -0.1231 -0.2044
    3CHTO   C73  989   5.079   1.287   3.011 -0.1515  0.3429  0.1056
    3CHTO  H145  990   5.132   1.193   3.032  0.7699  0.2192 -2.5709
    3CHTO   C74  991   4.953   1.266   2.930  0.1965 -0.3868  0.4465
    3CHTO  H146  992   4.984   1.222   2.834 -0.2083  1.3104 -0.4885
    3CHTO   O54  993   4.867   1.171   2.991 -0.4008  0.2166  0.4562
    3CHTO  H133  994   4.914   1.105   3.038 -1.2304 -0.5340  0.2380
    3CHTO   C75  995   4.891   1.411   2.905 -0.2732 -0.5515 -0.2441
    3CHTO  H147  996   4.971   1.478   2.871 -1.0625 -0.3562 -1.7479
    3CHTO   N13  997   4.778   1.416   2.806 -0.4072  0.0134 -0.5700
    3CHTO  H139  998   4.705   1.337   2.820 -2.3947  1.8058 -0.4807
    3CHTO  H140  999   4.802   1.418   2.701  0.5055  0.8837 -0.3560
    3CHTO   C76 1000   4.856   1.470   3.047 -0.6856 -0.4955 -0.2543
    3CHTO  H148 1001   4.782   1.404   3.093 -1.6920  0.3936 -0.5633
    3CHTO   O49 1002   4.987   1.478   3.118  0.3605 -0.5308  0.0266
    3CHTO   C77 1003   5.050   1.348   3.148 -0.3112 -0.1238  0.6458
    3CHTO  H149 1004   4.971   1.290   3.195 -2.2365  0.2206 -2.0388
    3CHTO   C88 1005   5.177   1.356   3.236 -0.3872 -0.4138  0.7697
    3CHTO   O58 1006   5.167   1.473   3.344  0.1057 -0.4209  0.1225
    3CHTO  H136 1007   5.247   1.520   3.336 -0.8352  0.7634 -3.0583
    3CHTO   O51 1008   4.796   1.630   3.040  0.1397  0.1059  0.3443
    3CHTO   C78 1009   4.689   1.666   3.170  0.5414  0.0028 -0.0253
    3CHTO  H150 1010   4.647   1.574   3.217  1.4600  0.5796  1.9995
    3CHTO   C80 1011   4.580   1.747   3.104 -0.0207  0.4663 -0.5113
    3CHTO  H152 1012   4.628   1.834   3.055  0.7899 -0.3368 -1.1633
    3CHTO   O55 1013   4.529   1.660   3.004  0.1788  0.4083 -1.6454
    3CHTO  H134 1014   4.559   1.664   2.915  0.5593 -0.0570 -1.5434
    3CHTO   C84 1015   4.469   1.797   3.203  0.9152 -0.0661  0.1837
    3CHTO  H156 1016   4.427   1.706   3.245  1.5398 -0.6430 -0.4273
    3CHTO   N15 1017   4.356   1.872   3.137  0.5764  0.8431 -0.2338
    3CHTO  H143 1018   4.265   1.852   3.189  0.5174 -0.2856 -0.7529
    3CHTO  H144 1019   4.346   1.838   3.036 -1.0950  0.6283 -0.0134
    3CHTO   C87 1020   4.527   1.870   3.318  0.1123 -0.3603  0.1349
    3CHTO  H159 1021   4.569   1.966   3.290  0.8598 -1.1498 -1.5259
    3CHTO   O53 1022   4.658   1.784   3.383 -0.0847 -0.3558 -0.8447
    3CHTO   C82 1023   4.757   1.740   3.287 -0.1772 -0.4761  0.3030
    3CHTO  H154 1024   4.801   1.834   3.257 -1.0136  0.0201  0.5893
    3CHTO   C89 1025   4.864   1.652   3.356 -1.0695  0.3719 -0.2549
    3CHTO   O59 1026   4.933   1.725   3.456 -0.1744 -0.3195  0.6569
    3CHTO  H137 1027   5.011   1.682   3.485  1.1910  1.6015 -0.0976
    3CHTO   O45 1028   4.406   1.908   3.424  0.2972  0.1905 -0.4310
    3CHTO   C67 1029   4.440   2.018   3.508 -0.2360  0.0646 -0.0009
    3CHTO  H124 1030   4.547   2.032   3.500  0.0491 -1.8222  0.4161
    3CHTO   C65 1031   4.369   2.150   3.460 -0.1420  0.2210 -0.2246
    3CHTO  H122 1032   4.270   2.119   3.426  0.1461 -0.0930 -0.7681
    3CHTO   O44 1033   4.448   2.193   3.347 -0.0572  0.2558  0.3470
    3CHTO  H102 1034   4.537   2.198   3.378 -0.3089  0.5629  1.0202
    3CHTO   C63 1035   4.336   2.252   3.583 -0.2982  0.4930 -0.1317
    3CHTO  H120 1036   4.244   2.216   3.630  0.4175 -0.3973  0.6124
    3CHTO   N11 1037   4.305   2.387   3.540 -0.0493 -0.5994 -0.0121
    3CHTO  H108 1038   4.237   2.392   3.458  0.6002 -2.4628 -0.7020
    3CHTO  H109 1039   4.281   2.448   3.624 -5.3613  2.0174 -3.1748
    3CHTO   C61 1040   4.440   2.234   3.707  0.9171 -0.2594  0.5128
    3CHTO  H118 1041   4.400   2.285   3.796 -0.9625  1.0335 -1.0138
    3CHTO   O40 1042   4.468   2.097   3.748  0.1539 -1.1214 -0.5069
    3CHTO   C68 1043   4.405   1.996   3.666 -0.7134 -0.5229 -0.5861
    3CHTO  H125 1044   4.297   2.004   3.688 -1.2761 -0.4770 -3.2201
    3CHTO   C72 1045   4.454   1.857   3.712  0.0969  0.2175 -0.9096
    3CHTO   O48 1046   4.594   1.834   3.691 -0.3023 -0.0838 -0.3178
    3CHTO  H105 1047   4.648   1.855   3.764 -0.0810  0.9650 -0.7749
    3CHTO   O38 1048   4.576   2.279   3.671 -0.4514  0.0484 -0.4283
    3CHTO   C55 1049   4.666   2.312   3.780  0.1493 -0.5323 -0.7837
    3CHTO  H112 1050   4.644   2.253   3.870 -0.5178  0.5910 -0.1942
    3CHTO   C56 1051   4.673   2.466   3.811 -0.5097 -0.0220  0.4737
    3CHTO  H113 1052   4.704   2.509   3.715  0.3254 -0.3900  0.5745
    3CHTO   O42 1053   4.543   2.517   3.858  0.0461 -0.4371  0.0026
    3CHTO  H100 1054   4.532   2.605   3.827 -0.2987 -0.1341  0.9838
    3CHTO   C57 1055   4.789   2.496   3.907 -0.1277 -0.1765 -0.2640
    3CHTO  H114 1056   4.760   2.470   4.009 -0.3269 -0.0190 -0.2812
    3CHTO   N10 1057   4.823   2.640   3.909  0.1578  0.7513 -0.7432
    3CHTO  H106 1058   4.746   2.688   3.968  2.4719  3.0566  0.5116
    3CHTO  H107 1059   4.915   2.650   3.965  0.4433 -0.1590 -1.0445
    3CHTO   C58 1060   4.919   2.419   3.864  0.3938 -1.0677  0.0954
    3CHTO  H115 1061   4.955   2.467   3.771  0.8150 -1.3909  0.0917
    3CHTO   O37 1062   4.897   2.282   3.841  0.6125 -0.6473  0.2323
    3CHTO   C59 1063   4.804   2.266   3.734 -0.6061  0.1043  0.6453
    3CHTO  H116 1064   4.840   2.330   3.653 -0.0338  0.8147  1.4527
    3CHTO   C70 1065   4.816   2.123   3.697  0.6700 -0.0736 -0.0193
    3CHTO   O46 1066   4.807   2.101   3.555  0.1893  0.1448  0.5415
    3CHTO  H103 1067   4.877   2.147   3.513  0.4548  0.5379  1.4155
    3CHTO   O39 1068   5.031   2.404   3.995  0.6141 -0.5524  0.3024
    3CHTO   C60 1069   5.167   2.397   3.950 -0.4122  0.4825  0.2861
    3CHTO  H117 1070   5.163   2.386   3.842 -2.5709  0.5653  0.3501
    3CHTO   C62 1071   5.236   2.538   3.988  0.3600  0.9559 -0.9869
    3CHTO  H119 1072   5.179   2.619   3.938 -2.1576  0.2545  0.6550
    3CHTO   O43 1073   5.240   2.554   4.129 -0.7529 -0.5364  0.9738
    3CHTO  H101 1074   5.326   2.550   4.167 -0.5042  1.8843  0.7218
    3CHTO   C66 1075   5.380   2.537   3.922  0.3807  0.1372 -0.0192
    3CHTO  H123 1076   5.365   2.528   3.814  4.1739  0.3598 -0.6360
    3CHTO   N12 1077   5.459   2.663   3.943 -0.5587  0.3804  0.7270
    3CHTO  H110 1078   5.561   2.634   3.921 -1.5258 -3.1908  0.6035
    3CHTO  H111 1079   5.446   2.676   4.049 -1.9989 -0.9933  0.7451
    3CHTO   C69 1080   5.463   2.410   3.964 -0.1189 -0.6005 -0.0239
    3CHTO  H126 1081   5.496   2.423   4.069  0.9148 -1.2339 -0.2645
    3CHTO   O41 1082   5.382   2.273   3.958  0.1967  0.0076 -0.0198
    3CHTO   C64 1083   5.249   2.271   4.008 -0.1949 -0.0648 -0.0224
    3CHTO  H121 1084   5.254   2.282   4.119  1.2100 -0.2584 -0.0528
    3CHTO   C71 1085   5.172   2.144   3.975 -0.1399  0.1177  0.3250
    3CHTO   O47 1086   5.157   2.054   4.088 -0.3185  0.2850 -0.0883
    3CHTO  H104 1087   5.161   1.964   4.062  0.1620  0.1417  0.4827
    3CHTO   O34 1088   5.567   2.395   3.878  0.1447  0.0371  0.3374
    3CHTO   C49 1089   5.596   2.389   3.714  0.2306 -0.7367 -0.0217
    3CHTO   H91 1090   5.603   2.493   3.681  0.3388 -0.5231  0.6502
    3CHTO   C47 1091   5.500   2.304   3.628  0.2958 -0.0525  0.9553
    3CHTO   H89 1092   5.522   2.323   3.521 -1.5123  0.6202  0.6869
    3CHTO   O33 1093   5.361   2.349   3.656 -0.3900 -0.6923  0.0260
    3CHTO   H70 1094   5.345   2.439   3.638  0.4720 -0.2497  1.4225
    3CHTO   C45 1095   5.518   2.145   3.656  0.1788 -0.2320 -0.7768
    3CHTO   H87 1096   5.500   2.126   3.763  0.1034 -1.1714 -0.9484
    3CHTO    N8 1097   5.420   2.063   3.581  1.1134 -0.0709 -0.2452
    3CHTO   H75 1098   5.479   1.993   3.524 -0.1303 -0.6481 -0.8471
    3CHTO   H76 1099   5.360   1.995   3.639  1.5645 -0.1181  0.1717
    3CHTO   C43 1100   5.659   2.103   3.632 -0.5522 -0.0348 -0.5377
    3CHTO   H85 1101   5.663   1.999   3.661 -0.3901  0.3946  1.0190
    3CHTO   O29 1102   5.751   2.181   3.705  0.7166  0.1209  0.6672
    3CHTO   C50 1103   5.736   2.323   3.698 -0.3417 -1.0003 -0.6981
    3CHTO   H92 1104   5.798   2.351   3.785  2.9703 -2.7522 -2.3995
    3CHTO   C54 1105   5.821   2.389   3.580 -0.4948 -0.6806  0.7188
    3CHTO   O36 1106   5.966   2.383   3.590 -0.3422  0.2911  0.1285
    3CHTO   H72 1107   5.995   2.472   3.590  1.4540 -0.2443  2.4749
    3CHTO   O27 1108   5.691   2.105   3.485 -0.0180 -0.0687  0.1571
    3CHTO   C37 1109   5.785   2.053   3.397 -0.4238  0.1658  0.3574
    3CHTO   H79 1110   5.887   2.080   3.428 -0.2210 -0.7319  0.4664
    3CHTO   C38 1111   5.778   1.899   3.395  0.0232 -0.5056  0.7488
    3CHTO   H80 1112   5.683   1.855   3.360 -0.3585  0.2107  0.8689
    3CHTO   O31 1113   5.801   1.845   3.528  0.1334  0.5161  0.5869
    3CHTO   H68 1114   5.794   1.752   3.519  2.3188  0.5037 -1.1692
    3CHTO   C39 1115   5.879   1.839   3.292  0.0786  0.7980 -0.1232
    3CHTO   H81 1116   5.974   1.859   3.342 -0.0388  0.9471  0.0414
    3CHTO    N7 1117   5.876   1.684   3.286  0.0806 -0.1811  0.7061
    3CHTO   H73 1118   5.969   1.654   3.240 -1.6461 -3.3246 -0.9360
    3CHTO   H74 1119   5.792   1.647   3.228  1.7439 -2.2747 -0.4241
    3CHTO   C40 1120   5.867   1.904   3.145  0.4448 -0.0433  0.1696
    3CHTO   H82 1121   5.780   1.867   3.091 -0.1869 -0.2575  1.3042
    3CHTO   O26 1122   5.866   2.049   3.162 -0.1092  0.7235  0.2482
    3CHTO   C41 1123   5.770   2.104   3.254  0.3005  0.3672  0.2537
    3CHTO   H83 1124   5.671   2.062   3.233  0.5144  0.1346 -0.2997
    3CHTO   C52 1125   5.765   2.262   3.253 -0.0760 -0.1810  0.0722
    3CHTO   O35 1126   5.757   2.305   3.121 -0.3293  0.1102  0.2860
    3CHTO   H71 1127   5.673   2.316   3.081  0.0947  0.0382 -0.6215
    3CHTO   O28 1128   5.971   1.870   3.055 -0.3893 -0.6909  0.1414
    3CHTO   C42 1129   5.968   1.825   2.914 -0.0188 -0.0129 -0.4709
    3CHTO   H84 1130   6.070   1.843   2.882  0.0319 -0.7542 -0.7447
    3CHTO   C44 1131   5.879   1.900   2.819  0.5187  0.3622  0.2344
    3CHTO   H86 1132   5.774   1.885   2.845  0.9702 -2.0469  0.7740
    3CHTO   O32 1133   5.912   2.037   2.834 -0.2138  0.3343  0.0879
    3CHTO   H69 1134   5.848   2.090   2.789 -1.9695 -2.3928 -0.7491
    3CHTO   C48 1135   5.890   1.837   2.672  0.0465  0.2420 -0.0682
    3CHTO   H90 1136   5.997   1.845   2.649  0.3937  0.3052  1.4882
    3CHTO    N9 1137   5.810   1.915   2.576  0.1811 -0.2233 -0.4461
    3CHTO   H77 1138   5.751   1.985   2.633 -0.7549  1.0782 -2.9400
    3CHTO   H78 1139   5.878   1.953   2.502  1.7246  0.6440  1.3664
    3CHTO   C51 1140   5.849   1.684   2.671  0.3280 -0.1978  0.0360
    3CHTO   H93 1141   5.751   1.672   2.716  0.7403 -3.5346  0.1710
    3CHTO   O30 1142   5.948   1.621   2.748  0.0549  0.3007  0.2346
    3CHTO   C46 1143   5.938   1.670   2.903  0.1074 -0.3590 -0.8557
    3CHTO   H88 1144   5.841   1.639   2.940  0.3950  1.5835  1.6621
    3CHTO   C53 1145   6.043   1.592   2.976  0.1661  0.6781 -0.1977
    3CHTO   O72 1146   5.997   1.457   2.984 -0.1113 -0.3882  0.3867
    3CHTO  H199 1147   6.063   1.395   3.007 -1.5583 -2.2725 -0.3798
    3CHTO   O22 1148   5.841   1.619   2.537 -0.7356 -0.8150 -0.8848
    3CHTO   C31 1149   5.779   1.485   2.520 -0.8841 -0.3896 -0.0933
    3CHTO   H59 1150   5.808   1.454   2.418 -0.7249 -1.1482  0.1788
    3CHTO   C29 1151   5.834   1.380   2.616 -0.1638  0.3100 -0.1873
    3CHTO   H57 1152   5.811   1.410   2.719 -0.3223 -0.9677  0.1581
    3CHTO   O21 1153   5.983   1.378   2.602 -0.2371  0.3045  0.0771
    3CHTO   H37 1154   6.018   1.317   2.663 -0.0987  0.5011  0.1959
    3CHTO   C27 1155   5.775   1.238   2.588  0.5196 -0.6435  0.2126
    3CHTO   H55 1156   5.806   1.212   2.486  0.0971 -0.7288  0.1042
    3CHTO    N5 1157   5.824   1.138   2.679 -0.3197 -0.2436  0.0028
    3CHTO   H43 1158   5.932   1.135   2.674 -0.3009  0.5177 -0.1251
    3CHTO   H44 1159   5.787   1.042   2.647 -0.5276 -0.1143 -0.1426
    3CHTO   C25 1160   5.614   1.243   2.583 -0.3495  0.1194  0.6964
    3CHTO   H53 1161   5.574   1.263   2.684 -1.3688 -1.7517  0.6918
    3CHTO   O17 1162   5.567   1.357   2.500  0.2499  0.1177 -0.1531
    3CHTO   C32 1163   5.616   1.486   2.531  0.0676  0.3413 -0.6517
    3CHTO   H60 1164   5.581   1.502   2.633  1.5341  0.6931 -0.1973
    3CHTO   C36 1165   5.555   1.584   2.433 -0.7713  0.3141  0.3333
    3CHTO   O25 1166   5.563   1.722   2.477 -0.3896 -0.4617 -0.4044
    3CHTO   H40 1167   5.481   1.765   2.461 -0.2404 -0.2524 -0.6093
    3CHTO   O15 1168   5.554   1.105   2.537 -0.0464  0.3816  0.2400
    3CHTO   C19 1169   5.426   1.043   2.539 -0.1043 -0.6511 -0.2376
    3CHTO   H47 1170   5.426   0.958   2.469  0.8030 -0.7116 -0.1598
    3CHTO   C20 1171   5.382   0.984   2.687  0.1553 -0.2566 -0.1301
    3CHTO   H48 1172   5.383   1.057   2.769 -1.8671  0.4402 -0.7142
    3CHTO   O19 1173   5.464   0.875   2.718 -0.3719 -0.3633 -0.9198
    3CHTO   H35 1174   5.456   0.849   2.808  3.0104  0.6135 -0.2688
    3CHTO   C21 1175   5.236   0.922   2.706 -0.2487 -0.3757  0.0081
    3CHTO   H49 1176   5.237   0.824   2.657 -3.1307 -0.3631 -0.1849
    3CHTO    N4 1177   5.191   0.907   2.851 -0.0007 -0.4193 -0.2291
    3CHTO   H41 1178   5.269   0.862   2.911  0.0100  0.1675  0.2045
    3CHTO   H42 1179   5.169   1.000   2.900  1.1371 -1.4749  2.4240
    3CHTO   C22 1180   5.142   1.013   2.621 -0.1973  0.4331  0.2425
    3CHTO   H50 1181   5.097   1.098   2.672  0.1152  0.5781  0.2836
    3CHTO   O14 1182   5.192   1.059   2.492  0.0802 -0.2588 -0.3460
    3CHTO   C23 1183   5.311   1.131   2.490 -0.3973  0.1228 -0.4005
    3CHTO   H51 1184   5.304   1.223   2.550 -0.0581 -0.1879  0.1162
    3CHTO   C34 1185   5.330   1.175   2.347  0.0033 -0.1548  0.0182
    3CHTO   O23 1186   5.217   1.259   2.301  0.0265  0.3897 -0.2984
    3CHTO   H38 1187   5.230   1.321   2.232 -2.9032 -0.9898 -2.1726
    3CHTO   O16 1188   5.031   0.929   2.588 -0.1304  0.4049 -0.0045
    3CHTO   C24 1189   4.893   0.981   2.609 -0.0411 -0.0574 -0.2772
    3CHTO   H52 1190   4.893   1.075   2.665  3.2812  0.5232 -1.1298
    3CHTO   C26 1191   4.807   0.897   2.706 -0.0163  0.0347  0.4257
    3CHTO   H54 1192   4.792   0.795   2.664 -2.1817  0.6518 -0.3560
    3CHTO   O20 1193   4.890   0.881   2.822  0.0682 -0.1230 -0.2097
    3CHTO   H36 1194   4.869   0.951   2.881 -0.7952 -0.8200  0.3099
    3CHTO   C30 1195   4.674   0.975   2.733 -0.2192 -0.3653 -0.2984
    3CHTO   H58 1196   4.705   1.076   2.766  1.3962 -0.6008 -1.0409
    3CHTO    N6 1197   4.604   0.915   2.853  0.3698 -0.2905 -0.1453
    3CHTO   H45 1198   4.538   0.833   2.828 -0.7723  0.7463 -0.5777
    3CHTO   H46 1199   4.675   0.889   2.930  1.3384  1.0782 -0.5638
    3CHTO   C33 1200   4.603   0.996   2.596  0.5354  0.2524  0.1059
    3CHTO   H61 1201   4.584   0.897   2.553 -1.2268  1.4145 -1.9332
    3CHTO   O18 1202   4.694   1.069   2.507  0.9382  0.7808  0.1485
    3CHTO   C28 1203   4.822   1.011   2.476 -0.3500 -0.1075 -0.3414
    3CHTO   H56 1204   4.810   0.917   2.421 -0.5387 -0.1588 -0.2117
    3CHTO   C35 1205   4.897   1.106   2.387 -0.1614  0.1512  0.1282
    3CHTO   O24 1206   4.903   1.238   2.439  0.0481 -0.0625  0.1655
    3CHTO   H39 1207   4.885   1.295   2.367 -2.5707  0.9553  1.5394
    3CHTO    O9 1208   4.474   1.053   2.603 -0.0755 -0.6285 -0.0465
    3CHTO   C13 1209   4.489   1.221   2.622  0.3675  0.4935  0.4822
    3CHTO   H26 1210   4.593   1.249   2.648  0.7148 -1.4848  1.3232
    3CHTO   C11 1211   4.386   1.268   2.737  0.4287 -0.0064  0.6455
    3CHTO   H24 1212   4.411   1.218   2.832 -1.0661  2.9766  2.6781
    3CHTO    O8 1213   4.255   1.217   2.694  0.0192 -0.2364 -0.8577
    3CHTO    H3 1214   4.241   1.129   2.722  0.7665  0.2127  0.9982
    3CHTO    C9 1215   4.397   1.423   2.751  0.1931 -0.4591  0.7788
    3CHTO   H22 1216   4.496   1.442   2.795  1.1855 -0.6345 -1.2884
    3CHTO    N2 1217   4.300   1.477   2.849  0.0144 -0.2112  0.4309
    3CHTO   H10 1218   4.349   1.521   2.935 -1.0381 -0.5175  1.2158
    3CHTO   H11 1219   4.220   1.409   2.876 -0.3768  0.0418 -0.0868
    3CHTO    C7 1220   4.394   1.491   2.607 -0.2450  0.1213  0.7865
    3CHTO   H20 1221   4.496   1.529   2.587 -0.5714  0.3573 -0.4725
    3CHTO    O4 1222   4.355   1.405   2.506 -0.1994 -0.4704  0.4565
    3CHTO   C14 1223   4.452   1.305   2.490 -0.4758 -0.0733 -0.0017
    3CHTO   H27 1224   4.540   1.358   2.448  0.0766  0.4730  1.8080
    3CHTO   C18 1225   4.392   1.216   2.377  0.0032  0.0350 -0.2364
    3CHTO   O13 1226   4.268   1.149   2.390  0.1267  0.5570  0.0012
    3CHTO    H7 1227   4.266   1.084   2.323  0.6322 -0.7814  1.2499
    3CHTO    O2 1228   4.278   1.638   2.603  0.7990  0.2872 -0.7549
    3CHTO    C1 1229   4.352   1.754   2.570  0.0418 -0.0208 -0.8625
    3CHTO   H14 1230   4.447   1.719   2.524  1.1671  1.3754  0.3339
    3CHTO    C2 1231   4.390   1.866   2.677  0.0720  0.4182  0.1604
    3CHTO   H15 1232   4.299   1.894   2.733 -0.1813 -0.5632  0.2450
    3CHTO    O6 1233   4.487   1.801   2.764  0.1412 -0.0693  0.0470
    3CHTO    H1 1234   4.450   1.738   2.822 -1.3576  0.3380 -0.4412
    3CHTO    C3 1235   4.446   1.992   2.598 -0.1086 -0.0492 -0.6414
    3CHTO   H16 1236   4.548   1.966   2.565  0.4558  0.1940  0.8745
    3CHTO    N1 1237   4.465   2.103   2.699  0.0656 -0.5322  0.3134
    3CHTO    H8 1238   4.550   2.082   2.762  1.1997  0.0272 -1.0013
    3CHTO    H9 1239   4.479   2.202   2.658  0.9513 -0.5540  0.5472
    3CHTO    C4 1240   4.369   2.039   2.464 -0.0555 -0.1922 -0.3006
    3CHTO   H17 1241   4.283   2.095   2.502 -0.0568 -0.2143 -0.2723
    3CHTO    O1 1242   4.340   1.923   2.379 -0.1930  0.0906 -0.5946
    3CHTO    C5 1243   4.281   1.807   2.434 -0.1555 -0.1494  0.1042
    3CHTO   H18 1244   4.176   1.820   2.457  0.0711 -0.1933  1.1733
    3CHTO   C16 1245   4.296   1.709   2.310  0.5888 -0.6919 -0.7099
    3CHTO   O11 1246   4.218   1.744   2.199 -0.2710 -0.1806  1.1107
    3CHTO    H5 1247   4.267   1.767   2.122 -0.9942 -1.1988  0.3332
    3CHTO    O3 1248   4.456   2.125   2.388  0.2034 -0.2926  0.0449
    3CHTO    C6 1249   4.379   2.236   2.324 -0.4890  0.2416  0.4602
    3CHTO   H19 1250   4.272   2.230   2.345 -0.2871 -1.2038  1.1479
    3CHTO    C8 1251   4.437   2.375   2.365  0.7189  0.0587  0.1634
    3CHTO   H21 1252   4.545   2.371   2.357  0.5991 -2.3193 -0.7215
    3CHTO    O7 1253   4.402   2.391   2.508  0.9552 -0.3441  0.7046
    3CHTO    H2 1254   4.459   2.449   2.554 -1.3025  1.7473  0.9855
    3CHTO   C12 1255   4.374   2.489   2.281 -0.2117 -0.4283  0.0407
    3CHTO   H25 1256   4.266   2.496   2.308  0.1713  1.2372  1.2046
    3CHTO    N3 1257   4.429   2.624   2.323 -0.0042  0.0239  0.2611
    3CHTO   H12 1258   4.356   2.703   2.322 -0.9440 -0.8311 -1.7345
    3CHTO   H13 1259   4.497   2.626   2.407 -0.4862 -0.7382  0.6755
    3CHTO   C15 1260   4.383   2.459   2.137  0.8688 -0.0899 -0.2016
    3CHTO   H28 1261   4.483   2.457   2.092  0.0683  1.1550 -2.1183
    3CHTO   O10 1262   4.268   2.570   2.043 -0.2542 -0.1342 -0.4638
    3CHTO    H4 1263   4.181   2.549   2.072  0.0323 -1.7755 -0.6938
    3CHTO    O5 1264   4.320   2.334   2.107  0.1755 -0.0339 -0.3064
    3CHTO   C10 1265   4.399   2.228   2.164  0.9192 -0.2567 -0.0460
    3CHTO   H23 1266   4.503   2.251   2.144  0.2322  0.0368 -3.4876
    3CHTO   C17 1267   4.370   2.092   2.100  0.0604  0.5127  0.0832
    3CHTO   O12 1268   4.232   2.056   2.102  0.6083 -0.2796 -0.2035
    3CHTO    H6 1269   4.189   2.097   2.029  0.7209 -0.1680 -0.2065
    4CHTO  H203 1270   5.521   8.186   1.336 -1.5785  0.9031  0.8970
    4CHTO   O82 1271   5.572   8.213   1.409  0.1912  0.0372 -0.0012
    4CHTO  C123 1272   5.710   8.182   1.387 -0.2639  0.0776 -0.1691
    4CHTO  H227 1273   5.716   8.086   1.335  2.9164 -0.1758  0.5754
    4CHTO   O77 1274   5.764   8.299   1.313 -0.2022  0.6959  0.1774
    4CHTO  C118 1275   5.904   8.292   1.279  0.2088 -0.2228  0.0466
    4CHTO  H222 1276   5.922   8.195   1.231  1.8614  1.2295 -2.3758
    4CHTO  C125 1277   5.932   8.409   1.178 -0.6591  0.1626  0.9217
    4CHTO   O84 1278   5.890   8.531   1.241  0.2864  0.2012 -0.0535
    4CHTO  H205 1279   5.856   8.595   1.181  0.1558  0.8817  0.7470
    4CHTO  C114 1280   5.978   8.292   1.408 -0.5175  0.1770 -0.4862
    4CHTO  H218 1281   5.961   8.388   1.457  1.7767  1.1628 -1.5941
    4CHTO  C116 1282   5.933   8.173   1.504  0.1586  0.2105  0.7711
    4CHTO  H220 1283   5.954   8.086   1.438 -2.4058 -0.5003  0.8692
    4CHTO   O79 1284   6.013   8.156   1.622  0.1366 -0.5155  0.2218
    4CHTO  H201 1285   5.960   8.180   1.697 -1.9022  0.4949 -1.4752
    4CHTO  C120 1286   5.781   8.175   1.526  0.0504  0.2690  0.6080
    4CHTO  H224 1287   5.762   8.263   1.591 -0.5075 -0.1549  1.0287
    4CHTO   N21 1288   5.734   8.054   1.599 -0.5465 -0.2805  0.0237
    4CHTO  H211 1289   5.703   7.967   1.543  1.2636 -1.5055  0.8817
    4CHTO  H212 1290   5.657   8.077   1.672  0.2633 -2.0083  1.4774
    4CHTO   O75 1291   6.112   8.279   1.372 -0.5320 -0.2654 -0.2274
    4CHTO  C112 1292   6.210   8.351   1.440 -0.3960 -0.1539 -0.3571
    4CHTO  H216 1293   6.190   8.335   1.547 -1.1095 -1.9955 -0.7470
    4CHTO   O73 1294   6.192   8.491   1.408 -0.1505 -0.4228  0.2713
    4CHTO  C113 1295   6.289   8.582   1.449  0.5283  0.0109  0.0162
    4CHTO  H217 1296   6.280   8.596   1.558  0.8723  2.7453 -0.2713
    4CHTO  C124 1297   6.241   8.707   1.379 -0.2764  0.0016 -0.2188
    4CHTO   O83 1298   6.096   8.743   1.385 -0.1114 -0.1590 -0.4838
    4CHTO  H204 1299   6.071   8.824   1.346 -0.4998  0.7689  1.5857
    4CHTO  C109 1300   6.429   8.534   1.406  0.0937  0.2969  0.5349
    4CHTO  H213 1301   6.437   8.545   1.297 -1.1050 -3.1345  0.0511
    4CHTO  C110 1302   6.461   8.387   1.442 -0.4726 -0.5525 -0.6043
    4CHTO  H214 1303   6.470   8.383   1.551 -1.1247  1.8275 -0.4366
    4CHTO   O78 1304   6.586   8.353   1.380 -0.1343  0.4361 -0.0845
    4CHTO  H200 1305   6.584   8.259   1.371 -0.1720  0.4376 -0.0849
    4CHTO  C111 1306   6.349   8.292   1.395 -0.6293 -0.0286 -0.4547
    4CHTO  H215 1307   6.343   8.291   1.285  0.5247 -0.2887 -0.5277
    4CHTO   N19 1308   6.373   8.148   1.437 -0.1304  0.5861  0.0105
    4CHTO  H207 1309   6.277   8.101   1.453 -2.6258  5.1932 -0.3707
    4CHTO  H208 1310   6.424   8.155   1.532 -0.9843  1.5377  0.4229
    4CHTO   O74 1311   6.534   8.623   1.468 -0.0962 -0.5612 -0.6177
    4CHTO  C115 1312   6.614   8.705   1.347  0.5189 -0.2487  0.1323
    4CHTO  H219 1313   6.604   8.655   1.250  2.0730 -1.7303  0.7155
    4CHTO   O76 1314   6.564   8.839   1.333  0.0580 -0.1360  0.0963
    4CHTO  C122 1315   6.614   8.928   1.431  0.1443  0.4608 -0.3143
    4CHTO  H226 1316   6.586   8.888   1.529 -0.8815  2.9441  0.4752
    4CHTO  C126 1317   6.543   9.061   1.427 -0.3126  0.5734 -0.6383
    4CHTO   O85 1318   6.401   9.046   1.407 -0.4006 -0.1211 -0.9527
    4CHTO  H206 1319   6.359   8.991   1.470 -0.7654  0.1902 -0.9249
    4CHTO  C121 1320   6.769   8.951   1.435 -0.0615 -0.2070  0.2440
    4CHTO  H225 1321   6.801   9.049   1.393  1.4197 -0.6393  0.3179
    4CHTO   O81 1322   6.825   8.950   1.566 -0.1998 -0.0995 -0.3387
    4CHTO  H202 1323   6.910   8.989   1.562 -0.3105  0.2032  0.1718
    4CHTO  C119 1324   6.835   8.843   1.353  0.3972 -0.2286 -0.4671
    4CHTO  H223 1325   6.810   8.881   1.254 -0.5527  1.2060  0.2992
    4CHTO  C117 1326   6.766   8.700   1.385 -0.0160 -0.2374  0.3355
    4CHTO  H221 1327   6.772   8.679   1.492  1.1142  0.0163  0.3321
    4CHTO   N20 1328   6.846   8.587   1.319 -0.2402 -0.0448  0.1726
    4CHTO  H209 1329   6.782   8.513   1.274 -0.1018  1.5082 -2.6957
    4CHTO  H210 1330   6.907   8.618   1.235 -0.4201 -0.0598  0.0372
    4CHTO   O80 1331   7.009   8.846   1.347 -0.0705 -0.0145  0.4119
    4CHTO  C103 1332   7.085   8.970   1.309 -0.1244  0.3282 -1.3049
    4CHTO  H190 1333   7.018   9.053   1.285 -1.3889 -0.3369 -0.1017
    4CHTO  C101 1334   7.188   9.023   1.419 -0.1978 -0.3904 -0.1607
    4CHTO  H188 1335   7.250   8.942   1.458  1.8581  0.5598 -1.3316
    4CHTO   O68 1336   7.110   9.101   1.543  0.2597 -0.0389  0.3263
    4CHTO  H168 1337   7.029   9.060   1.566 -1.7119  2.2595 -2.0906
    4CHTO   C99 1338   7.293   9.130   1.354 -0.6132 -0.1747  0.0418
    4CHTO  H186 1339   7.240   9.222   1.322  0.2230 -0.0131 -0.9106
    4CHTO   N17 1340   7.388   9.183   1.453 -0.3006  0.1070 -0.3300
    4CHTO  H174 1341   7.458   9.112   1.493  0.6943  1.3177  0.1183
    4CHTO  H175 1342   7.341   9.236   1.534  2.6724  0.1891  1.4315
    4CHTO   C97 1343   7.353   9.071   1.222  0.2916 -1.2294  0.3736
    4CHTO  H184 1344   7.419   8.983   1.233  2.3557  0.4094  1.2679
    4CHTO   O64 1345   7.243   9.043   1.134 -0.2140 -0.2007  0.8333
    4CHTO  C104 1346   7.165   8.934   1.172 -0.1763 -1.0623  0.0830
    4CHTO  H191 1347   7.232   8.850   1.191  1.0268 -0.2732 -0.6125
    4CHTO  C108 1348   7.070   8.902   1.058  0.2748  0.2862 -0.5100
    4CHTO   O71 1349   7.031   8.760   1.066 -0.6115 -0.3363  0.6252
    4CHTO  H171 1350   6.957   8.755   1.124 -0.9027  0.5440  0.3345
    4CHTO   O62 1351   7.422   9.170   1.147  0.0347 -0.3754  0.0854
    4CHTO   C91 1352   7.542   9.140   1.072 -0.6685  0.4606 -0.1520
    4CHTO  H178 1353   7.572   9.036   1.089 -1.6298  0.1530 -0.3076
    4CHTO   C92 1354   7.667   9.227   1.094 -0.3502  0.2795  0.0857
    4CHTO  H179 1355   7.701   9.225   1.198  1.9927 -2.1458 -0.6626
    4CHTO   O66 1356   7.777   9.167   1.020 -0.0139  0.0560 -0.6188
    4CHTO  H166 1357   7.848   9.228   1.028  1.3594 -1.4537 -0.9108
    4CHTO   C93 1358   7.657   9.378   1.045  0.1059  1.0060  0.1618
    4CHTO  H180 1359   7.758   9.419   1.029 -0.5514  2.8138  0.5786
    4CHTO   N16 1360   7.599   9.464   1.153 -0.0656 -0.4886  0.3700
    4CHTO  H172 1361   7.517   9.413   1.203 -0.6692  0.8108  0.7244
    4CHTO  H173 1362   7.577   9.561   1.112 -1.6980 -1.1365 -0.3439
    4CHTO   C94 1363   7.577   9.383   0.908 -0.4099  1.3140 -0.4408
    4CHTO  H181 1364   7.478   9.425   0.922 -0.8971 -0.6194  2.2979
    4CHTO   O61 1365   7.559   9.257   0.836 -0.1112  0.0638  0.0587
    4CHTO   C95 1366   7.504   9.146   0.912  0.3063 -0.1450  0.8914
    4CHTO  H182 1367   7.396   9.153   0.902  0.3379 -3.0249 -2.4279
    4CHTO  C106 1368   7.539   9.013   0.836 -0.4218 -0.1475  0.6615
    4CHTO   O69 1369   7.482   8.896   0.887  0.0474  0.5868  0.3886
    4CHTO  H169 1370   7.406   8.886   0.833  0.4860 -1.2656  0.0842
    4CHTO   O63 1371   7.667   9.486   0.806  0.3883 -0.2869 -0.3005
    4CHTO   C96 1372   7.558   9.530   0.677 -0.3190 -0.2833 -0.1453
    4CHTO  H183 1373   7.453   9.516   0.703 -0.2867 -0.2980 -0.0203
    4CHTO   C98 1374   7.595   9.454   0.537  0.6599  0.0219 -0.2424
    4CHTO  H185 1375   7.693   9.483   0.498  0.3393  1.1436 -0.2244
    4CHTO   O67 1376   7.589   9.318   0.561  0.1555 -0.1135 -0.1728
    4CHTO  H167 1377   7.617   9.269   0.486 -0.4937 -0.8898  0.0832
    4CHTO  C102 1378   7.487   9.495   0.424  0.1625 -0.1897  0.4599
    4CHTO  H189 1379   7.389   9.459   0.459  0.4004 -0.0043  1.3296
    4CHTO   N18 1380   7.513   9.428   0.291 -0.4224 -0.0929  0.1877
    4CHTO  H176 1381   7.510   9.492   0.204  1.4322 -0.2818 -0.0306
    4CHTO  H177 1382   7.445   9.348   0.265  0.3557 -1.1497  1.3942
    4CHTO  C105 1383   7.486   9.651   0.415  0.5109  0.1292  0.8100
    4CHTO  H192 1384   7.557   9.682   0.338  1.0310 -2.7868  0.0232
    4CHTO   O65 1385   7.492   9.726   0.537  0.7351  0.2293  0.8536
    4CHTO  C100 1386   7.581   9.682   0.642 -0.1117 -0.5127 -0.1248
    4CHTO  H187 1387   7.685   9.702   0.614  0.7427 -1.5010  2.1958
    4CHTO  C107 1388   7.545   9.773   0.761 -0.1970  0.0355 -0.4780
    4CHTO   O70 1389   7.405   9.762   0.790 -0.4601 -0.0619 -0.6990
    4CHTO  H170 1390   7.384   9.784   0.879  1.8382  1.2189 -0.4555
    4CHTO   O57 1391   7.322   9.675   0.360  0.3525  0.1421 -0.1812
    4CHTO   C85 1392   7.220   9.733   0.444 -0.2085 -0.4275 -0.0676
    4CHTO  H157 1393   7.275   9.817   0.490  1.1237 -0.1177 -2.1615
    4CHTO   C83 1394   7.171   9.644   0.563 -0.3393 -0.2269 -1.5908
    4CHTO  H155 1395   7.262   9.622   0.619 -1.0802 -0.3871 -0.4257
    4CHTO   O56 1396   7.114   9.520   0.519  0.1540 -0.0489 -0.3501
    4CHTO  H135 1397   7.058   9.480   0.583 -2.4720 -0.6367 -2.8759
    4CHTO   C81 1398   7.077   9.740   0.654  0.1000  1.1754  0.0589
    4CHTO  H153 1399   7.132   9.832   0.675  1.5552  0.5757 -1.0322
    4CHTO   N14 1400   7.056   9.690   0.790 -0.3066 -0.6437 -0.3001
    4CHTO  H141 1401   6.960   9.717   0.829 -0.1343 -2.6588  1.5676
    4CHTO  H142 1402   7.056   9.583   0.789 -1.1008 -0.6617  0.8023
    4CHTO   C79 1403   6.954   9.766   0.567  0.2032  0.3071  0.8456
    4CHTO  H151 1404   6.890   9.832   0.625 -0.0298 -0.0532  1.0029
    4CHTO   O52 1405   6.996   9.841   0.453  0.1553 -0.0439  0.3074
    4CHTO   C86 1406   7.094   9.786   0.362  0.1983 -0.5534 -0.7892
    4CHTO  H158 1407   7.040   9.699   0.318 -2.0236 -1.0703  2.7077
    4CHTO   C90 1408   7.125   9.889   0.249 -0.1220 -0.1844 -0.7205
    4CHTO   O60 1409   7.165  10.018   0.304  0.3843  0.5959 -0.2656
    4CHTO  H138 1410   7.180  10.078   0.233  0.6443 -1.4455 -1.9975
    4CHTO   O50 1411   6.883   9.645   0.541  0.0910 -0.0849  0.4441
    4CHTO   C73 1412   6.766   9.559   0.526 -0.5914 -0.0226  0.7519
    4CHTO  H145 1413   6.687   9.620   0.479 -0.1693 -1.3465 -1.7805
    4CHTO   C74 1414   6.701   9.502   0.663  0.5194  0.1999  0.9870
    4CHTO  H146 1415   6.681   9.590   0.726 -0.2754  0.9335 -0.2683
    4CHTO   O54 1416   6.571   9.441   0.643 -0.3365  0.4651  0.2773
    4CHTO  H133 1417   6.561   9.412   0.554  0.4927 -0.8533  0.5958
    4CHTO   C75 1418   6.809   9.409   0.724 -0.0873  0.2867 -0.0959
    4CHTO  H147 1419   6.904   9.464   0.724  1.0688 -1.6922 -0.1181
    4CHTO   N13 1420   6.771   9.351   0.853 -0.3118 -0.4041 -0.4497
    4CHTO  H139 1421   6.756   9.422   0.933 -1.9212 -0.2028 -0.9076
    4CHTO  H140 1422   6.856   9.288   0.873 -0.2204  0.1923  1.0876
    4CHTO   C76 1423   6.845   9.299   0.616  0.2274  0.0822 -0.5788
    4CHTO  H148 1424   6.758   9.235   0.604 -0.3036 -0.0240  3.3919
    4CHTO   O49 1425   6.899   9.357   0.490 -0.4281 -0.5724 -0.3207
    4CHTO   C77 1426   6.798   9.440   0.425  0.0703 -0.6822 -0.4053
    4CHTO  H149 1427   6.704   9.389   0.403  0.3451 -0.7680 -1.4015
    4CHTO   C88 1428   6.848   9.494   0.288 -0.4174  0.4273  0.0293
    4CHTO   O58 1429   6.895   9.377   0.197  0.3565 -0.4825  0.3185
    4CHTO  H136 1430   6.924   9.305   0.250  1.2290  0.7892  1.6085
    4CHTO   O51 1431   6.982   9.216   0.680  0.0882 -0.5358 -0.8098
    4CHTO   C78 1432   7.029   9.097   0.613  0.0529 -0.5392  0.7966
    4CHTO  H150 1433   7.037   9.114   0.503  0.2612  0.6497  0.9857
    4CHTO   C80 1434   6.940   8.974   0.644 -0.1280  0.2561 -0.5866
    4CHTO  H152 1435   6.932   8.959   0.753  1.1916  0.3506 -0.4746
    4CHTO   O55 1436   6.812   8.999   0.585  0.4125 -0.5172  0.6255
    4CHTO  H134 1437   6.761   8.940   0.638  0.9791 -1.6971 -0.1189
    4CHTO   C84 1438   7.008   8.849   0.593  0.0063  0.1911  0.2511
    4CHTO  H156 1439   7.030   8.863   0.487 -0.6201 -0.9528 -0.0442
    4CHTO   N15 1440   6.926   8.725   0.618  0.2133  0.4121  0.0299
    4CHTO  H143 1441   6.970   8.653   0.684  0.0865  0.2995 -0.0067
    4CHTO  H144 1442   6.907   8.685   0.521 -0.1380  4.5134 -1.6971
    4CHTO   C87 1443   7.152   8.844   0.653 -0.0207  1.3216  0.7817
    4CHTO  H159 1444   7.149   8.838   0.762 -2.4382  0.7522  0.6969
    4CHTO   O53 1445   7.223   8.946   0.607  0.1411  0.4653  0.4892
    4CHTO   C82 1446   7.174   9.075   0.665 -0.3251 -0.0042  0.3909
    4CHTO  H154 1447   7.174   9.068   0.774 -1.0076 -0.8551  0.3438
    4CHTO   C89 1448   7.261   9.193   0.625  0.3249 -0.4067 -0.9036
    4CHTO   O59 1449   7.260   9.261   0.497  0.4304  0.3445 -0.0378
    4CHTO  H137 1450   7.204   9.209   0.442 -2.3872  1.6871  1.4955
    4CHTO   O45 1451   7.223   8.697   0.603 -0.9278  0.3265 -0.2062
    4CHTO   C67 1452   7.346   8.660   0.660  0.8133 -0.1592 -0.1006
    4CHTO  H124 1453   7.391   8.747   0.708 -0.7711  0.0107  1.1117
    4CHTO   C65 1454   7.325   8.543   0.756  0.4664  0.7349 -0.4904
    4CHTO  H122 1455   7.246   8.572   0.825  2.5590  0.1360  2.2392
    4CHTO   O44 1456   7.450   8.523   0.835 -0.2363 -0.9998 -0.3191
    4CHTO  H102 1457   7.443   8.459   0.903  1.9785 -0.6441  0.3010
    4CHTO   C63 1458   7.276   8.412   0.689 -0.6970  0.2495 -0.7532
    4CHTO  H120 1459   7.186   8.434   0.632 -0.2985  1.8035 -0.8170
    4CHTO   N11 1460   7.229   8.300   0.788 -0.2593 -0.1215 -0.1135
    4CHTO  H108 1461   7.237   8.318   0.893  0.2470 -0.6246 -0.0626
    4CHTO  H109 1462   7.268   8.202   0.771 -1.1248 -0.3298 -0.9434
    4CHTO   C61 1463   7.389   8.370   0.589  0.8160 -0.2762 -0.3335
    4CHTO  H118 1464   7.333   8.307   0.519  0.8025  1.5886 -2.0542
    4CHTO   O40 1465   7.443   8.475   0.509 -0.6093 -0.1104 -0.4060
    4CHTO   C68 1466   7.443   8.620   0.548 -0.0139 -0.5737 -0.4213
    4CHTO  H125 1467   7.417   8.667   0.451 -0.4618 -0.7474 -0.3877
    4CHTO   C72 1468   7.587   8.650   0.570 -0.4168 -0.2418 -0.5575
    4CHTO   O48 1469   7.608   8.795   0.558  0.3875  0.8720 -0.3200
    4CHTO  H105 1470   7.625   8.831   0.643 -0.1126  2.2328 -0.7869
    4CHTO   O38 1471   7.499   8.300   0.635  0.4000 -0.0787 -0.3719
    4CHTO   C55 1472   7.539   8.183   0.563 -0.2851 -0.1961 -0.0236
    4CHTO  H112 1473   7.521   8.197   0.456  1.5240 -2.5317 -0.6806
    4CHTO   C56 1474   7.469   8.058   0.613 -0.2117 -0.4835 -0.4627
    4CHTO  H113 1475   7.485   8.044   0.722 -0.3345 -2.7582 -0.6975
    4CHTO   O42 1476   7.326   8.061   0.616  0.0990 -0.4494  0.2286
    4CHTO  H100 1477   7.299   8.130   0.673 -2.3645 -0.8908 -0.3097
    4CHTO   C57 1478   7.519   7.927   0.532 -0.5338 -0.1541  0.0548
    4CHTO  H114 1479   7.488   7.949   0.430 -1.1917 -0.4888  0.1790
    4CHTO   N10 1480   7.461   7.795   0.587  0.6989 -0.2299  0.1520
    4CHTO  H106 1481   7.487   7.721   0.512  1.5416 -0.8111  1.0066
    4CHTO  H107 1482   7.488   7.764   0.687  2.1919 -0.0449 -0.1812
    4CHTO   C58 1483   7.676   7.916   0.536 -0.1494  0.0786 -0.3004
    4CHTO  H115 1484   7.709   7.895   0.640 -1.8227  0.5147  0.3404
    4CHTO   O37 1485   7.737   8.041   0.504 -0.3595  0.0893  0.4865
    4CHTO   C59 1486   7.688   8.160   0.579 -0.2330 -0.1955  0.2118
    4CHTO  H116 1487   7.706   8.145   0.686 -0.5823 -1.1510  0.1435
    4CHTO   C70 1488   7.766   8.282   0.531  0.1312 -0.2800 -0.1246
    4CHTO   O46 1489   7.899   8.260   0.488 -0.2762 -0.7730  0.0650
    4CHTO  H103 1490   7.923   8.333   0.434 -2.9895 -0.3390 -0.6120
    4CHTO   O39 1491   7.728   7.806   0.427 -0.0716 -0.4578  0.3320
    4CHTO   C60 1492   7.704   7.814   0.290 -0.0095 -0.5412  0.7343
    4CHTO  H117 1493   7.602   7.842   0.265  0.4181 -1.2028 -1.9200
    4CHTO   C62 1494   7.799   7.923   0.223 -0.0121  0.2376  0.1304
    4CHTO  H119 1495   7.756   8.022   0.252 -3.6378 -1.3032  0.2898
    4CHTO   O43 1496   7.928   7.891   0.279  0.5405 -0.7721 -0.0555
    4CHTO  H101 1497   7.963   7.808   0.253  0.3010  0.0997 -3.3878
    4CHTO   C66 1498   7.795   7.915   0.061 -0.1391  0.1353 -0.3880
    4CHTO  H123 1499   7.692   7.917   0.024  0.5243 -1.4411 -2.4542
    4CHTO   N12 1500   7.873   8.015  -0.007 -0.4792 -0.3000  0.5465
    4CHTO  H110 1501   7.979   7.999   0.009 -0.2560  2.0570  1.5976
    4CHTO  H111 1502   7.842   8.107   0.041  0.2403 -0.0521  0.5534
    4CHTO   C69 1503   7.834   7.766   0.025  0.3425  0.9584 -0.0040
    4CHTO  H126 1504   7.928   7.728   0.072  0.4857 -0.2792 -1.2601
    4CHTO   O41 1505   7.720   7.678   0.071 -0.6170 -0.2434 -0.1082
    4CHTO   C64 1506   7.729   7.679   0.225 -0.7559 -0.5806  0.3734
    4CHTO  H121 1507   7.827   7.648   0.265  0.2829 -0.4822 -1.9634
    4CHTO   C71 1508   7.637   7.577   0.280 -0.1595  0.0891 -0.2556
    4CHTO   O47 1509   7.683   7.455   0.229 -0.1271 -0.1637  0.1904
    4CHTO  H104 1510   7.625   7.383   0.247  2.1644 -1.5862  2.1581
    4CHTO   O34 1511   7.846   7.731  -0.136  0.6115  0.0846  0.0432
    4CHTO   C49 1512   7.901   7.619  -0.226 -0.1141 -0.2176  0.1745
    4CHTO   H91 1513   8.000   7.657  -0.255  0.3612 -1.4331  0.1637
    4CHTO   C47 1514   7.816   7.599  -0.351  0.0601 -0.1436 -0.3590
    4CHTO   H89 1515   7.880   7.534  -0.414  1.9877  0.8743  0.4929
    4CHTO   O33 1516   7.814   7.730  -0.406 -0.4122 -0.4570  0.1628
    4CHTO   H70 1517   7.890   7.741  -0.460 -0.3808  1.7559  0.6347
    4CHTO   C45 1518   7.672   7.540  -0.313 -0.6183  0.2124 -0.2623
    4CHTO   H87 1519   7.631   7.608  -0.237 -1.2550  0.5688 -0.9296
    4CHTO    N8 1520   7.577   7.545  -0.426  0.3969  0.1814  0.4641
    4CHTO   H75 1521   7.629   7.501  -0.510 -1.8826  2.8313 -2.4516
    4CHTO   H76 1522   7.560   7.649  -0.450  0.9373  0.2955  0.5474
    4CHTO   C43 1523   7.693   7.398  -0.236  0.2828  0.2058  0.3671
    4CHTO   H85 1524   7.593   7.372  -0.201 -0.5601 -0.0922 -2.1634
    4CHTO   O29 1525   7.782   7.408  -0.125 -0.1262 -0.1284  0.4759
    4CHTO   C50 1526   7.903   7.486  -0.146 -0.2921  0.5792 -0.3725
    4CHTO   H92 1527   7.933   7.516  -0.044  1.3076 -1.3768 -0.2289
    4CHTO   C54 1528   8.016   7.392  -0.193  0.6151 -0.0170  0.2714
    4CHTO   O36 1529   8.072   7.309  -0.094 -0.1701 -0.0304 -0.1780
    4CHTO   H72 1530   8.162   7.327  -0.078 -0.0591 -1.2816  0.6691
    4CHTO   O27 1531   7.730   7.288  -0.321 -0.0073  0.3079 -0.4104
    4CHTO   C37 1532   7.693   7.152  -0.316  0.0689  0.0242  0.3004
    4CHTO   H79 1533   7.758   7.099  -0.387  0.9731  0.3132  0.8889
    4CHTO   C38 1534   7.715   7.089  -0.176  0.8329  0.2696  0.0601
    4CHTO   H80 1535   7.664   7.152  -0.102  0.6185  0.1763 -0.0085
    4CHTO   O31 1536   7.857   7.082  -0.152  0.4412 -0.2544  0.5626
    4CHTO   H68 1537   7.889   7.104  -0.066 -0.1634 -1.5680  1.1439
    4CHTO   C39 1538   7.659   6.946  -0.167 -0.0594  0.1668 -0.5562
    4CHTO   H81 1539   7.725   6.883  -0.226 -0.2402 -0.3766 -0.1800
    4CHTO    N7 1540   7.665   6.893  -0.025  0.1302 -0.2255  0.1321
    4CHTO   H73 1541   7.619   6.964   0.042  0.0679 -1.4568  1.4077
    4CHTO   H74 1542   7.763   6.860   0.004  0.0172 -1.5014 -0.8363
    4CHTO   C40 1543   7.516   6.935  -0.233  0.0087  0.0185  0.2004
    4CHTO   H82 1544   7.435   6.968  -0.168  0.8372  2.7892 -0.1442
    4CHTO   O26 1545   7.506   6.997  -0.361 -0.1337  0.1543 -0.1537
    4CHTO   C41 1546   7.541   7.136  -0.363 -0.2105  0.2873  0.2188
    4CHTO   H83 1547   7.482   7.195  -0.292 -0.0859  0.1434  0.4385
    4CHTO   C52 1548   7.535   7.195  -0.501  0.1566 -0.7958  0.7195
    4CHTO   O35 1549   7.407   7.173  -0.568 -0.0706 -0.1136 -0.0580
    4CHTO   H71 1550   7.407   7.107  -0.635 -0.9849  0.4058 -0.5855
    4CHTO   O28 1551   7.491   6.794  -0.264  0.5932  0.1203 -1.0950
    4CHTO   C42 1552   7.366   6.722  -0.273 -0.2392 -0.4671 -0.1874
    4CHTO   H84 1553   7.395   6.621  -0.302  1.7224  0.6383 -2.2451
    4CHTO   C44 1554   7.255   6.775  -0.381 -0.2844 -0.3234  0.2596
    4CHTO   H86 1555   7.228   6.876  -0.350 -1.5022 -0.0405 -1.6223
    4CHTO   O32 1556   7.328   6.769  -0.509  0.4008 -0.1869 -0.0583
    4CHTO   H69 1557   7.373   6.687  -0.510 -0.3995 -0.6575  1.2319
    4CHTO   C48 1558   7.129   6.682  -0.372  0.2756  0.3073 -0.0359
    4CHTO   H90 1559   7.156   6.582  -0.404  0.2874  0.2721  0.0819
    4CHTO    N9 1560   7.025   6.726  -0.475 -0.2211 -0.0722  0.0030
    4CHTO   H77 1561   6.972   6.641  -0.516 -0.9825 -0.3266  1.4485
    4CHTO   H78 1562   6.951   6.787  -0.424 -0.2784 -0.4127  0.3341
    4CHTO   C51 1563   7.077   6.683  -0.228  0.1300 -0.0374 -0.8192
    4CHTO   H93 1564   7.050   6.784  -0.198 -1.7302  0.0610 -2.7343
    4CHTO   O30 1565   7.183   6.628  -0.148  0.3808 -0.4037 -0.7021
    4CHTO   C46 1566   7.297   6.711  -0.136 -0.0111 -0.0945  0.9414
    4CHTO   H88 1567   7.262   6.808  -0.101  2.2184  0.7565  0.9255
    4CHTO   C53 1568   7.384   6.643  -0.026  0.2976 -0.5856 -0.1503
    4CHTO   O72 1569   7.400   6.505  -0.061 -0.5045  0.6835  0.7534
    4CHTO  H199 1570   7.338   6.465  -0.002 -0.7334  0.6861  0.5165
    4CHTO   O22 1571   6.963   6.595  -0.213  0.1712 -0.0693  0.5506
    4CHTO   C31 1572   6.906   6.575  -0.080  0.2463  0.4702 -0.0660
    4CHTO   H59 1573   6.992   6.580  -0.010  1.0540  2.4245 -1.1380
    4CHTO   C29 1574   6.810   6.689  -0.043  0.1278  0.4334  0.0847
    4CHTO   H57 1575   6.728   6.689  -0.117 -0.2464  0.1943  0.4933
    4CHTO   O21 1576   6.886   6.811  -0.047  0.3048  0.1233  0.0889
    4CHTO   H37 1577   6.842   6.876  -0.098 -0.9587  0.9867  2.2528
    4CHTO   C27 1578   6.747   6.672   0.098  0.1985 -0.1256 -0.4706
    4CHTO   H55 1579   6.829   6.675   0.172  0.0423  0.8876 -0.3283
    4CHTO    N5 1580   6.644   6.773   0.138  0.2495 -0.6342  0.8096
    4CHTO   H43 1581   6.636   6.768   0.246 -2.0310  0.2176  0.6987
    4CHTO   H44 1582   6.674   6.874   0.116  0.2541 -1.0820 -1.3148
    4CHTO   C25 1583   6.697   6.524   0.119  1.2084 -0.0879 -0.0988
    4CHTO   H53 1584   6.612   6.508   0.051  1.8836  1.9185 -1.4582
    4CHTO   O17 1585   6.795   6.422   0.078  0.0582  0.4628 -0.3124
    4CHTO   C32 1586   6.836   6.436  -0.055 -0.7828 -0.1640  0.2877
    4CHTO   H60 1587   6.739   6.438  -0.104 -0.5944 -0.6752 -0.1159
    4CHTO   C36 1588   6.919   6.308  -0.092  0.0569 -0.4117 -0.5541
    4CHTO   O25 1589   7.021   6.285   0.009 -0.0451 -0.5423  0.4528
    4CHTO   H40 1590   6.989   6.315   0.092  0.3392 -1.0008  0.7664
    4CHTO   O15 1591   6.652   6.496   0.267 -1.1256 -0.2378  0.1294
    4CHTO   C19 1592   6.729   6.491   0.400  0.1833  0.2312 -0.3939
    4CHTO   H47 1593   6.692   6.395   0.440  0.2863  0.3700  0.0334
    4CHTO   C20 1594   6.881   6.473   0.397  0.2077  0.2344 -0.0525
    4CHTO   H48 1595   6.929   6.546   0.330 -0.2381 -0.6966 -1.4119
    4CHTO   O19 1596   6.897   6.343   0.343  0.6929  0.3115 -0.2050
    4CHTO   H35 1597   6.990   6.331   0.337  0.6056 -0.7203  0.4609
    4CHTO   C21 1598   6.945   6.486   0.544 -0.0346 -0.8356  0.3585
    4CHTO   H49 1599   6.929   6.395   0.602  0.0115 -0.3295  1.1684
    4CHTO    N4 1600   7.091   6.503   0.537 -0.6797 -0.3361  0.6372
    4CHTO   H41 1601   7.124   6.606   0.544 -1.1867 -0.0750 -0.6609
    4CHTO   H42 1602   7.140   6.455   0.453  0.3221  0.6457  0.6438
    4CHTO   C22 1603   6.865   6.591   0.624 -0.8507  0.3914 -0.6234
    4CHTO   H50 1604   6.892   6.690   0.588  0.0429 -1.2003 -4.5907
    4CHTO   O14 1605   6.722   6.575   0.619  0.0598  0.1086 -0.3411
    4CHTO   C23 1606   6.670   6.602   0.486 -0.6222 -0.8878  0.0580
    4CHTO   H51 1607   6.710   6.701   0.460 -0.6805 -0.8216  0.2171
    4CHTO   C34 1608   6.520   6.604   0.493 -0.0016  0.6811 -0.7135
    4CHTO   O23 1609   6.463   6.497   0.583  0.6271 -0.0194 -0.1038
    4CHTO   H38 1610   6.373   6.510   0.607 -0.2309 -2.2301 -1.9755
    4CHTO   O16 1611   6.896   6.580   0.762  0.5397 -0.1810  0.8150
    4CHTO   C24 1612   6.916   6.723   0.852 -0.0384  0.8397  0.0417
    4CHTO   H52 1613   6.862   6.809   0.811  2.5406  2.2138 -0.5454
    4CHTO   C26 1614   7.068   6.761   0.863 -1.4389  0.7117  0.1408
    4CHTO   H54 1615   7.123   6.676   0.909  0.9601  2.1961  0.1419
    4CHTO   O20 1616   7.129   6.789   0.740 -0.5197 -0.0122 -0.4308
    4CHTO   H36 1617   7.136   6.719   0.678  0.1671 -0.2617 -0.0873
    4CHTO   C30 1618   7.084   6.879   0.969 -0.4640 -0.4836  0.4594
    4CHTO   H58 1619   7.036   6.968   0.927 -0.6834 -0.5331  0.6076
    4CHTO    N6 1620   7.226   6.923   0.979 -0.2573  0.2683 -0.2260
    4CHTO   H45 1621   7.294   6.840   0.973 -1.4567 -0.9799  2.7092
    4CHTO   H46 1622   7.246   6.995   0.901  1.0889 -2.4551 -2.4649
    4CHTO   C33 1623   7.013   6.856   1.106 -0.3412  0.5893  0.3551
    4CHTO   H61 1624   7.056   6.770   1.160  0.5721  0.0445 -1.2009
    4CHTO   O18 1625   6.885   6.821   1.063 -0.2945 -0.0408 -0.0935
    4CHTO   C28 1626   6.866   6.700   0.996  0.0474  0.7456 -0.0015
    4CHTO   H56 1627   6.911   6.612   1.041 -2.1158  0.8400  2.4507
    4CHTO   C35 1628   6.712   6.678   0.981  0.2122 -0.0554 -0.5626
    4CHTO   O24 1629   6.666   6.555   0.941 -0.4633 -0.2734  0.2704
    4CHTO   H39 1630   6.728   6.488   0.961  0.8737  0.3403 -1.6282
    4CHTO    O9 1631   7.018   6.968   1.192 -0.4327 -0.2136 -0.5350
    4CHTO   C13 1632   6.991   6.945   1.346 -0.9280  0.1801 -0.1755
    4CHTO   H26 1633   7.018   6.841   1.374 -1.2685  0.1200 -0.0662
    4CHTO   C11 1634   6.834   6.973   1.370 -0.4404  0.1733  0.9006
    4CHTO   H24 1635   6.787   6.896   1.306 -2.5385  0.6094  1.8772
    4CHTO    O8 1636   6.808   7.097   1.311 -0.3227  0.0621 -0.3913
    4CHTO    H3 1637   6.718   7.123   1.322 -0.4145 -0.9981  1.4546
    4CHTO    C9 1638   6.804   6.955   1.520 -0.2565 -0.3868  0.6049
    4CHTO   H22 1639   6.852   6.859   1.544  0.5058 -0.2686 -0.4173
    4CHTO    N2 1640   6.665   6.944   1.563 -0.0179 -0.3738  0.3818
    4CHTO   H10 1641   6.652   6.879   1.648  1.3855 -2.9531 -1.2836
    4CHTO   H11 1642   6.588   6.950   1.487 -1.1732 -0.4599  1.5431
    4CHTO    C7 1643   6.872   7.075   1.587 -0.1605  0.1607 -0.5823
    4CHTO   H20 1644   6.847   7.072   1.695 -2.1963 -0.5411 -1.0603
    4CHTO    O4 1645   7.018   7.065   1.571  0.6957  0.1884 -0.4659
    4CHTO   C14 1646   7.071   7.044   1.438 -0.0573 -0.8470 -0.2238
    4CHTO   H27 1647   7.166   6.987   1.444  0.1647 -0.4406  0.1698
    4CHTO   C18 1648   7.107   7.182   1.378 -0.1947 -0.4535  0.6342
    4CHTO   O13 1649   7.225   7.159   1.298 -0.2091 -0.1742 -0.1613
    4CHTO    H7 1650   7.279   7.235   1.300 -0.7374  0.1934  0.2058
    4CHTO    O2 1651   6.818   7.247   1.547  0.6114 -0.6717  0.2550
    4CHTO    C1 1652   6.846   7.349   1.647  0.2689 -0.2724 -0.3158
    4CHTO   H14 1653   6.956   7.354   1.661  0.0806  0.6598  0.9402
    4CHTO    C2 1654   6.780   7.334   1.785  0.7587 -0.8313  0.3451
    4CHTO   H15 1655   6.672   7.312   1.783  0.2502  1.6390 -0.8736
    4CHTO    O6 1656   6.854   7.236   1.864 -0.4311  0.0968 -0.0968
    4CHTO    H1 1657   6.800   7.165   1.893 -2.0783  1.7202  0.9953
    4CHTO    C3 1658   6.795   7.472   1.866 -0.8468  0.5072  1.1956
    4CHTO   H16 1659   6.897   7.493   1.901 -0.2161 -0.9973  0.3163
    4CHTO    N1 1660   6.713   7.473   1.993  0.3900  0.7431  0.2004
    4CHTO    H8 1661   6.771   7.501   2.080 -0.9008  1.3724  0.8712
    4CHTO    H9 1662   6.615   7.518   1.987 -0.2063 -0.5789 -0.1961
    4CHTO    C4 1663   6.757   7.596   1.776 -0.0108  0.2179  0.0646
    4CHTO   H17 1664   6.650   7.592   1.754 -0.1047 -0.9559  0.6833
    4CHTO    O1 1665   6.841   7.597   1.660  0.2481 -0.1108  0.5465
    4CHTO    C5 1666   6.816   7.484   1.576 -0.2880 -0.0843  0.2597
    4CHTO   H18 1667   6.710   7.487   1.552  0.1313  0.0788 -1.6525
    4CHTO   C16 1668   6.901   7.510   1.452  0.3439  0.5065  0.4498
    4CHTO   O11 1669   6.855   7.432   1.337  0.1756 -0.4221  0.0564
    4CHTO    H5 1670   6.844   7.489   1.263 -2.2728 -0.1877  0.5637
    4CHTO    O3 1671   6.776   7.723   1.843  0.5904 -0.3626  0.1882
    4CHTO    C6 1672   6.717   7.838   1.782  0.2096  0.2135 -0.4106
    4CHTO   H19 1673   6.693   7.826   1.677 -1.4457  2.1170 -0.2844
    4CHTO    C8 1674   6.583   7.873   1.860  0.5161  0.2034  0.0551
    4CHTO   H21 1675   6.610   7.903   1.962 -3.0097  0.1050  1.0821
    4CHTO    O7 1676   6.508   7.750   1.851  0.3246 -0.2349  0.2271
    4CHTO    H2 1677   6.423   7.770   1.885  0.1471 -1.9213  0.8493
    4CHTO   C12 1678   6.523   7.996   1.785  0.2909 -0.3323 -0.2369
    4CHTO   H25 1679   6.513   7.965   1.679  2.0424 -0.7266 -0.3008
    4CHTO    N3 1680   6.382   8.023   1.830  0.1595  0.3529  0.1218
    4CHTO   H12 1681   6.380   8.070   1.928  0.9894  2.5423 -0.8922
    4CHTO   H13 1682   6.342   8.092   1.757  0.9675  1.8335  1.0315
    4CHTO   C15 1683   6.619   8.123   1.790  0.1689  0.5609  0.5138
    4CHTO   H28 1684   6.648   8.143   1.893  0.0966  0.3727  0.5716
    4CHTO   O10 1685   6.569   8.255   1.722 -0.1382  0.4835  0.3208
    4CHTO    H4 1686   6.523   8.311   1.781 -3.3572 -2.4011  0.6821
    4CHTO    O5 1687   6.742   8.076   1.728  0.3764 -0.1298  0.3883
    4CHTO   C10 1688   6.812   7.963   1.792  0.4860 -0.1751 -0.3334
    4CHTO   H23 1689   6.833   7.978   1.898  1.4062  1.0195 -0.6663
    4CHTO   C17 1690   6.942   7.937   1.719  0.0469 -0.0569 -0.1035
    4CHTO   O12 1691   6.921   7.909   1.580 -0.4295  0.7211 -0.4608
    4CHTO    H6 1692   6.933   7.819   1.558 -1.2892  0.4176  0.2596
    5CHTO  H203 1693   6.915   3.801   4.041 -1.4887 -1.9182  0.2904
    5CHTO   O82 1694   6.961   3.772   4.118  0.7014  0.6744  0.0469
    5CHTO  C123 1695   7.009   3.875   4.205 -0.2586 -0.4153  0.3083
    5CHTO  H227 1696   7.083   3.932   4.147  0.1663 -0.1954  1.0532
    5CHTO   O77 1697   6.894   3.963   4.243 -0.0149  0.5012  0.6257
    5CHTO  C118 1698   6.941   4.071   4.324 -0.3274 -0.1293  0.1174
    5CHTO  H222 1699   7.020   4.129   4.275  1.0853 -2.1420 -0.0120
    5CHTO  C125 1700   6.820   4.165   4.358 -0.5555 -0.0798  0.8994
    5CHTO   O84 1701   6.770   4.235   4.245  0.0792 -0.5308  0.7578
    5CHTO  H205 1702   6.690   4.190   4.226  1.2127 -1.1869 -2.8896
    5CHTO  C114 1703   7.003   4.020   4.461  0.2171  0.3601 -0.3429
    5CHTO  H218 1704   6.931   3.957   4.514  0.4418 -0.0176 -0.4854
    5CHTO  C116 1705   7.123   3.926   4.436  0.2276 -0.0735  0.1230
    5CHTO  H220 1706   7.206   3.995   4.408 -0.2625  0.1872 -0.6962
    5CHTO   O79 1707   7.173   3.869   4.561 -0.0174  0.2682 -0.1122
    5CHTO  H201 1708   7.112   3.809   4.598  0.4798 -0.8518 -1.0554
    5CHTO  C120 1709   7.087   3.813   4.331  0.2607  0.0332 -0.1826
    5CHTO  H224 1710   7.016   3.740   4.376 -0.6344  1.8164  1.4140
    5CHTO   N21 1711   7.205   3.740   4.291 -0.1663  0.0998  0.7634
    5CHTO  H211 1712   7.186   3.703   4.191 -1.7091  3.6928 -0.3440
    5CHTO  H212 1713   7.294   3.801   4.295 -1.6813  2.5878 -1.3555
    5CHTO   O75 1714   7.045   4.133   4.542  0.2582  0.2620  0.2358
    5CHTO  C112 1715   6.993   4.138   4.689 -0.2310  0.4747 -0.2197
    5CHTO  H216 1716   7.002   4.037   4.732  0.1547  1.3334  1.7828
    5CHTO   O73 1717   6.863   4.185   4.684  0.3631  0.2803  0.2730
    5CHTO  C113 1718   6.789   4.188   4.808 -0.1867  0.2565  0.2419
    5CHTO  H217 1719   6.816   4.096   4.864 -0.1856 -0.0808 -0.3032
    5CHTO  C124 1720   6.643   4.208   4.766 -0.2907  0.0178 -0.5750
    5CHTO   O83 1721   6.637   4.315   4.671  0.0835 -0.3772  0.2201
    5CHTO  H204 1722   6.707   4.305   4.610 -0.4108 -0.3970 -0.3522
    5CHTO  C109 1723   6.850   4.303   4.893 -0.2496  0.2681 -0.0996
    5CHTO  H213 1724   6.847   4.394   4.832  0.1844 -0.3018 -0.9805
    5CHTO  C110 1725   7.006   4.268   4.911  0.7215  0.7449  0.1864
    5CHTO  H214 1726   7.027   4.183   4.976  1.0130 -0.9986 -2.1459
    5CHTO   O78 1727   7.059   4.375   4.981 -0.6118  0.3777 -0.0653
    5CHTO  H200 1728   7.144   4.347   5.009 -0.8663  2.1730  2.7126
    5CHTO  C111 1729   7.079   4.243   4.769  0.1637 -0.0135  0.4521
    5CHTO  H215 1730   7.069   4.339   4.716 -1.1965  0.4910  1.6105
    5CHTO   N19 1731   7.227   4.209   4.770  0.0752  0.5241 -0.2982
    5CHTO  H207 1732   7.263   4.205   4.668  0.6960 -1.0901 -0.0158
    5CHTO  H208 1733   7.250   4.122   4.830  1.8085  0.3688 -1.1638
    5CHTO   O74 1734   6.781   4.318   5.015  0.6186  0.2502  0.1866
    5CHTO  C115 1735   6.744   4.474   5.057 -0.0122 -0.3168  0.1516
    5CHTO  H219 1736   6.831   4.539   5.054 -0.5125  0.2959 -1.9178
    5CHTO   O76 1737   6.641   4.539   4.956  0.1179 -0.2425  0.7768
    5CHTO  C122 1738   6.590   4.674   4.994  0.6766  0.0329 -0.2970
    5CHTO  H226 1739   6.513   4.687   4.917  0.4565 -0.8176 -0.2243
    5CHTO  C126 1740   6.689   4.788   4.969 -0.2675 -0.0423 -0.7154
    5CHTO   O85 1741   6.757   4.763   4.845  0.0497 -0.1411  0.0123
    5CHTO  H206 1742   6.842   4.804   4.852 -0.0922  0.0275  0.7211
    5CHTO  C121 1743   6.517   4.671   5.132  0.4275  0.0324  0.7475
    5CHTO  H225 1744   6.485   4.770   5.170 -0.0674  0.5647 -0.9945
    5CHTO   O81 1745   6.407   4.583   5.130 -0.9214  0.4522 -0.4860
    5CHTO  H202 1746   6.430   4.512   5.073 -0.5273  0.2179 -0.0451
    5CHTO  C119 1747   6.628   4.620   5.233  0.4155 -0.3352 -0.0978
    5CHTO  H223 1748   6.712   4.690   5.231 -0.6963  0.9860 -1.1300
    5CHTO  C117 1749   6.689   4.479   5.205  0.3096 -0.2042  0.3018
    5CHTO  H221 1750   6.610   4.404   5.219 -0.8428  1.4114  2.7424
    5CHTO   N20 1751   6.796   4.441   5.300 -0.4845  0.0947 -0.3882
    5CHTO  H209 1752   6.859   4.362   5.262 -1.0338  1.1953 -3.7345
    5CHTO  H210 1753   6.765   4.415   5.400 -1.2191  1.0962 -0.3507
    5CHTO   O80 1754   6.571   4.644   5.392 -0.2709 -0.7923 -0.3302
    5CHTO  C103 1755   6.413   4.610   5.439 -0.1606 -0.1382  0.0851
    5CHTO  H190 1756   6.335   4.629   5.365 -0.7546  1.5147  1.1025
    5CHTO  C101 1757   6.390   4.462   5.504 -0.0124 -0.5272 -0.4129
    5CHTO  H188 1758   6.456   4.442   5.589 -0.6538 -0.6860  0.0527
    5CHTO   O68 1759   6.409   4.371   5.393 -0.2783  0.0887 -0.3689
    5CHTO  H168 1760   6.364   4.401   5.316 -1.9262  0.8002  0.8537
    5CHTO   C99 1761   6.245   4.459   5.564 -0.4695 -0.0946 -0.8210
    5CHTO  H186 1762   6.172   4.491   5.486  0.5406  1.9191 -0.9746
    5CHTO   N17 1763   6.200   4.327   5.612 -0.2523 -0.1088 -0.1908
    5CHTO  H174 1764   6.096   4.339   5.640 -0.4068  0.5229 -1.0179
    5CHTO  H175 1765   6.265   4.297   5.693  1.4398 -1.6554 -2.0630
    5CHTO   C97 1766   6.233   4.568   5.675  0.7054  0.1567 -0.6650
    5CHTO  H184 1767   6.307   4.544   5.753 -1.3181  2.9938  2.2460
    5CHTO   O64 1768   6.258   4.700   5.615  0.4290 -0.7204  0.2328
    5CHTO  C104 1769   6.389   4.719   5.551  0.0107 -0.0369 -0.2669
    5CHTO  H191 1770   6.472   4.715   5.621 -0.4030 -0.3405  0.2113
    5CHTO  C108 1771   6.401   4.859   5.491 -1.1777 -0.7325 -0.1263
    5CHTO   O71 1772   6.372   4.971   5.583 -0.2624 -0.1789  0.2926
    5CHTO  H171 1773   6.279   4.970   5.589 -0.2902 -0.5396 -0.1841
    5CHTO   O62 1774   6.100   4.570   5.737 -0.1013 -0.1694  0.2475
    5CHTO   C91 1775   5.987   4.643   5.682  0.7764  0.1979  0.1611
    5CHTO  H178 1776   6.028   4.739   5.650  2.1817  0.0521  1.4366
    5CHTO   C92 1777   5.895   4.676   5.806 -0.2232  1.0394  0.2343
    5CHTO  H179 1778   5.954   4.727   5.883 -1.0052  2.7422 -0.2767
    5CHTO   O66 1779   5.796   4.770   5.763 -0.2222  0.2050  0.0111
    5CHTO  H166 1780   5.764   4.756   5.676  0.7088  0.6820 -0.4191
    5CHTO   C93 1781   5.825   4.540   5.859 -0.2165  0.6640 -0.3206
    5CHTO  H180 1782   5.732   4.581   5.901  0.0720  1.0193 -0.0270
    5CHTO   N16 1783   5.899   4.476   5.970 -0.4932 -0.2191 -0.0454
    5CHTO  H172 1784   5.845   4.404   6.029 -0.8419  0.9515  1.0655
    5CHTO  H173 1785   5.961   4.548   6.020 -2.7584  2.0215 -0.3879
    5CHTO   C94 1786   5.801   4.441   5.737  0.1448  0.8896 -0.3438
    5CHTO  H181 1787   5.880   4.367   5.724 -0.4820 -0.3417  2.3000
    5CHTO   O61 1788   5.784   4.509   5.615  0.0967 -0.3485 -0.1848
    5CHTO   C95 1789   5.907   4.566   5.568 -0.1583 -0.1499 -0.4713
    5CHTO  H182 1790   5.961   4.485   5.518  0.0282  0.7534 -1.7345
    5CHTO  C106 1791   5.881   4.659   5.449 -0.4761 -0.7088  0.7612
    5CHTO   O69 1792   5.997   4.710   5.380 -0.3002  0.4561  0.0105
    5CHTO  H169 1793   6.022   4.654   5.309 -0.0713  1.0225 -0.3648
    5CHTO   O63 1794   5.673   4.371   5.770  0.0304  0.6073  1.0107
    5CHTO   C96 1795   5.678   4.230   5.680  0.2275  0.0698  0.7864
    5CHTO  H183 1796   5.730   4.257   5.589 -1.2146  1.5979  0.3877
    5CHTO   C98 1797   5.544   4.171   5.632  0.1261  0.3536 -0.7345
    5CHTO  H185 1798   5.483   4.254   5.593  0.5983  0.5745 -1.0033
    5CHTO   O67 1799   5.555   4.084   5.519  0.2712 -0.2138  0.4307
    5CHTO  H167 1800   5.574   4.147   5.453  0.2625 -0.0420  0.5921
    5CHTO  C102 1801   5.475   4.099   5.752  0.6098 -0.4284  0.6271
    5CHTO  H189 1802   5.383   4.057   5.709  0.3824  1.3799 -0.7273
    5CHTO   N18 1803   5.428   4.176   5.866  0.0665 -0.1547 -0.0385
    5CHTO  H176 1804   5.385   4.106   5.936  2.2573 -1.0538  0.4425
    5CHTO  H177 1805   5.485   4.255   5.912 -0.1391 -0.4386  0.7108
    5CHTO  C105 1806   5.568   3.985   5.802 -0.3732 -0.5013  0.6369
    5CHTO  H192 1807   5.550   3.958   5.906 -0.3105  0.7176  0.9719
    5CHTO   O65 1808   5.706   4.016   5.818 -0.3880 -0.2193  0.7603
    5CHTO  C100 1809   5.772   4.115   5.738 -0.8366  0.8827  0.0411
    5CHTO  H187 1810   5.843   4.156   5.812  0.0499 -1.9033  0.8224
    5CHTO  C107 1811   5.851   4.037   5.632 -0.0730 -0.4849  0.2755
    5CHTO   O70 1812   5.938   4.117   5.565 -0.2304 -0.0510  0.3743
    5CHTO  H170 1813   5.986   4.078   5.495  0.3051 -0.2196  0.8247
    5CHTO   O57 1814   5.541   3.866   5.713 -0.5268 -0.0672 -0.5192
    5CHTO   C85 1815   5.575   3.731   5.737 -0.2273 -0.1119  0.6076
    5CHTO  H157 1816   5.567   3.727   5.848 -1.5922  1.9939  0.6151
    5CHTO   C83 1817   5.716   3.689   5.693 -0.4451  0.2743 -0.5208
    5CHTO  H155 1818   5.774   3.755   5.758 -0.9915 -0.2740  0.5191
    5CHTO   O56 1819   5.727   3.720   5.555  0.1561  0.0568  0.3030
    5CHTO  H135 1820   5.668   3.663   5.509  0.5708 -0.0529 -0.0958
    5CHTO   C81 1821   5.746   3.541   5.725 -0.3080  0.1107 -0.4064
    5CHTO  H153 1822   5.729   3.530   5.833 -1.3140 -0.1521 -0.5873
    5CHTO   N14 1823   5.888   3.502   5.700 -0.3678  0.0792 -0.1120
    5CHTO  H141 1824   5.896   3.420   5.632  1.7484  0.0111  0.1952
    5CHTO  H142 1825   5.951   3.478   5.784 -0.3685 -3.9909 -1.1607
    5CHTO   C79 1826   5.647   3.448   5.642  0.5947 -0.1408  0.0248
    5CHTO  H151 1827   5.661   3.343   5.669 -0.9168 -0.1631  0.7399
    5CHTO   O52 1828   5.509   3.483   5.675 -0.3071 -0.1238  0.2952
    5CHTO   C86 1829   5.476   3.629   5.664  0.0986 -0.2305 -0.0759
    5CHTO  H158 1830   5.484   3.647   5.555  0.3923  0.4758  0.0587
    5CHTO   C90 1831   5.324   3.650   5.697  0.3047  0.0774  0.8688
    5CHTO   O60 1832   5.283   3.617   5.827  0.3968  0.4433 -0.7627
    5CHTO  H138 1833   5.338   3.663   5.888 -0.3998  1.2005 -0.5973
    5CHTO   O50 1834   5.673   3.456   5.502  0.0200  0.0775 -0.3467
    5CHTO   C73 1835   5.650   3.397   5.368 -0.5210 -0.4791 -0.0012
    5CHTO  H145 1836   5.541   3.380   5.359 -0.7634  1.0815 -0.1303
    5CHTO   C74 1837   5.729   3.253   5.350  0.4051 -0.4738  0.2096
    5CHTO  H146 1838   5.704   3.183   5.432  0.9150 -0.9931 -0.0777
    5CHTO   O54 1839   5.665   3.188   5.238  1.4312 -0.3896  0.6660
    5CHTO  H133 1840   5.689   3.223   5.154  0.2278  0.1317  0.5187
    5CHTO   C75 1841   5.884   3.285   5.344 -0.1686  0.1049 -0.5512
    5CHTO  H147 1842   5.913   3.325   5.443  0.0185  0.8347 -0.8912
    5CHTO   N13 1843   5.975   3.172   5.334 -1.1161  0.1502  0.2948
    5CHTO  H139 1844   6.077   3.200   5.309 -0.6373 -2.2585 -0.5499
    5CHTO  H140 1845   5.970   3.101   5.415 -1.6891  0.4162  0.4927
    5CHTO   C76 1846   5.912   3.400   5.235 -0.7156 -0.2606 -0.0480
    5CHTO  H148 1847   5.909   3.348   5.139 -0.0099  0.3177 -0.3850
    5CHTO   O49 1848   5.824   3.517   5.246 -0.4871 -0.3853  0.3259
    5CHTO   C77 1849   5.685   3.487   5.246  0.1437  0.3627 -0.0177
    5CHTO  H149 1850   5.658   3.437   5.153 -1.6981 -1.7921  1.6039
    5CHTO   C88 1851   5.611   3.620   5.235 -0.0848 -0.2900 -0.0207
    5CHTO   O58 1852   5.466   3.609   5.210  0.6562 -0.0783 -0.4111
    5CHTO  H136 1853   5.426   3.692   5.192  1.2921  0.8818  2.3763
    5CHTO   O51 1854   6.065   3.449   5.270 -0.8038 -0.2360  0.3153
    5CHTO   C78 1855   6.119   3.570   5.164  0.1618  0.0243  0.0901
    5CHTO  H150 1856   6.031   3.606   5.105  0.9247  0.9265 -0.5088
    5CHTO   C80 1857   6.217   3.514   5.058 -0.2332  0.4645 -0.1519
    5CHTO  H152 1858   6.288   3.443   5.105 -2.1679 -1.4467 -0.0061
    5CHTO   O55 1859   6.133   3.437   4.967 -0.5914 -0.4020  0.4983
    5CHTO  H134 1860   6.180   3.398   4.896 -0.1775  0.9693  0.0250
    5CHTO   C84 1861   6.296   3.625   4.986  0.8267 -0.5373  0.4093
    5CHTO  H156 1862   6.225   3.678   4.923 -0.3639 -2.2337  0.2651
    5CHTO   N15 1863   6.405   3.578   4.897  0.7175  0.2740  0.4834
    5CHTO  H143 1864   6.356   3.500   4.843  2.3754 -0.3986 -0.0865
    5CHTO  H144 1865   6.481   3.529   4.954  0.4708 -1.3134 -0.5144
    5CHTO   C87 1866   6.360   3.715   5.095  0.3290 -0.3571  0.1552
    5CHTO  H159 1867   6.430   3.655   5.154 -0.3063 -0.7813  0.4791
    5CHTO   O53 1868   6.254   3.771   5.161  0.7776  0.3553  0.0778
    5CHTO   C82 1869   6.181   3.683   5.246 -0.1439  0.0280  0.6629
    5CHTO  H154 1870   6.259   3.660   5.318  0.1665 -0.2728  0.2310
    5CHTO   C89 1871   6.067   3.757   5.329  0.0983  0.1471  0.3344
    5CHTO   O59 1872   6.024   3.674   5.433  0.2858 -0.3339 -1.0978
    5CHTO  H137 1873   5.984   3.732   5.495 -0.9463 -0.7922 -1.4321
    5CHTO   O45 1874   6.439   3.833   5.031 -0.0927 -0.3094 -0.3731
    5CHTO   C67 1875   6.525   3.898   5.123 -0.1933 -0.3860 -0.0615
    5CHTO  H124 1876   6.479   3.906   5.221  1.3992  1.1909  0.5818
    5CHTO   C65 1877   6.668   3.842   5.133 -0.3572  0.3799 -0.4296
    5CHTO  H122 1878   6.682   3.797   5.034 -3.4121  1.7921 -1.5776
    5CHTO   O44 1879   6.659   3.739   5.234 -0.5629  0.3066  0.0292
    5CHTO  H102 1880   6.644   3.779   5.317  0.0435  1.2415 -0.3000
    5CHTO   C63 1881   6.781   3.956   5.155 -0.5222 -0.4417 -0.2643
    5CHTO  H120 1882   6.797   4.006   5.061 -1.1856 -0.8396 -0.5987
    5CHTO   N11 1883   6.919   3.904   5.192  0.2741  0.1677 -0.2535
    5CHTO  H108 1884   6.910   3.800   5.213 -0.2429  0.4332  0.9020
    5CHTO  H109 1885   6.959   3.946   5.282 -0.7695  1.3612 -0.3264
    5CHTO   C61 1886   6.724   4.076   5.242  0.4907 -0.4021  0.3899
    5CHTO  H118 1887   6.792   4.163   5.239  0.1653 -0.1487  0.4157
    5CHTO   O40 1888   6.596   4.127   5.186  0.0526  0.7293  0.3860
    5CHTO   C68 1889   6.531   4.055   5.078  0.1741 -0.1048 -0.6381
    5CHTO  H125 1890   6.577   4.066   4.978 -0.2130  0.0635 -0.7995
    5CHTO   C72 1891   6.386   4.109   5.068  1.3470  0.2912 -0.0642
    5CHTO   O48 1892   6.334   4.148   5.191  0.2991 -0.2206 -0.2674
    5CHTO  H105 1893   6.354   4.239   5.197 -1.0504  0.1291 -1.0576
    5CHTO   O38 1894   6.709   4.032   5.381  0.8310 -0.2739  0.2802
    5CHTO   C55 1895   6.677   4.126   5.484 -0.0605 -0.1967 -0.3441
    5CHTO  H112 1896   6.636   4.220   5.445 -0.7897 -0.0200  0.8552
    5CHTO   C56 1897   6.813   4.152   5.574  0.8505  0.4715 -0.2342
    5CHTO  H113 1898   6.853   4.053   5.600 -0.1856  0.3265  0.8260
    5CHTO   O42 1899   6.906   4.223   5.489 -0.0726  0.2699  0.5917
    5CHTO  H100 1900   6.982   4.228   5.543 -0.3730  1.1619  0.9217
    5CHTO   C57 1901   6.774   4.237   5.703 -0.0846  1.0477  0.4889
    5CHTO  H114 1902   6.749   4.333   5.657 -1.5818  1.1336  1.4535
    5CHTO   N10 1903   6.889   4.253   5.798 -0.0038  0.7219 -0.4650
    5CHTO  H106 1904   6.906   4.159   5.850  2.2471  0.7479 -1.1073
    5CHTO  H107 1905   6.975   4.276   5.738 -0.6841 -0.3279 -1.8780
    5CHTO   C58 1906   6.648   4.173   5.774  0.4555  0.3876 -0.3426
    5CHTO  H115 1907   6.678   4.077   5.821  1.8049  1.6530  1.4222
    5CHTO   O37 1908   6.539   4.162   5.679 -0.3266 -0.4128  0.1042
    5CHTO   C59 1909   6.573   4.069   5.581 -0.1548 -0.4712  0.1541
    5CHTO  H116 1910   6.597   3.975   5.631 -1.6928  1.0028  3.8297
    5CHTO   C70 1911   6.445   4.055   5.500 -0.3356 -0.1157  0.0381
    5CHTO   O46 1912   6.412   3.914   5.479 -0.4514 -0.0905  0.2827
    5CHTO  H103 1913   6.345   3.902   5.414 -0.1333  2.5852 -0.6140
    5CHTO   O39 1914   6.586   4.263   5.890  0.2475 -0.2327 -0.5790
    5CHTO   C60 1915   6.514   4.195   5.992 -0.0433  0.2680  0.4279
    5CHTO  H117 1916   6.446   4.126   5.943  2.1057 -0.5361 -1.4865
    5CHTO   C62 1917   6.606   4.119   6.092 -0.1373  0.5455  0.6391
    5CHTO  H119 1918   6.676   4.051   6.039  0.1272 -1.0104  2.8960
    5CHTO   O43 1919   6.692   4.212   6.156 -0.3600 -0.3488 -0.0044
    5CHTO  H101 1920   6.754   4.178   6.219 -0.3270 -0.1724  0.0559
    5CHTO   C66 1921   6.514   4.030   6.180  0.2367 -0.8612 -0.1079
    5CHTO  H123 1922   6.441   3.980   6.117 -0.2702 -0.1780 -0.0699
    5CHTO   N12 1923   6.579   3.912   6.254 -0.0875  0.1728  0.5304
    5CHTO  H110 1924   6.506   3.835   6.275  1.1485 -0.9552  0.7314
    5CHTO  H111 1925   6.632   3.954   6.338  0.9862  0.6053 -0.3530
    5CHTO   C69 1926   6.440   4.135   6.271 -0.0778 -0.4024  0.3152
    5CHTO  H126 1927   6.509   4.185   6.342 -0.3279  0.1252  0.1887
    5CHTO   O41 1928   6.367   4.235   6.192 -0.2368  0.5151  0.4307
    5CHTO   C64 1929   6.433   4.297   6.071  0.0914 -0.9064  0.0567
    5CHTO  H121 1930   6.506   4.370   6.111  1.0253 -0.5480 -2.2415
    5CHTO   C71 1931   6.329   4.373   5.986  0.1057 -0.7490  0.3221
    5CHTO   O47 1932   6.214   4.296   5.961  1.1070  0.1688 -0.1785
    5CHTO  H104 1933   6.149   4.351   5.920 -0.1999 -0.3348  1.1620
    5CHTO   O34 1934   6.343   4.066   6.362  0.3309 -0.5208  0.2596
    5CHTO   C49 1935   6.321   4.151   6.503  0.6808 -0.0045  0.7906
    5CHTO   H91 1936   6.415   4.168   6.555  1.0030  1.5381 -0.2799
    5CHTO   C47 1937   6.234   4.060   6.588 -0.3360 -1.0036 -0.0073
    5CHTO   H89 1938   6.234   4.119   6.682  1.8490  1.7461 -1.6567
    5CHTO   O33 1939   6.298   3.938   6.616  0.0644 -0.1762  0.3761
    5CHTO   H70 1940   6.236   3.881   6.657  0.4933 -0.1337  1.0904
    5CHTO   C45 1941   6.083   4.047   6.529  0.1969  0.0384  0.7111
    5CHTO   H87 1942   6.103   4.012   6.426  3.1864  0.3635  1.1401
    5CHTO    N8 1943   6.003   3.943   6.601  0.4132  0.2274 -0.2122
    5CHTO   H75 1944   5.991   3.970   6.705 -0.7871 -0.1050 -0.2601
    5CHTO   H76 1945   5.906   3.927   6.556  0.1639  1.2850 -0.0624
    5CHTO   C43 1946   6.011   4.186   6.517 -0.7032 -0.4109 -0.0566
    5CHTO   H85 1947   5.921   4.174   6.456  0.0993 -3.6261 -0.6888
    5CHTO   O29 1948   6.106   4.272   6.449 -0.0215  0.5362 -0.0959
    5CHTO   C50 1949   6.246   4.285   6.481  0.1802  0.2223 -0.7355
    5CHTO   H92 1950   6.303   4.345   6.408 -0.0406  0.9234 -0.3324
    5CHTO   C54 1951   6.261   4.387   6.605  0.2406  1.0045 -0.2908
    5CHTO   O36 1952   6.181   4.507   6.584  0.0126 -0.1175  0.4763
    5CHTO   H72 1953   6.210   4.570   6.647 -1.0593  0.8235  0.0408
    5CHTO   O27 1954   5.947   4.245   6.631  0.0772  0.1599 -0.5995
    5CHTO   C37 1955   5.857   4.280   6.740 -0.1132  0.3022 -0.0860
    5CHTO   H79 1956   5.903   4.362   6.797  1.3999  0.1201 -1.0195
    5CHTO   C38 1957   5.722   4.332   6.680  0.0455  0.2965 -0.4249
    5CHTO   H80 1958   5.676   4.267   6.605  1.0672  0.0989 -0.8805
    5CHTO   O31 1959   5.750   4.459   6.623  0.2397  0.0817  0.7373
    5CHTO   H68 1960   5.677   4.505   6.585  2.6704  3.4824 -0.0653
    5CHTO   C39 1961   5.614   4.350   6.792  0.0065  0.6139 -0.0208
    5CHTO   H81 1962   5.648   4.426   6.862 -0.6928 -0.3651  1.4031
    5CHTO    N7 1963   5.478   4.388   6.732 -0.3365  0.6373 -0.4626
    5CHTO   H73 1964   5.462   4.491   6.760 -0.5993  0.6973 -0.8452
    5CHTO   H74 1965   5.397   4.338   6.783  0.3151  2.0166  2.0073
    5CHTO   C40 1966   5.602   4.216   6.876 -0.2306  0.2482  0.2966
    5CHTO   H82 1967   5.560   4.137   6.814  0.6093 -1.0096  1.2902
    5CHTO   O26 1968   5.733   4.175   6.927 -0.0530 -0.2767 -0.4162
    5CHTO   C41 1969   5.842   4.165   6.831 -0.1803 -0.0248  0.1178
    5CHTO   H83 1970   5.827   4.075   6.769 -0.2508  0.2305 -0.2392
    5CHTO   C52 1971   5.956   4.132   6.926  0.1618 -0.2304  0.0147
    5CHTO   O35 1972   5.952   4.006   7.017  0.0265 -0.0491  0.3829
    5CHTO   H71 1973   5.881   4.033   7.071  0.1387  1.5834 -0.2610
    5CHTO   O28 1974   5.516   4.247   6.990  0.4446  0.6815  0.0437
    5CHTO   C42 1975   5.549   4.231   7.133  0.2170 -0.3345  0.4804
    5CHTO   H84 1976   5.456   4.240   7.190  0.6173 -1.2124  1.2664
    5CHTO   C44 1977   5.642   4.346   7.189 -0.8639 -0.5303  0.5469
    5CHTO   H86 1978   5.736   4.348   7.133  0.6323  1.5351  3.0078
    5CHTO   O32 1979   5.568   4.470   7.165 -0.1327 -0.1024 -0.2009
    5CHTO   H69 1980   5.619   4.548   7.175  0.5807 -0.6582  0.5836
    5CHTO   C48 1981   5.687   4.320   7.340  0.0291 -0.1923  0.9441
    5CHTO   H90 1982   5.596   4.308   7.399 -1.7677  2.2004 -1.2199
    5CHTO    N9 1983   5.767   4.424   7.411 -0.2004 -0.5259 -0.5029
    5CHTO   H77 1984   5.863   4.442   7.365  0.6518 -0.5248  1.2386
    5CHTO   H78 1985   5.781   4.407   7.516 -2.0143  2.9391  0.3581
    5CHTO   C51 1986   5.765   4.190   7.328 -0.3849 -0.0575 -0.4570
    5CHTO   H93 1987   5.838   4.188   7.247 -0.6825  0.9144 -0.7514
    5CHTO   O30 1988   5.662   4.092   7.311  0.2254  0.2667 -0.6700
    5CHTO   C46 1989   5.609   4.093   7.178  0.8006 -0.0635 -0.1449
    5CHTO   H88 1990   5.689   4.064   7.109  2.1043 -0.4513  1.5052
    5CHTO   C53 1991   5.490   3.988   7.160 -0.1788  0.1511  0.1740
    5CHTO   O72 1992   5.515   3.851   7.203  0.5720  0.3152  0.2984
    5CHTO  H199 1993   5.534   3.848   7.295  0.7394 -1.6128  0.2310
    5CHTO   O22 1994   5.824   4.138   7.453 -0.2440  0.3256  0.8570
    5CHTO   C31 1995   5.959   4.064   7.447 -0.5426 -0.4833 -0.5004
    5CHTO   H59 1996   5.970   4.020   7.548  0.7411  1.1059  0.0735
    5CHTO   C29 1997   5.950   3.946   7.352  0.1429 -0.1156 -0.5584
    5CHTO   H57 1998   5.914   3.985   7.256  0.6557  0.7455 -0.4109
    5CHTO   O21 1999   5.860   3.860   7.414  0.2748 -0.3624  0.0449
    5CHTO   H37 2000   5.901   3.817   7.486  2.1496 -0.8552 -1.2802
    5CHTO   C27 2001   6.091   3.880   7.330  0.7124 -0.4570 -0.4393
    5CHTO   H55 2002   6.130   3.841   7.425 -1.8140  0.5327  1.0346
    5CHTO    N5 2003   6.089   3.770   7.234 -0.2113  0.0860 -0.0284
    5CHTO   H43 2004   6.184   3.718   7.232  1.1270  2.4828 -1.6232
    5CHTO   H44 2005   6.037   3.797   7.144 -0.5481 -0.7719 -0.0886
    5CHTO   C25 2006   6.193   3.991   7.297 -0.0715 -0.9218 -0.7125
    5CHTO   H53 2007   6.165   4.061   7.216  1.3449 -2.0889 -2.2462
    5CHTO   O17 2008   6.200   4.084   7.405 -0.5893  0.0277  0.2939
    5CHTO   C32 2009   6.086   4.163   7.436 -0.5477 -0.6562 -0.1482
    5CHTO   H60 2010   6.070   4.220   7.345 -0.5291  3.5114  2.3231
    5CHTO   C36 2011   6.109   4.251   7.566 -0.5671  0.0352 -0.0961
    5CHTO   O25 2012   5.998   4.335   7.593 -0.5102  0.4228 -0.5687
    5CHTO   H40 2013   5.926   4.277   7.574 -0.2847  0.0017 -0.1450
    5CHTO   O15 2014   6.347   3.932   7.267  0.8939  0.4481  0.4295
    5CHTO   C19 2015   6.446   4.027   7.211  0.8805 -0.7096 -0.0273
    5CHTO   H47 2016   6.405   4.128   7.223  2.0675 -0.3165  0.8829
    5CHTO   C20 2017   6.578   4.039   7.299 -0.3354 -0.5604 -0.3650
    5CHTO   H48 2018   6.617   3.939   7.323  1.6729  0.1807 -0.4653
    5CHTO   O19 2019   6.552   4.117   7.420  0.0372 -0.2712 -0.7180
    5CHTO   H35 2020   6.625   4.113   7.479  0.1777  0.5016 -0.8345
    5CHTO   C21 2021   6.702   4.104   7.236 -0.1626  0.0377 -0.0998
    5CHTO   H49 2022   6.699   4.211   7.253 -0.5195 -0.1243  0.8986
    5CHTO    N4 2023   6.832   4.072   7.295  0.9340  0.0025  0.5888
    5CHTO   H41 2024   6.832   3.964   7.299 -2.7340 -0.0175  2.1233
    5CHTO   H42 2025   6.914   4.104   7.233 -0.3439 -0.7714 -1.5726
    5CHTO   C22 2026   6.703   4.080   7.082 -0.0574  0.5445 -0.0883
    5CHTO   H50 2027   6.743   3.981   7.064  1.9409  0.5762  3.7595
    5CHTO   O14 2028   6.578   4.101   7.014  0.4522 -0.6916  0.1731
    5CHTO   C23 2029   6.480   4.006   7.060 -0.1609  0.3889 -0.3542
    5CHTO   H51 2030   6.517   3.905   7.037  2.1467  1.9281 -3.8870
    5CHTO   C34 2031   6.354   4.026   6.975  0.0148  0.8853 -0.1293
    5CHTO   O23 2032   6.270   3.912   6.975  0.5355  0.2746 -0.3569
    5CHTO   H38 2033   6.181   3.942   6.971  1.3997  2.7217 -2.4428
    5CHTO   O16 2034   6.783   4.179   7.009 -0.3979 -0.3559 -0.0957
    5CHTO   C24 2035   6.856   4.129   6.884  0.0793  0.1602  0.3744
    5CHTO   H52 2036   6.804   4.044   6.841 -0.5187  0.7454 -0.0805
    5CHTO   C26 2037   7.004   4.098   6.905  0.7438 -0.2039  0.1986
    5CHTO   H54 2038   7.052   4.189   6.945 -1.6144  1.3443 -0.4360
    5CHTO   O20 2039   6.995   3.989   7.002 -0.1833  0.1926  0.4951
    5CHTO   H36 2040   7.046   3.919   6.968 -3.4835 -2.0666 -0.0857
    5CHTO   C30 2041   7.073   4.063   6.768 -0.6487  1.1450  0.2774
    5CHTO   H58 2042   7.022   3.982   6.713  0.7196  2.6311 -3.2812
    5CHTO    N6 2043   7.211   4.018   6.795  0.1822  0.2748 -0.4651
    5CHTO   H45 2044   7.257   3.958   6.718  1.2119 -0.4852  0.7281
    5CHTO   H46 2045   7.273   4.104   6.816  0.1990  0.0857  0.2663
    5CHTO   C33 2046   7.063   4.187   6.671  0.3565 -0.2555  0.3969
    5CHTO   H61 2047   7.108   4.277   6.713  0.2634  0.6535 -1.4154
    5CHTO   O18 2048   6.919   4.203   6.656  0.0439 -0.2566  0.0185
    5CHTO   C28 2049   6.848   4.241   6.777  0.3791 -0.5208  0.2443
    5CHTO   H56 2050   6.879   4.339   6.813  0.9608  0.2595 -2.2884
    5CHTO   C35 2051   6.700   4.274   6.736 -0.5931  0.9936 -0.7422
    5CHTO   O24 2052   6.659   4.156   6.660 -0.6501  0.2528  0.6193
    5CHTO   H39 2053   6.664   4.077   6.711  0.3486 -1.5790 -2.2112
    5CHTO    O9 2054   7.129   4.175   6.545  0.1369 -0.1512  0.1616
    5CHTO   C13 2055   7.060   4.069   6.446  0.2949 -0.2496  0.0036
    5CHTO   H26 2056   6.976   4.020   6.499  0.4346 -1.4186 -0.8363
    5CHTO   C11 2057   7.174   3.963   6.403  0.2820 -0.3550  0.4794
    5CHTO   H24 2058   7.212   3.908   6.490  0.8141 -0.8419 -0.0518
    5CHTO    O8 2059   7.294   4.024   6.346  0.1345 -0.5498  0.1030
    5CHTO    H3 2060   7.271   4.062   6.264  2.4383 -0.0039 -0.3392
    5CHTO    C9 2061   7.115   3.861   6.305 -0.0927  0.0302  0.6243
    5CHTO   H22 2062   7.025   3.825   6.356 -1.7479  2.2429 -0.6498
    5CHTO    N2 2063   7.195   3.743   6.281  0.7071  0.0107 -0.1634
    5CHTO   H10 2064   7.206   3.733   6.174 -1.8084  0.9515 -0.5620
    5CHTO   H11 2065   7.293   3.742   6.325  0.3142 -3.4298  0.8088
    5CHTO    C7 2066   7.050   3.940   6.182  0.0059 -0.5904 -0.3486
    5CHTO   H20 2067   6.973   3.873   6.139 -0.4058 -0.7280  0.5965
    5CHTO    O4 2068   6.992   4.069   6.206 -0.4069  0.0587 -0.0992
    5CHTO   C14 2069   6.999   4.145   6.326 -0.2573 -0.2127 -0.6338
    5CHTO   H27 2070   6.891   4.166   6.341 -0.1929  0.6760 -1.3989
    5CHTO   C18 2071   7.069   4.281   6.299  0.3300 -0.0522  0.3673
    5CHTO   O13 2072   7.046   4.377   6.405  0.2201 -0.0309 -0.1354
    5CHTO    H7 2073   7.062   4.345   6.491 -1.3991 -4.0166 -1.1966
    5CHTO    O2 2074   7.178   3.955   6.063 -0.2417  1.0041 -0.2269
    5CHTO    C1 2075   7.136   3.985   5.931  0.5382  0.1386 -0.4763
    5CHTO   H14 2076   7.038   4.035   5.939 -0.1179 -1.2539  0.3640
    5CHTO    C2 2077   7.122   3.860   5.836  0.0393  0.2817 -0.5189
    5CHTO   H15 2078   7.211   3.799   5.854  0.4983  1.3366  0.8681
    5CHTO    O6 2079   7.008   3.790   5.887  0.5681  0.1628  0.1289
    5CHTO    H1 2080   7.007   3.703   5.854 -2.8780 -0.4064  1.5294
    5CHTO    C3 2081   7.100   3.894   5.677 -0.0353  0.6561 -0.0959
    5CHTO   H16 2082   6.997   3.923   5.650 -1.3706 -4.8638 -1.5042
    5CHTO    N1 2083   7.136   3.773   5.594 -0.6583 -0.0842 -0.1802
    5CHTO    H8 2084   7.144   3.797   5.490  2.7052  0.0060  0.0736
    5CHTO    H9 2085   7.226   3.723   5.626 -0.1144  0.6192 -0.6078
    5CHTO    C4 2086   7.194   4.019   5.635  0.3445  0.1546 -0.8351
    5CHTO   H17 2087   7.298   3.986   5.629 -0.1621 -1.6441  0.0947
    5CHTO    O1 2088   7.193   4.124   5.736 -0.5200  0.2789 -0.2616
    5CHTO    C5 2089   7.240   4.075   5.862  0.0290 -0.3226 -0.2649
    5CHTO   H18 2090   7.334   4.021   5.848 -0.4667 -1.6492  1.4541
    5CHTO   C16 2091   7.263   4.191   5.950 -0.1879 -0.0487  0.3366
    5CHTO   O11 2092   7.376   4.275   5.923 -0.0963  0.2856  0.0253
    5CHTO    H5 2093   7.384   4.340   5.989  0.1694 -0.2090  0.4844
    5CHTO    O3 2094   7.141   4.092   5.518 -0.4265 -0.3907  0.1786
    5CHTO    C6 2095   7.249   4.150   5.434  0.1907  0.3624 -0.6309
    5CHTO   H19 2096   7.338   4.162   5.495  0.9025  1.2263 -1.8218
    5CHTO    C8 2097   7.281   4.056   5.316 -0.3023 -0.7326 -1.0579
    5CHTO   H21 2098   7.190   4.041   5.260 -1.2895 -1.4302  0.6875
    5CHTO    O7 2099   7.327   3.926   5.375 -0.0009  0.5237  0.2961
    5CHTO    H2 2100   7.301   3.857   5.317 -2.7607 -0.5177  2.6528
    5CHTO   C12 2101   7.381   4.125   5.212 -0.6835 -0.6748  0.3759
    5CHTO   H25 2102   7.483   4.124   5.255 -1.3975  0.7241  2.1327
    5CHTO    N3 2103   7.402   4.049   5.090 -0.1577 -0.0980 -0.0884
    5CHTO   H12 2104   7.396   4.110   5.001  0.7139  0.0326 -0.0583
    5CHTO   H13 2105   7.500   4.003   5.094 -0.3702 -0.8100 -2.4136
    5CHTO   C15 2106   7.343   4.281   5.190  0.6902 -0.2923  0.4805
    5CHTO   H28 2107   7.257   4.289   5.124  1.7656 -1.8930 -1.1793
    5CHTO   O10 2108   7.457   4.364   5.116 -0.3356 -0.1809  0.1091
    5CHTO    H4 2109   7.463   4.338   5.026  0.7394 -1.7359  0.5978
    5CHTO    O5 2110   7.320   4.347   5.313  0.0903  0.0357 -0.0701
    5CHTO   C10 2111   7.215   4.291   5.390 -0.3039  0.6041 -0.5816
    5CHTO   H23 2112   7.124   4.319   5.336  0.2200  2.5488 -0.5168
    5CHTO   C17 2113   7.210   4.365   5.521  0.1214  0.1466  0.7366
    5CHTO   O12 2114   7.209   4.511   5.520  0.2027 -0.7815  0.1278
    5CHTO    H6 2115   7.183   4.542   5.604  0.9797 -0.3572  0.2105
    6CHTO  H203 2116   6.168   6.050   2.290 -0.5891  0.2927 -0.8799
    6CHTO   O82 2117   6.189   6.118   2.352 -0.2301 -0.1781 -0.4834
    6CHTO  C123 2118   6.156   6.066   2.480  0.2893  0.1381  0.1107
    6CHTO  H227 2119   6.189   6.139   2.555  0.6746 -0.7530  0.8143
    6CHTO   O77 2120   6.008   6.066   2.466 -0.4951  0.3245  0.1444
    6CHTO  C118 2121   5.949   6.035   2.591  0.1246 -0.6682 -0.5828
    6CHTO  H222 2122   5.992   6.099   2.670  0.8472  0.4928 -1.8953
    6CHTO  C125 2123   5.796   6.058   2.602 -0.0826  0.8935  0.5682
    6CHTO   O84 2124   5.759   6.185   2.637 -0.6389 -0.2772 -0.1700
    6CHTO  H205 2125   5.672   6.200   2.669 -1.3720  1.9426 -2.9807
    6CHTO  C114 2126   5.978   5.886   2.622 -0.5082  0.5027 -0.1907
    6CHTO  H218 2127   5.933   5.828   2.542  0.8653 -1.3213  0.3113
    6CHTO  C116 2128   6.132   5.857   2.625 -0.8398  0.5341 -0.0756
    6CHTO  H220 2129   6.170   5.890   2.724  0.2245  0.9159 -0.6089
    6CHTO   O79 2130   6.163   5.712   2.619 -0.7520 -0.0701  0.7787
    6CHTO  H201 2131   6.150   5.693   2.528  0.2592 -1.3132  0.8814
    6CHTO  C120 2132   6.217   5.925   2.509  0.6803 -0.5380  0.7504
    6CHTO  H224 2133   6.198   5.850   2.429 -0.8720 -0.0845  0.6777
    6CHTO   N21 2134   6.362   5.924   2.539  0.1380 -0.1874 -0.2654
    6CHTO  H211 2135   6.386   6.001   2.611  0.2329  0.0098 -0.5054
    6CHTO  H212 2136   6.401   5.828   2.569  1.7840  0.6455  0.3660
    6CHTO   O75 2137   5.924   5.856   2.753 -0.4220  0.2902  0.0358
    6CHTO  C112 2138   5.826   5.725   2.767 -1.0091 -1.0296  0.4640
    6CHTO  H216 2139   5.851   5.648   2.693 -0.1384  2.0754 -2.5873
    6CHTO   O73 2140   5.692   5.770   2.751  0.7502  0.1609 -0.1159
    6CHTO  C113 2141   5.599   5.659   2.750 -0.5970 -0.4584 -0.4607
    6CHTO  H217 2142   5.633   5.576   2.684  0.2271  0.1766 -0.8404
    6CHTO  C124 2143   5.466   5.711   2.703  0.0106  1.1101  0.6203
    6CHTO   O83 2144   5.412   5.816   2.788 -0.0399 -0.2008 -0.5455
    6CHTO  H204 2145   5.364   5.876   2.735  0.7799  1.3982  0.4910
    6CHTO  C109 2146   5.594   5.609   2.897  0.3984 -0.0387 -0.2679
    6CHTO  H213 2147   5.557   5.694   2.956  0.7411  0.2429 -0.4507
    6CHTO  C110 2148   5.735   5.561   2.951  0.8615  0.4613 -0.1645
    6CHTO  H214 2149   5.764   5.472   2.896 -1.0766  0.8727 -1.9216
    6CHTO   O78 2150   5.732   5.524   3.091  0.1788 -0.3135  0.1513
    6CHTO  H200 2151   5.700   5.596   3.141 -0.0467 -0.0561 -0.3635
    6CHTO  C111 2152   5.836   5.675   2.922  0.4815  0.5027 -0.3805
    6CHTO  H215 2153   5.807   5.762   2.982  0.3020  0.4469 -0.3864
    6CHTO   N19 2154   5.982   5.644   2.954 -0.7993  0.4517  0.7654
    6CHTO  H207 2155   6.053   5.708   2.905 -1.7498  0.4985 -0.5786
    6CHTO  H208 2156   6.004   5.651   3.060  0.9073 -1.7153  0.5752
    6CHTO   O74 2157   5.500   5.502   2.903  0.4430  0.9144 -0.3960
    6CHTO  C115 2158   5.373   5.526   2.982 -0.1832 -0.3917 -0.6641
    6CHTO  H219 2159   5.339   5.629   2.975 -0.9866 -0.7163 -1.6347
    6CHTO   O76 2160   5.251   5.445   2.915 -0.3608  0.1959  0.1856
    6CHTO  C122 2161   5.285   5.305   2.896  0.5763  0.2092  0.7273
    6CHTO  H226 2162   5.342   5.297   2.804 -1.1810  1.8603 -0.5352
    6CHTO  C126 2163   5.149   5.223   2.865  0.3070  0.3027  0.3162
    6CHTO   O85 2164   5.056   5.229   2.966 -0.0071  0.1383 -0.1750
    6CHTO  H206 2165   4.977   5.259   2.926 -0.2621  2.2461  1.8131
    6CHTO  C121 2166   5.350   5.247   3.026 -0.0484  0.5482 -0.6620
    6CHTO  H225 2167   5.320   5.142   3.047  0.5461  0.5137  0.0692
    6CHTO   O81 2168   5.486   5.236   2.995 -0.1954 -0.6753  0.0005
    6CHTO  H202 2169   5.526   5.320   2.990  0.0710 -0.8607 -1.1057
    6CHTO  C119 2170   5.329   5.331   3.158  0.1386 -0.6644  0.4770
    6CHTO  H223 2171   5.221   5.335   3.169  0.0281 -0.1513 -0.7502
    6CHTO  C117 2172   5.383   5.485   3.138  0.4778  0.0086  0.6726
    6CHTO  H221 2173   5.491   5.494   3.153  1.0331  0.6878 -3.3884
    6CHTO   N20 2174   5.319   5.583   3.234  0.9555  0.0683  0.2735
    6CHTO  H209 2175   5.387   5.621   3.308 -0.3084 -1.8709  2.4893
    6CHTO  H210 2176   5.282   5.661   3.169  2.6595  1.6551  1.1676
    6CHTO   O80 2177   5.371   5.268   3.293  0.6806  0.1303 -0.1614
    6CHTO  C103 2178   5.263   5.196   3.382  0.2594 -1.0575 -0.0370
    6CHTO  H190 2179   5.313   5.184   3.478  0.3896 -1.0374 -0.1021
    6CHTO  C101 2180   5.129   5.269   3.397  0.2165  0.4873  0.1840
    6CHTO  H188 2181   5.083   5.295   3.302  0.8074  1.2263  0.0929
    6CHTO   O68 2182   5.160   5.404   3.470  0.3971 -0.6787  0.0110
    6CHTO  H168 2183   5.250   5.431   3.468  0.3042  0.1995  3.5971
    6CHTO   C99 2184   5.020   5.173   3.473 -0.0801  0.5516  0.4920
    6CHTO  H186 2185   5.051   5.164   3.579  0.6073  1.7164  0.4005
    6CHTO   N17 2186   4.881   5.237   3.485  0.2286  0.0952  0.1304
    6CHTO  H174 2187   4.854   5.223   3.589  1.9749 -1.4823  0.3825
    6CHTO  H175 2188   4.806   5.186   3.427  1.7785 -2.7858  0.5937
    6CHTO   C97 2189   5.017   5.030   3.416  0.4264  0.5630 -0.2962
    6CHTO  H184 2190   4.978   5.046   3.314 -0.4166 -3.0086 -0.5975
    6CHTO   O64 2191   5.155   4.985   3.416 -0.2014  0.8406  0.0601
    6CHTO  C104 2192   5.239   5.057   3.322  0.4832  0.0457  0.2319
    6CHTO  H191 2193   5.191   5.068   3.226 -0.8752 -0.2200  0.8696
    6CHTO  C108 2194   5.377   4.986   3.311  0.9945 -0.0714 -0.1458
    6CHTO   O71 2195   5.363   4.875   3.225 -0.1628  0.1442  0.0383
    6CHTO  H171 2196   5.285   4.828   3.246 -0.6718  1.6655  1.6631
    6CHTO   O62 2197   4.938   4.931   3.478  0.5488  1.0415 -0.3029
    6CHTO   C91 2198   4.949   4.888   3.615 -0.8548  0.0155 -0.0759
    6CHTO  H178 2199   5.022   4.949   3.668 -1.9162  2.5776 -1.4692
    6CHTO   C92 2200   5.013   4.743   3.617  0.8746  0.6290 -0.6429
    6CHTO  H179 2201   5.095   4.730   3.546 -0.9797 -0.8973 -2.5763
    6CHTO   O66 2202   5.074   4.723   3.748  0.1079 -0.2821  0.0337
    6CHTO  H166 2203   5.025   4.756   3.820 -1.8835 -1.1958 -0.8437
    6CHTO   C93 2204   4.912   4.636   3.596  0.2700  0.6194 -0.0023
    6CHTO  H180 2205   4.968   4.542   3.607 -0.2373  0.4589  1.3102
    6CHTO   N16 2206   4.860   4.621   3.462 -0.0857  0.2668 -0.5670
    6CHTO  H172 2207   4.907   4.700   3.405  2.7055 -0.8163  0.1431
    6CHTO  H173 2208   4.873   4.528   3.408 -1.3133  0.0480 -0.4810
    6CHTO   C94 2209   4.795   4.650   3.702 -0.6689  0.1273 -0.3571
    6CHTO  H181 2210   4.709   4.591   3.672  0.5434 -0.9720 -1.7431
    6CHTO   O61 2211   4.746   4.780   3.722 -0.1735  0.1796 -0.0367
    6CHTO   C95 2212   4.817   4.902   3.698  0.5790  0.1099  0.8585
    6CHTO  H182 2213   4.757   4.972   3.641  1.2688  0.3116  0.3645
    6CHTO  C106 2214   4.835   4.977   3.833 -0.1302  0.3682 -0.5671
    6CHTO   O69 2215   4.893   4.890   3.934  0.3391 -0.4282 -0.2009
    6CHTO  H169 2216   4.827   4.878   4.000 -0.0724 -0.1562 -0.5542
    6CHTO   O63 2217   4.858   4.592   3.843 -0.3991  0.4022 -0.6542
    6CHTO   C96 2218   4.752   4.520   3.926 -0.0774  0.3365  0.1228
    6CHTO  H183 2219   4.669   4.508   3.856 -0.4023  2.4575  0.1048
    6CHTO   C98 2220   4.707   4.594   4.050 -0.7561 -0.0273  0.0139
    6CHTO  H185 2221   4.799   4.615   4.106 -0.7563 -0.9747  0.3697
    6CHTO   O67 2222   4.651   4.724   4.011  0.2353 -0.2924  0.1897
    6CHTO  H167 2223   4.594   4.763   4.075  2.0903  0.2211  1.5875
    6CHTO  C102 2224   4.611   4.496   4.134 -0.1542  0.2108  0.4577
    6CHTO  H189 2225   4.525   4.465   4.072 -0.4725 -0.9045  1.4572
    6CHTO   N18 2226   4.557   4.567   4.255 -0.4077 -0.1521  0.6115
    6CHTO  H176 2227   4.640   4.577   4.323 -0.5556  1.2655  0.5884
    6CHTO  H177 2228   4.507   4.657   4.223  0.2256  0.6391  1.7761
    6CHTO  C105 2229   4.687   4.363   4.159  0.3113  0.3427 -0.2266
    6CHTO  H192 2230   4.778   4.386   4.216  0.3572 -2.2280  0.8236
    6CHTO   O65 2231   4.725   4.307   4.041  0.4021 -0.6692  0.5754
    6CHTO  C100 2232   4.810   4.380   3.953 -0.2801 -0.5309  0.3868
    6CHTO  H187 2233   4.906   4.403   4.001 -0.9925  1.1249  1.0876
    6CHTO  C107 2234   4.827   4.306   3.815 -0.0386 -0.0485 -0.3418
    6CHTO   O70 2235   4.889   4.169   3.831  0.3699 -0.1019 -0.0865
    6CHTO  H170 2236   4.919   4.152   3.918 -2.9211 -0.5839  1.0551
    6CHTO   O57 2237   4.574   4.261   4.244 -0.2876 -0.1855  0.3053
    6CHTO   C85 2238   4.626   4.177   4.351  0.2561  0.1469 -0.0865
    6CHTO  H157 2239   4.552   4.096   4.369  0.4956 -0.3004 -1.0604
    6CHTO   C83 2240   4.628   4.252   4.493  0.1372 -0.3112 -0.2234
    6CHTO  H155 2241   4.529   4.274   4.533 -0.1929  0.1873 -1.3155
    6CHTO   O56 2242   4.688   4.377   4.469 -0.3300  0.2238  0.3784
    6CHTO  H135 2243   4.762   4.361   4.413 -0.7751 -0.8757  0.0924
    6CHTO   C81 2244   4.710   4.173   4.606 -0.4351  0.0706 -0.1317
    6CHTO  H153 2245   4.650   4.085   4.629  1.7055 -0.9820  1.7033
    6CHTO   N14 2246   4.719   4.237   4.739 -0.3628 -0.0206  0.3918
    6CHTO  H141 2247   4.648   4.203   4.811 -0.9399  0.4623  0.0572
    6CHTO  H142 2248   4.714   4.344   4.732  0.9612  0.1654  1.8859
    6CHTO   C79 2249   4.848   4.118   4.552  0.1831 -0.6639  0.1086
    6CHTO  H151 2250   4.892   4.050   4.625 -0.0389 -1.3879 -0.4165
    6CHTO   O52 2251   4.833   4.048   4.422  0.3838 -0.2409 -0.5578
    6CHTO   C86 2252   4.767   4.117   4.317  0.2089 -0.1161 -0.1606
    6CHTO  H158 2253   4.833   4.199   4.280 -1.3806  0.3798 -1.9603
    6CHTO   C90 2254   4.749   4.026   4.195  0.3034 -0.0841 -0.0438
    6CHTO   O60 2255   4.864   3.964   4.143  0.1528 -0.2875 -0.1827
    6CHTO  H138 2256   4.833   3.900   4.083  1.1839 -0.1949 -0.8265
    6CHTO   O50 2257   4.943   4.221   4.545 -0.4687 -0.2160  0.2618
    6CHTO   C73 2258   5.071   4.280   4.571 -0.6785 -0.2227 -0.5592
    6CHTO  H145 2259   5.152   4.207   4.586 -1.3368 -1.2047 -1.6846
    6CHTO   C74 2260   5.059   4.388   4.687  0.5326 -0.2001 -0.5836
    6CHTO  H146 2261   5.022   4.341   4.780 -0.1464  1.3556 -0.0589
    6CHTO   O54 2262   5.198   4.432   4.706 -0.1789 -0.0496  0.2109
    6CHTO  H133 2263   5.209   4.478   4.787  2.0383  0.0474 -0.1117
    6CHTO   C75 2264   4.965   4.503   4.634  0.1873  0.2258 -0.2205
    6CHTO  H147 2265   4.864   4.465   4.611  0.6145 -0.8037 -0.3981
    6CHTO   N13 2266   4.958   4.603   4.747 -0.3130 -0.6450  0.9475
    6CHTO  H139 2267   4.859   4.645   4.753 -1.0341 -2.5351  2.5264
    6CHTO  H140 2268   4.980   4.562   4.844  2.4847 -0.3354  0.4830
    6CHTO   C76 2269   5.007   4.568   4.495 -0.4112 -0.6827 -0.5724
    6CHTO  H148 2270   5.106   4.607   4.513 -0.5934 -0.9460  1.1115
    6CHTO   O49 2271   5.016   4.462   4.393 -0.2571  0.5855 -0.1033
    6CHTO   C77 2272   5.109   4.358   4.439  0.0225  0.0553  0.5411
    6CHTO  H149 2273   5.205   4.410   4.444  1.8161 -3.1409  0.5059
    6CHTO   C88 2274   5.142   4.262   4.322 -0.1379  0.6499 -0.2065
    6CHTO   O58 2275   5.195   4.320   4.208 -0.3228  0.0478  0.8019
    6CHTO  H136 2276   5.275   4.274   4.191 -0.9002 -0.8096  0.3434
    6CHTO   O51 2277   4.907   4.684   4.425  0.3031  0.3065  0.6765
    6CHTO   C78 2278   5.001   4.805   4.365 -0.2837  0.1559  0.4884
    6CHTO  H150 2279   5.098   4.808   4.417  0.2193  0.1598 -0.4416
    6CHTO   C80 2280   4.930   4.941   4.390  0.6211 -0.0823  0.3709
    6CHTO  H152 2281   4.829   4.948   4.345  1.0987  3.3905 -0.2794
    6CHTO   O55 2282   4.917   4.946   4.534  0.1312 -0.0944  0.9801
    6CHTO  H134 2283   4.917   5.037   4.558  0.8402  0.1683  0.0076
    6CHTO   C84 2284   5.012   5.061   4.336  0.0886 -0.3601  0.6007
    6CHTO  H156 2285   5.106   5.056   4.392 -0.7692 -0.5268  2.0416
    6CHTO   N15 2286   4.947   5.192   4.366 -0.3734 -0.5074  0.0595
    6CHTO  H143 2287   4.850   5.198   4.322 -0.2056  0.6244 -0.1659
    6CHTO  H144 2288   4.931   5.202   4.471 -2.1472  0.3854 -0.2797
    6CHTO   C87 2289   5.049   5.047   4.184 -0.8134  0.7570  0.3612
    6CHTO  H159 2290   4.953   5.060   4.134  0.7717  1.5831 -2.5363
    6CHTO   O53 2291   5.101   4.903   4.170  0.4861  0.4641  0.0929
    6CHTO   C82 2292   5.019   4.797   4.213  0.5832  0.4394  0.4921
    6CHTO  H154 2293   4.926   4.809   4.157  1.1983  0.8898 -0.4507
    6CHTO   C89 2294   5.075   4.658   4.179  0.1660  0.2865 -0.4170
    6CHTO   O59 2295   5.098   4.635   4.042  0.2689  0.1256  0.4468
    6CHTO  H137 2296   5.020   4.631   3.990 -0.8504  1.4529  1.9530
    6CHTO   O45 2297   5.158   5.150   4.136  0.3507  0.0184 -0.0503
    6CHTO   C67 2298   5.171   5.154   3.994  0.0482  0.3569 -0.3607
    6CHTO  H124 2299   5.082   5.110   3.949 -0.9688  1.1266  0.8553
    6CHTO   C65 2300   5.183   5.306   3.944 -1.0903  0.5956 -0.0354
    6CHTO  H122 2301   5.103   5.358   3.996 -0.3160  0.4677  1.3009
    6CHTO   O44 2302   5.159   5.309   3.804  0.3773  0.2206  0.0826
    6CHTO  H102 2303   5.157   5.397   3.771  1.1220  0.0863 -0.3451
    6CHTO   C63 2304   5.326   5.355   3.992 -0.1595  0.4252 -0.7493
    6CHTO  H120 2305   5.330   5.324   4.096 -0.8825 -2.6080 -1.5744
    6CHTO   N11 2306   5.347   5.507   3.985 -0.2613  0.2164 -0.0820
    6CHTO  H108 2307   5.360   5.541   3.884 -3.7825  2.1152  0.0297
    6CHTO  H109 2308   5.430   5.535   4.047  1.2714 -3.4717 -0.3042
    6CHTO   C61 2309   5.434   5.268   3.921 -0.2727 -0.0365  0.6540
    6CHTO  H118 2310   5.529   5.293   3.970 -0.3556 -1.7345  1.7384
    6CHTO   O40 2311   5.421   5.132   3.938 -0.1136 -0.0091  0.0958
    6CHTO   C68 2312   5.287   5.074   3.937 -0.5503  0.1144  0.2317
    6CHTO  H125 2313   5.298   4.991   4.009  0.2802 -0.8265 -0.9460
    6CHTO   C72 2314   5.260   5.005   3.799 -0.4893 -0.3982  0.4525
    6CHTO   O48 2315   5.345   4.895   3.781 -0.4429 -0.1229  0.6625
    6CHTO  H105 2316   5.351   4.890   3.688 -4.1179 -2.5536  0.4955
    6CHTO   O38 2317   5.440   5.291   3.777 -0.4403  0.0568  0.6445
    6CHTO   C55 2318   5.566   5.316   3.712  0.1953 -0.2539 -0.0842
    6CHTO  H112 2319   5.644   5.315   3.790 -0.5587 -2.6795  0.6904
    6CHTO   C56 2320   5.559   5.456   3.633 -0.0057 -1.0143  0.3164
    6CHTO  H113 2321   5.466   5.467   3.576  0.1550 -2.3378 -0.2369
    6CHTO   O42 2322   5.550   5.554   3.735 -0.2450 -0.0745 -0.2601
    6CHTO  H100 2323   5.466   5.582   3.766 -0.0706 -0.8828  0.9856
    6CHTO   C57 2324   5.689   5.486   3.548 -0.1526  0.0144 -0.6156
    6CHTO  H114 2325   5.775   5.505   3.613 -0.8435 -2.6087  1.1404
    6CHTO   N10 2326   5.669   5.600   3.451 -0.6344  0.4781 -0.1200
    6CHTO  H106 2327   5.624   5.556   3.364  1.4456 -0.9554 -0.5204
    6CHTO  H107 2328   5.768   5.638   3.430  1.0876 -1.2291  4.2448
    6CHTO   C58 2329   5.721   5.358   3.469 -0.5972  0.1346  0.5081
    6CHTO  H115 2330   5.643   5.338   3.392  1.4572  0.9265 -1.8368
    6CHTO   O37 2331   5.735   5.243   3.558  0.1437 -0.5976 -0.1953
    6CHTO   C59 2332   5.607   5.206   3.616 -0.2529  0.0197 -0.4770
    6CHTO  H116 2333   5.532   5.198   3.538 -0.1188 -1.9538 -0.4306
    6CHTO   C70 2334   5.616   5.065   3.681 -0.0929  0.3391 -0.2472
    6CHTO   O46 2335   5.659   4.968   3.590  0.4269 -0.0325 -0.5444
    6CHTO  H103 2336   5.681   4.890   3.636  1.6107 -0.6953 -2.1502
    6CHTO   O39 2337   5.874   5.380   3.375  0.4633 -0.0294 -0.1789
    6CHTO   C60 2338   5.929   5.271   3.303 -0.8284  1.0699  0.1850
    6CHTO  H117 2339   5.968   5.203   3.380 -0.8318  1.0668  0.1835
    6CHTO   C62 2340   5.832   5.175   3.215 -0.0880  0.4527 -0.1290
    6CHTO  H119 2341   5.755   5.151   3.291  0.1166  3.4882  1.0830
    6CHTO   O43 2342   5.771   5.249   3.108  0.1056 -0.3170 -0.3957
    6CHTO  H101 2343   5.795   5.339   3.111 -0.0262 -0.3455  2.2328
    6CHTO   C66 2344   5.909   5.036   3.169  0.5502 -0.0734 -1.0746
    6CHTO  H123 2345   5.960   4.995   3.256 -1.3271 -0.6278 -0.2264
    6CHTO   N12 2346   5.821   4.925   3.128 -0.0540 -0.8133 -0.2924
    6CHTO  H110 2347   5.760   4.963   3.047 -1.3446  1.6294  1.7782
    6CHTO  H111 2348   5.878   4.836   3.105  0.6987 -0.1002 -1.2121
    6CHTO   C69 2349   6.020   5.064   3.070  0.2811 -0.6237  0.6220
    6CHTO  H126 2350   5.979   5.080   2.968 -1.9483  0.7120  1.6987
    6CHTO   O41 2351   6.117   5.192   3.128  0.1933 -0.6369 -0.0020
    6CHTO   C64 2352   6.045   5.316   3.213  0.0476 -0.3099  0.1952
    6CHTO  H121 2353   5.991   5.387   3.146 -3.2307 -1.4213  1.5672
    6CHTO   C71 2354   6.154   5.390   3.299  0.1852  0.3570 -0.5091
    6CHTO   O47 2355   6.225   5.478   3.215  0.5000 -0.3001 -0.1108
    6CHTO  H104 2356   6.284   5.533   3.263  1.2192  0.4897 -1.8508
    6CHTO   O34 2357   6.112   4.942   3.044  0.3465  0.5555 -0.6546
    6CHTO   C49 2358   6.189   4.824   3.062 -0.2005 -0.0756 -0.3458
    6CHTO   H91 2359   6.116   4.743   3.061  1.7392 -1.9661  2.9662
    6CHTO   C47 2360   6.262   4.833   3.200 -0.9631  0.6592  0.0445
    6CHTO   H89 2361   6.300   4.730   3.213  0.7001  1.1722 -0.5594
    6CHTO   O33 2362   6.173   4.867   3.310 -0.5027  0.2431  0.1553
    6CHTO   H70 2363   6.117   4.796   3.335  0.7913 -0.9167 -0.1818
    6CHTO   C45 2364   6.386   4.944   3.199 -0.6116  0.7303  0.1003
    6CHTO   H87 2365   6.362   5.037   3.253  0.4300  0.9862  0.1258
    6CHTO    N8 2366   6.500   4.881   3.270  0.4482 -0.0223  0.5429
    6CHTO   H75 2367   6.534   4.794   3.215  0.4772  0.2379  0.1517
    6CHTO   H76 2368   6.480   4.868   3.376 -0.5149 -1.0401  0.2440
    6CHTO   C43 2369   6.417   4.984   3.047  0.5004  0.1092  0.3489
    6CHTO   H85 2370   6.337   5.052   3.016  1.1682  0.4118 -0.7479
    6CHTO   O29 2371   6.424   4.871   2.963  0.0737  0.1900  0.1292
    6CHTO   C50 2372   6.295   4.808   2.943 -0.0581 -0.4465 -0.4002
    6CHTO   H92 2373   6.253   4.850   2.850 -2.3644  0.0942  0.8362
    6CHTO   C54 2374   6.319   4.662   2.901  0.7122 -0.5987 -0.1271
    6CHTO   O36 2375   6.392   4.631   2.783 -0.2246 -0.1816  0.1198
    6CHTO   H72 2376   6.333   4.598   2.717  0.2804 -0.6703 -0.0983
    6CHTO   O27 2377   6.535   5.063   3.038 -0.7589 -0.0843  0.0658
    6CHTO   C37 2378   6.581   5.201   3.030  0.4749 -0.8456 -0.6902
    6CHTO   H79 2379   6.672   5.213   2.970  1.9553  0.7770  1.7773
    6CHTO   C38 2380   6.474   5.290   2.968  0.5339 -0.9449 -0.4078
    6CHTO   H80 2381   6.377   5.275   3.018  0.7327  1.5711  0.8645
    6CHTO   O31 2382   6.464   5.254   2.829 -0.1384  0.7674  0.0856
    6CHTO   H68 2383   6.437   5.165   2.815  3.1215 -0.7654  2.7736
    6CHTO   C39 2384   6.502   5.450   2.982  0.3312  0.0279  0.0369
    6CHTO   H81 2385   6.588   5.470   2.918 -0.2014  0.7922 -0.4395
    6CHTO    N7 2386   6.398   5.541   2.939 -0.2217  0.4378  0.3808
    6CHTO   H73 2387   6.316   5.488   2.892 -0.2865  0.7230  0.1693
    6CHTO   H74 2388   6.378   5.626   3.003 -0.3243  0.6769  0.0368
    6CHTO   C40 2389   6.554   5.476   3.136  0.7580  0.8427  0.1781
    6CHTO   H82 2390   6.465   5.463   3.197  1.8712 -1.8477  1.2910
    6CHTO   O26 2391   6.655   5.381   3.175 -0.6653  0.3497 -0.8463
    6CHTO   C41 2392   6.615   5.243   3.176 -0.3663  0.4698  0.0991
    6CHTO   H83 2393   6.532   5.230   3.247 -0.4059  2.2715  0.4001
    6CHTO   C52 2394   6.742   5.164   3.227 -0.8868 -0.1843 -0.0722
    6CHTO   O35 2395   6.851   5.126   3.150  0.6837 -1.0499  0.4375
    6CHTO   H71 2396   6.923   5.182   3.174  0.6724 -0.7385 -0.2178
    6CHTO   O28 2397   6.616   5.607   3.143 -0.3819 -0.1323  0.4365
    6CHTO   C42 2398   6.647   5.680   3.268 -0.0750  0.4836 -0.3636
    6CHTO   H84 2399   6.743   5.724   3.241 -0.6251  0.0822 -3.1679
    6CHTO   C44 2400   6.657   5.598   3.394 -0.0511  0.3711 -0.4209
    6CHTO   H86 2401   6.571   5.532   3.397  1.6120 -1.8449  0.1361
    6CHTO   O32 2402   6.766   5.500   3.380 -0.0637 -0.0478 -0.0539
    6CHTO   H69 2403   6.780   5.490   3.288 -1.8232 -0.5174 -0.2859
    6CHTO   C48 2404   6.666   5.684   3.529  0.4609  0.0775 -0.0008
    6CHTO   H90 2405   6.762   5.737   3.531  0.1659  0.6324 -0.3621
    6CHTO    N9 2406   6.657   5.597   3.645  0.1795  0.2816  0.3318
    6CHTO   H77 2407   6.559   5.555   3.660  1.5722 -3.1814  0.2254
    6CHTO   H78 2408   6.705   5.634   3.735  0.0040 -2.0159  1.3864
    6CHTO   C51 2409   6.557   5.802   3.535  0.5785  0.2806 -0.3300
    6CHTO   H93 2410   6.458   5.757   3.545  0.7139  0.2995  1.3021
    6CHTO   O30 2411   6.566   5.878   3.408 -0.6149 -0.2183 -0.0605
    6CHTO   C46 2412   6.544   5.794   3.283  0.2072  0.0523 -0.5103
    6CHTO   H88 2413   6.453   5.735   3.294  0.7727 -0.7821 -0.3244
    6CHTO   C53 2414   6.546   5.891   3.160 -0.0197  0.0456 -0.0968
    6CHTO   O72 2415   6.677   5.916   3.107 -0.1014  0.6038 -0.3923
    6CHTO  H199 2416   6.670   5.968   3.030  2.5829  1.5839 -0.0566
    6CHTO   O22 2417   6.584   5.887   3.650  0.1179  0.1317  0.1605
    6CHTO   C31 2418   6.487   5.969   3.720  0.2397  0.6726  0.1128
    6CHTO   H59 2419   6.556   6.019   3.792 -2.2392  0.0356  2.9998
    6CHTO   C29 2420   6.419   6.073   3.625  0.3662  0.1064 -0.2538
    6CHTO   H57 2421   6.366   6.028   3.540  0.0350  1.1453 -0.6142
    6CHTO   O21 2422   6.521   6.167   3.584  0.7659 -0.1585  0.1922
    6CHTO   H37 2423   6.577   6.136   3.515  1.5644 -1.0295  1.2263
    6CHTO   C27 2424   6.304   6.155   3.704 -0.6728  0.7709 -0.0380
    6CHTO   H55 2425   6.354   6.223   3.774  0.9323  0.2155 -0.6318
    6CHTO    N5 2426   6.221   6.235   3.610 -0.5843  0.7176  0.2199
    6CHTO   H43 2427   6.136   6.266   3.668 -3.3191 -1.2545 -2.6111
    6CHTO   H44 2428   6.287   6.314   3.576 -0.2441 -0.5963 -2.2600
    6CHTO   C25 2429   6.213   6.049   3.773  0.3237  0.8029  0.4090
    6CHTO   H53 2430   6.179   5.976   3.698 -0.4099 -0.2305  1.7117
    6CHTO   O17 2431   6.288   5.975   3.864  0.0813  0.0064 -0.2132
    6CHTO   C32 2432   6.388   5.881   3.801 -0.8610  0.6169 -0.0493
    6CHTO   H60 2433   6.337   5.808   3.738  0.4693 -0.1655 -0.2197
    6CHTO   C36 2434   6.472   5.807   3.915 -0.3378 -0.1313  0.3084
    6CHTO   O25 2435   6.393   5.768   4.022 -0.0156 -0.2325  0.4954
    6CHTO   H40 2436   6.359   5.846   4.063  0.1005  0.4257 -0.6404
    6CHTO   O15 2437   6.088   6.108   3.847 -0.1148  0.1264  0.2818
    6CHTO   C19 2438   6.038   6.126   3.984  0.5822  0.3628 -0.1634
    6CHTO   H47 2439   5.932   6.097   3.982  0.7382 -0.1784 -1.2785
    6CHTO   C20 2440   6.109   6.033   4.089 -0.2266 -0.4986  0.4807
    6CHTO   H48 2441   6.212   6.067   4.109 -0.5096  0.4604  0.3415
    6CHTO   O19 2442   6.100   5.903   4.027 -0.2103 -0.4368 -0.7058
    6CHTO   H35 2443   6.123   5.835   4.088 -0.5798  0.3813  0.3658
    6CHTO   C21 2444   6.033   6.041   4.233  0.3316 -0.6986 -0.5948
    6CHTO   H49 2445   5.936   5.993   4.224 -0.5407  0.9274 -0.0852
    6CHTO    N4 2446   6.105   5.954   4.333  0.3065 -0.0048 -0.0758
    6CHTO   H41 2447   6.160   6.019   4.399  0.9997 -0.5714 -0.0863
    6CHTO   H42 2448   6.170   5.882   4.287 -1.4801 -1.3087 -0.6311
    6CHTO   C22 2449   6.036   6.192   4.267  0.3526 -0.1818 -0.2098
    6CHTO   H50 2450   6.140   6.219   4.284 -0.3629  2.8684 -0.2072
    6CHTO   O14 2451   5.980   6.277   4.163 -0.3757 -0.1606 -0.3235
    6CHTO   C23 2452   6.043   6.274   4.038  0.4129  0.0671  0.2359
    6CHTO   H51 2453   6.147   6.307   4.053  0.4738  1.1292 -2.3382
    6CHTO   C34 2454   5.952   6.376   3.963  0.3864  0.4701 -0.2137
    6CHTO   O23 2455   5.983   6.391   3.824  0.3435 -0.4033  0.7798
    6CHTO   H38 2456   5.954   6.311   3.784 -0.1871 -1.0380  2.4110
    6CHTO   O16 2457   5.955   6.210   4.390 -0.3225 -0.2386  0.6648
    6CHTO   C24 2458   5.975   6.347   4.465  0.7971 -0.0781 -0.1846
    6CHTO   H52 2459   6.032   6.420   4.408 -0.9442  1.4603  0.0032
    6CHTO   C26 2460   6.059   6.317   4.594 -0.0797 -0.5645  0.0626
    6CHTO   H54 2461   6.007   6.235   4.648  0.3857 -1.2979 -0.6013
    6CHTO   O20 2462   6.184   6.255   4.546  0.2900  0.5949  0.1588
    6CHTO   H36 2463   6.237   6.316   4.498 -1.7880  1.6438 -0.8659
    6CHTO   C30 2464   6.072   6.442   4.680 -0.3787 -0.0141 -0.4250
    6CHTO   H58 2465   6.128   6.517   4.622  0.1950  1.1702  1.6432
    6CHTO    N6 2466   6.164   6.426   4.802 -0.5458  0.2625  0.0371
    6CHTO   H45 2467   6.262   6.402   4.763 -0.9960  1.7988 -2.1332
    6CHTO   H46 2468   6.130   6.346   4.866  1.0428 -1.1906 -0.8935
    6CHTO   C33 2469   5.928   6.494   4.708 -0.2050  0.1643 -0.6211
    6CHTO   H61 2470   5.877   6.409   4.756  1.9807 -0.7360  0.1587
    6CHTO   O18 2471   5.869   6.531   4.589  0.7175 -0.1149 -0.3027
    6CHTO   C28 2472   5.841   6.419   4.504  0.1406 -0.2834  1.0765
    6CHTO   H56 2473   5.765   6.349   4.539 -2.2165  0.4707 -2.2948
    6CHTO   C35 2474   5.757   6.474   4.385  0.7484 -0.7429 -0.8092
    6CHTO   O24 2475   5.842   6.521   4.274 -0.3791  0.4109  0.3053
    6CHTO   H39 2476   5.788   6.552   4.204 -0.1564 -2.9634 -1.4583
    6CHTO    O9 2477   5.925   6.604   4.800  0.7696  0.0939 -0.1151
    6CHTO   C13 2478   5.833   6.594   4.910  0.5017  0.0534  0.0680
    6CHTO   H26 2479   5.827   6.487   4.939 -0.5947  0.2875  0.7638
    6CHTO   C11 2480   5.688   6.651   4.878  0.1456  0.0494  0.5300
    6CHTO   H24 2481   5.656   6.585   4.795  1.0360 -0.4078  0.5473
    6CHTO    O8 2482   5.700   6.791   4.836  0.3245 -0.5350 -0.3005
    6CHTO    H3 2483   5.730   6.833   4.914  0.6732 -1.7847  0.2464
    6CHTO    C9 2484   5.599   6.630   5.001 -0.3685 -0.1753  0.2429
    6CHTO   H22 2485   5.592   6.520   5.006  0.1955 -0.2120  0.2458
    6CHTO    N2 2486   5.453   6.673   4.971  0.4128 -0.2570 -0.6566
    6CHTO   H10 2487   5.416   6.593   4.908  1.8439 -1.4926  0.0109
    6CHTO   H11 2488   5.451   6.768   4.921 -0.7116 -0.5058 -1.0800
    6CHTO    C7 2489   5.670   6.684   5.133  0.2929 -0.1786 -0.5022
    6CHTO   H20 2490   5.686   6.601   5.204 -1.1558  0.0370  0.1002
    6CHTO    O4 2491   5.794   6.747   5.109 -0.3983 -0.0341  0.3551
    6CHTO   C14 2492   5.894   6.663   5.042  0.2063  0.2119 -0.2538
    6CHTO   H27 2493   5.928   6.587   5.115 -0.4795 -0.0473 -0.1945
    6CHTO   C18 2494   6.011   6.764   5.021 -0.3176 -0.0392 -0.2564
    6CHTO   O13 2495   5.975   6.884   4.943 -0.0825 -0.4632  0.3174
    6CHTO    H7 2496   5.913   6.940   4.985 -1.3028 -1.4119 -0.1649
    6CHTO    O2 2497   5.577   6.790   5.218 -0.5665 -0.2203 -0.2576
    6CHTO    C1 2498   5.568   6.770   5.363  0.8123 -0.7862  0.1719
    6CHTO   H14 2499   5.497   6.849   5.395  0.2623 -0.5385 -1.5811
    6CHTO    C2 2500   5.703   6.779   5.446  0.6567  0.0921  0.2902
    6CHTO   H15 2501   5.769   6.700   5.408 -0.3351 -1.3195  1.4512
    6CHTO    O6 2502   5.765   6.903   5.424 -0.2884 -0.5830  0.0713
    6CHTO    H1 2503   5.763   6.930   5.334 -1.1098 -0.9356 -0.0177
    6CHTO    C3 2504   5.674   6.755   5.598  0.2189  0.1669  0.6287
    6CHTO   H16 2505   5.614   6.838   5.640 -2.1371 -0.5981 -1.0753
    6CHTO    N1 2506   5.807   6.744   5.679 -0.3265  0.1126  0.0613
    6CHTO    H8 2507   5.839   6.641   5.691 -0.7081  0.1249  1.2250
    6CHTO    H9 2508   5.784   6.784   5.776  0.1354  1.0481 -0.2075
    6CHTO    C4 2509   5.581   6.625   5.618 -0.3330  0.9983  0.0569
    6CHTO   H17 2510   5.642   6.537   5.598 -0.7203  1.2280 -2.2561
    6CHTO    O1 2511   5.462   6.624   5.536  0.2662  0.7133  0.4913
    6CHTO    C5 2512   5.486   6.634   5.394  0.7244 -0.3075 -0.6786
    6CHTO   H18 2513   5.541   6.544   5.365  2.3694 -0.0470  1.4805
    6CHTO   C16 2514   5.352   6.638   5.321  0.4552 -0.5723 -0.2628
    6CHTO   O11 2515   5.249   6.539   5.356 -0.2202  0.3898 -0.1408
    6CHTO    H5 2516   5.262   6.514   5.445  0.7882 -1.1584 -0.7166
    6CHTO    O3 2517   5.527   6.625   5.751  0.4668  0.0554 -0.3717
    6CHTO    C6 2518   5.493   6.492   5.804  0.7417  0.5535 -0.1823
    6CHTO   H19 2519   5.486   6.422   5.721 -0.9950  2.5390 -1.7635
    6CHTO    C8 2520   5.601   6.435   5.897  0.3424  0.8269 -0.3324
    6CHTO   H21 2521   5.626   6.513   5.968 -2.0088  0.7977  0.5660
    6CHTO    O7 2522   5.713   6.410   5.816  0.0620 -0.6503 -0.1001
    6CHTO    H2 2523   5.705   6.328   5.771  0.7748 -0.2561 -0.9673
    6CHTO   C12 2524   5.553   6.307   5.975  0.2321 -0.4778  0.1992
    6CHTO   H25 2525   5.550   6.223   5.902 -2.2069 -0.4847  0.2648
    6CHTO    N3 2526   5.651   6.262   6.073  0.3096 -0.5804 -0.1608
    6CHTO   H12 2527   5.705   6.178   6.033 -0.2731 -1.1937  0.3382
    6CHTO   H13 2528   5.606   6.228   6.165 -0.1919  4.1595  1.5010
    6CHTO   C15 2529   5.406   6.319   6.030  0.5984  0.0129  0.2567
    6CHTO   H28 2530   5.395   6.379   6.121 -1.6254 -1.3483  0.9186
    6CHTO   O10 2531   5.344   6.196   6.046 -0.3645 -0.1347 -0.3169
    6CHTO    H4 2532   5.394   6.129   6.088  1.0398  0.0299 -1.6845
    6CHTO    O5 2533   5.326   6.362   5.930  0.5278  0.2668 -0.0654
    6CHTO   C10 2534   5.351   6.488   5.871  0.5244 -0.0148  0.2513
    6CHTO   H23 2535   5.350   6.569   5.944  0.6779  0.2169 -0.0037
    6CHTO   C17 2536   5.237   6.504   5.768 -0.1464  0.0506 -0.3649
    6CHTO   O12 2537   5.258   6.431   5.646  0.5432 -0.0774  0.5757
    6CHTO    H6 2538   5.229   6.345   5.667  0.4436  0.4878  2.9162
    7CHTO  H203 2539   5.646   4.029   6.423 -1.4393 -0.7297 -1.3511
    7CHTO   O82 2540   5.693   3.952   6.395 -0.1062 -0.3875 -0.1237
    7CHTO  C123 2541   5.702   3.930   6.255 -0.1816  1.2083 -1.0126
    7CHTO  H227 2542   5.612   3.971   6.206 -1.9391 -2.5819 -1.1430
    7CHTO   O77 2543   5.823   4.009   6.223 -0.0431  0.2387 -0.5838
    7CHTO  C118 2544   5.878   3.997   6.089  0.2905  1.0656  0.6519
    7CHTO  H222 2545   5.811   4.033   6.010  3.3254  1.0675 -2.0469
    7CHTO  C125 2546   6.009   4.071   6.081 -0.0370 -0.0666 -0.0727
    7CHTO   O84 2547   6.011   4.196   6.152  0.1181  0.1289 -0.5338
    7CHTO  H205 2548   6.050   4.262   6.099 -0.7540  0.3446 -0.9047
    7CHTO  C114 2549   5.903   3.850   6.058 -0.2466  0.2901 -0.0021
    7CHTO  H218 2550   5.980   3.811   6.125  0.2011 -1.8002 -1.6803
    7CHTO  C116 2551   5.778   3.755   6.084 -0.3621 -0.3449 -0.9398
    7CHTO  H220 2552   5.703   3.772   6.005 -1.2384 -1.0565 -0.2750
    7CHTO   O79 2553   5.831   3.622   6.063 -0.5362  0.0898 -0.0079
    7CHTO  H201 2554   5.823   3.595   5.973  1.2383  0.5224 -0.3031
    7CHTO  C120 2555   5.717   3.777   6.223  0.5108 -0.5512  0.3390
    7CHTO  H224 2556   5.788   3.728   6.294  1.6019  1.8654  0.9994
    7CHTO   N21 2557   5.591   3.699   6.233  0.0100  0.5903 -0.4154
    7CHTO  H211 2558   5.572   3.674   6.336 -0.6259  0.6739 -0.5100
    7CHTO  H212 2559   5.607   3.614   6.169 -0.3567 -0.6834  1.1464
    7CHTO   O75 2560   5.946   3.845   5.918 -0.1576 -0.6259 -0.5998
    7CHTO  C112 2561   6.107   3.760   5.873  0.3480 -0.1114 -0.6566
    7CHTO  H216 2562   6.089   3.714   5.775  0.0757  1.0230 -1.1471
    7CHTO   O73 2563   6.147   3.669   5.971 -0.3698  0.3768 -0.1164
    7CHTO  C113 2564   6.255   3.586   5.921 -0.1510 -0.0824 -0.2133
    7CHTO  H217 2565   6.222   3.532   5.830  2.0533  0.3085 -1.2989
    7CHTO  C124 2566   6.280   3.476   6.028  0.3287  0.2113  0.0135
    7CHTO   O83 2567   6.351   3.365   5.972 -0.4450 -0.3412  0.2119
    7CHTO  H204 2568   6.429   3.355   6.023 -0.7170  0.3545  0.7698
    7CHTO  C109 2569   6.389   3.663   5.888 -0.1741  0.4661 -0.0741
    7CHTO  H213 2570   6.434   3.691   5.984 -1.1993 -0.1225  0.5933
    7CHTO  C110 2571   6.348   3.791   5.799 -1.0100  1.4577 -0.4183
    7CHTO  H214 2572   6.332   3.754   5.698  0.5763  2.2490 -0.9729
    7CHTO   O78 2573   6.465   3.872   5.810 -0.0345  0.0245 -0.4127
    7CHTO  H200 2574   6.512   3.859   5.730 -0.6314  0.9639 -0.9280
    7CHTO  C111 2575   6.224   3.863   5.859 -0.3059  0.1939 -0.3638
    7CHTO  H215 2576   6.248   3.898   5.960 -0.6051 -2.1872  0.5586
    7CHTO   N19 2577   6.191   3.982   5.786 -0.4632  0.0053  0.1895
    7CHTO  H207 2578   6.156   4.050   5.862 -1.8016  0.2233 -0.5935
    7CHTO  H208 2579   6.282   4.023   5.746 -0.1011 -1.5621 -0.6215
    7CHTO   O74 2580   6.484   3.564   5.825 -0.2177  0.0777  0.1484
    7CHTO  C115 2581   6.636   3.619   5.794 -0.0064  0.0085  0.6121
    7CHTO  H219 2582   6.630   3.718   5.750 -3.4456 -1.0876 -1.5770
    7CHTO   O76 2583   6.710   3.637   5.911  0.1518  0.3014 -0.1639
    7CHTO  C122 2584   6.724   3.519   5.989  0.1045 -0.2272 -0.2388
    7CHTO  H226 2585   6.621   3.511   6.024 -0.1548  0.0128 -0.9512
    7CHTO  C126 2586   6.811   3.543   6.107 -0.2026 -0.4112 -0.5576
    7CHTO   O85 2587   6.956   3.556   6.087  0.4121  0.4201  0.0949
    7CHTO  H206 2588   6.972   3.642   6.052  1.5419  0.6581  1.1381
    7CHTO  C121 2589   6.762   3.390   5.903  0.2442  0.2020  0.5838
    7CHTO  H225 2590   6.843   3.331   5.952 -1.2004 -0.4403  2.2569
    7CHTO   O81 2591   6.652   3.302   5.897 -0.3895  0.0299 -0.1518
    7CHTO  H202 2592   6.591   3.316   5.827  0.1539 -0.6812 -0.7717
    7CHTO  C119 2593   6.815   3.428   5.758 -0.3502 -0.0443 -0.0890
    7CHTO  H223 2594   6.900   3.492   5.784 -0.5351  1.6215 -3.3047
    7CHTO  C117 2595   6.724   3.531   5.684  0.5680 -0.7542  0.0503
    7CHTO  H221 2596   6.645   3.479   5.630  0.0084  0.7343 -0.5939
    7CHTO   N20 2597   6.804   3.608   5.576  0.2342 -0.8786  0.2827
    7CHTO  H209 2598   6.846   3.690   5.633  0.6952 -1.3795  0.6648
    7CHTO  H210 2599   6.742   3.664   5.507  3.6878  3.9633  0.8285
    7CHTO   O80 2600   6.889   3.309   5.680 -0.5265 -0.0813  0.4002
    7CHTO  C103 2601   7.029   3.244   5.740 -0.6111  0.3640  0.0475
    7CHTO  H190 2602   7.085   3.219   5.650 -0.3719  1.7273 -0.2044
    7CHTO  C101 2603   7.126   3.331   5.832 -0.4843  0.1694 -0.4403
    7CHTO  H188 2604   7.075   3.365   5.923 -0.7765  1.2554 -0.9961
    7CHTO   O68 2605   7.163   3.449   5.766 -0.1283 -0.3098 -0.1408
    7CHTO  H168 2606   7.253   3.450   5.737 -0.1794  0.7792 -0.3120
    7CHTO   C99 2607   7.235   3.225   5.881 -0.5066 -0.1538 -0.1620
    7CHTO  H186 2608   7.300   3.189   5.800 -1.0114 -1.1461 -0.1330
    7CHTO   N17 2609   7.330   3.287   5.981  0.3511 -0.1653  0.2410
    7CHTO  H174 2610   7.382   3.214   6.041 -1.1435  0.4159  2.3127
    7CHTO  H175 2611   7.281   3.345   6.058 -2.0350 -1.2396 -0.4408
    7CHTO   C97 2612   7.160   3.101   5.945 -0.5497 -0.2368  0.0364
    7CHTO  H184 2613   7.099   3.137   6.029  0.6612 -1.0928  1.3040
    7CHTO   O64 2614   7.084   3.030   5.849 -0.8026 -0.4152 -0.5916
    7CHTO  C104 2615   6.977   3.114   5.809 -1.0642 -0.5245 -0.6576
    7CHTO  H191 2616   6.920   3.142   5.898 -1.2209 -1.6308 -0.4033
    7CHTO  C108 2617   6.882   3.030   5.718  0.0686  0.5632 -0.1628
    7CHTO   O71 2618   6.801   2.949   5.798 -0.1224 -0.2323 -0.0720
    7CHTO  H171 2619   6.745   2.897   5.744 -0.1800 -1.0092  0.7168
    7CHTO   O62 2620   7.245   2.993   5.987  0.0512  0.0117  0.0378
    7CHTO   C91 2621   7.207   2.931   6.109  0.0822 -0.6615  0.5024
    7CHTO  H178 2622   7.221   3.003   6.190  1.6015 -1.5228  1.0332
    7CHTO   C92 2623   7.317   2.816   6.138  0.4138 -1.0858  0.0941
    7CHTO  H179 2624   7.412   2.855   6.100  0.2398 -1.6375 -0.9255
    7CHTO   O66 2625   7.331   2.805   6.279 -0.0074  0.0515 -0.5997
    7CHTO  H166 2626   7.376   2.882   6.310  0.4578  0.0470 -1.2485
    7CHTO   C93 2627   7.265   2.666   6.093  0.3194  0.3088  0.6354
    7CHTO  H180 2628   7.336   2.598   6.142  0.5875  0.2357  0.1473
    7CHTO   N16 2629   7.266   2.639   5.949  0.5286  0.4806 -0.1898
    7CHTO  H172 2630   7.191   2.565   5.926  1.5424  0.0275 -2.1467
    7CHTO  H173 2631   7.361   2.590   5.935  0.7498  1.0789 -0.8341
    7CHTO   C94 2632   7.121   2.637   6.153  0.3034 -0.4802  0.3954
    7CHTO  H181 2633   7.055   2.586   6.083 -0.1235  0.9033 -0.2222
    7CHTO   O61 2634   7.050   2.757   6.191 -0.0889 -0.2423 -0.2166
    7CHTO   C95 2635   7.062   2.871   6.107  0.0989 -0.3227  0.0266
    7CHTO  H182 2636   7.039   2.850   6.003 -2.2023 -0.3993  0.5260
    7CHTO  C106 2637   6.960   2.972   6.164 -0.3489 -0.2376  0.0573
    7CHTO   O69 2638   6.819   2.934   6.163 -0.0353  0.2619  0.2090
    7CHTO  H169 2639   6.782   3.011   6.124 -1.6030 -0.0951  0.9653
    7CHTO   O63 2640   7.143   2.562   6.276 -0.4815 -0.2755 -0.0535
    7CHTO   C96 2641   7.071   2.422   6.275 -0.4656  0.1062 -0.2080
    7CHTO  H183 2642   7.006   2.410   6.189  0.7503 -0.9010 -0.9985
    7CHTO   C98 2643   6.980   2.384   6.396 -0.3156  0.5904  0.0458
    7CHTO  H185 2644   6.909   2.467   6.411  0.0955  0.9791 -0.1436
    7CHTO   O67 2645   6.903   2.266   6.369  0.8193 -0.1824 -0.4159
    7CHTO  H167 2646   6.952   2.187   6.356 -0.1947 -1.3573  2.5867
    7CHTO  C102 2647   7.069   2.346   6.532 -0.2086  0.0753  0.2337
    7CHTO  H189 2648   6.999   2.286   6.592 -1.9287  1.4347 -0.3845
    7CHTO   N18 2649   7.120   2.464   6.614 -0.1535  0.0237 -0.5901
    7CHTO  H176 2650   7.042   2.537   6.633  1.1664  1.1834  0.4690
    7CHTO  H177 2651   7.213   2.509   6.582 -0.0290 -0.6313 -1.1530
    7CHTO  C105 2652   7.188   2.255   6.488 -0.2484 -0.3806  0.0265
    7CHTO  H192 2653   7.282   2.311   6.496 -0.2532 -0.2868 -0.5128
    7CHTO   O65 2654   7.186   2.205   6.348 -0.1576  0.1130  0.6269
    7CHTO  C100 2655   7.190   2.321   6.252 -0.4441  0.8060 -0.2786
    7CHTO  H187 2656   7.291   2.362   6.264 -0.1607 -0.3495  1.4689
    7CHTO  C107 2657   7.192   2.270   6.107 -0.0687  0.2599  0.5807
    7CHTO   O70 2658   7.327   2.225   6.085  0.0197  0.0868 -0.1785
    7CHTO  H170 2659   7.346   2.142   6.124  1.3342  1.5574  2.3858
    7CHTO   O57 2660   7.199   2.136   6.603 -0.3376 -0.3709  0.1735
    7CHTO   C85 2661   7.314   2.045   6.602 -0.8200  0.0121 -0.5935
    7CHTO  H157 2662   7.384   2.089   6.529  1.6165 -0.6271  1.2835
    7CHTO   C83 2663   7.282   1.903   6.549  0.2679 -0.5059  0.4171
    7CHTO  H155 2664   7.238   1.914   6.449 -1.0598 -0.2654  1.0139
    7CHTO   O56 2665   7.184   1.844   6.636 -0.4471  0.2190 -0.3798
    7CHTO  H135 2666   7.210   1.852   6.725  2.0542  0.0629 -1.0411
    7CHTO   C81 2667   7.415   1.825   6.540  0.2148 -0.1755 -0.9449
    7CHTO  H153 2668   7.485   1.886   6.483  1.5124  1.3770  2.1210
    7CHTO   N14 2669   7.395   1.696   6.472 -0.1253 -0.2488 -0.6743
    7CHTO  H141 2670   7.411   1.602   6.520 -1.2521 -0.6289 -1.0496
    7CHTO  H142 2671   7.441   1.694   6.375  0.8150  2.2023 -0.3073
    7CHTO   C79 2672   7.477   1.811   6.684 -0.3113 -0.0248 -0.6349
    7CHTO  H151 2673   7.576   1.767   6.674 -0.6649 -0.9964  0.0345
    7CHTO   O52 2674   7.494   1.942   6.752  0.5375 -0.0956 -0.0973
    7CHTO   C86 2675   7.382   2.036   6.746  0.1148 -0.4728  0.1995
    7CHTO  H158 2676   7.302   2.010   6.819 -1.4255  3.0751 -0.0881
    7CHTO   C90 2677   7.428   2.175   6.794 -0.8569 -0.1470  0.5188
    7CHTO   O60 2678   7.554   2.220   6.750 -0.0388 -0.5476  0.2304
    7CHTO  H138 2679   7.568   2.207   6.658  0.2395  1.4439 -0.0341
    7CHTO   O50 2680   7.412   1.733   6.793  0.0686 -0.5699  0.1055
    7CHTO   C73 2681   7.354   1.605   6.828 -0.3827  0.0810 -0.1287
    7CHTO  H145 2682   7.409   1.525   6.776  0.6172 -1.1358  2.7180
    7CHTO   C74 2683   7.205   1.574   6.794 -0.1452 -0.2837  0.5293
    7CHTO  H146 2684   7.188   1.584   6.686  2.2722 -2.8779 -0.1682
    7CHTO   O54 2685   7.188   1.429   6.820 -0.1120 -0.3041 -0.2434
    7CHTO  H133 2686   7.262   1.373   6.808  0.1710  0.1147 -0.4709
    7CHTO   C75 2687   7.105   1.663   6.886  0.5083 -0.3803  0.1115
    7CHTO  H147 2688   7.122   1.769   6.861 -1.6589 -0.6851 -2.8766
    7CHTO   N13 2689   6.961   1.633   6.869  0.2616  0.4774  0.0372
    7CHTO  H139 2690   6.903   1.671   6.952 -0.2195  0.8409 -0.4642
    7CHTO  H140 2691   6.950   1.526   6.869 -2.8923  0.7224  2.7448
    7CHTO   C76 2692   7.146   1.666   7.039 -0.5166 -0.3765 -0.7366
    7CHTO  H148 2693   7.112   1.571   7.080 -2.1068  0.5150  0.0337
    7CHTO   O49 2694   7.289   1.677   7.055  0.1404  0.2203  0.8364
    7CHTO   C77 2695   7.371   1.582   6.984 -0.1313  0.4848  0.3694
    7CHTO  H149 2696   7.338   1.484   7.017  1.6053  0.1936  1.3374
    7CHTO   C88 2697   7.513   1.605   7.028 -0.1980 -0.2431 -0.4756
    7CHTO   O58 2698   7.548   1.632   7.179  0.4842 -0.1310  0.3080
    7CHTO  H136 2699   7.630   1.677   7.189  0.6907 -1.1273  3.7266
    7CHTO   O51 2700   7.076   1.780   7.107 -0.4707 -0.5728  0.0559
    7CHTO   C78 2701   7.125   1.821   7.255 -0.1031 -0.0612  0.2114
    7CHTO  H150 2702   7.234   1.801   7.262  0.1581  0.7577 -1.3504
    7CHTO   C80 2703   7.056   1.736   7.366 -0.4283 -0.2709  0.5865
    7CHTO  H152 2704   6.947   1.744   7.351 -0.5316  1.4570  2.0760
    7CHTO   O55 2705   7.084   1.598   7.347  0.2255  0.2451 -0.6735
    7CHTO  H134 2706   7.128   1.572   7.426  0.6921  0.0911 -0.9904
    7CHTO   C84 2707   7.083   1.798   7.513 -0.2540  0.5275 -0.3804
    7CHTO  H156 2708   7.188   1.778   7.537  0.2496  2.3910 -0.9650
    7CHTO   N15 2709   7.002   1.729   7.622  0.3107  0.0738  0.0255
    7CHTO  H143 2710   6.954   1.784   7.699 -1.0588 -0.6052 -0.3138
    7CHTO  H144 2711   7.047   1.640   7.660 -0.9635 -1.1793 -1.3015
    7CHTO   C87 2712   7.073   1.955   7.511  0.0946  0.0526 -0.1614
    7CHTO  H159 2713   6.966   1.978   7.510  0.1414  0.3276  0.9330
    7CHTO   O53 2714   7.155   2.017   7.395 -0.1456 -0.0303  0.3127
    7CHTO   C82 2715   7.098   1.970   7.272  0.7159 -0.1640 -0.4211
    7CHTO  H154 2716   6.991   1.992   7.275  1.1039  1.9617 -1.0177
    7CHTO   C89 2717   7.159   2.051   7.154  0.5928 -0.3866  0.5458
    7CHTO   O59 2718   7.298   2.039   7.144  0.1190 -0.0579 -0.1440
    7CHTO  H137 2719   7.332   1.954   7.165  1.9707  1.1869  2.1823
    7CHTO   O45 2720   7.134   2.007   7.641 -0.1987 -0.3867 -0.1645
    7CHTO   C67 2721   7.082   2.138   7.677 -0.0929 -0.5379 -0.4075
    7CHTO  H124 2722   7.077   2.195   7.584  1.0180  2.2289  1.1881
    7CHTO   C65 2723   6.941   2.136   7.751 -0.2189  0.1474 -0.3493
    7CHTO  H122 2724   6.926   2.035   7.789 -0.7513  0.5549  0.5417
    7CHTO   O44 2725   6.849   2.153   7.642  0.2886 -0.0296  0.1346
    7CHTO  H102 2726   6.780   2.216   7.642 -0.2283 -0.5392  2.6765
    7CHTO   C63 2727   6.937   2.232   7.871  0.4228  0.4955  0.6410
    7CHTO  H120 2728   6.993   2.185   7.951  0.5809  0.1022  0.3025
    7CHTO   N11 2729   6.797   2.231   7.922  0.1329 -0.9921  0.8377
    7CHTO  H108 2730   6.808   2.275   8.019  0.3002 -1.5132  1.0555
    7CHTO  H109 2731   6.765   2.129   7.912  1.7682 -1.1296 -3.7489
    7CHTO   C61 2732   7.007   2.364   7.838 -0.6257  0.0922 -0.2879
    7CHTO  H118 2733   6.999   2.444   7.913 -0.5464  1.3776 -1.6100
    7CHTO   O40 2734   7.146   2.341   7.815 -0.2995  0.5077  0.1979
    7CHTO   C68 2735   7.191   2.210   7.763 -0.2043 -0.7568  0.3863
    7CHTO  H125 2736   7.230   2.149   7.848  1.5896 -0.1120  0.0411
    7CHTO   C72 2737   7.315   2.246   7.672  0.4166  0.2576 -0.3498
    7CHTO   O48 2738   7.377   2.132   7.605 -0.0760 -0.4094 -0.5466
    7CHTO  H105 2739   7.470   2.137   7.613 -0.1935 -0.2473  0.8994
    7CHTO   O38 2740   6.971   2.427   7.705 -0.4805  0.8422  0.1509
    7CHTO   C55 2741   6.877   2.534   7.707  0.2674 -0.2747  0.1354
    7CHTO  H112 2742   6.827   2.550   7.804 -2.0032 -2.9529 -0.5314
    7CHTO   C56 2743   6.769   2.513   7.590  0.1390  0.1323  0.0073
    7CHTO  H113 2744   6.819   2.486   7.496 -0.9007  2.8036 -1.3608
    7CHTO   O42 2745   6.700   2.394   7.630 -0.3213 -0.6133  0.3182
    7CHTO  H100 2746   6.655   2.396   7.712 -1.4097 -1.3575 -0.2457
    7CHTO   C57 2747   6.668   2.641   7.583 -0.2175 -0.4325 -0.1393
    7CHTO  H114 2748   6.640   2.651   7.688  0.3565  0.9993 -0.1066
    7CHTO   N10 2749   6.562   2.624   7.480  0.3941 -0.1986  0.7270
    7CHTO  H106 2750   6.479   2.574   7.527 -0.7711 -1.6003 -2.6754
    7CHTO  H107 2751   6.526   2.720   7.447  0.5984 -0.6274 -0.7477
    7CHTO   C58 2752   6.767   2.762   7.547 -0.4848  0.6479  0.4057
    7CHTO  H115 2753   6.825   2.737   7.457 -1.8288 -1.9481  0.2137
    7CHTO   O37 2754   6.861   2.773   7.655 -0.0406  0.4776 -0.4642
    7CHTO   C59 2755   6.954   2.663   7.679 -0.2637  0.3450 -0.1126
    7CHTO  H116 2756   7.011   2.645   7.587 -1.1848  1.8403 -1.0110
    7CHTO   C70 2757   7.043   2.705   7.800  0.4830 -1.4251  0.3178
    7CHTO   O46 2758   6.977   2.720   7.930  0.0783  0.6385  0.0248
    7CHTO  H103 2759   6.960   2.636   7.970  0.4197  0.7106  0.3257
    7CHTO   O39 2760   6.705   2.900   7.520  0.0560  0.9155  0.4425
    7CHTO   C60 2761   6.758   2.965   7.409 -0.0409  1.1880  0.7007
    7CHTO  H117 2762   6.848   2.910   7.380 -2.3740 -2.4977  0.1113
    7CHTO   C62 2763   6.665   2.960   7.280 -0.3937 -0.0767  0.7184
    7CHTO  H119 2764   6.659   2.853   7.253 -0.9417 -0.0291  0.6481
    7CHTO   O43 2765   6.537   3.013   7.322  0.0015  0.2731  0.0104
    7CHTO  H101 2766   6.462   2.998   7.269 -1.5888 -1.0516  2.5239
    7CHTO   C66 2767   6.731   3.042   7.159  0.3886  0.6366  0.4268
    7CHTO  H123 2768   6.815   2.982   7.125 -0.4784 -0.1662 -0.3417
    7CHTO   N12 2769   6.643   3.055   7.040 -0.4607  0.0674 -0.2409
    7CHTO  H110 2770   6.708   3.103   6.969 -3.3718  1.4213 -2.1021
    7CHTO  H111 2771   6.555   3.111   7.069 -1.3863 -2.2962  1.6352
    7CHTO   C69 2772   6.768   3.185   7.215  0.0590  0.4798 -0.1701
    7CHTO  H126 2773   6.675   3.237   7.246  0.2979  0.2145  0.9944
    7CHTO   O41 2774   6.860   3.179   7.342 -0.3140 -0.2061  0.4387
    7CHTO   C64 2775   6.799   3.106   7.443  0.1725 -0.1591  0.2832
    7CHTO  H121 2776   6.709   3.161   7.478  0.0517  0.1058 -0.4464
    7CHTO   C71 2777   6.900   3.117   7.555  0.3586  1.2563  0.4176
    7CHTO   O47 2778   6.872   3.225   7.642  0.0759  0.3703 -0.4150
    7CHTO  H104 2779   6.850   3.303   7.596 -1.3720 -1.0993 -2.3046
    7CHTO   O34 2780   6.831   3.270   7.105  0.0608 -0.3055 -0.1895
    7CHTO   C49 2781   6.939   3.379   7.063 -0.7439  0.0329 -0.1955
    7CHTO   H91 2782   6.874   3.466   7.049  0.1798  0.6002 -0.9889
    7CHTO   C47 2783   7.000   3.330   6.934 -0.0262  0.3942 -0.2779
    7CHTO   H89 2784   7.067   3.413   6.904 -0.7611  0.3614 -2.0569
    7CHTO   O33 2785   6.898   3.310   6.830 -0.0419  0.5597 -0.5247
    7CHTO   H70 2786   6.842   3.235   6.842  0.2304  0.4430  0.0448
    7CHTO   C45 2787   7.095   3.197   6.959 -0.1897  0.2577 -0.6724
    7CHTO   H87 2788   7.041   3.101   6.954  2.8729 -1.5419 -0.6297
    7CHTO    N8 2789   7.206   3.193   6.860  0.4315 -0.1290 -0.3687
    7CHTO   H75 2790   7.240   3.091   6.848 -0.5391 -0.4063 -0.7964
    7CHTO   H76 2791   7.281   3.266   6.885 -0.6233  2.2696 -3.8111
    7CHTO   C43 2792   7.140   3.191   7.112 -0.1909  0.2808  0.0854
    7CHTO   H85 2793   7.056   3.144   7.163 -0.7080  0.5137 -0.5496
    7CHTO   O29 2794   7.168   3.322   7.163 -0.3575 -0.4866  0.3460
    7CHTO   C50 2795   7.058   3.410   7.167 -0.4772  0.3448  0.5809
    7CHTO   H92 2796   7.023   3.410   7.271 -1.6251 -0.3301  0.2056
    7CHTO   C54 2797   7.099   3.562   7.151  0.5163  0.5691 -0.3743
    7CHTO   O36 2798   7.191   3.610   7.250 -0.1358  0.5482 -0.2653
    7CHTO   H72 2799   7.260   3.547   7.248 -1.1939 -0.6098 -1.7808
    7CHTO   O27 2800   7.246   3.095   7.140 -0.0996 -0.5075 -0.5413
    7CHTO   C37 2801   7.356   3.052   7.231 -0.0534 -0.0913  0.4994
    7CHTO   H79 2802   7.400   3.124   7.302  1.2359  0.0274 -0.4020
    7CHTO   C38 2803   7.304   2.939   7.325 -0.6225 -0.4776  0.3961
    7CHTO   H80 2804   7.259   2.858   7.266  1.9961  0.4932 -3.0504
    7CHTO   O31 2805   7.199   2.994   7.410  0.5552  0.4869 -0.3226
    7CHTO   H68 2806   7.194   2.935   7.482 -1.5341  2.1977  1.0356
    7CHTO   C39 2807   7.423   2.879   7.406 -0.9870  0.3869 -0.6188
    7CHTO   H81 2808   7.448   2.953   7.482 -1.8991  1.9157 -1.7919
    7CHTO    N7 2809   7.381   2.759   7.487 -0.2329  0.1928 -0.0617
    7CHTO   H73 2810   7.457   2.724   7.555 -1.2045  1.0035  1.4865
    7CHTO   H74 2811   7.358   2.674   7.425 -2.3669  0.1208  0.7741
    7CHTO   C40 2812   7.549   2.848   7.322 -0.0961 -0.0921 -1.0556
    7CHTO   H82 2813   7.533   2.759   7.261 -1.1919 -0.5034 -0.1871
    7CHTO   O26 2814   7.575   2.965   7.241  0.1430 -0.0885 -0.4316
    7CHTO   C41 2815   7.472   3.000   7.145 -0.0404 -0.1284  0.3019
    7CHTO   H83 2816   7.439   2.907   7.096  0.1405 -0.3680  0.6328
    7CHTO   C52 2817   7.532   3.100   7.039  0.7453  0.1124 -0.3764
    7CHTO   O35 2818   7.576   3.240   7.108  0.6582  0.6057 -0.8290
    7CHTO   H71 2819   7.646   3.232   7.170  0.0990  1.7532 -0.0339
    7CHTO   O28 2820   7.662   2.802   7.401 -0.2705 -0.0441  0.1233
    7CHTO   C42 2821   7.790   2.772   7.338 -0.0872 -0.4585 -0.0464
    7CHTO   H84 2822   7.847   2.741   7.426  0.4153 -3.0774 -1.2742
    7CHTO   C44 2823   7.873   2.888   7.279 -0.0550 -0.1589 -0.3565
    7CHTO   H86 2824   7.817   2.928   7.194  2.1770 -0.1474 -1.8694
    7CHTO   O32 2825   7.873   2.991   7.382 -0.3594 -0.3309 -0.1907
    7CHTO   H69 2826   7.910   2.955   7.460 -1.2835  0.2131  0.5095
    7CHTO   C48 2827   8.011   2.851   7.228 -0.5882  0.2297  0.4589
    7CHTO   H90 2828   8.070   2.817   7.313 -0.7412 -0.7144  0.1872
    7CHTO    N9 2829   8.089   2.963   7.169  0.3005 -0.4280 -0.5011
    7CHTO   H77 2830   8.087   2.990   7.065 -3.0837 -0.5309 -0.5058
    7CHTO   H78 2831   8.075   3.050   7.231 -1.7185 -3.9542  4.3177
    7CHTO   C51 2832   7.992   2.739   7.125 -0.3067 -0.3389  0.5368
    7CHTO   H93 2833   7.924   2.776   7.050 -1.5740 -1.0044  1.3378
    7CHTO   O30 2834   7.929   2.634   7.205 -0.1219  0.3770  0.2229
    7CHTO   C46 2835   7.796   2.653   7.237  0.1714  0.1087  0.7251
    7CHTO   H88 2836   7.736   2.684   7.152  0.8183 -4.0553 -1.3775
    7CHTO   C53 2837   7.751   2.525   7.299  0.1269 -0.3472  0.3666
    7CHTO   O72 2838   7.611   2.524   7.325 -0.5383  0.3377 -0.0492
    7CHTO  H199 2839   7.582   2.575   7.398 -2.0686 -0.8209  0.1757
    7CHTO   O22 2840   8.106   2.676   7.072  0.2991 -0.1532  0.4183
    7CHTO   C31 2841   8.110   2.584   6.950 -0.1070 -0.2712  0.3663
    7CHTO   H59 2842   8.204   2.525   6.955 -0.1989 -0.4729 -0.2402
    7CHTO   C29 2843   7.999   2.473   6.940 -0.5080 -0.1216  0.2260
    7CHTO   H57 2844   7.899   2.515   6.957 -0.7114 -0.5280  0.0695
    7CHTO   O21 2845   8.017   2.398   7.057  0.0463 -0.1497  0.5606
    7CHTO   H37 2846   7.943   2.341   7.064 -1.1829  0.6155 -4.2009
    7CHTO   C27 2847   8.013   2.381   6.813 -0.4881  0.5489  0.4416
    7CHTO   H55 2848   8.108   2.326   6.820 -1.1818 -0.7031  0.1205
    7CHTO    N5 2849   7.900   2.285   6.804 -0.6825 -0.0713 -0.6384
    7CHTO   H43 2850   7.843   2.290   6.713 -0.0711  0.7109 -0.9814
    7CHTO   H44 2851   7.929   2.183   6.824  1.7332  0.5982 -0.5166
    7CHTO   C25 2852   8.028   2.473   6.682 -0.1043 -0.1053  0.0613
    7CHTO   H53 2853   7.933   2.528   6.666 -0.1672 -0.1533  0.2775
    7CHTO   O17 2854   8.135   2.569   6.704  0.1990 -0.2123 -0.5188
    7CHTO   C32 2855   8.111   2.664   6.813  0.0477 -0.9942 -0.0106
    7CHTO   H60 2856   8.015   2.713   6.802  0.5496  0.1886  0.7164
    7CHTO   C36 2857   8.220   2.767   6.803 -0.2155  0.1887  0.5662
    7CHTO   O25 2858   8.205   2.825   6.676 -0.3481  0.1112 -0.2450
    7CHTO   H40 2859   8.139   2.890   6.686 -0.9038 -0.2570 -1.4918
    7CHTO   O15 2860   8.064   2.395   6.560  0.3700  0.4999  0.2879
    7CHTO   C19 2861   8.017   2.434   6.423  0.2151  0.0421  0.0636
    7CHTO   H47 2862   8.059   2.358   6.355 -0.6991  1.1350 -1.7919
    7CHTO   C20 2863   7.861   2.442   6.409 -0.1587 -0.3104 -0.1881
    7CHTO   H48 2864   7.815   2.503   6.487 -0.5977 -0.2826 -0.4649
    7CHTO   O19 2865   7.803   2.311   6.416  0.1916 -0.6629 -1.0420
    7CHTO   H35 2866   7.789   2.276   6.329 -0.7398 -0.1971 -1.0865
    7CHTO   C21 2867   7.822   2.508   6.269  0.2559  0.0318  0.1137
    7CHTO   H49 2868   7.829   2.441   6.183  2.0158  1.3352 -0.7795
    7CHTO    N4 2869   7.674   2.530   6.268  0.2951  0.6677 -0.7399
    7CHTO   H41 2870   7.632   2.607   6.331 -1.2762 -0.1752 -0.7364
    7CHTO   H42 2871   7.618   2.438   6.275 -0.5159  1.0983 -1.4338
    7CHTO   C22 2872   7.898   2.638   6.236  0.4419 -0.5310  0.4794
    7CHTO   H50 2873   7.874   2.715   6.310 -2.2303  0.6156 -1.5068
    7CHTO   O14 2874   8.037   2.616   6.248 -0.3604 -0.4440 -0.0679
    7CHTO   C23 2875   8.079   2.576   6.376 -0.0680 -0.0356 -1.0990
    7CHTO   H51 2876   8.044   2.659   6.440  2.2474  1.8729 -2.2259
    7CHTO   C34 2877   8.230   2.575   6.386  0.0492 -0.2020 -0.0986
    7CHTO   O23 2878   8.277   2.713   6.381 -0.3300 -0.1206  0.0238
    7CHTO   H38 2879   8.235   2.766   6.446  0.6264  0.6300  0.0246
    7CHTO   O16 2880   7.879   2.691   6.102  0.2672  0.2723  0.2774
    7CHTO   C24 2881   7.834   2.856   6.102 -0.8022  0.1309  0.1496
    7CHTO   H52 2882   7.788   2.887   6.196 -2.4262  1.7338 -1.1401
    7CHTO   C26 2883   7.733   2.871   5.986  0.1487  0.2106  0.3384
    7CHTO   H54 2884   7.792   2.839   5.898 -0.0367  1.3761 -0.2158
    7CHTO   O20 2885   7.620   2.779   5.997 -0.6880  0.1955  0.7196
    7CHTO   H36 2886   7.573   2.777   5.916 -0.2929  0.0725  0.4895
    7CHTO   C30 2887   7.677   3.019   5.967  0.9775  0.7659 -0.8918
    7CHTO   H58 2888   7.609   3.047   6.049  1.4857  0.6529 -0.4297
    7CHTO    N6 2889   7.593   3.031   5.844 -0.4127 -0.1472  0.5799
    7CHTO   H45 2890   7.488   3.052   5.859 -0.0284  0.0117  3.3028
    7CHTO   H46 2891   7.606   2.943   5.782  2.0000 -0.4373  1.4583
    7CHTO   C33 2892   7.789   3.124   5.975  0.3524 -0.3376 -0.2738
    7CHTO   H61 2893   7.838   3.141   5.878  1.6744  0.6233  0.5360
    7CHTO   O18 2894   7.889   3.085   6.068  0.2982  0.4168 -0.6868
    7CHTO   C28 2895   7.942   2.956   6.073 -0.8979  0.0288 -0.2455
    7CHTO   H56 2896   7.995   2.927   5.982  0.6618  0.9422  0.3571
    7CHTO   C35 2897   8.057   2.958   6.174 -0.7614  0.1775 -0.5431
    7CHTO   O24 2898   8.019   2.971   6.313 -0.0499 -0.0198 -0.0965
    7CHTO   H39 2899   8.074   2.919   6.369 -0.2783 -1.6817 -1.3778
    7CHTO    O9 2900   7.736   3.253   6.002 -0.1433  0.5721 -0.1000
    7CHTO   C13 2901   7.856   3.367   6.024  0.5166 -0.1368 -0.1548
    7CHTO   H26 2902   7.942   3.341   5.958 -0.8423  0.0863 -2.0233
    7CHTO   C11 2903   7.901   3.376   6.174  0.0551 -0.3422 -1.0571
    7CHTO   H24 2904   7.958   3.288   6.206  2.2161  1.2784 -0.3194
    7CHTO    O8 2905   7.786   3.380   6.257  0.2097 -0.5634  0.0730
    7CHTO    H3 2906   7.813   3.390   6.346 -0.2207 -1.6749  0.3375
    7CHTO    C9 2907   7.993   3.497   6.188 -0.1951  0.0089  0.2969
    7CHTO   H22 2908   8.064   3.484   6.104  1.0313  1.4461  1.0903
    7CHTO    N2 2909   8.075   3.507   6.310 -0.4613 -0.0205 -0.1748
    7CHTO   H10 2910   8.017   3.466   6.391 -0.4688  0.6549  0.1677
    7CHTO   H11 2911   8.171   3.458   6.301  0.5000  1.5067  1.4423
    7CHTO    C7 2912   7.916   3.623   6.144 -0.4971 -0.6350  0.2597
    7CHTO   H20 2913   7.988   3.705   6.162 -1.2369 -0.2683  1.6191
    7CHTO    O4 2914   7.878   3.617   6.008  0.0728 -0.2373  0.4950
    7CHTO   C14 2915   7.802   3.501   5.966  0.2868  0.1889  0.3952
    7CHTO   H27 2916   7.813   3.485   5.857  1.0539 -0.3147  0.5448
    7CHTO   C18 2917   7.650   3.525   5.994  0.4930  0.1197 -0.4703
    7CHTO   O13 2918   7.605   3.629   5.913  0.3681 -0.4825  0.4192
    7CHTO    H7 2919   7.634   3.714   5.939 -1.6147 -0.6265  3.2605
    7CHTO    O2 2920   7.781   3.675   6.257 -0.0809 -0.6548 -0.2653
    7CHTO    C1 2921   7.790   3.812   6.304 -0.2772 -0.1361 -0.1739
    7CHTO   H14 2922   7.875   3.860   6.250 -2.5287  1.3938 -2.4732
    7CHTO    C2 2923   7.815   3.820   6.455  0.2262  0.0860 -0.3169
    7CHTO   H15 2924   7.771   3.735   6.509  0.0867  2.0873  2.8074
    7CHTO    O6 2925   7.958   3.802   6.473  0.0650 -0.2385  0.7108
    7CHTO    H1 2926   7.987   3.741   6.409 -0.7360  0.5431 -0.4086
    7CHTO    C3 2927   7.774   3.959   6.529 -0.7339 -0.0336  0.4139
    7CHTO   H16 2928   7.857   4.023   6.496 -0.0083  0.1593  2.4995
    7CHTO    N1 2929   7.774   3.949   6.684 -0.0261  0.1149 -0.0056
    7CHTO    H8 2930   7.679   3.988   6.715  0.2292  0.3347  0.4985
    7CHTO    H9 2931   7.782   3.847   6.720 -0.2735  0.5036  1.1470
    7CHTO    C4 2932   7.643   4.019   6.467 -0.0199  0.0929  0.5365
    7CHTO   H17 2933   7.556   3.977   6.515  0.5785 -1.8243 -0.0168
    7CHTO    O1 2934   7.639   4.009   6.324 -0.4704  0.4322  0.4068
    7CHTO    C5 2935   7.649   3.877   6.274  0.3300  0.0505 -0.6699
    7CHTO   H18 2936   7.577   3.817   6.329 -1.9843 -0.5094 -4.1810
    7CHTO   C16 2937   7.602   3.878   6.124  0.2233 -1.3067 -0.0237
    7CHTO   O11 2938   7.679   3.953   6.032  0.0892 -0.6364 -0.3021
    7CHTO    H5 2939   7.623   3.984   5.963  1.9265 -1.8039 -2.3716
    7CHTO    O3 2940   7.646   4.157   6.493 -0.0129 -0.0158 -0.1534
    7CHTO    C6 2941   7.520   4.230   6.526  0.5571 -0.8602  0.3269
    7CHTO   H19 2942   7.435   4.162   6.522  0.1755 -0.4512  1.1461
    7CHTO    C8 2943   7.532   4.278   6.674  0.2433 -0.4542 -0.2505
    7CHTO   H21 2944   7.628   4.330   6.681  0.7537 -1.4186  0.1652
    7CHTO    O7 2945   7.524   4.161   6.766  0.3239  0.7209  0.9876
    7CHTO    H2 2946   7.436   4.141   6.792 -0.1652 -0.1235 -1.2408
    7CHTO   C12 2947   7.405   4.373   6.712 -0.4451  0.4701 -0.7350
    7CHTO   H25 2948   7.316   4.308   6.699 -1.1648  0.6685  2.7184
    7CHTO    N3 2949   7.409   4.426   6.852 -0.5003 -0.3181 -0.0078
    7CHTO   H12 2950   7.401   4.346   6.924 -0.6203  1.8176  2.4324
    7CHTO   H13 2951   7.325   4.492   6.870  1.1711  2.8804 -3.2801
    7CHTO   C15 2952   7.391   4.484   6.602  0.4704  0.3951 -0.2736
    7CHTO   H28 2953   7.470   4.557   6.618  0.1640  0.2674  2.0164
    7CHTO   O10 2954   7.247   4.540   6.607  0.4585 -0.4920  0.5044
    7CHTO    H4 2955   7.244   4.628   6.575  1.0599 -0.4506  0.5584
    7CHTO    O5 2956   7.382   4.426   6.469  0.0679  1.1140 -0.1042
    7CHTO   C10 2957   7.494   4.348   6.429  0.3007  0.1033 -0.1785
    7CHTO   H23 2958   7.583   4.410   6.430 -1.3481  2.5140  0.5278
    7CHTO   C17 2959   7.479   4.298   6.281  0.7894  0.2081 -0.5241
    7CHTO   O12 2960   7.474   4.404   6.192  0.0477 -0.2784 -0.5359
    7CHTO    H6 2961   7.382   4.418   6.206  0.2920 -0.5371  1.5783
    8CHTO  H203 2962   7.248   7.785   1.022 -1.1625 -1.8953 -0.3587
    8CHTO   O82 2963   7.212   7.814   1.104 -0.0463 -0.2775 -0.4368
    8CHTO  C123 2964   7.067   7.839   1.088 -0.4377 -0.1405  0.8918
    8CHTO  H227 2965   7.013   7.748   1.121  0.5185 -0.6057  1.2035
    8CHTO   O77 2966   7.045   7.951   1.185 -0.3293 -0.0784  0.2376
    8CHTO  C118 2967   6.908   7.983   1.192  0.2865 -0.4427  0.5891
    8CHTO  H222 2968   6.854   7.894   1.229 -1.4827  0.3072 -0.1391
    8CHTO  C125 2969   6.894   8.097   1.303 -0.0582 -0.3037 -0.1742
    8CHTO   O84 2970   6.951   8.217   1.264 -0.4590 -0.5243 -0.6039
    8CHTO  H205 2971   6.888   8.286   1.257  0.3750  0.5796  1.9876
    8CHTO  C114 2972   6.844   8.025   1.058 -0.3702  0.0461  0.4934
    8CHTO  H218 2973   6.892   8.119   1.030 -0.7126  0.9851  2.9683
    8CHTO  C116 2974   6.872   7.923   0.948  0.4682  0.0607  0.2721
    8CHTO  H220 2975   6.807   7.836   0.969  0.9493 -0.7889 -1.7291
    8CHTO   O79 2976   6.827   7.980   0.830 -0.3703  0.4074 -0.4266
    8CHTO  H201 2977   6.737   8.006   0.827 -0.1974  1.3205  1.5503
    8CHTO  C120 2978   7.024   7.881   0.941  0.1676 -0.0813  0.4544
    8CHTO  H224 2979   7.085   7.967   0.907  2.6472 -2.4451 -1.3335
    8CHTO   N21 2980   7.055   7.781   0.834 -0.8042 -0.1177 -1.0844
    8CHTO  H211 2981   7.068   7.841   0.745  3.0272 -1.0472 -1.2127
    8CHTO  H212 2982   6.975   7.712   0.810  0.6586 -2.0307 -0.5873
    8CHTO   O75 2983   6.704   8.042   1.085  0.7705 -0.3121 -0.0419
    8CHTO  C112 2984   6.639   8.177   0.992  0.0860 -0.2405 -0.6120
    8CHTO  H216 2985   6.624   8.148   0.887  1.5229  1.7868 -1.4006
    8CHTO   O73 2986   6.737   8.287   1.004  0.1539  0.2041 -0.5500
    8CHTO  C113 2987   6.707   8.406   0.919  0.1109  0.3221 -0.1112
    8CHTO  H217 2988   6.686   8.381   0.813  0.4701  1.1026 -0.3702
    8CHTO  C124 2989   6.824   8.498   0.929 -0.2038  0.1628  1.3022
    8CHTO   O83 2990   6.940   8.439   0.874  0.2238  0.2904  0.5808
    8CHTO  H204 2991   6.967   8.363   0.922  3.8328  2.7396  2.6383
    8CHTO  C109 2992   6.572   8.469   0.959 -0.0807 -0.3942 -0.6935
    8CHTO  H213 2993   6.582   8.506   1.063 -0.6203 -2.3409  0.0652
    8CHTO  C110 2994   6.462   8.358   0.957 -0.2754  0.9571  0.4205
    8CHTO  H214 2995   6.434   8.328   0.856 -1.0668 -2.1286  1.4949
    8CHTO   O78 2996   6.336   8.413   1.011  0.0543  0.1084 -0.1206
    8CHTO  H200 2997   6.277   8.344   1.031  1.1165 -0.4717  1.0708
    8CHTO  C111 2998   6.504   8.231   1.040  0.6064  0.4866 -0.0869
    8CHTO  H215 2999   6.509   8.257   1.147 -0.1597  0.4221 -0.0316
    8CHTO   N19 3000   6.401   8.126   1.031 -0.0154  0.1322  0.0649
    8CHTO  H207 3001   6.428   8.043   1.095 -0.9374 -1.0722 -1.0838
    8CHTO  H208 3002   6.301   8.157   1.058  0.2137 -0.4174  1.6244
    8CHTO   O74 3003   6.545   8.579   0.876 -0.7272 -0.0815 -0.3445
    8CHTO  C115 3004   6.448   8.707   0.962  0.4230 -0.1664  0.2672
    8CHTO  H219 3005   6.413   8.674   1.060  1.4533 -0.2964  0.5927
    8CHTO   O76 3006   6.527   8.821   0.984 -0.2308  0.1140  0.8105
    8CHTO  C122 3007   6.591   8.873   0.865  0.5427  0.5329 -0.7004
    8CHTO  H226 3008   6.670   8.800   0.848 -0.1210 -1.1876  3.0655
    8CHTO  C126 3009   6.668   9.007   0.898  0.3339 -0.2738 -0.1560
    8CHTO   O85 3010   6.749   8.987   1.016 -0.0243  0.0102  0.3336
    8CHTO  H206 3011   6.829   8.947   0.987 -1.6180 -2.0186 -1.4524
    8CHTO  C121 3012   6.495   8.885   0.742 -0.0799  0.2159  0.7037
    8CHTO  H225 3013   6.505   8.979   0.684  1.5190 -1.7678 -2.3981
    8CHTO   O81 3014   6.520   8.777   0.645  0.5214 -0.0805  0.7367
    8CHTO  H202 3015   6.579   8.805   0.578  0.8552 -1.8187  0.3094
    8CHTO  C119 3016   6.346   8.873   0.794 -0.0418  0.4747  0.4460
    8CHTO  H223 3017   6.337   8.956   0.864 -1.1073 -0.1117  1.0246
    8CHTO  C117 3018   6.320   8.738   0.876 -0.0972  0.0930 -0.4158
    8CHTO  H221 3019   6.300   8.647   0.820 -0.3727 -0.1027  0.0007
    8CHTO   N20 3020   6.197   8.750   0.963 -0.2083  0.0537 -0.4348
    8CHTO  H209 3021   6.169   8.853   0.950  1.0125  0.3237 -1.0167
    8CHTO  H210 3022   6.130   8.681   0.914  1.4456 -0.4120 -2.1412
    8CHTO   O80 3023   6.239   8.911   0.691  0.5200  0.1690 -0.3279
    8CHTO  C103 3024   6.169   9.052   0.686 -0.9360  0.4678 -0.6821
    8CHTO  H190 3025   6.084   9.050   0.619 -0.9258  1.2717 -0.7308
    8CHTO  C101 3026   6.131   9.120   0.823  0.3796 -0.3191  0.5592
    8CHTO  H188 3027   6.223   9.133   0.881 -0.2165 -1.6120  1.8260
    8CHTO   O68 3028   6.044   9.035   0.885  0.6539 -0.1657 -0.2047
    8CHTO  H168 3029   5.959   9.039   0.846  0.2949  0.6577  0.6275
    8CHTO   C99 3030   6.072   9.265   0.787 -0.1348  0.1664  0.5202
    8CHTO  H186 3031   5.989   9.244   0.716 -0.0851  0.8213  0.2709
    8CHTO   N17 3032   6.023   9.334   0.904  0.3633  0.5296  0.3125
    8CHTO  H174 3033   5.927   9.288   0.922  0.5250  0.0488 -0.0701
    8CHTO  H175 3034   6.012   9.442   0.896 -0.7581  0.4344  0.5394
    8CHTO   C97 3035   6.177   9.352   0.716 -0.0580  0.3374 -0.0551
    8CHTO  H184 3036   6.254   9.382   0.789 -1.8975  1.0650  1.6340
    8CHTO   O64 3037   6.237   9.280   0.602 -0.0609  0.2053 -0.2778
    8CHTO  C104 3038   6.283   9.147   0.620  0.6463 -0.5164  0.9599
    8CHTO  H191 3039   6.376   9.143   0.678  0.6572 -1.0808  0.9044
    8CHTO  C108 3040   6.314   9.089   0.482  1.1264 -0.3388  0.4124
    8CHTO   O71 3041   6.445   9.132   0.440  0.5904  0.0060  0.1594
    8CHTO  H171 3042   6.469   9.097   0.356  0.1490 -0.2145  0.1233
    8CHTO   O62 3043   6.124   9.475   0.656 -0.4163  0.9230 -0.4034
    8CHTO   C91 3044   6.217   9.585   0.653 -0.5516 -0.5044 -0.4208
    8CHTO  H178 3045   6.315   9.571   0.699 -0.4215  0.0247 -0.5352
    8CHTO   C92 3046   6.156   9.710   0.732 -0.3043  0.8674  0.3851
    8CHTO  H179 3047   6.057   9.727   0.687 -0.8700 -0.6796  1.0101
    8CHTO   O66 3048   6.121   9.658   0.860 -0.3494  0.0237  0.0196
    8CHTO  H166 3049   6.061   9.715   0.903 -0.0442  0.4305 -0.0947
    8CHTO   C93 3050   6.246   9.836   0.731 -0.4053 -0.1839 -0.3867
    8CHTO  H180 3051   6.338   9.819   0.789  0.2591  1.2225 -0.9934
    8CHTO   N16 3052   6.191   9.956   0.791  0.6321  0.2548  0.8292
    8CHTO  H172 3053   6.277  10.012   0.826  1.0364 -0.5651  1.1607
    8CHTO  H173 3054   6.128   9.922   0.871  1.4101 -2.0521  0.4901
    8CHTO   C94 3055   6.294   9.878   0.588  0.6410  0.0403 -0.5924
    8CHTO  H181 3056   6.216   9.924   0.528 -0.5833 -2.1246 -0.7098
    8CHTO   O61 3057   6.315   9.763   0.509 -0.0444  0.3029 -0.0334
    8CHTO   C95 3058   6.250   9.636   0.511  0.4476 -0.2678 -0.5854
    8CHTO  H182 3059   6.155   9.646   0.459  1.6455  1.8890 -2.4381
    8CHTO  C106 3060   6.347   9.545   0.438 -0.6762  0.4535 -0.1766
    8CHTO   O69 3061   6.343   9.568   0.299  0.3952 -0.2486  0.2843
    8CHTO  H169 3062   6.406   9.516   0.253  1.0141  0.4988  0.2812
    8CHTO   O63 3063   6.436   9.971   0.576  0.2307 -0.5912 -1.0397
    8CHTO   C96 3064   6.475  10.022   0.448 -0.3426 -0.3476 -0.8758
    8CHTO  H183 3065   6.405   9.992   0.370  0.1534 -1.2910 -0.9628
    8CHTO   C98 3066   6.616   9.983   0.396  0.5493  0.1023 -0.2155
    8CHTO  H185 3067   6.695   9.996   0.471  1.0807  1.3451 -0.9623
    8CHTO   O67 3068   6.599   9.839   0.373  0.2214  0.9142  0.5115
    8CHTO  H167 3069   6.513   9.815   0.344  0.5761 -0.2075  0.3877
    8CHTO  C102 3070   6.658  10.047   0.257  0.1685  0.0981 -0.0983
    8CHTO  H189 3071   6.601   9.991   0.182 -0.2631 -0.3416  0.5569
    8CHTO   N18 3072   6.801  10.031   0.213  0.2730 -0.1383  0.2359
    8CHTO  H176 3073   6.805  10.095   0.126  0.6194  0.9259  1.0143
    8CHTO  H177 3074   6.824   9.933   0.176  0.8965  0.0315  0.1731
    8CHTO  C105 3075   6.609  10.197   0.262 -0.1393  0.4368 -0.2802
    8CHTO  H192 3076   6.679  10.256   0.322  0.4148  1.0370 -1.4879
    8CHTO   O65 3077   6.479  10.228   0.311  0.0109 -0.0069  0.2681
    8CHTO  C100 3078   6.453  10.184   0.447  0.0540  1.1339 -0.2689
    8CHTO  H187 3079   6.529  10.228   0.514 -0.3127 -1.1573  1.7048
    8CHTO  C107 3080   6.310  10.231   0.488  0.2277  0.1590  0.1210
    8CHTO   O70 3081   6.298  10.378   0.475  0.1161 -0.3336 -0.3348
    8CHTO  H170 3082   6.334  10.426   0.547  0.3817 -0.2305 -0.5366
    8CHTO   O57 3083   6.620  10.258   0.126  0.1667  0.0083 -0.0089
    8CHTO   C85 3084   6.719  10.355   0.078  0.3187 -0.1899  0.2682
    8CHTO  H157 3085   6.814  10.322   0.127  0.0400 -2.0788 -0.4284
    8CHTO   C83 3086   6.687  10.497   0.136  0.1117 -0.6956  0.1891
    8CHTO  H155 3087   6.710  10.496   0.242 -3.3527 -1.7086  1.0203
    8CHTO   O56 3088   6.546  10.511   0.118  0.0519  0.2697  0.0683
    8CHTO  H135 3089   6.514  10.593   0.150 -2.7814 -0.8432  0.2368
    8CHTO   C81 3090   6.774  10.604   0.061 -0.5741 -0.8115  0.0282
    8CHTO  H153 3091   6.880  10.591   0.085  0.0471  0.9136 -1.7080
    8CHTO   N14 3092   6.753  10.744   0.106 -0.1124 -0.0287  0.0806
    8CHTO  H141 3093   6.757  10.813   0.024 -0.3750  1.8445  1.5909
    8CHTO  H142 3094   6.661  10.754   0.160  0.1029 -0.6585  0.5673
    8CHTO   C79 3095   6.750  10.592  -0.094  0.2504 -0.0875  0.1514
    8CHTO  H151 3096   6.814  10.665  -0.144  0.4189 -2.7904 -3.8167
    8CHTO   O52 3097   6.795  10.466  -0.142  0.1201 -0.1110  0.2665
    8CHTO   C86 3098   6.726  10.353  -0.082 -0.1914 -0.2431  0.6396
    8CHTO  H158 3099   6.620  10.356  -0.115 -0.0567  2.6792  0.3019
    8CHTO   C90 3100   6.784  10.217  -0.135 -0.4983 -0.0596  0.2395
    8CHTO   O60 3101   6.761  10.195  -0.278  0.6524 -0.1466 -0.3774
    8CHTO  H138 3102   6.835  10.174  -0.331 -0.0387 -1.1753 -0.9472
    8CHTO   O50 3103   6.622  10.632  -0.144 -0.0972  0.5227 -0.0182
    8CHTO   C73 3104   6.518  10.688  -0.231  0.2378  0.1428  0.3904
    8CHTO  H145 3105   6.553  10.718  -0.330 -0.4720 -0.6270 -0.0985
    8CHTO   C74 3106   6.454  10.826  -0.175  1.0602  0.7052 -0.4994
    8CHTO  H146 3107   6.537  10.895  -0.156  0.4019  2.0047 -2.2012
    8CHTO   O54 3108   6.363  10.881  -0.276  0.1971  0.1127 -0.2987
    8CHTO  H133 3109   6.272  10.858  -0.268  0.9912 -2.8473  0.6164
    8CHTO   C75 3110   6.376  10.790  -0.044 -0.1400  0.7281  1.0368
    8CHTO  H147 3111   6.453  10.757   0.027 -0.2439  0.1926  0.9015
    8CHTO   N13 3112   6.316  10.907   0.024  0.0900 -0.4027  0.7623
    8CHTO  H139 3113   6.315  10.894   0.131  0.0516 -0.5010  0.7501
    8CHTO  H140 3114   6.214  10.918  -0.012  0.4639  0.0023 -0.2099
    8CHTO   C76 3115   6.274  10.670  -0.056  0.4318  0.4242 -0.5160
    8CHTO  H148 3116   6.193  10.694  -0.124  0.0113  0.0566 -0.1455
    8CHTO   O49 3117   6.347  10.559  -0.121  0.5059  0.2942  1.0966
    8CHTO   C77 3118   6.403  10.586  -0.251 -0.3172  0.4174 -0.6368
    8CHTO  H149 3119   6.333  10.624  -0.325  1.7106 -0.8877 -3.3027
    8CHTO   C88 3120   6.453  10.451  -0.309  0.7836  0.4335  0.2774
    8CHTO   O58 3121   6.327  10.373  -0.318  0.6888  0.0826  0.1940
    8CHTO  H136 3122   6.355  10.285  -0.334  1.0403  0.5411 -1.8077
    8CHTO   O51 3123   6.233  10.622   0.073  0.5783 -0.3037 -0.5583
    8CHTO   C78 3124   6.093  10.576   0.093 -0.1253  0.0138  0.4531
    8CHTO  H150 3125   6.046  10.559  -0.007  1.0093 -2.7932  0.3525
    8CHTO   C80 3126   6.013  10.687   0.161  0.1045 -0.2248 -0.4213
    8CHTO  H152 3127   6.073  10.720   0.249  0.3781 -1.2087 -0.2290
    8CHTO   O55 3128   5.985  10.790   0.061 -0.6006  0.0297 -0.6527
    8CHTO  H134 3129   5.977  10.754  -0.025  0.3165  0.1636 -0.7994
    8CHTO   C84 3130   5.865  10.637   0.213 -0.5744 -0.0057 -0.4997
    8CHTO  H156 3131   5.808  10.632   0.120 -0.1287  1.2325 -0.8573
    8CHTO   N15 3132   5.794  10.736   0.302  0.5531 -0.6199  0.2914
    8CHTO  H143 3133   5.688  10.723   0.317  0.7800 -1.2296  1.3989
    8CHTO  H144 3134   5.844  10.728   0.396 -0.9826 -0.6733  1.1207
    8CHTO   C87 3135   5.882  10.501   0.284  0.5409 -0.9228 -0.3001
    8CHTO  H159 3136   5.932  10.519   0.379  0.5386 -2.1469 -0.0595
    8CHTO   O53 3137   5.956  10.404   0.192 -0.2108  0.0973 -0.3263
    8CHTO   C82 3138   6.090  10.446   0.172  0.5476  0.3387  0.7281
    8CHTO  H154 3139   6.140  10.461   0.268 -1.1617  0.1727  1.6752
    8CHTO   C89 3140   6.156  10.328   0.097 -0.8821 -0.0058 -0.1384
    8CHTO   O59 3141   6.297  10.339   0.069 -0.7046 -0.5859 -0.0764
    8CHTO  H137 3142   6.304  10.294  -0.013 -1.0680 -2.0923  0.7014
    8CHTO   O45 3143   5.727  10.420   0.299  0.2271  0.4510 -0.4723
    8CHTO   C67 3144   5.731  10.303   0.382 -0.1411  0.2178  0.3285
    8CHTO  H124 3145   5.791  10.232   0.325  1.1347  1.1028  0.5517
    8CHTO   C65 3146   5.798  10.329   0.523  0.1746 -0.1205  0.4333
    8CHTO  H122 3147   5.792  10.436   0.546 -3.6691 -0.3788  1.0308
    8CHTO   O44 3148   5.941  10.302   0.504  0.1100  0.6032  0.7320
    8CHTO  H102 3149   5.984  10.328   0.582  0.1533 -0.1584  0.9598
    8CHTO   C63 3150   5.714  10.264   0.644 -0.0113  0.1464 -0.0644
    8CHTO  H120 3151   5.624  10.324   0.657  0.4511  0.8019  0.1494
    8CHTO   N11 3152   5.779  10.286   0.775 -0.4807  0.0101 -0.3364
    8CHTO  H108 3153   5.837  10.376   0.779 -0.1552 -0.2838  2.4554
    8CHTO  H109 3154   5.700  10.296   0.847 -0.4612  3.1135 -0.6589
    8CHTO   C61 3155   5.659  10.119   0.615 -0.4758  0.3574  0.1294
    8CHTO  H118 3156   5.577  10.095   0.684 -0.0504 -0.8689  0.2080
    8CHTO   O40 3157   5.607  10.116   0.477  0.7941 -0.6292  0.3117
    8CHTO   C68 3158   5.589  10.237   0.401 -0.1398  0.2697 -0.0886
    8CHTO  H125 3159   5.524  10.311   0.452  1.5753  0.8610  1.2952
    8CHTO   C72 3160   5.529  10.205   0.265  0.3886 -0.4062  0.2188
    8CHTO   O48 3161   5.483  10.320   0.202  0.3680 -1.0798  0.5075
    8CHTO  H105 3162   5.542  10.379   0.158 -0.0111  0.2746  1.7962
    8CHTO   O38 3163   5.767  10.019   0.619 -0.3330  0.0669 -0.4823
    8CHTO   C55 3164   5.724   9.883   0.591  0.4887 -0.9341  0.5495
    8CHTO  H112 3165   5.629   9.881   0.537  0.9433  1.2539 -0.3606
    8CHTO   C56 3166   5.725   9.796   0.719 -0.4706  0.4498 -0.2370
    8CHTO  H113 3167   5.825   9.790   0.763  0.3509  3.0438 -1.6451
    8CHTO   O42 3168   5.635   9.861   0.812  0.1493  0.2514 -0.3335
    8CHTO  H100 3169   5.685   9.908   0.876 -1.5589 -0.5179  1.6259
    8CHTO   C57 3170   5.673   9.648   0.690 -1.1835  0.0534  0.6166
    8CHTO  H114 3171   5.576   9.649   0.641 -1.9925 -0.4847  2.1705
    8CHTO   N10 3172   5.669   9.558   0.806 -0.1518  0.7282 -0.6070
    8CHTO  H106 3173   5.593   9.485   0.783  0.9941 -0.3413 -1.0539
    8CHTO  H107 3174   5.645   9.608   0.899  3.4347  0.5767  0.4723
    8CHTO   C58 3175   5.772   9.592   0.584  0.2223 -0.6050  0.2287
    8CHTO  H115 3176   5.874   9.582   0.626  0.1578 -1.7978  0.1235
    8CHTO   O37 3177   5.784   9.679   0.471  0.2925  0.0927  0.8592
    8CHTO   C59 3178   5.819   9.818   0.503  0.0197 -0.1363  0.2387
    8CHTO  H116 3179   5.920   9.822   0.544  0.8249 -1.0225 -1.6122
    8CHTO   C70 3180   5.831   9.898   0.370 -0.1320 -0.4023 -0.2185
    8CHTO   O46 3181   5.947   9.861   0.295  0.2830 -0.1279  0.2023
    8CHTO  H103 3182   6.005   9.928   0.264 -0.5198 -0.1843 -1.4661
    8CHTO   O39 3183   5.716   9.424   0.514 -0.2793  0.1496 -0.1781
    8CHTO   C60 3184   5.723   9.414   0.368  0.3795 -0.3313 -0.2462
    8CHTO  H117 3185   5.679   9.507   0.331  1.4273  0.8885  1.4969
    8CHTO   C62 3186   5.873   9.401   0.321 -0.3943 -0.0857  0.4758
    8CHTO  H119 3187   5.927   9.492   0.353  1.2137 -1.2050  1.0498
    8CHTO   O43 3188   5.936   9.289   0.392  0.4690  0.3802 -0.2540
    8CHTO  H101 3189   5.958   9.315   0.479 -0.9533 -0.7161  0.4549
    8CHTO   C66 3190   5.879   9.397   0.163 -0.0210  0.3028 -0.1731
    8CHTO  H123 3191   5.833   9.484   0.117 -1.5944 -0.9301 -0.9590
    8CHTO   N12 3192   6.013   9.388   0.106  0.3364 -0.4241  0.2679
    8CHTO  H110 3193   6.031   9.477   0.047  0.2498 -1.8565 -1.9813
    8CHTO  H111 3194   6.087   9.383   0.185  0.0945  0.6437  0.5738
    8CHTO   C69 3195   5.794   9.277   0.111 -0.0799 -0.6242  0.7007
    8CHTO  H126 3196   5.857   9.191   0.140 -0.2720 -2.4172 -3.8388
    8CHTO   O41 3197   5.651   9.271   0.173 -0.2816 -0.2841  0.0567
    8CHTO   C64 3198   5.641   9.295   0.318 -0.6194 -0.0111 -0.5034
    8CHTO  H121 3199   5.676   9.201   0.364 -2.6946 -0.2807  0.5627
    8CHTO   C71 3200   5.495   9.303   0.346  0.2371  0.0390 -0.1502
    8CHTO   O47 3201   5.422   9.190   0.307 -0.0525  0.2503 -0.4589
    8CHTO  H104 3202   5.334   9.212   0.281 -0.9112  2.0090  3.4730
    8CHTO   O34 3203   5.784   9.272  -0.058  0.3455 -0.6182 -0.2099
    8CHTO   C49 3204   5.708   9.241  -0.154 -0.2599 -0.2021  0.5833
    8CHTO   H91 3205   5.683   9.136  -0.142  1.2385 -0.6903 -0.4997
    8CHTO   C47 3206   5.788   9.278  -0.283 -0.1353 -0.4700  0.1344
    8CHTO   H89 3207   5.727   9.235  -0.365  0.5507  0.8793 -1.1015
    8CHTO   O33 3208   5.915   9.212  -0.290  0.6125  0.2876 -0.9245
    8CHTO   H70 3209   5.908   9.121  -0.267 -0.0592  0.7797  0.8824
    8CHTO   C45 3210   5.811   9.429  -0.308  0.5273 -0.3355  0.0461
    8CHTO   H87 3211   5.915   9.456  -0.281  0.9480 -0.1580 -1.7135
    8CHTO    N8 3212   5.806   9.459  -0.454  0.8529 -0.1372 -0.0674
    8CHTO   H75 3213   5.908   9.458  -0.489  0.7727  0.6633 -0.3442
    8CHTO   H76 3214   5.743   9.387  -0.505  0.5576 -0.7358  1.1421
    8CHTO   C43 3215   5.720   9.515  -0.207 -0.6597 -0.0296 -0.2530
    8CHTO   H85 3216   5.772   9.503  -0.112 -0.5269 -2.6795 -0.6071
    8CHTO   O29 3217   5.587   9.466  -0.198  0.3529  0.1329  0.5312
    8CHTO   C50 3218   5.577   9.328  -0.159 -0.0082  1.0756  0.0406
    8CHTO   H92 3219   5.544   9.330  -0.055 -2.9825  1.9849 -0.8793
    8CHTO   C54 3220   5.458   9.269  -0.230 -0.5696  0.2742 -0.2502
    8CHTO   O36 3221   5.417   9.154  -0.156  0.0722 -0.7142  0.4050
    8CHTO   H72 3222   5.335   9.119  -0.186  1.0642 -0.8394 -2.2725
    8CHTO   O27 3223   5.716   9.652  -0.251  0.4527 -0.2223  0.4263
    8CHTO   C37 3224   5.642   9.761  -0.197  0.8441 -0.2169 -0.5066
    8CHTO   H79 3225   5.550   9.721  -0.151  0.5637 -0.0083 -0.8888
    8CHTO   C38 3226   5.724   9.823  -0.080  0.5610 -0.6990  0.0212
    8CHTO   H80 3227   5.829   9.819  -0.113  1.2467 -1.4795  2.2118
    8CHTO   O31 3228   5.710   9.754   0.048 -0.2385 -0.9998  0.0980
    8CHTO   H68 3229   5.713   9.662   0.032 -0.7501 -1.4534  2.3554
    8CHTO   C39 3230   5.691   9.975  -0.050 -0.5475 -0.0098 -0.4215
    8CHTO   H81 3231   5.607   9.981   0.019 -0.6754  0.2026 -0.5952
    8CHTO    N7 3232   5.798  10.047   0.022 -0.0650 -0.0081 -0.1808
    8CHTO   H73 3233   5.773  10.077   0.123 -0.8376  1.9254 -0.9343
    8CHTO   H74 3234   5.882   9.980   0.034  0.4823  0.4197 -1.5407
    8CHTO   C40 3235   5.646  10.055  -0.176  0.2861 -0.4602  0.2257
    8CHTO   H82 3236   5.735  10.080  -0.234 -0.9330  0.3910 -1.3173
    8CHTO   O26 3237   5.549   9.981  -0.257 -0.1442 -0.1791 -0.4164
    8CHTO   C41 3238   5.612   9.860  -0.303 -0.4371 -0.1443  0.4913
    8CHTO   H83 3239   5.712   9.886  -0.342 -0.5523 -0.2098  0.1585
    8CHTO   C52 3240   5.533   9.811  -0.420 -0.0377 -0.1502 -0.3755
    8CHTO   O35 3241   5.520   9.905  -0.527 -0.1419 -0.1447  1.0414
    8CHTO   H71 3242   5.595   9.960  -0.544 -0.4789  0.2408  0.7804
    8CHTO   O28 3243   5.568  10.173  -0.141  0.1302  0.3278  0.3294
    8CHTO   C42 3244   5.549  10.275  -0.243 -0.1023 -0.1769 -0.3957
    8CHTO   H84 3245   5.476  10.341  -0.196  1.4975 -0.4861  2.6603
    8CHTO   C44 3246   5.489  10.241  -0.388  0.2193  0.0929 -0.3499
    8CHTO   H86 3247   5.554  10.169  -0.437  1.2029  1.3118 -0.8665
    8CHTO   O32 3248   5.360  10.185  -0.369  0.2848  0.3232  0.3633
    8CHTO   H69 3249   5.347  10.128  -0.442 -0.3080 -0.6696  1.2320
    8CHTO   C48 3250   5.493  10.371  -0.484 -0.4875 -0.0377 -0.2781
    8CHTO   H90 3251   5.411  10.430  -0.444 -0.0567 -0.1666  0.7964
    8CHTO    N9 3252   5.443  10.347  -0.628 -0.5901  0.6940 -0.1325
    8CHTO   H77 3253   5.442  10.437  -0.687 -2.0430  1.2267  0.6799
    8CHTO   H78 3254   5.493  10.264  -0.676 -0.3507  1.1641 -0.7178
    8CHTO   C51 3255   5.636  10.438  -0.479  0.6764  0.7052  0.1510
    8CHTO   H93 3256   5.710  10.368  -0.518 -0.5306  0.0666 -1.0134
    8CHTO   O30 3257   5.662  10.475  -0.340  0.2436 -0.0361 -0.4774
    8CHTO   C46 3258   5.679  10.356  -0.262 -0.1368  0.0271 -1.1355
    8CHTO   H88 3259   5.755  10.289  -0.302 -0.2334 -1.1092  0.5294
    8CHTO   C53 3260   5.749  10.390  -0.128  0.2935  0.1986 -0.4721
    8CHTO   O72 3261   5.871  10.466  -0.152  0.6581  0.1617 -0.1664
    8CHTO  H199 3262   5.861  10.556  -0.176  2.1249  0.7035  1.1936
    8CHTO   O22 3263   5.635  10.566  -0.533 -0.2991 -0.1757  0.0564
    8CHTO   C31 3264   5.761  10.644  -0.566  0.1841  0.0778 -0.3174
    8CHTO   H59 3265   5.722  10.736  -0.614 -1.8829 -1.5378 -1.8293
    8CHTO   C29 3266   5.861  10.690  -0.449 -0.0024  0.1078 -0.0086
    8CHTO   H57 3267   5.885  10.606  -0.383 -1.1673 -0.3663 -0.1721
    8CHTO   O21 3268   5.795  10.786  -0.359 -0.0597  0.2213 -0.1375
    8CHTO   H37 3269   5.732  10.742  -0.305 -0.1839 -1.4333 -1.5604
    8CHTO   C27 3270   6.001  10.755  -0.497 -1.1083  0.3453  0.7386
    8CHTO   H55 3271   5.982  10.855  -0.538  1.4471  0.5470 -0.0114
    8CHTO    N5 3272   6.093  10.774  -0.384 -0.3885 -0.3043  0.1735
    8CHTO   H43 3273   6.130  10.875  -0.382  2.1930 -1.2155  0.9117
    8CHTO   H44 3274   6.184  10.716  -0.387 -0.6158 -0.8690  2.7585
    8CHTO   C25 3275   6.058  10.667  -0.607  0.4408 -0.2792 -0.5622
    8CHTO   H53 3276   6.080  10.565  -0.573  1.2551  0.4320  1.0958
    8CHTO   O17 3277   5.951  10.664  -0.710  0.3794  0.1753  0.3511
    8CHTO   C32 3278   5.839  10.582  -0.681 -0.8910  0.1162  0.1576
    8CHTO   H60 3279   5.883  10.488  -0.647 -1.0602  0.8638  2.5540
    8CHTO   C36 3280   5.756  10.570  -0.811 -0.2313 -0.1560 -0.3332
    8CHTO   O25 3281   5.814  10.483  -0.897 -0.2455 -0.0826 -0.1351
    8CHTO   H40 3282   5.763  10.459  -0.972  0.1043 -0.0956 -0.3698
    8CHTO   O15 3283   6.198  10.721  -0.665 -0.4143 -0.5219 -0.4363
    8CHTO   C19 3284   6.340  10.692  -0.689  0.4408 -0.8321 -0.3440
    8CHTO   H47 3285   6.345  10.716  -0.796 -1.1084 -0.1473 -0.2771
    8CHTO   C20 3286   6.439  10.783  -0.601 -0.5487  0.0600  0.4361
    8CHTO   H48 3287   6.434  10.758  -0.494 -1.0419 -0.8914  0.1960
    8CHTO   O19 3288   6.400  10.920  -0.617  0.0033 -0.4128 -0.5669
    8CHTO   H35 3289   6.461  10.981  -0.580 -0.7288 -1.3772  2.3759
    8CHTO   C21 3290   6.591  10.755  -0.648  0.1928  1.0140 -0.1479
    8CHTO   H49 3291   6.601  10.786  -0.752  0.3723 -0.2405 -0.5125
    8CHTO    N4 3292   6.683  10.839  -0.568 -0.0257  0.1398  0.2363
    8CHTO   H41 3293   6.727  10.786  -0.486  0.8768 -0.6383 -0.7317
    8CHTO   H42 3294   6.636  10.931  -0.535  0.9460  0.8188 -0.2364
    8CHTO   C22 3295   6.622  10.605  -0.642  0.1806 -0.0089 -0.5783
    8CHTO   H50 3296   6.620  10.582  -0.536  1.5979 -2.8644 -1.1421
    8CHTO   O14 3297   6.519  10.527  -0.705 -0.1803  0.0340  0.4248
    8CHTO   C23 3298   6.378  10.545  -0.677  0.5291 -0.0344 -0.1685
    8CHTO   H51 3299   6.364  10.509  -0.574  1.0965  0.4328  0.0739
    8CHTO   C34 3300   6.317  10.455  -0.790  0.4723  0.4420 -0.3943
    8CHTO   O23 3301   6.171  10.450  -0.803 -0.1870  0.1294  0.2139
    8CHTO   H38 3302   6.120  10.508  -0.751 -2.3358  0.3799 -2.0279
    8CHTO   O16 3303   6.746  10.569  -0.708 -0.0711 -0.3650  0.6777
    8CHTO   C24 3304   6.800  10.430  -0.671  0.0107  0.0267 -0.0650
    8CHTO   H52 3305   6.724  10.373  -0.618  0.2220 -0.1136  0.0856
    8CHTO   C26 3306   6.918  10.451  -0.572  0.2819  0.0731 -1.3640
    8CHTO   H54 3307   6.993  10.518  -0.618  1.2140 -0.3309 -0.4474
    8CHTO   O20 3308   6.874  10.523  -0.455  0.8159  0.0118  0.2860
    8CHTO   H36 3309   6.911  10.609  -0.454 -1.3370  0.9911 -0.8526
    8CHTO   C30 3310   6.989  10.316  -0.528 -0.4484 -0.1543 -0.3652
    8CHTO   H58 3311   6.921  10.250  -0.472  0.0549 -0.0685  0.3492
    8CHTO    N6 3312   7.112  10.332  -0.440  0.5291  0.2033 -0.2957
    8CHTO   H45 3313   7.095  10.391  -0.351 -0.9827 -0.6234 -0.0110
    8CHTO   H46 3314   7.142  10.233  -0.411  0.3654  0.6661  1.4980
    8CHTO   C33 3315   7.030  10.237  -0.661 -0.2940  0.2376 -0.3180
    8CHTO   H61 3316   7.104  10.298  -0.715  0.4496 -1.5299 -1.3315
    8CHTO   O18 3317   6.916  10.220  -0.748 -0.1052 -0.0539 -0.0143
    8CHTO   C28 3318   6.852  10.341  -0.793 -0.0210  0.2020  0.4704
    8CHTO   H56 3319   6.925  10.394  -0.855  1.3355 -0.4098  1.5112
    8CHTO   C35 3320   6.734  10.309  -0.895  0.0919 -0.7582  0.4005
    8CHTO   O24 3321   6.616  10.252  -0.828  0.3742  0.1921  0.4127
    8CHTO   H39 3322   6.557  10.207  -0.885  0.7724 -0.5603  0.6017
    8CHTO    O9 3323   7.098  10.110  -0.641 -0.0081  0.2263 -0.2973
    8CHTO   C13 3324   7.120  10.026  -0.782  0.2627 -0.8238 -0.2937
    8CHTO   H26 3325   7.134  10.103  -0.860  3.0313  0.5302  1.4391
    8CHTO   C11 3326   6.996   9.929  -0.815 -0.5460 -0.1959 -0.3937
    8CHTO   H24 3327   6.913   9.985  -0.862  0.5245  0.7185 -1.2335
    8CHTO    O8 3328   6.938   9.876  -0.694 -0.0139 -0.3188  0.4346
    8CHTO    H3 3329   6.850   9.855  -0.717  0.8344 -2.9827 -0.5481
    8CHTO    C9 3330   7.049   9.816  -0.908  0.1302 -0.8993 -0.0229
    8CHTO   H22 3331   7.084   9.869  -0.998  0.0006 -1.9003 -0.6680
    8CHTO    N2 3332   6.934   9.732  -0.962 -0.2303 -0.0938 -0.0243
    8CHTO   H10 3333   6.921   9.652  -0.891  0.1039  0.1732  0.3410
    8CHTO   H11 3334   6.956   9.684  -1.057  1.3386 -0.0813  0.3075
    8CHTO    C7 3335   7.172   9.741  -0.839 -0.3084  0.5046  0.4151
    8CHTO   H20 3336   7.242   9.719  -0.922  0.8565 -1.5713  1.9024
    8CHTO    O4 3337   7.240   9.814  -0.739 -0.5814  0.6415 -0.9513
    8CHTO   C14 3338   7.257   9.951  -0.773  0.6883  0.7776  0.1220
    8CHTO   H27 3339   7.308   9.959  -0.872 -2.7507 -0.7716 -1.8670
    8CHTO   C18 3340   7.358  10.007  -0.672 -0.2748 -0.0001 -0.1479
    8CHTO   O13 3341   7.386  10.144  -0.697 -0.3280 -0.1872  0.0273
    8CHTO    H7 3342   7.312  10.193  -0.668 -0.0009  0.0032  0.5515
    8CHTO    O2 3343   7.129   9.594  -0.791  0.0690 -0.3777 -0.2457
    8CHTO    C1 3344   7.225   9.510  -0.737 -0.5877  0.6240 -0.3168
    8CHTO   H14 3345   7.274   9.571  -0.658  0.8999  0.1602 -0.8551
    8CHTO    C2 3346   7.338   9.455  -0.828  0.3582 -0.3421  0.6707
    8CHTO   H15 3347   7.281   9.425  -0.918  0.3128  0.9472  0.2551
    8CHTO    O6 3348   7.429   9.556  -0.867 -0.1137  0.1584 -0.6575
    8CHTO    H1 3349   7.516   9.519  -0.861 -0.1369  0.2629  0.4782
    8CHTO    C3 3350   7.416   9.323  -0.763  0.3410  0.6077  0.3635
    8CHTO   H16 3351   7.497   9.352  -0.694 -0.9324  0.7667  1.8212
    8CHTO    N1 3352   7.495   9.245  -0.867 -0.3165  0.5144  0.2029
    8CHTO    H8 3353   7.559   9.172  -0.820  0.7461  1.6097  0.4815
    8CHTO    H9 3354   7.555   9.312  -0.926 -0.1217  0.3372  0.1992
    8CHTO    C4 3355   7.322   9.232  -0.681  0.1862  0.6394  0.2321
    8CHTO   H17 3356   7.267   9.165  -0.746 -1.4165  2.4783 -0.3526
    8CHTO    O1 3357   7.233   9.307  -0.599  0.1380 -0.8020  0.3869
    8CHTO    C5 3358   7.138   9.396  -0.662 -0.0513 -0.3231 -0.1930
    8CHTO   H18 3359   7.083   9.345  -0.740  0.4340  0.6341 -1.1664
    8CHTO   C16 3360   7.037   9.449  -0.556 -0.8143 -0.4956  0.1560
    8CHTO   O11 3361   6.941   9.355  -0.516  0.2242  0.3168 -0.1733
    8CHTO    H5 3362   6.854   9.382  -0.492 -0.9036 -0.2932 -3.2172
    8CHTO    O3 3363   7.407   9.153  -0.595  0.8246  0.2878 -0.1576
    8CHTO    C6 3364   7.355   9.023  -0.560  0.0267 -1.0705  0.1773
    8CHTO   H19 3365   7.280   8.989  -0.631  1.1202 -2.5290 -0.2915
    8CHTO    C8 3366   7.459   8.911  -0.583 -0.2954 -0.2320  0.2226
    8CHTO   H21 3367   7.544   8.929  -0.517 -0.2664  3.5494 -0.7703
    8CHTO    O7 3368   7.505   8.911  -0.719  0.0417 -0.5452  0.3586
    8CHTO    H2 3369   7.438   8.915  -0.784  1.0973  0.2523 -0.6950
    8CHTO   C12 3370   7.395   8.768  -0.542  0.4739  0.0877 -0.6398
    8CHTO   H25 3371   7.312   8.744  -0.611 -2.9564  2.6176  2.3641
    8CHTO    N3 3372   7.494   8.662  -0.551 -0.0693 -0.8952 -0.1784
    8CHTO   H12 3373   7.504   8.622  -0.651  0.4585 -1.2190  0.0002
    8CHTO   H13 3374   7.474   8.587  -0.476 -0.6175 -0.8792 -0.3031
    8CHTO   C15 3375   7.332   8.776  -0.405  0.1169  0.7840 -0.1260
    8CHTO   H28 3376   7.404   8.788  -0.324  0.4279  0.9159 -0.4196
    8CHTO   O10 3377   7.243   8.657  -0.373  0.3218 -0.2297  0.1127
    8CHTO    H4 3378   7.285   8.574  -0.364  1.0538  0.2852  1.4646
    8CHTO    O5 3379   7.241   8.883  -0.395 -0.4291 -0.6195 -0.2597
    8CHTO   C10 3380   7.299   9.012  -0.416  0.4818 -0.1159 -0.2190
    8CHTO   H23 3381   7.391   9.014  -0.358  0.3936  0.7571 -0.1027
    8CHTO   C17 3382   7.194   9.117  -0.369  0.1911  0.4350 -0.0110
    8CHTO   O12 3383   7.173   9.127  -0.229 -0.2470  0.2496 -0.1130
    8CHTO    H6 3384   7.242   9.186  -0.208 -0.4080 -0.2174  1.8279
    9CHTO  H203 3385   7.173   5.277   5.483 -0.5248 -1.6770 -1.0018
    9CHTO   O82 3386   7.250   5.234   5.515 -0.0974 -0.0342  0.2452
    9CHTO  C123 3387   7.353   5.228   5.413  0.0443  0.3467  0.3191
    9CHTO  H227 3388   7.449   5.244   5.463  0.9408  0.7307 -1.5084
    9CHTO   O77 3389   7.329   5.091   5.374 -0.3993 -0.3772  0.1086
    9CHTO  C118 3390   7.418   5.032   5.276  0.8169  0.0525 -0.3749
    9CHTO  H222 3391   7.520   5.031   5.317  0.1257 -0.5264  1.4038
    9CHTO  C125 3392   7.367   4.880   5.258 -0.1012 -0.0307  0.4472
    9CHTO   O84 3393   7.368   4.809   5.379 -0.0623 -0.2514  0.6769
    9CHTO  H205 3394   7.283   4.773   5.395  1.3460 -3.9666  0.3649
    9CHTO  C114 3395   7.404   5.127   5.145  0.6554  0.3036  0.3562
    9CHTO  H218 3396   7.301   5.126   5.109  1.5756 -0.7737 -2.4015
    9CHTO  C116 3397   7.439   5.276   5.176 -0.3408 -0.8266 -0.0826
    9CHTO  H220 3398   7.541   5.285   5.219 -0.3413  0.3052 -0.2921
    9CHTO   O79 3399   7.439   5.360   5.057 -0.3607 -0.5990 -0.0996
    9CHTO  H201 3400   7.358   5.407   5.052 -0.1089 -0.1722 -0.1837
    9CHTO  C120 3401   7.335   5.330   5.283 -0.1068  0.0273 -0.1940
    9CHTO  H224 3402   7.234   5.323   5.236  0.6453  0.1956 -1.8582
    9CHTO   N21 3403   7.363   5.468   5.331 -0.4416 -0.2703 -0.0920
    9CHTO  H211 3404   7.312   5.539   5.267  0.2454 -0.2757 -0.6588
    9CHTO  H212 3405   7.467   5.497   5.320 -0.4251 -0.7922 -1.4221
    9CHTO   O75 3406   7.484   5.065   5.042  0.3561  0.3446  0.0011
    9CHTO  C112 3407   7.411   4.972   4.931  0.1908 -0.5432  0.1902
    9CHTO  H216 3408   7.306   4.956   4.957 -0.3562  0.9790 -0.9888
    9CHTO   O73 3409   7.478   4.848   4.928 -0.0612  0.0467 -0.0447
    9CHTO  C113 3410   7.424   4.752   4.839  0.7743 -0.9796  0.1190
    9CHTO  H217 3411   7.314   4.749   4.849  0.4724  2.6003 -1.3992
    9CHTO  C124 3412   7.472   4.611   4.880 -0.5957 -0.3912  0.5026
    9CHTO   O83 3413   7.601   4.583   4.858  0.3725 -0.2584 -0.2025
    9CHTO  H204 3414   7.630   4.603   4.771 -4.2549  0.8416 -1.6387
    9CHTO  C109 3415   7.451   4.793   4.691 -0.6718  0.5644 -0.0695
    9CHTO  H213 3416   7.560   4.790   4.675 -0.6357  0.3638  0.2076
    9CHTO  C110 3417   7.387   4.938   4.672 -0.3096  0.2396 -0.0649
    9CHTO  H214 3418   7.279   4.929   4.670 -0.0540 -3.3438 -0.0714
    9CHTO   O78 3419   7.417   4.995   4.542  0.3609  0.8271 -0.7719
    9CHTO  H200 3420   7.509   5.007   4.535  0.4260  0.6741 -0.1940
    9CHTO  C111 3421   7.424   5.038   4.784 -0.7799 -0.4565 -0.4115
    9CHTO  H215 3422   7.530   5.069   4.774 -0.9693  0.7776  1.2066
    9CHTO   N19 3423   7.345   5.166   4.779 -0.1640 -0.2928 -0.4356
    9CHTO  H207 3424   7.368   5.236   4.858 -0.3045 -0.9669  0.2131
    9CHTO  H208 3425   7.353   5.212   4.682  0.6393  2.7441  1.0248
    9CHTO   O74 3426   7.390   4.696   4.598 -0.2059 -0.0735 -0.1047
    9CHTO  C115 3427   7.470   4.670   4.458 -0.0985  0.3178  0.3874
    9CHTO  H219 3428   7.528   4.757   4.426  0.6041  0.3899  1.8205
    9CHTO   O76 3429   7.575   4.546   4.473  0.3763 -0.4999 -0.1176
    9CHTO  C122 3430   7.507   4.419   4.498  0.4226  0.1154  0.3210
    9CHTO  H226 3431   7.454   4.431   4.592 -1.6025  1.0010 -0.9051
    9CHTO  C126 3432   7.605   4.311   4.523  0.7237 -0.2187 -0.7848
    9CHTO   O85 3433   7.694   4.327   4.632 -0.3513 -0.2979  0.5034
    9CHTO  H206 3434   7.782   4.305   4.608 -0.5806 -0.6246 -0.0612
    9CHTO  C121 3435   7.401   4.392   4.389  0.0895 -0.1049 -0.2744
    9CHTO  H225 3436   7.452   4.380   4.291 -2.1151 -2.4244 -1.2157
    9CHTO   O81 3437   7.325   4.276   4.421  0.3885 -0.9203 -0.3703
    9CHTO  H202 3438   7.269   4.299   4.492  0.6562 -1.2746 -0.0424
    9CHTO  C119 3439   7.295   4.510   4.371 -0.3507 -0.1422 -0.5485
    9CHTO  H223 3440   7.235   4.479   4.286 -1.0562  0.2290 -0.1940
    9CHTO  C117 3441   7.364   4.650   4.341 -0.3924  0.3197  0.2131
    9CHTO  H221 3442   7.303   4.741   4.341 -1.0912 -0.1229 -1.6510
    9CHTO   N20 3443   7.441   4.658   4.210  0.0203 -0.0981 -0.4003
    9CHTO  H209 3444   7.456   4.761   4.184  2.0172 -0.0810  0.7488
    9CHTO  H210 3445   7.406   4.587   4.136  0.2460  0.2722 -0.8597
    9CHTO   O80 3446   7.193   4.512   4.480 -0.1903 -0.2591 -0.8147
    9CHTO  C103 3447   7.056   4.620   4.457 -0.0701  0.1369  0.2721
    9CHTO  H190 3448   7.092   4.722   4.443  1.0171 -0.4326 -1.1260
    9CHTO  C101 3449   6.970   4.580   4.332 -0.3684 -0.4026  0.2246
    9CHTO  H188 3450   6.944   4.475   4.337 -0.4877 -0.3789  0.1107
    9CHTO   O68 3451   7.050   4.599   4.180 -0.5903 -0.6298 -0.0469
    9CHTO  H168 3452   6.991   4.652   4.130  1.5350 -0.3983 -2.3574
    9CHTO   C99 3453   6.830   4.659   4.334  0.2922  0.2020  0.3973
    9CHTO  H186 3454   6.845   4.764   4.301  1.2270 -0.1449 -0.2809
    9CHTO   N17 3455   6.726   4.599   4.242  0.5264 -0.4806  0.4570
    9CHTO  H174 3456   6.684   4.511   4.288  0.7014 -1.2741 -0.8856
    9CHTO  H175 3457   6.780   4.571   4.153 -1.9157  0.1604 -1.2522
    9CHTO   C97 3458   6.771   4.671   4.477  0.0323  0.2738 -0.2760
    9CHTO  H184 3459   6.722   4.577   4.503  2.1361 -0.6437  0.4473
    9CHTO   O64 3460   6.863   4.710   4.579 -0.0323  0.5536  0.0189
    9CHTO  C104 3461   6.970   4.616   4.593 -0.8917  0.0006 -0.1706
    9CHTO  H191 3462   6.943   4.513   4.614  0.7061 -0.7160 -1.5784
    9CHTO  C108 3463   7.064   4.663   4.704 -0.3066 -0.3714  0.6268
    9CHTO   O71 3464   7.004   4.636   4.836 -0.1622 -0.2357  0.0182
    9CHTO  H171 3465   7.032   4.549   4.857  2.6777  0.7021  0.2737
    9CHTO   O62 3466   6.677   4.778   4.480  0.2368  0.7293 -0.2494
    9CHTO   C91 3467   6.541   4.754   4.502 -0.7068 -0.3736 -0.1088
    9CHTO  H178 3468   6.512   4.678   4.430 -0.3567 -0.3210 -0.3074
    9CHTO   C92 3469   6.449   4.874   4.475  0.9272 -0.0851 -0.5557
    9CHTO  H179 3470   6.485   4.918   4.381  1.9672 -0.8171 -0.5178
    9CHTO   O66 3471   6.311   4.824   4.453 -0.3057  0.7475 -0.2612
    9CHTO  H166 3472   6.276   4.813   4.539  3.6899  1.0369  1.5325
    9CHTO   C93 3473   6.438   4.979   4.593 -0.2081  0.6920  0.5578
    9CHTO  H180 3474   6.358   5.049   4.565 -0.0981  1.0645  1.1685
    9CHTO   N16 3475   6.561   5.068   4.605 -0.2747 -0.0818  0.8902
    9CHTO  H172 3476   6.630   5.040   4.527 -0.1151 -0.6207  1.2224
    9CHTO  H173 3477   6.597   5.054   4.705  0.0274 -3.2779  0.4031
    9CHTO   C94 3478   6.408   4.921   4.729  0.6332  0.0065 -0.6528
    9CHTO  H181 3479   6.483   4.943   4.804  0.0729 -0.7931  0.1494
    9CHTO   O61 3480   6.393   4.774   4.724 -0.0472 -1.0257 -0.0782
    9CHTO   C95 3481   6.493   4.698   4.648  0.5430 -0.3234 -0.1041
    9CHTO  H182 3482   6.582   4.686   4.710 -0.4652 -0.2515  1.3794
    9CHTO  C106 3483   6.452   4.554   4.623 -0.1373  0.2260 -0.2911
    9CHTO   O69 3484   6.402   4.487   4.739 -0.4317  0.5374 -0.4455
    9CHTO  H169 3485   6.378   4.549   4.805  1.1123  0.5538  0.1185
    9CHTO   O63 3486   6.278   4.969   4.781  0.2971 -0.2157  0.6935
    9CHTO   C96 3487   6.284   5.060   4.903  0.8426  0.2653 -0.0019
    9CHTO  H183 3488   6.369   5.127   4.888  0.5987  0.4529 -0.5566
    9CHTO   C98 3489   6.311   4.983   5.034 -0.1388 -0.0087  0.1434
    9CHTO  H185 3490   6.386   4.904   5.017 -0.9382 -0.7597  0.1050
    9CHTO   O67 3491   6.371   5.066   5.134 -0.1052 -0.0597  0.4107
    9CHTO  H167 3492   6.322   5.143   5.153 -0.6383 -0.2253 -0.2592
    9CHTO  C102 3493   6.176   4.930   5.107 -0.4858 -0.5459  0.1613
    9CHTO  H189 3494   6.201   4.908   5.212 -0.0657  2.7159  0.8066
    9CHTO   N18 3495   6.119   4.805   5.053  0.2553 -0.2670 -0.2614
    9CHTO  H176 3496   6.078   4.822   4.954  0.8018  1.4815 -0.1967
    9CHTO  H177 3497   6.195   4.729   5.060 -1.8101 -2.3776 -0.1079
    9CHTO  C105 3498   6.074   5.045   5.122  0.0851 -0.1981 -0.8559
    9CHTO  H192 3499   5.974   5.012   5.094 -0.2078 -0.4926  0.5243
    9CHTO   O65 3500   6.109   5.160   5.046 -0.0269  0.2741 -0.2883
    9CHTO  C100 3501   6.145   5.143   4.909 -0.3079 -0.4256 -0.1075
    9CHTO  H187 3502   6.071   5.084   4.855 -0.8178 -0.2943  0.4453
    9CHTO  C107 3503   6.151   5.279   4.856 -0.1456  0.7363  0.1780
    9CHTO   O70 3504   6.015   5.335   4.838  0.6972 -0.6685 -0.8708
    9CHTO  H170 3505   6.013   5.426   4.860  1.6409 -0.5729 -1.1514
    9CHTO   O57 3506   6.076   5.082   5.272  0.0610 -0.2186 -0.2634
    9CHTO   C85 3507   5.964   5.127   5.356  0.2526 -0.1076 -1.1864
    9CHTO  H157 3508   5.883   5.053   5.345  0.2655 -0.3426  0.1755
    9CHTO   C83 3509   5.899   5.260   5.305  0.4161 -0.0024  0.2011
    9CHTO  H155 3510   5.848   5.242   5.211  0.1171 -0.6707  0.4899
    9CHTO   O56 3511   6.010   5.347   5.276 -0.1864 -0.0268  0.0949
    9CHTO  H135 3512   6.096   5.311   5.288  0.4720  1.5933  0.4121
    9CHTO   C81 3513   5.789   5.314   5.405  0.6235  0.2753  0.3632
    9CHTO  H153 3514   5.720   5.233   5.428  1.3248  0.5518  3.7311
    9CHTO   N14 3515   5.703   5.424   5.346  0.5899 -0.6551  0.0202
    9CHTO  H141 3516   5.604   5.387   5.327  1.0608 -1.4913 -0.8986
    9CHTO  H142 3517   5.696   5.525   5.380 -3.8184 -0.3799 -1.3705
    9CHTO   C79 3518   5.860   5.355   5.542  0.4882  0.1872  0.0276
    9CHTO  H151 3519   5.780   5.382   5.611  1.7148  0.5153  1.3174
    9CHTO   O52 3520   5.924   5.241   5.595 -0.0762  0.1914  0.3029
    9CHTO   C86 3521   6.004   5.151   5.510 -0.3543  0.6506 -0.0986
    9CHTO  H158 3522   6.098   5.208   5.522 -1.2644  1.6139  3.0908
    9CHTO   C90 3523   6.024   5.007   5.576  0.3773  0.3731  0.1540
    9CHTO   O60 3524   6.086   5.023   5.707 -0.0528 -0.1882  0.3278
    9CHTO  H138 3525   6.159   4.964   5.711  0.2418  0.1678  0.1865
    9CHTO   O50 3526   5.955   5.452   5.524 -0.4330  0.1198 -0.2935
    9CHTO   C73 3527   5.995   5.580   5.576  0.7769  0.0425 -0.1564
    9CHTO  H145 3528   5.962   5.589   5.681  1.4090  0.8293 -0.0201
    9CHTO   C74 3529   5.941   5.704   5.497  0.3507 -0.6619  0.1786
    9CHTO  H146 3530   5.832   5.708   5.510  0.2035  1.2570 -1.4386
    9CHTO   O54 3531   5.992   5.818   5.561  0.2559  0.0106  0.3292
    9CHTO  H133 3532   6.052   5.872   5.514  0.0631  0.9583  1.1703
    9CHTO   C75 3533   5.980   5.681   5.349  0.1457 -0.2557  0.0511
    9CHTO  H147 3534   5.936   5.584   5.321  1.1069 -0.8044  0.3921
    9CHTO   N13 3535   5.911   5.781   5.265  0.2219  0.2230 -0.1917
    9CHTO  H139 3536   5.903   5.868   5.329 -2.5318  1.4830 -2.1375
    9CHTO  H140 3537   5.986   5.793   5.188  0.5796  2.9600  0.5260
    9CHTO   C76 3538   6.139   5.669   5.336  1.3321 -0.1158  0.1931
    9CHTO  H148 3539   6.183   5.767   5.357 -1.6584  1.1732  0.6741
    9CHTO   O49 3540   6.198   5.578   5.438 -0.2739 -0.2930 -0.2560
    9CHTO   C77 3541   6.151   5.588   5.575 -0.0234 -0.3051 -0.3760
    9CHTO  H149 3542   6.183   5.683   5.618  1.5733 -0.5420 -1.0159
    9CHTO   C88 3543   6.215   5.475   5.651 -0.1230  0.3399  0.0476
    9CHTO   O58 3544   6.186   5.495   5.816  0.1918 -0.3623 -0.4353
    9CHTO  H136 3545   6.209   5.426   5.876  1.2025  0.6381  0.3431
    9CHTO   O51 3546   6.161   5.606   5.209  0.2243  0.5354  0.0405
    9CHTO   C78 3547   6.315   5.613   5.163  0.4799  0.7963 -0.5688
    9CHTO  H150 3548   6.386   5.642   5.244  1.3380  0.0827 -1.0512
    9CHTO   C80 3549   6.319   5.712   5.050  0.4347 -0.3311  0.5535
    9CHTO  H152 3550   6.231   5.693   4.986 -0.8955 -0.2349  2.3275
    9CHTO   O55 3551   6.313   5.842   5.102  0.7464 -0.3038 -0.2379
    9CHTO  H134 3552   6.242   5.855   5.162 -0.8925 -1.5335 -1.8688
    9CHTO   C84 3553   6.463   5.706   4.966  0.8249 -0.9374  0.6111
    9CHTO  H156 3554   6.543   5.738   5.033 -1.6376  0.5507  2.9271
    9CHTO   N15 3555   6.471   5.799   4.847  0.4030 -0.6458 -0.3082
    9CHTO  H143 3556   6.395   5.875   4.852 -0.3301 -1.3450 -0.7803
    9CHTO  H144 3557   6.460   5.748   4.754  0.4407  0.6137 -1.0130
    9CHTO   C87 3558   6.496   5.557   4.935  0.4367 -0.4246 -0.8449
    9CHTO  H159 3559   6.444   5.511   4.851  0.9422  2.0730 -2.5914
    9CHTO   O53 3560   6.490   5.482   5.053 -0.7861  0.0317 -0.4012
    9CHTO   C82 3561   6.367   5.471   5.123  0.3324 -0.0722  0.1846
    9CHTO  H154 3562   6.300   5.413   5.059  0.8860  0.7099 -1.1258
    9CHTO   C89 3563   6.402   5.381   5.242 -0.0157  0.0162  0.1372
    9CHTO   O59 3564   6.288   5.319   5.303 -0.2370  0.1158 -0.1000
    9CHTO  H137 3565   6.247   5.259   5.244  0.8492 -0.9654  0.2324
    9CHTO   O45 3566   6.650   5.551   4.895 -0.4391 -1.2788  1.0561
    9CHTO   C67 3567   6.743   5.465   4.941 -0.5302  1.0312  0.8228
    9CHTO  H124 3568   6.712   5.421   5.036 -0.8635  1.7606  1.0591
    9CHTO   C65 3569   6.776   5.351   4.838  0.3683  0.4899  0.3295
    9CHTO  H122 3570   6.762   5.400   4.742  0.2511  0.2170  0.2078
    9CHTO   O44 3571   6.669   5.258   4.857 -0.0402  0.2358 -0.5944
    9CHTO  H102 3572   6.581   5.289   4.853 -0.5229 -1.3573 -3.2662
    9CHTO   C63 3573   6.926   5.294   4.835  0.0213  0.5947  0.3478
    9CHTO  H120 3574   6.980   5.368   4.776 -3.6659  1.5066 -2.0666
    9CHTO   N11 3575   6.958   5.164   4.771 -0.3798  0.2154 -0.3031
    9CHTO  H108 3576   6.911   5.084   4.823 -1.3956  0.9033 -0.1414
    9CHTO  H109 3577   7.064   5.150   4.772 -0.4666 -0.3929  0.6059
    9CHTO   C61 3578   6.975   5.303   4.989 -0.0921  0.4523  0.6728
    9CHTO  H118 3579   7.078   5.264   4.983 -1.1600 -2.2693 -1.4044
    9CHTO   O40 3580   6.975   5.444   5.033  0.0423 -0.4300 -0.0680
    9CHTO   C68 3581   6.878   5.546   4.976 -0.0090 -0.1187 -0.1031
    9CHTO  H125 3582   6.910   5.597   4.883  0.7524  1.1120  0.8257
    9CHTO   C72 3583   6.850   5.655   5.080 -0.4041  0.0413  0.1447
    9CHTO   O48 3584   6.834   5.783   5.034 -0.3403 -0.4226 -0.4984
    9CHTO  H105 3585   6.908   5.820   4.990 -2.7813  2.7608 -2.1638
    9CHTO   O38 3586   6.898   5.228   5.072  0.3719  0.9999 -0.3450
    9CHTO   C55 3587   6.953   5.167   5.186  0.6405 -1.1483 -0.8846
    9CHTO  H112 3588   7.058   5.196   5.202 -0.0258 -0.8140  3.7478
    9CHTO   C56 3589   6.934   5.011   5.166  0.2891  0.2400 -0.4598
    9CHTO  H113 3590   6.829   4.984   5.145  0.8852 -3.2970  0.8091
    9CHTO   O42 3591   7.015   4.976   5.051 -0.6900 -0.2423  0.0756
    9CHTO  H100 3592   7.106   4.997   5.060 -0.8778  0.6827 -0.1877
    9CHTO   C57 3593   6.987   4.939   5.295 -0.0503 -0.0043 -0.0311
    9CHTO  H114 3594   7.092   4.970   5.298  0.6075 -2.2645  1.4539
    9CHTO   N10 3595   6.989   4.791   5.299 -0.4435  0.3834 -0.7161
    9CHTO  H106 3596   7.020   4.751   5.204  0.4644 -0.5391 -0.0458
    9CHTO  H107 3597   7.068   4.769   5.370  1.9243  0.3306 -3.2525
    9CHTO   C58 3598   6.902   4.995   5.412 -0.0308  0.4573 -0.5814
    9CHTO  H115 3599   6.795   4.967   5.401  0.0995 -1.2983  2.1200
    9CHTO   O37 3600   6.908   5.139   5.427  0.0758  0.1627 -0.1473
    9CHTO   C59 3601   6.867   5.214   5.312 -0.1107  0.3514  0.3687
    9CHTO  H116 3602   6.761   5.198   5.292 -0.5995  2.2194  1.4029
    9CHTO   C70 3603   6.885   5.359   5.352  0.1483 -0.0894  0.1322
    9CHTO   O46 3604   6.781   5.410   5.429  0.0704 -0.2805  0.0009
    9CHTO  H103 3605   6.805   5.433   5.517 -0.7890  0.4122  0.0583
    9CHTO   O39 3606   6.962   4.932   5.552 -0.3733  0.0932 -0.5159
    9CHTO   C60 3607   6.867   4.898   5.652 -0.1609 -0.6580 -0.3575
    9CHTO  H117 3608   6.780   4.963   5.637 -1.5060 -2.8955 -2.7796
    9CHTO   C62 3609   6.823   4.751   5.644  0.1013 -0.4408  0.1086
    9CHTO  H119 3610   6.759   4.741   5.554 -0.9840 -3.0273  1.1216
    9CHTO   O43 3611   6.937   4.656   5.641 -0.3433 -0.2629  0.5611
    9CHTO  H101 3612   7.001   4.689   5.581  0.8035  1.4460  2.6812
    9CHTO   C66 3613   6.725   4.729   5.764 -0.0459  0.3900 -0.7056
    9CHTO  H123 3614   6.637   4.792   5.750 -1.1976 -0.6905  1.3923
    9CHTO   N12 3615   6.676   4.588   5.758 -0.3606 -0.5649  0.1193
    9CHTO  H110 3616   6.682   4.549   5.657  0.2625  1.5973 -0.6981
    9CHTO  H111 3617   6.574   4.590   5.794 -0.7231  1.3516 -0.9440
    9CHTO   C69 3618   6.794   4.766   5.900 -0.1593 -0.5307  0.1775
    9CHTO  H126 3619   6.878   4.694   5.912 -0.2778 -0.3733  2.1964
    9CHTO   O41 3620   6.834   4.911   5.905 -0.2492 -0.8241 -0.0726
    9CHTO   C64 3621   6.933   4.933   5.790 -0.2304 -0.6247  0.0279
    9CHTO  H121 3622   7.022   4.866   5.796 -0.0375 -0.2564  1.3861
    9CHTO   C71 3623   6.978   5.081   5.812 -0.2096 -0.6452  0.6787
    9CHTO   O47 3624   7.056   5.124   5.928 -0.3679  0.3524  0.5398
    9CHTO  H104 3625   7.022   5.075   6.001 -0.7208  1.2674  0.9923
    9CHTO   O34 3626   6.681   4.752   6.023 -0.3131  0.0813  1.4128
    9CHTO   C49 3627   6.680   4.719   6.171 -0.2732 -0.2209 -0.6152
    9CHTO   H91 3628   6.574   4.727   6.194 -0.2447 -0.6425 -0.3214
    9CHTO   C47 3629   6.762   4.827   6.253 -0.0978 -0.3510 -0.1504
    9CHTO   H89 3630   6.721   4.825   6.356  1.4100 -0.2860  0.4497
    9CHTO   O33 3631   6.744   4.957   6.194  0.1036  0.0608 -0.4119
    9CHTO   H70 3632   6.746   4.954   6.100 -0.8798 -1.7779 -0.3887
    9CHTO   C45 3633   6.921   4.798   6.268 -0.1979 -0.4777 -0.4530
    9CHTO   H87 3634   6.980   4.880   6.224  3.5769 -1.4994  2.3900
    9CHTO    N8 3635   6.965   4.793   6.407  0.5327  0.1669  0.7329
    9CHTO   H75 3636   7.008   4.695   6.423  0.9477 -0.1965 -2.3780
    9CHTO   H76 3637   6.885   4.809   6.478  1.0570  1.0098  1.1500
    9CHTO   C43 3638   6.963   4.663   6.192 -0.4350 -0.3128 -0.3983
    9CHTO   H85 3639   6.953   4.679   6.085 -0.4967 -0.3112 -0.3923
    9CHTO   O29 3640   6.868   4.562   6.237 -0.3321  0.2151  0.4838
    9CHTO   C50 3641   6.731   4.573   6.206 -0.1180  0.3402 -0.6299
    9CHTO   H92 3642   6.713   4.520   6.111 -0.8843 -1.5717  0.5481
    9CHTO   C54 3643   6.650   4.498   6.324  0.0651 -0.1485  0.7088
    9CHTO   O36 3644   6.636   4.587   6.435 -0.3085  0.0722 -0.1879
    9CHTO   H72 3645   6.584   4.661   6.411 -2.6118 -1.6552 -0.7045
    9CHTO   O27 3646   7.101   4.635   6.203  0.4306  0.2833 -0.4784
    9CHTO   C37 3647   7.225   4.654   6.137  0.0295 -0.4964 -0.3207
    9CHTO   H79 3648   7.286   4.563   6.146 -0.5008 -0.7743  0.5260
    9CHTO   C38 3649   7.201   4.678   5.982 -0.4638 -0.4885  0.1998
    9CHTO   H80 3650   7.126   4.757   5.971  0.5334  0.3637 -0.5669
    9CHTO   O31 3651   7.149   4.556   5.931  0.2823 -0.0761 -0.5298
    9CHTO   H68 3652   7.122   4.571   5.843  0.5513  1.8382 -0.3048
    9CHTO   C39 3653   7.334   4.721   5.904  0.0890 -0.3373 -0.3943
    9CHTO   H81 3654   7.404   4.638   5.904  1.9661  1.1975  1.0178
    9CHTO    N7 3655   7.320   4.749   5.755 -0.4174 -0.2846  0.5642
    9CHTO   H73 3656   7.308   4.673   5.679 -2.8783  1.2146 -0.6147
    9CHTO   H74 3657   7.308   4.851   5.722 -1.2337 -1.1048 -1.7796
    9CHTO   C40 3658   7.391   4.841   5.988 -0.2812  0.0072 -0.6620
    9CHTO   H82 3659   7.319   4.923   5.981  0.7237  0.9281 -0.3904
    9CHTO   O26 3660   7.417   4.799   6.120  0.2977  0.1541 -0.6788
    9CHTO   C41 3661   7.299   4.773   6.198 -0.3754 -0.1152 -0.3914
    9CHTO   H83 3662   7.233   4.861   6.196 -1.0705 -0.5908  1.1682
    9CHTO   C52 3663   7.326   4.746   6.344 -0.1521 -0.4378  0.2437
    9CHTO   O35 3664   7.346   4.885   6.422  0.1459 -0.0402  0.1911
    9CHTO   H71 3665   7.273   4.941   6.406 -0.2648 -0.2097  1.3941
    9CHTO   O28 3666   7.513   4.880   5.933 -0.1899 -0.1219  0.3231
    9CHTO   C42 3667   7.571   5.017   5.954  0.2946 -0.3439  0.8084
    9CHTO   H84 3668   7.676   5.010   5.926  0.4439 -2.3622  1.8391
    9CHTO   C44 3669   7.581   5.069   6.104  0.1720  0.4282 -0.2486
    9CHTO   H86 3670   7.492   5.040   6.161  1.8847 -1.2864  1.6124
    9CHTO   O32 3671   7.703   5.001   6.156 -0.0877  0.0128  0.2458
    9CHTO   H69 3672   7.771   5.057   6.189 -0.4573  1.6295 -1.6240
    9CHTO   C48 3673   7.596   5.226   6.125  0.1092  0.0279 -0.8685
    9CHTO   H90 3674   7.690   5.269   6.092 -0.2163  1.9864  0.6559
    9CHTO    N9 3675   7.589   5.269   6.269 -0.3710 -0.0204 -0.4218
    9CHTO   H77 3676   7.533   5.359   6.288  1.0594  0.3224  2.5432
    9CHTO   H78 3677   7.688   5.299   6.301 -0.4190 -0.8447  0.5140
    9CHTO   C51 3678   7.489   5.289   6.028  0.0833 -0.4145 -0.1814
    9CHTO   H93 3679   7.389   5.253   6.054  0.5357 -0.7827  1.0906
    9CHTO   O30 3680   7.527   5.260   5.893 -0.1861  0.1916  0.0579
    9CHTO   C46 3681   7.497   5.124   5.864 -0.4057 -0.1356 -0.1677
    9CHTO   H88 3682   7.392   5.098   5.866 -0.5291  0.4020  0.3858
    9CHTO   C53 3683   7.536   5.096   5.718 -0.0251 -0.2773  0.2769
    9CHTO   O72 3684   7.675   5.119   5.678  0.1695 -0.1978  0.4774
    9CHTO  H199 3685   7.690   5.165   5.598  1.6450 -1.6668 -0.1132
    9CHTO   O22 3686   7.493   5.436   6.034 -0.0352  0.0339  0.2545
    9CHTO   C31 3687   7.373   5.511   5.989 -0.5566 -0.4635 -0.2696
    9CHTO   H59 3688   7.402   5.618   5.990  0.0720 -0.6344  0.8584
    9CHTO   C29 3689   7.309   5.483   5.847  0.3220 -0.2652  0.6438
    9CHTO   H57 3690   7.285   5.376   5.843 -1.1677  0.0797 -0.0514
    9CHTO   O21 3691   7.409   5.523   5.746 -0.0854 -0.4363  0.6581
    9CHTO   H37 3692   7.380   5.493   5.662  1.5428  3.0912 -1.2559
    9CHTO   C27 3693   7.176   5.557   5.806 -0.5164  0.1489 -0.9361
    9CHTO   H55 3694   7.202   5.664   5.806  0.6405 -0.1004  1.2869
    9CHTO    N5 3695   7.113   5.524   5.671  0.4526  0.1549  0.5583
    9CHTO   H43 3696   7.170   5.557   5.585 -0.8429  0.3236 -0.2394
    9CHTO   H44 3697   7.006   5.514   5.672  0.5401 -0.7289  1.8541
    9CHTO   C25 3698   7.087   5.523   5.931  0.4153  0.2373  0.0699
    9CHTO   H53 3699   7.077   5.413   5.934  3.3340 -0.0502  1.1599
    9CHTO   O17 3700   7.144   5.581   6.058  0.4372  0.2697 -0.1425
    9CHTO   C32 3701   7.257   5.500   6.093  0.1592 -0.2431  0.0882
    9CHTO   H60 3702   7.215   5.399   6.092  1.2835 -0.7343  1.0173
    9CHTO   C36 3703   7.299   5.536   6.236 -0.0321  0.2169  0.5261
    9CHTO   O25 3704   7.191   5.514   6.330  0.0914  0.3356 -0.5726
    9CHTO   H40 3705   7.166   5.425   6.348 -1.6899  0.9915  0.2336
    9CHTO   O15 3706   6.938   5.591   5.920  0.1852  0.1859  0.7310
    9CHTO   C19 3707   6.805   5.528   5.911 -0.2634 -0.1578  0.4027
    9CHTO   H47 3708   6.730   5.609   5.915 -0.6353 -0.2530 -3.2490
    9CHTO   C20 3709   6.767   5.461   5.778 -0.0012 -0.6017 -0.3899
    9CHTO   H48 3710   6.835   5.378   5.755  1.1696  0.5853 -1.2497
    9CHTO   O19 3711   6.791   5.558   5.672  0.0593 -0.1372 -0.3680
    9CHTO   H35 3712   6.734   5.542   5.599  0.8773  1.4208 -1.3807
    9CHTO   C21 3713   6.613   5.420   5.780  0.5699  0.5972  0.5158
    9CHTO   H49 3714   6.554   5.509   5.801  0.8796  0.6309  1.2530
    9CHTO    N4 3715   6.568   5.345   5.656  0.2232  0.0079 -0.1583
    9CHTO   H41 3716   6.652   5.351   5.589  1.5226  1.9255  1.5516
    9CHTO   H42 3717   6.480   5.395   5.619  0.6098  1.0496  0.3074
    9CHTO   C22 3718   6.590   5.331   5.912  0.5554 -0.5771 -0.1661
    9CHTO   H50 3719   6.644   5.236   5.904 -0.2452 -0.9370 -1.4224
    9CHTO   O14 3720   6.635   5.402   6.033 -0.4071  0.3177 -0.0478
    9CHTO   C23 3721   6.771   5.439   6.028 -0.1280 -0.5177  0.0858
    9CHTO   H51 3722   6.827   5.344   6.017  2.5626  1.2432 -2.1308
    9CHTO   C34 3723   6.789   5.501   6.167 -0.6937  0.5095  0.3610
    9CHTO   O23 3724   6.772   5.402   6.275  0.4842  0.1090  0.1803
    9CHTO   H38 3725   6.848   5.391   6.329 -1.1612 -2.7855  2.0052
    9CHTO   O16 3726   6.450   5.300   5.931  0.6147  0.2497  0.5913
    9CHTO   C24 3727   6.419   5.171   6.023 -0.2554  0.2938  0.5489
    9CHTO   H52 3728   6.488   5.161   6.106  0.0979  1.5704  0.4122
    9CHTO   C26 3729   6.406   5.041   5.932 -0.2599 -0.1580  0.2746
    9CHTO   H54 3730   6.341   5.057   5.843  0.9551 -2.9141 -1.1732
    9CHTO   O20 3731   6.540   5.012   5.889  0.6150 -0.6099  0.0528
    9CHTO   H36 3732   6.555   5.069   5.816 -0.2860 -1.6040 -0.9346
    9CHTO   C30 3733   6.353   4.927   6.020  0.2200 -0.1448 -0.1570
    9CHTO   H58 3734   6.424   4.908   6.102  0.9107  0.5399 -0.5952
    9CHTO    N6 3735   6.344   4.793   5.948  0.1138  0.3683 -0.8816
    9CHTO   H45 3736   6.444   4.761   5.923  1.3654  1.2114  2.7675
    9CHTO   H46 3737   6.302   4.711   6.005  0.9231 -1.1470 -2.3911
    9CHTO   C33 3738   6.222   4.973   6.090 -0.1537  0.7599 -0.3809
    9CHTO   H61 3739   6.137   4.981   6.020  0.2117  1.0269 -0.7958
    9CHTO   O18 3740   6.228   5.103   6.157 -0.2965 -0.3105  0.2691
    9CHTO   C28 3741   6.289   5.212   6.081 -0.2359 -0.0918 -0.3519
    9CHTO   H56 3742   6.222   5.250   6.004 -1.7891  0.6113  1.2993
    9CHTO   C35 3743   6.313   5.334   6.179  0.1051 -0.2318 -0.2552
    9CHTO   O24 3744   6.189   5.377   6.229 -0.3885  0.3133  0.4604
    9CHTO   H39 3745   6.190   5.470   6.242  0.7539  0.3563  0.0762
    9CHTO    O9 3746   6.192   4.869   6.186 -1.0795  0.1091 -0.1244
    9CHTO   C13 3747   6.045   4.857   6.233  0.0079  0.5630  0.3099
    9CHTO   H26 3748   5.988   4.854   6.137 -3.7338  0.9844  2.4204
    9CHTO   C11 3749   5.997   4.978   6.322  0.3108  0.4119  0.0804
    9CHTO   H24 3750   5.963   5.059   6.256  0.3129 -0.9722 -1.6564
    9CHTO    O8 3751   6.100   5.021   6.411  0.0376 -0.0234 -0.1515
    9CHTO    H3 3752   6.065   5.096   6.455  0.8340  0.2974 -0.0635
    9CHTO    C9 3753   5.876   4.931   6.411 -0.0109  0.2498  0.0286
    9CHTO   H22 3754   5.801   4.890   6.341 -0.5038  0.3280  0.5063
    9CHTO    N2 3755   5.805   5.048   6.473 -0.8844 -0.0557 -0.3288
    9CHTO   H10 3756   5.698   5.060   6.463 -0.9317 -0.7207 -0.6526
    9CHTO   H11 3757   5.825   5.061   6.578  0.4197  1.2367 -0.7183
    9CHTO    C7 3758   5.920   4.823   6.512  0.2313  0.4416 -0.7969
    9CHTO   H20 3759   5.823   4.769   6.510  0.5895 -0.1780 -2.0780
    9CHTO    O4 3760   6.019   4.731   6.452  0.1293  0.0449  0.5818
    9CHTO   C14 3761   6.022   4.718   6.306 -0.5454 -0.1372  0.0758
    9CHTO   H27 3762   5.919   4.686   6.283 -0.8304  0.8154  0.0118
    9CHTO   C18 3763   6.120   4.601   6.265  0.2027  0.1789 -0.0598
    9CHTO   O13 3764   6.256   4.614   6.310  0.0083  0.0707 -0.5644
    9CHTO    H7 3765   6.249   4.561   6.387 -0.6963  1.4882  0.3705
    9CHTO    O2 3766   5.976   4.879   6.649 -0.4121  0.1854 -0.2222
    9CHTO    C1 3767   5.998   4.773   6.746 -1.1974  0.1031 -0.5628
    9CHTO   H14 3768   5.995   4.673   6.696 -0.0452  0.6460 -1.7583
    9CHTO    C2 3769   5.887   4.773   6.859 -0.2976  0.0263 -0.3171
    9CHTO   H15 3770   5.891   4.878   6.894  1.9182 -0.9964  2.6692
    9CHTO    O6 3771   5.755   4.752   6.807  0.0241  0.5310 -0.3611
    9CHTO    H1 3772   5.714   4.834   6.788  1.9034  1.0802 -2.2373
    9CHTO    C3 3773   5.911   4.664   6.971 -0.0882 -0.4353 -0.0006
    9CHTO   H16 3774   5.895   4.562   6.934  0.7853 -0.2421 -0.9056
    9CHTO    N1 3775   5.820   4.685   7.089  0.2935  0.1487  0.3109
    9CHTO    H8 3776   5.756   4.598   7.096  0.9083 -0.3140  0.2434
    9CHTO    H9 3777   5.760   4.772   7.071  1.3124  0.5479 -1.2225
    9CHTO    C4 3778   6.067   4.672   7.011 -0.9553 -0.5147 -0.2812
    9CHTO   H17 3779   6.087   4.760   7.072  0.1260 -0.2433 -0.9972
    9CHTO    O1 3780   6.159   4.669   6.895  0.5152  0.1382 -0.9113
    9CHTO    C5 3781   6.131   4.786   6.817  0.2153  0.2397 -0.0752
    9CHTO   H18 3782   6.130   4.874   6.882 -1.1602 -0.3228  0.7000
    9CHTO   C16 3783   6.242   4.809   6.718 -0.4704  0.3288 -0.3544
    9CHTO   O11 3784   6.352   4.887   6.764 -0.4105  0.1555  0.2598
    9CHTO    H5 3785   6.325   4.976   6.774  0.1725  0.6528 -2.1398
    9CHTO    O3 3786   6.100   4.565   7.095 -0.4088  0.8005  0.2327
    9CHTO    C6 3787   6.224   4.554   7.168 -0.3742  0.7422 -0.5848
    9CHTO   H19 3788   6.300   4.628   7.141  1.4304 -1.1383 -0.7910
    9CHTO    C8 3789   6.191   4.573   7.323  0.0672 -0.3499 -0.3230
    9CHTO   H21 3790   6.123   4.494   7.356 -1.1946  0.8920  0.0961
    9CHTO    O7 3791   6.131   4.705   7.331  0.1609  0.1936 -0.1612
    9CHTO    H2 3792   6.074   4.704   7.406 -0.8050  0.7321 -0.8804
    9CHTO   C12 3793   6.321   4.558   7.412  0.3097  0.1103  0.1296
    9CHTO   H25 3794   6.387   4.644   7.388  0.8770 -0.5057 -0.5596
    9CHTO    N3 3795   6.290   4.564   7.559 -0.1470 -0.1140  0.3508
    9CHTO   H12 3796   6.185   4.542   7.575 -0.2565  0.1560  0.0009
    9CHTO   H13 3797   6.354   4.497   7.615  0.7393 -0.2460 -0.8047
    9CHTO   C15 3798   6.395   4.430   7.361  0.4041 -0.3553  1.1766
    9CHTO   H28 3799   6.351   4.339   7.402 -0.2618 -1.4353 -1.8188
    9CHTO   O10 3800   6.537   4.443   7.397  0.4760 -0.1806 -0.1260
    9CHTO    H4 3801   6.556   4.421   7.487 -0.6932 -0.1638  0.1365
    9CHTO    O5 3802   6.411   4.417   7.214 -0.5584 -0.0130 -0.4500
    9CHTO   C10 3803   6.290   4.414   7.141  0.2397 -0.1648  0.3198
    9CHTO   H23 3804   6.223   4.339   7.184  0.4907 -0.1474  0.7472
    9CHTO   C17 3805   6.321   4.382   6.993  0.0558 -0.4550 -0.2964
    9CHTO   O12 3806   6.436   4.447   6.937 -0.0472 -0.3811 -0.0443
    9CHTO    H6 3807   6.479   4.400   6.869  0.9627 -1.6254  1.4352
   10CHTO  H203 3808   6.671   7.032   6.333 -0.8763  0.0978 -0.0319
   10CHTO   O82 3809   6.621   6.974   6.387  0.4916 -0.2675  0.8594
   10CHTO  C123 3810   6.498   7.042   6.426  0.1751  0.8695 -0.4661
   10CHTO  H227 3811   6.472   7.114   6.347 -0.9151  1.7187  0.6467
   10CHTO   O77 3812   6.405   6.932   6.427  0.8628 -0.3881  0.2068
   10CHTO  C118 3813   6.271   6.960   6.471  0.1636  0.1855 -0.3365
   10CHTO  H222 3814   6.213   7.026   6.405  2.2508  0.2900 -2.1005
   10CHTO  C125 3815   6.200   6.823   6.479 -0.2969  0.0170 -0.8619
   10CHTO   O84 3816   6.266   6.724   6.557 -0.0812  0.4711 -0.0990
   10CHTO  H205 3817   6.210   6.701   6.629 -1.3794  1.1578 -0.8697
   10CHTO  C114 3818   6.261   7.027   6.610  0.9113 -0.6697 -0.3699
   10CHTO  H218 3819   6.298   6.953   6.682 -0.5662 -0.4247  0.6841
   10CHTO  C116 3820   6.356   7.148   6.620 -0.0753  0.6081 -0.1298
   10CHTO  H220 3821   6.317   7.236   6.563  1.2323  0.9485 -0.5210
   10CHTO   O79 3822   6.352   7.184   6.757 -0.6677  0.0835  0.6000
   10CHTO  H201 3823   6.315   7.269   6.773 -1.5798 -0.1703 -0.1326
   10CHTO  C120 3824   6.502   7.103   6.570 -0.2729  0.7064  0.1040
   10CHTO  H224 3825   6.548   7.030   6.640 -0.3979  0.6397  0.1165
   10CHTO   N21 3826   6.591   7.222   6.577 -0.2300  0.5826  0.0020
   10CHTO  H211 3827   6.672   7.217   6.506 -0.5237 -2.3086 -0.1685
   10CHTO  H212 3828   6.613   7.231   6.682  0.8449 -0.3871 -0.1302
   10CHTO   O75 3829   6.124   7.055   6.641 -0.1310 -0.0625  0.0821
   10CHTO  C112 3830   6.081   6.994   6.792 -0.3326  0.0415  0.3303
   10CHTO  H216 3831   6.155   7.023   6.868  1.8608 -1.5875 -1.1012
   10CHTO   O73 3832   6.072   6.849   6.779 -0.2368  0.6288  0.3334
   10CHTO  C113 3833   6.034   6.788   6.894 -0.1542  0.0561  0.0839
   10CHTO  H217 3834   6.093   6.830   6.978 -1.4251  0.0672  0.9682
   10CHTO  C124 3835   6.052   6.639   6.889 -0.0846  0.0399  0.3574
   10CHTO   O83 3836   6.195   6.609   6.866  0.2873 -0.4091  1.0086
   10CHTO  H204 3837   6.236   6.690   6.842 -1.7206  0.5497  0.6896
   10CHTO  C109 3838   5.886   6.825   6.927  0.4185  0.1747  0.6843
   10CHTO  H213 3839   5.827   6.792   6.840  0.7363 -0.6031  0.7587
   10CHTO  C110 3840   5.878   6.977   6.940  0.2009  0.1070  0.3147
   10CHTO  H214 3841   5.929   6.989   7.035 -0.9129  1.3246  0.7799
   10CHTO   O78 3842   5.739   7.013   6.960  0.2317 -0.8068 -0.4222
   10CHTO  H200 3843   5.704   6.956   7.026  0.9869 -0.6462  0.1199
   10CHTO  C111 3844   5.947   7.054   6.825  0.4459 -0.4686  0.1185
   10CHTO  H215 3845   5.878   7.056   6.740 -0.8155  1.3404  1.1475
   10CHTO   N19 3846   5.968   7.198   6.860  0.0887  0.1903 -0.4396
   10CHTO  H207 3847   6.017   7.261   6.787  0.6955 -1.6746 -1.6828
   10CHTO  H208 3848   5.877   7.239   6.902  0.4848 -0.6664  1.2989
   10CHTO   O74 3849   5.841   6.759   7.044 -0.2183  0.1378  0.5088
   10CHTO  C115 3850   5.694   6.683   7.024 -0.9925 -0.8511 -0.1846
   10CHTO  H219 3851   5.655   6.688   6.923 -1.2567  0.4582 -0.0365
   10CHTO   O76 3852   5.708   6.531   7.051 -0.0561  0.0397  0.1064
   10CHTO  C122 3853   5.751   6.510   7.185 -0.7058 -0.5950 -0.2202
   10CHTO  H226 3854   5.851   6.553   7.197 -0.1953 -1.8596  0.1753
   10CHTO  C126 3855   5.767   6.356   7.210  0.2071 -0.3951 -0.2743
   10CHTO   O85 3856   5.884   6.298   7.141  0.5171 -0.0554  0.0404
   10CHTO  H206 3857   5.951   6.364   7.149  0.2320  0.0467  1.7762
   10CHTO  C121 3858   5.650   6.565   7.297  0.5484  0.3160 -0.1541
   10CHTO  H225 3859   5.605   6.477   7.348  4.0502 -1.3445  0.2950
   10CHTO   O81 3860   5.718   6.646   7.392 -0.3211 -0.5421 -0.5494
   10CHTO  H202 3861   5.787   6.588   7.419 -0.6847 -1.2004 -1.0176
   10CHTO  C119 3862   5.541   6.648   7.233  0.3881 -0.4228  0.4998
   10CHTO  H223 3863   5.482   6.573   7.180  0.4401  0.4797 -0.8626
   10CHTO  C117 3864   5.588   6.743   7.115 -0.4711 -0.1531  0.6634
   10CHTO  H221 3865   5.628   6.836   7.155 -0.9132 -0.2806  1.4087
   10CHTO   N20 3866   5.462   6.785   7.031 -0.4899  0.0468 -0.0972
   10CHTO  H209 3867   5.451   6.892   7.025  0.5618  0.1493 -0.3797
   10CHTO  H210 3868   5.442   6.738   6.936  1.9178 -1.5106  0.1056
   10CHTO   O80 3869   5.438   6.718   7.334  0.6588  0.3188  0.0146
   10CHTO  C103 3870   5.291   6.650   7.351  0.0861 -0.2176 -0.0643
   10CHTO  H190 3871   5.265   6.599   7.258 -2.2596 -1.3687  1.1931
   10CHTO  C101 3872   5.268   6.546   7.456  1.1039 -0.5264 -0.2373
   10CHTO  H188 3873   5.289   6.595   7.551 -0.7045 -0.3674  0.0985
   10CHTO   O68 3874   5.368   6.409   7.436  0.0273 -0.1397 -0.2203
   10CHTO  H168 3875   5.361   6.355   7.513 -1.0754  0.4900  0.1389
   10CHTO   C99 3876   5.114   6.498   7.460  0.0028  0.2206  0.0672
   10CHTO  H186 3877   5.092   6.450   7.362  1.3804  0.5222 -0.4021
   10CHTO   N17 3878   5.084   6.398   7.564 -0.6081  0.5960 -0.7212
   10CHTO  H174 3879   5.054   6.305   7.519  0.1153 -2.0287  3.8910
   10CHTO  H175 3880   5.154   6.391   7.646  0.2339 -0.6939 -1.5229
   10CHTO   C97 3881   5.015   6.620   7.475  0.2082 -0.4563  0.3314
   10CHTO  H184 3882   5.025   6.660   7.577  0.6497  0.9765 -0.2655
   10CHTO   O64 3883   5.046   6.716   7.375 -0.0326 -0.5249 -0.7758
   10CHTO  C104 3884   5.179   6.769   7.371 -0.3642  0.5083 -0.2929
   10CHTO  H191 3885   5.204   6.821   7.464  2.2090  1.4834 -1.4795
   10CHTO  C108 3886   5.177   6.874   7.255 -0.1192  0.1075  0.4771
   10CHTO   O71 3887   5.107   6.993   7.292 -0.4638  0.0159 -0.9553
   10CHTO  H171 3888   5.014   6.990   7.282 -0.6260  1.6481 -0.2105
   10CHTO   O62 3889   4.880   6.578   7.465  0.3537 -0.1972 -0.9327
   10CHTO   C91 3890   4.783   6.670   7.508 -0.5116 -0.2874 -0.3468
   10CHTO  H178 3891   4.802   6.678   7.615 -2.8591  0.8827  0.0071
   10CHTO   C92 3892   4.651   6.596   7.494  0.9519  0.2693  0.1716
   10CHTO  H179 3893   4.628   6.574   7.388 -2.4896  0.9291  0.7442
   10CHTO   O66 3894   4.652   6.464   7.560 -0.2052 -0.0184  0.0892
   10CHTO  H166 3895   4.728   6.428   7.600 -0.4961 -1.9864 -1.0344
   10CHTO   C93 3896   4.532   6.685   7.559 -0.6107 -0.4523  0.4695
   10CHTO  H180 3897   4.548   6.685   7.667  0.8189  0.9193  0.2806
   10CHTO   N16 3898   4.394   6.626   7.546  0.4353  0.1205 -0.2664
   10CHTO  H172 3899   4.388   6.566   7.456 -0.6254 -1.4184  0.8127
   10CHTO  H173 3900   4.313   6.697   7.548  0.5946  0.4040 -2.2040
   10CHTO   C94 3901   4.538   6.836   7.506  0.1907 -0.6057 -0.8701
   10CHTO  H181 3902   4.444   6.872   7.464  0.1112  2.1479  1.4845
   10CHTO   O61 3903   4.642   6.849   7.410 -0.1314  0.0816  0.6747
   10CHTO   C95 3904   4.775   6.805   7.429 -0.0657  0.2792 -0.6509
   10CHTO  H182 3905   4.822   6.783   7.333  0.4074  0.3313 -0.4352
   10CHTO  C106 3906   4.853   6.910   7.509  0.0323  0.1707  0.3398
   10CHTO   O69 3907   4.850   7.047   7.470  0.9131  0.2990 -0.7315
   10CHTO  H169 3908   4.935   7.078   7.495  0.8257  1.1482 -1.4655
   10CHTO   O63 3909   4.560   6.915   7.620  0.9001  0.2602 -0.3269
   10CHTO   C96 3910   4.450   7.037   7.657 -0.6687 -0.2354 -0.0973
   10CHTO  H183 3911   4.374   7.022   7.580 -1.4071 -0.6905  0.7137
   10CHTO   C98 3912   4.500   7.185   7.642 -0.3056  0.0911  0.1672
   10CHTO  H185 3913   4.555   7.190   7.547 -0.9503 -0.0308 -0.2117
   10CHTO   O67 3914   4.392   7.274   7.637  0.1104 -0.1734  1.0223
   10CHTO  H167 3915   4.416   7.364   7.631 -0.6821  0.0841  1.7920
   10CHTO  C102 3916   4.593   7.237   7.761 -0.0294 -0.6503  0.2470
   10CHTO  H189 3917   4.566   7.343   7.777  1.5702  0.0222 -1.3917
   10CHTO   N18 3918   4.735   7.242   7.733 -0.0991  0.6117 -0.6922
   10CHTO  H176 3919   4.764   7.304   7.650  0.1371  1.0600 -0.2731
   10CHTO  H177 3920   4.777   7.290   7.820  0.8294  0.6376 -1.1504
   10CHTO  C105 3921   4.574   7.153   7.888  0.0643 -0.0266 -0.0831
   10CHTO  H192 3922   4.635   7.063   7.883  1.1543  0.6668  0.3888
   10CHTO   O65 3923   4.436   7.105   7.895  0.1995  0.5159  0.1732
   10CHTO  C100 3924   4.396   7.002   7.801 -0.0986 -0.0689 -0.2143
   10CHTO  H187 3925   4.446   6.912   7.839  1.4197 -0.7041 -3.5445
   10CHTO  C107 3926   4.245   6.977   7.787  0.3254 -0.2621 -0.1826
   10CHTO   O70 3927   4.200   6.901   7.902 -0.0858  0.4308  0.0415
   10CHTO  H170 3928   4.107   6.889   7.894 -0.2880  2.2237 -0.3407
   10CHTO   O57 3929   4.616   7.245   8.028  0.5520  0.1947  0.2659
   10CHTO   C85 3930   4.553   7.200   8.154  0.0817  0.1723  0.4105
   10CHTO  H157 3931   4.480   7.120   8.129  1.2329 -0.9024  0.3950
   10CHTO   C83 3932   4.458   7.311   8.211 -0.1632 -0.3228 -0.1554
   10CHTO  H155 3933   4.381   7.334   8.138 -0.3839  0.0108  0.1837
   10CHTO   O56 3934   4.532   7.438   8.232 -0.0195  0.1517 -0.2594
   10CHTO  H135 3935   4.474   7.493   8.281  0.1051  1.0288 -1.0928
   10CHTO   C81 3936   4.395   7.258   8.342 -0.2744 -0.3428 -0.2359
   10CHTO  H153 3937   4.334   7.173   8.312 -1.9675  0.4038  0.9875
   10CHTO   N14 3938   4.297   7.348   8.398 -0.0722  0.3441  0.1606
   10CHTO  H141 3939   4.342   7.437   8.438 -0.8663  0.5890  0.5171
   10CHTO  H142 3940   4.239   7.298   8.473  0.9132 -2.1486 -0.6702
   10CHTO   C79 3941   4.502   7.211   8.450 -0.3217  1.3323 -0.1107
   10CHTO  H151 3942   4.445   7.162   8.529  0.1790  1.4567  0.3265
   10CHTO   O52 3943   4.595   7.113   8.400  0.5964  0.8812  0.5877
   10CHTO   C86 3944   4.654   7.147   8.271 -0.1260  0.2436  0.6584
   10CHTO  H158 3945   4.728   7.227   8.294  0.7496 -0.0923 -0.9082
   10CHTO   C90 3946   4.732   7.025   8.226  0.7290  0.8284 -0.6691
   10CHTO   O60 3947   4.821   6.986   8.325 -0.4722 -0.1941  0.7377
   10CHTO  H138 3948   4.861   6.904   8.302 -0.6423  0.4003 -1.8131
   10CHTO   O50 3949   4.571   7.321   8.509 -0.4332  0.1430  0.3315
   10CHTO   C73 3950   4.696   7.313   8.580  0.1211 -0.0889 -0.1495
   10CHTO  H145 3951   4.774   7.266   8.517 -1.9870 -1.9501 -1.4284
   10CHTO   C74 3952   4.693   7.236   8.708 -0.3476 -0.2375 -0.1885
   10CHTO  H146 3953   4.662   7.137   8.671  0.0154 -0.1010 -0.8660
   10CHTO   O54 3954   4.829   7.216   8.765  0.1219  0.1786  0.5569
   10CHTO  H133 3955   4.867   7.299   8.783  0.3748 -0.1076  1.4040
   10CHTO   C75 3956   4.595   7.300   8.811 -0.2303  0.5722 -0.3124
   10CHTO  H147 3957   4.494   7.297   8.769 -0.0742 -0.3296 -0.6360
   10CHTO   N13 3958   4.575   7.230   8.939  0.6088 -0.1298  0.2003
   10CHTO  H139 3959   4.577   7.302   9.020  0.7940  0.4692 -0.3283
   10CHTO  H140 3960   4.482   7.178   8.929  0.4920  0.4943 -2.4508
   10CHTO   C76 3961   4.645   7.455   8.840  0.2461  0.3273  0.2563
   10CHTO  H148 3962   4.743   7.453   8.887 -0.8397 -0.7864  2.5472
   10CHTO   O49 3963   4.660   7.525   8.713 -0.0831  0.3579 -0.1018
   10CHTO   C77 3964   4.742   7.458   8.616  0.4554  0.0349  0.8348
   10CHTO  H149 3965   4.841   7.458   8.662  0.6780 -0.2025  0.3602
   10CHTO   C88 3966   4.749   7.553   8.495  0.1649  0.1464  0.3777
   10CHTO   O58 3967   4.850   7.670   8.526  0.1450 -0.0516  0.0419
   10CHTO  H136 3968   4.934   7.640   8.553 -0.2490 -0.2014  1.1150
   10CHTO   O51 3969   4.532   7.531   8.943 -0.3931 -0.5477 -0.0914
   10CHTO   C78 3970   4.609   7.643   9.025  0.3410 -0.0104  0.5702
   10CHTO  H150 3971   4.711   7.655   8.982  0.1477 -1.3438 -0.3053
   10CHTO   C80 3972   4.619   7.609   9.178  0.2478  0.1635  0.6792
   10CHTO  H152 3973   4.517   7.603   9.221  0.5150  4.2088  2.0981
   10CHTO   O55 3974   4.682   7.477   9.189  0.2021 -0.2347  0.6601
   10CHTO  H134 3975   4.776   7.477   9.191  0.2358 -0.7589 -0.5715
   10CHTO   C84 3976   4.701   7.719   9.254  0.6461  0.2578  0.7977
   10CHTO  H156 3977   4.797   7.710   9.203 -0.1021  2.6623 -1.1457
   10CHTO   N15 3978   4.718   7.686   9.393  0.3839  0.1802  0.0097
   10CHTO  H143 3979   4.632   7.637   9.435  0.3833  2.0231  2.2373
   10CHTO  H144 3980   4.810   7.633   9.407  0.4384  0.7923  2.0245
   10CHTO   C87 3981   4.636   7.858   9.230  0.2211  0.0564  0.2148
   10CHTO  H159 3982   4.548   7.885   9.288  1.0282  0.5478  1.2276
   10CHTO   O53 3983   4.617   7.870   9.084 -0.3363  0.0587  0.8104
   10CHTO   C82 3984   4.533   7.779   9.015  0.0235  0.1425  0.3487
   10CHTO  H154 3985   4.434   7.774   9.061 -0.6638 -2.0897 -1.2652
   10CHTO   C89 3986   4.507   7.823   8.867 -0.2033  0.2655 -0.2962
   10CHTO   O59 3987   4.627   7.825   8.784 -0.2478 -0.3986  0.5479
   10CHTO  H137 3988   4.664   7.911   8.779 -0.9170 -0.0444  1.4698
   10CHTO   O45 3989   4.734   7.983   9.259  0.1187 -0.0769 -0.3307
   10CHTO   C67 3990   4.666   8.095   9.315  0.3357 -0.0391 -0.2122
   10CHTO  H124 3991   4.562   8.098   9.282 -0.4781  0.5856  2.2862
   10CHTO   C65 3992   4.664   8.085   9.471 -0.8930 -0.3463 -0.2738
   10CHTO  H122 3993   4.625   7.987   9.495  1.4217 -1.0439  0.8543
   10CHTO   O44 3994   4.571   8.171   9.534 -0.1753 -0.4555  0.2355
   10CHTO  H102 3995   4.599   8.259   9.549  1.8013 -0.6665 -1.7990
   10CHTO   C63 3996   4.807   8.090   9.520 -0.1244  0.4546  0.0230
   10CHTO  H120 3997   4.865   8.020   9.461  1.6777  2.2484 -0.3947
   10CHTO   N11 3998   4.840   8.046   9.660  0.1462 -0.3247 -0.2753
   10CHTO  H108 3999   4.783   8.093   9.737  2.3249 -0.4393  1.4692
   10CHTO  H109 4000   4.941   8.080   9.667  0.2286 -0.8553  1.3035
   10CHTO   C61 4001   4.861   8.232   9.484 -0.1170 -0.3581  0.5053
   10CHTO  H118 4002   4.966   8.221   9.517 -0.2372 -1.0556  0.6590
   10CHTO   O40 4003   4.862   8.266   9.346  0.5716 -0.1517 -0.7113
   10CHTO   C68 4004   4.729   8.243   9.274  0.3170  0.1288 -0.1035
   10CHTO  H125 4005   4.754   8.228   9.166  0.2031 -0.6697 -0.0259
   10CHTO   C72 4006   4.621   8.353   9.280  0.1423  0.8361 -0.0741
   10CHTO   O48 4007   4.668   8.481   9.243  0.2676 -0.1047  0.4269
   10CHTO  H105 4008   4.712   8.513   9.319 -0.5168 -1.0094  1.2746
   10CHTO   O38 4009   4.807   8.336   9.569  0.5270 -0.2165 -0.6526
   10CHTO   C55 4010   4.891   8.433   9.636 -0.3722  0.3588  0.9038
   10CHTO  H112 4011   4.994   8.408   9.605 -1.4128  0.1242 -2.5890
   10CHTO   C56 4012   4.877   8.419   9.790 -0.6578  0.0865 -0.5423
   10CHTO  H113 4013   4.777   8.456   9.818 -1.5042 -0.2769 -2.9400
   10CHTO   O42 4014   4.904   8.281   9.831  0.4776  0.5265  0.7902
   10CHTO  H100 4015   4.916   8.268   9.923 -1.0089  1.8110  1.1877
   10CHTO   C57 4016   4.982   8.517   9.853 -0.2618  0.2115 -0.1419
   10CHTO  H114 4017   5.080   8.486   9.817 -1.1825 -2.4094 -0.4699
   10CHTO   N10 4018   4.991   8.511  10.003  0.0871 -0.2953  0.0586
   10CHTO  H106 4019   5.095   8.515  10.033 -0.4508  0.2688  1.8884
   10CHTO  H107 4020   4.938   8.593  10.049  0.3178 -0.6713  0.9987
   10CHTO   C58 4021   4.957   8.662   9.799 -0.1035 -0.3830 -0.2806
   10CHTO  H115 4022   4.860   8.698   9.838  2.1040  3.2866  2.0699
   10CHTO   O37 4023   4.961   8.670   9.656  0.6144 -0.1981 -0.3179
   10CHTO   C59 4024   4.873   8.576   9.598 -0.2414  0.9222  0.0344
   10CHTO  H116 4025   4.773   8.603   9.633 -1.0118 -0.0144 -1.4129
   10CHTO   C70 4026   4.885   8.581   9.439 -0.1526 -0.1812 -0.1777
   10CHTO   O46 4027   4.838   8.711   9.401 -0.9398  0.7952 -0.7244
   10CHTO  H103 4028   4.910   8.769   9.385  0.1306  0.4111  2.4027
   10CHTO   O39 4029   5.070   8.748   9.846  0.1423  0.2380 -0.6145
   10CHTO   C60 4030   5.026   8.876   9.896 -0.4270 -0.4816 -0.4778
   10CHTO  H117 4031   4.929   8.896   9.851 -0.6320 -1.7399 -0.6138
   10CHTO   C62 4032   5.003   8.879  10.049 -0.8773  0.4789  0.5154
   10CHTO  H119 4033   4.932   8.797  10.068  3.1110 -2.7846  2.0798
   10CHTO   O43 4034   5.121   8.825  10.108 -0.3933 -0.7719  0.3736
   10CHTO  H101 4035   5.132   8.851  10.198  0.7784 -0.6225  0.1963
   10CHTO   C66 4036   4.961   9.025  10.093  0.5352  0.3369  0.6677
   10CHTO  H123 4037   4.876   9.060  10.035  1.5132  2.0059  0.2076
   10CHTO   N12 4038   4.920   9.031  10.236 -0.1357 -0.6519 -0.6358
   10CHTO  H110 4039   4.971   9.103  10.298  2.5207  1.2303 -4.7639
   10CHTO  H111 4040   4.813   9.045  10.242  0.0668  0.4588  0.5280
   10CHTO   C69 4041   5.076   9.116  10.059 -0.9648  0.9532 -0.5077
   10CHTO  H126 4042   5.170   9.083  10.108 -1.2809 -0.4645 -0.8338
   10CHTO   O41 4043   5.100   9.112   9.908  0.1643 -0.1077  0.1076
   10CHTO   C64 4044   5.125   8.984   9.847  0.0275 -0.5889 -0.5217
   10CHTO  H121 4045   5.224   8.939   9.866 -0.3145 -0.0479  2.9919
   10CHTO   C71 4046   5.116   9.010   9.690  0.4911 -0.7834  0.0346
   10CHTO   O47 4047   4.981   9.033   9.643 -0.3025 -0.6685 -0.3978
   10CHTO  H104 4048   4.933   8.958   9.612 -1.7561  1.2155 -2.9185
   10CHTO   O34 4049   5.064   9.262  10.091 -0.0980 -0.2135  0.4899
   10CHTO   C49 4050   5.167   9.376  10.162  0.4252 -0.1571  0.5900
   10CHTO   H91 4051   5.266   9.334  10.148  0.1550 -1.9506  3.5286
   10CHTO   C47 4052   5.135   9.385  10.314  0.2468  0.7839 -0.2376
   10CHTO   H89 4053   5.224   9.439  10.355  0.6559 -0.6654  0.8241
   10CHTO   O33 4054   5.127   9.256  10.380  0.1756  0.1436 -0.2507
   10CHTO   H70 4055   5.202   9.208  10.351  0.4283 -1.2559  2.5668
   10CHTO   C45 4056   4.995   9.467  10.322 -0.1791  0.4765 -0.2341
   10CHTO   H87 4057   4.923   9.427  10.250  1.0154 -2.1322 -0.0375
   10CHTO    N8 4058   4.931   9.468  10.456 -0.6424 -0.1762 -0.6820
   10CHTO   H75 4059   4.929   9.369  10.499 -0.8020 -0.0237 -0.3346
   10CHTO   H76 4060   4.830   9.508  10.464 -0.5777 -0.1305 -0.0298
   10CHTO   C43 4061   5.021   9.615  10.264  0.6524 -0.0877  0.1081
   10CHTO   H85 4062   4.925   9.665  10.277 -0.0684 -0.8700 -1.9381
   10CHTO   O29 4063   5.049   9.602  10.120 -0.1061 -0.1400 -0.2999
   10CHTO   C50 4064   5.160   9.517  10.093  0.3136  0.5804  0.0044
   10CHTO   H92 4065   5.163   9.494   9.986  3.1455  0.8029 -0.0062
   10CHTO   C54 4066   5.290   9.598  10.123  0.3275 -0.4043 -0.2421
   10CHTO   O36 4067   5.287   9.717  10.040 -0.1474  0.0601  0.1423
   10CHTO   H72 4068   5.291   9.695   9.949 -0.4013  0.7866 -0.0445
   10CHTO   O27 4069   5.117   9.700  10.337  0.1013  0.1314 -0.8521
   10CHTO   C37 4070   5.150   9.844  10.355  0.2823 -0.5714 -0.4068
   10CHTO   H79 4071   5.204   9.886  10.269  0.9732 -1.0633 -0.2254
   10CHTO   C38 4072   5.017   9.925  10.363 -0.4163 -0.2091 -0.2792
   10CHTO   H80 4073   4.946   9.871  10.427 -0.3652 -0.9345 -0.8366
   10CHTO   O31 4074   4.966   9.926  10.224 -0.1512 -0.4074 -0.2222
   10CHTO   H68 4075   4.879   9.961  10.214  0.6537  1.3744 -1.3234
   10CHTO   C39 4076   5.032  10.069  10.419  0.3700 -0.5751 -0.7903
   10CHTO   H81 4077   5.087  10.116  10.337  1.7985 -0.1032  0.4184
   10CHTO    N7 4078   4.909  10.149  10.442 -0.1858  0.0581  0.4818
   10CHTO   H73 4079   4.935  10.253  10.428  1.1266 -0.3809 -0.4687
   10CHTO   H74 4080   4.883  10.134  10.545 -1.2033 -0.8738  0.1023
   10CHTO   C40 4081   5.133  10.071  10.539  0.2726 -0.1982 -0.1618
   10CHTO   H82 4082   5.095  10.035  10.635  0.2489  1.8549  0.6336
   10CHTO   O26 4083   5.254  10.006  10.506 -0.8054 -0.0759 -0.1951
   10CHTO   C41 4084   5.247   9.859  10.478 -0.5588  0.3189  0.2354
   10CHTO   H83 4085   5.204   9.799  10.559 -0.4166  0.6561  0.5580
   10CHTO   C52 4086   5.398   9.817  10.442  0.1818  0.5024 -0.6454
   10CHTO   O35 4087   5.426   9.653  10.441 -0.4113 -0.3933  0.6299
   10CHTO   H71 4088   5.518   9.644  10.428 -0.8092 -0.6504 -2.3484
   10CHTO   O28 4089   5.181  10.201  10.571 -0.1782  0.2321 -0.3276
   10CHTO   C42 4090   5.264  10.238  10.690  0.0123 -0.3127 -0.1925
   10CHTO   H84 4091   5.370  10.242  10.666  1.1735  1.6081  4.7310
   10CHTO   C44 4092   5.251  10.131  10.808 -0.3449  0.2257 -0.2246
   10CHTO   H86 4093   5.150  10.092  10.818 -0.4148  0.6926  0.9158
   10CHTO   O32 4094   5.335  10.015  10.775 -0.3390 -0.1698  0.1981
   10CHTO   H69 4095   5.282   9.951  10.733 -0.5948  0.1533  0.0279
   10CHTO   C48 4096   5.302  10.189  10.948 -0.4075  0.5640  0.5359
   10CHTO   H90 4097   5.410  10.205  10.956 -0.4703  1.2014  0.1732
   10CHTO    N9 4098   5.276  10.099  11.067  0.4877  0.0943 -0.3071
   10CHTO   H77 4099   5.369  10.057  11.101 -0.8300 -2.6110  0.0443
   10CHTO   H78 4100   5.220  10.149  11.144  0.6664 -0.8462  0.4337
   10CHTO   C51 4101   5.247  10.330  10.975  0.1219  0.3297 -0.4938
   10CHTO   H93 4102   5.138  10.321  10.975  0.1260 -0.2841  2.3275
   10CHTO   O30 4103   5.294  10.418  10.879  0.2648 -0.0153 -0.3012
   10CHTO   C46 4104   5.226  10.382  10.741 -0.1598  0.4344  0.4444
   10CHTO   H88 4105   5.118  10.396  10.745 -0.2421  0.4029 -1.2306
   10CHTO   C53 4106   5.276  10.475  10.634 -0.0442  0.1226  1.0602
   10CHTO   O72 4107   5.210  10.462  10.511  0.1135 -0.1260  0.6496
   10CHTO  H199 4108   5.122  10.491  10.522  0.3603  1.1417 -0.5926
   10CHTO   O22 4109   5.289  10.376  11.104 -0.0407 -0.5405 -0.2425
   10CHTO   C31 4110   5.230  10.495  11.168  0.0748  0.0014  0.0454
   10CHTO   H59 4111   5.177  10.548  11.087 -2.3420  0.6688  2.0046
   10CHTO   C29 4112   5.124  10.457  11.274  0.2028  0.4995  0.2581
   10CHTO   H57 4113   5.172  10.394  11.350 -0.3843  1.3469  1.3469
   10CHTO   O21 4114   5.029  10.365  11.209 -0.5652  0.1280  0.7833
   10CHTO   H37 4115   4.987  10.304  11.266 -4.1554  2.7722  1.1594
   10CHTO   C27 4116   5.060  10.585  11.346 -0.4350 -0.3198 -0.1387
   10CHTO   H55 4117   4.984  10.633  11.283 -0.3518  0.7224  0.5397
   10CHTO    N5 4118   4.988  10.548  11.472  0.4563  0.0397  0.0788
   10CHTO   H43 4119   4.972  10.442  11.487 -0.0752  0.1962  0.6505
   10CHTO   H44 4120   4.921  10.621  11.517  1.4470  0.3899  1.0149
   10CHTO   C25 4121   5.175  10.687  11.382  0.8779  0.2693 -0.3252
   10CHTO   H53 4122   5.243  10.642  11.456  0.4424 -0.1394 -0.1795
   10CHTO   O17 4123   5.270  10.710  11.268  0.1512  0.1523  0.0067
   10CHTO   C32 4124   5.334  10.589  11.228 -0.1152 -0.1103 -0.1040
   10CHTO   H60 4125   5.386  10.535  11.307  3.6752 -0.0153 -2.3806
   10CHTO   C36 4126   5.452  10.634  11.130  0.5961  0.1527  0.6569
   10CHTO   O25 4127   5.512  10.529  11.050  0.1659 -0.2601 -0.0932
   10CHTO   H40 4128   5.467  10.526  10.968  0.5144  0.4931 -0.3139
   10CHTO   O15 4129   5.099  10.832  11.448 -0.4193  0.1222  0.6433
   10CHTO   C19 4130   5.175  10.920  11.539 -0.4193  0.1003  0.7276
   10CHTO   H47 4131   5.253  10.862  11.590 -0.3531 -0.6316 -0.1821
   10CHTO   C20 4132   5.246  11.034  11.461  0.7474 -0.1483  0.0160
   10CHTO   H48 4133   5.175  11.096  11.404  1.0103  0.6073  0.4848
   10CHTO   O19 4134   5.339  10.975  11.369  0.1541  0.2636  0.4628
   10CHTO   H35 4135   5.311  10.946  11.284 -2.2661 -1.5295  1.7956
   10CHTO   C21 4136   5.318  11.138  11.563  0.4929  0.0212  0.0960
   10CHTO   H49 4137   5.395  11.082  11.616  0.3311 -2.7100 -2.4466
   10CHTO    N4 4138   5.383  11.254  11.503  0.1067 -0.0086 -0.0559
   10CHTO   H41 4139   5.400  11.241  11.397 -0.5705 -1.1928 -0.0265
   10CHTO   H42 4140   5.481  11.272  11.546 -0.4179 -0.0363  1.1554
   10CHTO   C22 4141   5.210  11.176  11.673 -0.6119 -0.0237 -0.1431
   10CHTO   H50 4142   5.131  11.240  11.633 -1.1882 -0.7111 -0.1092
   10CHTO   O14 4143   5.158  11.059  11.735 -0.3746 -0.0975  0.6066
   10CHTO   C23 4144   5.087  10.976  11.649 -0.4254  0.5190  0.3504
   10CHTO   H51 4145   5.009  11.044  11.610 -1.5313 -0.3046  1.1065
   10CHTO   C34 4146   5.024  10.874  11.739 -0.0772  0.3786  0.2611
   10CHTO   O23 4147   4.902  10.928  11.802 -0.8394  0.2780 -0.4204
   10CHTO   H38 4148   4.901  10.910  11.894 -2.2906 -0.4813 -0.5616
   10CHTO   O16 4149   5.276  11.234  11.788 -0.3295 -0.3381  1.0429
   10CHTO   C24 4150   5.210  11.362  11.856  0.1379  0.2327  0.9451
   10CHTO   H52 4151   5.127  11.403  11.797  0.7266  1.7658  1.1685
   10CHTO   C26 4152   5.324  11.467  11.855 -0.3556 -0.0099 -0.4147
   10CHTO   H54 4153   5.415  11.415  11.891  0.2380  0.4902 -1.2035
   10CHTO   O20 4154   5.358  11.503  11.715  0.2069  0.3030 -0.0254
   10CHTO   H36 4155   5.407  11.582  11.722  0.8584 -0.0337 -0.7661
   10CHTO   C30 4156   5.281  11.584  11.944  0.2441 -0.8496  0.1151
   10CHTO   H58 4157   5.206  11.646  11.894  1.5077  1.8861  1.4936
   10CHTO    N6 4158   5.393  11.678  11.977  0.5218 -0.0927  0.1594
   10CHTO   H45 4159   5.491  11.637  11.996 -0.5498 -2.5726  0.6646
   10CHTO   H46 4160   5.365  11.747  12.055 -1.4087  1.2320 -1.6608
   10CHTO   C33 4161   5.211  11.547  12.082 -0.6100  0.0881  0.3539
   10CHTO   H61 4162   5.286  11.507  12.152  1.9346 -0.9261 -2.8418
   10CHTO   O18 4163   5.111  11.449  12.066 -0.3023  0.3152 -0.1160
   10CHTO   C28 4164   5.155  11.329  11.998  0.6168  0.0247  0.1652
   10CHTO   H56 4165   5.234  11.286  12.059  1.5937 -0.0038 -1.1071
   10CHTO   C35 4166   5.043  11.225  11.989 -0.0414 -0.0099 -0.0980
   10CHTO   O24 4167   5.019  11.169  12.118 -0.2623 -0.3370  0.0022
   10CHTO   H39 4168   4.952  11.105  12.102 -0.7662  0.8514 -2.9991
   10CHTO    O9 4169   5.158  11.664  12.150  0.3367 -0.4434 -0.1242
   10CHTO   C13 4170   5.130  11.642  12.332  0.1394 -0.0486 -0.3914
   10CHTO   H26 4171   5.196  11.559  12.367 -1.3989 -1.1300 -0.0319
   10CHTO   C11 4172   4.978  11.617  12.359 -0.1014 -0.2496  0.1798
   10CHTO   H24 4173   4.955  11.514  12.330  0.3888  0.6485 -3.7183
   10CHTO    O8 4174   4.913  11.705  12.264  0.3059 -0.3768 -0.5540
   10CHTO    H3 4175   4.941  11.794  12.272 -1.0496  0.1780 -1.6728
   10CHTO    C9 4176   4.944  11.642  12.505  0.2985  1.0362 -0.0099
   10CHTO   H22 4177   5.010  11.570  12.556 -0.9189  0.1725  0.3577
   10CHTO    N2 4178   4.811  11.605  12.553  0.0994 -0.0892 -0.0638
   10CHTO   H10 4179   4.736  11.602  12.476 -2.6566  3.1112  2.3396
   10CHTO   H11 4180   4.779  11.664  12.638 -1.0606 -0.9021  0.0651
   10CHTO    C7 4181   4.997  11.788  12.549  0.5765 -0.2454  0.2139
   10CHTO   H20 4182   5.055  11.753  12.637  0.7155  0.9137  0.5828
   10CHTO    O4 4183   5.084  11.861  12.450 -0.2165  0.0513  0.0797
   10CHTO   C14 4184   5.190  11.773  12.411  1.0874 -0.0476  0.2882
   10CHTO   H27 4185   5.246  11.738  12.500  0.5113 -1.4046  0.1163
   10CHTO   C18 4186   5.294  11.851  12.325  0.7065  0.1673  0.0372
   10CHTO   O13 4187   5.237  11.908  12.208 -0.3636  0.2114 -0.1161
   10CHTO    H7 4188   5.158  11.951  12.234 -0.1693 -0.1135  1.0624
   10CHTO    O2 4189   4.870  11.885  12.599  0.2674  0.3933  0.1039
   10CHTO    C1 4190   4.908  12.017  12.631 -0.5815  0.0829 -0.4681
   10CHTO   H14 4191   5.014  12.037  12.605 -0.6967 -0.2171 -1.1713
   10CHTO    C2 4192   4.893  12.037  12.785  0.3064  0.2361 -0.1181
   10CHTO   H15 4193   4.792  12.006  12.815  0.2966  2.0181  1.7774
   10CHTO    O6 4194   4.994  11.965  12.855  0.4871  0.1950 -0.0816
   10CHTO    H1 4195   4.972  11.945  12.944  0.8676 -0.5903 -0.1577
   10CHTO    C3 4196   4.903  12.195  12.817 -0.0652  0.1719  0.2026
   10CHTO   H16 4197   5.007  12.230  12.810 -0.4568  1.3951  0.3346
   10CHTO    N1 4198   4.852  12.221  12.958 -0.2693  0.2531  0.5563
   10CHTO    H8 4199   4.916  12.165  13.024 -3.3023 -2.3770  1.3666
   10CHTO    H9 4200   4.880  12.326  12.965  2.0926 -0.1464 -1.8703
   10CHTO    C4 4201   4.819  12.280  12.708 -0.3676  0.0509  0.4128
   10CHTO   H17 4202   4.712  12.268  12.722 -1.0114  2.2538 -2.0782
   10CHTO    O1 4203   4.840  12.244  12.567 -0.7167  0.7020  0.0910
   10CHTO    C5 4204   4.811  12.103  12.544  0.5575 -0.0448  0.4703
   10CHTO   H18 4205   4.704  12.090  12.565  0.4516 -1.2360 -0.6788
   10CHTO   C16 4206   4.832  12.080  12.391 -0.3268 -0.0472  0.0605
   10CHTO   O11 4207   4.743  11.965  12.367  0.0152 -0.4054  0.1636
   10CHTO    H5 4208   4.718  11.959  12.277 -0.7559  1.6267  0.2009
   10CHTO    O3 4209   4.844  12.418  12.724 -0.8233 -0.4381 -0.2954
   10CHTO    C6 4210   4.748  12.520  12.685  0.3526 -0.8348  0.1584
   10CHTO   H19 4211   4.661  12.478  12.634 -0.2323 -0.3929  0.7887
   10CHTO    C8 4212   4.699  12.608  12.810  0.8762  0.2953  0.0994
   10CHTO   H21 4213   4.788  12.653  12.855  0.8842 -1.8702  2.3210
   10CHTO    O7 4214   4.637  12.527  12.904 -0.3708  0.2834 -0.7351
   10CHTO    H2 4215   4.704  12.489  12.958 -1.5088 -1.2177 -0.3357
   10CHTO   C12 4216   4.605  12.726  12.762  0.3495 -0.2786 -0.2056
   10CHTO   H25 4217   4.514  12.678  12.719  0.9766  0.8392 -2.8427
   10CHTO    N3 4218   4.560  12.825  12.868 -0.2596  0.4884 -0.0989
   10CHTO   H12 4219   4.644  12.867  12.920 -0.2292 -1.0031  1.0884
   10CHTO   H13 4220   4.494  12.903  12.833 -0.5356  0.8013  1.1124
   10CHTO   C15 4221   4.673  12.797  12.643 -0.3357 -0.4610 -0.6692
   10CHTO   H28 4222   4.759  12.854  12.680  1.0923 -2.3892 -0.8967
   10CHTO   O10 4223   4.558  12.882  12.567 -0.1571  0.2587 -0.4610
   10CHTO    H4 4224   4.525  12.955  12.617  0.4562  0.5403 -0.4615
   10CHTO    O5 4225   4.727  12.712  12.535 -0.2274  0.4695  0.2681
   10CHTO   C10 4226   4.820  12.616  12.580  0.4566 -0.0706  0.0285
   10CHTO   H23 4227   4.901  12.678  12.616 -0.2152  1.4464 -0.9957
   10CHTO   C17 4228   4.864  12.540  12.456 -0.9204  0.0866 -0.3165
   10CHTO   O12 4229   4.995  12.574  12.416 -0.1312  0.5406  0.6155
   10CHTO    H6 4230   5.000  12.585  12.323  0.3935  0.2320  0.6047
   11CHTO  H203 4231   6.737   6.335   3.180 -0.5600 -0.3339  1.7160
   11CHTO   O82 4232   6.650   6.368   3.170 -0.2786 -0.0222  0.1437
   11CHTO  C123 4233   6.643   6.406   3.036 -0.0103 -0.2161  0.3347
   11CHTO  H227 4234   6.731   6.371   2.981 -0.4914 -0.8089 -0.0703
   11CHTO   O77 4235   6.530   6.330   2.990 -0.4394 -0.4330 -0.1850
   11CHTO  C118 4236   6.524   6.333   2.849 -0.4065  0.3158  0.7926
   11CHTO  H222 4237   6.618   6.295   2.806 -1.1652 -1.5539  0.7661
   11CHTO  C125 4238   6.410   6.229   2.813 -0.2141  0.1865  0.0507
   11CHTO   O84 4239   6.271   6.259   2.838  0.3432  0.3052 -0.7894
   11CHTO  H205 4240   6.254   6.348   2.861 -1.7644 -0.4357  0.7473
   11CHTO  C114 4241   6.495   6.477   2.802 -0.2934  0.0006 -0.4187
   11CHTO  H218 4242   6.397   6.503   2.844  0.6210  0.5983  1.3847
   11CHTO  C116 4243   6.603   6.578   2.855 -0.4317 -0.3693 -0.3741
   11CHTO  H220 4244   6.702   6.555   2.811  0.1918  1.8433 -0.2084
   11CHTO   O79 4245   6.565   6.714   2.813  0.1810  0.2506 -0.0159
   11CHTO  H201 4246   6.617   6.776   2.862 -1.5729  1.4684  0.3626
   11CHTO  C120 4247   6.607   6.562   3.008 -0.4934  0.3306  0.1031
   11CHTO  H224 4248   6.510   6.588   3.056 -0.9477 -0.2660 -0.4955
   11CHTO   N21 4249   6.706   6.654   3.075 -0.5463 -0.4345  0.9520
   11CHTO  H211 4250   6.798   6.599   3.080 -0.0256 -0.0089 -2.5161
   11CHTO  H212 4251   6.715   6.755   3.038  3.9998 -0.1513  2.5299
   11CHTO   O75 4252   6.502   6.466   2.660 -0.5513 -0.6669  0.0138
   11CHTO  C112 4253   6.380   6.519   2.570 -1.3565 -0.4498  0.1678
   11CHTO  H216 4254   6.382   6.627   2.590 -1.2382 -0.4016 -0.1001
   11CHTO   O73 4255   6.260   6.461   2.620 -0.3507 -0.8556 -0.4717
   11CHTO  C113 4256   6.142   6.490   2.544 -0.4753 -0.1810 -0.1162
   11CHTO  H217 4257   6.121   6.598   2.555 -1.4759 -0.1162 -2.2889
   11CHTO  C124 4258   6.032   6.409   2.608  0.5710  0.7451  0.7081
   11CHTO   O83 4259   5.997   6.447   2.739  0.7317  0.1154 -0.1124
   11CHTO  H204 4260   5.980   6.539   2.734  1.7811  0.3057 -0.4243
   11CHTO  C109 4261   6.150   6.462   2.398  0.0417  0.1438  0.2762
   11CHTO  H213 4262   6.145   6.352   2.390 -0.9952  0.2101 -0.0352
   11CHTO  C110 4263   6.280   6.528   2.333  0.1359 -0.9243 -0.3985
   11CHTO  H214 4264   6.263   6.635   2.328 -0.0362 -1.0132 -2.0423
   11CHTO   O78 4265   6.288   6.482   2.205  0.5089  0.1600 -0.4519
   11CHTO  H200 4266   6.243   6.548   2.155  0.7280  0.2086 -0.5846
   11CHTO  C111 4267   6.405   6.491   2.417  0.0658 -1.1617 -0.3221
   11CHTO  H215 4268   6.436   6.386   2.404  1.0217 -1.1360  1.6790
   11CHTO   N19 4269   6.523   6.574   2.373 -0.0619  0.4089  0.9680
   11CHTO  H207 4270   6.589   6.606   2.452  0.1890 -1.5339  1.5827
   11CHTO  H208 4271   6.476   6.669   2.355  0.4742  0.6164  0.6602
   11CHTO   O74 4272   6.032   6.511   2.324  0.1560  0.0834 -0.1071
   11CHTO  C115 4273   5.993   6.386   2.213  0.4751 -0.3828  1.0652
   11CHTO  H219 4274   6.065   6.305   2.217 -0.7122 -1.5512 -0.6890
   11CHTO   O76 4275   5.850   6.323   2.252  0.5526 -0.3005  0.3425
   11CHTO  C122 4276   5.751   6.423   2.257  0.0794 -0.4414 -0.1980
   11CHTO  H226 4277   5.771   6.468   2.354  1.9797  0.5622 -1.0331
   11CHTO  C126 4278   5.607   6.357   2.267 -0.5040 -0.1653 -0.7307
   11CHTO   O85 4279   5.586   6.287   2.397  0.0222 -0.0474  0.6752
   11CHTO  H206 4280   5.498   6.255   2.402 -1.2122  3.0958  0.0955
   11CHTO  C121 4281   5.759   6.526   2.126  0.3988  0.6467 -0.5742
   11CHTO  H225 4282   5.657   6.536   2.083  0.4992  0.2589 -0.9021
   11CHTO   O81 4283   5.784   6.657   2.176 -0.2762  0.2907  0.3870
   11CHTO  H202 4284   5.861   6.659   2.230  0.3232 -1.4137 -0.3558
   11CHTO  C119 4285   5.848   6.460   2.012  0.3347  0.7769  0.8155
   11CHTO  H223 4286   5.798   6.363   2.006 -3.3316  2.5394  1.3692
   11CHTO  C117 4287   5.999   6.441   2.062 -0.1018  0.2760 -0.0108
   11CHTO  H221 4288   6.052   6.536   2.069 -1.1703  0.8772  0.0004
   11CHTO   N20 4289   6.073   6.355   1.965 -1.0744  0.8874  0.0091
   11CHTO  H209 4290   6.031   6.257   1.950  1.3276 -0.4183  1.3666
   11CHTO  H210 4291   6.177   6.351   1.994 -1.5298 -2.4135  1.3801
   11CHTO   O80 4292   5.816   6.521   1.859 -0.2364 -0.2901  0.3247
   11CHTO  C103 4293   5.842   6.662   1.832  0.3457 -0.5092 -1.1187
   11CHTO  H190 4294   5.855   6.728   1.917  0.0162  0.1248 -1.5570
   11CHTO  C101 4295   5.968   6.690   1.736  0.2862 -0.3635 -0.1956
   11CHTO  H188 4296   5.947   6.650   1.637 -0.1650 -0.3173 -0.1201
   11CHTO   O68 4297   6.093   6.624   1.796  0.7334  0.1670  0.3154
   11CHTO  H168 4298   6.072   6.536   1.821 -1.3167  0.5730  0.1334
   11CHTO   C99 4299   5.973   6.850   1.708 -0.6726 -0.4803 -0.1019
   11CHTO  H186 4300   5.964   6.895   1.809 -3.1313  0.6517 -0.7811
   11CHTO   N17 4301   6.100   6.892   1.634  0.0264 -0.6505  0.4741
   11CHTO  H174 4302   6.085   6.992   1.596  0.8139 -0.5337  0.4663
   11CHTO  H175 4303   6.112   6.816   1.559 -1.0078  0.2631 -0.6460
   11CHTO   C97 4304   5.839   6.900   1.639 -0.0817 -0.7714 -0.6929
   11CHTO  H184 4305   5.843   6.849   1.542 -0.0769  0.4726 -1.3536
   11CHTO   O64 4306   5.723   6.859   1.726 -0.4994 -0.2532  0.8257
   11CHTO  C104 4307   5.716   6.715   1.745  0.0284 -0.3096  0.3111
   11CHTO  H191 4308   5.710   6.661   1.651  3.0679 -0.8881  0.4044
   11CHTO  C108 4309   5.588   6.677   1.817  0.2825  0.5294  0.1192
   11CHTO   O71 4310   5.463   6.692   1.747  0.0446  0.6190  0.4214
   11CHTO  H171 4311   5.471   6.747   1.671  0.3325 -1.0420 -0.7742
   11CHTO   O62 4312   5.843   7.041   1.619 -0.0277 -0.7731  0.1392
   11CHTO   C91 4313   5.751   7.085   1.523  0.1548  0.1344 -0.2656
   11CHTO  H178 4314   5.675   7.009   1.509  0.4625  0.0083 -1.2897
   11CHTO   C92 4315   5.825   7.104   1.380  0.5930  0.2965 -0.2910
   11CHTO  H179 4316   5.884   7.016   1.350  0.8493  0.7971 -1.2766
   11CHTO   O66 4317   5.720   7.117   1.285 -0.2148 -0.4397  0.4376
   11CHTO  H166 4318   5.683   7.031   1.291  0.9351 -1.0097 -0.3322
   11CHTO   C93 4319   5.908   7.237   1.384 -0.6065 -0.2052  0.0054
   11CHTO  H180 4320   5.935   7.255   1.279 -0.3742 -1.0708 -0.0901
   11CHTO   N16 4321   6.039   7.233   1.460 -0.3462  0.7234 -0.3178
   11CHTO  H172 4322   6.022   7.181   1.553 -2.5114  2.6075  0.3938
   11CHTO  H173 4323   6.123   7.191   1.407  0.3517  1.8376 -0.1039
   11CHTO   C94 4324   5.820   7.363   1.437 -0.3491  0.2117  0.0604
   11CHTO  H181 4325   5.865   7.404   1.528  0.7487 -1.4960  0.2937
   11CHTO   O61 4326   5.679   7.333   1.471 -0.4080  0.2590 -0.0973
   11CHTO   C95 4327   5.670   7.218   1.562  0.4047  0.3882 -0.4868
   11CHTO  H182 4328   5.712   7.249   1.658 -0.2860 -2.9417  0.9515
   11CHTO  C106 4329   5.520   7.178   1.580 -0.5077 -0.3730 -0.1920
   11CHTO   O69 4330   5.499   7.114   1.708 -0.0175  0.2914 -0.3234
   11CHTO  H169 4331   5.502   7.176   1.778 -0.4526  0.7533 -0.7206
   11CHTO   O63 4332   5.820   7.475   1.313 -0.2592  0.2280  0.1561
   11CHTO   C96 4333   5.887   7.596   1.341 -0.3608  0.0289 -0.6607
   11CHTO  H183 4334   5.957   7.573   1.422 -1.7890 -0.3608  0.4914
   11CHTO   C98 4335   5.798   7.707   1.409  0.1087 -0.0706  0.0124
   11CHTO  H185 4336   5.751   7.659   1.496 -0.1359  1.9585  1.0279
   11CHTO   O67 4337   5.889   7.801   1.468 -0.3236 -0.7232  0.3728
   11CHTO  H167 4338   5.936   7.848   1.402 -1.0214  0.0130  0.3838
   11CHTO  C102 4339   5.699   7.769   1.298  0.0867  0.1594 -0.0586
   11CHTO  H189 4340   5.656   7.862   1.339  1.9349 -0.8096  4.2909
   11CHTO   N18 4341   5.582   7.683   1.276 -0.2524 -0.0831  0.4493
   11CHTO  H176 4342   5.507   7.734   1.217 -0.8949 -0.9414  0.5051
   11CHTO  H177 4343   5.614   7.593   1.224 -1.8996  0.7946 -2.1901
   11CHTO  C105 4344   5.780   7.806   1.170 -0.2585 -0.0264 -0.5280
   11CHTO  H192 4345   5.750   7.747   1.084 -0.3012 -1.5408  0.5056
   11CHTO   O65 4346   5.920   7.787   1.187 -0.5308 -0.1864  0.0301
   11CHTO  C100 4347   5.959   7.653   1.208 -0.8739  0.4253 -0.4841
   11CHTO  H187 4348   5.925   7.594   1.122  1.5973  1.2356 -2.0703
   11CHTO  C107 4349   6.115   7.632   1.213 -0.3292  0.3977 -1.0020
   11CHTO   O70 4350   6.154   7.505   1.272 -0.1847 -0.2911  0.0075
   11CHTO  H170 4351   6.246   7.490   1.261  0.2703  1.3372  1.2725
   11CHTO   O57 4352   5.719   7.976   1.139  0.5367 -0.1250 -1.1635
   11CHTO   C85 4353   5.710   8.032   1.010 -0.2891 -0.2733 -0.8027
   11CHTO  H157 4354   5.697   8.141   1.025 -2.2737 -0.6030  0.0083
   11CHTO   C83 4355   5.574   7.986   0.932  0.5491  0.4462  0.3430
   11CHTO  H155 4356   5.484   8.012   0.988  1.0863  0.2932  1.2932
   11CHTO   O56 4357   5.570   7.845   0.921  0.1138 -0.1734 -0.0278
   11CHTO  H135 4358   5.613   7.810   0.997 -0.1408  0.5610  0.4619
   11CHTO   C81 4359   5.564   8.048   0.786 -0.2532  0.6509  0.8765
   11CHTO  H153 4360   5.553   8.156   0.797 -0.8738  0.5403  1.4008
   11CHTO   N14 4361   5.435   8.007   0.713 -0.4975  0.7544 -0.3794
   11CHTO  H141 4362   5.433   8.036   0.610  0.2063 -1.6389 -1.0961
   11CHTO  H142 4363   5.346   8.045   0.758  0.8848  0.7275  2.5019
   11CHTO   C79 4364   5.700   8.006   0.712 -0.8303  0.2571 -0.3388
   11CHTO  H151 4365   5.698   8.048   0.611  1.2271 -0.8386 -0.8623
   11CHTO   O52 4366   5.814   8.070   0.779 -0.7815 -0.0627  0.2421
   11CHTO   C86 4367   5.826   8.000   0.914  0.6029 -0.7363 -0.3946
   11CHTO  H158 4368   5.838   7.891   0.897  3.8566 -0.5801  0.6057
   11CHTO   C90 4369   5.965   8.045   0.984  0.0662 -0.3435  0.0952
   11CHTO   O60 4370   6.076   8.047   0.904  0.6648 -0.1102  0.2480
   11CHTO  H138 4371   6.050   8.079   0.820  0.4764  0.1075  0.3897
   11CHTO   O50 4372   5.715   7.860   0.686  0.1685  0.2670  0.1060
   11CHTO   C73 4373   5.807   7.785   0.595  0.3697  0.5313 -0.0060
   11CHTO  H145 4374   5.879   7.850   0.544  0.5519 -0.5011 -1.0799
   11CHTO   C74 4375   5.724   7.709   0.495 -0.2404  0.5815  0.1381
   11CHTO  H146 4376   5.660   7.781   0.443 -0.5889  0.7501  0.7917
   11CHTO   O54 4377   5.816   7.655   0.396  0.3089  0.4420 -0.6037
   11CHTO  H133 4378   5.765   7.609   0.332 -0.1810 -0.9501  0.7640
   11CHTO   C75 4379   5.637   7.599   0.572 -0.6258 -0.0640 -0.6422
   11CHTO  H147 4380   5.561   7.649   0.635  0.9412  1.4873  0.0759
   11CHTO   N13 4381   5.545   7.524   0.484  0.1763 -0.1538  0.5248
   11CHTO  H139 4382   5.592   7.440   0.434 -4.1498 -0.7008 -2.9390
   11CHTO  H140 4383   5.455   7.491   0.534  1.8728 -1.3686  2.8767
   11CHTO   C76 4384   5.732   7.507   0.657 -0.2181  0.4409  0.2117
   11CHTO  H148 4385   5.797   7.451   0.590  1.2611  0.4708  1.5803
   11CHTO   O49 4386   5.817   7.591   0.746  0.1569 -0.0640  0.9343
   11CHTO   C77 4387   5.901   7.677   0.670  0.7425 -0.3898 -0.0649
   11CHTO  H149 4388   5.953   7.617   0.595  0.3658 -1.6553  0.6707
   11CHTO   C88 4389   6.003   7.744   0.766  0.0849 -0.1424  0.1573
   11CHTO   O58 4390   6.083   7.637   0.861  0.1652  0.1628 -0.2244
   11CHTO  H136 4391   6.157   7.675   0.903 -0.3770  0.0090  0.8879
   11CHTO   O51 4392   5.652   7.406   0.751 -0.1394 -0.0612  0.1080
   11CHTO   C78 4393   5.745   7.282   0.785  0.0107  0.6440 -0.0956
   11CHTO  H150 4394   5.853   7.310   0.787  0.3493 -0.7275  3.3736
   11CHTO   C80 4395   5.715   7.169   0.682 -0.1344  0.0513  0.0015
   11CHTO  H152 4396   5.606   7.153   0.678  0.2129 -2.4298 -0.4330
   11CHTO   O55 4397   5.754   7.229   0.555 -0.4626  0.0726 -0.3385
   11CHTO  H134 4398   5.714   7.181   0.485 -0.5766  0.8403 -0.8003
   11CHTO   C84 4399   5.793   7.037   0.717 -0.0361  0.0492 -0.4060
   11CHTO  H156 4400   5.901   7.048   0.707 -0.1667 -0.1717 -2.2056
   11CHTO   N15 4401   5.762   6.927   0.620  0.0995 -0.7994  0.2040
   11CHTO  H143 4402   5.822   6.847   0.658  0.6506 -0.9254 -0.9358
   11CHTO  H144 4403   5.795   6.948   0.521  1.9914 -1.1226  0.7550
   11CHTO   C87 4404   5.759   6.986   0.861 -0.2494  0.2392  0.0745
   11CHTO  H159 4405   5.653   6.963   0.861 -0.0673 -0.6345 -0.0962
   11CHTO   O53 4406   5.779   7.117   0.960 -0.2175 -0.6505 -0.0573
   11CHTO   C82 4407   5.706   7.237   0.924 -0.5293 -0.6302  0.0420
   11CHTO  H154 4408   5.601   7.212   0.910 -0.6946  0.8491 -1.5192
   11CHTO   C89 4409   5.725   7.353   1.033 -0.1255 -0.3894 -0.3502
   11CHTO   O59 4410   5.862   7.351   1.061 -0.3165 -0.0632  0.2776
   11CHTO  H137 4411   5.909   7.421   1.020  0.1140  0.8307  2.2086
   11CHTO   O45 4412   5.850   6.875   0.915 -0.0151  0.6066 -0.2128
   11CHTO   C67 4413   5.993   6.897   0.914  0.5416 -0.3305  0.2477
   11CHTO  H124 4414   6.024   6.960   0.831 -1.2814 -1.2751 -1.1930
   11CHTO   C65 4415   6.051   6.965   1.045 -0.4889  0.1876 -0.1466
   11CHTO  H122 4416   5.979   6.940   1.123 -0.1471  3.4089  1.2727
   11CHTO   O44 4417   6.058   7.107   1.030 -0.3823 -0.1147 -0.0536
   11CHTO  H102 4418   5.998   7.140   1.094  2.8798  1.8789  2.1672
   11CHTO   C63 4419   6.190   6.904   1.100 -0.5339  0.2042  0.3837
   11CHTO  H120 4420   6.172   6.807   1.146  0.7359  0.6638  1.8895
   11CHTO   N11 4421   6.246   6.974   1.217  0.4731  0.2205 -0.5280
   11CHTO  H108 4422   6.325   6.918   1.262 -1.2138 -1.6471  0.1737
   11CHTO  H109 4423   6.170   7.010   1.283 -0.3109 -0.5722 -0.9887
   11CHTO   C61 4424   6.284   6.876   0.981  0.0525  0.0137 -1.3043
   11CHTO  H118 4425   6.364   6.819   1.029  0.0422  0.6165 -0.5549
   11CHTO   O40 4426   6.223   6.791   0.881 -0.2841 -0.1950 -0.0663
   11CHTO   C68 4427   6.078   6.760   0.893 -0.0809 -0.0786 -0.1186
   11CHTO  H125 4428   6.058   6.688   0.975  0.1246 -0.5762 -0.5057
   11CHTO   C72 4429   6.034   6.692   0.760  0.0036 -0.4558  0.2708
   11CHTO   O48 4430   5.902   6.638   0.776 -0.0706  0.4396 -0.4918
   11CHTO  H105 4431   5.878   6.617   0.688  0.8017 -1.0193 -0.3948
   11CHTO   O38 4432   6.327   6.999   0.915  0.1220  0.0662  0.7494
   11CHTO   C55 4433   6.461   7.002   0.868 -0.2496 -0.8396 -0.3577
   11CHTO  H112 4434   6.483   6.895   0.861 -1.0159 -0.9726 -0.8991
   11CHTO   C56 4435   6.559   7.082   0.967 -0.4338  0.3509 -0.2986
   11CHTO  H113 4436   6.518   7.184   0.968 -1.5653 -0.1120  1.7060
   11CHTO   O42 4437   6.545   7.023   1.100  0.0498  0.1596  0.1930
   11CHTO  H100 4438   6.574   7.077   1.171 -1.4106 -1.4014  2.0015
   11CHTO   C57 4439   6.706   7.080   0.915 -0.1230 -0.4555  0.1351
   11CHTO  H114 4440   6.731   6.975   0.929  1.9515 -0.0197 -0.1218
   11CHTO   N10 4441   6.802   7.166   0.996  0.0608  0.2196  0.4146
   11CHTO  H106 4442   6.894   7.111   0.999 -0.6650 -1.0560 -0.2280
   11CHTO  H107 4443   6.816   7.260   0.944 -0.6414  0.9467  1.5136
   11CHTO   C58 4444   6.714   7.112   0.763 -0.1602  0.6134 -0.1130
   11CHTO  H115 4445   6.713   7.223   0.759  2.6179  0.6283 -1.3735
   11CHTO   O37 4446   6.615   7.053   0.680 -0.3119  0.1767 -0.6991
   11CHTO   C59 4447   6.473   7.064   0.722 -0.1099  0.0973 -0.3306
   11CHTO  H116 4448   6.442   7.168   0.708  0.1815  0.3139  0.5908
   11CHTO   C70 4449   6.385   6.983   0.623 -0.1398 -0.3046  0.6164
   11CHTO   O46 4450   6.244   6.999   0.650  0.5133 -0.4994  0.1925
   11CHTO  H103 4451   6.205   6.923   0.688  0.4315  0.0599  1.2595
   11CHTO   O39 4452   6.853   7.058   0.697 -0.0680 -0.5380  0.1504
   11CHTO   C60 4453   6.901   7.141   0.592 -0.3928 -0.7416  0.7516
   11CHTO  H117 4454   6.819   7.205   0.558 -1.3094 -1.7925  0.9544
   11CHTO   C62 4455   7.010   7.238   0.646  0.2050 -0.5847 -0.1509
   11CHTO  H119 4456   6.955   7.295   0.724  1.7224 -0.2322  0.6878
   11CHTO   O43 4457   7.114   7.159   0.708 -0.5406  0.3468 -0.1935
   11CHTO  H101 4458   7.158   7.119   0.636 -0.0972  0.2590  0.1244
   11CHTO   C66 4459   7.064   7.345   0.537  0.4646  0.2213 -0.6097
   11CHTO  H123 4460   6.980   7.404   0.500  0.3211  0.5608  0.2334
   11CHTO   N12 4461   7.159   7.443   0.589  0.1678  0.5528 -0.2295
   11CHTO  H110 4462   7.146   7.548   0.569 -0.6491  0.3885 -0.5700
   11CHTO  H111 4463   7.168   7.417   0.693 -1.0966  1.0824  0.0191
   11CHTO   C69 4464   7.111   7.261   0.411  0.7545  0.6458  0.3470
   11CHTO  H126 4465   7.179   7.186   0.457 -0.8126 -0.8698  0.2580
   11CHTO   O41 4466   6.988   7.182   0.361 -0.1871  0.9123  0.6632
   11CHTO   C64 4467   6.957   7.068   0.464 -0.4142  0.2468  0.0530
   11CHTO  H121 4468   7.053   7.013   0.474 -0.6328  0.2092  2.3599
   11CHTO   C71 4469   6.854   6.966   0.406  0.0926 -0.8650  0.3896
   11CHTO   O47 4470   6.914   6.859   0.335 -0.0023  0.1952 -0.2015
   11CHTO  H104 4471   6.913   6.865   0.242  0.6377 -1.5042 -0.3408
   11CHTO   O34 4472   7.180   7.342   0.308  0.1249  0.0171 -0.6424
   11CHTO   C49 4473   7.307   7.322   0.248  0.3510  0.3949  0.7595
   11CHTO   H91 4474   7.390   7.325   0.318  0.2225 -2.4225  1.1059
   11CHTO   C47 4475   7.327   7.434   0.151  0.3960  0.6840 -0.2204
   11CHTO   H89 4476   7.430   7.406   0.117  0.2324 -0.1181 -0.0627
   11CHTO   O33 4477   7.325   7.561   0.217 -0.0534 -0.2551 -0.4355
   11CHTO   H70 4478   7.381   7.553   0.291 -1.4281  3.7012  1.1282
   11CHTO   C45 4479   7.225   7.421   0.022 -0.0318 -0.3373 -0.1694
   11CHTO   H87 4480   7.144   7.493   0.038  0.4370 -0.2779  2.1482
   11CHTO    N8 4481   7.302   7.470  -0.100  0.3917 -0.2230 -0.6511
   11CHTO   H75 4482   7.267   7.569  -0.126  0.7199  0.4026  1.1919
   11CHTO   H76 4483   7.410   7.465  -0.098  0.3148 -1.5045  1.7827
   11CHTO   C43 4484   7.154   7.273   0.022 -0.4942  0.0915  0.4855
   11CHTO   H85 4485   7.095   7.278   0.113 -0.9648 -0.6632  0.2297
   11CHTO   O29 4486   7.262   7.174   0.034  0.0609 -0.9805  1.0913
   11CHTO   C50 4487   7.323   7.189   0.162 -0.6278 -0.3989 -0.3511
   11CHTO   H92 4488   7.282   7.110   0.227 -0.6514  0.9131  1.2628
   11CHTO   C54 4489   7.472   7.137   0.149 -0.2607 -0.7540  0.3017
   11CHTO   O36 4490   7.545   7.136   0.273 -0.4263  0.4373  0.3098
   11CHTO   H72 4491   7.639   7.134   0.264 -0.0098  3.2034  3.4212
   11CHTO   O27 4492   7.061   7.249  -0.081 -0.6411 -0.6160 -0.0832
   11CHTO   C37 4493   6.965   7.167  -0.139 -0.2995  0.2916  0.4853
   11CHTO   H79 4494   7.000   7.063  -0.132  0.3662  0.5635  1.2531
   11CHTO   C38 4495   6.830   7.178  -0.060 -0.1699 -0.5356 -0.2853
   11CHTO   H80 4496   6.807   7.286  -0.057 -3.1226 -1.1422  0.8254
   11CHTO   O31 4497   6.858   7.136   0.071 -0.6453  0.1955  0.4099
   11CHTO   H68 4498   6.811   7.183   0.138  1.7612  2.5065  0.5561
   11CHTO   C39 4499   6.715   7.097  -0.129 -0.6217  1.0008  0.4368
   11CHTO   H81 4500   6.741   6.991  -0.135  1.2125  1.3237  2.1427
   11CHTO    N7 4501   6.585   7.096  -0.058 -0.4073  0.1195  0.6476
   11CHTO   H73 4502   6.514   7.026  -0.099  0.6028 -0.1246 -0.6925
   11CHTO   H74 4503   6.602   7.063   0.044  0.0519  0.1248  0.5711
   11CHTO   C40 4504   6.708   7.151  -0.279  0.2473  0.2344  0.8815
   11CHTO   H82 4505   6.679   7.256  -0.284 -2.1085 -0.4665 -1.1731
   11CHTO   O26 4506   6.833   7.129  -0.341 -0.1523  0.0837  0.6660
   11CHTO   C41 4507   6.950   7.199  -0.285 -0.2468  0.2815 -0.1330
   11CHTO   H83 4508   6.929   7.304  -0.309 -0.8780 -0.2409 -1.9764
   11CHTO   C52 4509   7.073   7.160  -0.371  0.7839 -0.0079 -0.0979
   11CHTO   O35 4510   7.182   7.241  -0.319 -0.4331  0.2970  0.2879
   11CHTO   H71 4511   7.191   7.230  -0.226 -1.5757  0.6674  0.4433
   11CHTO   O28 4512   6.617   7.078  -0.364 -0.3701  0.1162  0.5157
   11CHTO   C42 4513   6.607   7.116  -0.502  0.1637  0.5237 -0.3097
   11CHTO   H84 4514   6.706   7.148  -0.534 -0.7608  0.9019 -2.9509
   11CHTO   C44 4515   6.506   7.233  -0.542 -0.2126 -0.0585  0.1847
   11CHTO   H86 4516   6.405   7.203  -0.515 -1.0000  0.0982 -2.3739
   11CHTO   O32 4517   6.548   7.351  -0.471 -0.0748  0.1489  0.1935
   11CHTO   H69 4518   6.549   7.334  -0.378  0.9929  1.6464  0.4579
   11CHTO   C48 4519   6.491   7.250  -0.699 -0.2448 -0.4233 -0.4432
   11CHTO   H90 4520   6.592   7.275  -0.731  0.2009 -0.2413  1.0770
   11CHTO    N9 4521   6.392   7.352  -0.752 -0.1395 -0.2183  0.2618
   11CHTO   H77 4522   6.345   7.411  -0.674  0.1617  0.4087 -0.0306
   11CHTO   H78 4523   6.320   7.301  -0.813 -0.6706 -3.2664  3.3032
   11CHTO   C51 4524   6.471   7.110  -0.759  1.0620  0.1836 -0.2237
   11CHTO   H93 4525   6.372   7.073  -0.733  0.3661  0.9559 -1.7313
   11CHTO   O30 4526   6.573   7.024  -0.718 -0.2067  0.5024  0.1522
   11CHTO   C46 4527   6.577   6.983  -0.580 -0.1784  0.1665  0.4046
   11CHTO   H88 4528   6.483   6.936  -0.554 -0.4830 -0.8572 -2.3652
   11CHTO   C53 4529   6.686   6.879  -0.568 -0.4480 -0.1176  0.0628
   11CHTO   O72 4530   6.691   6.813  -0.442 -0.0744 -0.6163 -0.4651
   11CHTO  H199 4531   6.648   6.730  -0.436 -1.1029  0.0872  2.5992
   11CHTO   O22 4532   6.494   7.097  -0.904 -0.0187 -0.2164 -0.7725
   11CHTO   C31 4533   6.400   7.017  -0.994  0.2658  0.4669 -0.4499
   11CHTO   H59 4534   6.305   7.002  -0.940  0.4972 -0.1893 -0.2311
   11CHTO   C29 4535   6.362   7.086  -1.123  0.0518  0.3187  0.5724
   11CHTO   H57 4536   6.456   7.125  -1.165  0.3026  0.6597  1.4357
   11CHTO   O21 4537   6.280   7.198  -1.094  0.2733  0.4683  0.1664
   11CHTO   H37 4538   6.319   7.264  -1.040  3.2910 -2.1893  1.3709
   11CHTO   C27 4539   6.294   6.987  -1.232  0.0861  0.8481 -0.1295
   11CHTO   H55 4540   6.194   6.957  -1.196 -0.3855  2.3208 -0.1784
   11CHTO    N5 4541   6.276   7.047  -1.364  0.1945 -0.3713  0.4082
   11CHTO   H43 4542   6.370   7.098  -1.384 -0.5744  0.5750 -0.8631
   11CHTO   H44 4543   6.192   7.114  -1.366 -0.3941 -1.1433 -1.5411
   11CHTO   C25 4544   6.367   6.848  -1.238 -0.6301 -0.5447 -0.4729
   11CHTO   H53 4545   6.461   6.855  -1.295  1.1054  1.4178  2.5030
   11CHTO   O17 4546   6.377   6.794  -1.107  0.2103 -0.1756 -0.1385
   11CHTO   C32 4547   6.458   6.875  -1.019  0.2838  0.2587  0.9246
   11CHTO   H60 4548   6.561   6.888  -1.051  1.9173 -3.4069  4.2473
   11CHTO   C36 4549   6.458   6.789  -0.888 -0.6148 -0.1657  0.0324
   11CHTO   O25 4550   6.504   6.657  -0.921  0.2008 -0.0595 -0.2481
   11CHTO   H40 4551   6.436   6.597  -0.895  0.8758 -0.5879  0.3023
   11CHTO   O15 4552   6.285   6.750  -1.322  0.3919 -0.0219  0.0374
   11CHTO   C19 4553   6.175   6.657  -1.328 -0.0855  0.6013  0.0078
   11CHTO   H47 4554   6.221   6.568  -1.282  1.6873  1.7425  0.4798
   11CHTO   C20 4555   6.039   6.691  -1.247  0.2458 -0.5286 -0.0669
   11CHTO   H48 4556   5.994   6.785  -1.282  0.0804 -0.4162  0.4386
   11CHTO   O19 4557   6.077   6.711  -1.110 -0.1182  0.0222 -0.1069
   11CHTO   H35 4558   6.092   6.798  -1.078 -3.1885  0.2848  0.7689
   11CHTO   C21 4559   5.945   6.561  -1.255 -0.3332  0.0153  0.3783
   11CHTO   H49 4560   5.996   6.478  -1.204  0.6394 -1.2385 -2.5379
   11CHTO    N4 4561   5.816   6.567  -1.192  1.0850  0.1826 -0.6904
   11CHTO   H41 4562   5.804   6.512  -1.099  2.4699 -2.3700 -1.9903
   11CHTO   H42 4563   5.773   6.665  -1.174  0.6584 -0.3004  1.0823
   11CHTO   C22 4564   5.923   6.519  -1.401 -0.5229 -0.4182 -0.0715
   11CHTO   H50 4565   5.859   6.596  -1.444 -0.4781 -0.3005  0.0766
   11CHTO   O14 4566   6.048   6.510  -1.472 -0.5771 -0.5081  0.2015
   11CHTO   C23 4567   6.140   6.619  -1.476 -0.5076 -1.0281 -0.0421
   11CHTO   H51 4568   6.079   6.694  -1.528 -0.9808 -1.9944 -0.8819
   11CHTO   C34 4569   6.268   6.564  -1.536 -0.2265  0.9861  0.0373
   11CHTO   O23 4570   6.248   6.551  -1.679  0.3635 -0.4672  0.1868
   11CHTO   H38 4571   6.312   6.491  -1.712  0.4368 -0.0775 -0.3970
   11CHTO   O16 4572   5.871   6.390  -1.416 -0.2545  0.2537 -0.0572
   11CHTO   C24 4573   5.818   6.350  -1.559  0.4654 -0.2467  0.2504
   11CHTO   H52 4574   5.863   6.410  -1.638  0.1642 -0.8013 -0.3541
   11CHTO   C26 4575   5.666   6.366  -1.566  0.3754  0.4913  0.7782
   11CHTO   H54 4576   5.619   6.294  -1.495  2.2421 -1.2167  0.3338
   11CHTO   O20 4577   5.614   6.499  -1.538 -0.2468 -0.5276 -0.1228
   11CHTO   H36 4578   5.522   6.493  -1.520 -0.4202  2.7631  0.3303
   11CHTO   C30 4579   5.617   6.316  -1.707  0.3523  0.4850 -0.0104
   11CHTO   H58 4580   5.639   6.394  -1.781  3.2895  2.4856  2.8165
   11CHTO    N6 4581   5.465   6.298  -1.717  0.0059  0.3047 -0.6190
   11CHTO   H45 4582   5.434   6.222  -1.646 -0.7271 -0.0296 -1.2871
   11CHTO   H46 4583   5.412   6.388  -1.691 -0.8700 -0.4951  0.4581
   11CHTO   C33 4584   5.679   6.180  -1.756  0.9012 -0.1899 -0.1676
   11CHTO   H61 4585   5.629   6.103  -1.696  0.3573 -1.2095 -1.8934
   11CHTO   O18 4586   5.817   6.178  -1.725 -0.3497  0.8009  0.6165
   11CHTO   C28 4587   5.860   6.205  -1.588 -0.3789 -0.2712  1.1232
   11CHTO   H56 4588   5.809   6.139  -1.519  1.1815 -2.6285  0.0981
   11CHTO   C35 4589   6.013   6.171  -1.585  0.4043 -0.0509 -0.3267
   11CHTO   O24 4590   6.080   6.197  -1.470 -0.0019 -0.3837 -0.1397
   11CHTO   H39 4591   6.164   6.154  -1.464 -0.3071 -0.7791  1.4592
   11CHTO    O9 4592   5.651   6.141  -1.891  0.3434 -1.1513 -0.0635
   11CHTO   C13 4593   5.708   6.246  -2.020 -0.2232  0.0674 -0.5175
   11CHTO   H26 4594   5.721   6.348  -1.980  0.6052 -0.0537 -0.4826
   11CHTO   C11 4595   5.604   6.242  -2.127  0.0474  0.1629  0.0001
   11CHTO   H24 4596   5.508   6.278  -2.087  0.2354 -2.9073  3.4415
   11CHTO    O8 4597   5.575   6.101  -2.152 -0.3175 -0.3328 -0.2581
   11CHTO    H3 4598   5.501   6.095  -2.209 -0.5400 -0.9663  0.0939
   11CHTO    C9 4599   5.660   6.320  -2.244  0.7348 -0.3164 -0.1450
   11CHTO   H22 4600   5.685   6.416  -2.197  0.0330 -1.2436  2.2086
   11CHTO    N2 4601   5.562   6.334  -2.351  0.7034  0.0330  0.7614
   11CHTO   H10 4602   5.532   6.236  -2.386  0.3320  0.0165  1.1108
   11CHTO   H11 4603   5.479   6.390  -2.310 -0.4946  0.4034 -2.0647
   11CHTO    C7 4604   5.796   6.260  -2.297 -1.2869 -0.2763  0.5763
   11CHTO   H20 4605   5.838   6.326  -2.376 -0.1350 -1.1293  0.4587
   11CHTO    O4 4606   5.893   6.263  -2.194  0.1344  0.1807 -0.6657
   11CHTO   C14 4607   5.856   6.202  -2.070 -0.0739 -0.5990  0.7113
   11CHTO   H27 4608   5.930   6.237  -1.996  2.6574 -3.0465 -0.7805
   11CHTO   C18 4609   5.867   6.047  -2.075 -0.2209 -1.0700  0.0169
   11CHTO   O13 4610   5.977   5.997  -2.148 -0.2426 -0.6659  0.7227
   11CHTO    H7 4611   6.033   5.957  -2.084 -0.0147 -1.9524 -0.2510
   11CHTO    O2 4612   5.793   6.111  -2.365  0.1068  0.2189  0.0279
   11CHTO    C1 4613   5.813   6.108  -2.503  0.0912  0.1518  0.2987
   11CHTO   H14 4614   5.793   6.210  -2.542 -2.2804  0.1465  1.3602
   11CHTO    C2 4615   5.718   6.009  -2.588  0.8864  0.8019 -0.9031
   11CHTO   H15 4616   5.740   5.912  -2.541  0.1848  0.2138 -1.7597
   11CHTO    O6 4617   5.582   6.054  -2.578  0.5405  0.0357 -0.3103
   11CHTO    H1 4618   5.525   5.981  -2.594  1.1635 -0.7466  0.9788
   11CHTO    C3 4619   5.761   6.007  -2.741  0.1367 -0.6831  0.2976
   11CHTO   H16 4620   5.734   6.101  -2.790  0.2854 -1.3762 -1.1313
   11CHTO    N1 4621   5.676   5.905  -2.813  0.3255 -0.0410 -0.3616
   11CHTO    H8 4622   5.668   5.922  -2.919 -0.8236  1.1720 -0.0988
   11CHTO    H9 4623   5.579   5.905  -2.767 -0.2038 -2.5591 -1.4304
   11CHTO    C4 4624   5.917   5.994  -2.762 -0.0993  0.2747  0.0539
   11CHTO   H17 4625   5.945   5.895  -2.726 -2.0623  0.1013  1.1386
   11CHTO    O1 4626   5.990   6.089  -2.677 -0.4301 -0.1128 -0.7205
   11CHTO    C5 4627   5.965   6.064  -2.535  0.0428  0.1740 -1.0167
   11CHTO   H18 4628   5.969   5.960  -2.502 -1.6790  0.9110  1.6654
   11CHTO   C16 4629   6.067   6.140  -2.456 -0.0732 -0.0569 -0.5226
   11CHTO   O11 4630   6.203   6.119  -2.500 -0.0794 -0.4771  0.5467
   11CHTO    H5 4631   6.254   6.198  -2.507 -0.5636  0.0672  2.6665
   11CHTO    O3 4632   5.965   6.017  -2.892  0.2179  0.2357  0.3172
   11CHTO    C6 4633   6.069   5.929  -2.940 -0.4369 -0.2557 -0.4463
   11CHTO   H19 4634   6.127   5.886  -2.858  1.6478  1.3009 -1.0697
   11CHTO    C8 4635   6.003   5.813  -3.024  0.0522 -0.0852  0.0391
   11CHTO   H21 4636   5.924   5.855  -3.086  1.6958  1.1216 -1.2918
   11CHTO    O7 4637   5.949   5.719  -2.925  0.0917  0.2592 -0.2661
   11CHTO    H2 4638   5.875   5.670  -2.956 -0.7839  1.2720  0.1798
   11CHTO   C12 4639   6.104   5.749  -3.115 -0.7122  0.1127  0.0675
   11CHTO   H25 4640   6.178   5.690  -3.057 -1.2435  0.9797  1.6471
   11CHTO    N3 4641   6.025   5.649  -3.200  0.0101  0.3358 -0.1061
   11CHTO   H12 4642   5.946   5.700  -3.253  0.7914  0.1495 -1.4651
   11CHTO   H13 4643   5.988   5.562  -3.149  3.3937 -1.0788  0.0752
   11CHTO   C15 4644   6.179   5.860  -3.207 -0.1481  0.1474  0.0821
   11CHTO   H28 4645   6.108   5.916  -3.268 -0.2358  2.7950  2.4918
   11CHTO   O10 4646   6.286   5.797  -3.292  0.2495 -0.0542  0.2549
   11CHTO    H4 4647   6.348   5.864  -3.316  1.1972 -1.0316 -0.0909
   11CHTO    O5 4648   6.251   5.951  -3.115 -0.1331  0.2059  0.1574
   11CHTO   C10 4649   6.169   6.022  -3.023  0.5898 -0.1072 -0.5271
   11CHTO   H23 4650   6.105   6.098  -3.069 -0.5813  0.8947  2.5994
   11CHTO   C17 4651   6.269   6.096  -2.925 -0.1448  0.1249  0.2173
   11CHTO   O12 4652   6.219   6.132  -2.800 -0.6628 -0.3362 -0.0479
   11CHTO    H6 4653   6.169   6.211  -2.804  0.3324  0.2401 -1.3631
   12CHTO  H203 4654   6.469  12.374   6.893 -0.2072  1.0648  1.6197
   12CHTO   O82 4655   6.379  12.401   6.882 -0.2495  0.4897  0.4583
   12CHTO  C123 4656   6.308  12.326   6.988  0.5615 -0.3938  0.8025
   12CHTO  H227 4657   6.211  12.375   7.008  0.1826 -0.0937 -1.5623
   12CHTO   O77 4658   6.275  12.189   6.940  0.0480 -0.0833  0.2453
   12CHTO  C118 4659   6.190  12.118   7.033 -0.2004 -0.2308 -0.1899
   12CHTO  H222 4660   6.101  12.175   7.064  0.3293  0.5607 -0.1187
   12CHTO  C125 4661   6.143  11.981   6.973  0.0922 -0.4099  0.3675
   12CHTO   O84 4662   6.055  11.994   6.857  0.0429 -0.1309  0.1454
   12CHTO  H205 4663   6.094  12.020   6.776  1.8434  1.8960  1.6076
   12CHTO  C114 4664   6.277  12.090   7.166  0.2280  0.2315 -0.2532
   12CHTO  H218 4665   6.370  12.041   7.139 -0.7983 -2.7366  1.3324
   12CHTO  C116 4666   6.320  12.230   7.224 -0.8235 -0.0861  0.8030
   12CHTO  H220 4667   6.231  12.292   7.248 -0.5310  0.0688  1.5054
   12CHTO   O79 4668   6.389  12.198   7.350 -0.7599 -0.0892  0.4805
   12CHTO  H201 4669   6.460  12.259   7.348 -1.9121  1.2666  0.9530
   12CHTO  C120 4670   6.404  12.311   7.113  0.3792  0.4311 -0.5821
   12CHTO  H224 4671   6.498  12.257   7.089  0.5601  1.9106 -3.5471
   12CHTO   N21 4672   6.445  12.441   7.170 -0.3728  0.5478  0.1022
   12CHTO  H211 4673   6.431  12.445   7.277  0.9098  1.0639  0.2608
   12CHTO  H212 4674   6.549  12.460   7.149 -0.2600 -0.3972 -0.2388
   12CHTO   O75 4675   6.183  12.026   7.258 -0.1208  0.4170  0.2151
   12CHTO  C112 4676   6.242  11.908   7.348  0.1475 -0.0141  0.9255
   12CHTO  H216 4677   6.343  11.937   7.381  1.4383 -1.0335 -1.9949
   12CHTO   O73 4678   6.254  11.794   7.253 -0.1056 -0.0749  0.1140
   12CHTO  C113 4679   6.296  11.670   7.315  0.4045 -0.8374  0.5249
   12CHTO  H217 4680   6.390  11.687   7.372  1.9632 -2.3860 -1.4908
   12CHTO  C124 4681   6.309  11.565   7.202  0.5499 -0.2089 -0.3503
   12CHTO   O83 4682   6.200  11.549   7.116 -0.0425 -0.0182  0.4512
   12CHTO  H204 4683   6.189  11.628   7.068  3.2332 -1.1659 -2.3740
   12CHTO  C109 4684   6.204  11.623   7.436 -0.4459 -0.2810 -0.1225
   12CHTO  H213 4685   6.108  11.595   7.390 -0.8748  0.1695  0.4916
   12CHTO  C110 4686   6.209  11.739   7.539 -0.4527 -0.3942 -0.8310
   12CHTO  H214 4687   6.313  11.757   7.562 -0.2921 -3.5383  1.2805
   12CHTO   O78 4688   6.140  11.701   7.660  0.0200  0.0597 -0.4866
   12CHTO  H200 4689   6.077  11.634   7.642 -0.6353  1.4152 -3.5301
   12CHTO  C111 4690   6.156  11.869   7.471  0.3333  0.4940 -0.3141
   12CHTO  H215 4691   6.052  11.849   7.439 -0.3829 -1.6749  3.2012
   12CHTO   N19 4692   6.150  11.985   7.571  0.5821 -0.5796 -0.1512
   12CHTO  H207 4693   6.154  12.077   7.516  0.5869  0.1001  0.9778
   12CHTO  H208 4694   6.050  11.981   7.613  1.2092  0.1228  1.4713
   12CHTO   O74 4695   6.257  11.505   7.511 -0.1136 -0.0336 -0.7263
   12CHTO  C115 4696   6.139  11.383   7.529 -0.5215  0.5808 -0.5006
   12CHTO  H219 4697   6.039  11.423   7.512 -0.2264  0.9530 -1.3961
   12CHTO   O76 4698   6.160  11.273   7.426  0.1152 -0.4093 -0.4225
   12CHTO  C122 4699   6.290  11.208   7.430  0.1448 -0.0130  0.0869
   12CHTO  H226 4700   6.355  11.281   7.382 -1.8499  1.4528 -0.4958
   12CHTO  C126 4701   6.298  11.088   7.337 -0.0513  0.3458  0.5471
   12CHTO   O85 4702   6.223  10.976   7.378 -0.5715  0.7368  0.5702
   12CHTO  H206 4703   6.271  10.898   7.358 -0.7470  1.0823 -1.2933
   12CHTO  C121 4704   6.330  11.174   7.589 -0.2440 -0.7329 -0.5117
   12CHTO  H225 4705   6.371  11.071   7.594 -3.2064 -1.9094  0.9821
   12CHTO   O81 4706   6.430  11.269   7.631 -0.2480  0.3286 -0.5758
   12CHTO  H202 4707   6.509  11.242   7.588 -0.4575 -1.4569  0.0824
   12CHTO  C119 4708   6.209  11.189   7.682  0.2278 -0.4511 -0.2466
   12CHTO  H223 4709   6.134  11.119   7.643  0.5386 -0.2733 -1.1890
   12CHTO  C117 4710   6.156  11.334   7.677  0.0227 -0.0596  0.1886
   12CHTO  H221 4711   6.215  11.410   7.729  0.0203  1.3313 -1.7804
   12CHTO   N20 4712   6.025  11.339   7.747  0.2226  0.5481 -0.3737
   12CHTO  H209 4713   5.970  11.429   7.726  0.1011  0.4604 -0.4357
   12CHTO  H210 4714   6.028  11.301   7.848 -2.6531  1.7583  0.2330
   12CHTO   O80 4715   6.249  11.119   7.826  0.1321 -0.0998  0.1094
   12CHTO  C103 4716   6.185  10.990   7.866  0.2923 -0.2066  0.7315
   12CHTO  H190 4717   6.079  10.990   7.840  0.2692 -2.6264  0.7034
   12CHTO  C101 4718   6.249  10.860   7.809 -0.1621  0.5124  0.3577
   12CHTO  H188 4719   6.357  10.857   7.824  0.2564 -3.2557 -2.6517
   12CHTO   O68 4720   6.216  10.849   7.646 -0.3341 -0.2740 -0.2153
   12CHTO  H168 4721   6.275  10.906   7.601 -2.8620  1.5436 -1.3611
   12CHTO   C99 4722   6.182  10.731   7.884  0.2043 -0.6313  0.4274
   12CHTO  H186 4723   6.074  10.746   7.865  0.1648 -0.5817  0.6844
   12CHTO   N17 4724   6.220  10.589   7.840 -0.7850 -0.0860 -0.1465
   12CHTO  H174 4725   6.320  10.575   7.878 -0.2432 -0.2703 -1.5953
   12CHTO  H175 4726   6.219  10.577   7.733  0.9847  0.2316 -0.2172
   12CHTO   C97 4727   6.204  10.746   8.042 -0.8084  0.0933 -0.3453
   12CHTO  H184 4728   6.310  10.748   8.071 -1.2659  2.7637  1.2825
   12CHTO   O64 4729   6.137  10.862   8.095 -0.7189 -0.5748  0.1617
   12CHTO  C104 4730   6.190  10.981   8.029  0.2601  0.5611  0.8282
   12CHTO  H191 4731   6.294  10.993   8.057  1.1462 -1.4684 -1.4842
   12CHTO  C108 4732   6.110  11.099   8.085  0.3965 -0.5962  0.6369
   12CHTO   O71 4733   5.967  11.110   8.060 -0.3882 -0.0316 -0.2204
   12CHTO  H171 4734   5.919  11.089   8.138  0.3925 -0.1133  0.2461
   12CHTO   O62 4735   6.125  10.648   8.115  0.2650 -0.1165  0.7385
   12CHTO   C91 4736   6.186  10.593   8.228 -0.0244 -0.4376 -0.3571
   12CHTO  H178 4737   6.294  10.581   8.216  0.4659  3.5066 -0.6095
   12CHTO   C92 4738   6.111  10.460   8.241  0.4160  0.2049  0.0227
   12CHTO  H179 4739   6.009  10.471   8.201  0.9573 -1.0649 -1.7697
   12CHTO   O66 4740   6.164  10.361   8.152  0.1118  0.0103 -0.1010
   12CHTO  H166 4741   6.258  10.354   8.160  0.1829  1.9443  0.9720
   12CHTO   C93 4742   6.117  10.405   8.393  0.2045 -0.1571 -0.0224
   12CHTO  H180 4743   6.227  10.394   8.401  0.3513  1.0504 -0.1939
   12CHTO   N16 4744   6.060  10.275   8.420 -0.5393  0.1338 -0.7147
   12CHTO  H172 4745   5.952  10.269   8.419 -0.5738  0.8517 -1.5895
   12CHTO  H173 4746   6.102  10.200   8.356 -0.9384 -0.2518 -0.5293
   12CHTO   C94 4747   6.077  10.506   8.504  0.2781 -0.2703 -0.5244
   12CHTO  H181 4748   5.976  10.487   8.541 -0.1316 -0.1904 -1.5940
   12CHTO   O61 4749   6.073  10.635   8.451  0.2411 -0.2761  0.3395
   12CHTO   C95 4750   6.169  10.687   8.355  0.0338  0.0681 -0.8727
   12CHTO  H182 4751   6.132  10.783   8.318 -0.0700  0.0974 -0.6961
   12CHTO  C106 4752   6.303  10.724   8.424  0.2639  0.1099  0.7831
   12CHTO   O69 4753   6.280  10.812   8.534 -0.6558 -0.0789  0.4345
   12CHTO  H169 4754   6.256  10.761   8.609  1.0903  0.0559  1.1208
   12CHTO   O63 4755   6.174  10.509   8.611 -0.5178  0.1944 -0.6471
   12CHTO   C96 4756   6.131  10.608   8.753  0.4616 -0.1720  0.3229
   12CHTO  H183 4757   6.103  10.706   8.713  2.2671  1.6162  3.2888
   12CHTO   C98 4758   6.251  10.628   8.849  0.2560  0.4610  0.1184
   12CHTO  H185 4759   6.338  10.673   8.799  0.7306  0.3586  0.8346
   12CHTO   O67 4760   6.220  10.721   8.946 -0.1062 -0.0489 -0.0942
   12CHTO  H167 4761   6.149  10.698   9.002 -0.9519  3.1320  0.2207
   12CHTO  C102 4762   6.294  10.482   8.913 -0.0388 -0.0484 -0.3694
   12CHTO  H189 4763   6.327  10.504   9.015 -2.6348  1.2353  0.2294
   12CHTO   N18 4764   6.407  10.416   8.846  0.0002 -0.2420 -0.1813
   12CHTO  H176 4765   6.498  10.473   8.859  0.0943 -0.1917 -1.0225
   12CHTO  H177 4766   6.421  10.312   8.870 -0.3323 -0.8987 -2.6852
   12CHTO  C105 4767   6.164  10.394   8.930 -0.0770  0.4176 -0.6473
   12CHTO  H192 4768   6.138  10.343   8.837 -0.1284 -1.6640  0.4598
   12CHTO   O65 4769   6.050  10.477   8.959 -0.5875  0.1308  0.6060
   12CHTO  C100 4770   6.006  10.547   8.845 -0.5043 -0.1632 -0.1430
   12CHTO  H187 4771   5.944  10.482   8.782 -1.0308 -0.8984  1.0945
   12CHTO  C107 4772   5.908  10.650   8.897  0.5895  0.5509  0.6703
   12CHTO   O70 4773   5.841  10.737   8.797 -0.1656  0.7743 -0.0612
   12CHTO  H170 4774   5.898  10.812   8.791  0.2457  0.6487  1.9038
   12CHTO   O57 4775   6.185  10.290   9.034  0.4000 -0.5626  0.9147
   12CHTO   C85 4776   6.130  10.156   9.029 -0.6675  0.2445 -0.0855
   12CHTO  H157 4777   6.140  10.128   8.922  0.6489  1.4994 -0.3175
   12CHTO   C83 4778   5.977  10.154   9.062  0.3962 -0.3290  0.4550
   12CHTO  H155 4779   5.922  10.207   8.984 -0.8112  0.5961  1.9100
   12CHTO   O56 4780   5.957  10.232   9.183  0.1674 -0.3792 -0.6488
   12CHTO  H135 4781   5.872  10.207   9.215 -0.9472  0.0131 -3.1589
   12CHTO   C81 4782   5.927  10.004   9.061 -0.0483 -0.2985 -0.2412
   12CHTO  H153 4783   5.942   9.953   8.966 -1.0906 -1.4871  0.2213
   12CHTO   N14 4784   5.780   9.995   9.073 -0.4571  1.2055 -0.1659
   12CHTO  H141 4785   5.748   9.893   9.072 -0.4486  1.2073 -0.6907
   12CHTO  H142 4786   5.737  10.041   9.160 -1.1024  0.5504 -0.1300
   12CHTO   C79 4787   6.008   9.930   9.175 -0.6557  0.5415  0.4631
   12CHTO  H151 4788   5.979   9.825   9.165 -1.6964  0.8720 -0.0111
   12CHTO   O52 4789   6.152   9.926   9.132  0.0394  0.4065 -0.1319
   12CHTO   C86 4790   6.210  10.057   9.126 -0.1003 -0.3687 -0.1717
   12CHTO  H158 4791   6.217  10.093   9.231  3.6554 -0.0264 -0.4731
   12CHTO   C90 4792   6.368  10.046   9.075 -0.4701 -0.1304  0.0813
   12CHTO   O60 4793   6.426  10.180   9.070  0.0829 -0.6498  0.3165
   12CHTO  H138 4794   6.513  10.185   9.035 -0.2771  0.5037 -0.4692
   12CHTO   O50 4795   5.992   9.975   9.312  0.4062  0.0714  0.0951
   12CHTO   C73 4796   5.905   9.974   9.425 -0.2308 -0.2623 -0.8068
   12CHTO  H145 4797   5.804   9.951   9.387 -0.5761  1.4807 -0.9692
   12CHTO   C74 4798   5.888  10.108   9.499 -0.2085 -0.6210 -0.0468
   12CHTO  H146 4799   5.853  10.184   9.428  0.2337  1.4311  1.8664
   12CHTO   O54 4800   5.797  10.092   9.604 -0.3472  0.3143  0.6680
   12CHTO  H133 4801   5.816  10.017   9.657  0.7998 -0.2550 -0.5059
   12CHTO   C75 4802   6.027  10.149   9.566 -0.9380 -0.4305 -0.1923
   12CHTO  H147 4803   6.097  10.166   9.483 -1.1286 -1.5785 -0.6006
   12CHTO   N13 4804   6.038  10.281   9.636 -0.2042  0.0166  0.0285
   12CHTO  H139 4805   6.049  10.257   9.740 -1.0511  0.5293  0.2420
   12CHTO  H140 4806   5.949  10.339   9.616 -0.7267 -0.4365  1.0088
   12CHTO   C76 4807   6.088  10.034   9.655 -0.5189 -0.6528 -0.0254
   12CHTO  H148 4808   6.040  10.022   9.752  1.9656 -1.9261  1.1151
   12CHTO   O49 4809   6.084   9.908   9.587 -0.4430 -0.2021  0.1449
   12CHTO   C77 4810   5.959   9.867   9.527 -0.4209  0.6577 -0.1010
   12CHTO  H149 4811   5.882   9.859   9.604 -0.5686  2.3649 -0.0469
   12CHTO   C88 4812   5.985   9.729   9.464  0.9140 -0.8222 -0.3507
   12CHTO   O58 4813   5.871   9.692   9.387  0.4788  0.2169  0.1056
   12CHTO  H136 4814   5.886   9.713   9.297 -2.4541  0.6413 -0.3437
   12CHTO   O51 4815   6.244  10.069   9.671  0.1688 -1.0430 -0.3608
   12CHTO   C78 4816   6.342   9.972   9.734 -0.0340 -0.8199  0.1370
   12CHTO  H150 4817   6.332   9.880   9.672 -1.0620  0.0332 -0.9602
   12CHTO   C80 4818   6.308   9.941   9.877 -0.5314  0.1846  0.8754
   12CHTO  H152 4819   6.288  10.038   9.926  0.5659  2.1172 -2.3400
   12CHTO   O55 4820   6.191   9.865   9.877  0.6388 -0.5240 -0.7384
   12CHTO  H134 4821   6.122   9.922   9.906  0.6554 -0.8940  0.0299
   12CHTO   C84 4822   6.433   9.863   9.943 -0.5402  0.1067  0.2657
   12CHTO  H156 4823   6.424   9.761   9.906  0.4477  0.2425 -0.3593
   12CHTO   N15 4824   6.423   9.860  10.097  0.6571 -0.0422  0.1435
   12CHTO  H143 4825   6.520   9.839  10.136  0.1378 -1.3849  0.7631
   12CHTO  H144 4826   6.378   9.947  10.140  1.7949  0.8032 -0.3392
   12CHTO   C87 4827   6.562   9.939   9.909  0.4738 -0.7842 -0.1040
   12CHTO  H159 4828   6.558  10.036   9.959 -1.2810 -0.6043 -0.5582
   12CHTO   O53 4829   6.575   9.952   9.759 -0.1183 -0.0981 -0.2253
   12CHTO   C82 4830   6.482  10.036   9.710  0.1895  0.2212  0.3190
   12CHTO  H154 4831   6.480  10.137   9.751  0.5595 -0.4165  1.9432
   12CHTO   C89 4832   6.517  10.054   9.553 -0.3368  0.2029 -0.0345
   12CHTO   O59 4833   6.444  10.159   9.491 -0.2427  0.0659  0.1756
   12CHTO  H137 4834   6.381  10.107   9.444 -0.1947  0.4311 -0.2903
   12CHTO   O45 4835   6.696   9.849   9.967  0.6864 -0.5418  0.8661
   12CHTO   C67 4836   6.767   9.757   9.880 -0.0761 -0.0607 -0.5022
   12CHTO  H124 4837   6.697   9.713   9.809  0.8267  0.6612 -1.8823
   12CHTO   C65 4838   6.874   9.835   9.793 -0.3129  0.5743 -0.0623
   12CHTO  H122 4839   6.813   9.915   9.751 -1.9857  0.0127  1.2590
   12CHTO   O44 4840   6.917   9.752   9.687 -0.0228 -0.3263  0.0719
   12CHTO  H102 4841   7.001   9.781   9.659  0.0906  0.9864  1.6890
   12CHTO   C63 4842   6.987   9.889   9.895 -0.1938  0.0003 -0.2050
   12CHTO  H120 4843   6.934   9.943   9.975 -0.7836 -2.2910  1.0133
   12CHTO   N11 4844   7.080   9.992   9.852  0.0268  0.6590 -0.2301
   12CHTO  H108 4845   7.139  10.039   9.928  1.5153 -2.3494  0.5760
   12CHTO  H109 4846   7.149   9.940   9.789  1.4999 -0.8926  2.5275
   12CHTO   C61 4847   7.050   9.760   9.957  0.4529 -0.3752 -0.8389
   12CHTO  H118 4848   7.125   9.799  10.028 -0.5514  0.2707 -0.1222
   12CHTO   O40 4849   6.951   9.684  10.038  0.2846 -0.4418  0.0633
   12CHTO   C68 4850   6.824   9.634   9.970 -0.1277 -0.0365 -0.1375
   12CHTO  H125 4851   6.748   9.615  10.049 -1.9278 -0.3769 -1.9098
   12CHTO   C72 4852   6.828   9.503   9.889 -0.6192 -0.3012 -0.1519
   12CHTO   O48 4853   6.882   9.391   9.959  0.5386 -0.0495  0.5040
   12CHTO  H105 4854   6.809   9.351  10.002  0.0594  0.3500  0.0652
   12CHTO   O38 4855   7.117   9.680   9.853  0.9450  0.9398 -0.4495
   12CHTO   C55 4856   7.262   9.671   9.861  0.1876  0.3497 -0.5706
   12CHTO  H112 4857   7.309   9.751   9.921 -1.3993 -0.7822  2.2932
   12CHTO   C56 4858   7.311   9.671   9.714 -0.0239 -0.1368  0.6091
   12CHTO  H113 4859   7.256   9.593   9.658 -2.0395  1.0417  0.9162
   12CHTO   O42 4860   7.283   9.804   9.664  0.2516 -0.4678 -0.0580
   12CHTO  H100 4861   7.288   9.877   9.723 -0.8574  0.7257 -1.3870
   12CHTO   C57 4862   7.466   9.640   9.710  0.0960 -0.6067  0.1822
   12CHTO  H114 4863   7.510   9.711   9.780  1.7050 -1.3530 -0.0368
   12CHTO   N10 4864   7.527   9.644   9.571 -0.4457 -0.3203 -0.1094
   12CHTO  H106 4865   7.634   9.644   9.562 -0.2786 -0.0010  1.8000
   12CHTO  H107 4866   7.488   9.729   9.517 -0.4291  0.1024  0.5532
   12CHTO   C58 4867   7.495   9.498   9.766  1.0684 -0.0936 -0.7277
   12CHTO  H115 4868   7.444   9.421   9.705  1.5222 -1.1601  0.2156
   12CHTO   O37 4869   7.442   9.502   9.901  0.1244  0.0185  0.7471
   12CHTO   C59 4870   7.303   9.532   9.916  0.1049  0.0753  0.2571
   12CHTO  H116 4871   7.248   9.458   9.856  0.6863  0.4985 -0.8098
   12CHTO   C70 4872   7.275   9.504  10.061 -0.2102 -0.2613  0.0286
   12CHTO   O46 4873   7.297   9.367  10.095 -0.0261  0.3500 -0.0257
   12CHTO  H103 4874   7.259   9.347  10.179 -0.4543  1.9658  0.1914
   12CHTO   O39 4875   7.655   9.468   9.777  0.2802  0.0802 -0.3598
   12CHTO   C60 4876   7.703   9.350   9.844 -0.6872 -0.8799  0.2167
   12CHTO  H117 4877   7.644   9.330   9.934 -1.5503  1.9178  0.3189
   12CHTO   C62 4878   7.686   9.220   9.759 -0.3748  0.2605  0.4056
   12CHTO  H119 4879   7.579   9.210   9.730 -0.5705 -0.5102  1.3603
   12CHTO   O43 4880   7.767   9.244   9.645 -0.2184  0.3823 -0.4005
   12CHTO  H101 4881   7.786   9.164   9.600  0.7532  0.7954 -0.7187
   12CHTO   C66 4882   7.719   9.094   9.857 -0.3104  0.1558 -0.1280
   12CHTO  H123 4883   7.655   9.106   9.945  2.3796 -0.2247  1.9417
   12CHTO   N12 4884   7.692   8.966   9.795  0.8235  0.0191 -0.4915
   12CHTO  H110 4885   7.588   8.961   9.765  0.4514  0.1305  0.7313
   12CHTO  H111 4886   7.707   8.885   9.865  0.3280 -0.0093 -0.4102
   12CHTO   C69 4887   7.865   9.098   9.895  0.6664  0.4331  0.0652
   12CHTO  H126 4888   7.921   9.085   9.800 -0.8254  2.2729 -1.0912
   12CHTO   O41 4889   7.905   9.238   9.968 -0.5137 -0.0573 -0.6750
   12CHTO   C64 4890   7.853   9.369   9.894  0.5005  0.1668 -0.5236
   12CHTO  H121 4891   7.911   9.386   9.800 -0.6336  3.0132 -0.7546
   12CHTO   C71 4892   7.868   9.491   9.987  0.0521  0.9389 -0.6553
   12CHTO   O47 4893   7.819   9.477  10.123 -0.1211  0.2368  0.1016
   12CHTO  H104 4894   7.815   9.553  10.178  2.5955  1.4602 -1.3035
   12CHTO   O34 4895   7.898   8.979   9.999  0.1524  0.1970 -0.5168
   12CHTO   C49 4896   7.939   9.011  10.150 -0.3891  0.9376  0.5904
   12CHTO   H91 4897   8.030   9.070  10.142 -0.9894  1.8240  0.2181
   12CHTO   C47 4898   7.973   8.878  10.223  0.1273  0.3401  0.5996
   12CHTO   H89 4899   8.018   8.907  10.320  0.2728  2.4436 -0.0558
   12CHTO   O33 4900   8.074   8.807  10.153 -0.1010 -0.0988 -0.7175
   12CHTO   H70 4901   8.116   8.756  10.220  0.0496 -1.2738 -1.6956
   12CHTO   C45 4902   7.837   8.783  10.235 -0.7516  0.0995 -0.3033
   12CHTO   H87 4903   7.834   8.713  10.149 -0.2195  0.2836 -0.4745
   12CHTO    N8 4904   7.856   8.702  10.355  0.2381  0.1149  0.1650
   12CHTO   H75 4905   7.835   8.766  10.439  0.4879  2.1127 -1.2634
   12CHTO   H76 4906   7.949   8.648  10.368 -1.6031 -3.0000  0.9820
   12CHTO   C43 4907   7.705   8.875  10.211 -0.0708 -0.3637 -0.9950
   12CHTO   H85 4908   7.692   8.888  10.104 -2.0505 -1.9583 -0.9776
   12CHTO   O29 4909   7.715   9.005  10.281 -0.4180  0.2528 -0.2421
   12CHTO   C50 4910   7.829   9.083  10.236 -0.8780 -0.1379 -0.3767
   12CHTO   H92 4911   7.800   9.168  10.174  0.2191 -1.0752 -2.2079
   12CHTO   C54 4912   7.891   9.158  10.356 -0.2258  0.0152  0.6324
   12CHTO   O36 4913   7.971   9.268  10.312  0.0859 -0.4462  0.0116
   12CHTO   H72 4914   7.911   9.336  10.287  0.4887 -0.3858 -0.8144
   12CHTO   O27 4915   7.592   8.799  10.256 -0.1836 -0.1147  0.0826
   12CHTO   C37 4916   7.446   8.807  10.268  0.3246 -0.0954 -0.3243
   12CHTO   H79 4917   7.413   8.733  10.344  2.2504  1.6151  2.2463
   12CHTO   C38 4918   7.397   8.945  10.308  0.3953 -0.7259  0.5587
   12CHTO   H80 4919   7.444   9.017  10.240 -1.1924 -1.3670 -1.2362
   12CHTO   O31 4920   7.452   8.975  10.437  0.2595  0.0451  0.5547
   12CHTO   H68 4921   7.425   9.061  10.466 -1.2530 -0.8927  2.0143
   12CHTO   C39 4922   7.235   8.951  10.311 -0.6093 -0.0990  0.0309
   12CHTO   H81 4923   7.213   8.903  10.407  1.1281  1.8062  1.4344
   12CHTO    N7 4924   7.185   9.093  10.329  0.2931 -0.2152 -0.4576
   12CHTO   H73 4925   7.268   9.161  10.323 -0.3933  0.5188 -1.7435
   12CHTO   H74 4926   7.114   9.101  10.410  0.8110 -0.5126  0.0329
   12CHTO   C40 4927   7.160   8.885  10.188 -0.2418  0.2736 -0.0979
   12CHTO   H82 4928   7.164   8.952  10.103 -3.8494  0.4187 -0.2336
   12CHTO   O26 4929   7.224   8.756  10.162 -0.3279  0.4472  0.0248
   12CHTO   C41 4930   7.372   8.771  10.130 -0.2225  0.0136 -0.0402
   12CHTO   H83 4931   7.403   8.847  10.056  1.2468  1.2569  1.8199
   12CHTO   C52 4932   7.419   8.636  10.063  1.1672 -0.5960 -0.4451
   12CHTO   O35 4933   7.570   8.635  10.007 -0.5437  0.5032  0.1593
   12CHTO   H71 4934   7.579   8.545   9.984 -1.7104  0.2722  0.5917
   12CHTO   O28 4935   7.029   8.841  10.219  0.5888 -0.8096 -0.7628
   12CHTO   C42 4936   6.913   8.858  10.127  0.4134 -0.3858  0.4787
   12CHTO   H84 4937   6.843   8.779  10.154 -1.3327  0.3435 -1.7336
   12CHTO   C44 4938   6.949   8.829   9.967 -0.8728 -0.0581 -0.4100
   12CHTO   H86 4939   7.039   8.886   9.944 -0.8103  0.0897  0.1904
   12CHTO   O32 4940   6.984   8.690   9.964  0.4510  0.7667 -0.6337
   12CHTO   H69 4941   6.917   8.640  10.006  2.7167 -0.5868  1.4208
   12CHTO   C48 4942   6.833   8.854   9.863 -0.3814  0.0842  0.4320
   12CHTO   H90 4943   6.777   8.762   9.884  0.3360 -0.4616 -0.0516
   12CHTO    N9 4944   6.872   8.853   9.718  0.1580 -0.3322 -0.2456
   12CHTO   H77 4945   6.954   8.785   9.704  0.3989 -0.3965  1.3771
   12CHTO   H78 4946   6.888   8.954   9.683  0.1666  0.0769  0.9385
   12CHTO   C51 4947   6.759   8.990   9.891  0.8625  0.5158  0.3639
   12CHTO   H93 4948   6.818   9.076   9.862  1.2033  0.5059  1.0196
   12CHTO   O30 4949   6.727   8.992  10.036  0.5426  0.3575  0.1146
   12CHTO   C46 4950   6.841   8.998  10.131 -0.4117 -0.1084  0.0082
   12CHTO   H88 4951   6.909   9.076  10.099 -0.8786 -0.1399 -1.0819
   12CHTO   C53 4952   6.788   9.027  10.275  0.6072 -0.3137  0.5343
   12CHTO   O72 4953   6.886   9.039  10.380  0.1697 -0.0987  0.0880
   12CHTO  H199 4954   6.924   8.954  10.394 -0.6272 -0.3676  0.6874
   12CHTO   O22 4955   6.627   8.999   9.826 -0.5575 -0.3230  0.1924
   12CHTO   C31 4956   6.551   9.124   9.802 -0.3251  1.1468 -0.6623
   12CHTO   H59 4957   6.452   9.087   9.766  1.0859 -1.5604 -1.8606
   12CHTO   C29 4958   6.525   9.211   9.927  0.5367 -0.6867  0.4249
   12CHTO   H57 4959   6.621   9.247   9.967 -1.1591  1.9056  2.2823
   12CHTO   O21 4960   6.458   9.138  10.030 -0.1318 -0.2665 -0.5390
   12CHTO   H37 4961   6.512   9.072  10.069  0.2258 -0.6381 -1.6413
   12CHTO   C27 4962   6.434   9.335   9.899  0.1331 -0.3458 -0.1248
   12CHTO   H55 4963   6.330   9.302   9.892  0.0876  0.0818 -1.5787
   12CHTO    N5 4964   6.434   9.439  10.005  0.3527 -0.2100  0.3746
   12CHTO   H43 4965   6.475   9.396  10.095 -0.7696  0.7496  1.3791
   12CHTO   H44 4966   6.334   9.475  10.027  1.3988  0.9520  3.4707
   12CHTO   C25 4967   6.465   9.397   9.759 -0.6021 -0.3936 -0.5214
   12CHTO   H53 4968   6.553   9.463   9.768 -1.6494  0.9477  0.0509
   12CHTO   O17 4969   6.502   9.303   9.660  0.2290 -0.3414  0.2649
   12CHTO   C32 4970   6.607   9.210   9.693  0.0466 -0.7709 -0.3904
   12CHTO   H60 4971   6.696   9.262   9.729 -0.4750  0.4474 -0.8499
   12CHTO   C36 4972   6.630   9.128   9.566  0.0244  0.4950 -0.4394
   12CHTO   O25 4973   6.699   9.213   9.470  0.0708 -0.3263  0.1352
   12CHTO   H40 4974   6.711   9.168   9.389 -1.8159  0.7552 -0.7878
   12CHTO   O15 4975   6.346   9.483   9.705  0.5588 -0.3397 -0.5118
   12CHTO   C19 4976   6.307   9.532   9.571 -0.4629  0.0680 -0.1652
   12CHTO   H47 4977   6.222   9.599   9.587 -1.0337 -0.7562  0.3233
   12CHTO   C20 4978   6.420   9.611   9.504  0.4546 -0.6130  0.2039
   12CHTO   H48 4979   6.501   9.547   9.466  0.6689 -0.8615  1.0600
   12CHTO   O19 4980   6.470   9.695   9.608  0.3070  0.0470 -0.5626
   12CHTO   H35 4981   6.556   9.726   9.585 -0.3052  0.5456 -2.2469
   12CHTO   C21 4982   6.353   9.688   9.381  0.0862  0.2407 -0.2375
   12CHTO   H49 4983   6.268   9.746   9.416 -0.3505 -1.0812  0.9483
   12CHTO    N4 4984   6.458   9.773   9.314 -0.3900  0.6472 -0.4872
   12CHTO   H41 4985   6.553   9.721   9.302 -2.1114 -2.3432 -1.8850
   12CHTO   H42 4986   6.477   9.869   9.358 -1.6950  0.9920 -0.6590
   12CHTO   C22 4987   6.306   9.582   9.285 -0.3430  0.7947  0.2262
   12CHTO   H50 4988   6.387   9.522   9.244 -0.4442  2.5359 -2.6170
   12CHTO   O14 4989   6.222   9.487   9.347  0.3489  0.2166  0.0453
   12CHTO   C23 4990   6.268   9.416   9.465  0.0475  0.2015  0.0421
   12CHTO   H51 4991   6.352   9.351   9.441 -0.6988 -1.1507  1.0274
   12CHTO   C34 4992   6.147   9.336   9.511 -0.4452 -0.4584 -0.7909
   12CHTO   O23 4993   6.193   9.261   9.624  0.2987  0.5082  0.0001
   12CHTO   H38 4994   6.242   9.185   9.600  0.8216  1.1246 -0.9101
   12CHTO   O16 4995   6.236   9.638   9.174 -0.0126 -0.2961  0.0197
   12CHTO   C24 4996   6.233   9.557   9.036 -0.6235 -0.8048 -0.0897
   12CHTO   H52 4997   6.249   9.451   9.055 -0.1444 -0.4996  1.2959
   12CHTO   C26 4998   6.346   9.606   8.943  0.5409 -0.2873  0.3158
   12CHTO   H54 4999   6.339   9.717   8.944 -2.8376 -0.4451 -0.7953
   12CHTO   O20 5000   6.469   9.559   8.994  0.3894 -0.4639 -0.3163
   12CHTO   H36 5001   6.534   9.602   8.943 -0.9145 -0.6836 -2.1892
   12CHTO   C30 5002   6.330   9.559   8.800 -0.5786 -0.5516  0.3253
   12CHTO   H58 5003   6.370   9.457   8.791  4.5018  1.2494  1.0298
   12CHTO    N6 5004   6.394   9.638   8.694  0.5001  0.0036 -0.4563
   12CHTO   H45 5005   6.401   9.607   8.591  3.2381 -1.9512  0.2447
   12CHTO   H46 5006   6.348   9.735   8.705 -3.4838 -1.8121 -0.2086
   12CHTO   C33 5007   6.182   9.542   8.759  0.4867  0.3157 -0.7909
   12CHTO   H61 5008   6.137   9.636   8.725 -1.9823 -1.1505 -1.6859
   12CHTO   O18 5009   6.099   9.491   8.866 -0.1457  0.3370 -0.0460
   12CHTO   C28 5010   6.094   9.577   8.982 -0.4609 -0.0912  0.0876
   12CHTO   H56 5011   6.083   9.680   8.948 -2.4324 -0.3113 -0.0227
   12CHTO   C35 5012   5.983   9.535   9.076  0.3127 -0.1704 -0.4466
   12CHTO   O24 5013   5.884   9.638   9.079  0.4281 -0.4195  0.1746
   12CHTO   H39 5014   5.802   9.597   9.098 -1.0586  2.0313 -0.6802
   12CHTO    O9 5015   6.175   9.455   8.644 -0.6504  0.5062 -0.1008
   12CHTO   C13 5016   6.184   9.293   8.675 -0.0537 -0.3169 -0.1965
   12CHTO   H26 5017   6.192   9.271   8.784 -0.9508 -0.5950 -0.1849
   12CHTO   C11 5018   6.296   9.219   8.594  0.2841 -0.6410  0.3569
   12CHTO   H24 5019   6.397   9.242   8.632  0.3012 -0.2122  0.0689
   12CHTO    O8 5020   6.281   9.245   8.450 -0.3952  0.6870  0.2034
   12CHTO    H3 5021   6.362   9.266   8.409 -0.7109 -0.1188 -0.8455
   12CHTO    C9 5022   6.269   9.070   8.616 -0.4777 -0.0495 -0.4522
   12CHTO   H22 5023   6.261   9.054   8.725 -0.3637  1.7428 -0.1578
   12CHTO    N2 5024   6.383   8.990   8.566  0.5616 -0.7218  0.3745
   12CHTO   H10 5025   6.400   9.019   8.463 -0.0076  0.1693  0.5312
   12CHTO   H11 5026   6.353   8.887   8.580 -0.3110 -0.8653 -2.3143
   12CHTO    C7 5027   6.139   9.025   8.561  0.6227 -0.0242  0.6276
   12CHTO   H20 5028   6.128   8.918   8.588  0.0156  0.7370  3.5838
   12CHTO    O4 5029   6.029   9.095   8.622  0.5276 -1.3636 -0.1484
   12CHTO   C14 5030   6.038   9.235   8.664  0.6097 -0.1158  0.2014
   12CHTO   H27 5031   5.996   9.237   8.767  1.7308  0.3503  0.6539
   12CHTO   C18 5032   5.944   9.303   8.562  0.2623 -0.3750 -0.5133
   12CHTO   O13 5033   5.807   9.267   8.586 -0.0473 -0.2538 -0.0033
   12CHTO    H7 5034   5.785   9.187   8.543 -0.9153 -1.2659  2.2426
   12CHTO    O2 5035   6.125   9.038   8.395  0.6385  0.3170  0.2210
   12CHTO    C1 5036   6.107   8.922   8.315 -0.8262 -0.6171  0.6292
   12CHTO   H14 5037   6.114   8.828   8.374  3.5840 -0.5432  0.3620
   12CHTO    C2 5038   6.202   8.901   8.190  0.0975  0.5067  0.1244
   12CHTO   H15 5039   6.174   8.971   8.110 -0.5953  0.3412  0.2219
   12CHTO    O6 5040   6.338   8.913   8.233  0.2813  0.3928 -0.2513
   12CHTO    H1 5041   6.351   9.004   8.250  1.0001  0.0755  0.9195
   12CHTO    C3 5042   6.172   8.758   8.129 -0.2653  0.9678  0.8652
   12CHTO   H16 5043   6.173   8.691   8.216  0.6615  1.0297  0.9087
   12CHTO    N1 5044   6.268   8.713   8.016  0.8320  0.5196 -0.1378
   12CHTO    H8 5045   6.218   8.636   7.960  0.7321  1.1250 -0.8816
   12CHTO    H9 5046   6.365   8.689   8.056  1.5958  3.2264 -0.2962
   12CHTO    C4 5047   6.023   8.764   8.076  0.0266  0.2862  0.3276
   12CHTO   H17 5048   6.022   8.829   7.988  0.4024 -1.0482 -0.6664
   12CHTO    O1 5049   5.938   8.800   8.187 -0.2131 -0.2523 -0.2166
   12CHTO    C5 5050   5.965   8.914   8.264  0.0793  0.1820 -0.6444
   12CHTO   H18 5051   5.950   9.006   8.208  0.0005  1.4417  1.3645
   12CHTO   C16 5052   5.860   8.913   8.380  0.0396 -0.2981  0.5941
   12CHTO   O11 5053   5.880   8.796   8.459 -0.3865 -0.2391  0.1490
   12CHTO    H5 5054   5.906   8.827   8.544  0.6825 -0.1399 -0.2027
   12CHTO    O3 5055   5.967   8.636   8.037 -0.4009 -0.1038 -0.3752
   12CHTO    C6 5056   5.870   8.643   7.932 -0.4921 -0.1422 -0.3472
   12CHTO   H19 5057   5.859   8.743   7.890  1.0941  1.0435  1.9239
   12CHTO    C8 5058   5.927   8.547   7.821 -0.0323 -0.0586  0.3001
   12CHTO   H21 5059   5.954   8.452   7.866 -1.0150 -1.0787 -1.2111
   12CHTO    O7 5060   6.032   8.615   7.749 -0.4673 -0.2134 -0.0753
   12CHTO    H2 5061   6.102   8.638   7.806 -0.0780  0.1549 -0.7066
   12CHTO   C12 5062   5.817   8.493   7.720 -0.1698 -0.0177 -0.4624
   12CHTO   H25 5063   5.787   8.578   7.656 -2.0858  1.2474  2.0367
   12CHTO    N3 5064   5.866   8.382   7.632 -0.1362 -0.4686 -0.3263
   12CHTO   H12 5065   5.787   8.348   7.566 -0.6226 -0.0291  0.0223
   12CHTO   H13 5066   5.897   8.304   7.699 -0.7374 -0.0201  0.4827
   12CHTO   C15 5067   5.695   8.449   7.798 -0.7822 -0.4503  0.4357
   12CHTO   H28 5068   5.721   8.375   7.874 -1.0021 -0.0201  0.9282
   12CHTO   O10 5069   5.564   8.418   7.717  0.0279 -0.1748 -0.1011
   12CHTO    H4 5070   5.579   8.379   7.633  2.4808 -0.7918  0.5986
   12CHTO    O5 5071   5.651   8.566   7.863  0.2908  0.6250 -0.0614
   12CHTO   C10 5072   5.731   8.592   7.979 -0.1659 -0.4712  0.4648
   12CHTO   H23 5073   5.736   8.499   8.037  0.4489 -0.9043 -0.2752
   12CHTO   C17 5074   5.658   8.696   8.063 -0.0550 -0.8395  0.6630
   12CHTO   O12 5075   5.634   8.812   7.981  0.0454  0.7469  0.0092
   12CHTO    H6 5076   5.604   8.886   8.030 -1.9129  0.7236 -1.1023
   13CHTO  H203 5077   6.363   4.654   3.759  1.3697  1.6375  1.5579
   13CHTO   O82 5078   6.354   4.716   3.689 -0.0067  0.0442  0.2797
   13CHTO  C123 5079   6.292   4.841   3.729 -0.3854  0.6773  0.1752
   13CHTO  H227 5080   6.323   4.861   3.833 -0.5308 -0.8050  0.5130
   13CHTO   O77 5081   6.362   4.936   3.650 -0.6113 -0.0179  0.2150
   13CHTO  C118 5082   6.320   5.077   3.652 -0.0921  0.0917  0.0720
   13CHTO  H222 5083   6.339   5.120   3.751  1.0751 -1.1482  0.4045
   13CHTO  C125 5084   6.408   5.156   3.545 -0.7542 -0.1787  0.4057
   13CHTO   O84 5085   6.547   5.118   3.543 -0.2690  0.0115  0.5400
   13CHTO  H205 5086   6.601   5.186   3.508 -0.1571  0.0548  0.8028
   13CHTO  C114 5087   6.171   5.088   3.610  0.2703  0.4782  0.3503
   13CHTO  H218 5088   6.164   5.052   3.508  0.0412  1.5318 -0.0134
   13CHTO  C116 5089   6.081   4.988   3.699 -0.3612  0.4458  0.0379
   13CHTO  H220 5090   6.073   5.028   3.802 -0.4962  1.0512 -0.2094
   13CHTO   O79 5091   5.951   5.002   3.647 -0.3332 -0.3248 -0.4476
   13CHTO  H201 5092   5.881   4.987   3.708  0.1273 -1.1472 -0.0995
   13CHTO  C120 5093   6.140   4.840   3.701  0.1794  0.3427 -0.4093
   13CHTO  H224 5094   6.106   4.795   3.606 -0.9221 -0.2309  0.2328
   13CHTO   N21 5095   6.066   4.761   3.801  0.0637  0.4069 -0.3905
   13CHTO  H211 5096   5.962   4.790   3.807 -0.7789 -1.8743 -2.9237
   13CHTO  H212 5097   6.074   4.656   3.774  0.2649  0.1633  0.6167
   13CHTO   O75 5098   6.129   5.228   3.609 -0.0850 -0.2533 -0.2570
   13CHTO  C112 5099   6.134   5.312   3.761  0.9241  0.1089  1.1532
   13CHTO  H216 5100   6.221   5.281   3.822  0.7717 -0.8313  0.8998
   13CHTO   O73 5101   6.010   5.284   3.827 -0.4116  0.1836 -0.6404
   13CHTO  C113 5102   5.978   5.360   3.942 -0.1773 -0.2083 -0.2115
   13CHTO  H217 5103   6.066   5.354   4.009 -1.0527 -0.1492  0.9573
   13CHTO  C124 5104   5.857   5.290   4.014  0.3785  0.1682 -0.1935
   13CHTO   O83 5105   5.880   5.157   4.055  0.3071  0.0852  0.6321
   13CHTO  H204 5106   5.811   5.101   4.024 -1.2298  2.2756 -0.0323
   13CHTO  C109 5107   5.964   5.507   3.903 -0.0285 -0.7883 -0.0098
   13CHTO  H213 5108   5.884   5.512   3.828 -2.5382  0.7115  2.6745
   13CHTO  C110 5109   6.113   5.549   3.852  0.6129  1.1610 -0.0975
   13CHTO  H214 5110   6.191   5.525   3.925  0.6496  2.8215  0.4274
   13CHTO   O78 5111   6.114   5.688   3.819  0.1804  0.0942  0.3312
   13CHTO  H200 5112   6.192   5.732   3.845 -0.2281  0.6868  0.5608
   13CHTO  C111 5113   6.147   5.465   3.727 -1.2464 -0.1956 -0.2513
   13CHTO  H215 5114   6.072   5.485   3.650 -0.3797 -0.0458 -1.0724
   13CHTO   N19 5115   6.283   5.494   3.663 -0.0132 -0.5609  0.0383
   13CHTO  H207 5116   6.344   5.566   3.715  0.1412 -0.6155 -0.0704
   13CHTO  H208 5117   6.273   5.515   3.558  2.0715 -2.2186 -0.5201
   13CHTO   O74 5118   5.915   5.582   4.022  0.6591 -0.0518 -0.7267
   13CHTO  C115 5119   5.776   5.639   4.009 -0.5880  0.2550  0.7895
   13CHTO  H219 5120   5.740   5.634   3.906  0.9949  2.7505  0.0887
   13CHTO   O76 5121   5.663   5.550   4.081  0.8386 -0.2232  0.1600
   13CHTO  C122 5122   5.678   5.549   4.226 -0.0210  0.4850 -0.2164
   13CHTO  H226 5123   5.778   5.510   4.245  0.0727  0.3871 -0.8887
   13CHTO  C126 5124   5.585   5.440   4.287  0.0605  0.0362  0.0734
   13CHTO   O85 5125   5.621   5.310   4.243  0.0993  1.1133 -0.0612
   13CHTO  H206 5126   5.712   5.288   4.233 -0.3305 -1.2793  0.9775
   13CHTO  C121 5127   5.661   5.691   4.282 -0.1518 -0.2624 -0.1082
   13CHTO  H225 5128   5.561   5.691   4.330  0.5854 -1.3997  1.4895
   13CHTO   O81 5129   5.761   5.739   4.376  0.4862  0.4979 -0.3289
   13CHTO  H202 5130   5.764   5.682   4.450 -1.2078  0.7903 -0.0225
   13CHTO  C119 5131   5.657   5.797   4.169  0.0815 -0.9972  0.2642
   13CHTO  H223 5132   5.562   5.783   4.117  0.5298  0.2520 -0.9445
   13CHTO  C117 5133   5.771   5.785   4.067  0.1090  0.0872 -0.4327
   13CHTO  H221 5134   5.873   5.808   4.098 -0.3084  0.0295  1.0102
   13CHTO   N20 5135   5.750   5.872   3.952  0.8724  0.5194  0.2782
   13CHTO  H209 5136   5.843   5.919   3.923  2.2693 -2.2457  0.0775
   13CHTO  H210 5137   5.689   5.826   3.876 -0.6629  0.0052  1.7820
   13CHTO   O80 5138   5.648   5.955   4.225 -0.4807 -0.0760 -0.4604
   13CHTO  C103 5139   5.508   6.019   4.277 -0.1749  0.2155 -0.1833
   13CHTO  H190 5140   5.511   6.124   4.250  1.0836 -0.0452 -1.1105
   13CHTO  C101 5141   5.372   5.958   4.228  1.1198  0.1530  0.1109
   13CHTO  H188 5142   5.369   5.851   4.247  1.6297 -0.0610 -0.9579
   13CHTO   O68 5143   5.374   5.962   4.086 -0.7616  0.2541 -0.2374
   13CHTO  H168 5144   5.438   5.902   4.052 -1.9724 -1.5208  0.5427
   13CHTO   C99 5145   5.246   6.021   4.302  0.1730 -0.7107 -0.6781
   13CHTO  H186 5146   5.245   6.132   4.292  1.4637 -0.2285  3.6401
   13CHTO   N17 5147   5.123   5.962   4.250  0.0451 -0.0746 -0.2228
   13CHTO  H174 5148   5.140   5.855   4.254 -0.8597 -0.2287 -0.3186
   13CHTO  H175 5149   5.040   5.986   4.314  0.0647 -1.0796  0.1990
   13CHTO   C97 5150   5.272   6.001   4.458 -0.8904  0.1307  0.2649
   13CHTO  H184 5151   5.269   5.893   4.479  0.8141  0.2997  1.4553
   13CHTO   O64 5152   5.396   6.056   4.491 -0.3057 -0.3058 -0.1888
   13CHTO  C104 5153   5.514   6.003   4.431 -0.5226  0.6387 -0.9183
   13CHTO  H191 5154   5.535   5.899   4.460  2.1306  1.1141 -1.0187
   13CHTO  C108 5155   5.639   6.075   4.488 -0.9969 -0.0347 -0.3394
   13CHTO   O71 5156   5.759   6.003   4.506  0.2545 -0.4995 -0.0606
   13CHTO  H171 5157   5.758   5.953   4.585  1.4178 -1.1161 -0.4305
   13CHTO   O62 5158   5.185   6.079   4.538  0.3162  0.2448 -0.1741
   13CHTO   C91 5159   5.109   6.010   4.638  0.1426 -0.2306 -0.4212
   13CHTO  H178 5160   5.122   5.902   4.640 -0.6549 -0.3398 -0.7724
   13CHTO   C92 5161   4.959   6.017   4.601 -0.1056 -0.2735 -0.2720
   13CHTO  H179 5162   4.944   6.123   4.574  1.4285 -0.0799 -0.4667
   13CHTO   O66 5163   4.942   5.944   4.477  0.4731 -0.2290  0.5107
   13CHTO  H166 5164   4.987   5.975   4.401  0.4730  1.6498  1.2615
   13CHTO   C93 5165   4.850   5.970   4.706 -0.2575  0.0395  0.4457
   13CHTO  H180 5166   4.851   5.860   4.705  0.2348  0.0499 -2.4919
   13CHTO   N16 5167   4.717   6.035   4.675  0.8943  0.2573 -0.3253
   13CHTO  H172 5168   4.732   6.142   4.674  2.9217  0.0474  2.1805
   13CHTO  H173 5169   4.676   6.001   4.581  1.8276  0.7623 -0.9205
   13CHTO   C94 5170   4.892   6.019   4.849 -0.3390  0.2343  0.1971
   13CHTO  H181 5171   4.867   6.124   4.864  1.8837  1.0000 -1.1960
   13CHTO   O61 5172   5.029   6.002   4.882 -0.5671 -0.2296 -0.3729
   13CHTO   C95 5173   5.124   6.060   4.792  0.5678 -0.3185 -0.0458
   13CHTO  H182 5174   5.125   6.168   4.803 -2.4826 -0.3735  1.2548
   13CHTO  C106 5175   5.267   6.026   4.850  0.4349 -0.1207  0.0024
   13CHTO   O69 5176   5.352   6.103   4.767  0.0060  0.2631 -0.7893
   13CHTO  H169 5177   5.354   6.070   4.679 -0.5161 -1.1191 -0.2952
   13CHTO   O63 5178   4.793   5.907   4.967 -0.2247 -0.3297 -0.3697
   13CHTO   C96 5179   4.775   5.967   5.114  0.1224  0.1725  0.3482
   13CHTO  H183 5180   4.724   6.062   5.102  0.0244  0.0200 -0.5380
   13CHTO   C98 5181   4.910   5.991   5.197 -0.2572 -0.3569  1.3488
   13CHTO  H185 5182   4.987   6.045   5.141 -0.8695  0.1752  1.0098
   13CHTO   O67 5183   4.868   6.087   5.302 -0.3809 -0.1424 -0.6628
   13CHTO  H167 5184   4.944   6.141   5.312  1.6968 -3.2029  0.4570
   13CHTO  C102 5185   4.956   5.858   5.260  0.1352  0.9144 -0.1018
   13CHTO  H189 5186   5.033   5.887   5.333  0.5472  3.5972 -1.5673
   13CHTO   N18 5187   5.018   5.759   5.173  0.3692  0.2811 -0.2759
   13CHTO  H176 5188   4.941   5.726   5.105 -0.8313  3.0903 -0.3455
   13CHTO  H177 5189   5.087   5.807   5.104 -1.9138  3.2780 -0.5743
   13CHTO  C105 5190   4.846   5.789   5.353 -0.6749 -0.3825  0.4417
   13CHTO  H192 5191   4.832   5.684   5.330  0.2775 -0.7986  1.7046
   13CHTO   O65 5192   4.720   5.852   5.333 -0.0843 -0.2436  0.0087
   13CHTO  C100 5193   4.686   5.873   5.196 -0.0942  0.5845  0.0652
   13CHTO  H187 5194   4.697   5.780   5.137  1.4474  0.4902  0.4910
   13CHTO  C107 5195   4.538   5.919   5.193  0.4192 -0.1351 -0.1719
   13CHTO   O70 5196   4.452   5.805   5.231 -0.0865 -0.0594  0.0005
   13CHTO  H170 5197   4.466   5.782   5.320 -0.6830  0.2818  0.1861
   13CHTO   O57 5198   4.899   5.792   5.507  0.0600 -0.5763 -0.1974
   13CHTO   C85 5199   4.840   5.701   5.603  0.4282  0.2175 -0.0469
   13CHTO  H157 5200   4.844   5.603   5.550  0.0853 -1.2089  2.4482
   13CHTO   C83 5201   4.693   5.728   5.643 -0.5119  0.2207  0.7146
   13CHTO  H155 5202   4.643   5.707   5.549  1.8596 -0.5572 -0.4016
   13CHTO   O56 5203   4.673   5.863   5.688  0.0925  0.5765 -0.6751
   13CHTO  H135 5204   4.629   5.905   5.618  1.3936  0.5757 -1.5068
   13CHTO   C81 5205   4.644   5.621   5.742  0.2507  0.1118  0.1770
   13CHTO  H153 5206   4.645   5.528   5.687 -2.0644  0.2610 -0.1641
   13CHTO   N14 5207   4.501   5.643   5.781 -0.4142 -0.0650  0.5585
   13CHTO  H141 5208   4.442   5.603   5.701  0.0406 -0.3124  0.3449
   13CHTO  H142 5209   4.449   5.615   5.870 -1.7542 -1.7649 -0.7171
   13CHTO   C79 5210   4.731   5.615   5.867  0.1871 -0.1633 -0.4066
   13CHTO  H151 5211   4.705   5.525   5.923  1.9385 -0.7412 -0.5221
   13CHTO   O52 5212   4.867   5.593   5.834  0.3827 -0.0369 -0.0359
   13CHTO   C86 5213   4.920   5.697   5.737 -0.1794 -0.9039 -0.1440
   13CHTO  H158 5214   4.913   5.794   5.792 -0.1593 -1.5719  1.0400
   13CHTO   C90 5215   5.065   5.675   5.719 -0.3007  0.1610 -0.3224
   13CHTO   O60 5216   5.126   5.687   5.850  0.4130 -0.0293 -0.0868
   13CHTO  H138 5217   5.219   5.690   5.844  0.5076 -1.9628 -0.0454
   13CHTO   O50 5218   4.721   5.733   5.955  0.3330  0.3857  0.9598
   13CHTO   C73 5219   4.692   5.840   6.049 -0.2215  0.1240 -0.4783
   13CHTO  H145 5220   4.584   5.859   6.037  0.3350  2.1005 -2.7006
   13CHTO   C74 5221   4.768   5.978   6.016 -0.0321  0.1191 -0.6790
   13CHTO  H146 5222   4.754   5.999   5.909 -1.8748  1.4089 -0.2146
   13CHTO   O54 5223   4.697   6.089   6.080  0.5869 -0.2434  0.1102
   13CHTO  H133 5224   4.604   6.087   6.071  0.6669 -2.0713 -0.5599
   13CHTO   C75 5225   4.919   5.977   6.053  0.1468 -0.9268  0.2840
   13CHTO  H147 5226   4.971   5.914   5.980  3.2601  1.3944  0.3559
   13CHTO   N13 5227   4.980   6.117   6.033  0.0907  0.0009  0.2536
   13CHTO  H139 5228   5.086   6.101   6.045 -0.2205 -3.1797 -0.8061
   13CHTO  H140 5229   4.954   6.155   5.935  2.3777 -3.2132 -1.6951
   13CHTO   C76 5230   4.940   5.908   6.189 -0.2827  0.1260  0.0860
   13CHTO  H148 5231   4.912   5.975   6.270 -0.3383  0.8921 -0.5610
   13CHTO   O49 5232   4.871   5.782   6.212 -0.1590  0.4585 -0.4203
   13CHTO   C77 5233   4.728   5.800   6.201 -0.3341  0.4811  0.4944
   13CHTO  H149 5234   4.692   5.879   6.268  0.1109  1.6621 -0.6209
   13CHTO   C88 5235   4.655   5.674   6.248 -0.2634 -0.0099  0.4733
   13CHTO   O58 5236   4.717   5.551   6.213  0.4949  0.2257 -0.5362
   13CHTO  H136 5237   4.807   5.555   6.238  0.6210  0.5814 -1.0276
   13CHTO   O51 5238   5.090   5.857   6.181 -0.4221  0.1967  0.0760
   13CHTO   C78 5239   5.186   5.830   6.284  0.2349  0.1074 -0.2282
   13CHTO  H150 5240   5.135   5.780   6.370  2.2137 -2.5009 -0.5192
   13CHTO   C80 5241   5.251   5.962   6.338 -0.6473  0.1451  0.5241
   13CHTO  H152 5242   5.284   6.029   6.256 -2.2457 -0.0373 -0.2968
   13CHTO   O55 5243   5.140   6.031   6.406 -0.0841  0.2709 -0.5540
   13CHTO  H134 5244   5.104   5.970   6.467  0.0369  1.7171  0.9934
   13CHTO   C84 5245   5.373   5.932   6.435 -0.4609 -0.2464 -0.4532
   13CHTO  H156 5246   5.336   5.872   6.518  3.8648  0.9056  2.5196
   13CHTO   N15 5247   5.439   6.044   6.493 -0.0746 -0.6968 -0.5614
   13CHTO  H143 5248   5.458   6.120   6.420  1.3474 -0.5588 -0.0631
   13CHTO  H144 5249   5.374   6.083   6.569 -1.2933 -1.0920 -1.3806
   13CHTO   C87 5250   5.471   5.838   6.357  0.5722 -0.1317  0.0218
   13CHTO  H159 5251   5.493   5.894   6.267  1.1223  1.3932  1.0892
   13CHTO   O53 5252   5.386   5.704   6.331  0.3316 -0.2398  0.3061
   13CHTO   C82 5253   5.296   5.733   6.226  0.3050  0.2262  0.2734
   13CHTO  H154 5254   5.345   5.785   6.143  0.0748  0.9359  0.5740
   13CHTO   C89 5255   5.235   5.599   6.177  0.2485 -0.4175  0.5233
   13CHTO   O59 5256   5.297   5.536   6.068 -0.2362 -0.1743 -0.2903
   13CHTO  H137 5257   5.352   5.463   6.092 -0.3924  0.0709  0.8462
   13CHTO   O45 5258   5.609   5.788   6.450 -0.3101  0.6787  1.3311
   13CHTO   C67 5259   5.733   5.784   6.381 -0.1563  0.0595 -0.1792
   13CHTO  H124 5260   5.732   5.847   6.292 -0.8910  1.4630  0.8027
   13CHTO   C65 5261   5.842   5.831   6.484  0.4931 -0.1581  0.3556
   13CHTO  H122 5262   5.804   5.809   6.584 -0.5745  2.0950  0.4837
   13CHTO   O44 5263   5.826   5.975   6.467 -0.1347 -0.4152 -0.4227
   13CHTO  H102 5264   5.871   6.010   6.541 -1.9496  0.3864  0.3231
   13CHTO   C63 5265   5.988   5.765   6.479  0.0170  0.6260 -0.0752
   13CHTO  H120 5266   5.995   5.687   6.555  1.2287  0.0224 -0.7937
   13CHTO   N11 5267   6.104   5.841   6.526  0.0867  0.6164  0.0090
   13CHTO  H108 5268   6.099   5.856   6.632  2.1351 -0.2392  0.2607
   13CHTO  H109 5269   6.114   5.927   6.464  0.0801 -0.8194 -2.0445
   13CHTO   C61 5270   6.017   5.710   6.339 -0.2725 -0.2353 -0.1980
   13CHTO  H118 5271   6.109   5.651   6.347  1.3264  1.8590 -2.2948
   13CHTO   O40 5272   5.908   5.617   6.299  0.4053 -0.1417 -0.1090
   13CHTO   C68 5273   5.767   5.636   6.327 -0.3983  0.3242 -0.0591
   13CHTO  H125 5274   5.725   5.584   6.415  2.8231 -0.1096  1.2794
   13CHTO   C72 5275   5.680   5.587   6.205 -0.2934  0.0171 -0.1393
   13CHTO   O48 5276   5.676   5.445   6.207 -0.0464  0.1052  0.3926
   13CHTO  H105 5277   5.617   5.403   6.267 -0.2803 -1.1657 -0.7129
   13CHTO   O38 5278   6.038   5.809   6.234  0.4824 -0.2518  0.1252
   13CHTO   C55 5279   6.119   5.759   6.126  0.5888 -0.6744  0.2471
   13CHTO  H112 5280   6.091   5.652   6.121 -1.2662 -0.0975 -2.1228
   13CHTO   C56 5281   6.275   5.783   6.138 -0.0600  0.0347  0.3843
   13CHTO  H113 5282   6.300   5.886   6.168  1.6298 -0.5032  0.8522
   13CHTO   O42 5283   6.317   5.693   6.239  0.1768  0.3361 -0.0090
   13CHTO  H100 5284   6.384   5.731   6.293  3.8373 -1.4838 -3.1139
   13CHTO   C57 5285   6.357   5.760   6.006  0.5189 -0.1169 -0.1972
   13CHTO  H114 5286   6.356   5.655   5.978  2.5909 -0.1896 -0.0655
   13CHTO   N10 5287   6.498   5.789   6.023 -0.5034 -0.0489 -0.4775
   13CHTO  H106 5288   6.561   5.708   6.059 -0.0197  1.1605  1.4397
   13CHTO  H107 5289   6.516   5.876   6.084 -2.3972 -0.2531  0.3983
   13CHTO   C58 5290   6.288   5.839   5.894  0.3843 -0.2362  0.8337
   13CHTO  H115 5291   6.299   5.947   5.917  0.6776  0.1840 -1.1223
   13CHTO   O37 5292   6.149   5.801   5.890 -0.4562 -0.0353  0.1119
   13CHTO   C59 5293   6.068   5.836   5.998 -0.8963  0.0703  0.0001
   13CHTO  H116 5294   6.060   5.942   6.022 -0.7315  0.3418 -1.1379
   13CHTO   C70 5295   5.929   5.777   5.971  0.7321 -0.0664 -0.7849
   13CHTO   O46 5296   5.872   5.807   5.842  0.5405 -0.6718  0.1804
   13CHTO  H103 5297   5.845   5.897   5.842  1.9536 -0.2439 -0.7334
   13CHTO   O39 5298   6.373   5.810   5.745 -0.1541  0.3789  0.0881
   13CHTO   C60 5299   6.463   5.904   5.713  0.3285 -0.6720  0.4093
   13CHTO  H117 5300   6.479   5.977   5.792  0.6219  2.6870 -2.6589
   13CHTO   C62 5301   6.600   5.847   5.673  0.6195 -0.1825  0.1983
   13CHTO  H119 5302   6.630   5.774   5.751 -0.7644 -0.8233  0.1456
   13CHTO   O43 5303   6.584   5.763   5.555 -0.3259  0.1037  0.3933
   13CHTO  H101 5304   6.660   5.708   5.548 -0.7342 -0.2846 -1.1771
   13CHTO   C66 5305   6.713   5.954   5.664  0.2053 -0.4045  0.2243
   13CHTO  H123 5306   6.706   6.014   5.755 -1.9919 -0.7058  0.2844
   13CHTO   N12 5307   6.853   5.900   5.652  0.6552 -0.1203 -0.1460
   13CHTO  H110 5308   6.894   5.924   5.749  0.7266 -2.4186  0.4429
   13CHTO  H111 5309   6.903   5.937   5.564 -0.1853  1.9475  0.2288
   13CHTO   C69 5310   6.677   6.046   5.541  0.1236 -0.5503 -0.9152
   13CHTO  H126 5311   6.687   5.977   5.454  1.1007 -2.2484  0.5054
   13CHTO   O41 5312   6.520   6.093   5.552  0.2584 -0.3054 -0.1067
   13CHTO   C64 5313   6.413   5.988   5.591 -0.7597 -0.0296  0.2320
   13CHTO  H121 5314   6.387   5.935   5.498 -2.3558  1.7653 -0.3873
   13CHTO   C71 5315   6.282   6.064   5.621 -0.1626 -0.4256  0.0567
   13CHTO   O47 5316   6.220   6.106   5.502 -0.0666  0.3172 -0.1054
   13CHTO  H104 5317   6.187   6.032   5.453 -0.3182  0.5381 -0.2724
   13CHTO   O34 5318   6.774   6.175   5.525 -0.5651 -0.4648 -0.4895
   13CHTO   C49 5319   6.795   6.314   5.522  0.3213 -0.7331  0.0806
   13CHTO   H91 5320   6.808   6.339   5.416 -1.1053 -0.3710 -0.0200
   13CHTO   C47 5321   6.918   6.348   5.607  0.2216  0.5484  0.7845
   13CHTO   H89 5322   6.920   6.458   5.595 -0.5583  0.1102 -4.2275
   13CHTO   O33 5323   7.039   6.297   5.545  0.2821  0.5154 -0.3271
   13CHTO   H70 5324   7.113   6.321   5.597  0.8365 -0.4144 -0.6781
   13CHTO   C45 5325   6.901   6.307   5.764  0.1156  0.0704  0.4358
   13CHTO   H87 5326   6.922   6.199   5.758 -0.1451  0.1399 -3.0594
   13CHTO    N8 5327   7.005   6.381   5.842  0.0857 -0.4038  0.5838
   13CHTO   H75 5328   7.069   6.308   5.889 -1.8357 -2.4870  0.0473
   13CHTO   H76 5329   6.968   6.446   5.920  2.1780  0.7498  0.6488
   13CHTO   C43 5330   6.746   6.316   5.802  0.3279 -0.2690  0.6241
   13CHTO   H85 5331   6.712   6.220   5.764 -2.5451  1.0434 -0.2732
   13CHTO   O29 5332   6.684   6.424   5.734 -0.2943  0.5502  0.5690
   13CHTO   C50 5333   6.675   6.394   5.586  0.6577  0.6011 -0.5491
   13CHTO   H92 5334   6.588   6.328   5.572  0.3543  0.7899  0.3928
   13CHTO   C54 5335   6.634   6.519   5.512  0.2817 -0.5215 -0.1682
   13CHTO   O36 5336   6.721   6.629   5.533 -0.4183  0.3139 -0.3447
   13CHTO   H72 5337   6.675   6.702   5.569  0.1615 -0.1177  1.2894
   13CHTO   O27 5338   6.725   6.311   5.941 -0.3503  0.9703  0.0868
   13CHTO   C37 5339   6.624   6.337   6.041  0.2840  0.0437 -0.4078
   13CHTO   H79 5340   6.538   6.397   6.008 -1.3270 -1.6926  0.5442
   13CHTO   C38 5341   6.564   6.206   6.099 -0.2638  0.6652  0.3996
   13CHTO   H80 5342   6.647   6.150   6.143  0.7557  2.1271  0.3771
   13CHTO   O31 5343   6.492   6.133   5.994 -0.1326 -0.3433 -0.2204
   13CHTO   H68 5344   6.405   6.105   6.015 -0.0872 -0.4242 -0.1392
   13CHTO   C39 5345   6.462   6.227   6.216  0.1002  0.6550  0.1387
   13CHTO   H81 5346   6.368   6.264   6.176  1.4683  2.6780 -1.2666
   13CHTO    N7 5347   6.423   6.098   6.285  0.0975 -0.2245  0.3683
   13CHTO   H73 5348   6.318   6.101   6.312 -0.4705 -3.6811 -1.1516
   13CHTO   H74 5349   6.478   6.077   6.376 -0.4127 -0.0331  0.7253
   13CHTO   C40 5350   6.520   6.327   6.327  0.0926 -0.2463  0.2474
   13CHTO   H82 5351   6.591   6.278   6.394  0.6942 -0.4788 -0.5606
   13CHTO   O26 5352   6.584   6.436   6.256 -0.2786  0.1676 -0.3788
   13CHTO   C41 5353   6.686   6.420   6.157  0.8074  0.0426 -0.3688
   13CHTO   H83 5354   6.778   6.368   6.189  0.8249 -0.7660 -1.6827
   13CHTO   C52 5355   6.712   6.568   6.125 -0.0175 -0.0904  0.0215
   13CHTO   O35 5356   6.751   6.585   5.989  0.1716 -0.3994 -0.0231
   13CHTO   H71 5357   6.729   6.674   5.968 -1.2454 -0.3403  1.5608
   13CHTO   O28 5358   6.426   6.390   6.415  0.7747 -0.4650  0.9898
   13CHTO   C42 5359   6.465   6.461   6.540  1.0598  0.2547 -0.4242
   13CHTO   H84 5360   6.372   6.512   6.566  1.0183  0.0661 -0.2024
   13CHTO   C44 5361   6.576   6.572   6.528  0.1775 -0.2079 -0.2635
   13CHTO   H86 5362   6.669   6.525   6.498  0.0786  0.4117 -1.5492
   13CHTO   O32 5363   6.536   6.658   6.418 -0.1278 -0.3792  0.6014
   13CHTO   H69 5364   6.455   6.701   6.438 -0.1972 -0.4889  0.5608
   13CHTO   C48 5365   6.592   6.657   6.658 -0.1121  1.1494  0.0804
   13CHTO   H90 5366   6.501   6.716   6.664 -0.2323  0.8474  1.2097
   13CHTO    N9 5367   6.700   6.757   6.647 -0.5199 -0.3748 -0.1192
   13CHTO   H77 5368   6.664   6.841   6.589 -1.8628 -0.6393  0.3294
   13CHTO   H78 5369   6.783   6.714   6.593 -1.7884 -2.2917 -0.5588
   13CHTO   C51 5370   6.613   6.561   6.775  0.0707  0.0187  0.5591
   13CHTO   H93 5371   6.713   6.519   6.767 -0.1684 -0.2779 -0.9943
   13CHTO   O30 5372   6.514   6.459   6.793 -0.0188 -0.8228  0.4383
   13CHTO   C46 5373   6.504   6.375   6.660  0.3112  1.3327  0.3372
   13CHTO   H88 5374   6.599   6.327   6.637  0.8494  1.8389  1.4844
   13CHTO   C53 5375   6.397   6.262   6.682 -0.1323  0.2294  0.6236
   13CHTO   O72 5376   6.439   6.177   6.791  0.3860  0.4369 -0.4531
   13CHTO  H199 5377   6.364   6.148   6.839  1.8759  0.1553  1.8016
   13CHTO   O22 5378   6.611   6.651   6.893 -0.0121  0.1275  0.0901
   13CHTO   C31 5379   6.529   6.634   7.027 -0.6421 -0.5834 -0.1530
   13CHTO   H59 5380   6.434   6.588   6.994  0.5133 -1.6661 -2.0666
   13CHTO   C29 5381   6.587   6.535   7.130  0.1325 -0.4512 -0.3883
   13CHTO   H57 5382   6.691   6.568   7.142 -0.1038 -0.0585  0.5372
   13CHTO   O21 5383   6.592   6.403   7.074  0.1935  0.3753  0.2557
   13CHTO   H37 5384   6.631   6.404   6.989 -0.6347  0.0281 -0.1427
   13CHTO   C27 5385   6.512   6.533   7.269 -0.2191 -0.8053  0.1553
   13CHTO   H55 5386   6.419   6.478   7.251 -1.6263  1.3963  0.4679
   13CHTO    N5 5387   6.587   6.459   7.380  0.4805 -0.2411  0.2139
   13CHTO   H43 5388   6.617   6.363   7.341  0.2368 -0.6428  0.9986
   13CHTO   H44 5389   6.678   6.503   7.418  0.4690 -1.3673  1.6119
   13CHTO   C25 5390   6.466   6.678   7.319  1.1368 -0.5538 -0.5682
   13CHTO   H53 5391   6.558   6.731   7.349  1.2092 -0.2072 -1.4026
   13CHTO   O17 5392   6.418   6.752   7.206  0.5688  0.6070  0.0371
   13CHTO   C32 5393   6.499   6.772   7.093  0.3806 -0.0622  0.7219
   13CHTO   H60 5394   6.596   6.813   7.124  0.3739  0.7399 -0.2880
   13CHTO   C36 5395   6.429   6.860   6.998  0.7024 -0.3165 -0.2347
   13CHTO   O25 5396   6.521   6.926   6.907 -0.5628  0.2639 -0.4926
   13CHTO   H40 5397   6.574   6.987   6.954 -0.3064 -0.5317  0.2560
   13CHTO   O15 5398   6.360   6.682   7.440  0.0066 -0.1797  0.2223
   13CHTO   C19 5399   6.268   6.790   7.460  0.0499  0.6812 -0.5364
   13CHTO   H47 5400   6.229   6.761   7.559  0.5109  0.8970 -0.2890
   13CHTO   C20 5401   6.322   6.938   7.456 -0.2486 -0.7959 -0.4770
   13CHTO   H48 5402   6.359   6.959   7.355 -1.0489  0.2976 -0.5512
   13CHTO   O19 5403   6.435   6.927   7.551 -0.2501  0.1174 -0.1298
   13CHTO   H35 5404   6.488   7.005   7.548  2.2744 -1.6051 -2.1154
   13CHTO   C21 5405   6.210   7.045   7.491 -0.1432  0.6536  0.5386
   13CHTO   H49 5406   6.169   7.032   7.592 -1.7241  1.2946 -0.0125
   13CHTO    N4 5407   6.259   7.182   7.475  0.7199 -0.2100 -0.3791
   13CHTO   H41 5408   6.230   7.227   7.381  0.2126  2.0096  0.8123
   13CHTO   H42 5409   6.366   7.171   7.477  0.5484 -2.3113 -1.4283
   13CHTO   C22 5410   6.089   7.017   7.394  0.2130 -0.1138 -0.1449
   13CHTO   H50 5411   6.129   7.037   7.295 -0.9184  0.7303 -0.4292
   13CHTO   O14 5412   6.042   6.880   7.400 -0.0671  0.1395 -0.1137
   13CHTO   C23 5413   6.144   6.788   7.361  0.3179  0.8163  0.3401
   13CHTO   H51 5414   6.170   6.810   7.256 -0.2403  0.7564  0.1901
   13CHTO   C34 5415   6.084   6.650   7.339 -0.3840 -0.4254 -0.7558
   13CHTO   O23 5416   5.997   6.606   7.453 -0.0599  0.5868 -0.0581
   13CHTO   H38 5417   5.921   6.562   7.418 -0.9362  1.7987  0.2945
   13CHTO   O16 5418   5.977   7.104   7.436 -0.0589  0.1327  0.0486
   13CHTO   C24 5419   5.890   7.142   7.306 -0.6152 -0.7075 -0.8370
   13CHTO   H52 5420   5.903   7.070   7.225 -0.2088 -1.2613 -0.2820
   13CHTO   C26 5421   5.922   7.292   7.271  0.1101 -0.1761  0.2592
   13CHTO   H54 5422   5.919   7.348   7.367  0.2313  1.4097 -0.6404
   13CHTO   O20 5423   6.056   7.287   7.218 -0.2072  0.1226 -0.8779
   13CHTO   H36 5424   6.089   7.372   7.200 -2.1171  0.2987 -3.8289
   13CHTO   C30 5425   5.817   7.352   7.167  0.3254 -0.2614 -0.1415
   13CHTO   H58 5426   5.845   7.327   7.064  0.1933 -0.3986 -0.1428
   13CHTO    N6 5427   5.831   7.496   7.176 -0.4586 -0.2034 -0.1210
   13CHTO   H45 5428   5.835   7.523   7.280  2.6285  0.5331 -0.3777
   13CHTO   H46 5429   5.757   7.558   7.126 -2.4808 -1.1770  1.5709
   13CHTO   C33 5430   5.673   7.307   7.198  0.2280  0.3864  0.1822
   13CHTO   H61 5431   5.636   7.357   7.289 -1.8438  0.7915 -0.8530
   13CHTO   O18 5432   5.676   7.166   7.217  0.0661  0.3202 -0.0377
   13CHTO   C28 5433   5.744   7.133   7.341 -0.3603  0.4565 -0.4133
   13CHTO   H56 5434   5.722   7.194   7.429  0.6181  0.2828 -0.0377
   13CHTO   C35 5435   5.701   6.989   7.384 -0.5698  0.3138  0.1617
   13CHTO   O24 5436   5.561   6.979   7.391 -0.1848 -0.4292  0.5596
   13CHTO   H39 5437   5.536   6.888   7.397  0.2675 -0.4507  2.5230
   13CHTO    O9 5438   5.582   7.344   7.093  0.3311  0.5280  1.0980
   13CHTO   C13 5439   5.435   7.423   7.140 -0.2620 -0.0095  0.6425
   13CHTO   H26 5440   5.466   7.526   7.166 -2.4442  0.7053  0.5280
   13CHTO   C11 5441   5.372   7.348   7.259 -0.3507 -0.3665 -0.3637
   13CHTO   H24 5442   5.434   7.374   7.346 -1.4253  0.1046  0.2727
   13CHTO    O8 5443   5.375   7.205   7.242  0.7454  0.6122  0.4925
   13CHTO    H3 5444   5.461   7.175   7.263 -0.1257 -0.7183  2.2563
   13CHTO    C9 5445   5.235   7.411   7.280 -0.2289  0.6076  0.3768
   13CHTO   H22 5446   5.256   7.518   7.296 -0.8875  0.5773  1.5207
   13CHTO    N2 5447   5.155   7.368   7.403 -0.1912 -0.4293  0.2401
   13CHTO   H10 5448   5.189   7.426   7.487 -0.0506 -0.2312  0.0471
   13CHTO   H11 5449   5.049   7.384   7.389  0.3150  0.8044 -2.6690
   13CHTO    C7 5450   5.143   7.384   7.151  0.0503  0.1337 -0.0839
   13CHTO   H20 5451   5.108   7.488   7.132  0.4863  0.7289  2.2336
   13CHTO    O4 5452   5.218   7.342   7.035  0.1461  0.1033  0.2425
   13CHTO   C14 5453   5.336   7.420   7.017  0.3257 -0.0039  0.7170
   13CHTO   H27 5454   5.307   7.525   7.001 -1.5746 -0.4934  0.8172
   13CHTO   C18 5455   5.398   7.371   6.873  0.1074  0.4659  0.3297
   13CHTO   O13 5456   5.515   7.445   6.830 -0.0203 -0.7614  0.0930
   13CHTO    H7 5457   5.500   7.519   6.774 -0.0587 -1.0749 -0.3122
   13CHTO    O2 5458   5.004   7.282   7.168  0.2486 -0.0974  0.1567
   13CHTO    C1 5459   4.869   7.335   7.140  0.3178  0.0848 -0.4946
   13CHTO   H14 5460   4.868   7.410   7.058 -0.3852  3.1477  2.2074
   13CHTO    C2 5461   4.796   7.399   7.266 -0.3724  0.1066  0.1792
   13CHTO   H15 5462   4.817   7.328   7.348  1.5584  1.0296  0.5005
   13CHTO    O6 5463   4.861   7.526   7.298 -0.4846  0.3861 -0.3340
   13CHTO    H1 5464   4.845   7.542   7.389 -1.6898 -2.6460  0.0381
   13CHTO    C3 5465   4.636   7.423   7.242 -0.0656  0.3867  0.0658
   13CHTO   H16 5466   4.622   7.507   7.173 -1.2065  1.6430  1.7849
   13CHTO    N1 5467   4.564   7.455   7.368  0.1532 -0.1782 -0.1214
   13CHTO    H8 5468   4.465   7.416   7.349  0.2460  0.3298 -1.6925
   13CHTO    H9 5469   4.608   7.396   7.448  0.3769 -0.4878 -0.4713
   13CHTO    C4 5470   4.579   7.301   7.163  0.1346 -0.1374  1.0699
   13CHTO   H17 5471   4.574   7.220   7.236 -0.5275 -1.2226 -0.1609
   13CHTO    O1 5472   4.661   7.263   7.052 -0.1518 -0.3375 -0.0923
   13CHTO    C5 5473   4.785   7.213   7.097 -0.0135  0.0768 -0.2985
   13CHTO   H18 5474   4.772   7.139   7.176  1.7482 -1.2319 -1.1835
   13CHTO   C16 5475   4.858   7.139   6.984  0.7904 -0.2579 -0.5970
   13CHTO   O11 5476   4.813   7.003   6.967  0.1718  0.1788 -0.8581
   13CHTO    H5 5477   4.872   6.932   6.987 -0.5501 -0.3972 -0.7423
   13CHTO    O3 5478   4.441   7.331   7.110  0.2285  0.2422 -0.0242
   13CHTO    C6 5479   4.363   7.205   7.103 -0.3792  0.0593 -0.4401
   13CHTO   H19 5480   4.436   7.125   7.091 -1.1445 -0.7237  0.0369
   13CHTO    C8 5481   4.271   7.171   7.226 -0.0334 -0.5510 -0.2775
   13CHTO   H21 5482   4.204   7.255   7.245 -2.3819 -1.6827 -3.2265
   13CHTO    O7 5483   4.355   7.152   7.342 -0.2349  0.6113  0.0728
   13CHTO    H2 5484   4.304   7.142   7.419 -1.0243 -3.3765 -0.8706
   13CHTO   C12 5485   4.183   7.046   7.195 -0.4367  0.3346  0.2470
   13CHTO   H25 5486   4.251   6.958   7.189 -2.2132 -0.9182 -2.3123
   13CHTO    N3 5487   4.090   7.002   7.303  0.6434  0.0531 -0.6928
   13CHTO   H12 5488   4.157   6.975   7.384  0.9714  2.4968 -0.1271
   13CHTO   H13 5489   4.028   7.083   7.336  0.4237 -0.3802 -0.0222
   13CHTO   C15 5490   4.115   7.065   7.059  0.7340  0.3788  0.4814
   13CHTO   H28 5491   4.045   7.149   7.054  0.4706  0.0709 -1.4057
   13CHTO   O10 5492   4.046   6.936   7.001  0.4684 -0.3398 -0.2633
   13CHTO    H4 5493   3.954   6.940   6.984  0.4502 -0.3406 -0.1716
   13CHTO    O5 5494   4.204   7.088   6.953 -0.0664  0.2106  0.0631
   13CHTO   C10 5495   4.280   7.210   6.978  0.0165 -0.0572  0.1335
   13CHTO   H23 5496   4.211   7.294   6.983  1.1695  0.8526  1.1021
   13CHTO   C17 5497   4.371   7.233   6.854 -0.3342  0.9821 -0.2510
   13CHTO   O12 5498   4.298   7.282   6.748 -0.0018  0.6981 -0.2930
   13CHTO    H6 5499   4.272   7.212   6.690 -2.6483  2.0914 -0.8972
   14CHTO  H203 5500   5.099   6.069   5.754  1.2520 -0.4750  2.3007
   14CHTO   O82 5501   5.152   6.142   5.730 -0.7433  0.2935 -0.1042
   14CHTO  C123 5502   5.272   6.091   5.672 -0.6878  0.2463  0.4835
   14CHTO  H227 5503   5.330   6.177   5.636 -1.1385 -0.2116 -1.3958
   14CHTO   O77 5504   5.332   6.017   5.783  0.3293 -0.7180  0.5337
   14CHTO  C118 5505   5.453   5.951   5.754 -0.1750  0.7857  0.0282
   14CHTO  H222 5506   5.536   6.014   5.719 -0.6133  0.9644 -0.7029
   14CHTO  C125 5507   5.491   5.891   5.891  0.3027 -0.3747  0.5476
   14CHTO   O84 5508   5.618   5.944   5.945  0.3613 -0.7103 -0.2762
   14CHTO  H205 5509   5.635   5.903   6.027  0.3140 -0.0507  0.0612
   14CHTO  C114 5510   5.431   5.847   5.640 -0.1391 -0.2619 -0.0735
   14CHTO  H218 5511   5.346   5.785   5.669  0.8385 -1.3379  0.5626
   14CHTO  C116 5512   5.380   5.913   5.511  0.1290  0.4282 -0.2375
   14CHTO  H220 5513   5.458   5.985   5.476  1.0291 -0.5165 -0.1954
   14CHTO   O79 5514   5.360   5.812   5.408 -0.3909 -0.3017  0.2115
   14CHTO  H201 5515   5.438   5.785   5.362 -0.4184  0.2400 -0.1618
   14CHTO  C120 5516   5.250   5.992   5.545  0.4299  0.6663  0.3608
   14CHTO  H224 5517   5.176   5.914   5.575  0.8531  0.2464  0.3117
   14CHTO   N21 5518   5.207   6.078   5.425 -0.2810 -0.0871  0.2655
   14CHTO  H211 5519   5.165   6.171   5.462  0.5852  0.1768  0.6078
   14CHTO  H212 5520   5.294   6.100   5.364  0.1467  0.1081  0.9354
   14CHTO   O75 5521   5.552   5.773   5.618  0.0094 -0.2791  0.2708
   14CHTO  C112 5522   5.531   5.603   5.610  0.0354  0.3736  0.4402
   14CHTO  H216 5523   5.624   5.564   5.565 -1.4138 -1.6442 -0.8973
   14CHTO   O73 5524   5.412   5.572   5.527  0.4292  0.3759  0.1036
   14CHTO  C113 5525   5.367   5.437   5.520  0.0529  0.0226  1.2677
   14CHTO  H217 5526   5.459   5.392   5.475 -0.7194 -0.7679  0.4552
   14CHTO  C124 5527   5.266   5.438   5.412 -0.4574  0.8637  0.3170
   14CHTO   O83 5528   5.309   5.491   5.288  0.3354  0.0869 -0.3561
   14CHTO  H204 5529   5.231   5.510   5.240  0.3899 -1.5648 -1.1271
   14CHTO  C109 5530   5.337   5.379   5.652 -0.9077 -0.9890 -0.9345
   14CHTO  H213 5531   5.258   5.442   5.696  1.3622  1.0185  0.3554
   14CHTO  C110 5532   5.465   5.388   5.741  0.4264 -0.3510  0.4083
   14CHTO  H214 5533   5.553   5.332   5.711  1.6415  0.8941  1.5904
   14CHTO   O78 5534   5.449   5.336   5.875  0.5056 -0.3843 -0.1539
   14CHTO  H200 5535   5.533   5.311   5.908  0.0991  0.3908  1.4906
   14CHTO  C111 5536   5.509   5.538   5.749 -0.0691 -0.0982  0.1165
   14CHTO  H215 5537   5.426   5.598   5.790  0.1060 -0.3333  0.8163
   14CHTO   N19 5538   5.632   5.572   5.829 -0.4133  0.1454  0.0056
   14CHTO  H207 5539   5.656   5.677   5.822 -1.1497  0.2646 -0.7880
   14CHTO  H208 5540   5.712   5.505   5.803  1.0638  1.5455  0.8350
   14CHTO   O74 5541   5.292   5.242   5.642 -0.3542 -0.5629  0.0243
   14CHTO  C115 5542   5.119   5.220   5.624  0.1360 -0.2448  0.5222
   14CHTO  H219 5543   5.076   5.319   5.606 -0.2635 -0.2290  1.5509
   14CHTO   O76 5544   5.083   5.127   5.494  0.5984 -0.0417 -0.3448
   14CHTO  C122 5545   4.949   5.104   5.467 -0.5935  1.1039 -0.2125
   14CHTO  H226 5546   4.947   5.033   5.385 -1.8552  1.6759 -0.6808
   14CHTO  C126 5547   4.879   5.233   5.405 -0.1247  0.7004  0.4274
   14CHTO   O85 5548   4.748   5.204   5.354  0.1234 -0.1845 -0.2229
   14CHTO  H206 5549   4.753   5.141   5.285  0.4428  0.8824 -1.1828
   14CHTO  C121 5550   4.880   5.048   5.597 -0.1777  0.6494 -0.0215
   14CHTO  H225 5551   4.773   5.032   5.573  0.1741 -2.2406  0.1336
   14CHTO   O81 5552   4.918   4.916   5.622 -0.1151 -0.7605 -0.4870
   14CHTO  H202 5553   4.864   4.872   5.685 -0.4203 -0.2338 -0.3790
   14CHTO  C119 5554   4.889   5.136   5.721  0.2906 -0.0491  0.4225
   14CHTO  H223 5555   4.856   5.235   5.689  1.4523 -0.0666 -0.8575
   14CHTO  C117 5556   5.048   5.155   5.749  0.6080 -0.3284 -0.1664
   14CHTO  H221 5557   5.110   5.069   5.773  0.1072 -0.9761 -1.1557
   14CHTO   N20 5558   5.072   5.251   5.860 -0.1310  0.9196 -0.3585
   14CHTO  H209 5559   5.028   5.346   5.833 -0.4909  0.8825  0.0706
   14CHTO  H210 5560   5.017   5.226   5.950  1.8815  2.0688  1.2522
   14CHTO   O80 5561   4.790   5.116   5.836 -0.3260  0.4540  0.1719
   14CHTO  C103 5562   4.654   5.208   5.846 -0.1697  0.0309 -0.2933
   14CHTO  H190 5563   4.691   5.310   5.838 -1.6763  0.5419 -1.0150
   14CHTO  C101 5564   4.532   5.179   5.751  0.2255 -0.0590  0.3938
   14CHTO  H188 5565   4.526   5.071   5.752  0.2635 -0.0557  0.9438
   14CHTO   O68 5566   4.571   5.226   5.602  1.0901 -0.2365  0.7618
   14CHTO  H168 5567   4.525   5.176   5.538  0.3592  1.7383 -0.2830
   14CHTO   C99 5568   4.397   5.249   5.792  0.0361 -0.3879 -0.9431
   14CHTO  H186 5569   4.411   5.357   5.772 -2.2754 -0.2357 -1.9981
   14CHTO   N17 5570   4.279   5.208   5.712 -0.0629  0.5715  0.5895
   14CHTO  H174 5571   4.197   5.177   5.775 -0.1621 -0.5764 -0.0819
   14CHTO  H175 5572   4.243   5.296   5.660 -0.9690  0.8715  1.7221
   14CHTO   C97 5573   4.370   5.247   5.945  0.1863  0.8030  0.6414
   14CHTO  H184 5574   4.333   5.149   5.980 -1.7581  1.2032 -0.2584
   14CHTO   O64 5575   4.492   5.280   6.012  0.3881  0.3390 -0.4612
   14CHTO  C104 5576   4.608   5.191   5.988 -0.0489 -0.6843 -0.2951
   14CHTO  H191 5577   4.592   5.085   6.005  1.2095 -0.7162  0.7809
   14CHTO  C108 5578   4.712   5.240   6.086  0.3986  0.3677 -0.7043
   14CHTO   O71 5579   4.676   5.233   6.226  0.0899  0.0759 -0.2979
   14CHTO  H171 5580   4.595   5.275   6.249 -0.2095 -0.7387  0.1340
   14CHTO   O62 5581   4.271   5.349   5.978  0.2646 -0.7438  0.0991
   14CHTO   C91 5582   4.224   5.357   6.118  0.3672  0.3433 -0.0649
   14CHTO  H178 5583   4.237   5.261   6.170  3.0253  1.4095  1.3358
   14CHTO   C92 5584   4.072   5.393   6.124  0.5225 -0.3556 -0.1112
   14CHTO  H179 5585   4.019   5.315   6.068  0.2780 -0.7007  0.5908
   14CHTO   O66 5586   4.030   5.380   6.264  0.3160 -0.7332 -0.3799
   14CHTO  H166 5587   3.944   5.416   6.275  1.8827  2.7703  1.5435
   14CHTO   C93 5588   4.035   5.534   6.074  0.4773  0.0555  0.6252
   14CHTO  H180 5589   3.953   5.575   6.135  0.1068  0.7583 -0.3259
   14CHTO   N16 5590   3.998   5.531   5.931 -0.9614 -0.4354 -0.2006
   14CHTO  H172 5591   3.908   5.581   5.898 -1.7932 -1.2067  0.8487
   14CHTO  H173 5592   4.084   5.553   5.869 -0.2265 -1.6511  0.3739
   14CHTO   C94 5593   4.161   5.633   6.105 -0.7812 -0.2879 -0.4693
   14CHTO  H181 5594   4.231   5.634   6.022 -2.1284 -2.1289 -1.6517
   14CHTO   O61 5595   4.231   5.592   6.226 -0.0002  0.1113  0.6363
   14CHTO   C95 5596   4.305   5.470   6.209  0.6806 -0.5975  0.4229
   14CHTO  H182 5597   4.395   5.496   6.154  2.6777  1.3169  4.4056
   14CHTO  C106 5598   4.342   5.409   6.349  0.2239 -0.1926 -0.6003
   14CHTO   O69 5599   4.410   5.508   6.428 -0.0058 -0.2560  0.2531
   14CHTO  H169 5600   4.503   5.495   6.428  0.0622  0.2365  0.9155
   14CHTO   O63 5601   4.106   5.792   6.139  0.5179  0.6198 -0.5295
   14CHTO   C96 5602   4.148   5.907   6.054 -0.5108  0.6145  0.1979
   14CHTO  H183 5603   4.093   5.996   6.085 -0.8828  0.8039 -0.9874
   14CHTO   C98 5604   4.126   5.872   5.905  0.3194  0.2276  0.2259
   14CHTO  H185 5605   4.172   5.778   5.871  0.4392  0.9002 -1.5848
   14CHTO   O67 5606   3.986   5.854   5.889 -0.2356 -0.3018  0.1941
   14CHTO  H167 5607   3.950   5.894   5.812  0.6826 -0.1172 -0.1508
   14CHTO  C102 5608   4.176   5.993   5.808  0.2269  0.0901 -0.8062
   14CHTO  H189 5609   4.112   6.080   5.827  0.3671  0.0965 -0.3612
   14CHTO   N18 5610   4.157   5.967   5.661 -0.8442 -0.5178 -0.2727
   14CHTO  H176 5611   4.218   6.033   5.602  0.5439 -0.7284  0.8994
   14CHTO  H177 5612   4.055   5.959   5.627  0.0100  0.6243 -3.2917
   14CHTO  C105 5613   4.323   6.021   5.842 -0.3631 -0.0506 -0.5013
   14CHTO  H192 5614   4.385   5.935   5.816  0.7337  0.8722 -0.9956
   14CHTO   O65 5615   4.346   6.030   5.988  0.0578  0.2680  0.9963
   14CHTO  C100 5616   4.290   5.944   6.089 -0.3913  1.2015  0.8323
   14CHTO  H187 5617   4.357   5.857   6.083  2.5328  3.4514 -0.5253
   14CHTO  C107 5618   4.303   6.005   6.228  0.1874  0.3467  0.1865
   14CHTO   O70 5619   4.342   5.919   6.328 -0.3536  0.0542  0.3827
   14CHTO  H170 5620   4.397   5.969   6.384  0.7182 -0.2844 -0.3492
   14CHTO   O57 5621   4.369   6.167   5.766 -0.4576 -0.1053  0.0896
   14CHTO   C85 5622   4.485   6.170   5.679 -1.1009 -0.5458 -0.0656
   14CHTO  H157 5623   4.509   6.065   5.650  0.4817 -0.2315  0.0988
   14CHTO   C83 5624   4.614   6.235   5.749  0.3993  0.0877 -0.4849
   14CHTO  H155 5625   4.651   6.176   5.833  1.4647  0.9816 -0.3122
   14CHTO   O56 5626   4.569   6.363   5.795  0.0395 -0.2737  0.3279
   14CHTO  H135 5627   4.624   6.401   5.861  0.5970  1.0838 -0.8890
   14CHTO   C81 5628   4.736   6.246   5.652  0.8956 -0.0134  0.7678
   14CHTO  H153 5629   4.767   6.149   5.613 -1.5667  0.7951 -3.5605
   14CHTO   N14 5630   4.864   6.304   5.711 -0.3031  0.2256  0.3061
   14CHTO  H141 5631   4.889   6.388   5.650  0.2759 -1.8028 -2.3997
   14CHTO  H142 5632   4.851   6.328   5.814  0.6135 -2.8878  1.2181
   14CHTO   C79 5633   4.700   6.332   5.524 -0.0581  0.0277 -0.0283
   14CHTO  H151 5634   4.782   6.324   5.453  0.8228  0.7341  0.8858
   14CHTO   O52 5635   4.585   6.268   5.465 -0.1265 -0.1338  0.3744
   14CHTO   C86 5636   4.463   6.258   5.551 -0.5640 -0.2192 -0.0246
   14CHTO  H158 5637   4.446   6.363   5.584  1.2838 -0.7374  2.7061
   14CHTO   C90 5638   4.343   6.211   5.463 -0.0502  0.4010 -0.1438
   14CHTO   O60 5639   4.305   6.325   5.376 -0.5468 -0.1812 -0.3175
   14CHTO  H138 5640   4.213   6.327   5.364 -0.5329 -0.3067 -0.4326
   14CHTO   O50 5641   4.670   6.466   5.555 -0.5709  0.9141 -0.0452
   14CHTO   C73 5642   4.666   6.597   5.491 -0.0350 -0.0569  0.7665
   14CHTO  H145 5643   4.634   6.680   5.556  2.4115  0.6845  1.0821
   14CHTO   C74 5644   4.562   6.590   5.375 -0.0989 -0.1705  1.0074
   14CHTO  H146 5645   4.467   6.557   5.421 -0.9917  1.1768  0.1536
   14CHTO   O54 5646   4.539   6.726   5.344  0.3364 -0.3734 -0.0808
   14CHTO  H133 5647   4.523   6.779   5.419  1.8661  0.7624 -0.5317
   14CHTO   C75 5648   4.608   6.504   5.252 -0.4704  0.4143  0.0056
   14CHTO  H147 5649   4.639   6.405   5.288  1.4018  1.1780  0.5783
   14CHTO   N13 5650   4.499   6.497   5.153 -0.2082 -0.1336  0.2701
   14CHTO  H139 5651   4.424   6.433   5.197 -0.9761 -0.1148 -0.9921
   14CHTO  H140 5652   4.539   6.448   5.064  2.0113  1.2545  0.4695
   14CHTO   C76 5653   4.746   6.570   5.191  0.5151 -0.8026  0.3222
   14CHTO  H148 5654   4.734   6.676   5.169  3.3623 -0.4438  0.3162
   14CHTO   O49 5655   4.831   6.556   5.314  0.1852 -0.2480 -0.2166
   14CHTO   C77 5656   4.801   6.640   5.428  0.6185 -0.5102 -0.5641
   14CHTO  H149 5657   4.805   6.746   5.405  2.4747 -0.7672 -1.5494
   14CHTO   C88 5658   4.917   6.624   5.521 -0.6652 -0.1465  0.5906
   14CHTO   O58 5659   5.023   6.698   5.486 -0.5029 -0.0908  0.2008
   14CHTO  H136 5660   5.046   6.765   5.547  0.3517 -0.0091 -0.1941
   14CHTO   O51 5661   4.812   6.468   5.085  0.1615 -0.2418 -0.1996
   14CHTO   C78 5662   4.863   6.519   5.003 -0.8141  0.9838  0.2924
   14CHTO  H150 5663   4.916   6.608   5.041 -0.5933 -0.2092  2.8577
   14CHTO   C80 5664   4.767   6.554   4.887 -0.2867  0.5393  0.1824
   14CHTO  H152 5665   4.693   6.473   4.871 -0.1352  0.4395 -0.0155
   14CHTO   O55 5666   4.690   6.670   4.923 -0.0002 -0.2843 -0.3357
   14CHTO  H134 5667   4.668   6.671   5.014 -2.0127  0.0752 -0.7855
   14CHTO   C84 5668   4.834   6.581   4.741  0.1563  1.1009  0.0021
   14CHTO  H156 5669   4.883   6.678   4.743  3.4097 -0.4526 -0.2948
   14CHTO   N15 5670   4.735   6.592   4.630  0.9209  0.0279  0.3212
   14CHTO  H143 5671   4.703   6.506   4.575 -0.8799  0.8118  0.1002
   14CHTO  H144 5672   4.649   6.642   4.670  1.4127  0.5523  0.7084
   14CHTO   C87 5673   4.944   6.481   4.710 -0.1009  0.3247 -0.2727
   14CHTO  H159 5674   4.902   6.384   4.683  1.5431 -0.6782  0.6589
   14CHTO   O53 5675   5.037   6.470   4.831  0.0552 -0.2624  0.1948
   14CHTO   C82 5676   4.967   6.419   4.949 -0.0541  0.1207 -0.2818
   14CHTO  H154 5677   4.928   6.321   4.924 -0.6982  0.6722 -1.5021
   14CHTO   C89 5678   5.083   6.392   5.050 -0.3895  0.6189 -0.0895
   14CHTO   O59 5679   5.046   6.299   5.154  0.6058 -0.5310  0.0292
   14CHTO  H137 5680   5.072   6.322   5.241 -0.5130 -1.4425  0.6121
   14CHTO   O45 5681   5.032   6.528   4.599  0.1441  0.2150  0.2368
   14CHTO   C67 5682   5.093   6.431   4.504  0.3333 -0.6009  0.1539
   14CHTO  H124 5683   5.112   6.331   4.543 -0.2582 -1.1986 -1.0458
   14CHTO   C65 5684   5.011   6.419   4.369  0.2164 -0.5838  0.0483
   14CHTO  H122 5685   4.917   6.459   4.408  0.3165  0.1710 -0.4788
   14CHTO   O44 5686   5.001   6.272   4.341 -0.0972 -0.3101 -0.0338
   14CHTO  H102 5687   4.957   6.252   4.261 -0.4793 -2.1836  0.6094
   14CHTO   C63 5688   5.065   6.514   4.255 -0.3915 -0.9752 -0.1403
   14CHTO  H120 5689   5.068   6.617   4.293 -3.7450 -1.9217  3.0615
   14CHTO   N11 5690   4.964   6.531   4.150 -0.2837  0.1264  0.3839
   14CHTO  H108 5691   4.976   6.459   4.072  2.1930 -0.9270  1.6753
   14CHTO  H109 5692   4.869   6.532   4.200 -2.7657 -0.1413 -4.0884
   14CHTO   C61 5693   5.217   6.472   4.222 -0.2765 -0.4552 -0.0088
   14CHTO  H118 5694   5.260   6.561   4.173 -3.1705  0.3401 -1.2300
   14CHTO   O40 5695   5.296   6.453   4.339  0.4765  0.4018  0.0355
   14CHTO   C68 5696   5.240   6.496   4.470  0.1585 -0.5088  0.9059
   14CHTO  H125 5697   5.235   6.606   4.461  2.9904 -0.4036  0.2361
   14CHTO   C72 5698   5.333   6.466   4.589  0.5144  0.0962 -0.7020
   14CHTO   O48 5699   5.287   6.498   4.717 -0.4129  0.4047  0.0834
   14CHTO  H105 5700   5.312   6.423   4.766  0.7339  0.7828  0.0961
   14CHTO   O38 5701   5.233   6.345   4.151  0.2597 -0.2362  0.2165
   14CHTO   C55 5702   5.247   6.351   4.007  1.0571 -0.7452 -0.7168
   14CHTO  H112 5703   5.214   6.450   3.973 -1.5948 -1.3258  0.0603
   14CHTO   C56 5704   5.163   6.240   3.930  0.3253  0.5895  0.5593
   14CHTO  H113 5705   5.169   6.152   3.996 -0.3141 -2.5603 -3.4028
   14CHTO   O42 5706   5.027   6.279   3.936  0.8474  0.2587  0.2017
   14CHTO  H100 5707   4.975   6.201   3.947 -0.1891  1.1472  1.8667
   14CHTO   C57 5708   5.201   6.209   3.779 -0.2013 -0.1544  0.3819
   14CHTO  H114 5709   5.159   6.275   3.704 -0.2019 -0.1761  0.3628
   14CHTO   N10 5710   5.146   6.076   3.738 -0.2523  0.0201  0.4451
   14CHTO  H106 5711   5.105   6.082   3.638  2.2419  1.1181 -0.5602
   14CHTO  H107 5712   5.226   6.003   3.733  0.4479  0.6910  1.5267
   14CHTO   C58 5713   5.360   6.210   3.767 -0.4237  0.3054 -0.1388
   14CHTO  H115 5714   5.404   6.121   3.817  0.7702  0.8206 -0.2505
   14CHTO   O37 5715   5.413   6.331   3.827  0.1244 -0.5864 -0.1071
   14CHTO   C59 5716   5.391   6.341   3.967  0.0936 -0.1762  0.0050
   14CHTO  H116 5717   5.435   6.260   4.025 -0.0331 -1.0513 -1.1026
   14CHTO   C70 5718   5.461   6.468   4.014  0.4004  0.0347  0.3545
   14CHTO   O46 5719   5.601   6.441   3.992  0.1091  0.0142 -0.4318
   14CHTO  H103 5720   5.625   6.372   4.052  0.4389  1.1299  0.7324
   14CHTO   O39 5721   5.390   6.197   3.599 -0.8875 -0.3106 -0.0836
   14CHTO   C60 5722   5.527   6.174   3.561 -0.0225  0.2758  0.3954
   14CHTO  H117 5723   5.524   6.140   3.458 -0.2750 -1.4622  0.9623
   14CHTO   C62 5724   5.618   6.303   3.563 -0.6823  0.1350  0.4991
   14CHTO  H119 5725   5.552   6.368   3.502  0.9173 -1.2478 -2.8294
   14CHTO   O43 5726   5.649   6.352   3.691 -0.8689 -0.4442 -0.8201
   14CHTO  H101 5727   5.740   6.364   3.708 -1.5344  1.3235  1.7690
   14CHTO   C66 5728   5.746   6.273   3.469  0.6480 -0.0733  0.0070
   14CHTO  H123 5729   5.712   6.234   3.373 -3.5253 -0.7405  1.6614
   14CHTO   N12 5730   5.807   6.406   3.435  0.4682 -0.2350 -0.4674
   14CHTO  H110 5731   5.733   6.478   3.404 -0.0247 -1.2903 -1.7790
   14CHTO  H111 5732   5.870   6.444   3.514 -0.7725  0.1964  0.3232
   14CHTO   C69 5733   5.840   6.166   3.531  0.3014  0.6117  0.9865
   14CHTO  H126 5734   5.893   6.211   3.618  0.3227  0.5606  1.0001
   14CHTO   O41 5735   5.770   6.050   3.569 -0.2953 -0.7611  0.8002
   14CHTO   C64 5736   5.606   6.060   3.634  0.2726 -0.2921  0.1641
   14CHTO  H121 5737   5.614   6.074   3.743  0.8895 -1.2552  0.2529
   14CHTO   C71 5738   5.539   5.921   3.622  0.2110  0.2575 -0.0694
   14CHTO   O47 5739   5.426   5.888   3.710  0.1012 -0.4146  0.5036
   14CHTO  H104 5740   5.366   5.829   3.669 -2.2515  2.1004  0.1806
   14CHTO   O34 5741   5.949   6.139   3.431 -0.0904  0.3881 -0.1649
   14CHTO   C49 5742   6.036   6.028   3.394 -0.8904 -0.2534 -0.3989
   14CHTO   H91 5743   6.111   6.009   3.470  0.3828 -1.6450 -1.9806
   14CHTO   C47 5744   6.107   6.074   3.267  0.8417  0.0393 -0.5714
   14CHTO   H89 5745   6.173   5.986   3.247 -0.3211 -0.3366 -2.9738
   14CHTO   O33 5746   6.189   6.193   3.289 -0.1014 -0.0044  0.5010
   14CHTO   H70 5747   6.250   6.203   3.219 -1.0342  2.4983  0.0215
   14CHTO   C45 5748   6.000   6.104   3.150  0.8589 -0.1136  0.7876
   14CHTO   H87 5749   5.972   6.210   3.157  0.7997  0.0567 -1.5243
   14CHTO    N8 5750   6.059   6.085   3.015  0.1759  0.5905  0.2948
   14CHTO   H75 5751   6.097   5.985   2.999 -0.2460  0.5071 -0.1966
   14CHTO   H76 5752   5.993   6.110   2.933 -2.2065  0.5626  2.1419
   14CHTO   C43 5753   5.857   6.022   3.173  0.1852 -0.3397  0.2098
   14CHTO   H85 5754   5.804   6.090   3.240 -2.7466 -0.2904 -2.0796
   14CHTO   O29 5755   5.878   5.892   3.232  0.0115 -0.0637 -0.0938
   14CHTO   C50 5756   5.954   5.896   3.358 -0.2248  0.1174 -0.4679
   14CHTO   H92 5757   5.872   5.882   3.429 -1.3080  1.6470 -1.3743
   14CHTO   C54 5758   6.036   5.763   3.377 -0.3211  0.3287  1.0147
   14CHTO   O36 5759   6.106   5.766   3.503 -0.3630  0.4311 -0.2532
   14CHTO   H72 5760   6.189   5.798   3.473 -0.7679  0.1665 -1.6672
   14CHTO   O27 5761   5.767   6.023   3.055 -0.1505  0.3656  0.7138
   14CHTO   C37 5762   5.626   6.051   3.051  0.6707 -0.3516 -0.3490
   14CHTO   H79 5763   5.587   6.003   2.960  0.8351 -0.0113 -0.6013
   14CHTO   C38 5764   5.538   5.987   3.161  0.0052  0.6674  0.7874
   14CHTO   H80 5765   5.577   6.027   3.256  2.3398 -0.2242  0.2438
   14CHTO   O31 5766   5.561   5.847   3.155 -0.1949  0.2534 -0.8762
   14CHTO   H68 5767   5.541   5.809   3.239 -1.0417  2.3780 -0.0842
   14CHTO   C39 5768   5.388   6.027   3.157  0.1259 -0.0564 -0.0647
   14CHTO   H81 5769   5.351   5.985   3.063  0.3931  1.9179 -1.0996
   14CHTO    N7 5770   5.300   5.976   3.259  0.1685  0.0306 -0.2833
   14CHTO   H73 5771   5.299   5.868   3.259 -0.9439  0.0356  0.2175
   14CHTO   H74 5772   5.341   5.996   3.357 -2.0347 -0.6127  0.8216
   14CHTO   C40 5773   5.385   6.185   3.155  0.3913  0.6135 -0.5973
   14CHTO   H82 5774   5.429   6.223   3.247 -1.8996  1.8676  0.0320
   14CHTO   O26 5775   5.456   6.230   3.041  0.0133  0.3775 -0.1473
   14CHTO   C41 5776   5.599   6.204   3.044 -0.3752 -0.2390  0.4910
   14CHTO   H83 5777   5.638   6.248   3.136  1.0714 -2.4166  0.9602
   14CHTO   C52 5778   5.666   6.277   2.928 -0.6548 -0.3485 -0.0530
   14CHTO   O35 5779   5.652   6.418   2.930 -0.2596 -0.1500  0.0600
   14CHTO   H71 5780   5.566   6.450   2.950  1.1214  2.0081  2.8900
   14CHTO   O28 5781   5.251   6.232   3.138 -0.7635 -0.0449 -0.2011
   14CHTO   C42 5782   5.226   6.366   3.192 -0.8815 -0.0641  0.1507
   14CHTO   H84 5783   5.126   6.391   3.157 -1.4060  0.1223  1.7517
   14CHTO   C44 5784   5.319   6.483   3.139 -0.3643  0.0420  0.2426
   14CHTO   H86 5785   5.422   6.448   3.138 -0.2924  0.2245  0.9784
   14CHTO   O32 5786   5.301   6.500   2.994  0.0814  0.0272 -0.0779
   14CHTO   H69 5787   5.349   6.574   2.962 -1.8537  0.9767 -0.8614
   14CHTO   C48 5788   5.299   6.612   3.222 -0.3572  0.5196  0.0038
   14CHTO   H90 5789   5.201   6.654   3.197 -0.6001  1.3589  2.2997
   14CHTO    N9 5790   5.399   6.723   3.193 -0.2655  0.1185  0.0506
   14CHTO   H77 5791   5.489   6.707   3.135  2.2594  0.1346  3.7843
   14CHTO   H78 5792   5.370   6.825   3.214  2.8061  0.8864  0.8289
   14CHTO   C51 5793   5.297   6.583   3.375 -0.3801 -0.5471 -0.6178
   14CHTO   H93 5794   5.392   6.557   3.421 -0.0518  4.1762  1.7051
   14CHTO   O30 5795   5.195   6.485   3.401  0.5309 -0.0298  0.5940
   14CHTO   C46 5796   5.210   6.365   3.348  0.0832  0.5378 -0.4913
   14CHTO   H88 5797   5.303   6.331   3.395 -1.3001 -0.3958  1.6514
   14CHTO   C53 5798   5.098   6.272   3.395  0.2652  0.1328  0.1582
   14CHTO   O72 5799   4.968   6.321   3.351  0.0248 -0.2687 -0.5642
   14CHTO  H199 5800   4.959   6.410   3.379  0.7018  0.5908 -2.9674
   14CHTO   O22 5801   5.250   6.693   3.455 -0.1220 -0.0915  0.3937
   14CHTO   C31 5802   5.310   6.725   3.591  0.3539  0.3476 -0.0445
   14CHTO   H59 5803   5.381   6.644   3.614  0.4421  0.6442  0.7388
   14CHTO   C29 5804   5.392   6.863   3.582 -0.3496 -0.2886 -0.1752
   14CHTO   H57 5805   5.324   6.934   3.533 -2.7242  0.0420  3.4427
   14CHTO   O21 5806   5.485   6.831   3.475 -0.1845 -0.0016  0.0662
   14CHTO   H37 5807   5.557   6.889   3.491 -0.3858  0.6177 -1.1789
   14CHTO   C27 5808   5.447   6.914   3.723 -0.0855 -0.0221 -0.4191
   14CHTO   H55 5809   5.523   6.843   3.757 -0.1840 -0.3796 -0.9398
   14CHTO    N5 5810   5.510   7.051   3.712 -0.3318  0.6265  0.4142
   14CHTO   H43 5811   5.436   7.126   3.736 -0.1964  0.7391  0.4840
   14CHTO   H44 5812   5.579   7.066   3.794  1.0565  3.0339 -1.1148
   14CHTO   C25 5813   5.328   6.901   3.835 -0.1249 -0.0952 -0.1542
   14CHTO   H53 5814   5.258   6.981   3.807  0.3726  0.1148 -0.7955
   14CHTO   O17 5815   5.274   6.765   3.829 -0.4650 -0.5399  0.2791
   14CHTO   C32 5816   5.211   6.733   3.702  0.2584  0.0154 -0.3004
   14CHTO   H60 5817   5.139   6.807   3.666  1.5230  0.7729 -1.2941
   14CHTO   C36 5818   5.137   6.597   3.715  1.2528 -0.1467 -0.6821
   14CHTO   O25 5819   5.000   6.613   3.764  0.1872  0.0632  0.4713
   14CHTO   H40 5820   4.951   6.544   3.724  1.1838 -0.6853  0.5248
   14CHTO   O15 5821   5.374   6.922   3.981  0.0917 -0.1991 -0.0761
   14CHTO   C19 5822   5.347   6.857   4.113  0.7173  0.4142  0.1140
   14CHTO   H47 5823   5.317   6.753   4.090  1.3678  0.4681 -1.0237
   14CHTO   C20 5824   5.469   6.865   4.209  0.3403 -0.1117 -0.7725
   14CHTO   H48 5825   5.504   6.967   4.225  1.4901 -0.3841 -1.5025
   14CHTO   O19 5826   5.583   6.801   4.153  1.3121  0.0259 -0.0245
   14CHTO   H35 5827   5.603   6.724   4.203 -0.2418  0.1889  0.8954
   14CHTO   C21 5828   5.430   6.817   4.356  0.4985  0.3059 -0.3146
   14CHTO   H49 5829   5.375   6.724   4.350  1.6187 -0.5859  2.4137
   14CHTO    N4 5830   5.533   6.810   4.455 -0.1397 -0.6862 -0.4388
   14CHTO   H41 5831   5.625   6.836   4.406 -0.6952 -0.3764 -1.3169
   14CHTO   H42 5832   5.540   6.708   4.492 -1.7175 -0.5659  0.2303
   14CHTO   C22 5833   5.302   6.898   4.396 -0.4170  0.6556 -1.0852
   14CHTO   H50 5834   5.327   7.004   4.403 -2.0581  1.0032 -0.1057
   14CHTO   O14 5835   5.198   6.871   4.304 -1.0427 -0.0699 -0.6630
   14CHTO   C23 5836   5.222   6.922   4.176 -0.4326 -0.4884  0.6013
   14CHTO   H51 5837   5.234   7.031   4.188 -1.2441 -0.3978  0.6557
   14CHTO   C34 5838   5.097   6.881   4.094  0.3388  0.1820  0.1427
   14CHTO   O23 5839   4.981   6.926   4.167  0.0554 -0.3380  0.2303
   14CHTO   H38 5840   4.904   6.878   4.144  0.1456 -0.1295 -0.5209
   14CHTO   O16 5841   5.254   6.850   4.524 -0.3865  0.2879  0.0421
   14CHTO   C24 5842   5.185   6.960   4.608  0.0339 -0.0249  0.2497
   14CHTO   H52 5843   5.172   7.053   4.553 -1.3015 -0.5224 -0.3048
   14CHTO   C26 5844   5.276   6.977   4.732  0.2375  0.5257  0.2156
   14CHTO   H54 5845   5.323   6.878   4.749  0.5988  0.3581 -1.7157
   14CHTO   O20 5846   5.399   7.040   4.700  0.6070  0.0648  0.6533
   14CHTO   H36 5847   5.416   7.038   4.608 -0.0762  0.2012  0.5247
   14CHTO   C30 5848   5.212   7.037   4.864  0.2249  0.0940 -0.1155
   14CHTO   H58 5849   5.189   7.144   4.849  4.0085  0.9266 -0.5083
   14CHTO    N6 5850   5.294   7.012   4.979  0.3790 -0.1161  0.1490
   14CHTO   H45 5851   5.337   6.913   4.990 -0.9097 -0.5428  1.5445
   14CHTO   H46 5852   5.376   7.082   4.987  0.4373 -0.0415 -1.0252
   14CHTO   C33 5853   5.065   6.979   4.886  0.7957  0.1371 -0.4838
   14CHTO   H61 5854   5.077   6.876   4.923 -1.4100  0.9235  2.5749
   14CHTO   O18 5855   4.992   6.994   4.758 -0.6303  0.3078 -0.0730
   14CHTO   C28 5856   5.049   6.907   4.655  0.2164  0.1938  0.2022
   14CHTO   H56 5857   5.065   6.804   4.686  0.5937 -0.1167 -1.0022
   14CHTO   C35 5858   4.947   6.908   4.544 -0.2932  0.1181 -0.7682
   14CHTO   O24 5859   4.958   6.798   4.454  0.0913  0.0548 -0.0496
   14CHTO   H39 5860   5.005   6.721   4.481  1.2914  0.2511 -1.5125
   14CHTO    O9 5861   4.999   7.044   4.999  0.2287 -0.0277  0.4649
   14CHTO   C13 5862   4.858   6.971   5.039 -0.8695  0.3040  0.5050
   14CHTO   H26 5863   4.863   6.861   5.026  0.7232  0.3639  0.5309
   14CHTO   C11 5864   4.740   7.039   4.958 -0.1160  0.4694 -0.3499
   14CHTO   H24 5865   4.738   6.992   4.859 -1.4654  2.4000 -1.2603
   14CHTO    O8 5866   4.757   7.180   4.939 -0.5288 -0.3532 -0.1575
   14CHTO    H3 5867   4.821   7.202   4.874 -1.3801 -0.4962 -1.0601
   14CHTO    C9 5868   4.602   7.012   5.029 -1.6833  0.2587  0.0848
   14CHTO   H22 5869   4.586   6.903   5.024 -2.7439  0.4781 -2.4800
   14CHTO    N2 5870   4.490   7.061   4.951  0.6311  0.5368  0.1746
   14CHTO   H10 5871   4.493   7.168   4.936  1.4490  0.8174  2.0982
   14CHTO   H11 5872   4.496   7.020   4.851  1.3526  3.2005 -0.9276
   14CHTO    C7 5873   4.605   7.050   5.180  0.2031 -0.2700 -0.5159
   14CHTO   H20 5874   4.589   6.953   5.232  2.9927  1.8536  4.6308
   14CHTO    O4 5875   4.733   7.087   5.221  0.1501  0.1998  0.6276
   14CHTO   C14 5876   4.833   6.992   5.191  0.0268  0.2651 -0.1135
   14CHTO   H27 5877   4.794   6.895   5.229  1.3394 -0.7491 -1.3009
   14CHTO   C18 5878   4.961   7.020   5.263 -0.0849  0.0114  0.2797
   14CHTO   O13 5879   4.946   7.016   5.405 -0.1427 -0.5391 -0.6646
   14CHTO    H7 5880   4.947   6.932   5.446 -0.9898 -0.5972 -0.7550
   14CHTO    O2 5881   4.504   7.185   5.242  0.1181  0.6348  0.2021
   14CHTO    C1 5882   4.473   7.157   5.383 -0.2748  0.8728 -0.7596
   14CHTO   H14 5883   4.534   7.073   5.422 -0.2727  1.6730  1.0101
   14CHTO    C2 5884   4.321   7.119   5.413  0.2226  0.1195 -0.2020
   14CHTO   H15 5885   4.258   7.207   5.392 -0.2589 -0.6841 -2.1622
   14CHTO    O6 5886   4.281   7.005   5.333  0.0048 -0.6588 -0.0592
   14CHTO    H1 5887   4.342   6.935   5.344 -1.3781 -2.2052 -1.8052
   14CHTO    C3 5888   4.302   7.089   5.569  0.5593 -0.4337 -0.4728
   14CHTO   H16 5889   4.350   6.993   5.592 -0.5977 -0.6511  1.1598
   14CHTO    N1 5890   4.152   7.075   5.605  0.3952 -0.2235 -0.3039
   14CHTO    H8 5891   4.109   7.170   5.576  0.4986  0.2914  1.1420
   14CHTO    H9 5892   4.155   7.067   5.713  3.3413 -3.7954 -0.5754
   14CHTO    C4 5893   4.375   7.205   5.651 -0.0691  0.0715 -0.2554
   14CHTO   H17 5894   4.309   7.292   5.645 -1.7429 -1.1353  0.2118
   14CHTO    O1 5895   4.510   7.229   5.606  0.0631  0.1254  0.0249
   14CHTO    C5 5896   4.518   7.277   5.473  0.6314  0.1497 -0.1548
   14CHTO   H18 5897   4.457   7.365   5.452  0.6204 -0.2050 -1.7377
   14CHTO   C16 5898   4.666   7.309   5.437 -0.3235  0.2239  0.1880
   14CHTO   O11 5899   4.711   7.434   5.490  0.1117  0.2468 -0.0065
   14CHTO    H5 5900   4.652   7.504   5.471 -1.0739 -0.0351  2.3529
   14CHTO    O3 5901   4.403   7.158   5.784  0.1127  0.3068  0.2649
   14CHTO    C6 5902   4.399   7.258   5.889 -0.3055 -0.5597 -0.1788
   14CHTO   H19 5903   4.406   7.361   5.855 -0.1911 -0.7213 -0.6564
   14CHTO    C8 5904   4.269   7.238   5.971  0.7301 -0.0355 -0.2343
   14CHTO   H21 5905   4.265   7.139   6.016  0.7724  0.9091  1.9342
   14CHTO    O7 5906   4.159   7.258   5.879  0.1646 -0.2370 -0.2017
   14CHTO    H2 5907   4.150   7.185   5.821  0.4054 -0.5848  0.1895
   14CHTO   C12 5908   4.270   7.347   6.090  0.0296 -0.3510 -0.2209
   14CHTO   H25 5909   4.256   7.440   6.031 -1.2931  0.3716  1.2038
   14CHTO    N3 5910   4.148   7.325   6.173  0.1999  0.0200 -0.5096
   14CHTO   H12 5911   4.165   7.260   6.258 -1.4114  0.2447  0.0107
   14CHTO   H13 5912   4.105   7.423   6.190 -0.2132 -0.0720 -1.0089
   14CHTO   C15 5913   4.402   7.349   6.173  0.3739  0.0990 -0.3350
   14CHTO   H28 5914   4.415   7.266   6.242  0.3673 -1.1399 -1.7987
   14CHTO   O10 5915   4.427   7.470   6.247 -0.4177  0.2285 -1.0946
   14CHTO    H4 5916   4.457   7.444   6.332  0.5137  0.6086 -1.3000
   14CHTO    O5 5917   4.510   7.352   6.085 -0.7002 -0.0163  0.1704
   14CHTO   C10 5918   4.518   7.240   5.997 -0.1885  0.4416  0.9124
   14CHTO   H23 5919   4.501   7.152   6.060  0.3619 -0.6874 -0.4708
   14CHTO   C17 5920   4.656   7.236   5.931  0.5896  0.2078  0.8395
   14CHTO   O12 5921   4.757   7.193   6.017 -0.0289  0.1811 -0.2479
   14CHTO    H6 5922   4.757   7.099   6.028  0.5260  0.1009 -0.8688
   15CHTO  H203 5923   5.474   5.825   4.752 -0.7785  0.6786 -0.2456
   15CHTO   O82 5924   5.458   5.797   4.664  0.1250  0.3763 -0.3271
   15CHTO  C123 5925   5.362   5.693   4.672  0.9402  0.4627  0.4572
   15CHTO  H227 5926   5.269   5.737   4.712  1.2114 -2.3689  4.4928
   15CHTO   O77 5927   5.339   5.639   4.540  0.5937  0.3551  0.0566
   15CHTO  C118 5928   5.249   5.523   4.533 -0.1671  0.0560  0.1352
   15CHTO  H222 5929   5.148   5.529   4.576  0.8446 -1.5405  2.8197
   15CHTO  C125 5930   5.237   5.480   4.378 -0.8594 -0.2094  0.1258
   15CHTO   O84 5931   5.179   5.581   4.295 -0.6768 -0.1272  0.5127
   15CHTO  H205 5932   5.249   5.596   4.234  0.4847  1.8813  2.2482
   15CHTO  C114 5933   5.320   5.412   4.612 -0.2390 -0.2298  0.1564
   15CHTO  H218 5934   5.422   5.400   4.574 -0.3352  1.5923 -0.7392
   15CHTO  C116 5935   5.332   5.457   4.754  0.0391  0.2214 -0.2950
   15CHTO  H220 5936   5.230   5.479   4.791  1.0351 -0.2247  2.8988
   15CHTO   O79 5937   5.386   5.350   4.844 -0.4160 -0.8459 -0.1542
   15CHTO  H201 5938   5.468   5.317   4.813 -1.8927 -3.9914 -0.8751
   15CHTO  C120 5939   5.418   5.585   4.772 -0.2423 -0.3451  0.1445
   15CHTO  H224 5940   5.520   5.553   4.742  0.1125 -1.2175  2.2037
   15CHTO   N21 5941   5.421   5.633   4.920  0.9212  0.3945 -0.0636
   15CHTO  H211 5942   5.322   5.668   4.944  0.6625  0.2680 -0.9441
   15CHTO  H212 5943   5.499   5.706   4.935  1.9500 -1.0558  1.8899
   15CHTO   O75 5944   5.250   5.284   4.589  0.7925 -0.6966 -0.2611
   15CHTO  C112 5945   5.354   5.141   4.583 -0.1209  0.0757  0.0532
   15CHTO  H216 5946   5.443   5.167   4.642  0.1306 -1.8565  0.5587
   15CHTO   O73 5947   5.388   5.112   4.450  0.4740 -0.2846  0.3814
   15CHTO  C113 5948   5.465   4.990   4.429 -0.0248  0.8856 -0.1570
   15CHTO  H217 5949   5.565   4.987   4.477 -0.0479  1.4867 -0.0784
   15CHTO  C124 5950   5.485   4.967   4.283 -0.1918 -0.3355 -0.5745
   15CHTO   O83 5951   5.571   5.067   4.235  0.5882 -0.1688  0.1600
   15CHTO  H204 5952   5.658   5.039   4.257 -0.1234 -1.3490  1.5770
   15CHTO  C109 5953   5.408   4.858   4.503  0.3091 -0.3835  0.0884
   15CHTO  H213 5954   5.319   4.828   4.446  2.5202 -4.3979 -1.4239
   15CHTO  C110 5955   5.366   4.889   4.644 -0.4152  0.0261  0.2428
   15CHTO  H214 5956   5.450   4.901   4.712  0.8398 -1.0506 -1.0799
   15CHTO   O78 5957   5.293   4.780   4.700 -0.6130 -0.3987  0.2048
   15CHTO  H200 5958   5.202   4.795   4.718 -0.7609 -0.7746 -0.2096
   15CHTO  C111 5959   5.279   5.018   4.652  0.7468  0.0116 -0.1874
   15CHTO  H215 5960   5.191   4.996   4.590  0.0048 -2.1597  1.5581
   15CHTO   N19 5961   5.223   5.057   4.787  0.4987 -0.1309 -0.6379
   15CHTO  H207 5962   5.116   5.070   4.789  0.0501 -3.4249 -0.3692
   15CHTO  H208 5963   5.262   4.988   4.862 -2.6898 -0.3677  0.8739
   15CHTO   O74 5964   5.507   4.749   4.499 -0.2888  0.3616  0.1673
   15CHTO  C115 5965   5.446   4.599   4.491 -0.9211 -0.2682 -0.7204
   15CHTO  H219 5966   5.357   4.585   4.553 -0.5274  0.9973  0.1310
   15CHTO   O76 5967   5.397   4.559   4.331 -0.7866 -0.4741  0.1221
   15CHTO  C122 5968   5.523   4.539   4.259  0.3781 -0.2126 -0.0122
   15CHTO  H226 5969   5.590   4.619   4.288 -0.0931 -0.6849  2.5356
   15CHTO  C126 5970   5.498   4.546   4.103  0.5430  0.0983  0.3553
   15CHTO   O85 5971   5.415   4.656   4.060  0.1388  0.2099  0.1841
   15CHTO  H206 5972   5.389   4.645   3.970 -0.8986 -0.1636  0.5149
   15CHTO  C121 5973   5.576   4.391   4.299  0.0621 -0.4886 -0.1720
   15CHTO  H225 5974   5.526   4.318   4.233  2.0851 -1.9309 -0.1658
   15CHTO   O81 5975   5.716   4.384   4.276  0.2943  0.0791  0.2301
   15CHTO  H202 5976   5.764   4.438   4.216  1.2600 -1.2022 -0.1792
   15CHTO  C119 5977   5.536   4.360   4.450  0.8053  0.6565 -0.3481
   15CHTO  H223 5978   5.433   4.326   4.455  1.3801 -1.2484 -0.9565
   15CHTO  C117 5979   5.558   4.493   4.538  0.4164 -0.9240  0.5418
   15CHTO  H221 5980   5.651   4.546   4.523 -0.1673 -0.4641 -1.5554
   15CHTO   N20 5981   5.543   4.473   4.690 -0.4149 -0.1807  0.1153
   15CHTO  H209 5982   5.576   4.566   4.734 -0.3335 -0.2742  0.2520
   15CHTO  H210 5983   5.439   4.449   4.708 -0.0035 -1.6412  0.6070
   15CHTO   O80 5984   5.611   4.239   4.497 -0.1814 -0.1840 -0.0233
   15CHTO  C103 5985   5.543   4.107   4.537 -0.0324 -0.2868 -0.0379
   15CHTO  H190 5986   5.620   4.053   4.592 -1.3737 -1.8187  0.3727
   15CHTO  C101 5987   5.419   4.101   4.624  0.3545  0.1293  0.0934
   15CHTO  H188 5988   5.346   4.174   4.590  0.0532 -0.5507 -0.7425
   15CHTO   O68 5989   5.455   4.133   4.772  0.1245 -0.0970  0.4313
   15CHTO  H168 5990   5.375   4.117   4.818 -0.5758 -0.5067 -0.8975
   15CHTO   C99 5991   5.354   3.947   4.624  0.4300  0.0934  0.2692
   15CHTO  H186 5992   5.431   3.877   4.661 -0.5082 -1.6274 -0.9914
   15CHTO   N17 5993   5.231   3.924   4.705  0.2521 -0.6409  0.1140
   15CHTO  H174 5994   5.263   3.925   4.808 -0.3950  0.6988  0.3117
   15CHTO  H175 5995   5.171   4.012   4.687  3.5008  1.8368  1.0480
   15CHTO   C97 5996   5.327   3.908   4.475 -0.0076 -0.8805  0.4499
   15CHTO  H184 5997   5.261   3.989   4.441  1.1207  0.2706  0.9914
   15CHTO   O64 5998   5.455   3.906   4.406  0.0392 -0.3858 -0.8154
   15CHTO  C104 5999   5.525   4.030   4.395  0.0511  0.0406 -0.6416
   15CHTO  H191 6000   5.473   4.097   4.326 -0.3429 -0.3718 -0.7469
   15CHTO  C108 6001   5.660   3.996   4.333 -0.4674  0.0007 -0.3897
   15CHTO   O71 6002   5.718   3.898   4.424  0.0244 -0.0558  0.5040
   15CHTO  H171 6003   5.807   3.879   4.399  0.1618  0.3262  0.7128
   15CHTO   O62 6004   5.257   3.782   4.456  0.3197  0.3338 -0.0252
   15CHTO   C91 6005   5.135   3.792   4.378 -0.2066  0.1432  0.0569
   15CHTO  H178 6006   5.098   3.893   4.393  0.8085  0.1848  2.4553
   15CHTO   C92 6007   5.035   3.697   4.450  0.2904  0.2154 -0.9786
   15CHTO  H179 6008   5.050   3.680   4.558 -0.2138  2.0421 -0.6187
   15CHTO   O66 6009   4.909   3.749   4.429  0.2629 -0.1437 -0.4450
   15CHTO  H166 6010   4.872   3.793   4.503 -1.8725 -1.6629 -0.5547
   15CHTO   C93 6011   5.036   3.554   4.381 -0.1841  0.4067 -0.1200
   15CHTO  H180 6012   4.958   3.491   4.425 -0.6572 -0.0076 -1.5306
   15CHTO   N16 6013   5.147   3.466   4.421  0.2135 -0.0729 -0.0734
   15CHTO  H172 6014   5.236   3.520   4.450  1.1631 -1.9708  0.6229
   15CHTO  H173 6015   5.169   3.387   4.352 -0.8981 -0.9562  0.5531
   15CHTO   C94 6016   5.014   3.560   4.221  0.0422 -0.2540 -0.6986
   15CHTO  H181 6017   5.072   3.482   4.172  0.2923  0.6672 -1.8861
   15CHTO   O61 6018   5.047   3.688   4.162 -0.5351 -0.1373 -0.4687
   15CHTO   C95 6019   5.153   3.758   4.222  0.2624 -0.3736  0.0708
   15CHTO  H182 6020   5.244   3.700   4.208 -0.9643 -2.2006 -0.4476
   15CHTO  C106 6021   5.174   3.888   4.155  0.2083 -0.4858  0.4316
   15CHTO   O69 6022   5.295   3.950   4.190  0.6081  0.2257  0.0487
   15CHTO  H169 6023   5.298   4.035   4.150 -0.6322 -0.3111 -1.2181
   15CHTO   O63 6024   4.863   3.529   4.201  0.2061 -0.4612 -0.1485
   15CHTO   C96 6025   4.817   3.486   4.067  0.1894  0.0151  0.9395
   15CHTO  H183 6026   4.910   3.466   4.013 -0.5558  1.4994 -0.9387
   15CHTO   C98 6027   4.753   3.593   3.980  0.0440 -0.9969 -0.4730
   15CHTO  H185 6028   4.662   3.633   4.026  0.1174  0.9320 -1.9119
   15CHTO   O67 6029   4.844   3.707   3.966 -0.0655  0.7346 -0.0831
   15CHTO  H167 6030   4.819   3.777   4.023 -3.5283 -0.2027 -0.2943
   15CHTO  C102 6031   4.713   3.533   3.836  0.4744  0.6502 -0.1457
   15CHTO  H189 6032   4.809   3.511   3.787  0.4098 -0.6534  0.2849
   15CHTO   N18 6033   4.638   3.628   3.749 -0.1826  0.3014 -0.0082
   15CHTO  H176 6034   4.615   3.588   3.652 -0.6655  0.9526 -0.1682
   15CHTO  H177 6035   4.680   3.727   3.742  1.0525 -0.2644 -0.6991
   15CHTO  C105 6036   4.631   3.396   3.850  0.5693 -0.0959  0.2718
   15CHTO  H192 6037   4.529   3.423   3.874  0.5373 -0.8160  0.9676
   15CHTO   O65 6038   4.684   3.308   3.948  0.2395 -0.4470 -0.2128
   15CHTO  C100 6039   4.717   3.366   4.075 -0.0449  0.0448  0.7969
   15CHTO  H187 6040   4.626   3.406   4.122  1.1650  1.1990  2.1902
   15CHTO  C107 6041   4.771   3.250   4.165 -0.7228 -0.0764  0.1230
   15CHTO   O70 6042   4.665   3.158   4.199 -0.2484 -0.3732 -0.8209
   15CHTO  H170 6043   4.699   3.092   4.256  0.8929  0.4168 -0.5715
   15CHTO   O57 6044   4.629   3.329   3.701  0.3988  0.2617 -0.2947
   15CHTO   C85 6045   4.550   3.205   3.680  0.0536  0.0397  0.6481
   15CHTO  H157 6046   4.498   3.178   3.774  0.5280  0.2339  0.9681
   15CHTO   C83 6047   4.652   3.092   3.653  0.6566 -0.3301  0.5473
   15CHTO  H155 6048   4.715   3.081   3.741  1.2597 -0.5458  0.0886
   15CHTO   O56 6049   4.735   3.128   3.543  0.0855  0.5646  0.1718
   15CHTO  H135 6050   4.682   3.134   3.465  0.5828  0.8735 -0.1466
   15CHTO   C81 6051   4.563   2.959   3.636  1.0586  0.3726  0.1303
   15CHTO  H153 6052   4.497   2.947   3.722 -0.9052 -1.3092 -1.5833
   15CHTO   N14 6053   4.644   2.835   3.636  0.6557  0.5218 -0.1339
   15CHTO  H141 6054   4.581   2.749   3.629  2.0509 -0.3507 -2.4665
   15CHTO  H142 6055   4.692   2.827   3.732 -2.2954 -1.8433  1.2215
   15CHTO   C79 6056   4.466   2.970   3.510  0.5406 -0.1362 -0.2488
   15CHTO  H151 6057   4.393   2.890   3.520 -1.4193  1.4150 -1.7332
   15CHTO   O52 6058   4.377   3.093   3.520  0.2510 -0.1490 -0.1765
   15CHTO   C86 6059   4.447   3.220   3.556  0.4275 -0.6392 -0.0495
   15CHTO  H158 6060   4.493   3.246   3.459 -2.4644  0.3421 -1.2269
   15CHTO   C90 6061   4.339   3.330   3.589  0.1467  0.2412 -0.2047
   15CHTO   O60 6062   4.323   3.417   3.473 -0.9513 -0.1503  0.0790
   15CHTO  H138 6063   4.402   3.431   3.424 -1.7157  2.1142 -0.5909
   15CHTO   O50 6064   4.533   2.964   3.382  0.6406 -0.4944  0.0003
   15CHTO   C73 6065   4.470   2.931   3.257 -0.4640 -0.4601 -0.2914
   15CHTO  H145 6066   4.374   2.983   3.244 -0.1194  0.4461  0.7180
   15CHTO   C74 6067   4.445   2.778   3.248 -0.2946  0.5316  0.2567
   15CHTO  H146 6068   4.381   2.731   3.324  2.0564 -2.4514  0.5186
   15CHTO   O54 6069   4.371   2.757   3.131  0.7343 -0.0657 -0.4069
   15CHTO  H133 6070   4.417   2.775   3.051  0.9444 -2.6050 -0.8801
   15CHTO   C75 6071   4.583   2.697   3.236  0.0201 -0.4530  0.2958
   15CHTO  H147 6072   4.634   2.704   3.333 -0.2066 -1.2330  0.4774
   15CHTO   N13 6073   4.577   2.547   3.218 -0.1292  0.7621  0.5793
   15CHTO  H139 6074   4.519   2.520   3.131 -0.2666 -0.0908  0.9274
   15CHTO  H140 6075   4.532   2.496   3.302  2.9008 -1.5737  0.8456
   15CHTO   C76 6076   4.693   2.759   3.138  0.2555 -0.1108 -0.1636
   15CHTO  H148 6077   4.666   2.736   3.035 -1.8889  0.4543  0.2594
   15CHTO   O49 6078   4.699   2.900   3.140  0.1950 -0.3477 -0.0572
   15CHTO   C77 6079   4.577   2.982   3.145 -0.5273  0.0090 -0.0993
   15CHTO  H149 6080   4.532   2.972   3.047 -2.4987 -1.8288  0.9440
   15CHTO   C88 6081   4.607   3.131   3.162  0.1488  0.1079 -0.2395
   15CHTO   O58 6082   4.717   3.178   3.071  0.6866  0.1090  0.2533
   15CHTO  H136 6083   4.680   3.240   3.011  2.6257  2.2671  1.1748
   15CHTO   O51 6084   4.848   2.700   3.168 -0.5552  0.0384 -0.2070
   15CHTO   C78 6085   4.957   2.733   3.050  0.1910  0.0355 -0.0085
   15CHTO  H150 6086   4.900   2.790   2.974 -0.8394 -0.5722  0.2947
   15CHTO   C80 6087   5.005   2.597   2.987  0.6578  0.1055 -0.5622
   15CHTO  H152 6088   5.061   2.541   3.063 -1.5429 -0.7997  0.4316
   15CHTO   O55 6089   4.890   2.524   2.943  0.1654 -0.1735  0.8040
   15CHTO  H134 6090   4.914   2.442   2.904 -0.0016  0.0821  0.1613
   15CHTO   C84 6091   5.104   2.642   2.871  0.3383  0.1776  1.1320
   15CHTO  H156 6092   5.048   2.716   2.812  0.2745 -0.5432  0.2734
   15CHTO   N15 6093   5.147   2.521   2.786  0.2488 -0.1744 -0.6401
   15CHTO  H143 6094   5.236   2.484   2.833 -0.8458 -2.5282 -0.3494
   15CHTO  H144 6095   5.174   2.558   2.690 -2.1702  1.7833 -0.6227
   15CHTO   C87 6096   5.226   2.724   2.925  0.6013  0.9523 -0.2224
   15CHTO  H159 6097   5.273   2.655   2.995  0.4946  2.3784  1.2659
   15CHTO   O53 6098   5.163   2.850   2.989  0.1302  0.4057  0.5041
   15CHTO   C82 6099   5.074   2.821   3.095  0.2765  0.2520  0.3294
   15CHTO  H154 6100   5.128   2.766   3.172 -0.8031 -0.8507  0.3214
   15CHTO   C89 6101   5.014   2.951   3.161 -0.0303 -0.0326  0.2774
   15CHTO   O59 6102   4.956   2.929   3.290  0.1317  0.0352  0.1402
   15CHTO  H137 6103   4.997   2.988   3.349  0.5215  0.2428 -0.3337
   15CHTO   O45 6104   5.332   2.766   2.806  0.3771  0.8785 -0.0039
   15CHTO   C67 6105   5.457   2.825   2.847  0.7042  0.5114  0.1843
   15CHTO  H124 6106   5.432   2.879   2.938  3.4779  0.1385  1.2094
   15CHTO   C65 6107   5.573   2.723   2.881  0.2246 -0.1799  0.3700
   15CHTO  H122 6108   5.540   2.631   2.831 -1.8802  0.7623 -0.0311
   15CHTO   O44 6109   5.562   2.700   3.020  0.3911 -0.6521  0.7067
   15CHTO  H102 6110   5.476   2.706   3.056 -0.0922  0.7152 -0.6326
   15CHTO   C63 6111   5.711   2.754   2.813 -0.0851  0.1500 -0.1729
   15CHTO  H120 6112   5.702   2.734   2.706 -2.1731  0.6697 -0.1167
   15CHTO   N11 6113   5.816   2.656   2.855 -0.3588 -0.1838 -0.0777
   15CHTO  H108 6114   5.801   2.551   2.865 -1.8932  0.0934  0.6221
   15CHTO  H109 6115   5.898   2.660   2.786  0.4239  0.5050  0.8735
   15CHTO   C61 6116   5.733   2.907   2.813  0.8535  0.6463  0.5710
   15CHTO  H118 6117   5.831   2.926   2.766  0.6340  1.6465  0.5068
   15CHTO   O40 6118   5.626   2.987   2.740 -0.9692 -0.5920 -0.0534
   15CHTO   C68 6119   5.494   2.938   2.740 -0.3319 -0.0332 -0.5770
   15CHTO  H125 6120   5.479   2.908   2.634 -0.7012 -0.5745 -0.3734
   15CHTO   C72 6121   5.408   3.065   2.754 -0.3911 -0.1745 -0.1068
   15CHTO   O48 6122   5.271   3.043   2.767 -0.6727  0.2429 -0.1504
   15CHTO  H105 6123   5.241   3.029   2.679 -0.6178 -0.3556 -0.0716
   15CHTO   O38 6124   5.741   2.953   2.946  0.8467  0.1257  0.5104
   15CHTO   C55 6125   5.735   3.094   2.983  0.0893 -0.0190  0.0493
   15CHTO  H112 6126   5.661   3.146   2.920  2.6539  1.9245 -1.4047
   15CHTO   C56 6127   5.877   3.167   2.980 -0.2586 -0.6763  0.0930
   15CHTO  H113 6128   5.949   3.100   3.030 -2.0402 -1.1564  2.0794
   15CHTO   O42 6129   5.921   3.177   2.841  0.3582 -0.7471 -0.0809
   15CHTO  H100 6130   5.858   3.165   2.773 -0.1922  1.9705 -0.1199
   15CHTO   C57 6131   5.880   3.309   3.046  0.4917 -0.3127 -0.1039
   15CHTO  H114 6132   5.850   3.382   2.970 -0.7566 -0.7269 -0.0169
   15CHTO   N10 6133   6.016   3.359   3.078  0.9712  0.5205 -0.0283
   15CHTO  H106 6134   5.996   3.447   3.137 -0.4145  0.7602 -0.8414
   15CHTO  H107 6135   6.077   3.389   2.994  1.8165  0.7852  0.6700
   15CHTO   C58 6136   5.788   3.306   3.172  0.1599 -0.6062 -0.0102
   15CHTO  H115 6137   5.837   3.247   3.252  2.7943  2.1494  0.4909
   15CHTO   O37 6138   5.660   3.246   3.149 -0.2064  0.7698 -0.8798
   15CHTO   C59 6139   5.675   3.103   3.125 -0.0090 -0.1994  0.1360
   15CHTO  H116 6140   5.750   3.060   3.192  0.8173  0.2837 -0.4714
   15CHTO   C70 6141   5.537   3.031   3.132 -0.8602  0.3142  0.3130
   15CHTO   O46 6142   5.500   3.031   3.268 -0.1339  0.0391  0.1240
   15CHTO  H103 6143   5.449   3.107   3.286 -0.2593 -0.2002  0.7741
   15CHTO   O39 6144   5.769   3.459   3.240 -0.4184 -0.4877 -0.3899
   15CHTO   C60 6145   5.755   3.461   3.383 -0.1027 -0.5251  0.4149
   15CHTO  H117 6146   5.698   3.373   3.412 -0.6704 -0.5200 -0.6451
   15CHTO   C62 6147   5.888   3.441   3.452 -0.8040 -0.1895 -0.4242
   15CHTO  H119 6148   5.921   3.338   3.427 -0.1877  0.4935 -2.4950
   15CHTO   O43 6149   5.986   3.534   3.409  0.5457 -0.5740 -0.1318
   15CHTO  H101 6150   5.963   3.560   3.322  0.3440 -1.5784 -0.3781
   15CHTO   C66 6151   5.860   3.442   3.611  0.3219  0.3053  0.0095
   15CHTO  H123 6152   5.797   3.356   3.635 -0.1283  0.9064  1.0294
   15CHTO   N12 6153   5.980   3.425   3.703  0.2574 -0.4858 -0.4336
   15CHTO  H110 6154   5.986   3.493   3.787  1.0937  1.9193 -2.3992
   15CHTO  H111 6155   6.077   3.418   3.655  0.8761  2.2449  0.3068
   15CHTO   C69 6156   5.782   3.576   3.653 -0.6332 -0.2876  0.5788
   15CHTO  H126 6157   5.832   3.675   3.649  1.8318 -1.5356 -0.4741
   15CHTO   O41 6158   5.656   3.581   3.577  0.1819  0.3223 -0.1573
   15CHTO   C64 6159   5.679   3.595   3.435 -0.0978 -0.1524 -0.2249
   15CHTO  H121 6160   5.742   3.685   3.421 -0.5068  0.1643 -0.0412
   15CHTO   C71 6161   5.554   3.628   3.352 -1.0080 -0.0520 -0.3578
   15CHTO   O47 6162   5.451   3.537   3.392  0.0477  0.0071  0.6145
   15CHTO  H104 6163   5.407   3.507   3.314 -0.2598  0.3575  0.6538
   15CHTO   O34 6164   5.725   3.559   3.790  0.4165  0.5485 -0.0114
   15CHTO   C49 6165   5.706   3.683   3.900  0.4721 -0.0714 -1.1683
   15CHTO   H91 6166   5.795   3.744   3.915  0.5763 -0.4033 -0.4042
   15CHTO   C47 6167   5.672   3.606   4.035  0.1212  0.3692  0.3541
   15CHTO   H89 6168   5.669   3.683   4.115 -1.1218 -0.5000  1.1707
   15CHTO   O33 6169   5.771   3.506   4.071 -0.5607  0.0556 -0.3187
   15CHTO   H70 6170   5.785   3.444   4.002 -2.7317 -1.3411  0.4653
   15CHTO   C45 6171   5.528   3.526   4.019  0.4158 -0.3324 -0.6240
   15CHTO   H87 6172   5.547   3.424   3.984 -0.3982 -0.8308  0.3283
   15CHTO    N8 6173   5.466   3.520   4.155 -0.0094 -0.5661  0.6853
   15CHTO   H75 6174   5.480   3.419   4.188  0.4374 -0.3147  1.2765
   15CHTO   H76 6175   5.362   3.546   4.142  0.1102 -0.6068 -0.4067
   15CHTO   C43 6176   5.444   3.588   3.901  0.7015  0.2650  0.4569
   15CHTO   H85 6177   5.492   3.546   3.813  3.4792 -0.8280  2.4318
   15CHTO   O29 6178   5.451   3.725   3.905  0.1703  0.0862 -0.7359
   15CHTO   C50 6179   5.584   3.778   3.878 -0.6166  0.3256  0.3541
   15CHTO   H92 6180   5.579   3.811   3.773  0.2206  0.2951  0.3071
   15CHTO   C54 6181   5.603   3.905   3.967 -0.2127  0.2728  0.8726
   15CHTO   O36 6182   5.719   3.997   3.961 -0.1695 -0.4330 -0.1888
   15CHTO   H72 6183   5.712   4.060   4.030 -1.2839  0.3957 -1.0268
   15CHTO   O27 6184   5.303   3.547   3.898 -0.1711  0.1934 -0.5581
   15CHTO   C37 6185   5.241   3.472   3.790  0.2305 -0.0024 -0.8137
   15CHTO   H79 6186   5.312   3.445   3.711  1.1290 -1.5563  0.5033
   15CHTO   C38 6187   5.184   3.344   3.851  1.7554  0.2390  0.5258
   15CHTO   H80 6188   5.114   3.375   3.930  0.4775  0.4015 -0.6387
   15CHTO   O31 6189   5.292   3.267   3.908 -0.2048  0.5735 -0.6164
   15CHTO   H68 6190   5.317   3.299   3.993  0.6985 -3.6784  0.8520
   15CHTO   C39 6191   5.108   3.259   3.747  0.0573  0.1277  0.6126
   15CHTO   H81 6192   5.184   3.221   3.679  0.0275 -2.4416  1.9488
   15CHTO    N7 6193   5.032   3.145   3.807  0.1165 -0.0014  0.2206
   15CHTO   H73 6194   5.081   3.052   3.782  1.2263  0.8792 -0.9254
   15CHTO   H74 6195   4.935   3.138   3.760 -0.3280  1.4475  0.8888
   15CHTO   C40 6196   5.013   3.350   3.655  0.1197  0.3958  0.3188
   15CHTO   H82 6197   4.920   3.368   3.708  0.1934  1.3414  0.1286
   15CHTO   O26 6198   5.072   3.476   3.616  0.6502  0.4227  0.3445
   15CHTO   C41 6199   5.126   3.556   3.734  0.8442 -0.3140 -0.0257
   15CHTO   H83 6200   5.046   3.576   3.807 -0.1256 -1.2431 -0.8090
   15CHTO   C52 6201   5.169   3.689   3.668  0.4607  0.2937  0.7455
   15CHTO   O35 6202   5.160   3.807   3.765 -0.0121 -0.0696 -0.4701
   15CHTO   H71 6203   5.115   3.882   3.732  2.1158  0.7228 -1.7291
   15CHTO   O28 6204   4.966   3.277   3.538 -0.1547 -0.2846 -0.4166
   15CHTO   C42 6205   4.995   3.296   3.397  0.5217  0.1009 -0.2283
   15CHTO   H84 6206   4.939   3.223   3.339 -2.3617  2.2042 -0.1923
   15CHTO   C44 6207   5.145   3.286   3.355 -0.0557  0.2988  0.1568
   15CHTO   H86 6208   5.200   3.365   3.405  0.4260  0.2253 -0.2538
   15CHTO   O32 6209   5.208   3.171   3.399  0.0684  0.0429  0.0538
   15CHTO   H69 6210   5.172   3.092   3.364  2.3014 -0.6546 -0.7714
   15CHTO   C48 6211   5.155   3.313   3.199 -0.1893  0.0142 -0.2018
   15CHTO   H90 6212   5.116   3.235   3.133  2.7266 -1.3721 -0.3845
   15CHTO    N9 6213   5.292   3.332   3.149  0.2405 -0.1204 -0.2112
   15CHTO   H77 6214   5.358   3.361   3.229  0.2278  1.6284 -0.8276
   15CHTO   H78 6215   5.319   3.228   3.133 -1.5545 -0.6714  0.1698
   15CHTO   C51 6216   5.061   3.430   3.141  0.0409 -0.2159 -0.2177
   15CHTO   H93 6217   5.101   3.530   3.161  0.3992  0.5467 -4.4190
   15CHTO   O30 6218   4.927   3.413   3.199 -0.3698 -0.5383 -0.0059
   15CHTO   C46 6219   4.935   3.428   3.353  0.6315  0.3485  0.0747
   15CHTO   H88 6220   5.000   3.513   3.375 -1.0556  2.5498 -3.0489
   15CHTO   C53 6221   4.785   3.461   3.396  0.3616  0.8665 -0.4577
   15CHTO   O72 6222   4.732   3.578   3.334 -0.5933  0.6118  0.5300
   15CHTO  H199 6223   4.772   3.597   3.251  1.3646  1.3532  1.6167
   15CHTO   O22 6224   5.026   3.424   3.000 -0.2932 -0.1520  0.5397
   15CHTO   C31 6225   4.991   3.532   2.913 -0.2090 -0.5563 -0.4127
   15CHTO   H59 6226   4.992   3.491   2.810 -1.5961  0.8311 -1.0103
   15CHTO   C29 6227   4.848   3.582   2.934  0.1421 -0.1205 -0.5946
   15CHTO   H57 6228   4.832   3.608   3.040 -1.1212  1.0704 -1.0633
   15CHTO   O21 6229   4.760   3.474   2.918 -0.2217  0.2840  0.1235
   15CHTO   H37 6230   4.735   3.473   2.828  1.4423  1.5116 -0.3655
   15CHTO   C27 6231   4.811   3.714   2.844  0.2314  0.2783  0.0890
   15CHTO   H55 6232   4.809   3.678   2.740 -2.2717 -2.3370  0.9745
   15CHTO    N5 6233   4.681   3.772   2.872 -0.4689 -0.2487  0.9094
   15CHTO   H43 6234   4.680   3.825   2.966  0.6647  0.0126  0.7847
   15CHTO   H44 6235   4.648   3.841   2.796  0.5882 -1.2050 -0.4387
   15CHTO   C25 6236   4.926   3.824   2.870  0.0787  0.0927 -0.0857
   15CHTO   H53 6237   4.932   3.849   2.977 -1.7914 -0.2403  0.0999
   15CHTO   O17 6238   5.055   3.763   2.832  0.1699  0.7760 -0.0747
   15CHTO   C32 6239   5.097   3.652   2.915  0.8489 -0.6597 -0.0201
   15CHTO   H60 6240   5.111   3.685   3.018  2.0652  3.3961 -1.3980
   15CHTO   C36 6241   5.227   3.613   2.851 -0.1944 -0.4142  0.1986
   15CHTO   O25 6242   5.337   3.606   2.945  0.8232  0.6075  0.9458
   15CHTO   H40 6243   5.411   3.600   2.887  0.7567 -0.5056  0.9690
   15CHTO   O15 6244   4.900   3.960   2.794  0.3868 -0.2592 -0.4870
   15CHTO   C19 6245   4.952   4.102   2.822  0.2800 -0.7031  0.0762
   15CHTO   H47 6246   4.938   4.159   2.729  1.1710 -0.7720 -0.0974
   15CHTO   C20 6247   4.875   4.169   2.942  0.1618 -0.1220 -0.6477
   15CHTO   H48 6248   4.887   4.116   3.038 -0.8219  0.5603 -0.1339
   15CHTO   O19 6249   4.735   4.177   2.899  0.2692  0.1133 -0.5427
   15CHTO   H35 6250   4.732   4.223   2.817  0.1921  0.6178 -0.2567
   15CHTO   C21 6251   4.929   4.322   2.979 -0.7833  0.1792 -0.2912
   15CHTO   H49 6252   4.907   4.391   2.897  2.1927 -0.1503 -1.4086
   15CHTO    N4 6253   4.850   4.384   3.089  0.1735  0.1612 -0.6593
   15CHTO   H41 6254   4.883   4.485   3.110 -0.4651 -0.2190  2.5003
   15CHTO   H42 6255   4.868   4.321   3.175 -0.0072  1.5243  0.3910
   15CHTO   C22 6256   5.078   4.309   3.010 -0.2238 -0.4364  0.0479
   15CHTO   H50 6257   5.083   4.240   3.095 -0.6637 -1.6999 -0.9378
   15CHTO   O14 6258   5.143   4.252   2.893  0.4543  0.1324 -0.6915
   15CHTO   C23 6259   5.109   4.113   2.849 -0.5700 -1.2300  0.8453
   15CHTO   H51 6260   5.143   4.049   2.933 -3.1276 -0.3126  2.6692
   15CHTO   C34 6261   5.190   4.066   2.725  0.0768  0.4304  0.0854
   15CHTO   O23 6262   5.331   4.091   2.742 -0.4584 -0.1691  0.0433
   15CHTO   H38 6263   5.379   4.020   2.704 -1.1605 -0.3452 -0.5190
   15CHTO   O16 6264   5.120   4.444   3.035  0.6277  0.5605 -0.2052
   15CHTO   C24 6265   5.253   4.437   3.128 -0.4458  0.4050 -0.4784
   15CHTO   H52 6266   5.294   4.336   3.132 -0.5766  0.3202 -1.2370
   15CHTO   C26 6267   5.218   4.482   3.271 -0.1400  0.3886  0.5638
   15CHTO   H54 6268   5.175   4.584   3.270  0.5157  0.6631  0.1375
   15CHTO   O20 6269   5.114   4.396   3.329  0.2768 -0.3241  0.1727
   15CHTO   H36 6270   5.142   4.309   3.306  0.3432  0.4616 -2.9742
   15CHTO   C30 6271   5.352   4.477   3.356  0.5504 -0.5288  0.3371
   15CHTO   H58 6272   5.397   4.377   3.369 -0.0468 -0.7251  0.9583
   15CHTO    N6 6273   5.323   4.531   3.492  0.4920  0.0025 -0.3802
   15CHTO   H45 6274   5.282   4.630   3.481 -0.7622 -0.3100  1.3515
   15CHTO   H46 6275   5.253   4.473   3.549  1.0826  1.6105  2.0279
   15CHTO   C33 6276   5.473   4.553   3.291  0.4548 -0.9630 -0.5798
   15CHTO   H61 6277   5.457   4.662   3.290 -1.1464 -1.1853 -0.7281
   15CHTO   O18 6278   5.482   4.518   3.154 -0.1928  0.6565  0.9367
   15CHTO   C28 6279   5.359   4.532   3.079 -0.0453 -0.3170 -0.0315
   15CHTO   H56 6280   5.325   4.636   3.090 -0.0927 -0.4261  0.9436
   15CHTO   C35 6281   5.392   4.508   2.934 -0.0285 -0.2926 -0.4390
   15CHTO   O24 6282   5.441   4.374   2.921 -0.3292 -0.3836 -0.0288
   15CHTO   H39 6283   5.364   4.322   2.906 -1.9706  1.4195  1.9519
   15CHTO    O9 6284   5.590   4.520   3.360 -0.1916 -0.9895  0.3240
   15CHTO   C13 6285   5.728   4.588   3.307  0.0990  0.0316 -0.2092
   15CHTO   H26 6286   5.705   4.678   3.246  2.6176  1.7857  1.3388
   15CHTO   C11 6287   5.795   4.483   3.222  0.5619  0.9798  0.4795
   15CHTO   H24 6288   5.736   4.476   3.129  1.9373  1.7091 -0.4617
   15CHTO    O8 6289   5.790   4.354   3.285 -0.1585 -0.6764 -0.1927
   15CHTO    H3 6290   5.827   4.295   3.223 -0.4836 -0.3307 -0.7214
   15CHTO    C9 6291   5.941   4.526   3.192  0.1862  0.1119  0.0232
   15CHTO   H22 6292   5.929   4.627   3.151 -2.1022 -0.4354 -0.7243
   15CHTO    N2 6293   6.005   4.439   3.086  0.1769  0.2300 -0.1052
   15CHTO   H10 6294   5.938   4.432   3.001 -2.2441 -2.3182  1.9591
   15CHTO   H11 6295   6.021   4.340   3.125  1.5763  0.3399 -0.3618
   15CHTO    C7 6296   6.027   4.534   3.326  0.6307  0.1624 -0.5875
   15CHTO   H20 6297   6.111   4.603   3.301  2.9917 -2.4995 -0.3117
   15CHTO    O4 6298   5.957   4.588   3.443  0.0614 -0.1516  0.0255
   15CHTO   C14 6299   5.827   4.643   3.432 -0.0643 -0.0265  0.0148
   15CHTO   H27 6300   5.828   4.754   3.426  0.5043  0.0138  0.8586
   15CHTO   C18 6301   5.763   4.605   3.569  0.4783 -0.3070 -0.6249
   15CHTO   O13 6302   5.743   4.716   3.655 -0.3000  0.7201 -0.3551
   15CHTO    H7 6303   5.818   4.772   3.660 -0.3760  0.9457 -1.5853
   15CHTO    O2 6304   6.105   4.403   3.369  0.4628 -0.3745  0.1947
   15CHTO    C1 6305   6.240   4.428   3.410  0.1895 -0.3973 -0.3128
   15CHTO   H14 6306   6.260   4.535   3.432  1.3359 -0.6663  0.0034
   15CHTO    C2 6307   6.342   4.388   3.289 -0.3236 -0.6387 -0.1453
   15CHTO   H15 6308   6.319   4.288   3.248 -1.6550 -0.6101  0.5084
   15CHTO    O6 6309   6.334   4.484   3.183 -0.0151 -0.2976  0.1153
   15CHTO    H1 6310   6.319   4.440   3.101 -0.1630  1.6935 -0.9728
   15CHTO    C3 6311   6.491   4.392   3.361  0.2057 -1.1649  0.1933
   15CHTO   H16 6312   6.518   4.490   3.402 -0.0836 -0.7394 -0.6219
   15CHTO    N1 6313   6.596   4.354   3.263 -0.3335 -0.2685  0.0966
   15CHTO    H8 6314   6.695   4.383   3.295 -1.0156  2.0633  0.1191
   15CHTO    H9 6315   6.586   4.381   3.159  0.8594 -0.9935 -0.2234
   15CHTO    C4 6316   6.490   4.298   3.484  0.6251 -0.8969 -0.7570
   15CHTO   H17 6317   6.456   4.199   3.455 -1.1928 -0.8809  1.1935
   15CHTO    O1 6318   6.406   4.351   3.583  0.1378 -0.4487 -0.4121
   15CHTO    C5 6319   6.262   4.345   3.544  0.2130  0.3524  0.0899
   15CHTO   H18 6320   6.234   4.243   3.519 -2.1708  0.6177  1.5586
   15CHTO   C16 6321   6.178   4.406   3.663  0.2499 -0.0912  0.3103
   15CHTO   O11 6322   6.184   4.336   3.783  0.0234  0.1653  0.5919
   15CHTO    H5 6323   6.118   4.269   3.791  0.0672 -0.1449 -1.5845
   15CHTO    O3 6324   6.618   4.287   3.548 -0.2171 -0.0035  0.3179
   15CHTO    C6 6325   6.638   4.197   3.654 -0.8072 -0.4769 -0.8620
   15CHTO   H19 6326   6.548   4.170   3.710  0.0289 -0.7530  0.3860
   15CHTO    C8 6327   6.708   4.067   3.605 -0.4014 -0.2575 -1.2904
   15CHTO   H21 6328   6.803   4.101   3.564  0.3308 -2.5923 -1.5950
   15CHTO    O7 6329   6.622   4.002   3.510 -0.1715  0.0425 -0.2857
   15CHTO    H2 6330   6.671   4.025   3.433 -0.3388  0.2126 -0.3407
   15CHTO   C12 6331   6.741   3.969   3.727 -0.2508  0.1862 -0.7933
   15CHTO   H25 6332   6.647   3.931   3.774  0.3748 -0.7826 -0.3213
   15CHTO    N3 6333   6.807   3.841   3.684  0.1138 -0.3015  0.0410
   15CHTO   H12 6334   6.782   3.762   3.753 -0.7535  1.5288  1.8690
   15CHTO   H13 6335   6.757   3.806   3.595 -0.7366  0.9135  0.0286
   15CHTO   C15 6336   6.822   4.056   3.831 -0.3444  0.4818 -0.1550
   15CHTO   H28 6337   6.919   4.080   3.788 -0.6863 -1.3421 -2.0335
   15CHTO   O10 6338   6.838   4.000   3.946 -0.1282 -0.6506  0.0501
   15CHTO    H4 6339   6.928   3.998   3.973 -0.0049 -1.5468 -0.4223
   15CHTO    O5 6340   6.751   4.182   3.873 -0.0831 -0.5022 -0.1489
   15CHTO   C10 6341   6.729   4.272   3.758  0.7135 -0.2755 -0.2430
   15CHTO   H23 6342   6.828   4.299   3.721  0.5591  0.8241  0.1229
   15CHTO   C17 6343   6.675   4.405   3.814 -0.0098  0.3557  0.8310
   15CHTO   O12 6344   6.539   4.382   3.863  0.2994  0.4345  0.0709
   15CHTO    H6 6345   6.491   4.460   3.845  0.1254  0.3912  0.3504
   16CHTO  H203 6346   4.658   4.124   3.197  0.4306  0.2119 -1.6525
   16CHTO   O82 6347   4.672   4.032   3.211  0.1575  0.4112 -0.0082
   16CHTO  C123 6348   4.752   4.005   3.329 -0.0080  0.0014 -0.2810
   16CHTO  H227 6349   4.694   3.941   3.397 -0.3831  1.0999  0.4529
   16CHTO   O77 6350   4.855   3.934   3.269  0.0040  0.6271 -0.1151
   16CHTO  C118 6351   4.955   3.904   3.371 -0.0477  0.6506  0.2834
   16CHTO  H222 6352   4.913   3.850   3.457  2.2627 -2.2599 -0.3153
   16CHTO  C125 6353   5.060   3.799   3.309  0.0581  0.2896  0.1479
   16CHTO   O84 6354   5.124   3.852   3.192  0.8574  0.2772  0.0765
   16CHTO  H205 6355   5.078   3.912   3.137 -0.5411 -0.9485 -0.1131
   16CHTO  C114 6356   5.029   4.031   3.417  0.0208 -0.4112 -0.2647
   16CHTO  H218 6357   5.056   4.090   3.330  1.9163 -1.0971 -0.1473
   16CHTO  C116 6358   4.925   4.125   3.487  0.3230  0.0056  0.0492
   16CHTO  H220 6359   4.897   4.073   3.581 -1.8936  0.6460 -0.2293
   16CHTO   O79 6360   4.983   4.255   3.525  0.1084  0.2210  0.0642
   16CHTO  H201 6361   4.943   4.301   3.596 -3.4115  0.0269 -1.7197
   16CHTO  C120 6362   4.804   4.141   3.392  0.1694  0.2576  0.4378
   16CHTO  H224 6363   4.830   4.212   3.311 -0.1619 -1.2298 -1.0185
   16CHTO   N21 6364   4.687   4.204   3.461  0.6146 -0.1901 -0.2829
   16CHTO  H211 6365   4.650   4.278   3.391  0.7531  0.9893  0.8915
   16CHTO  H212 6366   4.608   4.135   3.486  1.4283 -1.0495 -0.0545
   16CHTO   O75 6367   5.143   3.985   3.491  0.2985 -0.5205 -0.0054
   16CHTO  C112 6368   5.282   4.061   3.476 -0.0928 -0.0485 -0.4895
   16CHTO  H216 6369   5.264   4.168   3.458  0.5622  0.1646  0.0814
   16CHTO   O73 6370   5.345   4.001   3.362 -0.6002  0.3090 -0.3228
   16CHTO  C113 6371   5.466   4.064   3.331  0.7993  0.2475 -0.2170
   16CHTO  H217 6372   5.439   4.171   3.324  1.8957  0.4694 -1.1550
   16CHTO  C124 6373   5.501   4.033   3.181  0.1184  0.4531  0.2829
   16CHTO   O83 6374   5.414   4.070   3.072  0.2106 -0.2786 -0.1861
   16CHTO  H204 6375   5.349   4.132   3.098 -0.5258 -1.4698  0.8351
   16CHTO  C109 6376   5.570   4.045   3.447  0.7034 -0.2309  0.5768
   16CHTO  H213 6377   5.587   3.937   3.455  2.0939 -0.2194 -1.6975
   16CHTO  C110 6378   5.512   4.101   3.584  0.1056 -0.6294 -0.0492
   16CHTO  H214 6379   5.517   4.210   3.574  0.0149 -0.7774 -2.0062
   16CHTO   O78 6380   5.598   4.069   3.693 -0.3526 -0.0933  0.7533
   16CHTO  H200 6381   5.580   4.123   3.768 -1.8441  1.4243 -0.6701
   16CHTO  C111 6382   5.368   4.050   3.610  0.1150 -0.2779 -0.4468
   16CHTO  H215 6383   5.378   3.943   3.634  0.1694  0.4653  3.0341
   16CHTO   N19 6384   5.304   4.116   3.731 -0.5445 -0.3249  0.3012
   16CHTO  H207 6385   5.202   4.082   3.743 -1.5219  1.8874 -1.4457
   16CHTO  H208 6386   5.295   4.223   3.717 -0.2225 -0.4635 -1.0366
   16CHTO   O74 6387   5.695   4.116   3.423 -0.4487  0.0313 -0.5384
   16CHTO  C115 6388   5.815   4.029   3.391 -0.2289 -0.0651 -0.1469
   16CHTO  H219 6389   5.791   3.924   3.409 -0.4724  0.2722  1.6022
   16CHTO   O76 6390   5.854   4.036   3.240 -0.5731 -0.3367 -0.3851
   16CHTO  C122 6391   5.965   3.947   3.188  0.2025 -0.3703  0.1443
   16CHTO  H226 6392   5.988   3.986   3.089 -2.0257  1.9487  0.5000
   16CHTO  C126 6393   5.912   3.796   3.161  0.3692  0.6967  0.4956
   16CHTO   O85 6394   6.028   3.710   3.140 -0.2626  0.7772  0.5421
   16CHTO  H206 6395   6.006   3.637   3.086 -0.4323  0.4174  1.0927
   16CHTO  C121 6396   6.089   3.966   3.285 -0.3646  0.0402 -0.5704
   16CHTO  H225 6397   6.167   3.893   3.254 -0.9283 -1.4583  1.4224
   16CHTO   O81 6398   6.149   4.089   3.260 -0.2025 -0.2609 -0.8934
   16CHTO  H202 6399   6.238   4.086   3.289 -0.2390 -0.0391 -0.7533
   16CHTO  C119 6400   6.050   3.949   3.437 -0.1629 -0.2041 -0.5453
   16CHTO  H223 6401   6.000   3.852   3.440 -3.6869  1.5313 -0.6054
   16CHTO  C117 6402   5.941   4.061   3.474  0.4719  0.6950  0.1546
   16CHTO  H221 6403   5.960   4.162   3.439  1.1509  1.1643  1.8237
   16CHTO   N20 6404   5.905   4.067   3.622  0.2665 -0.5697 -0.4566
   16CHTO  H209 6405   5.818   4.007   3.644 -0.3558  0.5439  0.1524
   16CHTO  H210 6406   5.889   4.169   3.652  2.3809 -0.2008 -0.4961
   16CHTO   O80 6407   6.180   3.937   3.540  0.9029 -0.3077  0.2349
   16CHTO  C103 6408   6.205   3.799   3.600  0.6779  0.6098  0.5738
   16CHTO  H190 6409   6.115   3.740   3.616  1.4691 -1.2002 -1.4407
   16CHTO  C101 6410   6.303   3.711   3.515 -0.1142 -0.4429 -0.5044
   16CHTO  H188 6411   6.397   3.767   3.521 -0.6133  0.3971 -0.5532
   16CHTO   O68 6412   6.240   3.690   3.352  0.3313  0.1389 -0.3202
   16CHTO  H168 6413   6.251   3.601   3.324 -0.1495 -0.4411  1.3135
   16CHTO   C99 6414   6.331   3.576   3.585  0.1480 -0.0213  0.3459
   16CHTO  H186 6415   6.237   3.516   3.595 -1.8471  2.8827 -0.2727
   16CHTO   N17 6416   6.435   3.495   3.518 -0.0857  0.7396 -0.2008
   16CHTO  H174 6417   6.396   3.397   3.494  0.3116  0.5505 -0.0688
   16CHTO  H175 6418   6.468   3.542   3.427 -0.4909 -0.9987 -1.2604
   16CHTO   C97 6419   6.377   3.611   3.734 -0.2676 -0.2346 -0.0288
   16CHTO  H184 6420   6.476   3.659   3.729 -1.0320  1.8504  2.9816
   16CHTO   O64 6421   6.280   3.690   3.808  0.4740  0.6098  0.3188
   16CHTO  C104 6422   6.262   3.819   3.747  0.0609 -0.7848 -0.3508
   16CHTO  H191 6423   6.349   3.884   3.738 -0.0352 -0.5688  0.2493
   16CHTO  C108 6424   6.158   3.897   3.838 -0.2220 -0.0907  0.3701
   16CHTO   O71 6425   6.184   4.036   3.843 -0.5040 -0.4554  0.5840
   16CHTO  H171 6426   6.109   4.066   3.890 -1.5034 -0.8637 -0.7191
   16CHTO   O62 6427   6.391   3.493   3.816  0.9019 -0.3069 -0.0765
   16CHTO   C91 6428   6.493   3.497   3.918  0.4024  0.7226  0.0273
   16CHTO  H178 6429   6.582   3.460   3.867 -1.4805 -0.8427 -2.2077
   16CHTO   C92 6430   6.449   3.385   4.023 -0.8454  0.1372 -0.2862
   16CHTO  H179 6431   6.424   3.294   3.966 -2.0057 -0.1396  0.6456
   16CHTO   O66 6432   6.567   3.357   4.105  0.0554 -0.1975  0.2115
   16CHTO  H166 6433   6.544   3.291   4.168 -2.1042  0.6547  0.3643
   16CHTO   C93 6434   6.331   3.420   4.122  0.2522 -0.4095 -0.1642
   16CHTO  H180 6435   6.341   3.353   4.209  0.7969  0.6086  0.5537
   16CHTO   N16 6436   6.197   3.381   4.062 -0.2391 -0.7665  0.0296
   16CHTO  H172 6437   6.198   3.399   3.955 -0.4236  1.7964  0.4262
   16CHTO  H173 6438   6.120   3.442   4.106  1.6704  2.3114 -0.7073
   16CHTO   C94 6439   6.336   3.568   4.174 -0.0086  0.3276 -0.7427
   16CHTO  H181 6440   6.253   3.626   4.136 -0.0708  2.8894  3.0282
   16CHTO   O61 6441   6.460   3.639   4.140  0.0148  0.5654  0.4230
   16CHTO   C95 6442   6.512   3.635   4.000 -0.3437  0.0900  0.8404
   16CHTO  H182 6443   6.454   3.707   3.942 -1.2745 -0.3957  1.1528
   16CHTO  C106 6444   6.658   3.687   3.985 -0.1830  0.0334  0.9679
   16CHTO   O69 6445   6.736   3.598   4.067 -0.6210 -0.0481 -0.7277
   16CHTO  H169 6446   6.824   3.622   4.045 -1.1473  2.3263 -0.3922
   16CHTO   O63 6447   6.325   3.559   4.346 -0.4666  0.4693 -0.4800
   16CHTO   C96 6448   6.184   3.500   4.417 -0.4898  0.1214  0.0533
   16CHTO  H183 6449   6.187   3.398   4.376 -0.0252  1.6511 -3.9275
   16CHTO   C98 6450   6.049   3.573   4.389  0.0526  0.6488  0.4430
   16CHTO  H185 6451   6.030   3.592   4.282 -1.7802  0.2858  0.6847
   16CHTO   O67 6452   5.942   3.482   4.420  0.1741 -0.2965  0.2299
   16CHTO  H167 6453   5.864   3.533   4.416  0.7997  0.6057 -0.8386
   16CHTO  C102 6454   6.031   3.710   4.466 -0.1025  0.3064  0.4406
   16CHTO  H189 6455   5.922   3.728   4.470 -0.0620  0.7415 -0.3543
   16CHTO   N18 6456   6.088   3.824   4.402 -0.3933 -0.6126 -0.1207
   16CHTO  H176 6457   6.195   3.818   4.397 -0.4995 -2.1329 -1.0690
   16CHTO  H177 6458   6.035   3.831   4.307 -0.2789  5.2284  0.0943
   16CHTO  C105 6459   6.091   3.693   4.609  0.7656 -0.8777 -0.5318
   16CHTO  H192 6460   6.183   3.748   4.626 -1.1623  2.3481 -0.0164
   16CHTO   O65 6461   6.111   3.557   4.644 -0.3484  0.4597  0.1987
   16CHTO  C100 6462   6.216   3.499   4.564 -0.1970 -0.3549  0.6921
   16CHTO  H187 6463   6.308   3.557   4.582 -1.3822  2.0441 -0.7103
   16CHTO  C107 6464   6.246   3.351   4.615 -0.5567  0.5348 -0.3303
   16CHTO   O70 6465   6.123   3.278   4.614 -1.3273 -0.1770  0.4264
   16CHTO  H170 6466   6.072   3.296   4.691 -0.4550 -0.2681  1.0313
   16CHTO   O57 6467   5.979   3.748   4.713 -0.3568 -0.3858  0.1385
   16CHTO   C85 6468   5.947   3.889   4.729  0.1729  0.3255  0.1251
   16CHTO  H157 6469   5.938   3.941   4.632 -2.8347  1.1911  0.7969
   16CHTO   C83 6470   6.050   3.981   4.800  0.3419 -0.3261  0.9728
   16CHTO  H155 6471   6.136   3.984   4.732  0.5137  2.2914  1.2471
   16CHTO   O56 6472   6.086   3.920   4.924  0.4862 -0.2505  0.2599
   16CHTO  H135 6473   6.040   3.842   4.951  1.3725 -1.0158 -0.4220
   16CHTO   C81 6474   5.994   4.118   4.816 -0.1302  0.2364  0.5553
   16CHTO  H153 6475   5.970   4.157   4.717  0.3068  0.1927  0.4305
   16CHTO   N14 6476   6.102   4.214   4.854  0.1463 -0.5845  0.3720
   16CHTO  H141 6477   6.054   4.307   4.875  1.4078 -0.1301  1.3480
   16CHTO  H142 6478   6.147   4.175   4.943 -1.6193 -0.5175  1.3114
   16CHTO   C79 6479   5.872   4.127   4.906  0.8999 -0.4745 -0.0654
   16CHTO  H151 6480   5.837   4.230   4.896  0.4279 -0.7024 -0.7913
   16CHTO   O52 6481   5.769   4.040   4.840  0.8721  0.4187  0.5685
   16CHTO   C86 6482   5.815   3.903   4.822  0.4258  0.2651 -0.3290
   16CHTO  H158 6483   5.840   3.879   4.928 -0.2579 -0.2283 -0.2763
   16CHTO   C90 6484   5.692   3.810   4.783  0.4169 -0.0341  0.5467
   16CHTO   O60 6485   5.587   3.810   4.879  0.4625 -0.1935 -0.8169
   16CHTO  H138 6486   5.513   3.861   4.853  0.3586  0.7116  1.1451
   16CHTO   O50 6487   5.885   4.080   5.047  0.4007  0.3052  0.1318
   16CHTO   C73 6488   5.859   4.058   5.181  0.0068 -0.0369 -0.6087
   16CHTO  H145 6489   5.948   4.013   5.228 -0.4546  0.0590  0.3745
   16CHTO   C74 6490   5.734   3.980   5.202  1.0744 -0.6393 -0.7534
   16CHTO  H146 6491   5.749   3.879   5.161  2.5767 -0.2001 -1.3371
   16CHTO   O54 6492   5.715   3.954   5.348  0.4623 -0.6925  0.3900
   16CHTO  H133 6493   5.659   4.017   5.389  2.5681  0.0176  2.3257
   16CHTO   C75 6494   5.604   4.053   5.144  0.1733  0.3041 -0.2046
   16CHTO  H147 6495   5.619   4.070   5.036  1.0633 -0.1146 -0.1453
   16CHTO   N13 6496   5.471   3.986   5.160 -0.3445  0.7709  0.1080
   16CHTO  H139 6497   5.468   3.897   5.098  0.6442  1.7959 -1.4226
   16CHTO  H140 6498   5.391   4.057   5.148 -1.2760 -0.5129 -1.4576
   16CHTO   C76 6499   5.602   4.206   5.203 -0.0444  0.7052 -0.3309
   16CHTO  H148 6500   5.596   4.192   5.311  1.6504  0.8445 -0.1983
   16CHTO   O49 6501   5.728   4.272   5.174  0.5252 -0.0096 -0.1333
   16CHTO   C77 6502   5.843   4.205   5.234  0.7927  0.1330 -0.3099
   16CHTO  H149 6503   5.842   4.200   5.343 -1.4468 -3.2525 -0.4191
   16CHTO   C88 6504   5.964   4.289   5.200  0.3859 -0.7547  0.3817
   16CHTO   O58 6505   6.089   4.260   5.288  0.0745  0.1951 -0.0172
   16CHTO  H136 6506   6.112   4.170   5.272  0.9305  0.5839 -1.0663
   16CHTO   O51 6507   5.480   4.289   5.152 -0.0932  0.4421 -0.1835
   16CHTO   C78 6508   5.455   4.431   5.222 -0.0240  0.2897 -0.4503
   16CHTO  H150 6509   5.525   4.506   5.179  0.4269  0.3573  0.4008
   16CHTO   C80 6510   5.483   4.436   5.377 -0.7444  0.3885 -0.0567
   16CHTO  H152 6511   5.418   4.356   5.420 -1.1859 -0.0667 -1.5358
   16CHTO   O55 6512   5.623   4.410   5.410  0.2591  0.3576  0.4156
   16CHTO  H134 6513   5.641   4.463   5.485 -0.7098  1.2413  0.0458
   16CHTO   C84 6514   5.434   4.575   5.444  0.2159  0.1962  0.3208
   16CHTO  H156 6515   5.502   4.658   5.423 -0.6388  0.7867 -0.1364
   16CHTO   N15 6516   5.435   4.568   5.599 -0.2662  0.4908  0.3925
   16CHTO  H143 6517   5.343   4.529   5.636  0.3360  1.2718  2.8219
   16CHTO  H144 6518   5.516   4.514   5.644  0.1883  0.8226 -0.0203
   16CHTO   C87 6519   5.294   4.618   5.396 -0.3330 -0.2823 -0.5693
   16CHTO  H159 6520   5.210   4.568   5.446 -0.4117  0.7338  0.3545
   16CHTO   O53 6521   5.284   4.602   5.262  0.2238 -0.2306  0.5068
   16CHTO   C82 6522   5.306   4.471   5.200 -0.1862 -0.1852  1.1413
   16CHTO  H154 6523   5.238   4.390   5.227 -0.8366 -0.1282 -0.2987
   16CHTO   C89 6524   5.287   4.497   5.050 -0.4926 -0.7705  0.0681
   16CHTO   O59 6525   5.151   4.498   5.002  0.4461 -0.6159  0.3592
   16CHTO  H137 6526   5.147   4.517   4.911 -1.4918  1.4139  0.8401
   16CHTO   O45 6527   5.281   4.799   5.425  1.1782 -0.3787 -0.0701
   16CHTO   C67 6528   5.358   4.883   5.338 -0.7235 -0.5013  0.4976
   16CHTO  H124 6529   5.417   4.822   5.270 -0.7681  0.9808 -0.9106
   16CHTO   C65 6530   5.260   4.966   5.247  0.8701 -0.1253 -0.0030
   16CHTO  H122 6531   5.167   4.965   5.304 -0.3267 -1.9323 -1.8933
   16CHTO   O44 6532   5.246   4.878   5.128 -0.1840 -0.5642  0.2359
   16CHTO  H102 6533   5.191   4.927   5.068  1.1064 -0.1108 -0.6020
   16CHTO   C63 6534   5.301   5.115   5.228 -0.0288  0.4022 -0.2992
   16CHTO  H120 6535   5.285   5.163   5.325 -1.3753 -0.7903  0.0820
   16CHTO   N11 6536   5.211   5.189   5.144  0.3577 -0.3942  0.3930
   16CHTO  H108 6537   5.232   5.294   5.148 -0.2222 -0.1489 -2.0397
   16CHTO  H109 6538   5.210   5.149   5.045  1.6117 -2.1851  1.0700
   16CHTO   C61 6539   5.454   5.112   5.196  0.2830 -0.3338 -1.0150
   16CHTO  H118 6540   5.486   5.214   5.171 -0.2141  0.4606  1.4414
   16CHTO   O40 6541   5.533   5.060   5.304 -0.1126 -0.9014 -0.3176
   16CHTO   C68 6542   5.467   4.980   5.407  0.3044 -0.4353 -0.3032
   16CHTO  H125 6543   5.416   5.041   5.485 -0.1991 -1.2861  0.0319
   16CHTO   C72 6544   5.574   4.906   5.479 -0.2093 -0.2602  0.9503
   16CHTO   O48 6545   5.667   4.986   5.546  0.3511  0.6724 -0.4185
   16CHTO  H105 6546   5.720   4.934   5.604 -3.6489 -1.7755  1.1882
   16CHTO   O38 6547   5.476   5.029   5.078 -0.3393 -0.0838  0.2043
   16CHTO   C55 6548   5.617   5.016   5.030 -0.1033 -0.0408  0.2938
   16CHTO  H112 6549   5.679   5.054   5.112  0.0489  2.1588 -0.7898
   16CHTO   C56 6550   5.637   5.096   4.909  0.1464  0.8079  0.6780
   16CHTO  H113 6551   5.542   5.089   4.856 -0.1162  1.1127  1.1037
   16CHTO   O42 6552   5.664   5.232   4.955 -0.5247  0.1440  0.4632
   16CHTO  H100 6553   5.753   5.238   4.985 -0.5690  1.0560  0.4281
   16CHTO   C57 6554   5.762   5.050   4.816  0.1944 -0.1676  0.2487
   16CHTO  H114 6555   5.841   5.068   4.889 -0.4032 -0.4283  0.9608
   16CHTO   N10 6556   5.789   5.131   4.695 -0.4669  0.0358  0.3378
   16CHTO  H106 6557   5.855   5.211   4.725 -0.0893  0.1346 -0.7305
   16CHTO  H107 6558   5.697   5.179   4.664 -0.8068 -1.4064 -0.9722
   16CHTO   C58 6559   5.745   4.901   4.784 -0.8018  0.3011  0.1064
   16CHTO  H115 6560   5.660   4.876   4.718 -2.2440  0.6254  1.8052
   16CHTO   O37 6561   5.729   4.828   4.911 -0.1004  0.3000  0.1417
   16CHTO   C59 6562   5.632   4.859   5.013  0.2938 -0.0423 -0.1385
   16CHTO  H116 6563   5.540   4.815   4.974  0.2963 -0.1729  0.0049
   16CHTO   C70 6564   5.681   4.778   5.134 -0.6083  0.3914 -0.0853
   16CHTO   O46 6565   5.807   4.809   5.188 -0.5082 -0.4892 -0.0787
   16CHTO  H103 6566   5.867   4.763   5.133  0.4200  0.9632 -0.3195
   16CHTO   O39 6567   5.890   4.842   4.732  0.4498 -0.2128  0.8601
   16CHTO   C60 6568   5.886   4.762   4.615  0.0080  0.0847  0.4613
   16CHTO  H117 6569   5.800   4.695   4.618 -0.6450  0.9579  1.6952
   16CHTO   C62 6570   5.872   4.860   4.495 -0.2311  0.3111 -0.1453
   16CHTO  H119 6571   5.775   4.913   4.507 -0.1741  0.1070  1.3386
   16CHTO   O43 6572   5.999   4.938   4.492  0.4823  0.2162 -0.0545
   16CHTO  H101 6573   6.002   4.985   4.411  0.9690  0.4737  0.1158
   16CHTO   C66 6574   5.861   4.750   4.377  1.0979 -0.1045  0.1620
   16CHTO  H123 6575   5.772   4.690   4.393  0.5362  1.0051  1.3358
   16CHTO   N12 6576   5.839   4.818   4.244 -0.6189  0.2611 -0.4240
   16CHTO  H110 6577   5.897   4.907   4.223  0.1838  0.3829  2.0194
   16CHTO  H111 6578   5.849   4.747   4.164 -0.4771 -0.8409  0.5609
   16CHTO   C69 6579   5.993   4.659   4.368 -0.0560  0.1934 -0.6646
   16CHTO  H126 6580   6.076   4.728   4.341  0.2058 -0.0125 -0.3779
   16CHTO   O41 6581   6.015   4.587   4.501 -0.1047  0.2412 -0.2974
   16CHTO   C64 6582   6.017   4.671   4.618  0.5203  0.0261  0.2413
   16CHTO  H121 6583   6.105   4.739   4.610  0.6658 -0.2003 -0.0613
   16CHTO   C71 6584   6.021   4.593   4.752 -0.3872 -0.0533 -0.4197
   16CHTO   O47 6585   6.151   4.586   4.813  0.4227 -0.6990  0.4035
   16CHTO  H104 6586   6.185   4.671   4.830 -0.2433  0.0192 -1.6539
   16CHTO   O34 6587   5.997   4.544   4.246 -0.1168  0.2059 -0.2590
   16CHTO   C49 6588   6.127   4.491   4.194  0.9592 -0.4501  0.2182
   16CHTO   H91 6589   6.158   4.570   4.126 -0.4807  0.1261  0.2126
   16CHTO   C47 6590   6.092   4.356   4.127  0.2383 -0.1754  0.5001
   16CHTO   H89 6591   6.175   4.309   4.070 -1.2126 -3.5830  1.1294
   16CHTO   O33 6592   5.978   4.376   4.042 -0.4782  0.1851 -0.5642
   16CHTO   H70 6593   5.947   4.292   4.013 -0.2684  0.3413 -1.2409
   16CHTO   C45 6594   6.050   4.249   4.247 -0.5733 -0.2843  0.5884
   16CHTO   H87 6595   5.959   4.281   4.300 -1.4960 -0.8865 -0.5952
   16CHTO    N8 6596   6.010   4.120   4.183  0.4514  0.4690  0.3245
   16CHTO   H75 6597   5.903   4.104   4.173  0.5261 -0.2994  0.7150
   16CHTO   H76 6598   6.069   4.087   4.099  1.1212  0.4654  0.7925
   16CHTO   C43 6599   6.163   4.236   4.365 -0.6177  0.2562  0.2185
   16CHTO   H85 6600   6.114   4.180   4.444 -1.0876 -0.3658 -0.4978
   16CHTO   O29 6601   6.208   4.369   4.405 -0.5521  0.3909 -0.3675
   16CHTO   C50 6602   6.228   4.472   4.308 -1.2984 -0.0957 -0.3088
   16CHTO   H92 6603   6.238   4.569   4.358 -0.8771  0.3997 -1.3481
   16CHTO   C54 6604   6.371   4.451   4.254 -0.5548 -0.5221  0.1542
   16CHTO   O36 6605   6.423   4.551   4.167 -0.9180  0.1456  0.1947
   16CHTO   H72 6606   6.392   4.639   4.178 -0.8030  0.3037 -0.7067
   16CHTO   O27 6607   6.282   4.169   4.331  0.2679  0.2772 -0.0035
   16CHTO   C37 6608   6.401   4.101   4.371 -0.7535 -0.6016  0.1718
   16CHTO   H79 6609   6.486   4.172   4.375 -0.3885 -0.9376 -1.4928
   16CHTO   C38 6610   6.371   4.043   4.509 -0.3665  0.5010  0.3385
   16CHTO   H80 6611   6.276   3.986   4.508 -0.5442  0.7717  1.2203
   16CHTO   O31 6612   6.353   4.157   4.598 -0.0394  0.0488  0.1980
   16CHTO   H68 6613   6.439   4.185   4.620  0.8253 -0.7719 -2.0332
   16CHTO   C39 6614   6.493   3.951   4.556 -1.4700  0.5391 -0.5874
   16CHTO   H81 6615   6.578   4.018   4.568 -0.7981 -0.6067  1.2309
   16CHTO    N7 6616   6.472   3.882   4.685 -0.4675  0.0680 -0.2031
   16CHTO   H73 6617   6.474   3.952   4.767  1.8162 -0.0272 -0.1453
   16CHTO   H74 6618   6.385   3.820   4.670  1.3783 -2.6864  0.0011
   16CHTO   C40 6619   6.540   3.849   4.444 -0.3131 -0.0176 -0.4667
   16CHTO   H82 6620   6.466   3.769   4.440 -1.6910  1.2200 -0.2587
   16CHTO   O26 6621   6.551   3.913   4.317 -0.3925 -0.3737  0.3066
   16CHTO   C41 6622   6.435   3.986   4.278  0.2613  0.4991 -0.1226
   16CHTO   H83 6623   6.345   3.923   4.273 -0.0243  0.8580  0.4114
   16CHTO   C52 6624   6.445   4.029   4.123 -0.2463  0.3612  0.1881
   16CHTO   O35 6625   6.532   4.109   4.092 -0.1879  0.5782  0.3210
   16CHTO   H71 6626   6.507   4.198   4.111  0.6088  0.2542  3.2751
   16CHTO   O28 6627   6.676   3.804   4.468 -0.1575 -0.4172 -0.1508
   16CHTO   C42 6628   6.717   3.662   4.500 -0.2243 -0.5924  0.1621
   16CHTO   H84 6629   6.814   3.646   4.453  0.5392 -3.0724  2.4339
   16CHTO   C44 6630   6.630   3.548   4.459  0.6448  1.3351 -0.2226
   16CHTO   H86 6631   6.532   3.563   4.505  0.1822  0.5284 -0.9293
   16CHTO   O32 6632   6.619   3.546   4.315 -0.0520 -0.3201  0.3784
   16CHTO   H69 6633   6.548   3.493   4.284 -0.2227 -1.5705  2.8184
   16CHTO   C48 6634   6.686   3.414   4.507 -0.0357  0.6262 -0.2341
   16CHTO   H90 6635   6.781   3.403   4.455  0.0198 -0.8645  0.1628
   16CHTO    N9 6636   6.605   3.297   4.464  0.3685  0.0958  0.7855
   16CHTO   H77 6637   6.672   3.212   4.468  1.3343  0.8868  2.0325
   16CHTO   H78 6638   6.577   3.331   4.366 -1.2235  0.6014  1.3929
   16CHTO   C51 6639   6.705   3.412   4.671  0.4711 -0.6755  0.4792
   16CHTO   H93 6640   6.607   3.416   4.719  0.2225  1.0170 -0.1105
   16CHTO   O30 6641   6.782   3.518   4.709  0.1157 -0.5935 -0.1812
   16CHTO   C46 6642   6.743   3.650   4.656 -0.4076  0.0783  0.0173
   16CHTO   H88 6643   6.653   3.682   4.709 -1.9584 -1.9847 -1.3110
   16CHTO   C53 6644   6.863   3.737   4.704 -0.0301  0.5656  0.1468
   16CHTO   O72 6645   6.880   3.746   4.846 -0.6062  0.0831  0.3029
   16CHTO  H199 6646   6.874   3.664   4.891 -1.2055 -0.3629 -0.5624
   16CHTO   O22 6647   6.764   3.302   4.732  0.1081 -0.2821  0.0684
   16CHTO   C31 6648   6.724   3.262   4.873 -0.1053 -0.4417 -0.4964
   16CHTO   H59 6649   6.791   3.177   4.898  1.6297  0.9983 -0.0344
   16CHTO   C29 6650   6.758   3.370   4.971  0.0923  0.3067 -0.3550
   16CHTO   H57 6651   6.697   3.459   4.951 -0.1338  0.1073 -0.5502
   16CHTO   O21 6652   6.896   3.392   4.959 -0.0313  0.0138 -0.0859
   16CHTO   H37 6653   6.916   3.456   4.894 -0.2218  1.2299  1.0317
   16CHTO   C27 6654   6.719   3.323   5.122  0.4899  0.3289  0.8272
   16CHTO   H55 6655   6.780   3.237   5.154 -0.1741 -0.1596  0.7939
   16CHTO    N5 6656   6.742   3.434   5.213 -0.8917 -0.1560 -0.2621
   16CHTO   H43 6657   6.661   3.458   5.281 -1.6032 -3.0527 -0.0269
   16CHTO   H44 6658   6.843   3.456   5.244 -0.3983 -0.6694 -1.4966
   16CHTO   C25 6659   6.569   3.272   5.105  0.1239 -0.0762 -0.0758
   16CHTO   H53 6660   6.508   3.357   5.069 -0.8435 -0.1779  1.2721
   16CHTO   O17 6661   6.558   3.164   5.012  0.2304  0.3954 -0.2847
   16CHTO   C32 6662   6.585   3.203   4.877  0.0107  0.8749 -0.9124
   16CHTO   H60 6663   6.512   3.277   4.844  0.1791  1.0093 -0.9798
   16CHTO   C36 6664   6.562   3.076   4.787 -0.2354  0.3610  0.8806
   16CHTO   O25 6665   6.435   3.076   4.720  0.3200  0.0985  0.0316
   16CHTO   H40 6666   6.437   3.132   4.645  0.9880 -0.3725 -0.3172
   16CHTO   O15 6667   6.522   3.210   5.232  0.1235  0.3660  0.2635
   16CHTO   C19 6668   6.477   3.216   5.372 -0.2920 -0.1700  0.1064
   16CHTO   H47 6669   6.564   3.259   5.424  0.1070 -1.2189  0.3005
   16CHTO   C20 6670   6.353   3.313   5.400 -0.5850  0.7151 -0.6199
   16CHTO   H48 6671   6.262   3.287   5.344 -1.3391  2.5540 -0.3147
   16CHTO   O19 6672   6.397   3.441   5.350  0.1887  0.7875 -0.5838
   16CHTO   H35 6673   6.485   3.469   5.371  0.3996  0.5823 -1.1853
   16CHTO   C21 6674   6.325   3.320   5.550 -0.3106  0.5400 -0.2859
   16CHTO   H49 6675   6.412   3.351   5.608  0.3795 -0.3975 -0.8205
   16CHTO    N4 6676   6.223   3.427   5.575 -0.5114  0.2485  0.4266
   16CHTO   H41 6677   6.131   3.372   5.586 -0.5717  0.0673 -0.8754
   16CHTO   H42 6678   6.207   3.495   5.493 -0.3731 -0.9939 -0.6542
   16CHTO   C22 6679   6.299   3.172   5.596  0.3903  0.4065  0.1126
   16CHTO   H50 6680   6.212   3.139   5.538  0.9708  0.6152 -0.8934
   16CHTO   O14 6681   6.412   3.085   5.570 -0.1521  0.3836  0.4026
   16CHTO   C23 6682   6.446   3.078   5.438 -0.1819 -0.1423 -0.3852
   16CHTO   H51 6683   6.356   3.030   5.398 -0.7976 -0.3789  1.2124
   16CHTO   C34 6684   6.568   2.986   5.417 -0.7884 -0.2226  0.2225
   16CHTO   O23 6685   6.538   2.863   5.476  0.0884  0.1219  0.3467
   16CHTO   H38 6686   6.597   2.799   5.439  0.5500 -0.0469  1.3718
   16CHTO   O16 6687   6.275   3.157   5.736  0.2860  0.6468 -0.5927
   16CHTO   C24 6688   6.270   3.005   5.800  0.3618 -0.5300 -0.1896
   16CHTO   H52 6689   6.304   2.926   5.733  0.0755 -1.0050  0.2236
   16CHTO   C26 6690   6.122   2.985   5.840 -0.5212  0.3679  0.0529
   16CHTO   H54 6691   6.090   3.067   5.908  1.0418 -0.2679  1.5794
   16CHTO   O20 6692   6.044   2.983   5.723  0.0734 -0.5511  0.4568
   16CHTO   H36 6693   5.952   2.995   5.737  0.3489 -0.0656  1.8517
   16CHTO   C30 6694   6.098   2.857   5.928 -0.0126  0.1985 -0.1451
   16CHTO   H58 6695   6.111   2.772   5.860 -0.2262  0.9324 -1.1126
   16CHTO    N6 6696   5.962   2.844   5.982 -0.4740  0.2580 -0.1493
   16CHTO   H45 6697   5.890   2.909   5.936 -1.0438 -0.7752 -0.7402
   16CHTO   H46 6698   5.935   2.739   5.979 -0.7421  0.3401 -0.5752
   16CHTO   C33 6699   6.214   2.834   6.037  0.2119  0.2184 -0.1294
   16CHTO   H61 6700   6.205   2.903   6.123 -0.6839  0.0084 -0.0453
   16CHTO   O18 6701   6.339   2.863   5.975  0.0328 -0.4113  0.7997
   16CHTO   C28 6702   6.361   2.995   5.926 -0.1110 -0.2164 -0.3767
   16CHTO   H56 6703   6.333   3.073   5.997 -0.6030 -0.4753 -0.2806
   16CHTO   C35 6704   6.506   3.005   5.896  0.3528 -0.4922 -0.1266
   16CHTO   O24 6705   6.587   3.004   6.016 -0.4586 -0.5410 -0.1576
   16CHTO   H39 6706   6.674   3.039   6.021 -0.2082 -0.6992 -2.8722
   16CHTO    O9 6707   6.218   2.707   6.099  0.4168 -0.0190 -0.2367
   16CHTO   C13 6708   6.334   2.700   6.223 -0.2954 -0.2511 -0.6487
   16CHTO   H26 6709   6.360   2.805   6.249  0.9327 -0.9552  1.0700
   16CHTO   C11 6710   6.461   2.617   6.178  0.5366 -0.1095 -0.6598
   16CHTO   H24 6711   6.511   2.682   6.105 -2.0138  1.2378 -1.2543
   16CHTO    O8 6712   6.414   2.491   6.115 -0.8397 -0.0940 -0.1164
   16CHTO    H3 6713   6.419   2.422   6.179  1.2094 -0.1843 -0.3482
   16CHTO    C9 6714   6.555   2.610   6.297  0.4126  0.3205  0.4669
   16CHTO   H22 6715   6.568   2.715   6.325 -1.0405  0.7615 -0.4092
   16CHTO    N2 6716   6.688   2.555   6.257 -0.3191 -0.3737 -0.3191
   16CHTO   H10 6717   6.708   2.461   6.307  2.4996 -1.5389 -3.4973
   16CHTO   H11 6718   6.682   2.539   6.151  0.7076 -0.7981 -0.3168
   16CHTO    C7 6719   6.488   2.536   6.423  0.0252  0.0624 -0.0772
   16CHTO   H20 6720   6.510   2.602   6.509  1.7334 -3.1967  2.0651
   16CHTO    O4 6721   6.348   2.521   6.410 -0.3862 -0.0066 -0.6928
   16CHTO   C14 6722   6.277   2.638   6.362 -0.1471  0.1103  0.7359
   16CHTO   H27 6723   6.283   2.714   6.442 -0.4382 -0.3638  1.2099
   16CHTO   C18 6724   6.132   2.596   6.352 -0.1124  0.1496  0.2549
   16CHTO   O13 6725   6.049   2.603   6.468  0.1022  0.2960 -0.4380
   16CHTO    H7 6726   6.097   2.569   6.541 -1.6351 -0.6387  0.3000
   16CHTO    O2 6727   6.555   2.384   6.456  0.0961  0.3400  0.2100
   16CHTO    C1 6728   6.550   2.343   6.591 -0.6905 -0.4450  0.3159
   16CHTO   H14 6729   6.475   2.405   6.645 -1.5661 -1.4198  0.2349
   16CHTO    C2 6730   6.693   2.362   6.664  0.0631 -0.6632  0.7076
   16CHTO   H15 6731   6.776   2.323   6.603  0.7730  0.5713  0.8801
   16CHTO    O6 6732   6.733   2.501   6.677 -0.0985 -0.2487 -0.3031
   16CHTO    H1 6733   6.808   2.515   6.623  0.7924 -0.6236  0.8044
   16CHTO    C3 6734   6.691   2.284   6.808 -0.2048  0.1563 -0.0990
   16CHTO   H16 6735   6.631   2.353   6.870 -0.8757  0.1749 -0.7539
   16CHTO    N1 6736   6.825   2.272   6.870  0.7105  0.2218  0.0939
   16CHTO    H8 6737   6.898   2.253   6.793 -0.8249  2.1696 -1.9032
   16CHTO    H9 6738   6.834   2.187   6.936  0.8332  1.3528  1.5636
   16CHTO    C4 6739   6.614   2.142   6.803 -0.2560 -0.0403  0.0955
   16CHTO   H17 6740   6.672   2.067   6.749  0.0624  1.7180 -2.0592
   16CHTO    O1 6741   6.491   2.158   6.735 -0.3943  0.0196 -0.1585
   16CHTO    C5 6742   6.500   2.200   6.597  0.7430  0.0446  0.1099
   16CHTO   H18 6743   6.560   2.137   6.531 -0.4933 -2.5185  1.3147
   16CHTO   C16 6744   6.355   2.187   6.547 -0.7295 -0.3992 -0.5402
   16CHTO   O11 6745   6.295   2.057   6.567 -0.4189 -0.1947 -0.0892
   16CHTO    H5 6746   6.323   2.028   6.651  2.0439 -0.5415 -0.9971
   16CHTO    O3 6747   6.564   2.096   6.926  0.0391  0.6927 -0.1017
   16CHTO    C6 6748   6.635   1.983   6.984  0.0221  0.1297  0.3594
   16CHTO   H19 6749   6.731   1.961   6.936 -0.2568 -1.2693  0.4265
   16CHTO    C8 6750   6.664   2.010   7.133 -0.0756  0.3341  0.1895
   16CHTO   H21 6751   6.572   2.047   7.178 -0.1295  1.4406 -0.8096
   16CHTO    O7 6752   6.765   2.108   7.144  0.3007  0.0957  0.1701
   16CHTO    H2 6753   6.751   2.188   7.097  0.4646  0.1912  0.2824
   16CHTO   C12 6754   6.708   1.887   7.219 -0.6222 -1.3302  0.2965
   16CHTO   H25 6755   6.812   1.865   7.188 -1.4113 -1.2755 -2.4827
   16CHTO    N3 6756   6.708   1.918   7.371  0.0124  0.4123  0.4486
   16CHTO   H12 6757   6.605   1.926   7.402 -0.0642  0.0274  0.2988
   16CHTO   H13 6758   6.741   1.835   7.430 -0.3402  0.8351  1.2481
   16CHTO   C15 6759   6.622   1.764   7.181 -0.2945 -0.3704 -0.0336
   16CHTO   H28 6760   6.522   1.776   7.224  0.4234  1.5255  1.1902
   16CHTO   O10 6761   6.683   1.631   7.235  0.3095  0.0802 -0.3057
   16CHTO    H4 6762   6.677   1.629   7.328  0.9182  1.6583 -0.2181
   16CHTO    O5 6763   6.604   1.748   7.041 -0.2402  0.0336  0.0201
   16CHTO   C10 6764   6.542   1.857   6.976  0.2502 -0.0179  0.2067
   16CHTO   H23 6765   6.449   1.882   7.026  1.4556  2.2865  1.3761
   16CHTO   C17 6766   6.509   1.818   6.830  0.6762  0.4819 -0.2597
   16CHTO   O12 6767   6.405   1.719   6.832  0.2061 -0.4168 -0.6763
   16CHTO    H6 6768   6.322   1.761   6.845  0.9686  0.6058  1.0211
   17CHTO  H203 6769   6.205   6.049   7.804  0.0174  1.9685 -0.4905
   17CHTO   O82 6770   6.291   6.040   7.842 -0.2487 -0.3172 -0.3575
   17CHTO  C123 6771   6.331   6.165   7.904 -0.2051  0.4463 -0.1495
   17CHTO  H227 6772   6.432   6.149   7.943  0.2112  0.7679 -1.0723
   17CHTO   O77 6773   6.346   6.269   7.795 -0.0882  0.0744 -0.4319
   17CHTO  C118 6774   6.387   6.396   7.840 -0.7136 -0.8950 -0.3347
   17CHTO  H222 6775   6.486   6.383   7.885 -0.2615  1.2916 -0.6482
   17CHTO  C125 6776   6.397   6.490   7.713 -0.4804  0.5679  0.7052
   17CHTO   O84 6777   6.274   6.491   7.639 -0.0451 -0.1616  0.1195
   17CHTO  H205 6778   6.257   6.574   7.596  0.5318 -0.5248 -0.8208
   17CHTO  C114 6779   6.283   6.449   7.939 -0.5529  0.1692  0.5261
   17CHTO  H218 6780   6.187   6.445   7.886  1.3472 -1.9010 -2.9708
   17CHTO  C116 6781   6.276   6.353   8.058 -0.0602 -0.0678  0.5577
   17CHTO  H220 6782   6.373   6.339   8.109 -0.2189 -2.5064  0.2579
   17CHTO   O79 6783   6.185   6.417   8.153 -0.6394  0.5081  0.8136
   17CHTO  H201 6784   6.124   6.475   8.111 -2.1655 -0.9145  1.0410
   17CHTO  C120 6785   6.227   6.208   8.011 -0.4498 -0.3395 -0.5273
   17CHTO  H224 6786   6.136   6.221   7.949 -1.2581 -3.0013  0.0627
   17CHTO   N21 6787   6.224   6.120   8.126  0.2693 -0.0142  0.4832
   17CHTO  H211 6788   6.320   6.075   8.143 -0.0616 -1.0063 -0.2059
   17CHTO  H212 6789   6.137   6.057   8.116 -1.0047  2.1660 -3.3642
   17CHTO   O75 6790   6.310   6.589   7.966  0.1683 -0.3260 -0.2671
   17CHTO  C112 6791   6.495   6.614   8.025  0.4653 -0.5796  0.5418
   17CHTO  H216 6792   6.569   6.578   7.952 -0.4187 -1.4728  0.0653
   17CHTO   O73 6793   6.511   6.552   8.151  0.3683  0.3645  0.2886
   17CHTO  C113 6794   6.619   6.578   8.243  0.0145  0.2450 -0.3604
   17CHTO  H217 6795   6.711   6.544   8.192  0.2482 -0.5050  0.5344
   17CHTO  C124 6796   6.605   6.475   8.359 -0.2591 -0.9324 -0.2368
   17CHTO   O83 6797   6.597   6.339   8.309  0.2278 -0.3675  0.1850
   17CHTO  H204 6798   6.681   6.297   8.305  0.4588  0.1164 -0.1947
   17CHTO  C109 6799   6.607   6.729   8.280 -0.5646 -0.1639 -0.9792
   17CHTO  H213 6800   6.511   6.747   8.331 -1.0610 -1.3820 -1.4612
   17CHTO  C110 6801   6.619   6.817   8.146  1.0228  0.1382 -0.5891
   17CHTO  H214 6802   6.722   6.793   8.118  1.8396  1.5910  1.0965
   17CHTO   O78 6803   6.605   6.962   8.163 -0.4202 -0.1606  0.4245
   17CHTO  H200 6804   6.518   6.983   8.192 -0.8957 -1.0093 -0.3579
   17CHTO  C111 6805   6.512   6.772   8.041  0.4159  0.0069  0.2545
   17CHTO  H215 6806   6.417   6.817   8.072 -0.6755  0.3029 -3.3412
   17CHTO   N19 6807   6.537   6.826   7.904 -0.5942 -0.1248 -0.1612
   17CHTO  H207 6808   6.452   6.868   7.852 -0.4866  1.6868  1.0707
   17CHTO  H208 6809   6.630   6.881   7.901 -0.5455 -0.1264  1.1159
   17CHTO   O74 6810   6.716   6.759   8.372 -0.4691  0.3174 -0.4048
   17CHTO  C115 6811   6.655   6.828   8.511  0.1019  0.1464  0.8325
   17CHTO  H219 6812   6.563   6.882   8.488  1.5665  2.4192  0.0908
   17CHTO   O76 6813   6.612   6.718   8.619 -0.6925 -0.2282  0.5917
   17CHTO  C122 6814   6.720   6.666   8.692 -0.5652 -0.6261 -0.4871
   17CHTO  H226 6815   6.792   6.622   8.622  1.0957  1.4898 -0.1696
   17CHTO  C126 6816   6.663   6.548   8.791 -0.0640  0.4589  0.4094
   17CHTO   O85 6817   6.547   6.581   8.865  0.1512  0.7254 -0.7353
   17CHTO  H206 6818   6.515   6.499   8.897  1.0356  0.4677 -0.5133
   17CHTO  C121 6819   6.789   6.780   8.781 -0.6405  0.7232  0.0572
   17CHTO  H225 6820   6.763   6.766   8.888 -4.2867  0.5154 -0.7619
   17CHTO   O81 6821   6.927   6.760   8.782  0.2925  0.1057  0.2323
   17CHTO  H202 6822   6.961   6.823   8.844 -0.2553 -0.7914  1.4689
   17CHTO  C119 6823   6.764   6.923   8.726  0.1462 -0.3582 -0.9146
   17CHTO  H223 6824   6.662   6.950   8.754 -0.2294 -0.5114 -2.0953
   17CHTO  C117 6825   6.767   6.927   8.567  0.4051 -0.4930 -0.4294
   17CHTO  H221 6826   6.860   6.899   8.518  0.4206 -0.3746 -0.4697
   17CHTO   N20 6827   6.742   7.076   8.519 -0.1214 -0.4689 -0.2116
   17CHTO  H209 6828   6.802   7.139   8.583  0.0987 -0.1418 -0.7462
   17CHTO  H210 6829   6.748   7.083   8.412 -1.1236 -0.5056 -0.2715
   17CHTO   O80 6830   6.845   7.026   8.802 -0.5942 -1.0821 -0.4305
   17CHTO  C103 6831   6.794   7.094   8.936 -0.2935 -0.5387 -0.9599
   17CHTO  H190 6832   6.689   7.069   8.949 -0.1183 -1.8757 -1.9882
   17CHTO  C101 6833   6.873   7.048   9.065 -0.0359  0.9127 -0.4514
   17CHTO  H188 6834   6.981   7.059   9.053  0.3785 -0.6697  1.5138
   17CHTO   O68 6835   6.846   6.901   9.095  0.3074 -0.2242 -0.2416
   17CHTO  H168 6836   6.918   6.852   9.131 -0.7410 -1.5209  0.1062
   17CHTO   C99 6837   6.846   7.152   9.186  0.0919 -0.3784 -0.0930
   17CHTO  H186 6838   6.739   7.153   9.214  0.1990 -1.4939  0.3534
   17CHTO   N17 6839   6.920   7.116   9.313 -0.2116 -0.1946 -0.7394
   17CHTO  H174 6840   6.869   7.164   9.396  1.1697  1.3912 -0.7758
   17CHTO  H175 6841   7.025   7.141   9.307 -0.5457  1.2568 -0.9232
   17CHTO   C97 6842   6.877   7.296   9.143 -0.0670 -0.5655 -0.2739
   17CHTO  H184 6843   6.981   7.288   9.108 -0.8057 -1.6586 -2.2948
   17CHTO   O64 6844   6.783   7.332   9.037 -0.1167 -0.0111 -0.2684
   17CHTO  C104 6845   6.796   7.256   8.915  0.3916 -0.8905  0.4215
   17CHTO  H191 6846   6.882   7.284   8.854  1.5019  1.3642  2.8862
   17CHTO  C108 6847   6.674   7.293   8.829 -0.2180 -0.2723  0.3471
   17CHTO   O71 6848   6.661   7.435   8.796 -0.2568  0.0545 -0.0406
   17CHTO  H171 6849   6.592   7.477   8.844 -0.6180 -3.4470  2.7426
   17CHTO   O62 6850   6.853   7.398   9.246  0.0619 -0.4970 -0.6570
   17CHTO   C91 6851   6.911   7.528   9.229  0.3679 -0.1529 -1.0722
   17CHTO  H178 6852   6.983   7.520   9.148  0.4954  2.0632 -1.1967
   17CHTO   C92 6853   6.985   7.556   9.356  0.0957 -0.3563 -0.0093
   17CHTO  H179 6854   7.055   7.475   9.383  0.5548 -0.8769 -2.6322
   17CHTO   O66 6855   7.067   7.673   9.328  0.6841 -0.2355  1.0213
   17CHTO  H166 6856   7.014   7.731   9.277  0.2794  1.0374  2.8293
   17CHTO   C93 6857   6.889   7.585   9.479  1.0087 -0.5206  0.2547
   17CHTO  H180 6858   6.944   7.656   9.543  0.5498 -0.1059  0.1922
   17CHTO   N16 6859   6.868   7.471   9.570 -0.4348 -0.6035 -0.1365
   17CHTO  H172 6860   6.883   7.498   9.673  0.1998 -0.1341 -0.3482
   17CHTO  H173 6861   6.763   7.449   9.557  0.0105 -2.5783 -0.6143
   17CHTO   C94 6862   6.754   7.647   9.433  0.8363 -0.8119 -0.5574
   17CHTO  H181 6863   6.680   7.573   9.402 -1.8221  1.2697  0.6590
   17CHTO   O61 6864   6.773   7.722   9.314  0.4308  0.2326 -0.0639
   17CHTO   C95 6865   6.799   7.634   9.200 -0.6226 -0.2281  0.4741
   17CHTO  H182 6866   6.708   7.581   9.173 -1.3942  0.6871  1.2163
   17CHTO  C106 6867   6.846   7.715   9.083 -0.3309  0.0299  0.8968
   17CHTO   O69 6868   6.835   7.644   8.958  0.1072 -0.0079 -0.3705
   17CHTO  H169 6869   6.743   7.626   8.950 -0.1189  0.3628  1.1575
   17CHTO   O63 6870   6.681   7.745   9.547 -0.5599 -0.2849 -0.5463
   17CHTO   C96 6871   6.533   7.726   9.553 -1.1272 -0.3232 -0.5289
   17CHTO  H183 6872   6.520   7.618   9.562 -1.7497 -0.1490  0.6825
   17CHTO   C98 6873   6.450   7.779   9.431  0.0671 -0.3421  0.2316
   17CHTO  H185 6874   6.487   7.881   9.412 -4.6270  2.4452  4.6835
   17CHTO   O67 6875   6.477   7.704   9.315  0.0432  0.8437  0.0811
   17CHTO  H167 6876   6.407   7.647   9.290  1.9851 -1.3195 -0.6750
   17CHTO  C102 6877   6.291   7.784   9.459 -0.1249 -0.0342 -0.0888
   17CHTO  H189 6878   6.243   7.685   9.459  0.7355 -0.4584  0.8689
   17CHTO   N18 6879   6.218   7.863   9.361 -0.2894  0.0283 -0.1052
   17CHTO  H176 6880   6.169   7.802   9.286  0.4870 -1.0581  0.2598
   17CHTO  H177 6881   6.261   7.954   9.321 -1.0706 -0.2312 -1.5739
   17CHTO  C105 6882   6.264   7.835   9.606  0.4042  0.1304  0.2002
   17CHTO  H192 6883   6.253   7.943   9.609  2.8560  0.4249 -0.3650
   17CHTO   O65 6884   6.337   7.777   9.709  0.0452 -0.8036 -0.0563
   17CHTO  C100 6885   6.481   7.793   9.683 -0.3524 -0.2208 -0.0746
   17CHTO  H187 6886   6.502   7.901   9.675  0.2970 -0.4461 -1.6321
   17CHTO  C107 6887   6.557   7.739   9.810  0.2135 -0.5718 -0.2584
   17CHTO   O70 6888   6.523   7.813   9.931  0.3351 -0.2939  0.1649
   17CHTO  H170 6889   6.547   7.753   9.999 -1.5038  0.8320  1.8791
   17CHTO   O57 6890   6.109   7.784   9.632  0.2670 -0.0840 -0.0260
   17CHTO   C85 6891   6.038   7.875   9.716 -1.0386  0.8766  0.0903
   17CHTO  H157 6892   6.098   7.968   9.712 -0.1185  0.2067 -2.7114
   17CHTO   C83 6893   6.041   7.840   9.863  0.6101  0.6288 -0.2026
   17CHTO  H155 6894   6.147   7.836   9.886  0.3612  1.9530  1.3560
   17CHTO   O56 6895   5.987   7.708   9.873 -0.9653 -0.0109 -0.4034
   17CHTO  H135 6896   5.894   7.717   9.864 -0.7364 -0.3090 -3.7848
   17CHTO   C81 6897   5.979   7.942   9.960  0.9969 -0.1538 -0.3822
   17CHTO  H153 6898   6.030   8.034   9.931  2.8416 -1.6398 -2.0706
   17CHTO   N14 6899   6.004   7.920  10.103  0.0657 -0.2058 -0.0128
   17CHTO  H141 6900   6.037   8.004  10.161  0.1394 -0.9024  0.9785
   17CHTO  H142 6901   6.070   7.837  10.119  1.0937  0.7256  0.6154
   17CHTO   C79 6902   5.831   7.949   9.925  0.9034  0.1088  0.1466
   17CHTO  H151 6903   5.786   8.023   9.991  2.6610 -0.5542  2.1378
   17CHTO   O52 6904   5.813   7.990   9.778  0.0213 -0.9483 -0.1117
   17CHTO   C86 6905   5.884   7.902   9.679 -0.3500 -0.3102 -0.0312
   17CHTO  H158 6906   5.833   7.804   9.680  1.5933 -1.4171 -2.5680
   17CHTO   C90 6907   5.861   7.960   9.539 -0.4562  0.5953  0.2765
   17CHTO   O60 6908   5.895   7.880   9.428 -0.1406  0.3583 -0.2922
   17CHTO  H138 6909   5.897   7.925   9.346 -0.8403  1.4256  0.2799
   17CHTO   O50 6910   5.763   7.827   9.959 -0.0622  0.1221 -0.0524
   17CHTO   C73 6911   5.647   7.768  10.001 -0.3678 -0.9085 -0.8914
   17CHTO  H145 6912   5.580   7.843  10.045  1.3431  0.2933 -0.3093
   17CHTO   C74 6913   5.689   7.674  10.117  0.2820 -0.5760 -0.2632
   17CHTO  H146 6914   5.754   7.736  10.180 -0.4500  0.1771 -0.2343
   17CHTO   O54 6915   5.568   7.662  10.184  1.0385 -0.2395 -0.2005
   17CHTO  H133 6916   5.581   7.649  10.276  2.1041  0.0991 -0.2943
   17CHTO   C75 6917   5.760   7.549  10.055 -0.9109 -0.5467  0.3516
   17CHTO  H147 6918   5.859   7.583  10.022  0.2570 -0.4853  3.7059
   17CHTO   N13 6919   5.794   7.446  10.158  0.6317 -0.7151 -0.3267
   17CHTO  H139 6920   5.816   7.358  10.099 -2.1720 -1.1153 -0.8275
   17CHTO  H140 6921   5.704   7.427  10.213 -0.1761  0.4200 -1.2198
   17CHTO   C76 6922   5.686   7.489   9.919  0.2136  0.1045  0.4514
   17CHTO  H148 6923   5.594   7.435   9.936  0.5559 -1.6697 -2.9584
   17CHTO   O49 6924   5.656   7.593   9.826 -0.1400  0.2403  0.3564
   17CHTO   C77 6925   5.572   7.694   9.884  0.9073  0.1686  0.3368
   17CHTO  H149 6926   5.481   7.645   9.919 -0.1068  2.1735  0.5458
   17CHTO   C88 6927   5.530   7.792   9.774  0.6173  0.1281 -0.4377
   17CHTO   O58 6928   5.459   7.870   9.805 -0.0694 -0.5401  0.1115
   17CHTO  H136 6929   5.422   7.918   9.734  0.1136 -0.5189  0.0316
   17CHTO   O51 6930   5.805   7.390   9.817 -0.9173  0.2709 -0.0978
   17CHTO   C78 6931   5.732   7.348   9.685 -0.1716 -0.3792 -1.3554
   17CHTO  H150 6932   5.632   7.393   9.672 -0.2426 -0.4497 -1.0642
   17CHTO   C80 6933   5.705   7.193   9.689  0.0477 -0.0337  0.5723
   17CHTO  H152 6934   5.802   7.139   9.700  0.4773  0.2986 -1.3363
   17CHTO   O55 6935   5.617   7.168   9.800 -0.2018  0.0613  0.4880
   17CHTO  H134 6936   5.608   7.076   9.818 -0.6499  0.0811  0.3622
   17CHTO   C84 6937   5.646   7.150   9.549 -0.4275 -0.1282  0.2845
   17CHTO  H156 6938   5.547   7.195   9.538  0.1173  0.7138 -1.3846
   17CHTO   N15 6939   5.624   7.005   9.553  0.5671  0.2747  0.7253
   17CHTO  H143 6940   5.607   6.966   9.650 -1.5946  0.0397  0.2592
   17CHTO  H144 6941   5.707   6.955   9.506  0.2161  0.3098  0.0570
   17CHTO   C87 6942   5.744   7.192   9.436  0.0210 -0.3583 -0.1022
   17CHTO  H159 6943   5.839   7.147   9.467 -0.4231 -0.1228  1.6774
   17CHTO   O53 6944   5.760   7.340   9.447 -0.1305  0.0534  0.2744
   17CHTO   C82 6945   5.817   7.392   9.571 -0.8431 -0.3341  0.2086
   17CHTO  H154 6946   5.918   7.352   9.576 -0.6505  0.1419  0.1292
   17CHTO   C89 6947   5.826   7.543   9.553  0.7491 -0.2134 -0.1269
   17CHTO   O59 6948   5.917   7.575   9.446 -0.9746  0.1105 -0.4076
   17CHTO  H137 6949   5.937   7.665   9.434  0.9557 -0.4831 -1.9257
   17CHTO   O45 6950   5.693   7.150   9.282  0.1824 -0.2835 -0.4476
   17CHTO   C67 6951   5.804   7.108   9.198 -0.4581  0.5407  0.4878
   17CHTO  H124 6952   5.899   7.088   9.248  1.5540  0.8709 -3.0504
   17CHTO   C65 6953   5.768   6.982   9.114 -0.6590  0.0618  0.0979
   17CHTO  H122 6954   5.691   6.928   9.169 -0.2795 -1.0511 -0.4343
   17CHTO   O44 6955   5.873   6.884   9.077 -0.7757 -0.5308 -0.6501
   17CHTO  H102 6956   5.841   6.813   9.026  1.4569 -2.6580  0.7835
   17CHTO   C63 6957   5.676   7.026   8.992  0.1746 -0.1690  0.2302
   17CHTO  H120 6958   5.606   7.099   9.032  0.6151 -0.3136  1.2905
   17CHTO   N11 6959   5.587   6.930   8.918 -0.4572 -0.2840  0.0675
   17CHTO  H108 6960   5.484   6.957   8.921 -0.1089  1.0195  0.7955
   17CHTO  H109 6961   5.605   6.829   8.950 -0.1708 -0.2350  0.0680
   17CHTO   C61 6962   5.773   7.108   8.900 -0.2616 -1.1665 -0.6020
   17CHTO  H118 6963   5.714   7.176   8.837  0.2337 -0.8113 -0.6847
   17CHTO   O40 6964   5.869   7.195   8.971  0.3099 -0.0287 -0.4136
   17CHTO   C68 6965   5.829   7.239   9.102  0.7455 -0.2025 -0.6668
   17CHTO  H125 6966   5.736   7.297   9.084  0.3567 -0.5236  0.2845
   17CHTO   C72 6967   5.937   7.335   9.151 -0.1891  0.6718  0.6007
   17CHTO   O48 6968   5.932   7.458   9.077 -0.0626 -0.0560 -0.2597
   17CHTO  H105 6969   5.997   7.518   9.110 -0.4241 -0.2563  0.8395
   17CHTO   O38 6970   5.864   7.032   8.813  0.0767  0.3335  0.3912
   17CHTO   C55 6971   5.897   7.066   8.674 -0.7230  0.0946  0.3080
   17CHTO  H112 6972   5.985   7.000   8.658 -0.2391  1.4491 -3.1690
   17CHTO   C56 6973   5.939   7.219   8.644 -0.7002 -0.0112  0.1457
   17CHTO  H113 6974   5.859   7.286   8.680 -0.0488  0.8984 -0.0976
   17CHTO   O42 6975   6.052   7.280   8.710  0.0103  0.2325 -0.0551
   17CHTO  H100 6976   6.031   7.277   8.802 -0.3451  0.4927 -0.1284
   17CHTO   C57 6977   5.966   7.232   8.487  0.6369 -0.3479 -0.5994
   17CHTO  H114 6978   6.056   7.176   8.465  2.7632  2.3996  0.8100
   17CHTO   N10 6979   5.979   7.374   8.437  0.1587 -0.7548 -1.1826
   17CHTO  H106 6980   6.021   7.369   8.338  1.2039 -2.8493 -0.6664
   17CHTO  H107 6981   6.049   7.429   8.499  0.2255  0.2354 -2.1247
   17CHTO   C58 6982   5.853   7.166   8.405 -0.6466  0.0707  0.1513
   17CHTO  H115 6983   5.758   7.218   8.427 -1.1261 -0.8427  0.2147
   17CHTO   O37 6984   5.833   7.025   8.442 -0.0436 -0.1789 -0.5396
   17CHTO   C59 6985   5.785   7.016   8.576  0.1825  0.0390 -0.0227
   17CHTO  H116 6986   5.694   7.071   8.599 -0.6718 -2.2629  2.2698
   17CHTO   C70 6987   5.732   6.873   8.597  0.7403 -0.3642 -0.4709
   17CHTO   O46 6988   5.622   6.843   8.509 -0.0301 -0.7578 -0.4762
   17CHTO  H103 6989   5.634   6.762   8.463  0.8238  0.6736 -2.8655
   17CHTO   O39 6990   5.878   7.165   8.237  0.4398 -0.0135  0.2929
   17CHTO   C60 6991   5.805   7.264   8.156 -0.2892  0.2620 -0.1050
   17CHTO  H117 6992   5.752   7.334   8.221 -1.0172 -0.7021  0.3483
   17CHTO   C62 6993   5.897   7.369   8.071 -0.0786  0.6127  0.2760
   17CHTO  H119 6994   5.970   7.412   8.142  0.3691  0.8594 -0.3315
   17CHTO   O43 6995   5.971   7.306   7.964  0.7452 -0.4481  0.4644
   17CHTO  H101 6996   6.051   7.266   7.992  0.7317 -0.5521  0.3540
   17CHTO   C66 6997   5.810   7.494   8.021 -0.9739 -0.2092  0.5050
   17CHTO  H123 6998   5.756   7.531   8.109  0.3868  1.1038  0.8118
   17CHTO   N12 6999   5.890   7.614   7.979 -0.6232 -0.2608  0.4189
   17CHTO  H110 7000   5.832   7.705   7.977  1.3400  1.0146 -0.2763
   17CHTO  H111 7001   5.971   7.610   7.908  0.7103 -0.9405  1.9329
   17CHTO   C69 7002   5.697   7.451   7.920  0.2452  0.6680  0.1551
   17CHTO  H126 7003   5.748   7.396   7.838 -3.0233  0.1984 -1.6342
   17CHTO   O41 7004   5.610   7.327   7.993 -0.3697  0.0233  0.2096
   17CHTO   C64 7005   5.701   7.206   8.057 -0.0572 -0.1828  0.0619
   17CHTO  H121 7006   5.755   7.151   7.978 -0.2731 -0.4523  0.1031
   17CHTO   C71 7007   5.609   7.113   8.135 -0.0863  0.2550 -0.0028
   17CHTO   O47 7008   5.498   7.061   8.059 -0.0053  0.6333  0.3057
   17CHTO  H104 7009   5.419   7.111   8.053 -1.5694 -1.8353 -0.5346
   17CHTO   O34 7010   5.614   7.563   7.867 -0.6899  0.0305  0.0439
   17CHTO   C49 7011   5.535   7.644   7.756  0.2944  0.5499  0.6960
   17CHTO   H91 7012   5.601   7.723   7.721 -0.9248  0.4071 -2.0397
   17CHTO   C47 7013   5.414   7.717   7.824  0.5061  0.0796  0.0159
   17CHTO   H89 7014   5.349   7.757   7.743  0.2171  0.8512  0.6219
   17CHTO   O33 7015   5.451   7.822   7.916 -0.3261 -0.0406  0.2870
   17CHTO   H70 7016   5.526   7.871   7.890  2.4034 -4.1248  0.0829
   17CHTO   C45 7017   5.318   7.604   7.886  0.1879 -0.3148  0.8102
   17CHTO   H87 7018   5.349   7.591   7.991  0.9037  2.9705  1.0631
   17CHTO    N8 7019   5.177   7.647   7.890 -0.3114  0.5827  0.1391
   17CHTO   H75 7020   5.162   7.753   7.880 -3.7967  0.1072 -0.4805
   17CHTO   H76 7021   5.106   7.595   7.827 -0.8339  1.0636  0.3274
   17CHTO   C43 7022   5.343   7.460   7.819 -0.1815 -0.4495  0.7312
   17CHTO   H85 7023   5.424   7.417   7.878  1.2672 -0.7371 -1.4099
   17CHTO   O29 7024   5.376   7.467   7.680  0.5168  0.0617 -0.4683
   17CHTO   C50 7025   5.486   7.547   7.640  0.1189  0.3649  0.0021
   17CHTO   H92 7026   5.567   7.475   7.624 -0.0834  0.7414 -2.9315
   17CHTO   C54 7027   5.448   7.618   7.510 -0.6832  0.0482 -0.0731
   17CHTO   O36 7028   5.540   7.711   7.459 -0.5204 -0.2798  0.2813
   17CHTO   H72 7029   5.619   7.665   7.437  0.4911  0.7740  1.6168
   17CHTO   O27 7030   5.237   7.362   7.829 -0.0820  0.0429  0.2042
   17CHTO   C37 7031   5.254   7.223   7.868 -0.6403  0.0391  0.3776
   17CHTO   H79 7032   5.313   7.222   7.960 -0.6933  0.3056  0.4145
   17CHTO   C38 7033   5.115   7.161   7.904  0.1225  0.0701 -0.6335
   17CHTO   H80 7034   5.042   7.193   7.828 -0.4261 -0.9579 -0.5429
   17CHTO   O31 7035   5.076   7.226   8.028 -0.5022 -0.3878 -0.7326
   17CHTO   H68 7036   4.989   7.209   8.058 -0.2201  1.6749  1.3996
   17CHTO   C39 7037   5.113   7.000   7.925 -0.0666  0.6305  0.3384
   17CHTO   H81 7038   5.174   6.987   8.015 -0.0827 -1.0136  0.1134
   17CHTO    N7 7039   4.976   6.944   7.940 -0.1952 -0.1286 -0.7435
   17CHTO   H73 7040   4.960   6.837   7.943  2.6681 -0.6657 -3.0293
   17CHTO   H74 7041   4.896   7.010   7.909 -0.9903 -1.6949 -2.1007
   17CHTO   C40 7042   5.182   6.937   7.797 -0.2530  0.5905 -0.0667
   17CHTO   H82 7043   5.115   6.936   7.710  0.3392 -0.6080 -0.5121
   17CHTO   O26 7044   5.315   7.000   7.775  0.1936  0.2385  0.1324
   17CHTO   C41 7045   5.323   7.144   7.752 -0.1341 -0.1383  0.1469
   17CHTO   H83 7046   5.278   7.170   7.655 -0.8079 -1.0041  0.2180
   17CHTO   C52 7047   5.475   7.182   7.729  0.1051 -0.4565 -0.4415
   17CHTO   O35 7048   5.531   7.108   7.670  0.4267 -0.5464  0.6387
   17CHTO   H71 7049   5.622   7.103   7.694  0.4359 -2.1365  0.3427
   17CHTO   O28 7050   5.218   6.799   7.817  0.8082 -0.1246 -0.0842
   17CHTO   C42 7051   5.341   6.738   7.881 -0.0418 -0.8250 -0.4692
   17CHTO   H84 7052   5.327   6.630   7.873 -0.0991 -0.8519  0.0072
   17CHTO   C44 7053   5.352   6.767   8.032 -0.3904 -0.0404 -0.4152
   17CHTO   H86 7054   5.367   6.874   8.047 -2.0696 -0.2962  3.8427
   17CHTO   O32 7055   5.222   6.734   8.082  0.6448  0.0961  0.0245
   17CHTO   H69 7056   5.185   6.661   8.038 -3.6923  2.0894  0.0994
   17CHTO   C48 7057   5.465   6.678   8.103 -1.2048 -0.0209  0.0210
   17CHTO   H90 7058   5.456   6.571   8.087 -1.3378 -0.1033  0.6216
   17CHTO    N9 7059   5.479   6.696   8.248  0.0122 -0.4711 -0.3374
   17CHTO   H77 7060   5.552   6.769   8.276 -0.2934 -0.4970  0.5439
   17CHTO   H78 7061   5.383   6.691   8.297  0.0278 -0.4391 -0.3034
   17CHTO   C51 7062   5.598   6.701   8.023 -0.0842  0.5204 -0.6287
   17CHTO   H93 7063   5.616   6.806   8.043  2.9096 -0.0565 -0.1238
   17CHTO   O30 7064   5.569   6.673   7.890  0.3693 -0.1394  0.4704
   17CHTO   C46 7065   5.485   6.768   7.823 -0.1112 -0.3464  0.5746
   17CHTO   H88 7066   5.518   6.869   7.849  1.5490 -0.5813 -0.5620
   17CHTO   C53 7067   5.494   6.742   7.667  0.1682  0.4735  0.3496
   17CHTO   O72 7068   5.618   6.789   7.619  0.0809 -0.1585 -0.3553
   17CHTO  H199 7069   5.609   6.877   7.588  0.0975  0.0350  0.1685
   17CHTO   O22 7070   5.713   6.624   8.060  0.0979 -0.4083  0.3391
   17CHTO   C31 7071   5.842   6.690   8.044  0.1482  0.4773  0.4536
   17CHTO   H59 7072   5.918   6.610   8.056  0.6264  0.7490 -0.7851
   17CHTO   C29 7073   5.863   6.756   7.904  0.3926 -0.0106  0.1830
   17CHTO   H57 7074   5.778   6.824   7.888 -2.3765 -3.5125 -0.5848
   17CHTO   O21 7075   5.845   6.656   7.803  0.4755  0.0819  0.1820
   17CHTO   H37 7076   5.853   6.691   7.717 -0.4345 -0.8408 -0.2896
   17CHTO   C27 7077   6.006   6.828   7.894  0.4716  0.6931 -0.5302
   17CHTO   H55 7078   6.087   6.754   7.899 -0.8554 -0.9060 -1.8809
   17CHTO    N5 7079   6.023   6.902   7.768 -0.4053  0.2741 -0.8745
   17CHTO   H43 7080   5.992   7.004   7.787 -1.5189 -0.2220 -0.0053
   17CHTO   H44 7081   5.976   6.855   7.683  2.3999 -2.2489 -1.0960
   17CHTO   C25 7082   6.028   6.909   8.025 -0.6751 -0.2783 -0.2829
   17CHTO   H53 7083   5.978   7.007   8.018  0.3870  0.4254  1.5236
   17CHTO   O17 7084   5.997   6.851   8.155 -0.5085  0.4500 -0.0514
   17CHTO   C32 7085   5.867   6.791   8.162 -0.3443  0.1046 -0.3639
   17CHTO   H60 7086   5.797   6.873   8.147 -1.3530 -1.0702 -2.2303
   17CHTO   C36 7087   5.869   6.724   8.298 -0.0977  0.2464 -0.6184
   17CHTO   O25 7088   5.979   6.624   8.304  0.2929 -0.4106 -0.0896
   17CHTO   H40 7089   6.063   6.663   8.289 -0.9199  1.9558 -1.1327
   17CHTO   O15 7090   6.171   6.950   8.034 -0.3070 -0.3502  0.4427
   17CHTO   C19 7091   6.264   7.067   8.033 -0.1607  0.4794 -0.0998
   17CHTO   H47 7092   6.361   7.020   8.051  0.3226  0.2248 -3.0647
   17CHTO   C20 7093   6.285   7.156   7.911 -0.4939 -0.1930 -0.9967
   17CHTO   H48 7094   6.187   7.192   7.877 -1.7780 -2.6074  0.0594
   17CHTO   O19 7095   6.338   7.075   7.806 -0.2165  0.3707  0.2916
   17CHTO   H35 7096   6.325   7.112   7.721  0.7225 -3.8095 -1.7955
   17CHTO   C21 7097   6.386   7.278   7.933  0.1466 -0.5768 -0.0261
   17CHTO   H49 7098   6.484   7.237   7.957  0.6989  2.8973  4.1033
   17CHTO    N4 7099   6.397   7.373   7.820 -0.2649  0.0966  0.0326
   17CHTO   H41 7100   6.459   7.332   7.742  0.4942  1.1646  0.0479
   17CHTO   H42 7101   6.299   7.388   7.779 -0.2017 -1.1031 -0.5722
   17CHTO   C22 7102   6.351   7.348   8.063 -0.0519  0.9997  0.3441
   17CHTO   H50 7103   6.252   7.387   8.040 -1.1247 -1.0802  1.3831
   17CHTO   O14 7104   6.338   7.254   8.171 -0.9863 -0.1375  0.1126
   17CHTO   C23 7105   6.235   7.152   8.152 -0.8641  0.0020  0.4136
   17CHTO   H51 7106   6.142   7.209   8.138 -1.2786 -0.8588 -0.4688
   17CHTO   C34 7107   6.238   7.067   8.281  0.0073 -0.6870 -0.1825
   17CHTO   O23 7108   6.369   7.017   8.315 -0.5030 -0.9975  0.8303
   17CHTO   H38 7109   6.379   6.949   8.251 -3.1209 -1.3439  0.7289
   17CHTO   O16 7110   6.438   7.451   8.101 -0.4162 -0.4576  0.2496
   17CHTO   C24 7111   6.385   7.557   8.198 -0.0683 -0.5350  0.6139
   17CHTO   H52 7112   6.279   7.544   8.217 -0.8391 -0.2689 -3.1678
   17CHTO   C26 7113   6.397   7.696   8.138  0.1543  0.2054  0.4197
   17CHTO   H54 7114   6.504   7.719   8.119  0.1666  0.8411  1.2103
   17CHTO   O20 7115   6.332   7.689   8.012 -0.7731 -0.2790  0.3812
   17CHTO   H36 7116   6.387   7.730   7.948 -0.3463 -2.5274 -0.7317
   17CHTO   C30 7117   6.334   7.800   8.236  0.3681  0.1244  0.6183
   17CHTO   H58 7118   6.225   7.787   8.228  0.8202 -2.1639 -3.2200
   17CHTO    N6 7119   6.362   7.938   8.187 -0.0238  0.4665  0.3113
   17CHTO   H45 7120   6.315   7.966   8.094 -0.6780  0.7697  0.7312
   17CHTO   H46 7121   6.329   7.999   8.269 -0.3381 -0.0062  0.5410
   17CHTO   C33 7122   6.373   7.788   8.387 -0.6339 -0.0161  0.2090
   17CHTO   H61 7123   6.462   7.850   8.409 -1.9617  1.8579  0.3652
   17CHTO   O18 7124   6.401   7.651   8.421  0.0284 -0.0638 -0.2041
   17CHTO   C28 7125   6.458   7.555   8.331  0.1961  0.1560 -0.3898
   17CHTO   H56 7126   6.566   7.566   8.315  0.1939  0.9048  0.0673
   17CHTO   C35 7127   6.450   7.413   8.395  0.1410  0.0722  0.3224
   17CHTO   O24 7128   6.346   7.394   8.486  0.2063 -0.3372 -0.0623
   17CHTO   H39 7129   6.345   7.304   8.512  1.3198  0.0184  1.2256
   17CHTO    O9 7130   6.268   7.839   8.470  0.0426 -0.5444  0.2451
   17CHTO   C13 7131   6.289   7.820   8.615 -0.7309 -0.4142 -0.6676
   17CHTO   H26 7132   6.398   7.815   8.635 -1.1501 -2.1780  1.3535
   17CHTO   C11 7133   6.220   7.687   8.662 -0.7877 -0.1091  0.2287
   17CHTO   H24 7134   6.285   7.604   8.632  0.1357  0.3762  0.8518
   17CHTO    O8 7135   6.086   7.675   8.607  0.7215  0.1832 -0.5059
   17CHTO    H3 7136   6.075   7.706   8.519  0.5041 -0.1883 -0.6125
   17CHTO    C9 7137   6.210   7.684   8.817 -0.6383 -0.4031  0.4126
   17CHTO   H22 7138   6.313   7.710   8.846  0.0816 -1.7159 -0.8998
   17CHTO    N2 7139   6.203   7.549   8.877  0.2668  0.6000 -0.6010
   17CHTO   H10 7140   6.286   7.487   8.847 -0.0029  1.0556 -2.3778
   17CHTO   H11 7141   6.113   7.491   8.867  0.0496  0.6549  1.0131
   17CHTO    C7 7142   6.114   7.789   8.868 -0.0058  0.1486  0.3637
   17CHTO   H20 7143   6.116   7.794   8.978 -1.6626 -0.5811  0.4454
   17CHTO    O4 7144   6.160   7.916   8.823  0.2601  0.2303 -0.6229
   17CHTO   C14 7145   6.236   7.938   8.704 -0.0154 -0.1706 -0.1363
   17CHTO   H27 7146   6.328   7.989   8.739  0.2599 -0.8187  0.0821
   17CHTO   C18 7147   6.154   8.048   8.630 -0.1063 -0.2437  0.5452
   17CHTO   O13 7148   6.025   8.014   8.584 -0.0245  0.0081  0.3132
   17CHTO    H7 7149   6.040   7.959   8.510  4.7102  1.4992  0.0467
   17CHTO    O2 7150   5.968   7.772   8.822 -0.6101  0.6047 -0.4918
   17CHTO    C1 7151   5.865   7.732   8.910 -0.3055 -0.0928  0.3704
   17CHTO   H14 7152   5.913   7.676   8.993  0.8623  0.4800  0.0999
   17CHTO    C2 7153   5.768   7.639   8.834 -0.1061  0.1765 -0.2507
   17CHTO   H15 7154   5.731   7.701   8.751  0.3161  2.1662  1.0297
   17CHTO    O6 7155   5.846   7.526   8.788 -0.0104  0.4964 -0.0520
   17CHTO    H1 7156   5.799   7.481   8.721  1.0499  1.4766 -1.4695
   17CHTO    C3 7157   5.648   7.592   8.936  0.2785  0.1612  0.6994
   17CHTO   H16 7158   5.695   7.536   9.019  1.5641  0.4989  0.2082
   17CHTO    N1 7159   5.549   7.504   8.865 -0.1859 -0.2208 -0.2708
   17CHTO    H8 7160   5.616   7.442   8.808 -1.5184 -1.3006 -0.7097
   17CHTO    H9 7161   5.500   7.451   8.946 -0.0189 -0.9066 -0.6174
   17CHTO    C4 7162   5.582   7.725   8.992  0.3013  0.1829 -0.2516
   17CHTO   H17 7163   5.523   7.764   8.909  0.7983  0.5267 -0.4411
   17CHTO    O1 7164   5.671   7.811   9.047  0.2613 -0.1276  0.6208
   17CHTO    C5 7165   5.781   7.856   8.972  0.2104  0.1108 -0.8489
   17CHTO   H18 7166   5.752   7.911   8.883  0.2850  1.3451 -0.1215
   17CHTO   C16 7167   5.869   7.952   9.064 -0.5249  0.2051 -0.9309
   17CHTO   O11 7168   5.912   8.065   8.978  0.0820 -0.4838 -0.5832
   17CHTO    H5 7169   5.883   8.147   9.012 -1.7603 -1.9038  1.4328
   17CHTO    O3 7170   5.486   7.695   9.103  0.2733  0.6474  0.3831
   17CHTO    C6 7171   5.381   7.792   9.126 -0.2341 -0.3079 -0.2523
   17CHTO   H19 7172   5.408   7.888   9.083 -0.0282 -0.0493  0.4463
   17CHTO    C8 7173   5.244   7.757   9.046 -0.0812 -0.1721  0.0046
   17CHTO   H21 7174   5.207   7.664   9.087  1.7963 -0.8845  0.1509
   17CHTO    O7 7175   5.270   7.756   8.898 -0.6375  0.3855  0.4908
   17CHTO    H2 7176   5.189   7.748   8.851  0.7295 -0.8951 -1.7388
   17CHTO   C12 7177   5.135   7.870   9.074 -0.0230 -0.2899 -0.2397
   17CHTO   H25 7178   5.179   7.958   9.023 -0.0097 -0.9378 -1.3569
   17CHTO    N3 7179   4.996   7.835   9.010  0.2058 -0.0774 -0.3161
   17CHTO   H12 7180   5.004   7.797   8.909  0.3688  0.4091 -0.4872
   17CHTO   H13 7181   4.925   7.915   9.024 -0.7160 -0.3934 -2.9942
   17CHTO   C15 7182   5.130   7.901   9.228 -0.1244 -0.8845  0.2302
   17CHTO   H28 7183   5.085   7.819   9.284 -1.8113  1.0676  1.8196
   17CHTO   O10 7184   5.045   8.042   9.257  0.4370 -0.5479 -0.8595
   17CHTO    H4 7185   5.108   8.111   9.254  1.1121 -1.2109 -2.5413
   17CHTO    O5 7186   5.254   7.922   9.293 -0.3222 -0.4122  0.1487
   17CHTO   C10 7187   5.350   7.817   9.272 -0.4008 -0.8101 -0.4889
   17CHTO   H23 7188   5.324   7.726   9.327 -0.2279 -0.6824 -0.1944
   17CHTO   C17 7189   5.477   7.865   9.341  0.6552 -0.4498 -0.1045
   17CHTO   O12 7190   5.457   7.908   9.479  0.4150 -0.3186  0.4815
   17CHTO    H6 7191   5.411   7.842   9.526 -1.0164 -0.7742 -1.4739
   18CHTO  H203 7192   5.780   8.525  10.597 -0.4748 -0.4772 -1.4763
   18CHTO   O82 7193   5.752   8.451  10.647 -0.0743  0.3592  0.0083
   18CHTO  C123 7194   5.861   8.366  10.691  0.5128  0.0454  0.8825
   18CHTO  H227 7195   5.822   8.290  10.760  3.2196 -2.5099 -0.2804
   18CHTO   O77 7196   5.902   8.300  10.569  0.5596  0.1917 -0.6204
   18CHTO  C118 7197   5.989   8.188  10.594  0.6006 -0.3575  1.2645
   18CHTO  H222 7198   5.954   8.124  10.676 -0.9848 -0.3066  0.6367
   18CHTO  C125 7199   6.012   8.098  10.465 -0.0510  0.2213 -0.2883
   18CHTO   O84 7200   5.890   8.031  10.431  0.2526  0.1330 -0.2458
   18CHTO  H205 7201   5.899   8.006  10.341  1.9776  1.2491 -0.3977
   18CHTO  C114 7202   6.124   8.240  10.655 -0.3659 -0.2338 -0.1564
   18CHTO  H218 7203   6.181   8.300  10.584  1.8733 -0.0590  1.7388
   18CHTO  C116 7204   6.091   8.330  10.784 -0.3315  0.5002 -0.4573
   18CHTO  H220 7205   6.083   8.266  10.874 -0.8493  3.0592  1.3787
   18CHTO   O79 7206   6.215   8.396  10.816  0.2251  0.2627  0.5177
   18CHTO  H201 7207   6.208   8.475  10.865 -2.4520  0.7551 -0.5562
   18CHTO  C120 7208   5.981   8.443  10.761  0.4003  0.5447  0.0212
   18CHTO  H224 7209   6.031   8.521  10.701 -0.8165  0.3540 -1.2869
   18CHTO   N21 7210   5.944   8.502  10.891  0.2125 -0.0972 -0.0609
   18CHTO  H211 7211   5.846   8.462  10.913 -0.2589  1.2185  0.2800
   18CHTO  H212 7212   5.927   8.607  10.874 -2.2270 -0.3160  0.9124
   18CHTO   O75 7213   6.204   8.125  10.682 -0.3508 -0.4587  0.3515
   18CHTO  C112 7214   6.357   8.135  10.706 -0.1737  0.5701  0.9124
   18CHTO  H216 7215   6.370   8.161  10.812  0.1574 -2.3101  1.6185
   18CHTO   O73 7216   6.398   8.236  10.618  0.4375  0.0022  0.4264
   18CHTO  C113 7217   6.537   8.269  10.636 -0.8745 -0.1080  0.2898
   18CHTO  H217 7218   6.552   8.300  10.742  1.0720 -1.5839  0.4608
   18CHTO  C124 7219   6.566   8.402  10.572  0.3224  0.0353 -0.5313
   18CHTO   O83 7220   6.480   8.498  10.631  0.7595 -0.4689  0.7679
   18CHTO  H204 7221   6.527   8.564  10.678  0.9422  0.6961 -1.0079
   18CHTO  C109 7222   6.632   8.151  10.586 -0.5245 -0.4032 -0.5161
   18CHTO  H213 7223   6.613   8.137  10.479 -2.0048  1.3926 -0.5062
   18CHTO  C110 7224   6.585   8.022  10.661 -0.2814 -0.1873  0.0437
   18CHTO  H214 7225   6.637   8.030  10.757  1.3190 -2.5128 -0.5929
   18CHTO   O78 7226   6.645   7.904  10.596 -0.5010 -0.1090 -0.1999
   18CHTO  H200 7227   6.642   7.907  10.503  2.7842  1.9460 -0.2890
   18CHTO  C111 7228   6.428   8.002  10.671 -0.3935 -0.3382  0.2514
   18CHTO  H215 7229   6.396   7.975  10.569 -0.1846  1.1821 -0.2325
   18CHTO   N19 7230   6.393   7.887  10.761 -0.0166 -0.7976 -0.4982
   18CHTO  H207 7231   6.290   7.868  10.735 -0.2483 -0.1564 -0.0714
   18CHTO  H208 7232   6.466   7.809  10.746  0.7004 -0.6242  1.9341
   18CHTO   O74 7233   6.778   8.173  10.591  0.0124 -0.3766 -0.1219
   18CHTO  C115 7234   6.855   8.105  10.480 -0.6322 -0.5944  0.1998
   18CHTO  H219 7235   6.818   8.004  10.460 -0.2590 -0.3042 -1.9929
   18CHTO   O76 7236   6.850   8.190  10.341  0.5092  0.1266 -0.4282
   18CHTO  C122 7237   6.922   8.312  10.362  1.0711  0.0788  0.4434
   18CHTO  H226 7238   6.893   8.351  10.460  0.0894 -2.2308  1.1123
   18CHTO  C126 7239   6.903   8.429  10.262 -0.0706 -0.2405  0.1971
   18CHTO   O85 7240   6.958   8.557  10.313 -0.0213 -0.3764 -0.0959
   18CHTO  H206 7241   7.048   8.554  10.339 -0.2819  1.3950  1.1396
   18CHTO  C121 7242   7.076   8.283  10.368 -0.2592  0.1069 -0.8567
   18CHTO  H225 7243   7.123   8.310  10.272  0.9295  1.1346 -0.0040
   18CHTO   O81 7244   7.137   8.354  10.475  0.1413  0.0558 -0.1081
   18CHTO  H202 7245   7.153   8.442  10.447  4.0936 -1.6296 -3.6097
   18CHTO  C119 7246   7.105   8.135  10.405  0.3966  0.5485  0.5381
   18CHTO  H223 7247   7.073   8.076  10.319 -0.7829  0.7755  0.8058
   18CHTO  C117 7248   7.006   8.087  10.521  0.2889  0.1162 -0.4467
   18CHTO  H221 7249   7.032   8.138  10.614  0.6559 -1.2614  0.2190
   18CHTO   N20 7250   7.052   7.943  10.547 -0.2554  0.1527 -0.1450
   18CHTO  H209 7251   7.020   7.890  10.459  1.4046 -1.4754  0.2077
   18CHTO  H210 7252   7.011   7.896  10.635  0.8433  0.5121  0.5647
   18CHTO   O80 7253   7.267   8.103  10.411 -0.6769 -0.4134  0.6542
   18CHTO  C103 7254   7.344   8.068  10.258 -0.2229  0.2739  0.1487
   18CHTO  H190 7255   7.440   8.020  10.274 -0.1340  0.7662  1.1071
   18CHTO  C101 7256   7.259   7.969  10.169  0.5716  0.5691 -0.2793
   18CHTO  H188 7257   7.165   8.012  10.135  0.4304  0.3328 -0.1919
   18CHTO   O68 7258   7.233   7.849  10.249 -0.3512 -0.0260  0.0208
   18CHTO  H168 7259   7.301   7.785  10.239 -0.9237 -0.7253  0.5194
   18CHTO   C99 7260   7.338   7.937  10.033  0.1743  0.1534 -0.6309
   18CHTO  H186 7261   7.434   7.890  10.062  0.1401 -0.2364 -1.1573
   18CHTO   N17 7262   7.276   7.843   9.934 -0.2006 -0.1188  0.4890
   18CHTO  H174 7263   7.172   7.834   9.963 -1.5935  0.3853 -3.9393
   18CHTO  H175 7264   7.327   7.748   9.929 -2.8507 -1.5855  0.1070
   18CHTO   C97 7265   7.367   8.074   9.967 -0.5806 -0.0857 -0.2094
   18CHTO  H184 7266   7.274   8.121   9.931 -1.5461 -0.8712  1.1760
   18CHTO   O64 7267   7.446   8.164  10.055 -0.3801  0.0608  0.0765
   18CHTO  C104 7268   7.375   8.195  10.178  0.9860 -0.0134 -0.0404
   18CHTO  H191 7269   7.283   8.242  10.142  0.9082  0.2754  0.5317
   18CHTO  C108 7270   7.440   8.309  10.263 -0.2205 -0.2844  0.8412
   18CHTO   O71 7271   7.575   8.272  10.290  0.0075  0.1136  0.3211
   18CHTO  H171 7272   7.634   8.339  10.318  1.5650 -1.2529  0.4341
   18CHTO   O62 7273   7.464   8.073   9.858  0.3231 -0.7868 -0.0905
   18CHTO   C91 7274   7.428   8.106   9.718  0.0069 -0.0880 -0.2420
   18CHTO  H178 7275   7.327   8.071   9.697 -0.1256 -0.2631  0.6728
   18CHTO   C92 7276   7.526   8.023   9.621 -0.9081 -0.1741  0.4256
   18CHTO  H179 7277   7.631   8.038   9.648  0.1540 -0.5563 -3.1758
   18CHTO   O66 7278   7.499   7.884   9.654 -0.1798 -0.5242 -0.6920
   18CHTO  H166 7279   7.412   7.868   9.622 -0.8004  0.6071  0.3478
   18CHTO   C93 7280   7.494   8.051   9.468 -0.4853  0.0201 -0.0694
   18CHTO  H180 7281   7.396   8.004   9.453  0.6144 -2.4387  0.2390
   18CHTO   N16 7282   7.591   7.975   9.380 -0.0120  0.5287  0.0368
   18CHTO  H172 7283   7.568   7.997   9.277 -1.2293  1.2298  0.4534
   18CHTO  H173 7284   7.573   7.869   9.391 -3.9933  1.1454  0.1500
   18CHTO   C94 7285   7.490   8.205   9.445  0.3815 -1.0483  0.0498
   18CHTO  H181 7286   7.589   8.247   9.430  0.1906 -0.4577  0.4156
   18CHTO   O61 7287   7.429   8.287   9.552 -0.6730  0.5619 -0.0261
   18CHTO   C95 7288   7.438   8.264   9.689  0.2316  0.7606 -0.4176
   18CHTO  H182 7289   7.531   8.310   9.724  0.1326 -0.5950  1.7233
   18CHTO  C106 7290   7.322   8.343   9.761  0.2962  0.0363 -0.8143
   18CHTO   O69 7291   7.205   8.264   9.764  0.1335 -0.2529 -0.5705
   18CHTO  H169 7292   7.177   8.250   9.853 -1.3407  0.1796 -0.9579
   18CHTO   O63 7293   7.387   8.218   9.303  0.1438  0.0987 -0.0634
   18CHTO   C96 7294   7.355   8.362   9.217  0.1602 -0.5005  0.4327
   18CHTO  H183 7295   7.301   8.340   9.125  0.4736 -0.1220  0.1623
   18CHTO   C98 7296   7.474   8.446   9.180 -0.0793  0.3553 -0.5642
   18CHTO  H185 7297   7.530   8.472   9.271 -0.0992 -0.8499 -0.2047
   18CHTO   O67 7298   7.554   8.361   9.109 -0.2033 -0.2018  0.0057
   18CHTO  H167 7299   7.639   8.397   9.095  0.4728 -1.7531 -0.0294
   18CHTO  C102 7300   7.438   8.576   9.092 -0.7447 -0.0053  0.3985
   18CHTO  H189 7301   7.406   8.538   8.993 -0.8669  1.4197 -0.1156
   18CHTO   N18 7302   7.552   8.664   9.054  0.1116 -0.0483  0.1928
   18CHTO  H176 7303   7.544   8.767   9.086 -0.2866 -0.3217  0.9943
   18CHTO  H177 7304   7.578   8.651   8.950 -2.0219 -2.7742 -0.0493
   18CHTO  C105 7305   7.321   8.655   9.158 -0.5290  0.3708 -0.5654
   18CHTO  H192 7306   7.362   8.706   9.246 -1.3765  0.4478 -0.2080
   18CHTO   O65 7307   7.221   8.564   9.208 -0.2960 -0.0198  0.5096
   18CHTO  C100 7308   7.261   8.462   9.301 -0.1172  0.0696  0.3779
   18CHTO  H187 7309   7.310   8.504   9.391 -0.5517  0.2897  0.5151
   18CHTO  C107 7310   7.147   8.377   9.357 -0.2884  0.2581 -0.1881
   18CHTO   O70 7311   7.058   8.451   9.446 -0.1243 -0.0050  0.0962
   18CHTO  H170 7312   6.985   8.489   9.402 -1.3275 -0.7977  1.3572
   18CHTO   O57 7313   7.273   8.773   9.048  0.7686 -0.4626 -0.4542
   18CHTO   C85 7314   7.229   8.897   9.101 -0.0268  0.2787  0.4460
   18CHTO  H157 7315   7.293   8.927   9.187 -1.6026 -0.4882  1.9192
   18CHTO   C83 7316   7.088   8.872   9.162  0.2570 -0.1880 -0.6227
   18CHTO  H155 7317   7.093   8.799   9.243  0.0227  0.7343  0.2328
   18CHTO   O56 7318   6.992   8.822   9.066  0.8413 -0.4652 -0.6548
   18CHTO  H135 7319   6.911   8.807   9.110 -0.8587  0.0408 -3.4821
   18CHTO   C81 7320   7.043   9.006   9.226  0.6797 -0.3370 -0.6921
   18CHTO  H153 7321   7.117   9.035   9.300 -2.6616  0.2823  2.5869
   18CHTO   N14 7322   6.922   8.991   9.309  0.0473 -0.3955  0.2944
   18CHTO  H141 7323   6.901   9.075   9.373 -0.2347 -0.2901  0.0666
   18CHTO  H142 7324   6.931   8.910   9.378 -1.6904  1.0761  2.3314
   18CHTO   C79 7325   7.041   9.121   9.118 -0.1776 -0.7579  0.0266
   18CHTO  H151 7326   7.024   9.215   9.169 -0.3672 -1.1870  0.7610
   18CHTO   O52 7327   7.163   9.142   9.032 -0.4622 -0.0768 -0.0108
   18CHTO   C86 7328   7.220   9.010   8.987  0.1598  0.6936 -0.3434
   18CHTO  H158 7329   7.149   8.980   8.906 -0.1732 -0.2136  0.2722
   18CHTO   C90 7330   7.359   9.039   8.927  0.6170 -0.3621 -0.2835
   18CHTO   O60 7331   7.424   8.950   8.842  0.5096 -0.6037  0.0974
   18CHTO  H138 7332   7.466   9.001   8.776 -2.4955  2.2478  0.2507
   18CHTO   O50 7333   6.928   9.100   9.027 -0.0105  0.1252  0.0127
   18CHTO   C73 7334   6.839   9.181   8.946  0.6082  0.3565  0.0080
   18CHTO  H145 7335   6.893   9.204   8.853 -3.0330 -1.9596 -2.8201
   18CHTO   C74 7336   6.791   9.309   9.027 -0.0047 -0.1737  0.2641
   18CHTO  H146 7337   6.875   9.370   9.065 -0.5437  0.2437  0.7828
   18CHTO   O54 7338   6.734   9.394   8.929 -0.7147  0.0619 -0.4365
   18CHTO  H133 7339   6.664   9.446   8.964 -0.7374  0.6916 -1.3807
   18CHTO   C75 7340   6.689   9.268   9.142  0.5413  0.1076 -0.7238
   18CHTO  H147 7341   6.744   9.204   9.213 -1.1105 -2.1397 -1.3988
   18CHTO   N13 7342   6.628   9.381   9.219 -0.5119 -0.2346 -0.2847
   18CHTO  H139 7343   6.694   9.466   9.225 -1.4213  0.3524  1.4767
   18CHTO  H140 7344   6.592   9.354   9.317 -2.0462  0.4350 -0.6397
   18CHTO   C76 7345   6.575   9.175   9.086 -0.4534 -0.0246 -0.5283
   18CHTO  H148 7346   6.519   9.226   9.007 -2.0502 -1.4585 -0.3533
   18CHTO   O49 7347   6.633   9.054   9.031  0.3224  0.0656 -0.0978
   18CHTO   C77 7348   6.717   9.087   8.911  0.0145 -0.6139  0.5937
   18CHTO  H149 7349   6.652   9.138   8.839 -0.4522 -0.7983  0.8788
   18CHTO   C88 7350   6.775   8.960   8.847  0.1135  0.6126 -0.4091
   18CHTO   O58 7351   6.821   8.979   8.722 -0.4930 -0.1355 -0.2346
   18CHTO  H136 7352   6.896   9.034   8.736 -0.8331  0.1695  0.4055
   18CHTO   O51 7353   6.479   9.132   9.199  0.0606  0.3149 -0.6894
   18CHTO   C78 7354   6.350   9.047   9.181  0.2771 -0.3966 -0.1838
   18CHTO  H150 7355   6.373   8.966   9.109 -0.1576 -2.0102  1.4748
   18CHTO   C80 7356   6.232   9.130   9.130  0.4345  0.1211 -0.0481
   18CHTO  H152 7357   6.222   9.225   9.186 -0.6458 -0.1064  0.1588
   18CHTO   O55 7358   6.265   9.184   9.002 -0.0633  0.2584 -0.0754
   18CHTO  H134 7359   6.196   9.226   8.956 -0.3603  1.5402  1.4953
   18CHTO   C84 7360   6.098   9.052   9.134  0.5969 -0.1245  0.3962
   18CHTO  H156 7361   6.120   8.970   9.065 -0.5529  1.9258 -2.5321
   18CHTO   N15 7362   5.984   9.140   9.091  0.1152 -0.1316 -0.0565
   18CHTO  H143 7363   5.893   9.105   9.135  0.5236 -1.0781  0.0519
   18CHTO  H144 7364   5.972   9.134   8.985  2.7075 -1.9656 -0.2922
   18CHTO   C87 7365   6.082   8.993   9.277 -0.1414 -0.6711 -0.6745
   18CHTO  H159 7366   6.071   9.069   9.354 -4.2290 -2.0582  0.2579
   18CHTO   O53 7367   6.185   8.908   9.310  0.4332 -0.2135  0.1312
   18CHTO   C82 7368   6.315   8.973   9.314  1.0204  0.2920 -0.7455
   18CHTO  H154 7369   6.314   9.046   9.395 -0.5530  0.2033 -0.6768
   18CHTO   C89 7370   6.423   8.870   9.353 -0.2420  0.5607  0.5701
   18CHTO   O59 7371   6.428   8.750   9.276 -0.1511  0.0542 -0.2858
   18CHTO  H137 7372   6.468   8.682   9.326 -2.7979  0.8769  3.1486
   18CHTO   O45 7373   5.929   8.923   9.295  0.3231 -0.2740 -0.3097
   18CHTO   C67 7374   5.897   8.890   9.433  0.8439  0.1026  0.8875
   18CHTO  H124 7375   5.981   8.925   9.494  0.2493  1.7491  0.7942
   18CHTO   C65 7376   5.768   8.963   9.474  0.6694 -0.1800 -0.2379
   18CHTO  H122 7377   5.713   8.961   9.380 -0.2675 -0.5890  0.3131
   18CHTO   O44 7378   5.812   9.096   9.508  0.3759 -0.2603  0.1247
   18CHTO  H102 7379   5.758   9.167   9.482 -0.1143 -1.4468 -2.2012
   18CHTO   C63 7380   5.673   8.880   9.576 -0.0016  0.3757  0.6639
   18CHTO  H120 7381   5.612   8.813   9.515  0.1737  0.2048  0.6797
   18CHTO   N11 7382   5.559   8.951   9.638  0.1645 -0.1163 -0.4146
   18CHTO  H108 7383   5.468   8.968   9.584  0.4055 -0.6124 -0.9835
   18CHTO  H109 7384   5.598   9.048   9.663  0.6026 -0.5483  0.6193
   18CHTO   C61 7385   5.774   8.807   9.676 -0.0789 -0.0672  0.1345
   18CHTO  H118 7386   5.718   8.743   9.746 -2.5050 -0.0704 -1.7148
   18CHTO   O40 7387   5.866   8.716   9.603  0.3046 -0.7534 -0.1033
   18CHTO   C68 7388   5.882   8.741   9.456  0.3081  0.5345  0.0564
   18CHTO  H125 7389   5.792   8.710   9.398  0.9337 -0.6590 -0.2851
   18CHTO   C72 7390   5.994   8.650   9.422 -0.1439 -0.1066  0.2685
   18CHTO   O48 7391   6.020   8.649   9.278 -0.2295 -0.1563 -0.2121
   18CHTO  H105 7392   5.949   8.632   9.219  0.7207  0.3405 -1.5009
   18CHTO   O38 7393   5.848   8.904   9.757 -0.0831 -0.4128  0.4036
   18CHTO   C55 7394   5.916   8.837   9.868 -0.0293  0.3762 -0.2358
   18CHTO  H112 7395   5.925   8.728   9.867  2.3690  0.5473  0.5616
   18CHTO   C56 7396   5.844   8.890  10.002 -0.0358 -0.5846 -0.4861
   18CHTO  H113 7397   5.828   8.998   9.994  0.4431 -0.3497  1.3529
   18CHTO   O42 7398   5.718   8.826   9.996 -0.3488  0.7550  0.5546
   18CHTO  H100 7399   5.650   8.879  10.033 -0.2494  1.3844 -0.1538
   18CHTO   C57 7400   5.932   8.866  10.125  0.1046 -0.1879  0.0146
   18CHTO  H114 7401   5.940   8.758  10.137 -1.3980 -0.1982  1.0808
   18CHTO   N10 7402   5.864   8.899  10.258 -0.2063 -0.6674  0.8692
   18CHTO  H106 7403   5.864   9.005  10.279 -0.0925 -0.8173  1.6184
   18CHTO  H107 7404   5.763   8.862  10.255 -0.7019  0.7405 -1.6257
   18CHTO   C58 7405   6.068   8.941  10.104 -1.0827  0.6528  0.2344
   18CHTO  H115 7406   6.049   9.050  10.098 -1.6113  0.5415 -0.1561
   18CHTO   O37 7407   6.129   8.886   9.983  0.2305 -0.5016 -0.1432
   18CHTO   C59 7408   6.056   8.907   9.860  0.4176  0.1114 -0.4072
   18CHTO  H116 7409   6.034   9.011   9.836  0.8448  1.0365  2.9607
   18CHTO   C70 7410   6.134   8.835   9.748  0.3138  0.9037 -0.2861
   18CHTO   O46 7411   6.263   8.890   9.720  0.5998 -0.4823 -0.0190
   18CHTO  H103 7412   6.314   8.833   9.666  2.2092  0.7748  0.1162
   18CHTO   O39 7413   6.181   8.897  10.233  0.2227  0.7277  0.7620
   18CHTO   C60 7414   6.247   8.765  10.214  0.1641  0.6589 -0.0941
   18CHTO  H117 7415   6.179   8.703  10.155 -0.0688  1.1374 -0.3340
   18CHTO   C62 7416   6.372   8.774  10.133  0.1214 -0.2008 -0.7747
   18CHTO  H119 7417   6.351   8.833  10.041 -4.7661  1.1056  0.9704
   18CHTO   O43 7418   6.465   8.853  10.207 -0.6470 -0.0929 -0.9954
   18CHTO  H101 7419   6.548   8.855  10.163  0.9010  3.0422  1.9302
   18CHTO   C66 7420   6.431   8.636  10.091 -0.1509 -0.7282  0.1343
   18CHTO  H123 7421   6.356   8.585  10.032  0.4551 -3.5601  1.7359
   18CHTO   N12 7422   6.546   8.638   9.997  0.5892  0.1505 -0.3600
   18CHTO  H110 7423   6.529   8.728   9.939 -3.2348 -1.1725 -1.4493
   18CHTO  H111 7424   6.559   8.546   9.942 -0.1928 -0.1602 -0.0419
   18CHTO   C69 7425   6.469   8.562  10.220 -0.2101 -0.2076 -0.3440
   18CHTO  H126 7426   6.552   8.620  10.266 -0.3735 -1.4546  1.5654
   18CHTO   O41 7427   6.342   8.550  10.317 -0.7249 -0.0157  0.0958
   18CHTO   C64 7428   6.270   8.686  10.343 -0.1714 -0.1018  0.1330
   18CHTO  H121 7429   6.342   8.741  10.407  0.7110 -1.6399  0.5031
   18CHTO   C71 7430   6.158   8.649  10.431  0.7913  0.5200 -0.2629
   18CHTO   O47 7431   6.067   8.762  10.470 -0.0641  0.6222 -0.5448
   18CHTO  H104 7432   6.066   8.756  10.564  0.2628  0.5758 -0.5458
   18CHTO   O34 7433   6.504   8.410  10.197 -0.4757  0.2589 -0.5871
   18CHTO   C49 7434   6.490   8.269  10.161  0.3177 -1.6403 -0.1011
   18CHTO   H91 7435   6.585   8.228  10.195  1.4174  1.7491  1.1978
   18CHTO   C47 7436   6.482   8.247  10.005 -0.4119 -0.8659  0.0212
   18CHTO   H89 7437   6.504   8.138   9.999 -3.1919 -1.3402 -3.0598
   18CHTO   O33 7438   6.583   8.320   9.941 -0.7275  0.0975  0.7569
   18CHTO   H70 7439   6.570   8.412   9.953  3.4657  0.5950  2.5285
   18CHTO   C45 7440   6.337   8.278   9.936 -0.1986 -0.4741  0.5560
   18CHTO   H87 7441   6.345   8.371   9.879 -0.7078  0.6831  2.3433
   18CHTO    N8 7442   6.296   8.162   9.848 -0.0294  0.4706 -0.1424
   18CHTO   H75 7443   6.361   8.146   9.763 -0.2807 -0.3088 -0.1956
   18CHTO   H76 7444   6.190   8.157   9.826  0.2027 -1.5035 -0.9407
   18CHTO   C43 7445   6.233   8.314  10.047 -0.5697  0.1233  0.2300
   18CHTO   H85 7446   6.261   8.412  10.085 -1.2868  0.4388 -0.0421
   18CHTO   O29 7447   6.238   8.212  10.146 -0.1564 -0.1108  0.3468
   18CHTO   C50 7448   6.361   8.203  10.228  0.6827  0.1137  0.3431
   18CHTO   H92 7449   6.335   8.243  10.327 -2.0229 -1.2690  0.2368
   18CHTO   C54 7450   6.380   8.050  10.261  0.3229  0.6409  0.4336
   18CHTO   O36 7451   6.351   7.971  10.147 -0.2228  0.0996 -0.4207
   18CHTO   H72 7452   6.397   7.890  10.145  0.6799  0.5749  0.3704
   18CHTO   O27 7453   6.102   8.342   9.995  0.1922 -0.2002 -0.0244
   18CHTO   C37 7454   5.964   8.363  10.033  0.3020  0.2455 -0.5322
   18CHTO   H79 7455   5.909   8.268  10.036 -0.8147  0.6778 -4.8300
   18CHTO   C38 7456   5.933   8.430  10.173 -0.2417 -0.3995 -0.1960
   18CHTO   H80 7457   5.965   8.535  10.171  2.4440 -1.1923 -2.0863
   18CHTO   O31 7458   5.990   8.358  10.279 -0.0515 -0.1378 -0.1847
   18CHTO   H68 7459   6.049   8.417  10.321 -1.3748  1.9114 -1.1175
   18CHTO   C39 7460   5.777   8.434  10.204  0.6683  0.2135  0.3456
   18CHTO   H81 7461   5.748   8.331  10.221  2.6115 -0.2394  1.0432
   18CHTO    N7 7462   5.748   8.513  10.330 -0.1133 -0.6061  0.6033
   18CHTO   H73 7463   5.779   8.614  10.310 -0.9647 -0.7379 -1.5593
   18CHTO   H74 7464   5.641   8.515  10.344 -0.0832  1.6721  0.6940
   18CHTO   C40 7465   5.698   8.488  10.080  0.3825 -0.5064 -0.4057
   18CHTO   H82 7466   5.693   8.597  10.081  1.1336 -0.4684 -0.5860
   18CHTO   O26 7467   5.753   8.435   9.956 -0.1134  0.7536 -0.5380
   18CHTO   C41 7468   5.891   8.447   9.933  0.6118 -0.2425 -0.5659
   18CHTO   H83 7469   5.910   8.555   9.944  0.7672 -0.2368 -0.8880
   18CHTO   C52 7470   5.925   8.416   9.791 -0.3376  0.1091  0.6109
   18CHTO   O35 7471   5.858   8.285   9.739  0.2787  0.0811 -0.2074
   18CHTO   H71 7472   5.775   8.315   9.708 -0.8496 -2.7469 -0.0422
   18CHTO   O28 7473   5.559   8.446  10.082 -0.0976 -0.2950  0.0530
   18CHTO   C42 7474   5.461   8.429   9.977  0.5542 -0.3921 -0.0205
   18CHTO   H84 7475   5.368   8.428  10.035  0.7743 -0.4841  0.3345
   18CHTO   C44 7476   5.462   8.294   9.896  0.2383 -0.6276 -0.5130
   18CHTO   H86 7477   5.563   8.283   9.857  0.1062 -0.9837 -0.7579
   18CHTO   O32 7478   5.444   8.180   9.984  0.3771 -0.2708 -0.2868
   18CHTO   H69 7479   5.357   8.185  10.017  1.1728 -0.4410  1.9579
   18CHTO   C48 7480   5.362   8.290   9.767 -0.4185  0.2695 -0.0486
   18CHTO   H90 7481   5.256   8.297   9.790 -0.2391  1.2186  0.5571
   18CHTO    N9 7482   5.372   8.158   9.687 -0.1144  0.2790 -0.1754
   18CHTO   H77 7483   5.273   8.118   9.669  0.2166  0.0182 -1.4638
   18CHTO   H78 7484   5.413   8.188   9.592  0.9540 -0.9284 -0.0975
   18CHTO   C51 7485   5.377   8.421   9.679 -0.2713  0.0483 -0.0693
   18CHTO   H93 7486   5.477   8.417   9.636 -0.6270 -1.4120 -0.7785
   18CHTO   O30 7487   5.358   8.536   9.764 -0.7394 -0.4634  0.5644
   18CHTO   C46 7488   5.450   8.554   9.887 -0.3358 -0.5265  0.3772
   18CHTO   H88 7489   5.549   8.572   9.844  0.4032  0.3636  2.4179
   18CHTO   C53 7490   5.396   8.675   9.963  0.2689  0.4707  0.9321
   18CHTO   O72 7491   5.417   8.798   9.889 -0.0427 -0.4027  0.2568
   18CHTO  H199 7492   5.332   8.821   9.859  0.4051  2.9344  1.3876
   18CHTO   O22 7493   5.272   8.439   9.579 -0.5741 -0.0239  0.0133
   18CHTO   C31 7494   5.299   8.496   9.445 -0.0409 -0.4092 -0.5305
   18CHTO   H59 7495   5.200   8.495   9.396 -0.9624  0.3355  1.2581
   18CHTO   C29 7496   5.351   8.635   9.441 -0.5321 -0.3353 -0.6078
   18CHTO   H57 7497   5.443   8.650   9.499 -1.0793 -3.2545  1.0866
   18CHTO   O21 7498   5.262   8.729   9.505  0.0386  0.7990  0.0045
   18CHTO   H37 7499   5.312   8.806   9.523 -0.5743  1.2918 -0.3791
   18CHTO   C27 7500   5.375   8.677   9.286  0.4257  0.4112  0.1000
   18CHTO   H55 7501   5.280   8.662   9.233  0.2400 -1.2565  0.8685
   18CHTO    N5 7502   5.418   8.815   9.265 -0.6337 -0.3293  0.3055
   18CHTO   H43 7503   5.510   8.824   9.321  1.7490 -3.4765 -2.8511
   18CHTO   H44 7504   5.447   8.825   9.161 -3.1634  0.7472 -0.3537
   18CHTO   C25 7505   5.461   8.572   9.210  0.6340  0.0030  0.0718
   18CHTO   H53 7506   5.558   8.565   9.261  0.7938  0.6583 -0.1335
   18CHTO   O17 7507   5.390   8.441   9.212 -0.1943  0.5914 -0.0668
   18CHTO   C32 7508   5.384   8.400   9.352 -0.0392  0.1736 -0.5457
   18CHTO   H60 7509   5.482   8.391   9.399 -0.2496  2.8517  0.5149
   18CHTO   C36 7510   5.332   8.259   9.352  0.0164  0.4855 -0.1293
   18CHTO   O25 7511   5.431   8.166   9.303  0.4366  0.4701  0.0755
   18CHTO   H40 7512   5.388   8.108   9.243  0.1871 -0.8092  1.4601
   18CHTO   O15 7513   5.481   8.595   9.048 -0.6569 -0.3754  0.4928
   18CHTO   C19 7514   5.599   8.602   8.958  0.0209 -0.0301 -0.6491
   18CHTO   H47 7515   5.566   8.548   8.869 -1.5061 -0.9907  0.4674
   18CHTO   C20 7516   5.645   8.748   8.926  0.2344  0.0637 -0.3790
   18CHTO   H48 7517   5.663   8.807   9.017  0.8119  1.1827 -1.2128
   18CHTO   O19 7518   5.540   8.817   8.851 -0.1062  0.1411  0.2765
   18CHTO   H35 7519   5.557   8.908   8.837 -0.3587  0.3688  1.3775
   18CHTO   C21 7520   5.783   8.760   8.848 -0.3575  0.3378 -0.2637
   18CHTO   H49 7521   5.769   8.726   8.746 -2.4538  1.5961 -0.4362
   18CHTO    N4 7522   5.832   8.899   8.834  0.0925 -0.0218  0.6937
   18CHTO   H41 7523   5.793   8.965   8.910 -1.2309  0.5942 -0.4902
   18CHTO   H42 7524   5.802   8.938   8.738  2.5596 -1.7150 -0.8149
   18CHTO   C22 7525   5.882   8.658   8.913 -0.0963  0.7982 -0.1732
   18CHTO   H50 7526   5.904   8.700   9.011  0.8392  2.4503 -1.0624
   18CHTO   O14 7527   5.823   8.525   8.922 -0.7640  0.5211  0.2770
   18CHTO   C23 7528   5.714   8.521   9.012  0.7613  0.1547  0.0715
   18CHTO   H51 7529   5.760   8.564   9.103  1.1557 -0.9827  0.4218
   18CHTO   C34 7530   5.672   8.377   9.031 -0.2161 -0.0634 -0.0963
   18CHTO   O23 7531   5.767   8.314   9.116  0.0615  0.2371 -0.6961
   18CHTO   H38 7532   5.807   8.237   9.079 -0.5814  0.6550 -2.2912
   18CHTO   O16 7533   6.001   8.627   8.836  0.1477 -0.1736  0.1547
   18CHTO   C24 7534   6.131   8.606   8.928  0.7974  0.2569 -0.4393
   18CHTO   H52 7535   6.117   8.636   9.032 -0.3205  1.4512 -0.9224
   18CHTO   C26 7536   6.243   8.690   8.860  0.2627  0.1141 -0.7052
   18CHTO   H54 7537   6.252   8.664   8.752  0.7809  2.4176 -1.2420
   18CHTO   O20 7538   6.195   8.823   8.856  0.2718  0.4922 -0.2833
   18CHTO   H36 7539   6.104   8.832   8.836 -0.1365 -1.1154  0.8186
   18CHTO   C30 7540   6.376   8.674   8.938  1.0365 -0.2755  0.5097
   18CHTO   H58 7541   6.370   8.711   9.041  0.7242 -1.3607  0.8930
   18CHTO    N6 7542   6.491   8.753   8.881 -0.2647  0.2636  0.9873
   18CHTO   H45 7543   6.508   8.732   8.776 -1.7437  1.5225  0.4757
   18CHTO   H46 7544   6.582   8.729   8.934  0.9334  1.5596 -0.4329
   18CHTO   C33 7545   6.404   8.525   8.970 -0.7987  0.3577 -0.0923
   18CHTO   H61 7546   6.429   8.464   8.882  2.5188  0.0973  0.9729
   18CHTO   O18 7547   6.287   8.470   9.027  0.0976  0.5515  0.2469
   18CHTO   C28 7548   6.181   8.459   8.939  0.3362 -0.4302  0.8266
   18CHTO   H56 7549   6.204   8.424   8.838  0.4157  1.0255  0.3280
   18CHTO   C35 7550   6.086   8.357   9.008 -0.4157  0.6319 -0.2880
   18CHTO   O24 7551   6.048   8.379   9.143  0.3375 -0.4537 -0.5300
   18CHTO   H39 7552   5.979   8.443   9.152  0.8509  0.1711 -0.9772
   18CHTO    O9 7553   6.525   8.508   9.056 -0.1208  0.7133  0.2048
   18CHTO   C13 7554   6.618   8.385   9.018 -0.2915 -0.2917 -0.2378
   18CHTO   H26 7555   6.638   8.386   8.909 -0.8360  3.7363 -0.3713
   18CHTO   C11 7556   6.539   8.242   9.072 -0.1457  0.2159 -0.3139
   18CHTO   H24 7557   6.473   8.210   8.989 -0.1681  1.6823 -0.8762
   18CHTO    O8 7558   6.475   8.272   9.197 -0.3604  0.3336  0.2545
   18CHTO    H3 7559   6.418   8.206   9.232 -1.1868  1.4342  1.0183
   18CHTO    C9 7560   6.649   8.138   9.085 -0.1829  0.8381  0.0851
   18CHTO   H22 7561   6.699   8.145   8.987 -0.1682 -0.1464  0.0130
   18CHTO    N2 7562   6.595   7.997   9.100 -0.7559  0.4564  0.1708
   18CHTO   H10 7563   6.494   7.983   9.064 -0.9267 -0.6395  1.0448
   18CHTO   H11 7564   6.602   7.979   9.206  0.9908 -2.2009 -0.3262
   18CHTO    C7 7565   6.755   8.183   9.194 -0.3499  0.0925 -0.2815
   18CHTO   H20 7566   6.857   8.144   9.171  0.5982  2.2111  0.2267
   18CHTO    O4 7567   6.771   8.326   9.202 -0.1869  0.0522 -0.0715
   18CHTO   C14 7568   6.760   8.397   9.082 -0.7368 -0.2194 -0.1132
   18CHTO   H27 7569   6.836   8.353   9.015 -0.5942  1.0579 -0.7951
   18CHTO   C18 7570   6.798   8.546   9.102  0.1387  0.4742  0.0842
   18CHTO   O13 7571   6.916   8.563   9.178 -0.3160 -0.2008  0.3850
   18CHTO    H7 7572   6.993   8.577   9.126  0.8793 -0.0209  2.1833
   18CHTO    O2 7573   6.733   8.122   9.332  0.2466 -0.1006 -0.6945
   18CHTO    C1 7574   6.829   8.124   9.438 -0.8290  0.3469 -0.5426
   18CHTO   H14 7575   6.883   8.221   9.438 -1.0295  0.4568 -0.5591
   18CHTO    C2 7576   6.946   8.007   9.425  0.3137  0.6780 -0.3563
   18CHTO   H15 7577   6.904   7.911   9.393  2.0061  0.4743 -2.0671
   18CHTO    O6 7578   7.032   8.035   9.314  0.1262 -0.8088 -0.4272
   18CHTO    H1 7579   7.059   8.125   9.306  0.0257 -0.7578 -0.1894
   18CHTO    C3 7580   7.023   7.993   9.565  0.2878  0.3009  0.0497
   18CHTO   H16 7581   7.069   8.090   9.587  0.6045 -0.5698  3.4506
   18CHTO    N1 7582   7.132   7.891   9.562  0.5552  0.6950  0.1466
   18CHTO    H8 7583   7.154   7.871   9.666  0.1850  1.1981  0.3219
   18CHTO    H9 7584   7.223   7.935   9.523  0.0194  0.5478 -1.2891
   18CHTO    C4 7585   6.915   7.959   9.677  0.3149 -0.2503  0.0820
   18CHTO   H17 7586   6.867   7.863   9.659 -0.3419 -0.0440  0.7011
   18CHTO    O1 7587   6.829   8.078   9.674 -0.2764  0.4348 -0.3190
   18CHTO    C5 7588   6.738   8.105   9.568 -0.2242 -0.4287  0.7010
   18CHTO   H18 7589   6.660   8.028   9.566 -1.8049  1.1290  1.2202
   18CHTO   C16 7590   6.667   8.237   9.601  0.3545  0.4808 -0.7574
   18CHTO   O11 7591   6.572   8.276   9.505  0.3330  0.0811  0.4493
   18CHTO    H5 7592   6.530   8.350   9.544  0.0838 -0.8916  2.0773
   18CHTO    O3 7593   6.968   7.962   9.809 -0.0395  0.2602  0.5472
   18CHTO    C6 7594   6.878   7.912   9.913  0.3104 -0.2329 -1.1721
   18CHTO   H19 7595   6.779   7.889   9.873 -0.1382  0.3436 -0.4107
   18CHTO    C8 7596   6.928   7.775   9.972  0.0716  0.9063  0.4003
   18CHTO   H21 7597   7.024   7.790  10.021 -0.7114  1.1747  1.8996
   18CHTO    O7 7598   6.936   7.683   9.861 -0.0546 -0.4050 -0.4051
   18CHTO    H2 7599   6.869   7.696   9.797  0.1040  0.4034 -0.4112
   18CHTO   C12 7600   6.829   7.720  10.082  0.3954  0.5603  0.3355
   18CHTO   H25 7601   6.730   7.701  10.035  0.4527 -1.0088  0.8419
   18CHTO    N3 7602   6.868   7.598  10.152  0.1331  0.6759 -0.2885
   18CHTO   H12 7603   6.959   7.558  10.108 -1.0597 -0.7999 -1.5043
   18CHTO   H13 7604   6.791   7.523  10.139 -0.7997  1.6606 -0.5626
   18CHTO   C15 7605   6.811   7.837  10.186  0.0261  0.1648  0.5223
   18CHTO   H28 7606   6.903   7.860  10.240  0.3905 -1.2878  0.5381
   18CHTO   O10 7607   6.704   7.812  10.288 -0.1562  0.0153  0.1802
   18CHTO    H4 7608   6.738   7.821  10.375  2.7511 -0.5132 -0.8510
   18CHTO    O5 7609   6.768   7.958  10.127 -0.3372 -0.0775 -0.3174
   18CHTO   C10 7610   6.860   8.009  10.029  0.1658  0.4315  0.3821
   18CHTO   H23 7611   6.957   8.016  10.079 -0.2406 -3.4335  1.8791
   18CHTO   C17 7612   6.829   8.157  10.000 -0.1373 -0.7554  0.2811
   18CHTO   O12 7613   6.932   8.205   9.908  0.4994  0.4349 -0.5423
   18CHTO    H6 7614   6.919   8.175   9.821 -0.5336  0.2123 -0.3155
   19CHTO  H203 7615   5.660   9.111  11.189  0.5814 -0.5805  1.4752
   19CHTO   O82 7616   5.735   9.099  11.133 -0.4468 -0.0859 -0.0389
   19CHTO  C123 7617   5.691   9.095  10.996  0.0076 -0.9048  0.6289
   19CHTO  H227 7618   5.750   9.164  10.933 -0.5706 -1.4593 -0.5317
   19CHTO   O77 7619   5.747   8.968  10.949 -0.3339 -0.5362  0.4973
   19CHTO  C118 7620   5.735   8.943  10.812 -0.1658 -0.0182  0.4358
   19CHTO  H222 7621   5.786   9.026  10.761  2.4955 -1.4011  0.7227
   19CHTO  C125 7622   5.818   8.815  10.780  0.2535  0.4768  0.4610
   19CHTO   O84 7623   5.829   8.808  10.638  0.8371  0.1592  0.0744
   19CHTO  H205 7624   5.887   8.874  10.606 -1.5587  1.6021 -1.5002
   19CHTO  C114 7625   5.582   8.923  10.787 -1.0314 -0.0561  0.1202
   19CHTO  H218 7626   5.545   8.848  10.856  0.0372  0.5460  1.3766
   19CHTO  C116 7627   5.508   9.051  10.822 -0.0955 -0.2910  0.2670
   19CHTO  H220 7628   5.537   9.141  10.763  0.1167  0.3964  1.4074
   19CHTO   O79 7629   5.366   9.040  10.793  0.2705  0.2514 -0.1237
   19CHTO  H201 7630   5.316   9.034  10.872  0.0712  1.4695 -0.1368
   19CHTO  C120 7631   5.533   9.088  10.980 -0.3191 -0.8421  1.5767
   19CHTO  H224 7632   5.507   9.002  11.044  0.1186 -1.9350  0.3270
   19CHTO   N21 7633   5.466   9.208  11.023  0.1664 -0.6542  0.2511
   19CHTO  H211 7634   5.363   9.185  11.045 -0.6215  1.4771 -1.0685
   19CHTO  H212 7635   5.479   9.293  10.957 -1.2687 -0.9238 -0.3951
   19CHTO   O75 7636   5.567   8.881  10.649  0.4110  0.0209 -0.0753
   19CHTO  C112 7637   5.446   8.776  10.619  0.0320 -0.1220  0.2375
   19CHTO  H216 7638   5.347   8.824  10.620 -0.3237 -0.8413  1.8460
   19CHTO   O73 7639   5.453   8.667  10.711 -0.3503 -0.5704  0.3611
   19CHTO  C113 7640   5.364   8.555  10.690  0.1647  0.0311  0.8097
   19CHTO  H217 7641   5.257   8.583  10.683  0.7207  2.4477  1.4475
   19CHTO  C124 7642   5.375   8.450  10.800  0.1525  0.3005  0.0699
   19CHTO   O83 7643   5.496   8.384  10.809 -0.0364 -0.7109  0.1616
   19CHTO  H204 7644   5.497   8.350  10.896  3.1255  0.7496  0.7792
   19CHTO  C109 7645   5.387   8.485  10.543  0.0132 -0.0514 -0.4002
   19CHTO  H213 7646   5.489   8.444  10.543  0.3348  0.5526 -3.8650
   19CHTO  C110 7647   5.380   8.600  10.436  0.4829 -0.6772 -0.1701
   19CHTO  H214 7648   5.275   8.628  10.436  0.2802 -1.3968  1.2317
   19CHTO   O78 7649   5.407   8.547  10.303 -0.0635  0.2824  0.5907
   19CHTO  H200 7650   5.478   8.486  10.305  0.0329  0.3383 -0.8732
   19CHTO  C111 7651   5.470   8.721  10.470  0.0710  0.2408 -0.3389
   19CHTO  H215 7652   5.574   8.686  10.478  0.0526  0.4214  0.6927
   19CHTO   N19 7653   5.466   8.829  10.365  0.3186  0.5238  0.3179
   19CHTO  H207 7654   5.361   8.852  10.355  0.1128 -0.6137 -0.2809
   19CHTO  H208 7655   5.464   8.780  10.269  1.4632  0.9609  0.0724
   19CHTO   O74 7656   5.296   8.378  10.509  0.1927  0.2726 -0.4885
   19CHTO  C115 7657   5.354   8.261  10.414 -0.0831  0.1854  0.2935
   19CHTO  H219 7658   5.394   8.298  10.320  1.0301  1.4033  1.2381
   19CHTO   O76 7659   5.459   8.184  10.479 -0.3681  0.0053  0.1131
   19CHTO  C122 7660   5.507   8.069  10.399  1.3710 -0.7235 -0.2190
   19CHTO  H226 7661   5.566   8.015  10.474 -0.1934  0.0732  1.6130
   19CHTO  C126 7662   5.612   8.112  10.281 -0.2527  0.7262 -0.3724
   19CHTO   O85 7663   5.658   7.999  10.211 -0.3931 -1.0742 -0.2744
   19CHTO  H206 7664   5.620   8.002  10.126 -1.8884 -2.7421  0.3014
   19CHTO  C121 7665   5.387   7.970  10.372 -0.5986  0.8353  1.0143
   19CHTO  H225 7666   5.423   7.881  10.317  1.1773  2.0603  0.1472
   19CHTO   O81 7667   5.332   7.924  10.499  0.4855 -0.2052  0.2798
   19CHTO  H202 7668   5.263   7.863  10.481 -0.9694  1.1439  1.1299
   19CHTO  C119 7669   5.281   8.042  10.288 -0.9356  0.2743  0.2883
   19CHTO  H223 7670   5.330   8.067  10.195 -1.9342  2.4968  0.3290
   19CHTO  C117 7671   5.228   8.176  10.369  0.1036 -0.1428 -0.5214
   19CHTO  H221 7672   5.169   8.164  10.460 -1.4936 -0.6647 -1.6026
   19CHTO   N20 7673   5.137   8.258  10.279  0.3597  0.9352  0.3637
   19CHTO  H209 7674   5.133   8.224  10.176  1.3846 -2.1973  1.3135
   19CHTO  H210 7675   5.136   8.366  10.286 -1.2757  0.9205  0.6858
   19CHTO   O80 7676   5.182   7.950  10.245 -0.4937 -0.0765 -0.8744
   19CHTO  C103 7677   5.219   7.825  10.146  0.3226 -0.2670 -0.5516
   19CHTO  H190 7678   5.315   7.833  10.095  1.4924 -0.1654  1.5903
   19CHTO  C101 7679   5.216   7.678  10.210 -0.0849 -0.0666 -0.0258
   19CHTO  H188 7680   5.117   7.663  10.253  1.0363  2.2707  3.6881
   19CHTO   O68 7681   5.315   7.656  10.319  0.1872 -0.3186  0.2293
   19CHTO  H168 7682   5.402   7.649  10.285 -0.5884 -0.1217 -1.8571
   19CHTO   C99 7683   5.229   7.566  10.097 -0.3075  0.0979  0.2309
   19CHTO  H186 7684   5.332   7.572  10.058  0.1878  1.7356  1.7188
   19CHTO   N17 7685   5.216   7.425  10.150 -0.0701  0.1624 -0.0079
   19CHTO  H174 7686   5.263   7.423  10.247 -0.8035  2.0438  0.4080
   19CHTO  H175 7687   5.247   7.348  10.082 -2.4712 -1.6231  0.8412
   19CHTO   C97 7688   5.134   7.590   9.975  0.3458 -0.3439  0.0548
   19CHTO  H184 7689   5.034   7.564  10.011 -0.4392  1.8146 -0.5227
   19CHTO   O64 7690   5.139   7.730   9.935  0.1153 -0.3912 -0.8340
   19CHTO  C104 7691   5.109   7.834  10.034  0.3496  0.8409  0.5079
   19CHTO  H191 7692   5.008   7.820  10.073  0.8429 -0.9399  1.2105
   19CHTO  C108 7693   5.106   7.969   9.966 -0.7156 -0.1828 -0.6818
   19CHTO   O71 7694   5.230   7.994   9.895 -0.1839 -0.5289  0.2002
   19CHTO  H171 7695   5.212   8.065   9.837 -0.2878 -0.3257  0.4836
   19CHTO   O62 7696   5.176   7.512   9.859  0.0055 -0.3982  0.1513
   19CHTO   C91 7697   5.096   7.514   9.739 -0.6225  0.0877 -0.3924
   19CHTO  H178 7698   5.004   7.571   9.754  1.0063  2.2787  1.8094
   19CHTO   C92 7699   5.047   7.363   9.721 -0.5404  0.6289  0.0473
   19CHTO  H179 7700   5.003   7.329   9.815  2.2750  0.2925  1.2993
   19CHTO   O66 7701   4.939   7.367   9.627  0.1140  0.1919 -0.0441
   19CHTO  H166 7702   4.882   7.294   9.641 -0.4306  0.5967 -0.1835
   19CHTO   C93 7703   5.151   7.264   9.658  0.3875  0.1136  0.3273
   19CHTO  H180 7704   5.090   7.180   9.621 -0.9259  0.9960  0.4458
   19CHTO   N16 7705   5.247   7.208   9.756  0.0747  0.1124  0.6357
   19CHTO  H172 7706   5.336   7.264   9.735  0.4537 -0.6790  0.0978
   19CHTO  H173 7707   5.222   7.235   9.858  0.8889  0.7109  0.6748
   19CHTO   C94 7708   5.227   7.330   9.532 -0.5402  0.3052 -0.2839
   19CHTO  H181 7709   5.335   7.334   9.548 -0.5431 -1.6514  0.3126
   19CHTO   O61 7710   5.181   7.467   9.501 -0.1958 -0.1585  0.2600
   19CHTO   C95 7711   5.174   7.559   9.608 -0.1110 -0.4754  1.4602
   19CHTO  H182 7712   5.276   7.587   9.636 -0.5278  1.2016  1.3729
   19CHTO  C106 7713   5.115   7.701   9.555 -0.2182  0.3882 -0.3991
   19CHTO   O69 7714   5.114   7.806   9.653  0.2515  0.0579  0.1273
   19CHTO  H169 7715   5.080   7.779   9.736  2.6505  0.2417  1.2381
   19CHTO   O63 7716   5.198   7.235   9.425  0.0315  0.3183  0.0637
   19CHTO   C96 7717   5.316   7.219   9.308  0.1904  0.4288  1.0286
   19CHTO  H183 7718   5.408   7.204   9.365  0.7787  0.8599  0.2006
   19CHTO   C98 7719   5.341   7.350   9.216 -0.7901  0.0042  0.6556
   19CHTO  H185 7720   5.342   7.446   9.271  0.5934  1.0113 -1.0780
   19CHTO   O67 7721   5.479   7.337   9.170 -0.3875  0.1040 -0.1309
   19CHTO  H167 7722   5.530   7.348   9.248  0.4957 -1.6789 -0.4436
   19CHTO  C102 7723   5.241   7.345   9.093  0.4668  0.6268  0.4498
   19CHTO  H189 7724   5.273   7.415   9.014 -0.1001  0.0145 -0.3290
   19CHTO   N18 7725   5.100   7.392   9.127  0.4034  0.1421 -0.4605
   19CHTO  H176 7726   5.082   7.392   9.233  0.0172  0.4603 -0.5267
   19CHTO  H177 7727   5.021   7.358   9.062 -0.0311 -0.0700  0.1731
   19CHTO  C105 7728   5.252   7.204   9.015 -0.0006  0.0255 -0.1285
   19CHTO  H192 7729   5.152   7.169   8.988 -0.7253  1.0626  1.1589
   19CHTO   O65 7730   5.312   7.101   9.092 -0.8104  0.1251  0.0415
   19CHTO  C100 7731   5.272   7.091   9.223 -0.6374 -0.5678 -0.0134
   19CHTO  H187 7732   5.163   7.083   9.229 -0.7989  1.0284 -0.5751
   19CHTO  C107 7733   5.328   6.961   9.299  0.2404  0.1916 -0.0909
   19CHTO   O70 7734   5.313   6.961   9.440 -0.5770 -0.7660  0.4083
   19CHTO  H170 7735   5.378   6.912   9.486  0.6268  1.3734  1.0551
   19CHTO   O57 7736   5.341   7.236   8.856  0.2226  0.0731 -0.5331
   19CHTO   C85 7737   5.262   7.229   8.738  0.7642  0.3760  0.7449
   19CHTO  H157 7738   5.170   7.177   8.772  0.0213  0.7580 -0.6515
   19CHTO   C83 7739   5.328   7.137   8.628  0.5392 -0.1758  0.0972
   19CHTO  H155 7740   5.330   7.039   8.674  2.4739 -0.4566 -0.5604
   19CHTO   O56 7741   5.462   7.171   8.613 -0.0226 -0.2807 -0.2858
   19CHTO  H135 7742   5.482   7.248   8.564 -2.2469  1.3925  1.3313
   19CHTO   C81 7743   5.246   7.130   8.499 -0.0403 -0.1747  0.2371
   19CHTO  H153 7744   5.152   7.084   8.529 -0.5284 -0.5980 -1.8563
   19CHTO   N14 7745   5.303   7.048   8.389 -0.5934  0.0521 -0.3675
   19CHTO  H141 7746   5.312   6.944   8.414  1.2780  0.6313  1.4764
   19CHTO  H142 7747   5.403   7.082   8.372  0.1681 -1.2691  1.3280
   19CHTO   C79 7748   5.212   7.272   8.441  0.6817  0.3647  0.4595
   19CHTO  H151 7749   5.135   7.255   8.366  1.5247  0.9801 -0.5525
   19CHTO   O52 7750   5.139   7.348   8.545 -0.1918 -0.1929 -0.2198
   19CHTO   C86 7751   5.223   7.369   8.666  0.1604 -1.1827  0.3239
   19CHTO  H158 7752   5.308   7.435   8.638 -1.0272 -0.8445 -2.6312
   19CHTO   C90 7753   5.142   7.454   8.763  0.2611 -0.4394  0.5950
   19CHTO   O60 7754   5.096   7.572   8.705  0.0219  0.0659  0.8896
   19CHTO  H138 7755   5.168   7.623   8.674 -0.5432 -0.0829 -0.7074
   19CHTO   O50 7756   5.324   7.343   8.386 -0.0937 -0.0136 -0.8643
   19CHTO   C73 7757   5.348   7.448   8.293  0.5293 -0.3594 -0.7855
   19CHTO  H145 7758   5.320   7.408   8.194  0.4389  0.9392 -1.2953
   19CHTO   C74 7759   5.493   7.490   8.305  0.4031 -0.0281  0.3065
   19CHTO  H146 7760   5.558   7.403   8.288 -0.8914 -0.5654 -2.1462
   19CHTO   O54 7761   5.516   7.574   8.186 -0.3107 -0.5941 -0.4690
   19CHTO  H133 7762   5.435   7.609   8.155 -0.4764 -1.1264 -0.6428
   19CHTO   C75 7763   5.523   7.556   8.442 -0.4054 -0.6378  0.8012
   19CHTO  H147 7764   5.501   7.481   8.520  0.2362 -2.0227 -0.3316
   19CHTO   N13 7765   5.667   7.588   8.464 -0.1833  0.3037 -0.1683
   19CHTO  H139 7766   5.705   7.657   8.390  2.2427  0.6594  1.3637
   19CHTO  H140 7767   5.687   7.619   8.566  1.1483 -2.7407  0.5569
   19CHTO   C76 7768   5.427   7.687   8.447  0.0267  0.3059 -0.3347
   19CHTO  H148 7769   5.458   7.750   8.363 -0.9765  1.5865  0.2640
   19CHTO   O49 7770   5.290   7.646   8.439  0.1181 -0.0293  0.0466
   19CHTO   C77 7771   5.261   7.578   8.317  0.6912  0.3692  0.6612
   19CHTO  H149 7772   5.272   7.649   8.235 -0.9061  0.1376  0.2421
   19CHTO   C88 7773   5.115   7.544   8.324 -0.1817  0.4816 -0.2847
   19CHTO   O58 7774   5.045   7.527   8.205  0.0122 -0.1110 -0.2972
   19CHTO  H136 7775   4.952   7.530   8.213 -0.1103 -0.8661 -1.3586
   19CHTO   O51 7776   5.436   7.776   8.581 -0.0757 -0.0369 -0.2945
   19CHTO   C78 7777   5.440   7.930   8.571 -1.0881 -0.4278  0.1597
   19CHTO  H150 7778   5.432   7.959   8.464  1.8613  4.5416  1.1376
   19CHTO   C80 7779   5.578   7.988   8.625  0.7721 -0.8470  0.2522
   19CHTO  H152 7780   5.594   7.939   8.723 -0.7412 -2.3603 -0.2306
   19CHTO   O55 7781   5.688   7.927   8.554  0.0995 -0.6180  0.1820
   19CHTO  H134 7782   5.768   7.960   8.590  0.0477 -1.9523  1.5566
   19CHTO   C84 7783   5.568   8.152   8.632 -0.4025  0.1833  0.3319
   19CHTO  H156 7784   5.560   8.191   8.530  1.0506 -0.9631 -0.2311
   19CHTO   N15 7785   5.697   8.207   8.685  0.5812  0.5084  0.0629
   19CHTO  H143 7786   5.686   8.311   8.661 -0.4881  0.5688  0.8228
   19CHTO  H144 7787   5.778   8.166   8.628  1.5520  2.5998 -0.1409
   19CHTO   C87 7788   5.450   8.199   8.721  0.0756  0.1420  0.0264
   19CHTO  H159 7789   5.464   8.162   8.823 -0.5749  0.6568  0.3068
   19CHTO   O53 7790   5.319   8.129   8.672  0.2681 -0.0449 -0.3529
   19CHTO   C82 7791   5.328   7.985   8.663  0.6445 -0.9689  0.5545
   19CHTO  H154 7792   5.332   7.941   8.762  2.8324  0.8333  1.3245
   19CHTO   C89 7793   5.190   7.942   8.595  0.0096  0.1720 -0.3728
   19CHTO   O59 7794   5.071   7.982   8.658  0.1813 -0.3694 -0.1326
   19CHTO  H137 7795   5.068   7.943   8.743 -0.0134 -2.1497 -0.9481
   19CHTO   O45 7796   5.419   8.362   8.726  0.2250  0.2817  0.6538
   19CHTO   C67 7797   5.281   8.393   8.761  0.2484  0.3191 -0.3442
   19CHTO  H124 7798   5.222   8.322   8.702  1.8329 -1.5806  0.3205
   19CHTO   C65 7799   5.242   8.374   8.916 -0.2943 -0.2335  0.1381
   19CHTO  H122 7800   5.323   8.411   8.979  0.5109 -1.9611  0.1430
   19CHTO   O44 7801   5.232   8.234   8.943  0.0658 -0.0798 -0.1879
   19CHTO  H102 7802   5.291   8.191   8.885 -0.8971 -1.5069 -0.1359
   19CHTO   C63 7803   5.131   8.472   8.952 -0.9627  0.0534  0.4310
   19CHTO  H120 7804   5.177   8.567   8.978 -0.9423 -0.2913  1.7156
   19CHTO   N11 7805   5.054   8.445   9.082  0.1466 -0.1086  0.2506
   19CHTO  H108 7806   5.113   8.419   9.167  1.0348  0.9591 -0.0295
   19CHTO  H109 7807   5.022   8.544   9.108  0.5258  0.0814 -0.0185
   19CHTO   C61 7808   5.027   8.499   8.833  0.0166 -0.2991  0.5576
   19CHTO  H118 7809   4.950   8.568   8.871  1.8439  1.7722  0.5742
   19CHTO   O40 7810   5.092   8.560   8.715 -0.2353  0.0353  0.4714
   19CHTO   C68 7811   5.239   8.540   8.706  0.1957  0.0790  0.2969
   19CHTO  H125 7812   5.288   8.609   8.777  0.8086 -1.1889  1.1244
   19CHTO   C72 7813   5.282   8.588   8.569  0.0679 -0.0636  0.3303
   19CHTO   O48 7814   5.224   8.524   8.456 -0.1114  0.3178  0.0210
   19CHTO  H105 7815   5.133   8.500   8.458 -0.5542  1.8098 -1.2858
   19CHTO   O38 7816   4.967   8.372   8.795 -0.1067 -0.0829  0.0006
   19CHTO   C55 7817   4.847   8.369   8.721  0.2933 -0.4456 -0.4349
   19CHTO  H112 7818   4.819   8.470   8.688  1.1960  0.2208  0.7990
   19CHTO   C56 7819   4.741   8.305   8.818  0.4462  0.0107  0.2457
   19CHTO  H113 7820   4.770   8.202   8.842  1.3735 -0.0694 -1.1165
   19CHTO   O42 7821   4.737   8.380   8.943  0.3065  0.0244  0.3156
   19CHTO  H100 7822   4.694   8.464   8.947  0.0863 -0.1190  1.0785
   19CHTO   C57 7823   4.603   8.307   8.746 -0.4513 -0.7613 -0.7405
   19CHTO  H114 7824   4.576   8.411   8.728  1.2919  0.0832  1.3009
   19CHTO   N10 7825   4.493   8.249   8.825  0.7906  0.9099 -0.1751
   19CHTO  H106 7826   4.527   8.171   8.893  0.2596 -0.6900 -1.7212
   19CHTO  H107 7827   4.419   8.204   8.761  1.1865 -0.9420  0.6269
   19CHTO   C58 7828   4.618   8.235   8.609 -0.1267 -0.1397 -0.1086
   19CHTO  H115 7829   4.640   8.128   8.629 -0.4725 -0.0535  0.7441
   19CHTO   O37 7830   4.728   8.290   8.532  0.2048 -0.3486 -0.3461
   19CHTO   C59 7831   4.852   8.276   8.601  0.0481  0.2268 -0.2422
   19CHTO  H116 7832   4.863   8.172   8.632 -3.8400  0.2327  1.4722
   19CHTO   C70 7833   4.952   8.325   8.497 -0.2785  0.3278  0.1196
   19CHTO   O46 7834   5.082   8.271   8.516  0.3313 -0.1596  0.6287
   19CHTO  H103 7835   5.136   8.328   8.566 -0.5227  1.5361 -0.3467
   19CHTO   O39 7836   4.483   8.247   8.514  0.0791 -0.1891 -0.2184
   19CHTO   C60 7837   4.477   8.145   8.409  0.1353  0.0736 -0.1032
   19CHTO  H117 7838   4.578   8.116   8.381 -0.2467  2.2020 -3.9084
   19CHTO   C62 7839   4.414   8.006   8.450  0.5114 -0.3152 -1.0010
   19CHTO  H119 7840   4.480   7.982   8.536  0.6302  0.9992 -0.7210
   19CHTO   O43 7841   4.278   8.018   8.496  0.0929 -0.2760 -0.7509
   19CHTO  H101 7842   4.274   8.096   8.550  1.9684 -0.6368 -0.0394
   19CHTO   C66 7843   4.438   7.900   8.333  0.3504 -0.2794 -0.2806
   19CHTO  H123 7844   4.545   7.884   8.330  0.0075 -3.1145  1.2994
   19CHTO   N12 7845   4.386   7.763   8.364 -0.1012  0.4193 -0.1150
   19CHTO  H110 7846   4.291   7.768   8.414  0.8019 -0.7361  1.7985
   19CHTO  H111 7847   4.454   7.705   8.425  0.3074  0.0560 -0.9147
   19CHTO   C69 7848   4.381   7.953   8.200 -0.3028 -0.2713 -0.4240
   19CHTO  H126 7849   4.271   7.962   8.202 -0.3699 -1.2247  1.0716
   19CHTO   O41 7850   4.446   8.107   8.166 -0.1940  0.5466  0.0561
   19CHTO   C64 7851   4.409   8.203   8.276  0.5042 -0.3384 -0.1583
   19CHTO  H121 7852   4.300   8.204   8.297  0.3971  3.6872 -0.4271
   19CHTO   C71 7853   4.452   8.349   8.241 -0.3037  0.1410  0.0076
   19CHTO   O47 7854   4.394   8.398   8.119  0.8008  0.0184  0.2721
   19CHTO  H104 7855   4.442   8.471   8.085  0.2606 -0.0952 -0.7381
   19CHTO   O34 7856   4.418   7.859   8.092  0.3167  0.1582 -0.0080
   19CHTO   C49 7857   4.426   7.846   7.929  0.4607  0.4446  0.1513
   19CHTO   H91 7858   4.329   7.844   7.881  0.6213 -1.7972 -0.1460
   19CHTO   C47 7859   4.495   7.715   7.898 -0.0278 -0.0659  0.4520
   19CHTO   H89 7860   4.490   7.709   7.787  0.3185 -2.2134  0.5389
   19CHTO   O33 7861   4.427   7.603   7.945  0.0963  1.4614 -0.4712
   19CHTO   H70 7862   4.443   7.584   8.035 -1.1951  2.7176  0.0451
   19CHTO   C45 7863   4.650   7.724   7.947  0.2855 -0.0120  0.5563
   19CHTO   H87 7864   4.645   7.681   8.048 -1.1053  0.2768  0.6212
   19CHTO    N8 7865   4.724   7.643   7.848 -0.3837  0.8267 -0.3356
   19CHTO   H75 7866   4.691   7.541   7.859 -0.4179  0.9598  0.8194
   19CHTO   H76 7867   4.830   7.638   7.869 -0.4009 -2.1386 -0.7818
   19CHTO   C43 7868   4.707   7.875   7.972  0.1771  0.2109  0.6601
   19CHTO   H85 7869   4.670   7.912   8.067 -2.5738  0.5172 -0.4694
   19CHTO   O29 7870   4.650   7.950   7.857 -0.4597  0.6352 -0.1626
   19CHTO   C50 7871   4.507   7.960   7.859 -0.4497 -0.7351 -0.3582
   19CHTO   H92 7872   4.473   8.051   7.910 -1.1366 -1.2144  0.0460
   19CHTO   C54 7873   4.470   7.982   7.704  0.1380  0.1593 -0.3397
   19CHTO   O36 7874   4.373   8.092   7.691 -0.2299  0.0659 -0.2183
   19CHTO   H72 7875   4.371   8.115   7.600 -1.7956 -0.0792 -0.2317
   19CHTO   O27 7876   4.848   7.878   7.979  0.0491 -0.4189 -0.1531
   19CHTO   C37 7877   4.961   7.951   8.024  0.1220  0.4068  0.7764
   19CHTO   H79 7878   5.043   7.878   8.034  0.8350  1.2001  0.7996
   19CHTO   C38 7879   4.990   8.046   7.907 -0.0075  0.4810  0.0518
   19CHTO   H80 7880   4.897   8.098   7.882 -0.8376 -1.2847 -0.5956
   19CHTO   O31 7881   5.033   7.971   7.791  0.0824 -0.0918  0.6160
   19CHTO   H68 7882   4.960   7.921   7.759 -1.2565  1.1831  1.5451
   19CHTO   C39 7883   5.094   8.150   7.955 -0.0607  0.4195  0.2261
   19CHTO   H81 7884   5.190   8.098   7.956  0.1659  0.8301 -0.0353
   19CHTO    N7 7885   5.123   8.261   7.856 -0.3649  0.1171  1.1289
   19CHTO   H73 7886   5.097   8.355   7.904 -0.8155  0.5565  0.0441
   19CHTO   H74 7887   5.223   8.264   7.815 -0.6854 -1.2819  0.2201
   19CHTO   C40 7888   5.066   8.210   8.095 -0.2798  0.5318 -0.3423
   19CHTO   H82 7889   4.980   8.276   8.102 -1.8630 -1.6456  1.4086
   19CHTO   O26 7890   5.052   8.103   8.192  0.3736 -0.0487  0.0343
   19CHTO   C41 7891   4.938   8.021   8.158  0.6057 -0.1225  0.5012
   19CHTO   H83 7892   4.846   8.082   8.151 -1.0151 -2.5404  0.3358
   19CHTO   C52 7893   4.914   7.916   8.271  0.1762  0.5868 -0.4081
   19CHTO   O35 7894   4.831   7.955   8.401  0.5705  0.5198 -0.4461
   19CHTO   H71 7895   4.786   7.880   8.436 -0.8477  1.9169  0.7927
   19CHTO   O28 7896   5.181   8.280   8.150 -0.3085  0.5308 -0.2393
   19CHTO   C42 7897   5.321   8.254   8.132 -0.1078 -0.8140 -0.3713
   19CHTO   H84 7898   5.340   8.244   8.025  2.2816  0.2144 -0.0827
   19CHTO   C44 7899   5.383   8.122   8.208  0.4436 -0.4371  0.1439
   19CHTO   H86 7900   5.358   8.126   8.314 -0.8250 -3.5369 -0.0042
   19CHTO   O32 7901   5.312   8.009   8.158 -0.2236  0.2744  0.0794
   19CHTO   H69 7902   5.338   7.936   8.211  0.1292  1.6767  1.8471
   19CHTO   C48 7903   5.542   8.122   8.174 -0.0177  0.5947  0.3763
   19CHTO   H90 7904   5.542   8.096   8.068  1.3589 -0.1230  0.5417
   19CHTO    N9 7905   5.612   8.002   8.236 -0.5895 -0.1384 -0.5621
   19CHTO   H77 7906   5.716   8.031   8.238 -0.6660  0.1132  0.0999
   19CHTO   H78 7907   5.581   7.993   8.339 -0.7192 -2.6280 -0.8068
   19CHTO   C51 7908   5.610   8.262   8.194 -0.3022 -0.3909  0.0196
   19CHTO   H93 7909   5.601   8.277   8.302  1.2583 -0.1473  0.1256
   19CHTO   O30 7910   5.538   8.361   8.123 -0.4486 -0.7883  0.4067
   19CHTO   C46 7911   5.406   8.380   8.175  0.2137 -0.1717 -0.0059
   19CHTO   H88 7912   5.413   8.390   8.284 -0.7773 -0.0038  0.0466
   19CHTO   C53 7913   5.339   8.506   8.113  0.0049  0.0119 -0.1354
   19CHTO   O72 7914   5.322   8.497   7.969  0.2545  0.5019 -0.1882
   19CHTO  H199 7915   5.280   8.417   7.944 -1.6688  1.4127  0.0369
   19CHTO   O22 7916   5.743   8.266   8.142  0.3980 -0.1637 -0.1340
   19CHTO   C31 7917   5.876   8.320   8.188  0.2088  0.3286  0.1571
   19CHTO   H59 7918   5.905   8.404   8.122 -2.8922  2.1486  0.9998
   19CHTO   C29 7919   5.878   8.378   8.334 -0.8577  0.7598  0.2206
   19CHTO   H57 7920   5.844   8.303   8.406 -0.0297 -0.5279 -0.6879
   19CHTO   O21 7921   5.784   8.484   8.354  0.5004  0.3370 -0.3825
   19CHTO   H37 7922   5.782   8.547   8.285 -0.3258 -1.3273 -1.9505
   19CHTO   C27 7923   6.025   8.422   8.373 -0.5476  0.9084 -0.4895
   19CHTO   H55 7924   6.057   8.512   8.318  0.1325  1.5491  0.9070
   19CHTO    N5 7925   6.040   8.447   8.518  0.1277  0.6077  0.1999
   19CHTO   H43 7926   6.042   8.358   8.579 -0.1733 -0.9080 -1.9433
   19CHTO   H44 7927   5.952   8.504   8.542 -0.9007 -0.8011 -0.1348
   19CHTO   C25 7928   6.142   8.325   8.332  0.3523  0.0285  0.0752
   19CHTO   H53 7929   6.133   8.240   8.402  1.0476  1.3447  1.7929
   19CHTO   O17 7930   6.119   8.273   8.194 -0.4835 -1.1925 -0.2163
   19CHTO   C32 7931   5.993   8.211   8.184 -0.0116 -0.1469 -0.0689
   19CHTO   H60 7932   5.977   8.135   8.260  2.8883 -2.5004 -1.7384
   19CHTO   C36 7933   5.995   8.133   8.049  0.2789 -0.0104 -0.3975
   19CHTO   O25 7934   6.049   8.211   7.944  0.2288 -0.1229  0.1759
   19CHTO   H40 7935   6.017   8.194   7.858  0.9062 -1.9450  0.2482
   19CHTO   O15 7936   6.290   8.401   8.325  0.4781 -0.0574 -0.7413
   19CHTO   C19 7937   6.426   8.360   8.363  0.2196 -0.6472  0.2892
   19CHTO   H47 7938   6.461   8.459   8.395 -0.3339 -0.4199  0.1878
   19CHTO   C20 7939   6.427   8.257   8.482  0.0371 -0.4543 -0.6770
   19CHTO   H48 7940   6.375   8.164   8.456  1.1061 -1.0766 -0.6305
   19CHTO   O19 7941   6.361   8.319   8.597  0.4885 -0.0688 -0.1398
   19CHTO   H35 7942   6.272   8.323   8.570 -0.0484  1.3839  1.7719
   19CHTO   C21 7943   6.573   8.210   8.516  0.0224  0.3401  0.6073
   19CHTO   H49 7944   6.624   8.293   8.566  1.7143 -0.3062  0.0065
   19CHTO    N4 7945   6.575   8.095   8.611  0.3082  0.3404 -0.1307
   19CHTO   H41 7946   6.500   8.104   8.688  0.8059  2.0066  0.1906
   19CHTO   H42 7947   6.671   8.073   8.655 -0.4983 -3.1830 -0.0242
   19CHTO   C22 7948   6.650   8.183   8.381  0.1120  0.5260  0.1000
   19CHTO   H50 7949   6.604   8.093   8.338  2.3055 -1.7233  2.2678
   19CHTO   O14 7950   6.657   8.294   8.296  1.0275  1.0933  0.0874
   19CHTO   C23 7951   6.519   8.317   8.248 -0.9030 -0.2229 -0.1265
   19CHTO   H51 7952   6.488   8.222   8.201 -1.9123 -1.2438  2.5102
   19CHTO   C34 7953   6.521   8.417   8.131  0.3229 -0.3979 -0.7317
   19CHTO   O23 7954   6.599   8.365   8.023  0.8618 -0.1807  0.3591
   19CHTO   H38 7955   6.669   8.306   8.043  0.1419 -0.2860  2.6538
   19CHTO   O16 7956   6.790   8.160   8.408  0.1564  0.4002 -0.2707
   19CHTO   C24 7957   6.861   8.027   8.302  0.7473  0.2904 -0.0531
   19CHTO   H52 7958   6.966   8.046   8.283  1.0193 -0.5319  0.6248
   19CHTO   C26 7959   6.795   8.026   8.164 -0.6369 -0.3225 -0.1500
   19CHTO   H54 7960   6.685   8.024   8.178 -0.5924  1.2245  0.5983
   19CHTO   O20 7961   6.843   8.152   8.096 -0.4719  0.6274 -0.1210
   19CHTO   H36 7962   6.933   8.171   8.115 -0.8062  0.8338  1.2784
   19CHTO   C30 7963   6.831   7.905   8.078 -0.7404 -0.2728 -0.5384
   19CHTO   H58 7964   6.925   7.930   8.027 -1.0642 -0.2292 -1.1231
   19CHTO    N6 7965   6.735   7.886   7.968  0.1087  0.2525  0.3246
   19CHTO   H45 7966   6.724   7.975   7.907  2.0069  0.4009  0.1811
   19CHTO   H46 7967   6.637   7.848   7.994  0.3244 -0.4265  0.1506
   19CHTO   C33 7968   6.851   7.774   8.162 -0.1880 -1.1787  0.0733
   19CHTO   H61 7969   6.750   7.736   8.183 -1.0357 -1.9013 -4.7917
   19CHTO   O18 7970   6.915   7.793   8.293  0.1988 -0.4784 -0.0471
   19CHTO   C28 7971   6.851   7.891   8.376 -0.9193  0.5778 -0.3746
   19CHTO   H56 7972   6.746   7.868   8.393 -1.2156  1.2697 -1.2130
   19CHTO   C35 7973   6.921   7.874   8.515  0.1155 -0.2369  0.1458
   19CHTO   O24 7974   6.882   7.759   8.579  0.5135  0.3544  0.0491
   19CHTO   H39 7975   6.877   7.691   8.514  1.6158  0.1405  0.1666
   19CHTO    O9 7976   6.914   7.669   8.087  0.1135  0.2937 -0.2285
   19CHTO   C13 7977   6.851   7.517   8.157 -0.5954  0.1538 -0.1241
   19CHTO   H26 7978   6.774   7.542   8.233 -0.9974 -1.2447 -0.0573
   19CHTO   C11 7979   6.978   7.448   8.225  0.5009 -0.0558  0.0192
   19CHTO   H24 7980   6.989   7.504   8.320 -0.4906  0.0445  0.0800
   19CHTO    O8 7981   7.093   7.462   8.141 -0.4555  0.0393 -0.9001
   19CHTO    H3 7982   7.122   7.551   8.152 -1.4173  0.1847  0.5572
   19CHTO    C9 7983   6.940   7.304   8.258 -0.0104 -0.1511 -0.1032
   19CHTO   H22 7984   6.850   7.313   8.321  2.6614  2.1232  3.5535
   19CHTO    N2 7985   7.026   7.230   8.350  0.2137  0.2010  0.5599
   19CHTO   H10 7986   6.957   7.196   8.426 -1.0851 -0.3096 -0.8306
   19CHTO   H11 7987   7.101   7.295   8.391  1.4610  0.6697 -2.3144
   19CHTO    C7 7988   6.909   7.226   8.122  0.0428  0.2890  0.4850
   19CHTO   H20 7989   6.808   7.180   8.135 -1.2005  1.3790 -4.1419
   19CHTO    O4 7990   6.880   7.315   8.008 -0.0840 -0.0991  0.0819
   19CHTO   C14 7991   6.789   7.425   8.043  0.1793 -0.0174  0.1279
   19CHTO   H27 7992   6.698   7.375   8.080 -1.3442  2.3685 -0.3188
   19CHTO   C18 7993   6.746   7.515   7.924 -0.7710  0.4604 -0.2305
   19CHTO   O13 7994   6.690   7.445   7.810 -0.0401 -0.4375  0.0637
   19CHTO    H7 7995   6.754   7.416   7.748 -0.2271 -0.0266 -0.3216
   19CHTO    O2 7996   7.026   7.111   8.076 -0.0564  0.2632  0.2099
   19CHTO    C1 7997   6.968   6.982   8.071  0.3335 -0.2068  0.1069
   19CHTO   H14 7998   6.859   6.979   8.092 -0.1093 -1.8962 -2.1697
   19CHTO    C2 7999   7.038   6.866   8.167 -0.0406  0.1224  0.2446
   19CHTO   H15 8000   7.147   6.872   8.154  0.0259 -0.8902  0.3396
   19CHTO    O6 8001   7.013   6.894   8.299  0.6763 -0.1235 -0.3652
   19CHTO    H1 8002   6.948   6.835   8.333  0.4713  0.5905  0.5098
   19CHTO    C3 8003   6.984   6.722   8.127  0.3683 -0.5379 -0.4333
   19CHTO   H16 8004   6.889   6.707   8.180  1.1802 -2.6853  0.4645
   19CHTO    N1 8005   7.063   6.606   8.174  0.1680  0.4107 -0.0715
   19CHTO    H8 8006   7.037   6.520   8.114 -2.3658 -0.2203  1.8630
   19CHTO    H9 8007   7.035   6.597   8.278  0.3816  2.2224  0.1584
   19CHTO    C4 8008   6.944   6.708   7.968  0.6021  0.5578  0.6268
   19CHTO   H17 8009   7.029   6.676   7.909  0.4346  1.5238 -0.1668
   19CHTO    O1 8010   6.888   6.826   7.915  0.1943 -0.0466  0.2753
   19CHTO    C5 8011   6.972   6.937   7.923  0.2352  0.2023 -0.7363
   19CHTO   H18 8012   7.075   6.915   7.894  0.3531  0.9345 -0.8668
   19CHTO   C16 8013   6.905   7.041   7.825 -0.3533  0.6183 -0.0863
   19CHTO   O11 8014   6.894   7.005   7.688 -0.0817 -0.0579 -0.6470
   19CHTO    H5 8015   6.877   6.914   7.679 -0.2107  0.1710 -3.1067
   19CHTO    O3 8016   6.837   6.615   7.951 -0.2102 -0.2044 -0.3155
   19CHTO    C6 8017   6.862   6.488   7.882  0.3404 -0.0192 -0.7794
   19CHTO   H19 8018   6.968   6.467   7.872  0.5636  0.2834  0.8760
   19CHTO    C8 8019   6.794   6.382   7.962  0.1901  0.2329  0.3912
   19CHTO   H21 8020   6.689   6.410   7.969  0.6765  1.5788  2.8065
   19CHTO    O7 8021   6.860   6.381   8.093  0.3769 -0.4924  0.4551
   19CHTO    H2 8022   6.793   6.357   8.154 -0.1476 -1.8511 -0.6145
   19CHTO   C12 8023   6.807   6.243   7.892 -0.0774  0.6672 -0.4320
   19CHTO   H25 8024   6.915   6.216   7.896  0.0325  1.1848  0.1959
   19CHTO    N3 8025   6.720   6.141   7.967  0.3747  0.3595 -0.2555
   19CHTO   H12 8026   6.766   6.134   8.064 -0.9536  1.6651  0.4821
   19CHTO   H13 8027   6.733   6.044   7.921  3.2146  0.4643  0.2312
   19CHTO   C15 8028   6.762   6.255   7.744 -0.4579 -0.2747  0.1604
   19CHTO   H28 8029   6.654   6.270   7.737 -0.3595 -0.5160 -2.1447
   19CHTO   O10 8030   6.808   6.130   7.673  0.7065 -0.1897  0.7347
   19CHTO    H4 8031   6.895   6.116   7.704  0.8530  0.3709  0.5813
   19CHTO    O5 8032   6.829   6.358   7.675  0.2335 -0.0779  0.1692
   19CHTO   C10 8033   6.807   6.487   7.734 -0.4264 -0.4698  0.5358
   19CHTO   H23 8034   6.701   6.513   7.740 -0.1925  0.8218 -0.6620
   19CHTO   C17 8035   6.890   6.583   7.645 -0.0508  0.0908 -1.0318
   19CHTO   O12 8036   6.820   6.662   7.542 -0.6278 -0.0783  0.1373
   19CHTO    H6 8037   6.879   6.724   7.504 -0.5619 -0.6117 -0.6548
   20CHTO  H203 8038   6.443   1.357   7.862  0.2430 -0.8503  2.0988
   20CHTO   O82 8039   6.519   1.412   7.868 -0.3622  0.2099  0.3796
   20CHTO  C123 8040   6.492   1.545   7.834  0.4793 -0.5065  0.2316
   20CHTO  H227 8041   6.410   1.545   7.761 -1.1370 -0.1396  1.9872
   20CHTO   O77 8042   6.442   1.605   7.962  0.0367 -0.4023 -0.2610
   20CHTO  C118 8043   6.368   1.723   7.939 -0.1091 -0.5453  0.1891
   20CHTO  H222 8044   6.294   1.697   7.863  1.4654 -3.0500 -0.5650
   20CHTO  C125 8045   6.295   1.773   8.069  0.6853 -0.2779 -0.1803
   20CHTO   O84 8046   6.199   1.677   8.114  0.1318 -0.0899 -0.2780
   20CHTO  H205 8047   6.142   1.656   8.042 -0.6715 -0.2603  0.3960
   20CHTO  C114 8048   6.460   1.831   7.896 -0.7138 -0.2283  0.5941
   20CHTO  H218 8049   6.521   1.861   7.981  0.3742  0.5036 -0.4206
   20CHTO  C116 8050   6.558   1.790   7.779  0.4180 -0.3297  0.3314
   20CHTO  H220 8051   6.502   1.813   7.686 -0.6141 -0.7347  0.8445
   20CHTO   O79 8052   6.672   1.876   7.782 -0.1319 -0.1862  0.0112
   20CHTO  H201 8053   6.746   1.834   7.743 -0.8056  0.2529 -1.8124
   20CHTO  C120 8054   6.606   1.635   7.784 -1.0037  0.6626  0.0180
   20CHTO  H224 8055   6.693   1.635   7.853 -1.8298  0.3940  1.0700
   20CHTO   N21 8056   6.656   1.588   7.652 -0.3021 -0.5876  0.2870
   20CHTO  H211 8057   6.722   1.503   7.652  0.5194  0.0486 -0.6688
   20CHTO  H212 8058   6.583   1.588   7.572  0.7483 -2.1086 -0.6856
   20CHTO   O75 8059   6.374   1.938   7.854 -0.1507 -0.1809 -0.3917
   20CHTO  C112 8060   6.431   2.072   7.894 -0.0416 -0.0588 -0.0893
   20CHTO  H216 8061   6.538   2.061   7.914  0.2975  0.1872 -1.7305
   20CHTO   O73 8062   6.358   2.119   8.013  0.0046 -0.0056  0.2248
   20CHTO  C113 8063   6.425   2.232   8.073  0.2852  0.7601  0.3823
   20CHTO  H217 8064   6.533   2.213   8.092 -0.0548 -3.3401 -1.1912
   20CHTO  C124 8065   6.354   2.258   8.204 -0.1406 -0.0540 -0.5786
   20CHTO   O83 8066   6.340   2.150   8.297 -0.2204  0.5473 -0.0788
   20CHTO  H204 8067   6.272   2.166   8.359  2.0794  0.7198  2.4988
   20CHTO  C109 8068   6.413   2.358   7.981  0.0194  0.6720 -0.1178
   20CHTO  H213 8069   6.309   2.393   7.983  0.9146  3.3948  2.2719
   20CHTO  C110 8070   6.463   2.322   7.835  0.3469  0.1784 -0.1904
   20CHTO  H214 8071   6.571   2.334   7.824  0.6901 -1.3928  1.1062
   20CHTO   O78 8072   6.412   2.422   7.747  0.4203 -0.3454 -0.6461
   20CHTO  H200 8073   6.368   2.495   7.786  1.3474 -1.2011  2.1119
   20CHTO  C111 8074   6.416   2.185   7.790 -1.0172 -0.1073 -0.4506
   20CHTO  H215 8075   6.307   2.188   7.775 -1.0310 -0.7580 -0.4646
   20CHTO   N19 8076   6.472   2.140   7.652  0.0952  0.0489 -0.6519
   20CHTO  H207 8077   6.579   2.148   7.640  0.7903 -1.1348  3.8487
   20CHTO  H208 8078   6.444   2.037   7.633 -1.9229  0.8473 -2.2182
   20CHTO   O74 8079   6.495   2.469   8.020 -0.1638 -0.0969  0.8654
   20CHTO  C115 8080   6.402   2.610   8.090 -0.1045  0.0115 -0.0301
   20CHTO  H219 8081   6.300   2.583   8.118 -0.5469  0.8865 -0.7509
   20CHTO   O76 8082   6.463   2.658   8.215  0.0146 -0.2933  0.5691
   20CHTO  C122 8083   6.601   2.700   8.204  0.1146 -0.0998  0.1646
   20CHTO  H226 8084   6.660   2.610   8.223  0.5627 -0.0423 -0.9102
   20CHTO  C126 8085   6.619   2.804   8.318  0.3182  0.4725  0.2675
   20CHTO   O85 8086   6.754   2.847   8.339  0.3579 -0.1229  0.2089
   20CHTO  H206 8087   6.759   2.918   8.400 -2.8047 -1.3244  1.9847
   20CHTO  C121 8088   6.639   2.767   8.070  0.9852 -0.2061  0.0189
   20CHTO  H225 8089   6.717   2.845   8.080  1.4320 -0.5855 -0.4698
   20CHTO   O81 8090   6.697   2.664   7.991 -0.6741 -0.2908  0.1431
   20CHTO  H202 8091   6.789   2.648   7.995 -0.5606  0.7559  4.0347
   20CHTO  C119 8092   6.521   2.832   8.003 -0.6196 -0.4247  0.2010
   20CHTO  H223 8093   6.487   2.910   8.071 -0.2624  1.2174 -1.4742
   20CHTO  C117 8094   6.401   2.725   7.977 -0.8698 -0.2386 -0.3768
   20CHTO  H221 8095   6.417   2.671   7.884  1.0105 -0.8870  0.2983
   20CHTO   N20 8096   6.267   2.786   7.965 -0.0505  0.3831 -0.4841
   20CHTO  H209 8097   6.243   2.812   8.067  1.4500  0.0689 -0.0400
   20CHTO  H210 8098   6.270   2.872   7.900  0.2499  0.5009 -0.3191
   20CHTO   O80 8099   6.557   2.929   7.861  0.0384 -0.5675 -0.7886
   20CHTO  C103 8100   6.501   3.052   7.849 -0.6402  0.1870  0.3843
   20CHTO  H190 8101   6.409   3.078   7.900 -1.0121  0.6662 -0.5257
   20CHTO  C101 8102   6.600   3.169   7.896  0.5366  0.5240  0.1914
   20CHTO  H188 8103   6.698   3.152   7.850 -0.4950 -0.8193 -1.6183
   20CHTO   O68 8104   6.610   3.154   8.058 -0.0781 -0.4846  0.4918
   20CHTO  H168 8105   6.524   3.141   8.095  0.0726  1.8371  1.7835
   20CHTO   C99 8106   6.550   3.316   7.852 -0.5962 -0.6829 -0.2060
   20CHTO  H186 8107   6.448   3.335   7.892 -0.6925  1.7050 -1.4710
   20CHTO   N17 8108   6.646   3.424   7.888  0.3686 -0.4356 -0.4002
   20CHTO  H174 8109   6.629   3.512   7.827 -0.8694  0.0420  0.5914
   20CHTO  H175 8110   6.622   3.456   7.989  1.8657  0.6726 -0.3836
   20CHTO   C97 8111   6.531   3.309   7.697 -1.0297 -0.4631  0.3861
   20CHTO  H184 8112   6.625   3.284   7.646 -0.9163 -1.2014  0.9575
   20CHTO   O64 8113   6.432   3.209   7.678 -0.2584 -0.2567 -0.2322
   20CHTO  C104 8114   6.474   3.072   7.688  0.6694  0.0507  0.7344
   20CHTO  H191 8115   6.559   3.039   7.628 -0.2472  0.9622 -1.1332
   20CHTO  C108 8116   6.353   2.997   7.634 -0.2329 -0.7042 -0.3407
   20CHTO   O71 8117   6.370   2.851   7.648  0.1160 -0.2401  0.0104
   20CHTO  H171 8118   6.297   2.807   7.610 -0.5979 -0.2189  1.3400
   20CHTO   O62 8119   6.484   3.432   7.635 -0.1683  1.1065  0.3143
   20CHTO   C91 8120   6.484   3.429   7.491 -0.2304 -0.1752 -0.4676
   20CHTO  H178 8121   6.502   3.330   7.448 -0.2466 -0.6955  0.6987
   20CHTO   C92 8122   6.612   3.520   7.446  0.1838  0.6905  0.6707
   20CHTO  H179 8123   6.612   3.611   7.509 -0.4668  0.4730  0.9886
   20CHTO   O66 8124   6.728   3.451   7.488 -0.0634  0.1378  0.1865
   20CHTO  H166 8125   6.807   3.494   7.462 -0.5588  0.1239 -1.3948
   20CHTO   C93 8126   6.620   3.557   7.290 -1.1333 -0.9730  1.0310
   20CHTO  H180 8127   6.662   3.475   7.230  1.3214  0.8693  0.1642
   20CHTO   N16 8128   6.704   3.676   7.263 -0.3908 -0.1047 -0.3062
   20CHTO  H172 8129   6.714   3.686   7.156  0.0897 -1.2216 -0.3690
   20CHTO  H173 8130   6.674   3.769   7.309  0.3969 -1.0457  2.1957
   20CHTO   C94 8131   6.479   3.582   7.227  0.3525 -0.6771 -0.4488
   20CHTO  H181 8132   6.430   3.671   7.265  0.2120 -0.7272 -0.5106
   20CHTO   O61 8133   6.391   3.481   7.274  0.1891  0.3929  0.8632
   20CHTO   C95 8134   6.363   3.485   7.413 -0.5194 -0.4179 -0.3674
   20CHTO  H182 8135   6.355   3.588   7.447 -0.2070 -0.8777  1.1328
   20CHTO  C106 8136   6.238   3.403   7.449 -0.4707  0.0832 -0.2326
   20CHTO   O69 8137   6.117   3.438   7.384  0.0651  0.9222 -0.0594
   20CHTO  H169 8138   6.069   3.500   7.435 -1.7338 -0.4768  0.0077
   20CHTO   O63 8139   6.474   3.590   7.060 -0.0494 -0.3530  0.0939
   20CHTO   C96 8140   6.490   3.469   6.990  0.3207 -1.0505 -0.0639
   20CHTO  H183 8141   6.538   3.404   7.063  0.6560 -1.5429 -0.7239
   20CHTO   C98 8142   6.582   3.475   6.870  0.6954 -0.5476  0.0947
   20CHTO  H185 8143   6.679   3.520   6.896  0.1371  1.3964 -1.0828
   20CHTO   O67 8144   6.621   3.343   6.827  1.0061  0.1191  0.0321
   20CHTO  H167 8145   6.666   3.356   6.746 -0.8094  0.1601 -0.9943
   20CHTO  C102 8146   6.512   3.562   6.747  0.2265 -1.0037  0.0792
   20CHTO  H189 8147   6.555   3.519   6.656 -0.0589 -1.7009  0.2652
   20CHTO   N18 8148   6.542   3.707   6.742  0.0379  0.0237  0.5237
   20CHTO  H176 8149   6.497   3.758   6.826  0.6203 -0.8379  1.3890
   20CHTO  H177 8150   6.527   3.743   6.642 -0.6490  1.1574  1.0347
   20CHTO  C105 8151   6.358   3.531   6.741 -0.8258 -0.6300  0.1715
   20CHTO  H192 8152   6.304   3.616   6.783  0.5779  0.6484 -0.5543
   20CHTO   O65 8153   6.326   3.412   6.811 -0.6370 -0.1317  0.0470
   20CHTO  C100 8154   6.352   3.408   6.954  0.2599  0.1191 -0.5995
   20CHTO  H187 8155   6.272   3.459   7.010  1.0436 -0.9519  1.5828
   20CHTO  C107 8156   6.339   3.260   7.001  0.0435  0.2472 -0.4929
   20CHTO   O70 8157   6.351   3.247   7.146  0.1095 -0.0780  0.2256
   20CHTO  H170 8158   6.435   3.222   7.178  0.0086 -0.4192  0.2286
   20CHTO   O57 8159   6.317   3.520   6.570  0.1174 -0.4526  0.0329
   20CHTO   C85 8160   6.179   3.558   6.544 -0.0565 -0.2628 -0.0895
   20CHTO  H157 8161   6.163   3.653   6.599 -1.2150  0.3424 -1.4369
   20CHTO   C83 8162   6.078   3.456   6.610  0.4620 -0.5100 -0.0444
   20CHTO  H155 8163   6.091   3.455   6.718 -1.1226 -0.4676  0.1521
   20CHTO   O56 8164   6.118   3.324   6.568  0.2092 -0.0113  0.0294
   20CHTO  H135 8165   6.211   3.315   6.572  0.0133 -1.5029  1.6676
   20CHTO   C81 8166   5.933   3.504   6.577 -0.3423 -0.4296  0.4156
   20CHTO  H153 8167   5.924   3.606   6.616 -0.3039  0.4298 -1.7626
   20CHTO   N14 8168   5.830   3.416   6.650 -0.1319  0.2597 -0.6871
   20CHTO  H141 8169   5.733   3.461   6.640 -1.5469 -1.4918  3.6147
   20CHTO  H142 8170   5.856   3.416   6.754 -2.7706 -2.6080  0.0566
   20CHTO   C79 8171   5.908   3.513   6.423 -0.4833  0.1766  0.6233
   20CHTO  H151 8172   5.808   3.554   6.411 -0.4975 -0.2613 -0.9069
   20CHTO   O52 8173   6.005   3.605   6.358  0.1197 -0.1507 -0.2401
   20CHTO   C86 8174   6.148   3.574   6.390 -0.2450  0.2819 -0.7126
   20CHTO  H158 8175   6.165   3.483   6.329  0.4686 -0.4319  0.5260
   20CHTO   C90 8176   6.237   3.691   6.325 -0.3388  0.8537 -0.2682
   20CHTO   O60 8177   6.375   3.664   6.344 -0.5785  0.3137  0.3252
   20CHTO  H138 8178   6.398   3.612   6.270  1.5096 -0.0128  1.1704
   20CHTO   O50 8179   5.918   3.387   6.351  0.3377  0.0382 -0.2690
   20CHTO   C73 8180   5.905   3.343   6.212  0.4967  0.9137  0.0215
   20CHTO  H145 8181   5.968   3.398   6.141 -0.5624 -0.6301 -2.1982
   20CHTO   C74 8182   5.754   3.344   6.170 -0.2162 -0.5481 -0.7720
   20CHTO  H146 8183   5.723   3.447   6.190 -0.4996 -0.8471  0.3284
   20CHTO   O54 8184   5.748   3.321   6.032  0.4892 -0.3391  0.2826
   20CHTO  H133 8185   5.661   3.291   6.013 -0.3880  2.2546  0.1051
   20CHTO   C75 8186   5.678   3.237   6.259 -0.9932  0.7536 -0.7806
   20CHTO  H147 8187   5.683   3.267   6.365 -0.3084  0.1430 -0.6307
   20CHTO   N13 8188   5.529   3.233   6.228 -0.5670  0.1150  0.1070
   20CHTO  H139 8189   5.480   3.304   6.292 -1.8694 -2.9082  2.5867
   20CHTO  H140 8190   5.494   3.134   6.255 -0.5499  0.2236  0.5230
   20CHTO   C76 8191   5.750   3.095   6.273 -0.3318  0.0669  0.2287
   20CHTO  H148 8192   5.749   3.062   6.169  2.0787  0.2930  0.0955
   20CHTO   O49 8193   5.896   3.123   6.311 -0.5831 -0.1102 -0.8778
   20CHTO   C77 8194   5.953   3.197   6.203  0.0217 -0.1159 -0.7839
   20CHTO  H149 8195   5.944   3.164   6.100 -1.1124 -0.7045 -0.5007
   20CHTO   C88 8196   6.104   3.188   6.239  0.1805 -0.0544  0.4479
   20CHTO   O58 8197   6.188   3.191   6.125 -0.3028 -0.1645  0.9418
   20CHTO  H136 8198   6.169   3.118   6.070  0.9988 -0.2889  0.6238
   20CHTO   O51 8199   5.671   2.999   6.373 -0.5480  0.5886  0.0180
   20CHTO   C78 8200   5.734   2.849   6.389 -0.6311  0.6978 -0.0619
   20CHTO  H150 8201   5.845   2.843   6.390 -0.6531  0.2709  0.9593
   20CHTO   C80 8202   5.676   2.740   6.298  0.0562 -0.2933 -0.1049
   20CHTO  H152 8203   5.565   2.743   6.307  0.2047  1.0177  1.4144
   20CHTO   O55 8204   5.705   2.779   6.165  0.3447  0.7374  0.1542
   20CHTO  H134 8205   5.681   2.869   6.155 -0.4084  0.6181  0.8364
   20CHTO   C84 8206   5.716   2.590   6.336  0.0007  0.2675 -0.2581
   20CHTO  H156 8207   5.822   2.578   6.317 -0.1326  0.4819 -1.1832
   20CHTO   N15 8208   5.642   2.488   6.252 -0.4428  0.2473  0.0224
   20CHTO  H143 8209   5.559   2.441   6.301  0.0406 -0.6438 -0.0195
   20CHTO  H144 8210   5.610   2.524   6.157 -0.8984 -0.7489 -0.2125
   20CHTO   C87 8211   5.693   2.564   6.486 -0.6986 -0.3972 -0.3050
   20CHTO  H159 8212   5.588   2.570   6.516 -0.1152  0.8994  1.6207
   20CHTO   O53 8213   5.770   2.672   6.553 -0.3042 -0.2374  0.1837
   20CHTO   C82 8214   5.696   2.794   6.531 -0.0443  0.0113 -0.3468
   20CHTO  H154 8215   5.591   2.773   6.550  0.1600 -0.4587  0.3017
   20CHTO   C89 8216   5.747   2.895   6.634  0.4458  0.0227  0.0469
   20CHTO   O59 8217   5.752   2.844   6.767  0.1299 -0.2246 -0.3039
   20CHTO  H137 8218   5.796   2.899   6.829  0.2871 -0.9823  0.2704
   20CHTO   O45 8219   5.786   2.417   6.527 -0.7834  0.1603 -0.1978
   20CHTO   C67 8220   5.790   2.391   6.671 -0.5063 -0.3704 -0.4948
   20CHTO  H124 8221   5.807   2.487   6.721  0.3110 -0.9309  0.3205
   20CHTO   C65 8222   5.655   2.330   6.728  0.1533 -0.0897 -0.6065
   20CHTO  H122 8223   5.606   2.296   6.637 -0.4081 -3.3632  0.8641
   20CHTO   O44 8224   5.582   2.447   6.780  0.3924  0.2342  0.1710
   20CHTO  H102 8225   5.492   2.423   6.785  0.3624 -0.3238 -2.4126
   20CHTO   C63 8226   5.678   2.200   6.816  1.2589 -0.4110 -0.1015
   20CHTO  H120 8227   5.706   2.121   6.747 -1.9579 -0.2449 -1.7145
   20CHTO   N11 8228   5.549   2.142   6.869  0.2887 -0.4372 -0.0130
   20CHTO  H108 8229   5.566   2.050   6.921 -0.0018  0.3389  1.4923
   20CHTO  H109 8230   5.492   2.213   6.926 -1.4645 -1.6353 -0.2088
   20CHTO   C61 8231   5.790   2.233   6.916  0.7522 -0.4445 -0.1413
   20CHTO  H118 8232   5.809   2.145   6.979 -1.6937 -0.2661  0.8760
   20CHTO   O40 8233   5.916   2.276   6.865 -0.4200  0.2081  0.6459
   20CHTO   C68 8234   5.912   2.295   6.714 -0.3089 -0.9067  1.0153
   20CHTO  H125 8235   5.901   2.191   6.679 -0.8266 -0.4382 -0.2569
   20CHTO   C72 8236   6.054   2.338   6.670 -0.3271  0.6280 -0.6056
   20CHTO   O48 8237   6.099   2.451   6.751 -0.1157  0.3195  0.0528
   20CHTO  H105 8238   6.181   2.431   6.793  0.1451 -0.4992 -0.8484
   20CHTO   O38 8239   5.755   2.344   7.005  0.3495  0.3157 -0.3320
   20CHTO   C55 8240   5.822   2.351   7.136  0.7439 -0.1866 -0.0502
   20CHTO  H112 8241   5.930   2.339   7.119  0.6524 -0.6754 -0.3042
   20CHTO   C56 8242   5.763   2.240   7.238 -0.7884 -1.2539 -0.1197
   20CHTO  H113 8243   5.654   2.255   7.230 -0.4037  1.6556 -0.1164
   20CHTO   O42 8244   5.790   2.104   7.197  0.1224 -0.6697 -0.0916
   20CHTO  H100 8245   5.719   2.054   7.233 -0.1351  0.6579  1.2958
   20CHTO   C57 8246   5.810   2.258   7.387 -0.3797  0.1311 -0.3025
   20CHTO  H114 8247   5.918   2.245   7.394 -0.5586 -1.3983 -0.3795
   20CHTO   N10 8248   5.745   2.183   7.500 -0.2218 -0.3736  0.3223
   20CHTO  H106 8249   5.721   2.086   7.459 -1.5959  0.8207 -1.8534
   20CHTO  H107 8250   5.819   2.178   7.578 -1.3927 -0.3233  1.4516
   20CHTO   C58 8251   5.787   2.411   7.427 -0.6107  0.1119  0.4839
   20CHTO  H115 8252   5.680   2.437   7.415 -0.2657  0.4786 -2.2379
   20CHTO   O37 8253   5.861   2.497   7.333  0.9847 -0.2077  0.1550
   20CHTO   C59 8254   5.803   2.489   7.207 -0.3451  0.1850  0.0161
   20CHTO  H116 8255   5.698   2.518   7.206  0.3147  2.6850 -2.1906
   20CHTO   C70 8256   5.864   2.606   7.119  0.6636  0.4497  0.3619
   20CHTO   O46 8257   5.804   2.632   6.987 -0.3453 -0.2136 -0.2088
   20CHTO  H103 8258   5.813   2.552   6.940  1.2445  1.0958 -2.2230
   20CHTO   O39 8259   5.851   2.457   7.576  0.5602  0.1883  0.2316
   20CHTO   C60 8260   5.866   2.598   7.595 -0.0136 -0.7565 -0.0234
   20CHTO  H117 8261   5.869   2.656   7.503 -3.2586 -0.3923  0.0523
   20CHTO   C62 8262   5.742   2.651   7.686 -0.3723 -0.9739  0.4508
   20CHTO  H119 8263   5.652   2.634   7.622  1.9651 -1.2164 -2.9140
   20CHTO   O43 8264   5.732   2.571   7.801  0.2188 -0.3546 -0.2609
   20CHTO  H101 8265   5.714   2.482   7.780  0.1593 -0.6100  0.8216
   20CHTO   C66 8266   5.749   2.809   7.713 -0.5531  1.4104 -0.7089
   20CHTO  H123 8267   5.740   2.863   7.619  1.8659  2.4016 -0.4160
   20CHTO   N12 8268   5.626   2.852   7.778  0.3289  0.2241 -0.4653
   20CHTO  H110 8269   5.631   2.882   7.882  0.9721  0.6343 -0.6097
   20CHTO  H111 8270   5.541   2.787   7.764  0.3269  0.1110  0.0300
   20CHTO   C69 8271   5.876   2.844   7.783 -0.2725 -0.7861  0.2403
   20CHTO  H126 8272   5.865   2.788   7.878  0.3554 -2.4193 -0.6292
   20CHTO   O41 8273   6.005   2.788   7.699 -0.1265  0.0883  0.4570
   20CHTO   C64 8274   5.999   2.630   7.669  0.1237 -0.1466  0.0785
   20CHTO  H121 8275   6.005   2.572   7.764  1.5811  3.5959  2.3631
   20CHTO   C71 8276   6.127   2.602   7.584 -0.0578 -0.3344 -0.0390
   20CHTO   O47 8277   6.155   2.466   7.588 -0.9456 -1.0817 -0.3383
   20CHTO  H104 8278   6.123   2.416   7.661  1.4844 -1.3032  0.6516
   20CHTO   O34 8279   5.898   2.983   7.818  0.0735  0.0150 -0.1672
   20CHTO   C49 8280   5.921   3.142   7.823 -0.1396  0.1941  0.3212
   20CHTO   H91 8281   5.910   3.174   7.927  1.2327  1.1326  0.1949
   20CHTO   C47 8282   5.812   3.204   7.737 -0.4447  0.2728 -0.0583
   20CHTO   H89 8283   5.834   3.313   7.747 -1.7886  0.6719 -1.3017
   20CHTO   O33 8284   5.682   3.184   7.792  0.0567  0.1239  0.2059
   20CHTO   H70 8285   5.676   3.098   7.830  2.3165 -0.0895  0.1934
   20CHTO   C45 8286   5.825   3.154   7.581  0.2094 -0.1017 -1.2119
   20CHTO   H87 8287   5.767   3.062   7.568  3.0156 -2.0528 -0.3059
   20CHTO    N8 8288   5.772   3.254   7.497 -0.6305  0.5908 -0.1649
   20CHTO   H75 8289   5.682   3.213   7.454  0.0663 -1.7800  0.5980
   20CHTO   H76 8290   5.848   3.297   7.433  0.0718  1.4285  1.1933
   20CHTO   C43 8291   5.969   3.105   7.546 -0.4422 -0.7339 -0.1200
   20CHTO   H85 8292   5.976   3.004   7.585 -0.0662 -0.6109  0.1340
   20CHTO   O29 8293   6.064   3.195   7.617  0.2493 -0.0879  0.2218
   20CHTO   C50 8294   6.054   3.183   7.763  0.6841 -0.6049  0.1425
   20CHTO   H92 8295   6.129   3.106   7.787  0.9751 -0.7024 -1.0156
   20CHTO   C54 8296   6.109   3.314   7.835 -0.4818  0.1262 -0.0534
   20CHTO   O36 8297   6.217   3.382   7.774  0.0962 -0.2972  0.0954
   20CHTO   H72 8298   6.201   3.469   7.803  0.5317 -0.5761  1.2236
   20CHTO   O27 8299   5.992   3.094   7.404  0.0454  0.7802 -0.1227
   20CHTO   C37 8300   5.970   3.010   7.286 -0.0585  0.3765 -0.4535
   20CHTO   H79 8301   5.895   2.933   7.309  0.5344  0.4492  1.8373
   20CHTO   C38 8302   5.904   3.097   7.176  0.3418 -0.2552 -0.4340
   20CHTO   H80 8303   5.945   3.199   7.188 -0.1418 -0.2068  0.8593
   20CHTO   O31 8304   5.762   3.105   7.204  0.0049  0.4431 -0.2654
   20CHTO   H68 8305   5.748   3.180   7.257  1.7146  2.1812 -2.1847
   20CHTO   C39 8306   5.933   3.037   7.027  0.1107  0.5503 -0.1543
   20CHTO   H81 8307   5.853   2.966   7.005  0.6271  0.1534 -0.7736
   20CHTO    N7 8308   5.926   3.161   6.944  0.4415 -0.4337  0.7503
   20CHTO   H73 8309   5.981   3.240   6.994  0.1051  0.9700 -1.0652
   20CHTO   H74 8310   5.935   3.150   6.837  1.2324  2.2346  0.4959
   20CHTO   C40 8311   6.070   2.970   7.011 -0.3235  0.0749  0.5853
   20CHTO   H82 8312   6.149   3.045   7.007  0.1685 -0.5122 -1.4169
   20CHTO   O26 8313   6.089   2.879   7.123  0.5643  0.1438  0.6697
   20CHTO   C41 8314   6.105   2.951   7.238  0.5230 -0.6144 -0.5670
   20CHTO   H83 8315   6.165   3.041   7.220  0.3083 -0.6013 -1.2295
   20CHTO   C52 8316   6.172   2.864   7.355  0.2431 -0.0942 -0.1676
   20CHTO   O35 8317   6.309   2.784   7.317  0.1630  0.6226 -1.2223
   20CHTO   H71 8318   6.365   2.777   7.391  0.4983 -0.7106 -1.5835
   20CHTO   O28 8319   6.072   2.886   6.889 -0.1653  0.7082 -0.2325
   20CHTO   C42 8320   6.184   2.854   6.812 -0.0523 -0.5674  0.5280
   20CHTO   H84 8321   6.148   2.775   6.746  0.3372 -0.0180 -0.3497
   20CHTO   C44 8322   6.313   2.796   6.884 -0.8244  0.2512  0.1812
   20CHTO   H86 8323   6.362   2.875   6.940 -1.5638 -0.3240  1.6553
   20CHTO   O32 8324   6.284   2.675   6.964  0.0450 -0.2063  0.3001
   20CHTO   H69 8325   6.317   2.679   7.052  1.4534 -1.1065 -0.1630
   20CHTO   C48 8326   6.417   2.761   6.774  0.3424 -0.0797 -0.5814
   20CHTO   H90 8327   6.385   2.677   6.713 -1.6503 -0.8784  1.4732
   20CHTO    N9 8328   6.551   2.713   6.834  0.1442  0.5759 -0.1745
   20CHTO   H77 8329   6.569   2.776   6.921 -0.5755  0.0648  0.3531
   20CHTO   H78 8330   6.546   2.612   6.873  0.0532  0.4355 -0.5481
   20CHTO   C51 8331   6.452   2.885   6.680  0.3325 -0.0963  0.3660
   20CHTO   H93 8332   6.506   2.961   6.737  0.0241  1.8838 -1.8800
   20CHTO   O30 8333   6.335   2.936   6.618 -0.2526  0.1189  0.3361
   20CHTO   C46 8334   6.218   2.974   6.719 -0.3664  0.1493 -0.1137
   20CHTO   H88 8335   6.250   3.062   6.775  2.0589 -0.3107 -0.7210
   20CHTO   C53 8336   6.100   3.005   6.631  0.2233  0.2541  0.1705
   20CHTO   O72 8337   6.073   2.903   6.541  0.5094  0.4198 -0.0709
   20CHTO  H199 8338   5.990   2.860   6.539  0.6991 -0.1289  2.4401
   20CHTO   O22 8339   6.529   2.859   6.565  0.1754 -0.2315  0.5216
   20CHTO   C31 8340   6.604   2.959   6.485 -0.2138 -0.1191 -0.1188
   20CHTO   H59 8341   6.635   2.909   6.391 -0.3187 -2.3238  0.9973
   20CHTO   C29 8342   6.517   3.080   6.439  0.0165 -0.1310 -0.3457
   20CHTO   H57 8343   6.448   3.112   6.518  2.1354  3.4976  0.1110
   20CHTO   O21 8344   6.432   3.034   6.331  0.0615  0.0281  0.0574
   20CHTO   H37 8345   6.361   3.095   6.332 -0.7490 -0.8938 -0.2555
   20CHTO   C27 8346   6.604   3.202   6.387  0.8490 -0.5039  0.0835
   20CHTO   H55 8347   6.654   3.175   6.293 -0.1110 -3.1727  0.3047
   20CHTO    N5 8348   6.526   3.331   6.365  0.2958 -0.0686  0.1289
   20CHTO   H43 8349   6.476   3.340   6.270  0.8922  1.2096 -0.0749
   20CHTO   H44 8350   6.602   3.408   6.363 -0.2146  0.4429  0.4505
   20CHTO   C25 8351   6.733   3.236   6.470  0.2157 -0.6099 -0.4821
   20CHTO   H53 8352   6.697   3.279   6.565  1.6520 -0.9732  0.2429
   20CHTO   O17 8353   6.812   3.116   6.492  0.0691 -0.4650 -0.6130
   20CHTO   C32 8354   6.734   3.011   6.558  0.2642  0.0198  0.6133
   20CHTO   H60 8355   6.705   3.045   6.657  0.0176  0.3671  0.4262
   20CHTO   C36 8356   6.829   2.892   6.588  0.3856 -0.5136  0.5006
   20CHTO   O25 8357   6.881   2.843   6.463  0.4227  0.4473 -0.4892
   20CHTO   H40 8358   6.951   2.904   6.448 -1.4296  2.8776  0.4498
   20CHTO   O15 8359   6.819   3.349   6.397  0.2166  0.2811  0.0067
   20CHTO   C19 8360   6.925   3.435   6.444 -0.7373  1.1087  0.1813
   20CHTO   H47 8361   6.960   3.487   6.354 -0.5218 -0.4946 -0.6622
   20CHTO   C20 8362   6.891   3.542   6.559  0.1737  0.3004 -0.1014
   20CHTO   H48 8363   6.844   3.496   6.648 -0.2477  3.9963  1.6859
   20CHTO   O19 8364   6.794   3.633   6.516  1.2684  0.7594 -0.1203
   20CHTO   H35 8365   6.776   3.695   6.584  1.8111  1.1063 -0.2926
   20CHTO   C21 8366   7.015   3.625   6.606 -0.7568 -0.9629 -0.6590
   20CHTO   H49 8367   7.043   3.699   6.531 -0.4550  0.5139  0.8774
   20CHTO    N4 8368   6.985   3.694   6.733  0.0574 -0.0371 -0.2507
   20CHTO   H41 8369   6.943   3.627   6.807 -0.2288 -0.4436 -0.7832
   20CHTO   H42 8370   6.921   3.779   6.715  3.6174  2.7613 -0.2029
   20CHTO   C22 8371   7.141   3.537   6.629 -0.1008 -0.4520 -0.5671
   20CHTO   H50 8372   7.127   3.489   6.726 -0.7153 -0.2175 -0.5355
   20CHTO   O14 8373   7.151   3.445   6.514  0.6130 -0.2117  0.1170
   20CHTO   C23 8374   7.039   3.353   6.494  0.4521 -0.4829 -0.0397
   20CHTO   H51 8375   7.013   3.293   6.583  0.5552 -0.1552  0.2123
   20CHTO   C34 8376   7.071   3.249   6.387  0.1206 -0.2303  0.0836
   20CHTO   O23 8377   7.170   3.161   6.438 -0.3715 -0.0906 -0.6426
   20CHTO   H38 8378   7.141   3.120   6.517 -0.2426 -2.6799 -1.8677
   20CHTO   O16 8379   7.260   3.622   6.628 -0.2302 -0.0177 -0.1836
   20CHTO   C24 8380   7.377   3.543   6.702  0.1466  0.1023  0.7579
   20CHTO   H52 8381   7.353   3.438   6.715 -0.2764  0.2937  1.5185
   20CHTO   C26 8382   7.426   3.593   6.838  0.2621  0.2105  0.2444
   20CHTO   H54 8383   7.467   3.695   6.825 -0.4963  0.2511 -1.9723
   20CHTO   O20 8384   7.314   3.608   6.933  0.5426  0.3650 -0.0542
   20CHTO   H36 8385   7.263   3.684   6.914 -0.0767  0.4201  1.7375
   20CHTO   C30 8386   7.538   3.498   6.888 -0.6245 -0.1101 -0.6320
   20CHTO   H58 8387   7.499   3.402   6.922  2.0018 -1.0122 -0.0675
   20CHTO    N6 8388   7.596   3.553   7.018 -0.0817 -0.1454 -0.7532
   20CHTO   H45 8389   7.664   3.636   7.003 -2.9503  2.4309 -0.0439
   20CHTO   H46 8390   7.648   3.469   7.061 -0.6392  0.9091  2.1086
   20CHTO   C33 8391   7.654   3.470   6.782  0.5003 -0.5636  0.5947
   20CHTO   H61 8392   7.726   3.553   6.786  1.2177 -1.1813  0.6774
   20CHTO   O18 8393   7.595   3.457   6.650 -0.0566  0.0613  0.2143
   20CHTO   C28 8394   7.495   3.546   6.604 -0.4799  0.4461 -0.0406
   20CHTO   H56 8395   7.537   3.646   6.596  1.6828 -0.3890  0.5912
   20CHTO   C35 8396   7.456   3.506   6.458 -0.7681  0.2266  0.3241
   20CHTO   O24 8397   7.552   3.519   6.351  0.0879 -0.0008  0.4901
   20CHTO   H39 8398   7.640   3.533   6.382  0.1276  1.9997 -0.4672
   20CHTO    O9 8399   7.725   3.348   6.820  1.1405 -0.3316  0.7306
   20CHTO   C13 8400   7.787   3.251   6.677 -0.0513  0.0995 -1.1620
   20CHTO   H26 8401   7.868   3.314   6.633  0.5023 -0.6972 -1.2823
   20CHTO   C11 8402   7.685   3.206   6.569 -1.3256 -0.2670 -0.5293
   20CHTO   H24 8403   7.670   3.294   6.504  0.1192 -0.1345 -0.7002
   20CHTO    O8 8404   7.561   3.179   6.636 -0.1836 -0.2115 -0.0418
   20CHTO    H3 8405   7.574   3.113   6.702  1.1670  0.3754  0.2855
   20CHTO    C9 8406   7.737   3.093   6.477 -0.1725  0.2751 -0.0233
   20CHTO   H22 8407   7.835   3.124   6.439 -1.1598  1.4089 -1.6700
   20CHTO    N2 8408   7.660   3.066   6.353  0.4324 -0.2149  0.2492
   20CHTO   H10 8409   7.558   3.034   6.371  0.0562  0.4003 -0.6935
   20CHTO   H11 8410   7.709   2.987   6.299  0.1664  0.0059 -0.3212
   20CHTO    C7 8411   7.755   2.966   6.569 -0.1041 -0.2041  0.2092
   20CHTO   H20 8412   7.836   2.906   6.523  0.6063  0.5782  0.4355
   20CHTO    O4 8413   7.806   2.997   6.699 -0.1226 -0.0134  0.1724
   20CHTO   C14 8414   7.869   3.129   6.723  0.5559  0.1467  0.0485
   20CHTO   H27 8415   7.966   3.136   6.669  0.7946 -2.8431  0.0331
   20CHTO   C18 8416   7.909   3.139   6.872  0.4942 -0.0063 -0.2336
   20CHTO   O13 8417   8.001   3.241   6.923  0.1447  0.3913  0.5540
   20CHTO    H7 8418   8.037   3.288   6.850  3.0853 -0.7863  1.1851
   20CHTO    O2 8419   7.604   2.865   6.575 -0.0423  0.2524  0.1509
   20CHTO    C1 8420   7.555   2.831   6.706  0.2818 -0.3589  0.4923
   20CHTO   H14 8421   7.559   2.921   6.770  1.5440 -0.3800  0.4689
   20CHTO    C2 8422   7.623   2.711   6.790 -0.0599 -0.0258 -0.1014
   20CHTO   H15 8423   7.633   2.628   6.719  1.1855 -0.3492  0.4472
   20CHTO    O6 8424   7.755   2.741   6.834  0.0503  0.4455 -0.4747
   20CHTO    H1 8425   7.797   2.680   6.892 -1.6222 -1.5350 -1.2763
   20CHTO    C3 8426   7.529   2.667   6.917  0.0062 -0.7970  0.8339
   20CHTO   H16 8427   7.544   2.734   7.003 -2.8728  2.7204 -1.2476
   20CHTO    N1 8428   7.569   2.531   6.967  0.7182  0.0005  0.0093
   20CHTO    H8 8429   7.671   2.531   7.002  0.1192 -0.4506  1.8245
   20CHTO    H9 8430   7.548   2.455   6.893  2.8211  0.7371 -1.4141
   20CHTO    C4 8431   7.374   2.677   6.891  0.1889  0.0295  0.3231
   20CHTO   H17 8432   7.340   2.590   6.835  0.5933  1.0580 -1.6008
   20CHTO    O1 8433   7.336   2.788   6.814  0.2920 -0.9748  0.4558
   20CHTO    C5 8434   7.403   2.799   6.684  0.0940  0.2361 -0.1256
   20CHTO   H18 8435   7.403   2.705   6.628 -0.2050 -0.5304  1.1512
   20CHTO   C16 8436   7.323   2.910   6.602 -0.7834  0.1475  0.4039
   20CHTO   O11 8437   7.183   2.889   6.587  0.2056  0.5235  0.8347
   20CHTO    H5 8438   7.162   2.798   6.593  0.5437  0.3711 -0.2396
   20CHTO    O3 8439   7.310   2.697   7.020  0.1232 -0.6122  0.4590
   20CHTO    C6 8440   7.186   2.628   7.044 -0.0639 -0.3577 -0.9090
   20CHTO   H19 8441   7.165   2.560   6.961  0.9791  1.0845 -2.3817
   20CHTO    C8 8442   7.197   2.536   7.181  0.1755 -0.5155 -0.0255
   20CHTO   H21 8443   7.209   2.602   7.267  1.0458  0.6072 -0.9852
   20CHTO    O7 8444   7.312   2.447   7.172  0.1432 -0.3950  0.5043
   20CHTO    H2 8445   7.303   2.392   7.247  1.0789  0.1217  1.0049
   20CHTO   C12 8446   7.067   2.464   7.210  0.5017 -0.3859  0.5384
   20CHTO   H25 8447   7.057   2.388   7.130  0.4130  0.0627  0.1185
   20CHTO    N3 8448   7.067   2.383   7.332 -0.4185  0.0435 -0.0342
   20CHTO   H12 8449   7.075   2.448   7.419 -0.9184  0.3602 -0.2194
   20CHTO   H13 8450   6.964   2.353   7.339 -0.0845 -1.2016 -0.3007
   20CHTO   C15 8451   6.947   2.561   7.199  0.7429  0.0908 -0.0951
   20CHTO   H28 8452   6.938   2.623   7.287 -0.1257  2.5797 -1.8835
   20CHTO   O10 8453   6.812   2.475   7.181  0.0830  0.0427  0.4004
   20CHTO    H4 8454   6.736   2.515   7.219 -1.8263 -2.2761 -0.8280
   20CHTO    O5 8455   6.942   2.636   7.077 -0.2143  0.0990 -0.2920
   20CHTO   C10 8456   7.062   2.718   7.060  0.4285  0.6569  0.4492
   20CHTO   H23 8457   7.078   2.778   7.150 -0.6734  0.2284  0.9368
   20CHTO   C17 8458   7.037   2.812   6.938  0.7477  0.6936  1.0129
   20CHTO   O12 8459   7.008   2.734   6.827 -0.7634  0.1726 -0.1964
   20CHTO    H6 8460   6.946   2.785   6.780  0.2300  1.0493 -0.5776
   21GLOH   H03 8461   7.083   6.604   7.155  1.0695  0.9518 -3.0839
   21GLOH    O1 8462   7.075   6.510   7.131  0.0981  0.1400  0.1109
   21GLOH    C1 8463   7.010   6.430   7.232  0.3320 -0.1507  0.3366
   21GLOH   H02 8464   6.930   6.485   7.280  1.0602  1.4475 -0.2604
   21GLOH   H08 8465   7.080   6.420   7.315 -0.1164  0.7307  0.8184
   21GLOH    C2 8466   6.991   6.281   7.202 -0.1024 -0.6507 -0.2167
   21GLOH   H04 8467   7.085   6.225   7.219 -0.3253 -0.9769 -0.0508
   21GLOH    O2 8468   6.894   6.234   7.293  0.1177  1.1058  0.0432
   21GLOH   H05 8469   6.932   6.225   7.382 -0.5817 -0.9778  0.1615
   21GLOH    C3 8470   6.944   6.261   7.056 -0.2991 -0.3207 -0.2411
   21GLOH   H06 8471   6.846   6.309   7.053 -0.4805 -0.7142 -0.8398
   21GLOH   H07 8472   6.950   6.155   7.032 -0.5927 -0.4125  0.0874
   21GLOH    O3 8473   7.030   6.337   6.972 -0.0003  0.0843  0.3887
   21GLOH   H01 8474   7.055   6.416   7.023 -1.3506  0.1857  0.9202
   22GLOH   H03 8475   1.222   9.746   4.375 -2.4165 -0.7465 -0.5620
   22GLOH    O1 8476   1.238   9.705   4.288 -0.0166 -0.2941 -0.3648
   22GLOH    C1 8477   1.118   9.636   4.247 -0.1202 -0.0159 -0.5082
   22GLOH   H02 8478   1.132   9.613   4.141 -1.2989 -2.9523 -0.0614
   22GLOH   H08 8479   1.021   9.686   4.252 -1.8797 -3.4714  1.2348
   22GLOH    C2 8480   1.104   9.506   4.322  0.3202 -0.6066  0.0033
   22GLOH   H04 8481   1.191   9.442   4.303  0.6434 -0.7403  1.7928
   22GLOH    O2 8482   1.084   9.522   4.464 -0.0228  0.7324 -0.2301
   22GLOH   H05 8483   1.142   9.585   4.509  0.6440 -1.6000  2.3122
   22GLOH    C3 8484   0.985   9.435   4.262  0.0023  0.2617 -0.4352
   22GLOH   H06 8485   0.971   9.331   4.293 -1.8901  0.4883 -0.4706
   22GLOH   H07 8486   0.996   9.426   4.154 -0.7834 -1.4529 -0.3972
   22GLOH    O3 8487   0.859   9.505   4.288 -0.5077 -0.4051 -0.3001
   22GLOH   H01 8488   0.802   9.457   4.225 -0.2162 -0.1479 -0.7631
   23GLOH   H03 8489   7.902   7.567   4.083 -0.0767 -2.5684 -1.0413
   23GLOH    O1 8490   7.820   7.548   4.132 -0.1992 -0.2995 -0.3396
   23GLOH    C1 8491   7.769   7.417   4.101  0.3974  0.0398 -0.3205
   23GLOH   H02 8492   7.841   7.338   4.124 -0.8918 -1.5487 -1.5940
   23GLOH   H08 8493   7.748   7.406   3.994  1.8931  1.9611 -0.8387
   23GLOH    C2 8494   7.632   7.386   4.173  0.4093  0.1130  0.2701
   23GLOH   H04 8495   7.652   7.344   4.273 -5.2972  0.7270  1.8587
   23GLOH    O2 8496   7.550   7.505   4.185 -0.4336 -0.1999 -0.8821
   23GLOH   H05 8497   7.594   7.548   4.261  1.4338 -1.2120 -1.3755
   23GLOH    C3 8498   7.554   7.270   4.108  0.1129  0.3457 -0.3812
   23GLOH   H06 8499   7.526   7.296   4.006 -0.7352 -0.0770 -0.2571
   23GLOH   H07 8500   7.468   7.250   4.172 -0.4858  1.0496 -0.9631
   23GLOH    O3 8501   7.634   7.144   4.099 -0.0952 -0.0651  0.6291
   23GLOH   H01 8502   7.648   7.118   4.192  0.0937  1.9998  1.1912
   24GLOH   H03 8503   0.633   3.686   4.482 -0.0744  0.2066 -1.6048
   24GLOH    O1 8504   0.538   3.678   4.505  0.3188 -0.1038 -0.0563
   24GLOH    C1 8505   0.515   3.562   4.590  0.2108  0.5232 -0.5803
   24GLOH   H02 8506   0.411   3.560   4.623  0.8476  0.7967  1.5129
   24GLOH   H08 8507   0.572   3.567   4.682 -0.1237  0.6406 -0.3780
   24GLOH    C2 8508   0.544   3.428   4.517  0.4592 -0.0163  0.9936
   24GLOH   H04 8509   0.634   3.445   4.455 -2.3803  5.7441 -2.0059
   24GLOH    O2 8510   0.567   3.319   4.607 -0.4215  0.1811 -0.5193
   24GLOH   H05 8511   0.563   3.237   4.555  1.5207 -1.5544  1.9682
   24GLOH    C3 8512   0.425   3.395   4.424  0.0469 -0.3556  0.1810
   24GLOH   H06 8513   0.337   3.360   4.478 -0.3323  1.0154  0.4591
   24GLOH   H07 8514   0.458   3.307   4.368  0.4025  1.1358 -2.0045
   24GLOH    O3 8515   0.375   3.502   4.349 -0.6766  0.2103 -0.0958
   24GLOH   H01 8516   0.447   3.533   4.291  0.3788 -1.0085  0.5091
   25GLOH   H03 8517   5.341   5.340   2.124 -2.4098 -0.7992  0.1822
   25GLOH    O1 8518   5.357   5.393   2.204 -0.4650 -0.3564 -0.4809
   25GLOH    C1 8519   5.259   5.493   2.199  0.3485 -0.2216 -0.5703
   25GLOH   H02 8520   5.164   5.442   2.186  0.4955 -0.5342 -0.4441
   25GLOH   H08 8521   5.268   5.557   2.112 -1.5907 -0.4688 -0.9561
   25GLOH    C2 8522   5.261   5.570   2.330  0.4396  0.0428 -0.8677
   25GLOH   H04 8523   5.360   5.615   2.346  1.3932 -1.9236 -1.0621
   25GLOH    O2 8524   5.166   5.679   2.325 -0.0034 -0.0424  0.0679
   25GLOH   H05 8525   5.189   5.734   2.401  0.3736 -0.2781  0.1269
   25GLOH    C3 8526   5.229   5.471   2.446  0.1513  0.7221 -0.6888
   25GLOH   H06 8527   5.129   5.430   2.433  0.8254 -0.9821 -0.6463
   25GLOH   H07 8528   5.224   5.523   2.541 -2.5992  0.1789 -0.4923
   25GLOH    O3 8529   5.326   5.362   2.450 -0.2018 -0.0813 -0.4400
   25GLOH   H01 8530   5.356   5.365   2.358  0.0442  2.0019 -0.3172
   26GLOH   H03 8531   7.500   3.276   7.477 -0.0662 -2.2892  1.4699
   26GLOH    O1 8532   7.595   3.266   7.462  0.0018 -0.1461  0.2279
   26GLOH    C1 8533   7.645   3.204   7.575 -0.1958  1.2659 -0.2205
   26GLOH   H02 8534   7.747   3.166   7.563  0.4209  2.5186  1.0129
   26GLOH   H08 8535   7.593   3.110   7.593  3.7688 -0.9211  0.6072
   26GLOH    C2 8536   7.641   3.296   7.697 -0.9410 -0.5423 -0.0506
   26GLOH   H04 8537   7.682   3.395   7.672 -0.8480 -0.4743  0.3750
   26GLOH    O2 8538   7.506   3.322   7.739 -0.3008 -0.8548 -0.4296
   26GLOH   H05 8539   7.506   3.395   7.804 -1.0931 -0.1257 -1.2487
   26GLOH    C3 8540   7.730   3.228   7.801  0.3451  0.1374 -0.9753
   26GLOH   H06 8541   7.692   3.134   7.841  0.4529  0.3090 -0.4670
   26GLOH   H07 8542   7.723   3.299   7.883  0.5071  1.4674 -2.1108
   26GLOH    O3 8543   7.870   3.206   7.770  0.4478 -0.1323 -0.2914
   26GLOH   H01 8544   7.908   3.288   7.733 -2.2873 -0.8200 -5.0098
   27GLOH   H03 8545   2.478   2.184   6.740  2.6133 -0.5139  1.7778
   27GLOH    O1 8546   2.424   2.224   6.811  0.0017 -0.0838 -0.3804
   27GLOH    C1 8547   2.401   2.366   6.800  0.3081  0.3388  0.1452
   27GLOH   H02 8548   2.456   2.407   6.715 -1.0352  1.1242 -0.3585
   27GLOH   H08 8549   2.445   2.415   6.887 -0.1078  0.6826  0.1613
   27GLOH    C2 8550   2.254   2.420   6.784  0.2531 -0.0072  0.1537
   27GLOH   H04 8551   2.201   2.394   6.691 -0.0481 -0.7119  0.5218
   27GLOH    O2 8552   2.169   2.366   6.884  0.1466 -0.1212  0.2814
   27GLOH   H05 8553   2.204   2.277   6.903  1.3913  0.5957  1.4505
   27GLOH    C3 8554   2.257   2.569   6.791  0.0554 -0.6301  0.0467
   27GLOH   H06 8555   2.297   2.597   6.888 -1.1886  1.8502 -0.0990
   27GLOH   H07 8556   2.155   2.608   6.789 -0.2040 -1.3496 -0.8475
   27GLOH    O3 8557   2.325   2.631   6.678 -0.4108  0.1356  0.4343
   27GLOH   H01 8558   2.400   2.676   6.722 -0.0736 -0.7404  0.7777
   28GLOH   H03 8559   7.395   9.292   8.505 -1.5649  0.7052  0.1513
   28GLOH    O1 8560   7.366   9.242   8.426 -0.5753  0.5682 -0.1462
   28GLOH    C1 8561   7.262   9.149   8.470  0.2806  0.7485 -0.1187
   28GLOH   H02 8562   7.300   9.067   8.531 -1.6884 -0.2577 -0.2128
   28GLOH   H08 8563   7.209   9.115   8.381 -0.1875 -2.9266  1.4973
   28GLOH    C2 8564   7.155   9.218   8.551  0.6142  0.4239  0.1517
   28GLOH   H04 8565   7.119   9.300   8.486  0.5246  0.2239 -0.0518
   28GLOH    O2 8566   7.050   9.129   8.583  0.2973 -0.7808 -0.3229
   28GLOH   H05 8567   7.069   9.036   8.564 -2.0242 -1.2711 -0.3863
   28GLOH    C3 8568   7.213   9.278   8.680 -0.0165  0.1388 -0.1140
   28GLOH   H06 8569   7.234   9.187   8.738 -1.6991 -0.1505  0.0606
   28GLOH   H07 8570   7.151   9.332   8.751 -0.1449  0.1182 -0.2113
   28GLOH    O3 8571   7.333   9.356   8.650 -0.1372  0.4792  0.4246
   28GLOH   H01 8572   7.370   9.386   8.735  1.3916  1.1485 -0.4640
   29GLOH   H03 8573   4.313   3.651   4.291  2.0111 -1.6914 -2.3552
   29GLOH    O1 8574   4.388   3.681   4.346 -0.4274  0.1820  0.0823
   29GLOH    C1 8575   4.388   3.816   4.384 -0.2923  0.3637  0.6986
   29GLOH   H02 8576   4.373   3.876   4.294  0.7387  0.9131  0.8793
   29GLOH   H08 8577   4.487   3.846   4.420 -0.4272  1.6560  0.0378
   29GLOH    C2 8578   4.287   3.863   4.491  1.1446  1.1580  0.1469
   29GLOH   H04 8579   4.188   3.867   4.443  1.8024  1.7438 -1.1696
   29GLOH    O2 8580   4.282   3.777   4.608 -0.1054 -0.4877  0.2570
   29GLOH   H05 8581   4.270   3.687   4.575  3.7229 -0.8588 -0.3613
   29GLOH    C3 8582   4.309   4.014   4.524  0.2223  0.6483 -0.7545
   29GLOH   H06 8583   4.416   4.019   4.543 -0.1106 -0.6168  1.6139
   29GLOH   H07 8584   4.270   4.037   4.623 -0.4299 -0.9065 -0.6497
   29GLOH    O3 8585   4.279   4.114   4.419  0.6186 -0.4820 -1.0208
   29GLOH   H01 8586   4.183   4.129   4.417  0.8155  1.2046  0.7031
   30GLOH   H03 8587   6.738   8.994   5.114  0.0383  0.0052 -0.6912
   30GLOH    O1 8588   6.805   8.965   5.050  0.2083  0.6788 -0.8145
   30GLOH    C1 8589   6.764   8.835   4.992 -0.1444 -1.2732  0.4537
   30GLOH   H02 8590   6.660   8.808   5.013  0.5796 -3.5554  1.3195
   30GLOH   H08 8591   6.826   8.758   5.038  1.4037  0.5483  1.4193
   30GLOH    C2 8592   6.780   8.831   4.840  0.0145  0.3024 -0.6557
   30GLOH   H04 8593   6.726   8.914   4.793 -0.5779 -0.0241 -0.5605
   30GLOH    O2 8594   6.921   8.841   4.801  0.2753  0.8920  0.5551
   30GLOH   H05 8595   6.975   8.896   4.860 -1.6130  0.1822  3.0005
   30GLOH    C3 8596   6.717   8.703   4.790 -0.2673  0.3260  0.5640
   30GLOH   H06 8597   6.761   8.619   4.845  1.2122 -0.6500 -2.0379
   30GLOH   H07 8598   6.751   8.692   4.687  0.4228  0.3200  0.7860
   30GLOH    O3 8599   6.573   8.699   4.802 -0.3423  0.3461 -0.1939
   30GLOH   H01 8600   6.545   8.663   4.889 -1.3859 -0.7536 -0.9582
   31GLOH   H03 8601   1.543   9.173   6.307  0.0820  0.3947  0.4264
   31GLOH    O1 8602   1.470   9.135   6.255  0.2717 -0.0884  0.5147
   31GLOH    C1 8603   1.523   9.091   6.124 -0.0248  0.0503  0.9004
   31GLOH   H02 8604   1.458   9.019   6.074 -0.4129  0.6874  0.4803
   31GLOH   H08 8605   1.613   9.033   6.141  1.6576  2.7082  1.3836
   31GLOH    C2 8606   1.544   9.199   6.013 -0.5164  0.5019 -0.7220
   31GLOH   H04 8607   1.449   9.254   6.001 -1.0993 -0.0866  1.1120
   31GLOH    O2 8608   1.657   9.287   6.045  0.1137 -0.3359  0.1185
   31GLOH   H05 8609   1.637   9.326   6.131 -0.3317  0.0621 -0.1624
   31GLOH    C3 8610   1.575   9.116   5.884  0.2495 -0.1124  0.0713
   31GLOH   H06 8611   1.652   9.042   5.903 -0.3782 -0.6631  0.5043
   31GLOH   H07 8612   1.619   9.182   5.810 -0.6026  0.2865 -0.0922
   31GLOH    O3 8613   1.452   9.051   5.833 -0.5334 -0.5839 -0.2729
   31GLOH   H01 8614   1.475   9.001   5.753 -0.7410  2.1517 -2.1063
   32GLOH   H03 8615   6.549   5.569   0.503 -0.0086 -0.2486 -0.4832
   32GLOH    O1 8616   6.518   5.651   0.461  0.6161  0.2200 -0.0259
   32GLOH    C1 8617   6.551   5.631   0.325 -0.1228 -0.6392  0.2250
   32GLOH   H02 8618   6.533   5.525   0.306  0.0997 -0.6317 -0.0291
   32GLOH   H08 8619   6.658   5.644   0.309 -0.3874  0.5154 -0.6577
   32GLOH    C2 8620   6.479   5.724   0.232 -0.5111 -0.1082  1.3189
   32GLOH   H04 8621   6.473   5.821   0.284 -2.0357 -0.5853  2.0526
   32GLOH    O2 8622   6.541   5.740   0.101  0.2918 -0.1764 -0.1319
   32GLOH   H05 8623   6.478   5.786   0.042  0.7486 -1.8629 -1.9698
   32GLOH    C3 8624   6.333   5.684   0.215  0.5549  0.2467 -0.3562
   32GLOH   H06 8625   6.305   5.646   0.313  1.3833  1.8105  0.4992
   32GLOH   H07 8626   6.337   5.596   0.150 -1.7833 -2.1372  2.5811
   32GLOH    O3 8627   6.259   5.799   0.181  0.7058  0.2228 -0.3989
   32GLOH   H01 8628   6.163   5.783   0.176  0.2498  1.6093  2.7026
   33GLOH   H03 8629   4.745   4.000   6.098  2.1749 -3.0204 -2.1583
   33GLOH    O1 8630   4.744   4.044   6.012  0.6534  0.6689 -0.3393
   33GLOH    C1 8631   4.828   3.967   5.921  0.3333  0.2224  0.0672
   33GLOH   H02 8632   4.842   4.022   5.828  1.8861 -0.4606 -0.1253
   33GLOH   H08 8633   4.791   3.867   5.896  0.8896  0.4580 -1.7643
   33GLOH    C2 8634   4.966   3.962   5.988 -0.5171  0.2299 -0.1220
   33GLOH   H04 8635   4.959   3.961   6.098  1.8800 -1.2811  0.0404
   33GLOH    O2 8636   5.023   3.832   5.953 -0.3836 -0.1130  0.0180
   33GLOH   H05 8637   5.098   3.820   6.014  0.3544  5.3196  0.4241
   33GLOH    C3 8638   5.063   4.086   5.949 -0.0788  0.5172  0.4936
   33GLOH   H06 8639   5.076   4.080   5.841 -2.3648 -1.1110  0.2611
   33GLOH   H07 8640   5.159   4.064   5.994 -0.5134 -3.2690 -0.2035
   33GLOH    O3 8641   5.011   4.211   5.998  0.4186  0.2130  0.5784
   33GLOH   H01 8642   4.980   4.192   6.088 -4.1138  2.0083 -0.4797
   34GLOH   H03 8643   7.523   1.952  10.076 -1.4529 -3.4905  0.1127
   34GLOH    O1 8644   7.600   1.917  10.124 -0.1089 -0.5497  0.2509
   34GLOH    C1 8645   7.566   1.781  10.153  0.1213  0.3166 -0.2739
   34GLOH   H02 8646   7.462   1.768  10.182  0.7767 -1.2992  1.4889
   34GLOH   H08 8647   7.619   1.755  10.245 -0.2663  3.5777  0.9406
   34GLOH    C2 8648   7.599   1.693  10.031  0.5055 -0.1805  0.7622
   34GLOH   H04 8649   7.708   1.686  10.021  0.1143 -1.9575 -2.8817
   34GLOH    O2 8650   7.545   1.565  10.063  0.3947  0.1068  0.5335
   34GLOH   H05 8651   7.597   1.525  10.135  0.1874 -0.6346  0.2840
   34GLOH    C3 8652   7.554   1.749   9.892  0.1456 -0.6572  0.6822
   34GLOH   H06 8653   7.446   1.754   9.879  0.3526  0.0514 -0.8845
   34GLOH   H07 8654   7.587   1.678   9.816 -0.1777  1.0454 -1.0738
   34GLOH    O3 8655   7.614   1.880   9.857  0.1377 -0.2467 -0.3946
   34GLOH   H01 8656   7.709   1.859   9.852  0.1743 -0.2598  0.2791
   35GLOH   H03 8657   1.415   3.544   1.238 -0.9246 -0.2320 -0.0650
   35GLOH    O1 8658   1.463   3.460   1.225  0.4753  0.5817 -0.2992
   35GLOH    C1 8659   1.388   3.351   1.274 -0.2492 -0.6312 -0.3454
   35GLOH   H02 8660   1.450   3.262   1.280  1.1054  0.2953 -0.2404
   35GLOH   H08 8661   1.307   3.325   1.206 -2.7505  0.1680  2.2402
   35GLOH    C2 8662   1.321   3.386   1.410 -0.0595 -0.8038  0.3318
   35GLOH   H04 8663   1.269   3.482   1.397  2.7833  0.8525  0.7116
   35GLOH    O2 8664   1.235   3.290   1.454 -0.1123  0.0143  0.5013
   35GLOH   H05 8665   1.158   3.344   1.479 -0.1341  0.6702 -0.9498
   35GLOH    C3 8666   1.435   3.421   1.509  0.8135 -1.0082 -0.7647
   35GLOH   H06 8667   1.378   3.431   1.601 -1.1489  0.4505 -2.0891
   35GLOH   H07 8668   1.459   3.525   1.486 -0.5757 -0.5199 -0.0640
   35GLOH    O3 8669   1.552   3.337   1.524 -0.6640  0.0801  0.3078
   35GLOH   H01 8670   1.631   3.365   1.474 -0.9809  1.0487  0.3283
   36GLOH   H03 8671   5.233   8.978   6.733 -0.6887 -0.1919  1.4216
   36GLOH    O1 8672   5.164   8.921   6.695  0.2792 -0.2977 -0.2560
   36GLOH    C1 8673   5.224   8.787   6.690 -0.2936  0.2762  0.4307
   36GLOH   H02 8674   5.163   8.713   6.742 -1.7479  0.2648 -1.2510
   36GLOH   H08 8675   5.325   8.784   6.732  0.9120  2.4545 -2.1692
   36GLOH    C2 8676   5.241   8.750   6.539  0.2512 -0.0850 -0.4020
   36GLOH   H04 8677   5.154   8.787   6.482  0.4324  1.0800  0.0504
   36GLOH    O2 8678   5.353   8.822   6.482 -0.1388  0.3120 -0.7858
   36GLOH   H05 8679   5.318   8.902   6.440  0.5161  0.9403 -0.1564
   36GLOH    C3 8680   5.259   8.596   6.515 -0.1429 -0.2185 -0.2420
   36GLOH   H06 8681   5.344   8.565   6.576  0.2896  0.2798 -0.5861
   36GLOH   H07 8682   5.296   8.568   6.417  1.2107 -1.1677  0.5208
   36GLOH    O3 8683   5.137   8.522   6.541 -0.0677  0.6256 -0.3350
   36GLOH   H01 8684   5.096   8.507   6.454 -0.5335  1.7207 -0.3127
   37GLOH   H03 8685   6.400   4.474  -0.110  0.2968 -1.4948  0.4413
   37GLOH    O1 8686   6.312   4.463  -0.070 -0.0684 -0.4198 -0.0218
   37GLOH    C1 8687   6.312   4.555   0.036 -0.3325 -0.5839 -0.2587
   37GLOH   H02 8688   6.303   4.658   0.000  2.2332  0.5421  2.1723
   37GLOH   H08 8689   6.402   4.560   0.096 -0.9993 -1.7414  0.8716
   37GLOH    C2 8690   6.187   4.526   0.128 -0.9400 -0.3842  0.1638
   37GLOH   H04 8691   6.196   4.420   0.156  0.4135 -0.0372  1.0929
   37GLOH    O2 8692   6.181   4.619   0.244 -1.0035 -0.4234 -0.2086
   37GLOH   H05 8693   6.128   4.576   0.313 -3.1666  1.7159 -0.4373
   37GLOH    C3 8694   6.055   4.545   0.048  0.3538 -0.2672 -0.1095
   37GLOH   H06 8695   6.055   4.643   0.001 -0.8178  0.5906  1.6367
   37GLOH   H07 8696   5.970   4.540   0.116  0.3085  0.2572 -0.1246
   37GLOH    O3 8697   6.044   4.453  -0.055  0.1980 -0.2459 -0.7113
   37GLOH   H01 8698   6.137   4.440  -0.083  0.8662  1.6703  0.5118
   38GLOH   H03 8699   0.695   8.327   5.979  0.8325 -0.9374 -1.5677
   38GLOH    O1 8700   0.611   8.284   5.957 -0.1071 -0.0181  0.1221
   38GLOH    C1 8701   0.599   8.278   5.817  0.3109  0.1223  0.1269
   38GLOH   H02 8702   0.583   8.379   5.780 -2.4073 -1.6865 -3.9982
   38GLOH   H08 8703   0.513   8.223   5.780  0.3210 -0.6860  1.2706
   38GLOH    C2 8704   0.725   8.222   5.751  0.0632  0.3139  0.3640
   38GLOH   H04 8705   0.760   8.133   5.805  0.4569  1.0200  1.2773
   38GLOH    O2 8706   0.717   8.191   5.614  0.0338 -0.2265  0.3069
   38GLOH   H05 8707   0.634   8.144   5.597 -0.6814  0.8996  0.5993
   38GLOH    C3 8708   0.852   8.315   5.778  0.0321  0.4774  0.3951
   38GLOH   H06 8709   0.832   8.400   5.712 -2.2474  0.7103  1.3446
   38GLOH   H07 8710   0.938   8.262   5.739 -1.0878 -1.3421  0.3351
   38GLOH    O3 8711   0.873   8.348   5.913  0.7672 -0.2835 -0.1571
   38GLOH   H01 8712   0.924   8.431   5.918  0.2690 -0.0221  0.8041
   39GLOH   H03 8713   8.508   3.373   6.325  1.0594 -2.3097  0.9575
   39GLOH    O1 8714   8.525   3.342   6.235  0.0827 -0.1638 -0.0075
   39GLOH    C1 8715   8.603   3.450   6.184  0.1659  0.1487 -0.3408
   39GLOH   H02 8716   8.647   3.433   6.085  0.3556 -1.0875 -0.0548
   39GLOH   H08 8717   8.689   3.468   6.248 -0.8498  0.0712  1.0587
   39GLOH    C2 8718   8.522   3.577   6.189  0.9620 -0.3650  0.8157
   39GLOH   H04 8719   8.489   3.605   6.290  1.9230  1.8615  0.5420
   39GLOH    O2 8720   8.615   3.683   6.149 -0.0190  0.0079 -0.2949
   39GLOH   H05 8721   8.689   3.692   6.211 -0.3672 -0.1991  0.1565
   39GLOH    C3 8722   8.398   3.559   6.100  0.1905 -0.1674 -0.8227
   39GLOH   H06 8723   8.331   3.490   6.151 -0.7015  0.1290 -1.5557
   39GLOH   H07 8724   8.427   3.508   6.008 -1.1324  0.3472 -1.5432
   39GLOH    O3 8725   8.327   3.679   6.062 -0.1665 -0.2806 -0.2324
   39GLOH   H01 8726   8.303   3.732   6.140  0.8944  0.9403 -0.7274
   40GLOH   H03 8727   1.391   7.102   2.566  0.6742 -1.3495 -1.8452
   40GLOH    O1 8728   1.424   7.181   2.520 -0.4942  0.1838 -0.0875
   40GLOH    C1 8729   1.367   7.183   2.384 -0.3518  0.1021 -0.1169
   40GLOH   H02 8730   1.382   7.278   2.332  2.4616 -0.9225 -1.3026
   40GLOH   H08 8731   1.261   7.158   2.372 -0.5446  0.8655 -0.0139
   40GLOH    C2 8732   1.434   7.066   2.305 -0.3246  0.5768 -0.1331
   40GLOH   H04 8733   1.419   6.975   2.364 -1.1340  0.4960 -0.4567
   40GLOH    O2 8734   1.374   7.048   2.173  0.1577  0.0945  0.0947
   40GLOH   H05 8735   1.366   6.955   2.147  1.8188 -0.2024  0.6255
   40GLOH    C3 8736   1.585   7.091   2.297  0.3963 -0.3393 -0.5690
   40GLOH   H06 8737   1.609   7.194   2.271 -2.1394  0.1458 -1.1738
   40GLOH   H07 8738   1.634   7.028   2.223  1.2106 -1.3770  0.8131
   40GLOH    O3 8739   1.644   7.068   2.426  0.4435  0.1806 -0.1103
   40GLOH   H01 8740   1.629   7.148   2.480  1.0942  0.2758 -0.0657
   41GLOH   H03 8741   8.475   6.786   5.023 -0.3273 -1.1396  0.3726
   41GLOH    O1 8742   8.547   6.746   4.971  0.2207  0.1576  0.1185
   41GLOH    C1 8743   8.575   6.824   4.854  0.5557 -0.0317 -0.7824
   41GLOH   H02 8744   8.683   6.817   4.852  0.6167  0.4740  0.2874
   41GLOH   H08 8745   8.561   6.931   4.870  1.0080 -0.0215 -0.4469
   41GLOH    C2 8746   8.527   6.757   4.723  0.3153  0.4847  0.9984
   41GLOH   H04 8747   8.422   6.726   4.736  0.2615 -0.8377 -2.0568
   41GLOH    O2 8748   8.531   6.858   4.620  0.0608 -0.0854 -0.5176
   41GLOH   H05 8749   8.605   6.917   4.643 -1.7880  1.2261  2.3825
   41GLOH    C3 8750   8.613   6.639   4.678 -1.0340 -0.0590 -0.4553
   41GLOH   H06 8751   8.574   6.605   4.582 -0.9426  1.5365 -1.0742
   41GLOH   H07 8752   8.599   6.553   4.744 -1.8657 -1.1145 -1.9455
   41GLOH    O3 8753   8.750   6.672   4.662  0.3592  0.2217  0.9521
   41GLOH   H01 8754   8.774   6.635   4.575  1.5413 -1.2246  1.8623
   42GLOH   H03 8755   5.166   9.806   4.440 -2.5019 -4.1030  0.3381
   42GLOH    O1 8756   5.197   9.790   4.349 -0.5972 -0.0862  0.1351
   42GLOH    C1 8757   5.188   9.914   4.273 -0.0502 -0.7454 -0.2596
   42GLOH   H02 8758   5.095   9.968   4.293  0.0048 -1.2495  1.4644
   42GLOH   H08 8759   5.179   9.901   4.165 -3.3814 -0.7435 -0.0410
   42GLOH    C2 8760   5.310  10.009   4.298 -0.2461 -0.1313 -0.4432
   42GLOH   H04 8761   5.297  10.095   4.231  1.0837  0.0942 -0.4277
   42GLOH    O2 8762   5.294  10.070   4.430 -0.5234 -0.0140 -0.5188
   42GLOH   H05 8763   5.348  10.011   4.486 -0.7168 -0.0815 -0.4029
   42GLOH    C3 8764   5.450   9.953   4.263  0.2674 -0.1668  0.2502
   42GLOH   H06 8765   5.441   9.855   4.311  1.2552 -1.2235 -1.6614
   42GLOH   H07 8766   5.535  10.005   4.307  1.9821 -1.5783 -1.3093
   42GLOH    O3 8767   5.479   9.931   4.124  0.2456 -0.2658 -0.3099
   42GLOH   H01 8768   5.462   9.837   4.105 -0.7765 -0.0881 -0.2749
   43GLOH   H03 8769   5.789   1.023   9.357 -0.1080 -0.1333  0.1482
   43GLOH    O1 8770   5.752   1.019   9.266  0.5466  0.2662 -0.1327
   43GLOH    C1 8771   5.606   1.004   9.284 -0.2509 -0.0733  0.1811
   43GLOH   H02 8772   5.585   0.898   9.273  0.1264 -0.0850 -0.4372
   43GLOH   H08 8773   5.558   1.045   9.195  3.3314  2.3752 -0.7370
   43GLOH    C2 8774   5.555   1.077   9.413 -0.3695 -0.0668 -0.1541
   43GLOH   H04 8775   5.603   1.175   9.408 -1.4540  0.4187 -1.3284
   43GLOH    O2 8776   5.418   1.079   9.437  0.0666 -0.2190  0.3306
   43GLOH   H05 8777   5.387   1.168   9.415  1.3134  0.0765 -0.2605
   43GLOH    C3 8778   5.612   1.009   9.534  0.1930 -0.3277 -0.3378
   43GLOH   H06 8779   5.588   0.903   9.529 -1.0922 -0.0549 -0.2231
   43GLOH   H07 8780   5.557   1.046   9.621  0.0732  0.4372 -0.7285
   43GLOH    O3 8781   5.750   1.046   9.548 -0.3546 -0.3200  0.5041
   43GLOH   H01 8782   5.757   1.109   9.622 -0.4082  0.9100 -0.5354
   44GLOH   H03 8783   0.938   2.746   0.137  0.3543 -0.0013 -0.6232
   44GLOH    O1 8784   0.931   2.839   0.107  0.0076  0.1615 -0.0427
   44GLOH    C1 8785   1.069   2.890   0.106  0.5063  0.2995 -0.2150
   44GLOH   H02 8786   1.135   2.811   0.072 -0.7594 -0.7835 -0.2091
   44GLOH   H08 8787   1.098   2.905   0.210  2.3727  0.2545 -0.7188
   44GLOH    C2 8788   1.074   3.021   0.029  0.6465  0.0929 -0.0988
   44GLOH   H04 8789   1.008   3.101   0.065  0.9053  0.3170 -0.1242
   44GLOH    O2 8790   1.212   3.079   0.035  0.5484  0.7028  0.3143
   44GLOH   H05 8791   1.226   3.147   0.103  1.7743  1.0089 -0.2119
   44GLOH    C3 8792   1.033   3.007  -0.113  0.5207  0.6589  0.2103
   44GLOH   H06 8793   1.109   2.945  -0.161 -2.0326 -1.5669 -1.1692
   44GLOH   H07 8794   1.028   3.103  -0.164 -1.1776  0.4834  0.0175
   44GLOH    O3 8795   0.907   2.931  -0.124 -0.0061 -0.2780  0.0940
   44GLOH   H01 8796   0.891   2.906  -0.031  0.8680  0.8769  0.5743
   45GLOH   H03 8797   5.943   5.867   1.847 -0.7524  0.3518 -0.1527
   45GLOH    O1 8798   6.014   5.932   1.858 -0.1625 -0.3399  0.1399
   45GLOH    C1 8799   6.110   5.868   1.947  0.0035  0.4744  0.0684
   45GLOH   H02 8800   6.194   5.934   1.966  1.1709 -0.2958 -2.1482
   45GLOH   H08 8801   6.151   5.783   1.892 -0.7043  0.3578 -0.2971
   45GLOH    C2 8802   6.035   5.833   2.081 -0.2806 -0.1657 -0.1900
   45GLOH   H04 8803   5.957   5.762   2.050  0.1732 -0.5957 -0.3679
   45GLOH    O2 8804   6.117   5.764   2.183 -0.3457 -0.2446  1.0342
   45GLOH   H05 8805   6.053   5.701   2.220 -1.5581  0.2657 -0.1124
   45GLOH    C3 8806   5.965   5.947   2.143 -0.0144 -0.5661  0.0275
   45GLOH   H06 8807   6.034   6.031   2.141 -0.3549 -0.3028 -1.5743
   45GLOH   H07 8808   5.927   5.919   2.242 -2.8739 -1.0333 -1.1510
   45GLOH    O3 8809   5.855   5.987   2.065  0.5192  0.1720  0.0693
   45GLOH   H01 8810   5.895   6.007   1.978 -1.1907 -0.8017 -0.9718
   46GLOH   H03 8811   9.427   3.878   7.932 -0.7976  0.2512 -0.4705
   46GLOH    O1 8812   9.383   3.911   8.013 -0.0656  0.2726 -0.0719
   46GLOH    C1 8813   9.478   3.997   8.078  0.0972 -0.1126  0.0807
   46GLOH   H02 8814   9.511   3.953   8.172  0.0871  1.2298  0.7261
   46GLOH   H08 8815   9.431   4.094   8.093 -0.6044 -0.1888 -1.5999
   46GLOH    C2 8816   9.609   4.013   7.998  0.5953  0.1345  0.2961
   46GLOH   H04 8817   9.576   4.083   7.920 -1.2120 -0.1802  0.7483
   46GLOH    O2 8818   9.706   4.082   8.071 -0.5128  0.2206 -0.0425
   46GLOH   H05 8819   9.762   4.018   8.119 -1.2130  0.7652  1.5406
   46GLOH    C3 8820   9.639   3.880   7.919 -0.4864 -0.1198  0.4579
   46GLOH   H06 8821   9.640   3.798   7.991 -1.3221  0.6746  1.3670
   46GLOH   H07 8822   9.742   3.888   7.885 -0.4630  0.0745  0.5751
   46GLOH    O3 8823   9.549   3.869   7.806 -0.2230 -0.0671 -0.3253
   46GLOH   H01 8824   9.538   3.775   7.780  0.6264 -0.4062  0.5129
   47GLOH   H03 8825   9.692   6.026   9.625  1.1863  2.7233 -2.0134
   47GLOH    O1 8826   9.684   5.965   9.550  0.2744  0.0134  0.1814
   47GLOH    C1 8827   9.748   6.028   9.435 -0.1803 -0.1996 -0.1780
   47GLOH   H02 8828   9.768   5.961   9.352  2.1574  2.5451 -1.9512
   47GLOH   H08 8829   9.841   6.071   9.473  0.1779 -0.4463 -0.7662
   47GLOH    C2 8830   9.653   6.137   9.381 -0.1781 -0.0351  0.5576
   47GLOH   H04 8831   9.672   6.220   9.451  1.8177 -0.8038  0.9351
   47GLOH    O2 8832   9.701   6.185   9.252 -0.2949 -0.3356  0.3721
   47GLOH   H05 8833   9.669   6.129   9.178 -0.7715  2.3726 -1.5278
   47GLOH    C3 8834   9.503   6.097   9.369 -0.1451  0.0631  0.4794
   47GLOH   H06 8835   9.507   5.990   9.349 -0.0671  0.3513 -1.0986
   47GLOH   H07 8836   9.461   6.132   9.274 -1.0342  1.6048  1.4293
   47GLOH    O3 8837   9.422   6.113   9.488  0.0307  0.1716  0.6608
   47GLOH   H01 8838   9.330   6.114   9.455  1.0195  0.1540 -2.2584
   48GLOH   H03 8839   0.725   7.415   0.831  0.3695 -1.5958 -0.8389
   48GLOH    O1 8840   0.646   7.434   0.777  0.0710 -0.8173 -0.1354
   48GLOH    C1 8841   0.635   7.344   0.660 -0.1765  0.5410  0.1153
   48GLOH   H02 8842   0.532   7.324   0.629 -0.4932 -0.9228  2.0356
   48GLOH   H08 8843   0.680   7.249   0.689 -0.7087  1.4168  4.1180
   48GLOH    C2 8844   0.718   7.384   0.539 -0.3208 -0.2615 -0.4855
   48GLOH   H04 8845   0.709   7.493   0.527  2.7566 -0.0107 -0.8037
   48GLOH    O2 8846   0.854   7.346   0.571 -0.2926  0.3046 -0.1473
   48GLOH   H05 8847   0.885   7.414   0.633  0.6108 -0.8392  0.6885
   48GLOH    C3 8848   0.670   7.308   0.413 -0.6032  1.1376  0.5741
   48GLOH   H06 8849   0.748   7.309   0.337 -1.5998 -0.2986 -0.4906
   48GLOH   H07 8850   0.583   7.357   0.368 -1.6120 -1.8442 -0.8146
   48GLOH    O3 8851   0.646   7.165   0.446 -0.5060  0.5658  0.3178
   48GLOH   H01 8852   0.729   7.116   0.433 -0.6051  0.0228  1.6797
   49GLOH   H03 8853   4.540   8.831   9.699 -0.4699 -0.2018 -0.0915
   49GLOH    O1 8854   4.549   8.927   9.716 -0.4409 -0.2410  0.1188
   49GLOH    C1 8855   4.568   8.949   9.854 -0.3882  0.3145 -0.2110
   49GLOH   H02 8856   4.554   9.055   9.874  1.3233  0.1293  2.2071
   49GLOH   H08 8857   4.671   8.923   9.880 -0.2379  1.9723  0.8721
   49GLOH    C2 8858   4.487   8.865   9.955 -0.2600 -0.3258 -0.3457
   49GLOH   H04 8859   4.378   8.875   9.951 -0.6055 -3.8788 -1.6941
   49GLOH    O2 8860   4.514   8.725   9.927  0.7121 -0.6917 -0.1151
   49GLOH   H05 8861   4.496   8.714   9.832 -0.9358  1.3642 -0.0813
   49GLOH    C3 8862   4.534   8.905  10.099 -0.4839  0.4638  0.3931
   49GLOH   H06 8863   4.642   8.919  10.091 -0.6886  1.5644 -0.5508
   49GLOH   H07 8864   4.520   8.823  10.169  0.2357  0.1661  0.2012
   49GLOH    O3 8865   4.475   9.033  10.131  0.0484  0.2643  0.4034
   49GLOH   H01 8866   4.379   9.029  10.114  0.2418 -1.7333 -0.2886
   50GLOH   H03 8867   3.111   8.721   1.256  1.3820 -0.2866 -1.5246
   50GLOH    O1 8868   3.021   8.714   1.220  0.8018 -0.2834 -0.0962
   50GLOH    C1 8869   2.919   8.728   1.317 -0.5984  0.2453  0.4079
   50GLOH   H02 8870   2.826   8.696   1.269 -2.1053  2.2078  1.9564
   50GLOH   H08 8871   2.904   8.831   1.348 -3.5838 -0.3087  1.0415
   50GLOH    C2 8872   2.928   8.631   1.438  0.2767 -0.2188  0.4127
   50GLOH   H04 8873   2.947   8.530   1.399  1.1104 -1.0191  2.7746
   50GLOH    O2 8874   3.044   8.668   1.519 -0.3170  0.1964  0.3588
   50GLOH   H05 8875   3.062   8.763   1.507 -1.2074 -0.1754 -4.9438
   50GLOH    C3 8876   2.801   8.634   1.522  0.6201  0.1266  0.3492
   50GLOH   H06 8877   2.781   8.732   1.567  0.9837  0.4713 -0.2362
   50GLOH   H07 8878   2.815   8.571   1.610  0.4939 -0.8748 -0.3409
   50GLOH    O3 8879   2.690   8.581   1.447  0.3589  0.0076 -0.0618
   50GLOH   H01 8880   2.604   8.626   1.456 -1.1993 -2.7782 -0.2671
   51GLOH   H03 8881   1.426   0.517   3.801  0.0210  1.1034 -3.5530
   51GLOH    O1 8882   1.472   0.593   3.841 -0.2457 -0.0795 -0.8936
   51GLOH    C1 8883   1.455   0.601   3.982  0.4569  0.5186  0.9839
   51GLOH   H02 8884   1.455   0.503   4.030  0.3540  0.7104  1.3750
   51GLOH   H08 8885   1.360   0.650   4.000  1.0216  0.4984  4.3728
   51GLOH    C2 8886   1.561   0.691   4.041 -0.3653 -0.2279 -0.7380
   51GLOH   H04 8887   1.533   0.796   4.026  0.2742 -0.2015 -1.8607
   51GLOH    O2 8888   1.563   0.666   4.180 -0.4594 -0.3874  0.5369
   51GLOH   H05 8889   1.503   0.727   4.226  1.9332  2.1116  0.4612
   51GLOH    C3 8890   1.701   0.672   3.982 -0.0448 -0.1999 -0.0986
   51GLOH   H06 8891   1.739   0.572   4.003 -1.9089 -1.3137 -1.8354
   51GLOH   H07 8892   1.762   0.740   4.041 -0.4987  0.0802  0.0535
   51GLOH    O3 8893   1.693   0.704   3.839 -0.2013 -0.0582 -0.5406
   51GLOH   H01 8894   1.621   0.647   3.805  1.0970 -1.0923 -1.5852
   52GLOH   H03 8895   5.800   9.367   8.126 -0.1331 -0.3952 -0.1114
   52GLOH    O1 8896   5.831   9.434   8.063 -0.2981  0.1609  0.3956
   52GLOH    C1 8897   5.869   9.361   7.941 -0.3830  0.1264 -0.1989
   52GLOH   H02 8898   5.964   9.402   7.908 -0.7447  2.1038  1.1203
   52GLOH   H08 8899   5.794   9.370   7.862 -3.0408  2.6654  2.4471
   52GLOH    C2 8900   5.895   9.208   7.959 -0.1547  0.1146  0.6391
   52GLOH   H04 8901   5.959   9.197   8.048  1.1665 -2.2464 -0.5736
   52GLOH    O2 8902   5.778   9.125   7.998 -0.7566  0.0652 -0.2036
   52GLOH   H05 8903   5.701   9.136   7.940 -0.1232  1.7921 -0.7469
   52GLOH    C3 8904   5.951   9.144   7.828  0.0119  0.3273  0.2136
   52GLOH   H06 8905   5.874   9.147   7.751 -0.2680  0.0185  0.4792
   52GLOH   H07 8906   5.951   9.036   7.846 -1.2502  0.8708  3.9515
   52GLOH    O3 8907   6.068   9.212   7.782 -0.1057  0.0192  0.3860
   52GLOH   H01 8908   6.130   9.206   7.857 -1.7126 -2.5047  1.5828
   53GLOH   H03 8909   4.993   0.550   2.783 -1.0789  2.3441  0.9249
   53GLOH    O1 8910   5.082   0.577   2.813  0.0763 -0.1387 -0.1196
   53GLOH    C1 8911   5.077   0.604   2.956  0.2719 -0.0154 -0.8746
   53GLOH   H02 8912   5.011   0.530   3.002  2.8579 -1.5060  0.5777
   53GLOH   H08 8913   5.042   0.706   2.972 -0.0124 -0.3918  1.0059
   53GLOH    C2 8914   5.211   0.592   3.033  0.7615 -0.7686  0.2217
   53GLOH   H04 8915   5.273   0.681   3.020 -1.3069  0.3731 -2.2858
   53GLOH    O2 8916   5.198   0.583   3.177 -0.5877  0.7007  0.0642
   53GLOH   H05 8917   5.159   0.494   3.187  0.7109  0.2261  0.9216
   53GLOH    C3 8918   5.294   0.476   2.979 -0.2237  0.2251 -0.0289
   53GLOH   H06 8919   5.242   0.383   3.002 -2.9566  1.1017 -2.3477
   53GLOH   H07 8920   5.383   0.472   3.043 -0.8157 -0.1135  0.7844
   53GLOH    O3 8921   5.332   0.481   2.838 -0.1286 -0.5715 -0.4918
   53GLOH   H01 8922   5.247   0.508   2.799 -0.0089 -1.0700 -1.1020
   54GLOH   H03 8923   9.697   5.088   8.909 -0.2476  2.5923 -1.3718
   54GLOH    O1 8924   9.767   5.106   8.975 -0.2783 -0.2962 -0.4986
   54GLOH    C1 8925   9.887   5.058   8.921  0.3073 -0.0180  0.3821
   54GLOH   H02 8926   9.949   5.147   8.909 -0.3052  0.7029  2.3600
   54GLOH   H08 8927   9.880   5.008   8.824  0.2260  0.8412 -0.0620
   54GLOH    C2 8928   9.960   4.962   9.018 -0.4028 -0.4011  0.5641
   54GLOH   H04 8929   9.890   4.879   9.036 -1.1557 -0.6375 -2.9912
   54GLOH    O2 8930  10.083   4.930   8.953 -0.1379 -0.1606 -0.6382
   54GLOH   H05 8931  10.067   4.906   8.860  2.8920 -1.7347 -0.8595
   54GLOH    C3 8932   9.988   5.029   9.154 -0.0757  0.7556 -0.8584
   54GLOH   H06 8933   9.901   5.079   9.198  0.5249  0.6337  0.4976
   54GLOH   H07 8934  10.063   5.106   9.141  2.3088 -1.0753  1.5066
   54GLOH    O3 8935  10.035   4.936   9.253  0.0933 -1.0505  0.0116
   54GLOH   H01 8936  10.069   4.987   9.329  3.3739  0.2043 -2.1794
   55GLOH   H03 8937   4.615   6.543   2.533 -0.7951 -0.2129  0.1667
   55GLOH    O1 8938   4.641   6.479   2.463 -0.2033  0.3615 -0.1431
   55GLOH    C1 8939   4.665   6.357   2.527 -0.4683  0.0023 -0.4001
   55GLOH   H02 8940   4.664   6.281   2.449 -1.7120 -0.3864 -0.0149
   55GLOH   H08 8941   4.580   6.338   2.593  0.2092  1.2140  0.8699
   55GLOH    C2 8942   4.800   6.363   2.610  0.1502  0.2162  0.1962
   55GLOH   H04 8943   4.814   6.456   2.668 -0.7846 -0.5272  1.6572
   55GLOH    O2 8944   4.801   6.254   2.701 -0.0727  0.7180  0.0327
   55GLOH   H05 8945   4.722   6.261   2.757 -0.4015 -2.5800  0.0965
   55GLOH    C3 8946   4.922   6.333   2.529 -0.5616  0.2042 -0.2437
   55GLOH   H06 8947   4.915   6.235   2.481 -0.6559  0.4900 -0.8138
   55GLOH   H07 8948   5.013   6.336   2.590  0.1981 -0.4392 -1.3180
   55GLOH    O3 8949   4.948   6.422   2.423  0.4651  0.3692 -0.3731
   55GLOH   H01 8950   4.879   6.409   2.356 -0.5109 -0.5122  0.7846
   56GLOH   H03 8951   9.052   7.667   3.904  3.4152  1.0859  1.1332
   56GLOH    O1 8952   9.066   7.722   3.825  0.5061 -0.0274 -0.2124
   56GLOH    C1 8953   9.172   7.656   3.758 -0.8920 -0.5141  0.1693
   56GLOH   H02 8954   9.157   7.548   3.759 -0.9787 -0.4999  0.3703
   56GLOH   H08 8955   9.260   7.681   3.818 -2.3425  1.1111  1.6731
   56GLOH    C2 8956   9.209   7.706   3.615  0.3909  0.0062 -0.0771
   56GLOH   H04 8957   9.210   7.816   3.615  1.6231 -0.0042  0.3832
   56GLOH    O2 8958   9.330   7.646   3.569 -0.8363  0.4672 -0.4592
   56GLOH   H05 8959   9.396   7.672   3.636 -0.6728  0.0164 -0.4425
   56GLOH    C3 8960   9.091   7.654   3.528 -0.2147 -0.4462 -0.0116
   56GLOH   H06 8961   9.107   7.673   3.421 -0.5753 -2.3287 -0.4122
   56GLOH   H07 8962   8.994   7.697   3.555 -0.5800 -1.5494  0.4651
   56GLOH    O3 8963   9.078   7.517   3.539  0.0031 -0.5178  0.1803
   56GLOH   H01 8964   8.983   7.499   3.533 -0.2170  0.6493 -0.0284
   57GLOH   H03 8965   5.845   3.490   8.941  0.6830  0.0626  0.4159
   57GLOH    O1 8966   5.828   3.584   8.964  0.1408  0.0571  0.0523
   57GLOH    C1 8967   5.910   3.629   9.075  0.3732 -0.2480 -0.3788
   57GLOH   H02 8968   5.882   3.731   9.099 -1.9143 -0.9975  0.1808
   57GLOH   H08 8969   6.018   3.631   9.056  0.0823  1.1372 -2.0178
   57GLOH    C2 8970   5.886   3.544   9.203  0.2875  0.3897 -0.4303
   57GLOH   H04 8971   5.917   3.446   9.163 -0.6169 -0.4417  0.8873
   57GLOH    O2 8972   5.981   3.592   9.303  0.5390  0.3102  0.3111
   57GLOH   H05 8973   6.055   3.528   9.305  0.3221  0.0373 -0.3799
   57GLOH    C3 8974   5.743   3.545   9.257  0.0991 -0.1498  0.1106
   57GLOH   H06 8975   5.704   3.646   9.243 -0.9076 -0.7648 -1.7680
   57GLOH   H07 8976   5.737   3.516   9.361  0.0767  0.2753  0.2307
   57GLOH    O3 8977   5.659   3.460   9.184 -0.0100  0.2518 -0.4423
   57GLOH   H01 8978   5.629   3.513   9.107  0.7949  1.5070  0.1020
   58GLOH   H03 8979   0.569   4.767   7.381  1.1580 -0.4927 -0.7568
   58GLOH    O1 8980   0.550   4.674   7.401  0.5953 -0.2172 -0.0222
   58GLOH    C1 8981   0.661   4.594   7.438  0.1328  0.7257  0.1357
   58GLOH   H02 8982   0.616   4.498   7.464  0.8617 -0.2451 -2.1035
   58GLOH   H08 8983   0.720   4.624   7.525  1.5440 -0.2278 -0.4999
   58GLOH    C2 8984   0.747   4.571   7.314 -0.2551 -0.4005  0.1678
   58GLOH   H04 8985   0.770   4.663   7.259  1.2026  0.3448  1.9449
   58GLOH    O2 8986   0.865   4.496   7.354  0.5313 -0.1364 -0.1260
   58GLOH   H05 8987   0.934   4.559   7.380  1.8713 -1.2991 -0.7802
   58GLOH    C3 8988   0.664   4.485   7.219 -0.5172 -0.2729  0.4518
   58GLOH   H06 8989   0.577   4.543   7.191 -0.1326 -0.7333 -1.7767
   58GLOH   H07 8990   0.631   4.394   7.269  0.1104 -0.6878  0.1265
   58GLOH    O3 8991   0.722   4.440   7.097 -0.0970 -0.1830 -0.5813
   58GLOH   H01 8992   0.676   4.490   7.027  0.6205  1.0287 -0.1955
   59GLOH   H03 8993   4.002   1.383   3.041 -2.2024 -1.8493  2.1988
   59GLOH    O1 8994   4.025   1.301   2.995  0.5039  0.0293  0.0226
   59GLOH    C1 8995   3.978   1.312   2.863 -0.6779  0.2240  0.2495
   59GLOH   H02 8996   3.985   1.217   2.809  0.1956  0.1430  0.4909
   59GLOH   H08 8997   4.045   1.372   2.801 -0.5500  2.0298  2.1131
   59GLOH    C2 8998   3.833   1.369   2.837  0.2489 -0.1679  0.5728
   59GLOH   H04 8999   3.812   1.367   2.729 -2.5287  0.9359  1.0357
   59GLOH    O2 9000   3.730   1.292   2.906 -0.2429  0.3413  0.1163
   59GLOH   H05 9001   3.728   1.198   2.883  1.2302  0.3361 -0.0674
   59GLOH    C3 9002   3.837   1.520   2.876  0.0850  0.0582 -0.0118
   59GLOH   H06 9003   3.872   1.512   2.979 -3.9250 -2.9624  1.2830
   59GLOH   H07 9004   3.738   1.564   2.866 -0.7625 -1.7213  0.2039
   59GLOH    O3 9005   3.937   1.587   2.796 -0.0543 -0.0403  0.0364
   59GLOH   H01 9006   3.949   1.669   2.847  1.0361 -0.4487  0.4517
   60GLOH   H03 9007   3.028   1.065   3.488  1.6790 -0.0526  1.5248
   60GLOH    O1 9008   3.076   1.111   3.417 -0.4111 -0.1090  0.0472
   60GLOH    C1 9009   2.987   1.152   3.315 -0.3974 -0.2844  0.2626
   60GLOH   H02 9010   2.923   1.068   3.288  1.8268 -1.6425 -0.9421
   60GLOH   H08 9011   3.047   1.161   3.225 -1.3512 -0.6264 -0.4169
   60GLOH    C2 9012   2.909   1.283   3.330  0.3829  0.5167  0.1335
   60GLOH   H04 9013   2.978   1.367   3.345 -0.7108  1.4126  0.2734
   60GLOH    O2 9014   2.832   1.306   3.211  0.4726 -0.0343 -0.3799
   60GLOH   H05 9015   2.886   1.295   3.130  0.9915  0.9197 -0.1753
   60GLOH    C3 9016   2.830   1.282   3.464 -0.0405 -0.0257 -0.7584
   60GLOH   H06 9017   2.784   1.184   3.475 -4.2183  1.8959 -0.0453
   60GLOH   H07 9018   2.752   1.358   3.452 -0.7906  0.1049  3.9965
   60GLOH    O3 9019   2.904   1.325   3.578  0.1402 -0.5837 -0.0718
   60GLOH   H01 9020   2.975   1.261   3.594  0.2818 -0.2085  0.7896
   61GLOH   H03 9021   0.676   2.996   5.031 -0.7764 -1.0425 -1.9798
   61GLOH    O1 9022   0.762   3.024   4.995 -0.2150 -0.2094 -0.0611
   61GLOH    C1 9023   0.728   3.139   4.910  0.0833 -0.5545  0.1190
   61GLOH   H02 9024   0.683   3.212   4.977 -1.4773 -1.4775  0.1062
   61GLOH   H08 9025   0.660   3.115   4.829 -0.6811  1.1960  0.2395
   61GLOH    C2 9026   0.859   3.189   4.841  0.7170 -0.1318 -0.1077
   61GLOH   H04 9027   0.908   3.101   4.798 -1.4225 -2.4543  2.0867
   61GLOH    O2 9028   0.825   3.287   4.737 -0.0282 -0.3324  0.5801
   61GLOH   H05 9029   0.731   3.286   4.712 -0.1323 -1.5196  1.0237
   61GLOH    C3 9030   0.963   3.247   4.948  0.7265  0.8091  0.2244
   61GLOH   H06 9031   0.981   3.159   5.011 -1.4167  1.1588  1.3525
   61GLOH   H07 9032   0.911   3.323   5.006 -1.5464 -1.8096  1.6993
   61GLOH    O3 9033   1.084   3.294   4.883  0.4304 -0.0931  0.0488
   61GLOH   H01 9034   1.071   3.277   4.787  0.2421  0.9470 -0.1088
   62GLOH   H03 9035   8.183   2.481   7.343  0.2998 -0.9556  0.3081
   62GLOH    O1 9036   8.129   2.524   7.411  0.4562  0.2675 -0.3308
   62GLOH    C1 9037   8.190   2.562   7.535 -0.0867 -1.0118  0.1562
   62GLOH   H02 9038   8.189   2.670   7.551  0.5246 -0.6739 -1.8605
   62GLOH   H08 9039   8.297   2.541   7.536  0.4370  1.5106  0.3049
   62GLOH    C2 9040   8.102   2.503   7.649  0.2758  0.1964 -0.0629
   62GLOH   H04 9041   8.084   2.395   7.640 -1.5310  0.3919  0.9197
   62GLOH    O2 9042   8.184   2.522   7.768 -0.0569  0.0301  0.2572
   62GLOH   H05 9043   8.193   2.435   7.810  1.9641 -0.2711 -0.7431
   62GLOH    C3 9044   7.970   2.581   7.666  0.1002 -0.4906  0.2965
   62GLOH   H06 9045   7.905   2.513   7.721 -0.8975  0.5173  0.3803
   62GLOH   H07 9046   7.919   2.595   7.571  1.0426 -2.6536 -0.5833
   62GLOH    O3 9047   7.982   2.701   7.740  0.1780  0.6760 -0.1450
   62GLOH   H01 9048   8.054   2.679   7.802 -0.1436 -1.1350 -0.3858
   63GLOH   H03 9049   8.128   0.516   1.141 -0.3350 -1.0460 -1.0943
   63GLOH    O1 9050   8.070   0.458   1.193  0.2013 -0.3092  0.3523
   63GLOH    C1 9051   7.949   0.528   1.228 -0.4546 -0.5110 -0.2262
   63GLOH   H02 9052   7.894   0.564   1.141  0.9792  2.0982 -0.1006
   63GLOH   H08 9053   7.974   0.619   1.283 -1.3405  0.9323 -2.1649
   63GLOH    C2 9054   7.858   0.448   1.316  0.0489 -0.5179  0.0948
   63GLOH   H04 9055   7.862   0.347   1.273 -0.5925  0.4579 -2.3483
   63GLOH    O2 9056   7.904   0.455   1.453  0.6644 -0.3306  0.2671
   63GLOH   H05 9057   7.938   0.365   1.465  1.6881 -0.2059 -1.5267
   63GLOH    C3 9058   7.717   0.493   1.311 -0.4766  0.1605  0.2119
   63GLOH   H06 9059   7.693   0.573   1.381  1.0059  0.0243  0.8741
   63GLOH   H07 9060   7.655   0.407   1.338  0.5932 -1.0690 -1.2252
   63GLOH    O3 9061   7.665   0.536   1.183 -0.1815 -0.0239 -0.7912
   63GLOH   H01 9062   7.580   0.581   1.199 -0.2085  1.0607 -3.7519
   64GLOH   H03 9063   4.792   7.100   2.334 -0.5479  1.7481 -0.0756
   64GLOH    O1 9064   4.697   7.086   2.349 -0.3216 -0.0166 -0.2643
   64GLOH    C1 9065   4.607   7.097   2.233 -0.6064  0.0161 -0.0456
   64GLOH   H02 9066   4.506   7.123   2.267 -0.5298  0.2237  0.0279
   64GLOH   H08 9067   4.591   7.004   2.180  0.2898  0.8767 -1.8679
   64GLOH    C2 9068   4.649   7.212   2.132  1.0361 -0.1574 -0.2472
   64GLOH   H04 9069   4.752   7.236   2.163  0.8989 -1.4467  1.2943
   64GLOH    O2 9070   4.656   7.154   1.994  0.1126 -0.2317 -0.4883
   64GLOH   H05 9071   4.648   7.226   1.929 -2.6491  0.6778  0.8124
   64GLOH    C3 9072   4.554   7.336   2.140 -0.4493  0.1825  0.5193
   64GLOH   H06 9073   4.545   7.378   2.241  1.0625  1.2799  0.2136
   64GLOH   H07 9074   4.450   7.307   2.120 -0.3988  0.6099 -0.3733
   64GLOH    O3 9075   4.591   7.439   2.046 -0.2272  0.3828 -0.2792
   64GLOH   H01 9076   4.687   7.452   2.052 -0.5713  3.1810 -0.4492
   65GLOH   H03 9077   1.723   7.549   0.400 -1.1929 -3.0369 -3.5532
   65GLOH    O1 9078   1.645   7.603   0.379  0.1518  0.7160  0.3150
   65GLOH    C1 9079   1.683   7.738   0.375 -0.0120  0.3879  0.0585
   65GLOH   H02 9080   1.709   7.770   0.275  1.5815  0.6422  0.5376
   65GLOH   H08 9081   1.776   7.743   0.432  0.5942 -0.3426 -0.8513
   65GLOH    C2 9082   1.578   7.830   0.435  0.3495 -0.4155  0.1312
   65GLOH   H04 9083   1.564   7.825   0.544 -3.1911 -1.1452 -0.2957
   65GLOH    O2 9084   1.607   7.969   0.412  0.6088 -0.5080  0.5732
   65GLOH   H05 9085   1.608   7.975   0.315 -0.0891 -2.1591  0.4604
   65GLOH    C3 9086   1.434   7.814   0.374 -0.1654  0.4325 -0.2054
   65GLOH   H06 9087   1.426   7.861   0.276 -2.1529 -1.5913 -1.0460
   65GLOH   H07 9088   1.368   7.876   0.436 -0.6651 -0.1426 -0.1647
   65GLOH    O3 9089   1.388   7.681   0.378  0.7565 -0.3393  0.1747
   65GLOH   H01 9090   1.467   7.624   0.371  1.3754  0.6096 -0.7278
   66GLOH   H03 9091   3.460   4.808   8.329  1.1454  2.1665  0.5170
   66GLOH    O1 9092   3.512   4.775   8.253 -0.1072  0.1011  0.4913
   66GLOH    C1 9093   3.527   4.882   8.160  0.8513  0.4642  0.1170
   66GLOH   H02 9094   3.534   4.980   8.207  1.6630  1.3900 -1.8405
   66GLOH   H08 9095   3.441   4.884   8.094  0.9676 -0.8695 -0.0869
   66GLOH    C2 9096   3.658   4.874   8.076 -0.0380  0.2488  0.6207
   66GLOH   H04 9097   3.744   4.915   8.130  1.6036 -1.4312 -0.6729
   66GLOH    O2 9098   3.666   4.740   8.023 -0.2860  0.1350 -0.3750
   66GLOH   H05 9099   3.709   4.677   8.083 -1.5299 -2.6211 -2.2718
   66GLOH    C3 9100   3.639   4.955   7.948 -0.4031 -0.2856  0.1004
   66GLOH   H06 9101   3.565   4.918   7.877  0.7706 -0.7208 -0.9127
   66GLOH   H07 9102   3.731   4.953   7.890 -0.3800 -1.4309  0.1649
   66GLOH    O3 9103   3.625   5.092   7.977  0.1257  0.5025  0.2657
   66GLOH   H01 9104   3.616   5.143   7.895  1.1519  2.3818  1.3034
   67GLOH   H03 9105   7.641   4.824   9.334  0.6112  1.0198 -1.2187
   67GLOH    O1 9106   7.650   4.889   9.407 -0.1485 -0.4693  0.2230
   67GLOH    C1 9107   7.544   4.982   9.393 -0.8826  0.0571  0.5417
   67GLOH   H02 9108   7.466   4.938   9.331  0.7290 -0.7726 -0.9469
   67GLOH   H08 9109   7.589   5.064   9.337  3.1684 -1.3764  1.5053
   67GLOH    C2 9110   7.503   5.049   9.528 -0.5395 -0.0058 -0.0275
   67GLOH   H04 9111   7.470   4.972   9.599 -0.2699  0.3815  0.5200
   67GLOH    O2 9112   7.614   5.118   9.592  0.0335 -0.2989  0.1168
   67GLOH   H05 9113   7.635   5.087   9.681  0.6757  1.0337  0.4420
   67GLOH    C3 9114   7.384   5.145   9.514  0.6857  0.8979  0.7433
   67GLOH   H06 9115   7.414   5.244   9.481 -0.2830  1.6358  2.0157
   67GLOH   H07 9116   7.348   5.164   9.616 -0.5567  0.8902  0.3143
   67GLOH    O3 9117   7.275   5.100   9.429 -0.6486  0.1234 -0.1120
   67GLOH   H01 9118   7.218   5.042   9.483 -0.0128  1.1514  1.7178
   68GLOH   H03 9119   7.183   4.003   9.416  0.3992  0.4458  1.7612
   68GLOH    O1 9120   7.240   3.945   9.362 -0.4976  0.6083  0.6329
   68GLOH    C1 9121   7.317   4.032   9.274 -0.7327 -0.0118  0.3324
   68GLOH   H02 9122   7.313   4.138   9.299  0.3172 -0.2022  1.3199
   68GLOH   H08 9123   7.285   4.021   9.170 -0.6964 -0.3648  0.3588
   68GLOH    C2 9124   7.467   4.010   9.270 -0.0560  0.5430 -0.1097
   68GLOH   H04 9125   7.512   4.079   9.197  1.6254 -2.7217 -2.2415
   68GLOH    O2 9126   7.530   4.033   9.396  0.4703 -0.7512 -0.0194
   68GLOH   H05 9127   7.473   4.005   9.471 -3.1482  2.3601 -1.4645
   68GLOH    C3 9128   7.488   3.858   9.236  0.0535 -0.4497  0.3177
   68GLOH   H06 9129   7.420   3.836   9.154  0.3001  0.8046 -0.2376
   68GLOH   H07 9130   7.460   3.799   9.322 -2.0925  0.0376 -0.0333
   68GLOH    O3 9131   7.621   3.825   9.191  0.3698 -0.4227  0.6391
   68GLOH   H01 9132   7.664   3.769   9.258  0.2115  0.1146  1.1902
   69GLOH   H03 9133   0.720   2.546   8.752 -0.7088 -0.4000 -0.4334
   69GLOH    O1 9134   0.676   2.630   8.730  0.0891  0.2341  0.3837
   69GLOH    C1 9135   0.635   2.701   8.854  0.4531  0.2448  0.5556
   69GLOH   H02 9136   0.561   2.778   8.833  0.3444 -0.4660 -1.9083
   69GLOH   H08 9137   0.722   2.750   8.898  0.7022  1.3376 -1.0774
   69GLOH    C2 9138   0.570   2.598   8.951 -0.1604  0.1322  0.0852
   69GLOH   H04 9139   0.521   2.525   8.886  0.8139 -0.4766  0.0268
   69GLOH    O2 9140   0.666   2.517   9.013 -0.2932 -0.3847  0.1345
   69GLOH   H05 9141   0.728   2.571   9.065 -0.4006  0.0837 -0.2291
   69GLOH    C3 9142   0.471   2.662   9.046 -0.3271 -0.1785  0.8614
   69GLOH   H06 9143   0.525   2.722   9.119  0.1757  0.3396  0.0821
   69GLOH   H07 9144   0.423   2.580   9.099  0.2481  0.3003  2.1181
   69GLOH    O3 9145   0.364   2.739   8.987  0.2122  0.5970 -0.0198
   69GLOH   H01 9146   0.365   2.837   8.989  1.6074  0.5887  0.1309
   70GLOH   H03 9147   6.777   6.492   9.307 -0.2676  0.1051 -0.5364
   70GLOH    O1 9148   6.839   6.443   9.250  0.3549  0.1827  0.0716
   70GLOH    C1 9149   6.826   6.483   9.116 -0.0783 -0.7240  0.7223
   70GLOH   H02 9150   6.827   6.592   9.105  1.2646 -0.6882  1.1736
   70GLOH   H08 9151   6.728   6.450   9.082  0.1747 -0.8746  0.1336
   70GLOH    C2 9152   6.930   6.421   9.021  0.2233 -0.2980  0.4036
   70GLOH   H04 9153   6.934   6.466   8.920  0.9934 -1.5154 -0.1129
   70GLOH    O2 9154   7.061   6.445   9.072 -0.0398  0.1716  0.4281
   70GLOH   H05 9155   7.058   6.430   9.168  0.0799  0.8789  0.5435
   70GLOH    C3 9156   6.899   6.276   9.007 -0.0951  1.4748  0.5073
   70GLOH   H06 9157   6.904   6.228   9.104 -1.2199  1.0313  0.3501
   70GLOH   H07 9158   6.969   6.227   8.939 -1.9191  1.9290 -1.7456
   70GLOH    O3 9159   6.773   6.261   8.947 -0.2149 -0.1402  0.1617
   70GLOH   H01 9160   6.726   6.190   8.994 -1.1368 -0.9172 -1.8401
   71GLOH   H03 9161   9.231   8.280   9.360  2.2505  0.6668 -0.7186
   71GLOH    O1 9162   9.254   8.281   9.265  0.1476  0.8447 -1.2523
   71GLOH    C1 9163   9.352   8.178   9.254 -0.3229  0.2636 -0.6239
   71GLOH   H02 9164   9.324   8.091   9.314 -0.5665  0.3881 -0.5565
   71GLOH   H08 9165   9.451   8.207   9.288  1.4046 -3.6932 -1.9169
   71GLOH    C2 9166   9.374   8.147   9.100 -0.3766 -0.2870 -0.1042
   71GLOH   H04 9167   9.413   8.234   9.044  0.2405  0.5346  1.5709
   71GLOH    O2 9168   9.482   8.054   9.080  0.1762  0.1098  0.3424
   71GLOH   H05 9169   9.555   8.079   9.139 -0.4893 -1.5058  1.8775
   71GLOH    C3 9170   9.250   8.086   9.029  0.0992  0.0505  0.3814
   71GLOH   H06 9171   9.234   7.985   9.066 -1.0273  0.0238 -0.1590
   71GLOH   H07 9172   9.274   8.072   8.924 -1.0139  4.2644 -0.5306
   71GLOH    O3 9173   9.138   8.173   9.041  0.3403 -0.4241 -0.1493
   71GLOH   H01 9174   9.094   8.162   9.127 -0.5312 -0.8005 -0.6309
   72GLOH   H03 9175   4.646   8.664   8.561  0.5965  0.1031  1.7710
   72GLOH    O1 9176   4.730   8.704   8.531 -0.0274  0.0836 -0.0121
   72GLOH    C1 9177   4.803   8.763   8.643  0.2456 -0.0734  0.4910
   72GLOH   H02 9178   4.845   8.691   8.713 -0.3236  0.3833  1.3065
   72GLOH   H08 9179   4.738   8.826   8.703 -0.7714 -0.2819 -0.3805
   72GLOH    C2 9180   4.916   8.854   8.591 -0.5095 -0.3364  0.3837
   72GLOH   H04 9181   4.872   8.950   8.560  0.6729 -0.3574 -1.4477
   72GLOH    O2 9182   5.007   8.883   8.705  0.0455  0.3699 -0.0847
   72GLOH   H05 9183   5.026   8.978   8.701  0.2247  0.2813 -2.5317
   72GLOH    C3 9184   4.992   8.793   8.471  0.2709  0.0528  0.7514
   72GLOH   H06 9185   5.035   8.695   8.491 -0.2572 -0.1405  0.9471
   72GLOH   H07 9186   5.076   8.859   8.450 -0.7209  0.9025 -0.6375
   72GLOH    O3 9187   4.904   8.778   8.358 -0.0725 -0.0014  0.9310
   72GLOH   H01 9188   4.821   8.747   8.398 -0.9876 -2.2278 -2.5139
   73GLOH   H03 9189   5.758   1.358   6.261 -0.4314 -0.2087  2.0276
   73GLOH    O1 9190   5.849   1.388   6.280  0.0553 -0.1114 -0.2816
   73GLOH    C1 9191   5.894   1.504   6.212 -0.2813 -0.2253  0.2274
   73GLOH   H02 9192   5.808   1.557   6.170 -0.1598  0.3565  0.7042
   73GLOH   H08 9193   5.961   1.486   6.128 -0.3357  2.5220 -0.4631
   73GLOH    C2 9194   5.978   1.606   6.296  0.4818 -0.2635 -0.3237
   73GLOH   H04 9195   6.076   1.564   6.325  0.5349  0.9418  1.3417
   73GLOH    O2 9196   5.981   1.731   6.225  0.3789 -0.6709 -0.3133
   73GLOH   H05 9197   6.038   1.705   6.150  0.7441  1.2481 -0.7202
   73GLOH    C3 9198   5.911   1.625   6.434  0.5161  0.4255 -0.1750
   73GLOH   H06 9199   5.807   1.654   6.422  0.1921 -0.3376  0.7494
   73GLOH   H07 9200   5.971   1.700   6.485 -0.9522  0.4487  1.5498
   73GLOH    O3 9201   5.917   1.494   6.498  0.0680 -0.1893  0.2942
   73GLOH   H01 9202   5.870   1.431   6.440  1.6271 -4.1255  3.0715
   74GLOH   H03 9203   8.566   4.778   4.693 -1.8849 -2.0729 -0.2066
   74GLOH    O1 9204   8.589   4.744   4.781  0.4110 -0.1225  0.0039
   74GLOH    C1 9205   8.470   4.665   4.820  0.1646 -0.0737 -0.5993
   74GLOH   H02 9206   8.443   4.587   4.749 -0.5215 -0.6313  0.2587
   74GLOH   H08 9207   8.395   4.742   4.835  0.9120  0.8417 -1.4752
   74GLOH    C2 9208   8.493   4.593   4.955 -0.4260  0.0682 -0.1161
   74GLOH   H04 9209   8.512   4.677   5.022  1.3245 -0.5348  0.1854
   74GLOH    O2 9210   8.373   4.526   5.000  0.3542 -0.4156  0.7436
   74GLOH   H05 9211   8.354   4.450   4.943 -2.0557  2.7846 -2.9734
   74GLOH    C3 9212   8.616   4.507   4.962  0.0920 -0.2217 -0.5924
   74GLOH   H06 9213   8.623   4.410   4.912  1.7718 -0.7765  0.6602
   74GLOH   H07 9214   8.630   4.484   5.068 -1.3209  0.8571 -0.1440
   74GLOH    O3 9215   8.728   4.574   4.910 -0.0243  0.5935  0.0876
   74GLOH   H01 9216   8.698   4.645   4.849  0.0046 -0.2950 -0.9682
   75GLOH   H03 9217   0.959   3.558   2.358  0.7271 -0.0192 -0.2561
   75GLOH    O1 9218   0.963   3.461   2.361 -0.2115 -0.0338  0.5542
   75GLOH    C1 9219   0.989   3.420   2.498  0.6153  0.1307 -0.4027
   75GLOH   H02 9220   0.990   3.311   2.503 -1.5520  0.1923  1.7010
   75GLOH   H08 9221   0.914   3.452   2.569  1.6590 -1.0531  1.2800
   75GLOH    C2 9222   1.118   3.476   2.560  0.4840 -0.2029 -0.0389
   75GLOH   H04 9223   1.109   3.585   2.576  0.0237 -0.5367  2.1664
   75GLOH    O2 9224   1.120   3.416   2.688 -0.5547 -0.0695 -0.5426
   75GLOH   H05 9225   1.049   3.445   2.748  0.8417  0.8828  0.6847
   75GLOH    C3 9226   1.247   3.453   2.474  0.0009  0.2619  0.6140
   75GLOH   H06 9227   1.234   3.497   2.375  1.4321 -0.8783 -0.0878
   75GLOH   H07 9228   1.250   3.346   2.458  0.2797  0.1701  1.2954
   75GLOH    O3 9229   1.372   3.498   2.533 -0.0905  0.3489  0.2696
   75GLOH   H01 9230   1.441   3.431   2.521 -1.9994 -1.4217 -1.1893
   76GLOH   H03 9231   5.891   7.176   4.013  2.6345 -1.0130 -0.0604
   76GLOH    O1 9232   5.885   7.193   3.917 -0.6144 -0.5730  0.1331
   76GLOH    C1 9233   6.011   7.192   3.861 -0.1726 -0.2931  0.0249
   76GLOH   H02 9234   6.007   7.139   3.766 -4.1524 -3.9063  2.0408
   76GLOH   H08 9235   6.082   7.136   3.921 -0.0496 -1.5432 -1.2767
   76GLOH    C2 9236   6.074   7.338   3.855 -0.1925  0.4170  0.0418
   76GLOH   H04 9237   6.060   7.382   3.955  0.5658 -0.3204  0.4841
   76GLOH    O2 9238   6.218   7.327   3.836  0.2634  0.1815 -0.3720
   76GLOH   H05 9239   6.264   7.330   3.922 -1.4183  0.8910  0.5274
   76GLOH    C3 9240   6.007   7.402   3.732 -0.4642  0.5573  0.7858
   76GLOH   H06 9241   5.905   7.367   3.715  0.0211 -0.5791  0.1694
   76GLOH   H07 9242   6.063   7.380   3.642 -2.5616 -0.0010 -0.4083
   76GLOH    O3 9243   5.996   7.550   3.730 -0.0153 -0.1629  0.6359
   76GLOH   H01 9244   6.086   7.587   3.733  0.2914 -0.9651  1.4871
   77GLOH   H03 9245   5.894   0.970   9.194  1.4049  1.5930  2.3331
   77GLOH    O1 9246   5.972   0.964   9.137 -0.7386 -0.1253 -0.5732
   77GLOH    C1 9247   6.083   1.012   9.221  0.7709  0.2982 -0.9061
   77GLOH   H02 9248   6.133   0.932   9.275  0.5213  0.8585  0.1717
   77GLOH   H08 9249   6.042   1.069   9.304  0.6267 -2.1839  0.7787
   77GLOH    C2 9250   6.191   1.096   9.150  0.6509 -0.7620 -0.0581
   77GLOH   H04 9251   6.145   1.196   9.145  0.9609 -0.6706 -1.3593
   77GLOH    O2 9252   6.310   1.115   9.227 -0.0254  0.4189  0.5924
   77GLOH   H05 9253   6.283   1.166   9.306 -1.7305  0.4171  0.0452
   77GLOH    C3 9254   6.224   1.046   9.006  0.0531 -0.6862  0.1528
   77GLOH   H06 9255   6.280   0.954   9.022  0.8116 -0.2090  0.2793
   77GLOH   H07 9256   6.295   1.120   8.968 -1.4539  0.5798 -0.2154
   77GLOH    O3 9257   6.105   1.016   8.931 -0.3183 -0.5188 -0.0941
   77GLOH   H01 9258   6.039   0.971   8.987 -1.3933 -0.3383 -1.2031
   78GLOH   H03 9259   8.113   1.384   1.851  2.0330 -1.6135  1.0100
   78GLOH    O1 9260   8.084   1.413   1.939  0.0548  0.2661 -0.2216
   78GLOH    C1 9261   8.205   1.388   2.016  0.0391 -1.0894  0.4191
   78GLOH   H02 9262   8.283   1.461   1.996 -1.6965  1.0090  1.1481
   78GLOH   H08 9263   8.248   1.288   2.005  1.4004 -0.3768 -1.0498
   78GLOH    C2 9264   8.179   1.402   2.168  0.2025  0.0222 -0.2654
   78GLOH   H04 9265   8.100   1.330   2.191 -0.5388  1.0648  0.5241
   78GLOH    O2 9266   8.304   1.363   2.241  0.3625 -0.8075  0.2318
   78GLOH   H05 9267   8.374   1.429   2.227 -0.8512  0.7873  1.4893
   78GLOH    C3 9268   8.133   1.548   2.200 -0.5501 -0.6388  0.2003
   78GLOH   H06 9269   8.209   1.609   2.151 -2.4457  0.7676 -1.0493
   78GLOH   H07 9270   8.127   1.568   2.307  1.4176  0.1381  0.1966
   78GLOH    O3 9271   8.019   1.590   2.126  0.1117  0.1850 -0.1022
   78GLOH   H01 9272   8.023   1.553   2.036 -0.1967  0.0004 -0.0374
   79GLOH   H03 9273   0.669   9.999   9.265 -2.5943  0.6502  1.3561
   79GLOH    O1 9274   0.709   9.974   9.350 -0.3260  0.0109  0.1464
   79GLOH    C1 9275   0.722   9.831   9.350  0.6234 -0.1464 -0.1149
   79GLOH   H02 9276   0.757   9.793   9.254 -0.2424  0.0604 -0.5155
   79GLOH   H08 9277   0.624   9.794   9.380 -0.0086  0.6277 -1.1958
   79GLOH    C2 9278   0.820   9.771   9.455  0.2327 -0.2658 -0.2363
   79GLOH   H04 9279   0.783   9.801   9.554 -2.4149  0.8387 -1.5058
   79GLOH    O2 9280   0.812   9.629   9.449 -0.1922  0.3745 -0.2006
   79GLOH   H05 9281   0.848   9.592   9.531  0.8325  1.8511  0.0257
   79GLOH    C3 9282   0.962   9.831   9.441 -0.0767  0.0067 -0.0277
   79GLOH   H06 9283   0.952   9.937   9.464 -1.3110 -0.7734  3.2811
   79GLOH   H07 9284   0.997   9.818   9.339 -0.0025  0.6357 -0.0817
   79GLOH    O3 9285   1.062   9.778   9.534  0.2199 -0.0341  0.4000
   79GLOH   H01 9286   1.110   9.861   9.549  0.2751  0.0643 -0.3185
   80GLOH   H03 9287   7.418   1.225   2.459  1.4584 -1.2932 -1.8361
   80GLOH    O1 9288   7.373   1.141   2.481  0.2714 -0.0237  0.8802
   80GLOH    C1 9289   7.380   1.107   2.621  1.0569  0.4298  0.1182
   80GLOH   H02 9290   7.286   1.055   2.638  1.2296  0.2731  0.6133
   80GLOH   H08 9291   7.375   1.198   2.680  0.6656  0.5001 -0.0191
   80GLOH    C2 9292   7.500   1.019   2.673 -0.2298 -0.2666  0.6482
   80GLOH   H04 9293   7.594   1.068   2.644 -1.1697  0.5529 -1.0692
   80GLOH    O2 9294   7.488   1.013   2.816 -0.1285 -0.2830 -0.4767
   80GLOH   H05 9295   7.574   1.015   2.861 -0.5191 -0.4822  0.2919
   80GLOH    C3 9296   7.499   0.876   2.616  0.7432  0.0570 -0.7045
   80GLOH   H06 9297   7.394   0.847   2.630  0.5269  1.9695  2.1034
   80GLOH   H07 9298   7.568   0.823   2.682  0.5002 -0.6570 -1.0139
   80GLOH    O3 9299   7.543   0.869   2.480 -0.7802 -1.1045  0.2766
   80GLOH   H01 9300   7.461   0.861   2.428 -1.2208 -0.5060  0.8685
   81GLOH   H03 9301   4.952   3.191   5.176  0.8319  0.1893  0.0806
   81GLOH    O1 9302   4.899   3.225   5.101  0.1832  0.0537  0.4770
   81GLOH    C1 9303   4.770   3.249   5.160 -0.6195 -0.0079 -0.5356
   81GLOH   H02 9304   4.763   3.316   5.245 -1.3467 -0.6778 -0.0540
   81GLOH   H08 9305   4.729   3.153   5.192  1.2568  0.1684  2.5022
   81GLOH    C2 9306   4.672   3.311   5.057  0.2917  0.9095  0.0927
   81GLOH   H04 9307   4.664   3.253   4.964  0.0997  0.4467  0.3985
   81GLOH    O2 9308   4.533   3.326   5.102 -0.2824 -0.1062 -0.0804
   81GLOH   H05 9309   4.484   3.380   5.038  0.1313  0.2957 -0.0549
   81GLOH    C3 9310   4.724   3.447   5.009 -0.1762 -0.0617 -0.4784
   81GLOH   H06 9311   4.658   3.490   4.934 -2.6991  0.2889  1.8745
   81GLOH   H07 9312   4.819   3.419   4.964  1.6470  1.5887  2.2125
   81GLOH    O3 9313   4.729   3.548   5.113  0.0809 -0.4776  0.2488
   81GLOH   H01 9314   4.751   3.638   5.082 -0.8604 -0.2510  0.2276
   82GLOH   H03 9315   2.753   4.512   2.741 -0.7522  0.9343 -1.7730
   82GLOH    O1 9316   2.699   4.543   2.816  0.5710  0.1898 -0.4806
   82GLOH    C1 9317   2.693   4.686   2.804 -0.0957 -0.8659 -0.6328
   82GLOH   H02 9318   2.608   4.714   2.741 -1.3708 -2.0218  0.5359
   82GLOH   H08 9319   2.786   4.716   2.757  0.1337 -1.3381 -0.4836
   82GLOH    C2 9320   2.685   4.752   2.943  0.1833 -0.2264 -0.9680
   82GLOH   H04 9321   2.782   4.729   2.990 -0.7753 -0.1972  1.0681
   82GLOH    O2 9322   2.690   4.888   2.947 -0.0228  0.1922  0.1679
   82GLOH   H05 9323   2.612   4.913   2.896 -0.7432 -1.2691  0.5271
   82GLOH    C3 9324   2.572   4.701   3.037 -0.5427  0.7768 -0.4782
   82GLOH   H06 9325   2.471   4.725   3.005 -0.5725  0.2857 -0.7496
   82GLOH   H07 9326   2.594   4.754   3.130  1.4319 -1.7685  0.5814
   82GLOH    O3 9327   2.586   4.562   3.061 -0.3753 -0.2337 -0.1101
   82GLOH   H01 9328   2.632   4.536   2.979  0.1497  0.5496 -0.0648
   83GLOH   H03 9329   5.523   8.242   4.910 -0.1878 -1.0317  0.5723
   83GLOH    O1 9330   5.551   8.265   5.000  0.1806 -0.0232  0.2007
   83GLOH    C1 9331   5.446   8.339   5.052  1.0129  0.3415 -0.4384
   83GLOH   H02 9332   5.431   8.310   5.156  0.6735  0.9507 -0.3106
   83GLOH   H08 9333   5.356   8.324   4.993  0.0564  0.0763  1.0649
   83GLOH    C2 9334   5.473   8.489   5.059  0.1427  0.2009 -0.3149
   83GLOH   H04 9335   5.555   8.501   5.131 -0.5370 -0.7544  0.6253
   83GLOH    O2 9336   5.493   8.536   4.922 -0.0608  0.0520  0.2516
   83GLOH   H05 9337   5.556   8.609   4.918 -0.6404  0.5685  0.4634
   83GLOH    C3 9338   5.346   8.560   5.116  0.9244 -0.0789  0.2274
   83GLOH   H06 9339   5.270   8.552   5.038  1.2382 -1.1968  0.0191
   83GLOH   H07 9340   5.375   8.663   5.137  3.8302 -0.7505 -0.2091
   83GLOH    O3 9341   5.282   8.507   5.233  0.4331 -0.3900  0.1617
   83GLOH   H01 9342   5.346   8.502   5.306  2.9754  3.7699 -1.5935
   84GLOH   H03 9343   1.766   8.081   5.410 -1.4864  0.9476  0.9647
   84GLOH    O1 9344   1.768   8.027   5.492  0.2772 -0.4710  0.0204
   84GLOH    C1 9345   1.707   8.115   5.595 -0.5440 -0.8564 -0.3929
   84GLOH   H02 9346   1.693   8.066   5.691 -1.5092  1.1791  0.5231
   84GLOH   H08 9347   1.609   8.149   5.563 -1.2199 -1.9665  0.5046
   84GLOH    C2 9348   1.800   8.240   5.625 -0.3256 -0.3690  0.3160
   84GLOH   H04 9349   1.825   8.295   5.533  1.9812 -1.0197  0.5373
   84GLOH    O2 9350   1.723   8.331   5.705  0.0383  0.4679 -0.2161
   84GLOH   H05 9351   1.699   8.286   5.788  1.2731  1.7289  0.8431
   84GLOH    C3 9352   1.933   8.199   5.697  0.3588  0.5560  0.8503
   84GLOH   H06 9353   1.964   8.105   5.651  0.9255  0.5407  1.2541
   84GLOH   H07 9354   1.915   8.177   5.803  1.9577 -2.5261  0.5243
   84GLOH    O3 9355   2.022   8.309   5.682 -0.0280  0.4726 -0.0914
   84GLOH   H01 9356   2.110   8.275   5.707 -1.1597 -0.8119  2.2947
   85GLOH   H03 9357   7.546   6.576   9.533  0.4747  1.5408 -2.0810
   85GLOH    O1 9358   7.620   6.602   9.591 -0.1114 -0.5528 -0.2998
   85GLOH    C1 9359   7.647   6.745   9.572 -0.8083  0.3005  0.8994
   85GLOH   H02 9360   7.707   6.786   9.653  0.4647  1.0904 -0.4294
   85GLOH   H08 9361   7.556   6.804   9.565 -0.0149  1.6411  1.7130
   85GLOH    C2 9362   7.712   6.775   9.439  0.3161 -0.2266  0.7305
   85GLOH   H04 9363   7.648   6.747   9.354 -0.5072  0.5070  1.1015
   85GLOH    O2 9364   7.726   6.917   9.434  0.7352  0.0943  0.7794
   85GLOH   H05 9365   7.709   6.949   9.344  1.1835  0.5556  0.8551
   85GLOH    C3 9366   7.837   6.689   9.428 -1.0749 -0.9345 -0.7835
   85GLOH   H06 9367   7.819   6.589   9.387  1.4591 -0.5398 -3.0371
   85GLOH   H07 9368   7.870   6.681   9.532  0.7121  1.9909 -1.0704
   85GLOH    O3 9369   7.938   6.742   9.338  0.4468  0.8244 -0.4025
   85GLOH   H01 9370   8.016   6.687   9.357 -0.5125 -0.9858 -1.6678
   86GLOH   H03 9371   4.765   3.188   6.247 -1.5104  0.3749  0.5073
   86GLOH    O1 9372   4.771   3.205   6.343 -0.6271  0.3076  0.4683
   86GLOH    C1 9373   4.651   3.266   6.390 -0.7827  0.7690 -0.1288
   86GLOH   H02 9374   4.586   3.190   6.433 -0.2786  0.4864  0.1444
   86GLOH   H08 9375   4.608   3.315   6.303  0.0564  4.4635  1.3908
   86GLOH    C2 9376   4.678   3.381   6.487  0.2821  0.4264 -0.2444
   86GLOH   H04 9377   4.719   3.463   6.427  0.1893  0.8504  0.2602
   86GLOH    O2 9378   4.558   3.417   6.548 -0.2783 -0.0985  0.2551
   86GLOH   H05 9379   4.518   3.342   6.596  0.8406 -1.2269 -0.5299
   86GLOH    C3 9380   4.785   3.342   6.588 -0.1154  0.0385  0.9929
   86GLOH   H06 9381   4.878   3.323   6.536 -0.9916  3.6443 -2.0836
   86GLOH   H07 9382   4.759   3.249   6.639 -1.5805 -0.0313  0.1461
   86GLOH    O3 9383   4.810   3.441   6.686 -0.4908 -0.4626  0.2683
   86GLOH   H01 9384   4.796   3.522   6.633  0.5130  0.7387  1.7805
   87GLOH   H03 9385   3.521   2.784   1.196  0.9302  1.1897 -0.5683
   87GLOH    O1 9386   3.542   2.831   1.279  0.2806  0.4888 -0.0012
   87GLOH    C1 9387   3.488   2.750   1.381 -0.4283  0.7534 -0.3148
   87GLOH   H02 9388   3.523   2.650   1.356 -1.9071  0.0382  0.4314
   87GLOH   H08 9389   3.379   2.745   1.374 -0.4966 -0.7765  1.3299
   87GLOH    C2 9390   3.544   2.784   1.521 -0.6886  0.2452  0.0957
   87GLOH   H04 9391   3.543   2.891   1.546 -1.4445  0.2750 -0.0559
   87GLOH    O2 9392   3.460   2.714   1.619 -0.4847 -0.3067  0.5506
   87GLOH   H05 9393   3.473   2.753   1.707  2.3163 -0.5034  0.2531
   87GLOH    C3 9394   3.693   2.726   1.537  0.2537  0.0762  0.5499
   87GLOH   H06 9395   3.698   2.621   1.510  1.9957  0.4288 -0.6160
   87GLOH   H07 9396   3.705   2.724   1.645  0.0317  2.2938  0.6355
   87GLOH    O3 9397   3.792   2.796   1.464 -0.1741 -0.1165  0.4339
   87GLOH   H01 9398   3.824   2.868   1.522 -1.5860 -0.1569  1.2778
   88GLOH   H03 9399   0.703   6.857   4.411 -1.2793 -0.4626  0.0891
   88GLOH    O1 9400   0.720   6.928   4.475 -0.4091 -0.7997  0.2383
   88GLOH    C1 9401   0.689   7.053   4.404  0.4684  0.2344 -0.4789
   88GLOH   H02 9402   0.685   7.130   4.482  0.8493  0.4295 -0.6484
   88GLOH   H08 9403   0.590   7.039   4.361  0.2325 -3.5119  1.1033
   88GLOH    C2 9404   0.795   7.086   4.293  0.3489 -0.2007  0.2169
   88GLOH   H04 9405   0.807   7.010   4.214  2.9854  1.4996 -1.0944
   88GLOH    O2 9406   0.745   7.206   4.235 -0.0775  0.1584 -0.3259
   88GLOH   H05 9407   0.673   7.199   4.171  0.2205 -2.2744 -0.4186
   88GLOH    C3 9408   0.936   7.106   4.350  0.5789  0.6835  0.1607
   88GLOH   H06 9409   0.940   7.195   4.413  0.5865 -0.1909  1.4085
   88GLOH   H07 9410   1.000   7.123   4.263  0.4405 -1.2380 -0.3431
   88GLOH    O3 9411   0.975   6.989   4.422 -0.2849 -0.4977  0.0364
   88GLOH   H01 9412   0.905   6.970   4.487  1.9028  0.3633  2.7228
   89GLOH   H03 9413   1.528   5.200   4.739 -0.1492 -0.4122  0.1920
   89GLOH    O1 9414   1.596   5.268   4.757 -0.1263 -0.4068  0.0878
   89GLOH    C1 9415   1.540   5.393   4.795  0.1035  0.0091  0.2836
   89GLOH   H02 9416   1.447   5.411   4.741 -0.8044  0.1939  1.8853
   89GLOH   H08 9417   1.612   5.469   4.766 -0.2188  0.0700 -0.3741
   89GLOH    C2 9418   1.504   5.401   4.947  0.3119  0.5759  0.3873
   89GLOH   H04 9419   1.582   5.387   5.023  0.1991 -3.0596 -0.0860
   89GLOH    O2 9420   1.441   5.531   4.973  0.1895  0.0895 -0.3967
   89GLOH   H05 9421   1.388   5.530   5.054 -3.1797  0.5067 -2.5105
   89GLOH    C3 9422   1.404   5.285   4.975  0.8116 -0.2746  0.0288
   89GLOH   H06 9423   1.391   5.283   5.083 -0.7103 -2.0059 -0.1788
   89GLOH   H07 9424   1.451   5.192   4.942 -2.4489 -2.0678  0.3258
   89GLOH    O3 9425   1.280   5.298   4.902 -0.1469 -0.3612  0.0333
   89GLOH   H01 9426   1.227   5.223   4.935 -0.4110  1.0495  2.9876
   90GLOH   H03 9427   6.499   2.077   2.485 -0.0725  0.3422 -0.0139
   90GLOH    O1 9428   6.496   2.173   2.500 -0.1961  0.2524  0.5390
   90GLOH    C1 9429   6.363   2.220   2.507  0.5407  0.5762 -0.0186
   90GLOH   H02 9430   6.302   2.197   2.420 -1.4197  2.2609  0.8529
   90GLOH   H08 9431   6.352   2.329   2.514  0.0251  0.6007 -1.1521
   90GLOH    C2 9432   6.300   2.153   2.631 -0.0162  0.1506  0.6720
   90GLOH   H04 9433   6.330   2.048   2.618 -0.1481  0.2545 -0.6309
   90GLOH    O2 9434   6.338   2.208   2.759 -0.2524 -0.0287  0.4607
   90GLOH   H05 9435   6.300   2.153   2.830  0.0427  1.6853  1.9778
   90GLOH    C3 9436   6.147   2.152   2.606  0.4752  0.2254 -0.8335
   90GLOH   H06 9437   6.100   2.087   2.680  0.0377  2.1372  0.5742
   90GLOH   H07 9438   6.138   2.102   2.509  0.0888 -1.1867 -0.0798
   90GLOH    O3 9439   6.078   2.280   2.594 -0.8108 -0.2663 -0.3872
   90GLOH   H01 9440   6.120   2.346   2.652  1.7462 -1.2423 -1.0494
   91GLOH   H03 9441   0.333   1.321   2.115  0.9669 -1.8864  2.0391
   91GLOH    O1 9442   0.360   1.409   2.149  0.4156 -0.5786 -0.7612
   91GLOH    C1 9443   0.364   1.503   2.043 -0.0814 -0.1515  0.4976
   91GLOH   H02 9444   0.448   1.489   1.976  0.7709  0.8309  1.3346
   91GLOH   H08 9445   0.371   1.605   2.083  3.0663 -0.1752  0.0665
   91GLOH    C2 9446   0.241   1.505   1.950  0.6555 -0.0120 -0.4440
   91GLOH   H04 9447   0.154   1.553   1.999  2.3258  2.9543 -0.2776
   91GLOH    O2 9448   0.274   1.593   1.838  0.5142 -0.0516 -0.8684
   91GLOH   H05 9449   0.311   1.675   1.875  1.4588 -0.7689 -0.1871
   91GLOH    C3 9450   0.213   1.372   1.887 -0.1356 -1.0713  0.6683
   91GLOH   H06 9451   0.311   1.350   1.845 -0.0516  1.2193 -0.4450
   91GLOH   H07 9452   0.146   1.376   1.801  2.1064  1.4651 -1.0600
   91GLOH    O3 9453   0.173   1.268   1.979  0.1948 -0.2997  0.2226
   91GLOH   H01 9454   0.154   1.186   1.929 -3.2377  0.6799 -0.2123
   92GLOH   H03 9455   2.165   0.765   7.769  0.0696 -0.7291  1.8285
   92GLOH    O1 9456   2.248   0.785   7.815  1.1067  0.3904 -0.4320
   92GLOH    C1 9457   2.231   0.746   7.949 -0.6594 -0.2313  0.1158
   92GLOH   H02 9458   2.309   0.785   8.014  0.5208  0.9368 -1.9382
   92GLOH   H08 9459   2.249   0.639   7.937  0.4025  0.2206 -2.8234
   92GLOH    C2 9460   2.089   0.760   8.013 -0.1510 -0.2465 -0.8460
   92GLOH   H04 9461   2.016   0.693   7.965  1.9730 -2.2512 -1.3863
   92GLOH    O2 9462   2.091   0.719   8.150  0.4467  0.1034  0.3456
   92GLOH   H05 9463   2.047   0.633   8.158  0.2868  0.1534 -0.0120
   92GLOH    C3 9464   2.053   0.912   7.998  0.2683  0.2492 -0.4887
   92GLOH   H06 9465   2.060   0.947   7.895 -1.6722  0.8735 -0.4266
   92GLOH   H07 9466   2.131   0.967   8.051 -0.9231  1.9136 -0.4188
   92GLOH    O3 9467   1.924   0.946   8.048 -0.1405 -0.8880 -0.0500
   92GLOH   H01 9468   1.889   0.876   8.106  0.1769  0.3064  1.6145
   93GLOH   H03 9469   8.012   0.259   8.418  0.7593  0.0185  0.2026
   93GLOH    O1 9470   8.075   0.234   8.348  0.2045  0.4241 -0.4357
   93GLOH    C1 9471   8.195   0.184   8.401  0.2113 -0.3677 -0.1420
   93GLOH   H02 9472   8.230   0.093   8.353  2.2324 -0.8908  2.2212
   93GLOH   H08 9473   8.175   0.156   8.505  1.2526 -0.8778 -0.0748
   93GLOH    C2 9474   8.318   0.278   8.394 -0.1615 -0.0119 -0.0550
   93GLOH   H04 9475   8.284   0.376   8.432 -0.5803 -1.1079  2.4740
   93GLOH    O2 9476   8.424   0.231   8.485 -0.1475 -0.5336  0.0688
   93GLOH   H05 9477   8.491   0.184   8.434 -2.5389 -1.5290 -2.2890
   93GLOH    C3 9478   8.358   0.296   8.249  0.4309 -0.1546  0.1426
   93GLOH   H06 9479   8.269   0.323   8.192 -0.4398 -0.7792  1.1611
   93GLOH   H07 9480   8.392   0.199   8.213  0.1800 -0.1500 -0.1041
   93GLOH    O3 9481   8.458   0.394   8.226 -0.0667 -0.5156  0.3254
   93GLOH   H01 9482   8.490   0.433   8.310  0.7512 -0.9385  0.2162
   94GLOH   H03 9483   5.237   0.518   1.889  1.9652 -1.9043  1.0489
   94GLOH    O1 9484   5.288   0.597   1.913 -0.0517 -0.0164 -0.7587
   94GLOH    C1 9485   5.261   0.651   2.044  0.6003  0.0255  0.1354
   94GLOH   H02 9486   5.343   0.706   2.090 -0.9884  2.8854 -0.3140
   94GLOH   H08 9487   5.235   0.570   2.112  3.0628 -0.9017  0.0218
   94GLOH    C2 9488   5.143   0.750   2.044  0.4492  0.0734 -0.3004
   94GLOH   H04 9489   5.055   0.698   2.004  0.0277  0.2602  0.3760
   94GLOH    O2 9490   5.107   0.798   2.179 -0.5541 -0.0034 -0.4867
   94GLOH   H05 9491   5.189   0.801   2.232 -0.0783 -1.3359 -1.1361
   94GLOH    C3 9492   5.185   0.865   1.957  0.3823 -0.9275  0.4030
   94GLOH   H06 9493   5.105   0.939   1.959 -1.6215 -2.9953 -0.9670
   94GLOH   H07 9494   5.190   0.822   1.857 -2.1333 -0.9898  0.2739
   94GLOH    O3 9495   5.309   0.918   2.001  0.2971  0.3026  0.8692
   94GLOH   H01 9496   5.306   0.934   2.097  0.7095  2.1995  0.5920
   95GLOH   H03 9497   6.428   2.073   2.151 -0.8469  0.9166 -2.8905
   95GLOH    O1 9498   6.348   2.093   2.203  0.5604 -0.1320 -0.2409
   95GLOH    C1 9499   6.235   2.123   2.130  0.7030  0.4379 -0.4848
   95GLOH   H02 9500   6.233   2.080   2.030  0.7958 -0.2069 -0.2135
   95GLOH   H08 9501   6.230   2.230   2.114  1.2898  0.2798 -1.7381
   95GLOH    C2 9502   6.114   2.083   2.212  0.7233  0.2718  0.4227
   95GLOH   H04 9503   6.099   2.149   2.298 -1.2834  0.3679  0.0280
   95GLOH    O2 9504   6.000   2.096   2.124  0.0350  0.0626  0.0852
   95GLOH   H05 9505   5.972   2.190   2.121 -1.8700 -0.5289 -2.2548
   95GLOH    C3 9506   6.120   1.937   2.268  0.0745 -0.0790  0.7928
   95GLOH   H06 9507   6.113   1.872   2.181 -0.5023  0.8678  0.1219
   95GLOH   H07 9508   6.028   1.928   2.325  0.0167 -1.3336  0.5301
   95GLOH    O3 9509   6.231   1.911   2.344 -0.0403  0.0499  0.1282
   95GLOH   H01 9510   6.302   1.964   2.303  0.5345  1.1592  2.4732
   96GLOH   H03 9511   1.547   0.957   2.296  0.1111 -0.6101 -0.3864
   96GLOH    O1 9512   1.629   1.006   2.276 -0.2606  0.0528 -0.3171
   96GLOH    C1 9513   1.735   0.975   2.364 -0.1874 -0.5919 -0.3952
   96GLOH   H02 9514   1.703   1.001   2.465  0.9441 -1.2032  0.1194
   96GLOH   H08 9515   1.828   1.025   2.337 -0.3802  1.1447  2.0181
   96GLOH    C2 9516   1.766   0.827   2.356  0.0410 -0.1083 -0.8718
   96GLOH   H04 9517   1.674   0.779   2.393  0.7760 -0.2682  0.8039
   96GLOH    O2 9518   1.792   0.781   2.219  0.0332  0.3762  0.5826
   96GLOH   H05 9519   1.848   0.702   2.224 -0.3570 -0.0960 -2.0149
   96GLOH    C3 9520   1.874   0.793   2.467 -0.0867 -0.0432  0.4201
   96GLOH   H06 9521   1.952   0.857   2.426  0.3751 -0.2580  0.9662
   96GLOH   H07 9522   1.908   0.689   2.464 -0.7505 -0.2418 -1.0305
   96GLOH    O3 9523   1.840   0.840   2.598 -0.5756 -0.3678  0.3394
   96GLOH   H01 9524   1.871   0.933   2.607  1.3858 -0.9301 -0.3868
   97GLOH   H03 9525   7.052   6.013   4.747  1.5081  0.8236  0.1709
   97GLOH    O1 9526   7.105   5.938   4.713 -0.1354 -0.0702 -0.4547
   97GLOH    C1 9527   7.101   5.960   4.569 -0.3782  0.3806 -0.4815
   97GLOH   H02 9528   7.025   6.036   4.550 -1.7776 -0.6978  0.6819
   97GLOH   H08 9529   7.075   5.866   4.521  1.7328 -0.1381 -0.6469
   97GLOH    C2 9530   7.233   6.014   4.509  0.3819 -0.3473 -0.3908
   97GLOH   H04 9531   7.312   5.937   4.513 -0.3238 -1.1441 -1.4137
   97GLOH    O2 9532   7.210   6.044   4.374  0.5161  0.1371  0.2933
   97GLOH   H05 9533   7.206   5.963   4.320  1.6489  0.2904 -0.0319
   97GLOH    C3 9534   7.290   6.129   4.594 -0.3535  0.3877 -0.7988
   97GLOH   H06 9535   7.221   6.213   4.592 -0.6249  0.2941  2.2602
   97GLOH   H07 9536   7.381   6.163   4.546  0.1744 -1.8112 -1.3864
   97GLOH    O3 9537   7.318   6.082   4.726  0.1179  0.2033 -0.0405
   97GLOH   H01 9538   7.296   5.988   4.712 -2.4975  1.1214 -2.6226
   98GLOH   H03 9539   4.718   0.102   9.487 -1.7399  0.1981  1.3605
   98GLOH    O1 9540   4.705   0.197   9.505  0.2927  0.7414  0.0629
   98GLOH    C1 9541   4.652   0.218   9.640 -0.4861 -0.3592  0.5993
   98GLOH   H02 9542   4.618   0.120   9.672 -1.9148  0.0375  0.3057
   98GLOH   H08 9543   4.563   0.280   9.638  0.1609  0.5469 -0.9059
   98GLOH    C2 9544   4.755   0.270   9.737 -0.0239 -0.7286 -0.2542
   98GLOH   H04 9545   4.693   0.315   9.817 -0.9409  0.9313 -1.8747
   98GLOH    O2 9546   4.828   0.168   9.800 -0.3162  0.7057 -0.4245
   98GLOH   H05 9547   4.788   0.080   9.791 -2.3192  1.6659 -0.9107
   98GLOH    C3 9548   4.843   0.379   9.670 -0.4129 -0.2335  0.9458
   98GLOH   H06 9549   4.901   0.325   9.596  0.5711  1.5314  0.4129
   98GLOH   H07 9550   4.908   0.418   9.748  0.3033 -0.3306  0.3983
   98GLOH    O3 9551   4.773   0.491   9.619  0.4370 -0.5543 -0.0460
   98GLOH   H01 9552   4.838   0.563   9.630  0.0824 -0.5841  2.3627
   99GLOH   H03 9553   4.564   9.447   0.439 -0.6696 -1.8680  0.3921
   99GLOH    O1 9554   4.517   9.451   0.354  0.3691 -0.5404 -0.1515
   99GLOH    C1 9555   4.489   9.314   0.316  0.1029 -0.6963  0.3537
   99GLOH   H02 9556   4.411   9.299   0.242  0.6990 -2.9190  0.1251
   99GLOH   H08 9557   4.452   9.254   0.399  0.0821 -0.6609  0.3687
   99GLOH    C2 9558   4.616   9.242   0.272  0.0532  0.3174 -0.3793
   99GLOH   H04 9559   4.693   9.273   0.344 -0.3219 -3.2283  1.6420
   99GLOH    O2 9560   4.602   9.098   0.282 -0.3363 -0.0606  0.0546
   99GLOH   H05 9561   4.542   9.067   0.212 -0.2940  1.1092 -0.5182
   99GLOH    C3 9562   4.685   9.285   0.136 -0.2881 -0.2277  0.3976
   99GLOH   H06 9563   4.786   9.243   0.135 -1.0230 -2.0248  0.0281
   99GLOH   H07 9564   4.702   9.392   0.142  1.5675 -0.4295 -0.6042
   99GLOH    O3 9565   4.620   9.244   0.022  0.0033 -0.1419  0.1100
   99GLOH   H01 9566   4.561   9.169   0.040  1.8105 -1.6669 -0.1909
  100GLOH   H03 9567   1.313   4.075   3.837  0.6255  0.1592  1.6298
  100GLOH    O1 9568   1.301   4.172   3.825  0.4884 -0.0692 -0.2079
  100GLOH    C1 9569   1.419   4.233   3.892 -0.6940 -0.9862 -0.1215
  100GLOH   H02 9570   1.429   4.332   3.848  1.6939 -0.8793  0.5967
  100GLOH   H08 9571   1.505   4.171   3.865 -0.6346 -0.3321 -1.4307
  100GLOH    C2 9572   1.400   4.246   4.048  0.0472 -0.1129 -0.1127
  100GLOH   H04 9573   1.374   4.150   4.094  0.4384  0.7953  2.0842
  100GLOH    O2 9574   1.523   4.295   4.110 -0.3518  0.1423  0.0841
  100GLOH   H05 9575   1.512   4.318   4.203  1.8808  2.2509 -0.1200
  100GLOH    C3 9576   1.283   4.350   4.086  0.1439 -0.0686  1.0210
  100GLOH   H06 9577   1.308   4.443   4.036  1.5350 -0.3083  1.2442
  100GLOH   H07 9578   1.277   4.377   4.191 -1.0859 -0.9210  1.1753
  100GLOH    O3 9579   1.163   4.295   4.031 -0.5849 -0.0246 -0.4537
  100GLOH   H01 9580   1.194   4.250   3.950  1.7969 -0.1400  0.4804
  101GLOH   H03 9581   4.339   8.711   4.486  2.8353  0.3373 -0.1035
  101GLOH    O1 9582   4.333   8.643   4.554  0.0180  0.7895  0.1571
  101GLOH    C1 9583   4.220   8.555   4.522  0.0124 -0.3297 -0.4452
  101GLOH   H02 9584   4.126   8.598   4.556  0.2406 -0.3867  0.2679
  101GLOH   H08 9585   4.235   8.458   4.570 -0.1918 -0.3359 -0.3925
  101GLOH    C2 9586   4.190   8.520   4.371 -0.0502  0.2014 -0.1318
  101GLOH   H04 9587   4.095   8.467   4.378 -0.3862  0.6321 -1.3073
  101GLOH    O2 9588   4.170   8.642   4.290 -0.2416 -0.4175 -0.6135
  101GLOH   H05 9589   4.202   8.639   4.198 -0.3805 -1.2802 -0.6358
  101GLOH    C3 9590   4.284   8.417   4.299  0.7863  0.3661  0.1176
  101GLOH   H06 9591   4.380   8.468   4.305  0.2738  1.1656  1.6744
  101GLOH   H07 9592   4.258   8.421   4.193  1.4489  2.8022  0.0166
  101GLOH    O3 9593   4.277   8.285   4.358 -0.7387  0.1040 -0.0557
  101GLOH   H01 9594   4.329   8.232   4.295 -0.0498  1.0032 -0.2698
  102GLOH   H03 9595   8.747   4.930  -0.069 -1.8802 -0.5342 -0.3595
  102GLOH    O1 9596   8.796   4.864  -0.018 -0.3881  0.2912 -0.6946
  102GLOH    C1 9597   8.796   4.888   0.126  0.4219 -0.0701  0.2652
  102GLOH   H02 9598   8.833   4.812   0.195 -0.1606 -1.1897 -0.6296
  102GLOH   H08 9599   8.691   4.890   0.157  0.4964  0.8359  0.4804
  102GLOH    C2 9600   8.853   5.028   0.164 -0.4116 -0.4241 -0.5122
  102GLOH   H04 9601   8.792   5.102   0.110 -0.2779 -1.6857 -2.4371
  102GLOH    O2 9602   8.848   5.053   0.308 -0.2830 -0.5372  0.3242
  102GLOH   H05 9603   8.892   5.135   0.334  0.3978 -0.5896 -0.6700
  102GLOH    C3 9604   8.998   5.054   0.111  0.4965  0.3529  0.2167
  102GLOH   H06 9605   9.015   5.162   0.113  0.9774  0.2722  1.5431
  102GLOH   H07 9606   9.005   5.019   0.008  3.3673  0.9921  0.1463
  102GLOH    O3 9607   9.095   4.981   0.189 -0.1846  0.1723  0.0199
  102GLOH   H01 9608   9.100   4.889   0.157 -0.0990 -0.1117  0.8369
  103GLOH   H03 9609   7.898   5.999   5.365  0.5647 -0.6224 -2.0530
  103GLOH    O1 9610   7.987   5.982   5.400  0.0023 -0.0190 -0.2777
  103GLOH    C1 9611   7.960   5.953   5.538 -0.4930  0.2736  0.2571
  103GLOH   H02 9612   7.919   5.854   5.556 -0.8388  0.8984  3.0681
  103GLOH   H08 9613   7.890   6.029   5.570 -1.1873  0.8391 -2.5152
  103GLOH    C2 9614   8.083   5.963   5.625  0.7910  0.0200 -0.0395
  103GLOH   H04 9615   8.108   6.070   5.628  0.2373  0.1209  1.0401
  103GLOH    O2 9616   8.044   5.933   5.758 -0.1767  0.7529 -0.7918
  103GLOH   H05 9617   7.949   5.933   5.775 -0.1596  1.0249 -0.6923
  103GLOH    C3 9618   8.198   5.886   5.564  0.3068  0.2921 -0.0077
  103GLOH   H06 9619   8.170   5.782   5.551  0.1083  0.6087 -2.1765
  103GLOH   H07 9620   8.284   5.884   5.632 -0.3376 -0.2314  0.7909
  103GLOH    O3 9621   8.233   5.941   5.437 -0.5138 -0.3234  0.4103
  103GLOH   H01 9622   8.150   5.978   5.403  1.4266  0.7903 -3.4312
  104GLOH   H03 9623   5.872   1.366   8.538  1.3964 -3.9092  0.4951
  104GLOH    O1 9624   5.891   1.407   8.624  0.7912 -0.8067 -0.7965
  104GLOH    C1 9625   5.891   1.318   8.736 -0.0646 -0.3131 -0.0829
  104GLOH   H02 9626   5.930   1.218   8.714 -1.8575 -0.8434 -0.9506
  104GLOH   H08 9627   5.786   1.307   8.761 -0.0804 -1.4062 -0.6119
  104GLOH    C2 9628   5.959   1.380   8.856  0.0763 -0.8905 -0.3271
  104GLOH   H04 9629   5.916   1.475   8.891 -0.3186 -1.1691 -0.0554
  104GLOH    O2 9630   5.955   1.284   8.960 -0.4514  0.9375 -0.1072
  104GLOH   H05 9631   6.017   1.320   9.026  0.8639 -0.9624 -0.2664
  104GLOH    C3 9632   6.106   1.409   8.831 -1.0028 -0.4043  0.5294
  104GLOH   H06 9633   6.112   1.482   8.750  0.7682  1.3210  2.1335
  104GLOH   H07 9634   6.155   1.318   8.797  3.4990  2.6878 -1.8132
  104GLOH    O3 9635   6.181   1.469   8.935  0.6325 -0.1236  0.6083
  104GLOH   H01 9636   6.275   1.445   8.931  0.6941 -0.0106  1.2987
  105GLOH   H03 9637  -0.107   2.192   1.121  0.8570  0.2846  0.3137
  105GLOH    O1 9638  -0.147   2.196   1.032  0.0016  0.0605  0.6882
  105GLOH    C1 9639  -0.075   2.293   0.950  0.7028  0.5866  0.1466
  105GLOH   H02 9640  -0.065   2.385   1.008  1.8140  1.4451 -1.3679
  105GLOH   H08 9641  -0.140   2.308   0.865  1.1206 -0.2609 -0.3351
  105GLOH    C2 9642   0.074   2.248   0.914 -0.1765 -0.0050 -0.3897
  105GLOH   H04 9643   0.125   2.204   1.001  0.2770 -0.8482 -1.0719
  105GLOH    O2 9644   0.075   2.143   0.814  0.1930  0.1807  0.1999
  105GLOH   H05 9645  -0.015   2.111   0.794  0.3574  0.1285 -0.4508
  105GLOH    C3 9646   0.146   2.371   0.869  0.6744  0.3193 -0.6543
  105GLOH   H06 9647   0.077   2.419   0.800 -1.0641 -1.3483 -0.1035
  105GLOH   H07 9648   0.236   2.340   0.815  0.9445 -0.2615  0.1220
  105GLOH    O3 9649   0.180   2.462   0.976 -0.0527  0.4233  0.1177
  105GLOH   H01 9650   0.109   2.528   0.987 -0.5428  0.5485 -3.3110
  106GLOH   H03 9651   8.002   3.884   8.491 -2.7945  0.3513  0.4562
  106GLOH    O1 9652   8.009   3.951   8.562 -0.4097  0.2077  0.3970
  106GLOH    C1 9653   8.027   3.881   8.685  0.5392  0.3125 -0.4454
  106GLOH   H02 9654   8.081   3.789   8.663  0.1083 -0.1537  0.4243
  106GLOH   H08 9655   7.935   3.856   8.737  1.0499 -1.0220 -0.1498
  106GLOH    C2 9656   8.098   3.971   8.783 -0.0670 -0.0545 -0.4923
  106GLOH   H04 9657   8.038   4.063   8.792  0.7673  0.5050 -0.5722
  106GLOH    O2 9658   8.118   3.900   8.907  0.7957  0.5039 -0.1060
  106GLOH   H05 9659   8.036   3.908   8.959 -0.3725  0.8250 -1.9278
  106GLOH    C3 9660   8.238   4.002   8.714 -0.0249 -0.1518  0.0357
  106GLOH   H06 9661   8.279   3.908   8.677  0.2722  1.3448 -3.6536
  106GLOH   H07 9662   8.319   4.043   8.774 -1.1545  0.1887  1.3265
  106GLOH    O3 9663   8.221   4.090   8.602  0.7405  0.1177  0.0674
  106GLOH   H01 9664   8.136   4.070   8.558  0.4441 -0.3665  0.8479
  107GLOH   H03 9665   0.198   1.378   7.798 -0.4027  0.7710 -0.6050
  107GLOH    O1 9666   0.276   1.387   7.857 -0.6523 -0.1811 -0.1140
  107GLOH    C1 9667   0.353   1.484   7.787  0.2002  0.0185 -0.4879
  107GLOH   H02 9668   0.394   1.439   7.696 -0.0986 -1.0823 -0.0875
  107GLOH   H08 9669   0.440   1.508   7.848 -0.4227 -0.9494  0.7964
  107GLOH    C2 9670   0.265   1.604   7.743  0.0648 -0.0954 -0.2675
  107GLOH   H04 9671   0.228   1.656   7.833 -1.4467 -1.4312 -0.0991
  107GLOH    O2 9672   0.349   1.702   7.677 -0.2036  0.2136 -0.1659
  107GLOH   H05 9673   0.310   1.788   7.656 -1.6579 -0.4682 -0.3450
  107GLOH    C3 9674   0.141   1.569   7.654 -0.6549 -0.3218 -0.0807
  107GLOH   H06 9675   0.169   1.547   7.550  1.2059  1.1909  0.0735
  107GLOH   H07 9676   0.080   1.658   7.641  0.1049 -0.3100 -4.2569
  107GLOH    O3 9677   0.062   1.469   7.716  0.1284 -0.1242  0.1530
  107GLOH   H01 9678   0.062   1.393   7.654 -2.0537 -0.3316  0.3475
  108GLOH   H03 9679   0.729   0.295   5.061 -1.2486  0.9658  1.9103
  108GLOH    O1 9680   0.819   0.272   5.089 -0.5056  0.6857 -0.6223
  108GLOH    C1 9681   0.838   0.134   5.046  0.3204  0.3577 -0.1806
  108GLOH   H02 9682   0.772   0.127   4.960 -2.2363  0.4536  1.7282
  108GLOH   H08 9683   0.800   0.080   5.132 -1.6075  1.4833 -0.2851
  108GLOH    C2 9684   0.977   0.084   5.007  0.6413  0.2454 -0.4743
  108GLOH   H04 9685   1.055   0.096   5.084 -0.2782  1.8968  0.2255
  108GLOH    O2 9686   0.953  -0.064   4.993  0.0065 -0.1685 -0.2480
  108GLOH   H05 9687   0.934  -0.112   5.075  1.0211 -0.8073 -0.3705
  108GLOH    C3 9688   1.029   0.151   4.885  0.2402 -0.0705 -0.0343
  108GLOH   H06 9689   0.981   0.113   4.794  0.1822  1.5461 -0.6916
  108GLOH   H07 9690   1.135   0.129   4.870  0.3465  0.4503 -0.0570
  108GLOH    O3 9691   1.020   0.293   4.897  0.1007  0.0698 -0.0352
  108GLOH   H01 9692   0.935   0.304   4.943  0.0795  0.3697 -0.1398
  109GLOH   H03 9693   5.067   1.021   0.947  1.0333  0.9235 -0.2885
  109GLOH    O1 9694   5.109   0.990   0.864  0.3044 -0.0806 -0.2893
  109GLOH    C1 9695   5.057   1.072   0.755 -0.3842 -0.2792 -0.8438
  109GLOH   H02 9696   4.948   1.084   0.761 -0.2879  0.0659  0.3313
  109GLOH   H08 9697   5.073   1.015   0.664 -2.1660 -1.1126 -0.6731
  109GLOH    C2 9698   5.133   1.210   0.753 -0.5190 -0.4806  0.5456
  109GLOH   H04 9699   5.241   1.195   0.741 -0.2624 -0.1552  2.3089
  109GLOH    O2 9700   5.074   1.292   0.651 -0.0020 -0.4319 -0.1420
  109GLOH   H05 9701   5.068   1.243   0.568  3.5586 -2.4578  0.6848
  109GLOH    C3 9702   5.110   1.270   0.889  0.4166 -0.2642  1.6792
  109GLOH   H06 9703   5.159   1.207   0.964  0.5476 -1.5489  0.5371
  109GLOH   H07 9704   5.002   1.257   0.905 -0.0430  0.9195 -0.3749
  109GLOH    O3 9705   5.153   1.403   0.913  0.3429  0.6995 -0.4059
  109GLOH   H01 9706   5.105   1.452   0.843  0.3396  2.4850  0.8216
  110GLOH   H03 9707   7.458   6.926   7.979  0.5028  0.2276  0.4310
  110GLOH    O1 9708   7.401   7.003   7.960 -0.1619 -0.3644 -0.0358
  110GLOH    C1 9709   7.484   7.114   8.001 -0.7289 -0.5975 -0.4544
  110GLOH   H02 9710   7.571   7.122   7.936 -1.2527  2.2303 -0.8672
  110GLOH   H08 9711   7.521   7.107   8.103 -0.9106  2.3074 -0.1509
  110GLOH    C2 9712   7.407   7.247   7.996 -0.0457  0.2534  0.4979
  110GLOH   H04 9713   7.308   7.226   8.039 -0.5713  2.4581  0.4348
  110GLOH    O2 9714   7.491   7.333   8.084 -0.0841 -0.0656  0.1997
  110GLOH   H05 9715   7.584   7.305   8.076  0.0360  1.0242 -3.0330
  110GLOH    C3 9716   7.401   7.306   7.855  0.4949  0.0905  0.0341
  110GLOH   H06 9717   7.400   7.224   7.783  1.2068 -0.5470  0.7424
  110GLOH   H07 9718   7.488   7.368   7.833 -1.2688  2.3788 -0.7454
  110GLOH    O3 9719   7.274   7.384   7.845 -0.4151 -0.7410 -0.0175
  110GLOH   H01 9720   7.285   7.448   7.917  0.5423 -1.8447  0.8513
  111GLOH   H03 9721   6.235   4.549   2.637 -0.3651 -1.5942 -0.9106
  111GLOH    O1 9722   6.158   4.597   2.600 -0.3103 -0.9735 -0.2316
  111GLOH    C1 9723   6.059   4.498   2.567  0.7664  0.0055 -0.5011
  111GLOH   H02 9724   6.051   4.481   2.460  0.1106 -1.5876 -0.2087
  111GLOH   H08 9725   5.961   4.532   2.601  0.5755 -0.2178 -0.8348
  111GLOH    C2 9726   6.084   4.362   2.638 -0.0741 -0.3867  0.0621
  111GLOH   H04 9727   6.082   4.372   2.747  0.3936  0.1664  0.0244
  111GLOH    O2 9728   5.977   4.278   2.591  0.3937 -0.6901 -0.0978
  111GLOH   H05 9729   5.913   4.331   2.542 -1.2293 -0.7525  1.8700
  111GLOH    C3 9730   6.217   4.305   2.584  0.3716 -0.1839 -0.0060
  111GLOH   H06 9731   6.195   4.285   2.479 -0.2208  1.6161 -0.2484
  111GLOH   H07 9732   6.235   4.211   2.636  0.7599 -0.2097 -0.1857
  111GLOH    O3 9733   6.327   4.399   2.581 -0.9915  0.5648  0.4643
  111GLOH   H01 9734   6.409   4.346   2.589 -0.2741  1.4830 -0.5906
  112GLOH   H03 9735   3.989   8.445   4.816  0.8926  2.0373  0.1935
  112GLOH    O1 9736   4.077   8.403   4.816 -0.0593 -0.0248  0.0617
  112GLOH    C1 9737   4.151   8.480   4.907 -0.5678 -0.0672 -0.0079
  112GLOH   H02 9738   4.173   8.576   4.860 -1.1987 -0.1448 -0.4597
  112GLOH   H08 9739   4.252   8.442   4.924 -0.1794  0.4058 -1.2268
  112GLOH    C2 9740   4.087   8.497   5.044  0.0682 -0.0605 -0.5922
  112GLOH   H04 9741   4.136   8.580   5.097 -1.0559  0.3149 -0.1444
  112GLOH    O2 9742   3.945   8.534   5.044  0.2865 -0.3775  0.7674
  112GLOH   H05 9743   3.918   8.566   4.956 -1.4772 -2.7876  0.3659
  112GLOH    C3 9744   4.112   8.366   5.125  0.1847  0.0919 -0.0575
  112GLOH   H06 9745   4.073   8.287   5.062  0.3340  0.3998 -0.5396
  112GLOH   H07 9746   4.060   8.355   5.220 -0.4759 -0.3988 -0.4795
  112GLOH    O3 9747   4.250   8.354   5.141  0.1411 -0.0423  0.0106
  112GLOH   H01 9748   4.266   8.276   5.198 -1.1787 -0.5551 -0.2936
  113GLOH   H03 9749   2.596   9.721   5.504 -1.7380 -1.8057  0.1380
  113GLOH    O1 9750   2.640   9.670   5.575 -0.2517 -0.0612  0.5184
  113GLOH    C1 9751   2.716   9.563   5.514 -0.0186 -0.2500 -0.6927
  113GLOH   H02 9752   2.786   9.605   5.442 -1.6662  0.0002 -2.1716
  113GLOH   H08 9753   2.663   9.497   5.446  1.7847 -1.3189 -1.0848
  113GLOH    C2 9754   2.793   9.493   5.627  0.1014  0.3100  0.5158
  113GLOH   H04 9755   2.717   9.464   5.702  0.2646 -0.8757  0.2277
  113GLOH    O2 9756   2.858   9.370   5.582  0.1636  0.5939  0.0062
  113GLOH   H05 9757   2.807   9.336   5.507  1.8771  1.6039 -1.6465
  113GLOH    C3 9758   2.893   9.583   5.698 -0.3430 -0.4525 -0.0831
  113GLOH   H06 9759   2.947   9.523   5.771 -1.7936 -1.1121  0.4638
  113GLOH   H07 9760   2.845   9.662   5.755  3.5003  1.2002  1.0770
  113GLOH    O3 9761   2.986   9.645   5.604 -0.1543 -0.0000 -0.0001
  113GLOH   H01 9762   3.075   9.631   5.641  0.5186 -1.6591 -2.1583
  114GLOH   H03 9763   9.280   1.942   0.016 -1.2791  1.0029 -2.5628
  114GLOH    O1 9764   9.347   1.885  -0.025  0.8227  0.5409  1.3130
  114GLOH    C1 9765   9.326   1.756   0.036 -0.1634 -0.4427 -0.1319
  114GLOH   H02 9766   9.417   1.696   0.037 -0.1997 -0.4968  1.8263
  114GLOH   H08 9767   9.250   1.701  -0.020 -2.0704  2.0372 -0.0653
  114GLOH    C2 9768   9.288   1.757   0.187  0.1386  0.1707 -0.7465
  114GLOH   H04 9769   9.376   1.787   0.245  0.3733 -1.3779 -0.2792
  114GLOH    O2 9770   9.186   1.859   0.212 -0.0529 -0.3003  0.3240
  114GLOH   H05 9771   9.106   1.822   0.171  1.4305 -3.6825  0.2657
  114GLOH    C3 9772   9.235   1.619   0.231 -0.5311  0.1913 -0.3722
  114GLOH   H06 9773   9.144   1.593   0.176 -1.0535 -0.3397  0.7446
  114GLOH   H07 9774   9.210   1.630   0.336  0.2093 -1.2051 -0.0429
  114GLOH    O3 9775   9.340   1.523   0.214  0.5957  0.6139 -0.1557
  114GLOH   H01 9776   9.299   1.445   0.257  1.0960  1.6699  2.3151
  115GLOH   H03 9777   4.533   5.580   0.794  0.0143  2.0361 -1.5803
  115GLOH    O1 9778   4.625   5.594   0.765  0.5418  0.2941 -0.7836
  115GLOH    C1 9779   4.645   5.559   0.626  0.0093  0.1960 -0.3929
  115GLOH   H02 9780   4.747   5.591   0.604 -0.4981  2.7265  0.7767
  115GLOH   H08 9781   4.576   5.616   0.563  0.6010 -0.6703 -1.8509
  115GLOH    C2 9782   4.640   5.406   0.609  0.3487  0.0538  0.6641
  115GLOH   H04 9783   4.539   5.375   0.639  0.7846 -1.1901  0.8773
  115GLOH    O2 9784   4.654   5.369   0.469  0.2990 -0.7543  0.0664
  115GLOH   H05 9785   4.727   5.423   0.433 -0.2780  0.1930  0.3170
  115GLOH    C3 9786   4.742   5.334   0.692  0.2716 -0.0397 -0.9577
  115GLOH   H06 9787   4.838   5.377   0.667  0.1809 -0.9476 -2.9667
  115GLOH   H07 9788   4.744   5.229   0.663  2.7099 -0.8299  1.8966
  115GLOH    O3 9789   4.718   5.339   0.831  0.7164  0.9949  0.0103
  115GLOH   H01 9790   4.628   5.370   0.848  0.3856  0.9309 -1.6052
  116GLOH   H03 9791   6.520   4.800   7.237 -0.8784  0.3140  0.1874
  116GLOH    O1 9792   6.478   4.818   7.151 -0.2449 -0.1612 -0.2279
  116GLOH    C1 9793   6.378   4.918   7.167 -0.2084 -0.0084  0.0548
  116GLOH   H02 9794   6.332   4.922   7.266 -0.9369  1.9407 -0.3360
  116GLOH   H08 9795   6.300   4.906   7.092 -2.1804  0.7311  1.9373
  116GLOH    C2 9796   6.427   5.064   7.150 -0.4240 -0.2900  0.7859
  116GLOH   H04 9797   6.451   5.078   7.044  1.5870 -3.1658  0.8092
  116GLOH    O2 9798   6.322   5.159   7.179  0.2906 -0.0362  0.5382
  116GLOH   H05 9799   6.361   5.247   7.167  0.1857  0.2166  1.8668
  116GLOH    C3 9800   6.557   5.109   7.227  0.4142 -0.5385 -0.6506
  116GLOH   H06 9801   6.595   5.206   7.197  0.6036  0.5121  2.8116
  116GLOH   H07 9802   6.635   5.047   7.184 -0.0115 -0.7226 -1.1651
  116GLOH    O3 9803   6.545   5.096   7.367 -0.2041 -0.1357 -0.3212
  116GLOH   H01 9804   6.461   5.136   7.399  0.5669  2.4368 -1.3532
  117GLOH   H03 9805   2.718   5.832   3.560  0.1841 -0.5801 -0.6175
  117GLOH    O1 9806   2.800   5.880   3.537 -0.0246  0.1926  0.2211
  117GLOH    C1 9807   2.864   5.943   3.652  0.3974  0.1803  0.3088
  117GLOH   H02 9808   2.881   5.860   3.720  0.6291 -0.6539 -0.7608
  117GLOH   H08 9809   2.799   6.016   3.700  2.5391  1.4112  1.3811
  117GLOH    C2 9810   3.008   5.999   3.629  0.2941 -0.2447 -0.3546
  117GLOH   H04 9811   2.993   6.080   3.556 -1.5699 -1.5493 -1.4874
  117GLOH    O2 9812   3.057   6.062   3.741 -0.2264  0.6583 -0.0677
  117GLOH   H05 9813   3.092   6.143   3.701 -0.5609 -0.1746 -2.0793
  117GLOH    C3 9814   3.099   5.895   3.567 -0.2189 -0.3321  0.0580
  117GLOH   H06 9815   3.194   5.946   3.550 -0.0326 -1.6950 -3.3593
  117GLOH   H07 9816   3.058   5.873   3.469  0.3762  0.8156 -0.4633
  117GLOH    O3 9817   3.118   5.777   3.646 -0.3117 -0.3539  0.1506
  117GLOH   H01 9818   3.211   5.747   3.642  0.0311  0.1067  3.2988
  118GLOH   H03 9819   5.721   5.952  10.194  1.3998 -0.4870  0.7707
  118GLOH    O1 9820   5.794   5.932  10.131  0.3630  0.1326 -0.6627
  118GLOH    C1 9821   5.736   5.843  10.033 -0.7351  0.1861 -0.2210
  118GLOH   H02 9822   5.715   5.743  10.071  0.7736  0.2085  0.6819
  118GLOH   H08 9823   5.802   5.829   9.948 -0.1155  0.9562  0.1289
  118GLOH    C2 9824   5.602   5.885   9.972 -0.4864 -0.0887 -0.4086
  118GLOH   H04 9825   5.561   5.796   9.923 -0.6209 -0.0934 -0.2868
  118GLOH    O2 9826   5.512   5.932  10.071  0.1628 -0.2218 -0.1058
  118GLOH   H05 9827   5.536   6.022  10.099 -3.6668  0.4520  1.2861
  118GLOH    C3 9828   5.627   5.987   9.861  0.3026 -0.3285 -1.3753
  118GLOH   H06 9829   5.641   6.090   9.896 -0.9627 -0.3079 -0.9075
  118GLOH   H07 9830   5.529   5.993   9.815 -0.7321 -0.1323  0.8198
  118GLOH    O3 9831   5.732   5.952   9.766 -0.4125 -0.1159 -0.3114
  118GLOH   H01 9832   5.738   5.859   9.739  1.5370 -0.2750  0.6089
  119GLOH   H03 9833   7.196   0.167   5.010 -0.6066  0.0895 -0.2918
  119GLOH    O1 9834   7.120   0.115   4.977 -0.7408 -0.1102  0.3269
  119GLOH    C1 9835   7.017   0.151   5.065  1.3705 -1.0113 -0.0039
  119GLOH   H02 9836   6.923   0.115   5.024 -0.9311  2.8153  1.6256
  119GLOH   H08 9837   7.003   0.259   5.065 -1.2833 -1.3311  1.0786
  119GLOH    C2 9838   7.020   0.102   5.212 -0.0993 -0.2637 -0.4764
  119GLOH   H04 9839   7.095   0.157   5.270 -1.3083 -1.2491  2.0810
  119GLOH    O2 9840   6.887   0.125   5.275  0.3057 -0.4993  0.2404
  119GLOH   H05 9841   6.886   0.070   5.356  1.5910  0.7382  1.1288
  119GLOH    C3 9842   7.067  -0.045   5.220  0.4623 -0.3405  0.6504
  119GLOH   H06 9843   7.164  -0.054   5.171  1.1504  0.9000  1.7414
  119GLOH   H07 9844   6.991  -0.107   5.173  0.9379 -0.9069  0.6239
  119GLOH    O3 9845   7.082  -0.086   5.362  0.4296  0.0547 -0.0021
  119GLOH   H01 9846   7.135  -0.027   5.420  0.6240 -2.5045  2.4990
  120GLOH   H03 9847   1.901   9.234   4.024 -2.3675 -1.3559  1.3445
  120GLOH    O1 9848   1.892   9.212   3.929  0.7881 -0.1349  0.7010
  120GLOH    C1 9849   1.768   9.140   3.921  0.0648  0.1986 -0.9179
  120GLOH   H02 9850   1.735   9.108   3.822 -1.6666 -0.3781 -0.1749
  120GLOH   H08 9851   1.682   9.196   3.958  1.4507  0.6641  1.6942
  120GLOH    C2 9852   1.763   9.020   4.013  0.0842  0.1129  0.5909
  120GLOH   H04 9853   1.824   8.942   3.965 -0.6657  0.4943 -1.0153
  120GLOH    O2 9854   1.834   9.049   4.139  0.1854  0.0860  0.4272
  120GLOH   H05 9855   1.784   9.099   4.205  1.1693  0.3352  0.9937
  120GLOH    C3 9856   1.617   8.975   4.042 -0.8791  0.3969  1.4924
  120GLOH   H06 9857   1.555   8.979   3.952 -0.5829  0.1566  1.2758
  120GLOH   H07 9858   1.566   9.049   4.104 -0.0351  0.9269  1.5709
  120GLOH    O3 9859   1.612   8.846   4.101 -0.5272 -0.2442  0.4651
  120GLOH   H01 9860   1.660   8.782   4.046 -2.3131 -1.4331  0.2293
  121ACOH    H4 9861   4.261   4.433   3.949 -0.9179 -2.1684  1.7815
  121ACOH    O2 9862   4.200   4.498   3.988 -0.0939 -0.2372 -0.0797
  121ACOH    C2 9863   4.171   4.461   4.115 -0.0573 -0.5519 -0.3603
  121ACOH    O1 9864   4.202   4.352   4.164 -0.2755 -0.1398 -0.4089
  121ACOH    C1 9865   4.108   4.569   4.193  0.3965  0.3295  0.5209
  121ACOH    H1 9866   4.027   4.613   4.135  0.3244 -0.8534 -0.2933
  121ACOH    H2 9867   4.182   4.645   4.220  0.3697  0.9286 -1.0749
  121ACOH    H3 9868   4.064   4.529   4.285  0.2996  1.3412  0.9178
  122ACOH    H4 9869   4.853   1.662   7.999 -1.1953 -0.5597  0.4877
  122ACOH    O2 9870   4.859   1.699   7.909  1.0884 -0.2985  0.7170
  122ACOH    C2 9871   4.884   1.609   7.814 -0.0139  0.3272  0.1532
  122ACOH    O1 9872   4.922   1.495   7.833  0.4769  0.0242 -0.0170
  122ACOH    C1 9873   4.887   1.663   7.676 -0.8568 -0.2736 -0.2469
  122ACOH    H1 9874   4.868   1.585   7.602  0.0176 -1.6203  0.9128
  122ACOH    H2 9875   4.987   1.703   7.659 -0.0767 -2.3064 -0.5591
  122ACOH    H3 9876   4.816   1.745   7.665  0.2547  0.6518 -0.5872
  123ACOH    H4 9877   9.031   1.128   7.479 -1.1606 -2.1474 -1.6908
  123ACOH    O2 9878   9.066   1.068   7.547 -0.4552 -0.5539 -0.6031
  123ACOH    C2 9879   8.961   1.021   7.620  0.1713  0.5900  0.6425
  123ACOH    O1 9880   8.842   1.017   7.581 -0.2440  0.0124  0.8827
  123ACOH    C1 9881   9.013   0.938   7.728  0.4973  0.5165 -0.0052
  123ACOH    H1 9882   8.963   0.966   7.821  2.0369  0.2349  0.9129
  123ACOH    H2 9883   9.121   0.951   7.732  0.4474  0.6483  0.8772
  123ACOH    H3 9884   9.006   0.833   7.699 -0.7478  0.8135 -0.8649
  124ACOH    H4 9885   5.046   4.191   5.318  0.1554  0.4067  0.3199
  124ACOH    O2 9886   5.132   4.153   5.341  0.0547  0.0301  0.0806
  124ACOH    C2 9887   5.107   4.054   5.431  0.6706 -0.5443  0.2882
  124ACOH    O1 9888   5.003   4.018   5.481 -0.2633 -0.0770 -0.7761
  124ACOH    C1 9889   5.229   3.977   5.458  0.5463  0.1826 -0.7726
  124ACOH    H1 9890   5.270   3.936   5.366 -0.2020 -1.0660 -0.5687
  124ACOH    H2 9891   5.206   3.901   5.533 -3.7162  0.3606 -1.7500
  124ACOH    H3 9892   5.311   4.038   5.495  1.4561 -2.3615  1.5366
  125ACOH    H4 9893   6.614   3.852   7.836 -0.0435 -1.0372 -0.6033
  125ACOH    O2 9894   6.593   3.880   7.745 -0.0395 -0.2085 -0.3530
  125ACOH    C2 9895   6.487   3.806   7.704  0.1307 -0.4259 -0.3968
  125ACOH    O1 9896   6.434   3.708   7.757  0.0923  0.3727 -0.0670
  125ACOH    C1 9897   6.450   3.843   7.564 -0.5669 -0.0132  1.3357
  125ACOH    H1 9898   6.474   3.948   7.552 -1.5656  0.4472  3.1579
  125ACOH    H2 9899   6.348   3.817   7.537 -0.9934  0.8086  2.1376
  125ACOH    H3 9900   6.521   3.786   7.505  0.2775  3.2320 -0.8832
  126ACOH    H4 9901   4.661   8.102   7.270 -0.6943 -0.3889 -0.4102
  126ACOH    O2 9902   4.672   8.017   7.316 -0.0986  0.1352  0.4397
  126ACOH    C2 9903   4.803   8.015   7.350  0.2659  0.7274 -0.0820
  126ACOH    O1 9904   4.891   8.058   7.274 -0.5233  0.4874  0.1869
  126ACOH    C1 9905   4.812   7.928   7.467 -0.1798  0.2171  0.3985
  126ACOH    H1 9906   4.813   7.825   7.432 -0.2229  0.0803  0.7921
  126ACOH    H2 9907   4.727   7.935   7.535 -0.7632  1.0487 -0.4050
  126ACOH    H3 9908   4.897   7.956   7.529 -0.6661  1.0779  0.6894
  127ACOH    H4 9909   6.127   9.103   1.292 -1.9423  0.4956 -1.0987
  127ACOH    O2 9910   6.177   9.084   1.211  0.4715 -0.6447  0.5670
  127ACOH    C2 9911   6.257   9.189   1.183  0.6432 -0.3432 -1.1589
  127ACOH    O1 9912   6.229   9.307   1.210 -0.3320  0.2481 -0.0253
  127ACOH    C1 9913   6.371   9.153   1.094  0.3417 -0.5366 -0.4549
  127ACOH    H1 9914   6.365   9.052   1.055  0.9588 -1.2280  1.1783
  127ACOH    H2 9915   6.461   9.170   1.153  0.4166  1.9081 -1.1992
  127ACOH    H3 9916   6.377   9.222   1.009  0.9135 -0.4293 -0.3348
  128ACOH    H4 9917   4.966   0.167   9.888  0.5474 -0.6438  0.0293
  128ACOH    O2 9918   5.049   0.188   9.936  0.3250  0.3389 -0.0001
  128ACOH    C2 9919   5.123   0.079   9.952 -0.4854 -0.4016 -0.1173
  128ACOH    O1 9920   5.116  -0.034   9.911 -0.3564  0.4720 -0.6246
  128ACOH    C1 9921   5.237   0.108  10.032 -0.4394 -0.1256  0.2028
  128ACOH    H1 9922   5.213   0.105  10.138 -0.0974  0.0946  0.2891
  128ACOH    H2 9923   5.263   0.211  10.006 -1.7259  0.2549  0.4106
  128ACOH    H3 9924   5.325   0.048  10.008 -0.7744 -1.1382  1.4373
  129ACOH    H4 9925   1.834   5.869   2.871  0.8919  0.1176  1.3255
  129ACOH    O2 9926   1.827   5.772   2.861 -0.4856  0.3619 -0.2019
  129ACOH    C2 9927   1.699   5.745   2.879  0.6516  0.5665  0.4922
  129ACOH    O1 9928   1.614   5.815   2.927 -0.0530 -0.9960  0.0696
  129ACOH    C1 9929   1.682   5.606   2.879  1.0304 -0.7444 -0.2594
  129ACOH    H1 9930   1.650   5.586   2.777 -1.0103  0.2317  0.1533
  129ACOH    H2 9931   1.596   5.580   2.942 -0.2085  1.3099 -1.0639
  129ACOH    H3 9932   1.775   5.555   2.905  1.2009 -0.9162 -1.2127
  130ACOH    H4 9933   5.773   7.156   4.671 -1.2354  0.1522 -0.7698
  130ACOH    O2 9934   5.807   7.067   4.692 -0.3036  0.6293 -0.2223
  130ACOH    C2 9935   5.858   7.012   4.578  0.0229 -0.5705 -1.2954
  130ACOH    O1 9936   5.839   7.062   4.468  0.3511 -0.5395  0.2315
  130ACOH    C1 9937   5.927   6.885   4.596  0.5877 -0.8461 -0.2425
  130ACOH    H1 9938   5.907   6.835   4.691 -0.7730  1.5323  0.7807
  130ACOH    H2 9939   6.034   6.898   4.585  0.4563  0.3637 -0.1423
  130ACOH    H3 9940   5.888   6.819   4.518 -0.1327 -3.3605  2.1833
  131ACOH    H4 9941   3.280   2.843   6.846  1.1937 -0.9812 -2.2029
  131ACOH    O2 9942   3.218   2.854   6.772 -0.7076  0.5696 -0.4425
  131ACOH    C2 9943   3.227   2.743   6.695  0.0836  0.1733  0.0264
  131ACOH    O1 9944   3.269   2.638   6.729  0.5962 -0.0812  0.3604
  131ACOH    C1 9945   3.129   2.749   6.583 -0.6280 -0.4315  0.6131
  131ACOH    H1 9946   3.062   2.664   6.572  0.6659 -1.1412 -2.3368
  131ACOH    H2 9947   3.186   2.754   6.490 -2.7841  0.5964 -0.6885
  131ACOH    H3 9948   3.071   2.840   6.599  2.0379  1.4535 -0.1553
  132ACOH    H4 9949   4.619   8.193  -0.007 -0.4730  0.3654  0.3220
  132ACOH    O2 9950   4.695   8.181   0.052 -0.5284 -0.4815  0.2269
  132ACOH    C2 9951   4.652   8.104   0.153 -0.5044  0.2144  0.5159
  132ACOH    O1 9952   4.543   8.051   0.161 -0.5941 -0.1862  0.3320
  132ACOH    C1 9953   4.761   8.061   0.242 -0.3665  0.4138 -0.4200
  132ACOH    H1 9954   4.833   8.014   0.175 -2.2074  0.4422 -2.4948
  132ACOH    H2 9955   4.722   7.994   0.318 -1.8325  1.3835 -0.2734
  132ACOH    H3 9956   4.806   8.145   0.295  2.6361 -1.4526  0.0244
  133ACOH    H4 9957   2.266   3.792   8.607 -2.3948 -0.8645 -3.4727
  133ACOH    O2 9958   2.336   3.831   8.552 -0.2662  0.0981 -0.1947
  133ACOH    C2 9959   2.302   3.955   8.536 -0.6545  0.4479 -0.0817
  133ACOH    O1 9960   2.197   4.007   8.572  0.4018 -0.2286  0.6767
  133ACOH    C1 9961   2.412   4.028   8.462  0.2411 -0.0420 -0.6389
  133ACOH    H1 9962   2.418   4.006   8.355  2.0783  1.5449 -0.8917
  133ACOH    H2 9963   2.515   4.009   8.493  0.9711  1.1297 -2.2552
  133ACOH    H3 9964   2.390   4.134   8.476 -2.7193 -1.0788  3.6113
  134ACOH    H4 9965   6.646   5.252   6.534  0.0497 -1.1708  1.0219
  134ACOH    O2 9966   6.563   5.213   6.502 -0.2733  0.0297  0.3574
  134ACOH    C2 9967   6.586   5.084   6.483  0.1944 -0.0561  0.3199
  134ACOH    O1 9968   6.678   5.020   6.535 -0.1563  0.5909 -0.2813
  134ACOH    C1 9969   6.460   5.031   6.422 -0.3138 -0.4260  0.3420
  134ACOH    H1 9970   6.376   5.056   6.487  0.6508  3.5436  0.1909
  134ACOH    H2 9971   6.467   4.922   6.421  0.7219 -0.3856  1.8982
  134ACOH    H3 9972   6.450   5.065   6.319  1.1662 -3.0748 -0.7309
  135ACOH    H4 9973   4.086   1.210   9.866  1.1758  0.3837  0.7469
  135ACOH    O2 9974   4.002   1.188   9.909  0.4926  0.6669 -0.4422
  135ACOH    C2 9975   3.928   1.108   9.825  0.0198 -0.0299  0.9887
  135ACOH    O1 9976   3.968   1.068   9.718  0.4600  0.3479 -0.1349
  135ACOH    C1 9977   3.788   1.098   9.871  0.1819  0.1639 -0.4729
  135ACOH    H1 9978   3.781   1.054   9.970 -2.2061  1.4896  0.0038
  135ACOH    H2 9979   3.734   1.045   9.793  0.3351 -0.3188 -0.2522
  135ACOH    H3 9980   3.756   1.202   9.880  0.2082  0.1433 -0.1321
  136ACOH    H4 9981   4.241   2.577   7.246  1.3926 -0.2698  1.2511
  136ACOH    O2 9982   4.254   2.485   7.217 -0.5568 -0.3625  0.6474
  136ACOH    C2 9983   4.383   2.462   7.183 -0.2892  0.2948 -0.5385
  136ACOH    O1 9984   4.459   2.544   7.134 -0.3162 -0.6683  0.0000
  136ACOH    C1 9985   4.406   2.318   7.165  0.5654  0.3934  0.2246
  136ACOH    H1 9986   4.455   2.301   7.069 -1.3185  0.0095 -0.6782
  136ACOH    H2 9987   4.316   2.258   7.164 -0.3705  1.7535 -1.6989
  136ACOH    H3 9988   4.467   2.276   7.245 -1.4204 -0.2392  1.4189
  137ACOH    H4 9989   4.107   2.082   0.191  0.3603 -0.1668  1.0147
  137ACOH    O2 9990   4.039   2.013   0.187  0.1897  0.0587 -0.0297
  137ACOH    C2 9991   4.104   1.899   0.192  0.4645 -0.0332  0.3266
  137ACOH    O1 9992   4.217   1.876   0.228  0.3980  0.1711  0.1366
  137ACOH    C1 9993   4.012   1.784   0.157  0.2998 -0.2341 -0.1367
  137ACOH    H1 9994   3.912   1.784   0.201 -0.6027 -2.0225 -2.0722
  137ACOH    H2 9995   4.064   1.689   0.167  3.3580  1.2439 -1.3853
  137ACOH    H3 9996   3.983   1.801   0.053  1.5078  2.9463 -0.0153
  138ACOH    H4 9997   0.095   2.038   1.967 -0.3202  2.0790 -1.7277
  138ACOH    O2 9998   0.134   1.995   1.889  0.3146  0.2291 -0.4409
  138ACOH    C2 9999   0.067   2.047   1.781  0.1824 -0.1421 -0.2892
  138ACOH    O110000  -0.038   2.112   1.797  0.8712  0.3260  0.0477
  138ACOH    C110001   0.128   2.026   1.647  0.0609  0.0731  0.1682
  138ACOH    H110002   0.177   1.928   1.646  1.0247  0.5567 -0.6444
  138ACOH    H210003   0.195   2.108   1.622  0.1895  1.0353  3.4647
  138ACOH    H310004   0.062   2.020   1.561  0.8687 -2.1900 -0.3501
  139ACOH    H410005   1.581   3.218   3.430 -1.0609  0.5315 -1.5359
  139ACOH    O210006   1.543   3.282   3.492  0.1643  0.1961 -0.4189
  139ACOH    C210007   1.579   3.253   3.619  0.2919 -0.5392  0.1720
  139ACOH    O110008   1.640   3.155   3.655 -0.3010  0.0174  0.4035
  139ACOH    C110009   1.520   3.343   3.723 -0.4640 -0.3793  0.9938
  139ACOH    H110010   1.475   3.289   3.805  1.8517 -0.9340  1.9433
  139ACOH    H210011   1.440   3.395   3.670 -0.1224 -0.2775  0.5670
  139ACOH    H310012   1.601   3.409   3.755  0.5765 -0.0549 -2.1203
  140ACOH    H410013   4.441   8.088   9.791 -0.7624 -1.2853  0.5770
  140ACOH    O210014   4.527   8.047   9.813 -0.1558 -0.2298  0.2229
  140ACOH    C210015   4.506   7.951   9.904  0.6202  0.3573 -0.2934
  140ACOH    O110016   4.402   7.892   9.927  0.0547 -0.0059 -0.2427
  140ACOH    C110017   4.640   7.898   9.943  0.4472 -0.1927 -0.4200
  140ACOH    H110018   4.708   7.983   9.942  1.0832 -0.6550  1.2924
  140ACOH    H210019   4.677   7.826   9.871  0.9076 -1.9244  1.4887
  140ACOH    H310020   4.641   7.855  10.043 -1.6083  1.6437  0.4477
  141ACOH    H410021   9.565   4.949   5.524  0.3050 -0.6096 -1.5604
  141ACOH    O210022   9.561   4.869   5.579 -0.4073  0.4961  0.0652
  141ACOH    C210023   9.483   4.785   5.507 -0.2208  0.4179 -0.3302
  141ACOH    O110024   9.404   4.815   5.418 -0.6617 -0.1671  0.4241
  141ACOH    C110025   9.465   4.656   5.579 -0.0382 -0.1624  0.0561
  141ACOH    H110026   9.377   4.598   5.553  0.4146 -1.0421  0.4850
  141ACOH    H210027   9.470   4.676   5.686 -1.9605  2.2395 -0.2533
  141ACOH    H310028   9.550   4.591   5.559  0.3226  0.7720 -1.5909
  142ACOH    H410029   0.411   9.248   6.223  2.8400  1.1206 -0.4877
  142ACOH    O210030   0.444   9.215   6.309  0.2104  0.2933  0.2356
  142ACOH    C210031   0.516   9.103   6.282  0.3898 -0.2356 -0.4553
  142ACOH    O110032   0.520   9.052   6.175 -0.4287  0.2482  0.1492
  142ACOH    C110033   0.583   9.041   6.399  0.0338 -0.0008 -0.1737
  142ACOH    H110034   0.521   8.953   6.418  1.0187 -1.2221 -2.3929
  142ACOH    H210035   0.587   9.104   6.488  0.8440  0.1946 -0.3521
  142ACOH    H310036   0.678   9.000   6.367  0.1027 -1.3087  1.6623
  143ACOH    H410037   2.626   9.252   9.150  1.7204 -0.8439 -2.6119
  143ACOH    O210038   2.693   9.203   9.200  0.0691 -0.4109  0.1083
  143ACOH    C210039   2.629   9.174   9.313 -0.3909  0.0186  0.0162
  143ACOH    O110040   2.511   9.191   9.342 -0.3701  0.1374 -0.4593
  143ACOH    C110041   2.714   9.122   9.420 -0.2534  0.2007 -0.3350
  143ACOH    H110042   2.675   9.035   9.474 -0.2413  1.1742  1.2972
  143ACOH    H210043   2.711   9.201   9.495 -1.0142  0.6523 -0.8437
  143ACOH    H310044   2.819   9.103   9.399  0.1423 -1.1934  2.5854
  144ACOH    H410045   2.359   4.069   9.912 -0.5583  0.0509 -0.3565
  144ACOH    O210046   2.396   4.151   9.876  0.3369 -0.2450 -0.1387
  144ACOH    C210047   2.424   4.228   9.983 -0.2814  0.3491 -0.0991
  144ACOH    O110048   2.407   4.201  10.101  0.2947 -0.4312  0.1174
  144ACOH    C110049   2.513   4.341   9.949  0.2594 -1.0017  0.2027
  144ACOH    H110050   2.537   4.400  10.037 -0.5883 -1.0953  0.5046
  144ACOH    H210051   2.449   4.410   9.894 -1.5783 -1.8942  1.1640
  144ACOH    H310052   2.596   4.307   9.887 -0.4754 -1.8034 -0.3725
  145ACOH    H410053   4.533   5.593   1.850  0.9093 -0.6869  3.6351
  145ACOH    O210054   4.478   5.670   1.869  0.1949 -0.1010 -0.3796
  145ACOH    C210055   4.511   5.773   1.790  0.5998 -0.9162 -0.6272
  145ACOH    O110056   4.542   5.766   1.672  0.2417 -0.3706  0.0641
  145ACOH    C110057   4.438   5.891   1.841  0.2528  0.0245 -0.6484
  145ACOH    H110058   4.359   5.916   1.771  0.0004  0.7952 -0.0866
  145ACOH    H210059   4.515   5.968   1.850  0.6154 -0.3755 -0.2536
  145ACOH    H310060   4.396   5.874   1.941 -1.7398  1.5077 -1.2027
  146ACOH    H410061   6.268   1.275   8.281 -0.4928 -0.4175 -1.3842
  146ACOH    O210062   6.234   1.365   8.294 -0.1062 -0.5256  0.4392
  146ACOH    C210063   6.229   1.397   8.430  0.0035  0.2295  0.2974
  146ACOH    O110064   6.233   1.320   8.522 -0.1288  0.0710 -0.1361
  146ACOH    C110065   6.183   1.536   8.453  0.4165 -0.0028  0.4099
  146ACOH    H110066   6.275   1.594   8.457  1.5617 -1.7922  0.6039
  146ACOH    H210067   6.119   1.534   8.541  0.2768  0.5556  0.3226
  146ACOH    H310068   6.122   1.565   8.367  2.7671  2.2667 -0.5692
  147ACOH    H410069   4.576   3.410   4.567  0.7376 -1.0865 -1.5603
  147ACOH    O210070   4.649   3.385   4.627 -0.0192 -0.2358 -0.2689
  147ACOH    C210071   4.730   3.490   4.651  0.4367 -0.4603  0.3734
  147ACOH    O110072   4.846   3.476   4.685 -0.0482  0.1321 -0.7660
  147ACOH    C110073   4.661   3.620   4.625  0.2034  0.2767  0.3560
  147ACOH    H110074   4.726   3.693   4.674  1.4183 -1.7120  1.8026
  147ACOH    H210075   4.570   3.610   4.685  0.7418  0.3137  1.1914
  147ACOH    H310076   4.649   3.629   4.518 -1.1419 -1.8147  0.3116
  148ACOH    H410077   6.463   6.403   1.982  2.0864  0.5571 -0.1570
  148ACOH    O210078   6.454   6.497   2.003 -0.2405  0.2809  0.2276
  148ACOH    C210079   6.527   6.568   1.918  0.0358 -0.1223  0.2817
  148ACOH    O110080   6.621   6.531   1.850  0.1827 -0.1309 -0.0964
  148ACOH    C110081   6.498   6.713   1.952 -0.8719 -0.0957  0.3908
  148ACOH    H110082   6.590   6.770   1.944  0.6812 -2.0176  3.7306
  148ACOH    H210083   6.473   6.716   2.058 -1.5912 -1.3728  0.2780
  148ACOH    H310084   6.416   6.748   1.889  0.5348  0.8533 -0.9489
  149ACOH    H410085   7.054   3.146   4.605  0.2423 -0.2521  0.2310
  149ACOH    O210086   7.071   3.241   4.615  0.2260 -0.2775  0.4977
  149ACOH    C210087   7.128   3.251   4.730  0.7548 -0.0160 -0.1613
  149ACOH    O110088   7.140   3.162   4.810  0.2344  0.7071  0.1810
  149ACOH    C110089   7.156   3.389   4.763  0.3449  0.2747 -0.0680
  149ACOH    H110090   7.062   3.443   4.768 -0.4425 -0.7806 -2.5977
  149ACOH    H210091   7.225   3.435   4.692 -0.5023  0.2152 -0.9330
  149ACOH    H310092   7.195   3.391   4.865  1.4166  1.5694 -0.4945
  150ACOH    H410093   4.821   7.022   0.029  0.0102 -2.2176  1.5910
  150ACOH    O210094   4.915   6.995   0.030  0.7222  0.1013  0.3514
  150ACOH    C210095   4.982   7.101   0.058 -0.4263  0.2008 -0.5429
  150ACOH    O110096   4.954   7.217   0.025  0.0809 -0.2815  0.2173
  150ACOH    C110097   5.119   7.054   0.109  0.5828 -0.2096 -0.4117
  150ACOH    H110098   5.158   6.985   0.034  1.5215 -0.4555  0.2833
  150ACOH    H210099   5.109   7.003   0.205 -1.9901 -1.4434 -1.3182
  150ACOH    H310100   5.183   7.142   0.116  0.2322  0.1806 -1.9015
  151ACOH    H410101   5.722   1.695   8.017  1.1176 -0.8016 -0.8979
  151ACOH    O210102   5.775   1.775   8.000  0.1332 -0.0111 -0.2731
  151ACOH    C210103   5.798   1.766   7.864 -0.6013 -0.1707  0.2000
  151ACOH    O110104   5.740   1.692   7.787 -0.0923 -0.0468 -0.0299
  151ACOH    C110105   5.890   1.869   7.812  0.4106 -0.3754 -0.2742
  151ACOH    H110106   5.880   1.870   7.703 -1.7794  0.4308 -0.0986
  151ACOH    H210107   5.987   1.836   7.846  0.0603 -0.7217  0.3846
  151ACOH    H310108   5.875   1.966   7.860  1.4148 -1.5579  2.4962
  152ACOH    H410109   9.575   0.250   3.938  0.8750  0.4072  2.2162
  152ACOH    O210110   9.656   0.294   3.907  0.2407  0.0282 -0.0498
  152ACOH    C210111   9.750   0.199   3.874  0.3119  0.0972  0.1411
  152ACOH    O110112   9.735   0.083   3.834  0.1878  0.3488 -0.5070
  152ACOH    C110113   9.880   0.267   3.839  0.2243  0.1718  0.1839
  152ACOH    H110114   9.862   0.346   3.767 -0.6169 -1.2677 -1.2222
  152ACOH    H210115   9.951   0.203   3.785  0.1451 -1.0530  1.4870
  152ACOH    H310116   9.935   0.305   3.926  2.9135 -1.4937 -0.7021
  153ACOH    H410117   4.000   5.260   2.147  1.0957  0.0147 -0.7362
  153ACOH    O210118   3.941   5.335   2.127  0.1110 -0.6291 -0.2685
  153ACOH    C210119   3.949   5.407   2.242  0.1889 -0.5403 -0.1562
  153ACOH    O110120   4.022   5.389   2.333  0.4222 -0.2591  0.1329
  153ACOH    C110121   3.875   5.535   2.230 -0.1088  0.0487  0.0879
  153ACOH    H110122   3.838   5.584   2.320 -0.4513  0.4819 -0.2807
  153ACOH    H210123   3.785   5.514   2.171 -0.8918 -1.1563  1.6731
  153ACOH    H310124   3.937   5.603   2.172  0.7009 -0.1931  0.6740
  154ACOH    H410125   5.244   4.979   6.023  0.6696 -2.6344  1.6708
  154ACOH    O210126   5.300   4.960   5.945  0.1780  0.7476  0.4356
  154ACOH    C210127   5.429   4.986   5.964 -0.1352 -0.2339 -1.2465
  154ACOH    O110128   5.471   5.026   6.072 -0.0627  0.0079  0.2288
  154ACOH    C110129   5.508   4.936   5.849  0.2879  0.2184  0.0154
  154ACOH    H110130   5.453   4.948   5.755  1.2721 -1.8287 -0.8445
  154ACOH    H210131   5.542   4.834   5.867 -0.1521 -0.2970 -1.9187
  154ACOH    H310132   5.595   5.000   5.832  0.6329  0.3260  2.1247
  155ACOH    H410133   7.458   7.771   8.902 -1.1889 -0.6838 -1.3281
  155ACOH    O210134   7.394   7.773   8.974 -0.5008  0.5044 -0.7370
  155ACOH    C210135   7.312   7.877   8.954 -0.3086 -0.0645 -0.3272
  155ACOH    O110136   7.297   7.915   8.838  0.8367  0.2654 -0.1208
  155ACOH    C110137   7.209   7.894   9.061 -0.5301  0.7083 -0.3435
  155ACOH    H110138   7.220   7.816   9.137  0.2994  0.1400 -1.0454
  155ACOH    H210139   7.105   7.911   9.032 -0.3549  0.4044 -1.1680
  155ACOH    H310140   7.237   7.981   9.121  0.9417 -1.1740  1.7641
  156ACOH    H410141   3.818   5.471   6.411 -1.0611  1.4009 -0.4407
  156ACOH    O210142   3.871   5.540   6.455 -0.0713  0.3813  0.0222
  156ACOH    C210143   3.862   5.651   6.377  0.9346 -0.2698 -0.3022
  156ACOH    O110144   3.782   5.667   6.285  0.3503  0.3043  0.4735
  156ACOH    C110145   3.951   5.754   6.426 -0.7178 -0.3908  0.3755
  156ACOH    H110146   3.928   5.844   6.368 -2.8799  0.0288  1.7902
  156ACOH    H210147   4.053   5.724   6.402 -0.2557  1.7597 -0.4442
  156ACOH    H310148   3.940   5.773   6.533 -0.6256 -1.4645  0.5818
  157ACOH    H410149   0.690   1.143   2.107  1.9347 -0.7305  2.6999
  157ACOH    O210150   0.637   1.062   2.115 -0.0564  0.2557  0.2211
  157ACOH    C210151   0.548   1.064   2.017  0.8153  0.1722  0.0548
  157ACOH    O110152   0.546   1.132   1.917  0.5211  0.3751  0.2468
  157ACOH    C110153   0.432   0.974   2.050  0.6876  0.3973  0.0694
  157ACOH    H110154   0.345   1.038   2.067  2.0572  2.0009  1.2936
  157ACOH    H210155   0.460   0.915   2.138  0.5567  1.8863  1.1419
  157ACOH    H310156   0.408   0.915   1.962 -1.0377  0.2493  0.6236
  158ACOH    H410157   5.026   8.781   8.859  0.9892  1.2873  0.7385
  158ACOH    O210158   4.998   8.776   8.952 -0.3503 -0.4158  0.2707
  158ACOH    C210159   5.087   8.842   9.025 -0.7209 -0.2841  0.4493
  158ACOH    O110160   5.184   8.906   8.986 -0.2300  0.0743  0.2964
  158ACOH    C110161   5.045   8.848   9.170  0.4171 -0.1776  0.2805
  158ACOH    H110162   4.947   8.897   9.175 -0.0493 -1.1120  0.5494
  158ACOH    H210163   5.126   8.884   9.233  0.9883 -0.0932 -0.4973
  158ACOH    H310164   5.033   8.741   9.190 -1.6323 -0.4246 -1.9993
  159ACOH    H410165   5.664   3.790   6.799  0.6810  0.5095  0.0912
  159ACOH    O210166   5.753   3.754   6.809  0.3948 -0.2682 -0.1449
  159ACOH    C210167   5.751   3.668   6.915  0.2823 -0.5445 -0.5196
  159ACOH    O110168   5.664   3.636   6.992  0.2464  0.1265  0.2934
  159ACOH    C110169   5.889   3.634   6.957 -0.0289  0.3243 -0.6963
  159ACOH    H110170   5.908   3.667   7.059 -2.2497 -1.4070  0.3125
  159ACOH    H210171   5.957   3.681   6.885 -1.3660 -0.2269 -2.3658
  159ACOH    H310172   5.903   3.526   6.960 -1.4398  0.1657  1.1924
  160ACOH    H410173   5.948   2.246   2.525  2.0206  0.3333 -1.7723
  160ACOH    O210174   5.882   2.213   2.461  0.2708  0.0388  0.1190
  160ACOH    C210175   5.769   2.280   2.484  0.5787 -0.2048 -0.1947
  160ACOH    O110176   5.734   2.357   2.574  0.4053  0.0406  0.3168
  160ACOH    C110177   5.666   2.249   2.384  0.7039 -0.3634  0.5829
  160ACOH    H110178   5.604   2.331   2.350  0.2924  0.2557  2.7311
  160ACOH    H210179   5.595   2.188   2.441  0.7615  0.0125  1.0619
  160ACOH    H310180   5.703   2.188   2.301 -0.5283 -1.4154  0.7829
  161ACOH    H410181   7.927   5.594   5.387  0.3911  1.0233 -1.1122
  161ACOH    O210182   8.018   5.601   5.419 -0.1271  0.2278  0.5893
  161ACOH    C210183   8.050   5.485   5.484  0.0654  0.2780  0.5905
  161ACOH    O110184   7.972   5.398   5.525 -0.1222 -0.1253  0.2861
  161ACOH    C110185   8.199   5.467   5.517  0.8114  0.0066  0.9957
  161ACOH    H110186   8.222   5.366   5.481  0.2160 -0.5774  2.2049
  161ACOH    H210187   8.231   5.495   5.618  2.0777  2.3667 -0.0368
  161ACOH    H310188   8.254   5.541   5.459 -0.6964 -0.0305 -0.4922
  162ACOH    H410189   4.321   3.781   3.210  1.7202 -0.0348 -0.6233
  162ACOH    O210190   4.342   3.870   3.243 -0.1888  0.1889  0.0213
  162ACOH    C210191   4.373   3.864   3.370 -0.4776 -0.0150 -0.4567
  162ACOH    O110192   4.382   3.767   3.438 -0.1298  0.0543 -0.4507
  162ACOH    C110193   4.383   4.001   3.428  0.4290  0.7653  0.4434
  162ACOH    H110194   4.286   4.026   3.470  0.3889 -0.2499  0.9479
  162ACOH    H210195   4.402   4.073   3.348  0.4317  0.9882  0.6436
  162ACOH    H310196   4.453   4.006   3.511 -2.1304 -0.9325  2.7455
  163ACOH    H410197   9.598   8.229   7.802  0.5662  4.3987  0.2707
  163ACOH    O210198   9.540   8.230   7.880 -0.4397  0.3558 -0.2986
  163ACOH    C210199   9.414   8.190   7.846  0.3142 -0.1095  0.0077
  163ACOH    O110200   9.372   8.147   7.742  0.2044 -0.7393 -0.4253
  163ACOH    C110201   9.325   8.187   7.964  0.9649  0.3022 -0.4674
  163ACOH    H110202   9.247   8.111   7.955  0.0521  1.2386 -0.6182
  163ACOH    H210203   9.279   8.284   7.982  0.5838 -0.1508  1.0451
  163ACOH    H310204   9.384   8.167   8.054 -0.1121 -1.1484 -0.0575
  164ACOH    H410205   5.383   2.413   2.167 -0.9636  0.0154 -1.1960
  164ACOH    O210206   5.396   2.508   2.152 -0.3079 -0.0190 -0.8645
  164ACOH    C210207   5.528   2.528   2.136 -0.4381  0.0530  0.1988
  164ACOH    O110208   5.622   2.454   2.110 -0.4137  0.1921  0.4197
  164ACOH    C110209   5.551   2.676   2.143 -0.1350  0.3009  1.0450
  164ACOH    H110210   5.606   2.702   2.234 -0.7816  1.1331  1.1992
  164ACOH    H210211   5.459   2.734   2.136  1.1093  2.4366  1.7123
  164ACOH    H310212   5.607   2.713   2.057  0.1781 -2.7566 -0.1215
  165ACOH    H410213   2.103   3.687   3.191  2.5654  1.2546  0.7820
  165ACOH    O210214   2.067   3.764   3.239  0.4513  0.4497  0.5248
  165ACOH    C210215   2.068   3.720   3.363  0.6718  0.2986 -0.2225
  165ACOH    O110216   2.131   3.621   3.397 -0.1105  0.2404 -0.6126
  165ACOH    C110217   1.973   3.791   3.450 -0.7206 -0.4234  0.0397
  165ACOH    H110218   1.988   3.897   3.431 -1.1098  0.2736  3.3024
  165ACOH    H210219   1.997   3.763   3.553  0.7022  1.9209  0.3973
  165ACOH    H310220   1.872   3.760   3.427 -1.0431  0.6962 -0.0805
  166ACOH    H410221   2.690   8.653   3.995 -1.8793  1.4165  0.4879
  166ACOH    O210222   2.633   8.627   3.921 -0.2066  0.3892 -0.4739
  166ACOH    C210223   2.532   8.721   3.923 -0.0396 -0.2033  1.1823
  166ACOH    O110224   2.504   8.798   4.017 -0.7696 -0.3650  0.3922
  166ACOH    C110225   2.439   8.707   3.810  0.1675  0.8677 -0.9874
  166ACOH    H110226   2.467   8.615   3.758  1.6517  0.5237  0.3871
  166ACOH    H210227   2.452   8.788   3.738  1.1110  2.8970  1.4080
  166ACOH    H310228   2.332   8.704   3.833  0.9900 -4.3667  2.9888
  167ACOH    H410229   4.461   0.808   6.965 -0.8437  0.8381 -1.6517
  167ACOH    O210230   4.520   0.877   6.999 -0.2509 -0.4489  0.0037
  167ACOH    C210231   4.568   0.844   7.123  0.0795 -0.4475 -0.3160
  167ACOH    O110232   4.510   0.773   7.205  0.0518  0.2067 -0.2435
  167ACOH    C110233   4.680   0.930   7.157 -1.0120 -0.4826  0.4757
  167ACOH    H110234   4.717   0.980   7.067 -0.9172  1.6847  1.7027
  167ACOH    H210235   4.759   0.865   7.195  0.2664  0.6404 -0.2123
  167ACOH    H310236   4.659   1.004   7.234  0.5036  1.1999 -0.6587
  168ACOH    H410237   6.515   4.762   7.011  1.9577  1.9203 -0.6483
  168ACOH    O210238   6.545   4.704   6.939 -0.0163 -0.0327  0.0452
  168ACOH    C210239   6.631   4.777   6.872  0.4377 -0.3414  0.7485
  168ACOH    O110240   6.688   4.880   6.907 -0.1806  0.0364 -0.0804
  168ACOH    C110241   6.662   4.714   6.738 -0.0049 -0.1773  0.1227
  168ACOH    H110242   6.765   4.678   6.743  0.4086  0.8259 -1.0365
  168ACOH    H210243   6.654   4.787   6.658 -1.4047 -0.8325 -0.3534
  168ACOH    H310244   6.603   4.624   6.722 -1.0918  0.6049 -0.2829
  169ACOH    H410245   7.314   5.539   9.542 -0.7830  0.5530  0.1711
  169ACOH    O210246   7.336   5.585   9.459  0.3249 -0.8224 -0.3268
  169ACOH    C210247   7.466   5.607   9.467  0.4027 -0.3564  0.9364
  169ACOH    O110248   7.555   5.531   9.505 -0.0846  0.2929 -0.7902
  169ACOH    C110249   7.514   5.721   9.378  0.4999  0.8360  0.1838
  169ACOH    H110250   7.607   5.767   9.413 -1.3620  3.5753  1.8078
  169ACOH    H210251   7.441   5.802   9.378 -2.0863 -1.3859 -1.8844
  169ACOH    H310252   7.524   5.694   9.274 -0.5546 -0.0447  0.3004
  170ACOH    H410253   4.721   7.532   9.869  1.7236  0.5632 -0.3864
  170ACOH    O210254   4.678   7.560   9.787  0.3951 -0.4261 -0.0361
  170ACOH    C210255   4.570   7.482   9.799  0.0340 -0.1944 -0.4555
  170ACOH    O110256   4.540   7.395   9.881 -0.2886 -0.1546  0.0762
  170ACOH    C110257   4.467   7.531   9.709 -0.0934 -0.0881  0.1471
  170ACOH    H110258   4.458   7.640   9.706 -1.3659 -0.2211 -2.2448
  170ACOH    H210259   4.368   7.491   9.728 -0.2857  0.2919 -0.0398
  170ACOH    H310260   4.500   7.505   9.608  1.6816 -0.7800  0.8880
  171ACOH    H410261   4.990   3.474   5.907 -0.5244 -0.9169 -0.9418
  171ACOH    O210262   5.060   3.437   5.963 -0.2642 -0.2395 -0.8207
  171ACOH    C210263   5.126   3.348   5.889 -0.0470  0.1961 -0.6239
  171ACOH    O110264   5.097   3.314   5.776 -0.2176 -0.5050 -0.4242
  171ACOH    C110265   5.242   3.289   5.964 -0.2489 -0.3192 -0.2992
  171ACOH    H110266   5.292   3.373   6.014 -2.8574  1.8812 -1.2297
  171ACOH    H210267   5.307   3.233   5.897  1.4347  0.7195  0.4257
  171ACOH    H310268   5.199   3.234   6.048 -0.6760  1.0336  0.3911
  172ACOH    H410269   5.434   3.387   7.551 -0.2380  0.8174  0.3597
  172ACOH    O210270   5.491   3.466   7.553  0.6699  0.1778  0.0979
  172ACOH    C210271   5.517   3.503   7.428  0.1970 -0.3417  1.3809
  172ACOH    O110272   5.458   3.461   7.335 -0.0221  0.0481 -0.5602
  172ACOH    C110273   5.638   3.585   7.416 -0.0422  0.5982 -0.2589
  172ACOH    H110274   5.679   3.591   7.315  0.2975  1.7573 -0.0591
  172ACOH    H210275   5.719   3.565   7.485 -0.1454 -0.8457 -0.5405
  172ACOH    H310276   5.612   3.689   7.434  1.0762  0.6177  1.3431
  173ACOH    H410277   5.401   2.636   7.382 -0.1880  1.4285  1.6952
  173ACOH    O210278   5.497   2.649   7.376 -0.1178  0.3148 -0.2605
  173ACOH    C210279   5.511   2.782   7.394  0.6350  0.2024 -0.0347
  173ACOH    O110280   5.455   2.852   7.476 -0.4510 -0.0408  0.1633
  173ACOH    C110281   5.645   2.813   7.339  0.4659 -0.8063  0.1987
  173ACOH    H110282   5.654   2.757   7.246 -2.8643 -0.5284 -0.3619
  173ACOH    H210283   5.724   2.781   7.406  1.2884  0.2193 -0.2569
  173ACOH    H310284   5.662   2.919   7.317 -1.4499 -0.6102 -0.4307
  174ACOH    H410285   1.584   0.521   1.369  1.1056  0.2667  0.6557
  174ACOH    O210286   1.611   0.530   1.276 -0.3180  0.1839  0.2138
  174ACOH    C210287   1.610   0.664   1.250  0.0880  0.2792 -0.3972
  174ACOH    O110288   1.606   0.751   1.334  0.2254 -0.0411 -0.4350
  174ACOH    C110289   1.642   0.697   1.109 -0.0659  0.0539 -0.0399
  174ACOH    H110290   1.658   0.600   1.062 -0.4018 -0.9034  1.7495
  174ACOH    H210291   1.734   0.755   1.109  0.1818 -0.3123  1.6792
  174ACOH    H310292   1.559   0.757   1.071  1.8145  1.8774 -1.3343
  175ACOH    H410293   8.228   9.629   0.272 -0.0376 -1.0402  0.5242
  175ACOH    O210294   8.134   9.638   0.292 -0.0752 -0.1014 -0.0124
  175ACOH    C210295   8.119   9.561   0.399  0.2118  0.4577 -0.6310
  175ACOH    O110296   8.206   9.513   0.468 -0.0690 -0.1087 -0.0864
  175ACOH    C110297   7.976   9.555   0.437 -0.2593 -0.1837  0.3511
  175ACOH    H110298   7.911   9.619   0.377  1.5468  0.5499 -0.8634
  175ACOH    H210299   7.966   9.590   0.540 -0.3245  0.5733  0.0885
  175ACOH    H310300   7.940   9.452   0.436  1.1326 -0.6850  0.6378
  176ACOH    H410301   3.738   4.581   6.914 -0.5276 -1.7226  0.8021
  176ACOH    O210302   3.701   4.569   6.825  0.0631  0.6040  0.2038
  176ACOH    C210303   3.683   4.687   6.759  0.2313  0.2586  0.4686
  176ACOH    O110304   3.747   4.789   6.795 -0.0708 -0.0638 -0.0433
  176ACOH    C110305   3.633   4.663   6.617 -0.0307 -0.5130 -0.1798
  176ACOH    H110306   3.719   4.652   6.550  0.7336  2.6743  0.2035
  176ACOH    H210307   3.582   4.745   6.566  1.2636 -0.5936 -1.6564
  176ACOH    H310308   3.574   4.572   6.610 -1.6084  0.3894  1.0476
  177ACOH    H410309   6.682   0.363   0.612  0.6263 -0.5599  0.7630
  177ACOH    O210310   6.754   0.330   0.555  0.1564 -0.3452  0.0417
  177ACOH    C210311   6.857   0.275   0.615  0.0084 -0.5772 -0.4872
  177ACOH    O110312   6.883   0.273   0.735 -0.2872 -0.0344  0.1757
  177ACOH    C110313   6.955   0.238   0.511  0.3323  0.3527 -0.5557
  177ACOH    H110314   7.024   0.158   0.539  0.7189  0.9238  0.1473
  177ACOH    H210315   7.012   0.328   0.493  1.0665 -0.1052 -0.5579
  177ACOH    H310316   6.904   0.198   0.424  0.9698 -1.6355 -0.0675
  178ACOH    H410317   3.088   4.487   3.145 -1.2078 -1.4652 -0.2766
  178ACOH    O210318   3.008   4.500   3.199 -0.7562 -0.1399  0.0769
  178ACOH    C210319   2.994   4.632   3.197 -0.7468  0.1552  0.0228
  178ACOH    O110320   3.057   4.717   3.129  0.0297 -0.2516 -0.3883
  178ACOH    C110321   2.876   4.663   3.287  0.5844  0.4996 -0.5102
  178ACOH    H110322   2.886   4.628   3.389  0.4127  2.0709  0.0655
  178ACOH    H210323   2.788   4.613   3.246 -0.7665  0.1541  2.6990
  178ACOH    H310324   2.862   4.771   3.289 -1.1340  0.2721  0.6338
  179ACOH    H410325   7.251   7.205   9.043 -2.1635 -1.5802  0.2413
  179ACOH    O210326   7.212   7.242   8.962  0.2729  0.4962 -0.0095
  179ACOH    C210327   7.241   7.164   8.854  0.1089 -0.0555  0.2148
  179ACOH    O110328   7.340   7.091   8.846  0.4915  0.2462 -0.1549
  179ACOH    C110329   7.141   7.190   8.749 -0.3954  0.0083  0.6478
  179ACOH    H110330   7.194   7.205   8.655 -0.5758 -0.2467  0.5066
  179ACOH    H210331   7.084   7.277   8.781 -0.8525  0.4582 -1.3107
  179ACOH    H310332   7.078   7.102   8.737 -0.7045  0.1460  1.2477
  180ACOH    H410333   5.212   5.667   0.799  2.8721  1.4024 -1.0429
  180ACOH    O210334   5.244   5.575   0.803 -0.5225  0.1964  0.0924
  180ACOH    C210335   5.166   5.502   0.723 -0.1361 -0.0734  0.4974
  180ACOH    O110336   5.076   5.541   0.659  0.3027  0.3346  0.0089
  180ACOH    C110337   5.192   5.357   0.727 -0.0061  0.5301  0.5859
  180ACOH    H110338   5.296   5.342   0.698 -0.1885 -1.7221  1.0039
  180ACOH    H210339   5.135   5.301   0.653  4.0087 -1.8289 -0.8895
  180ACOH    H310340   5.172   5.314   0.825  1.5588  0.8675  1.0664
  181ACOH    H410341   8.689   0.563   5.759  2.0355 -2.7015 -1.8976
  181ACOH    O210342   8.774   0.593   5.796 -0.0310  0.2059  0.7256
  181ACOH    C210343   8.833   0.484   5.836  0.1338 -0.0241  0.1196
  181ACOH    O110344   8.782   0.375   5.841  0.0693 -0.4474  0.0543
  181ACOH    C110345   8.977   0.498   5.879  0.2818  0.4121 -0.2922
  181ACOH    H110346   8.976   0.583   5.946  1.3992  0.2821 -0.0980
  181ACOH    H210347   9.032   0.508   5.785  0.1019  0.4740 -0.3881
  181ACOH    H310348   9.023   0.417   5.936  0.5076  1.1149  0.5266
  182ACOH    H410349   5.386   8.824   1.431 -0.1085 -0.0808 -0.3937
  182ACOH    O210350   5.478   8.800   1.411  0.1250  0.3704  0.1194
  182ACOH    C210351   5.513   8.716   1.506 -0.9059 -0.3846  0.1739
  182ACOH    O110352   5.472   8.721   1.622  0.0863  0.0990  0.5005
  182ACOH    C110353   5.635   8.644   1.467 -1.2521  0.3066  0.2432
  182ACOH    H110354   5.614   8.545   1.427 -2.2364  1.4598 -2.2360
  182ACOH    H210355   5.693   8.630   1.558 -1.6324 -1.8876  0.1742
  182ACOH    H310356   5.697   8.706   1.402 -0.5694 -1.4085 -0.7799
  183ACOH    H410357   3.942   6.608   6.764  2.6800  2.6162 -1.9074
  183ACOH    O210358   3.906   6.596   6.675 -0.1697  0.3023 -0.5516
  183ACOH    C210359   3.997   6.660   6.602  0.6749 -0.5526  0.2164
  183ACOH    O110360   4.101   6.709   6.639 -0.4461 -0.0236 -0.3606
  183ACOH    C110361   3.929   6.681   6.472 -0.2460  0.3501 -0.2085
  183ACOH    H110362   3.837   6.734   6.498 -1.0267 -1.1165  0.0617
  183ACOH    H210363   3.903   6.585   6.427  0.9757  0.2804 -0.7889
  183ACOH    H310364   3.988   6.744   6.405 -1.1251  0.6167 -0.7342
  184ACOH    H410365   7.560   1.655   2.147  1.4411  1.3138 -0.3923
  184ACOH    O210366   7.564   1.613   2.060  0.4443  0.2843  0.0513
  184ACOH    C210367   7.551   1.710   1.973 -0.4945 -0.6930  0.3892
  184ACOH    O110368   7.541   1.828   1.994  0.9150 -0.3847  0.7655
  184ACOH    C110369   7.550   1.651   1.839 -0.3568  0.0608 -0.6228
  184ACOH    H110370   7.485   1.564   1.830  0.9130 -1.0580  0.8639
  184ACOH    H210371   7.653   1.625   1.815 -1.0286 -1.1032 -2.2754
  184ACOH    H310372   7.525   1.728   1.766  1.8951 -0.2471 -1.7539
  185ACOH    H410373   5.953   7.703   7.454  0.5808  0.9237  1.2851
  185ACOH    O210374   5.917   7.627   7.503  0.3082  0.1137 -0.1480
  185ACOH    C210375   6.014   7.580   7.584 -0.8570 -0.5217  0.3764
  185ACOH    O110376   6.121   7.630   7.610  0.0706 -0.3641  0.2490
  185ACOH    C110377   5.984   7.445   7.635  0.2005  0.4504  0.0085
  185ACOH    H110378   5.887   7.401   7.611  0.6799 -1.7268  1.9378
  185ACOH    H210379   6.004   7.440   7.742  1.0189 -0.5849 -0.1882
  185ACOH    H310380   6.054   7.374   7.591  0.0415 -0.1213  0.6777
  186ACOH    H410381   6.938   9.279   1.147  0.3990 -1.7255 -0.0492
  186ACOH    O210382   7.028   9.292   1.111  0.1600  0.0571 -0.0295
  186ACOH    C210383   7.061   9.423   1.086  0.2340 -0.7656 -0.0181
  186ACOH    O110384   6.985   9.518   1.096  0.0401 -0.0334 -0.0443
  186ACOH    C110385   7.197   9.435   1.036  0.1554 -0.9787 -0.6753
  186ACOH    H110386   7.195   9.410   0.930 -0.4914 -2.7854 -0.2631
  186ACOH    H210387   7.260   9.365   1.091 -0.2327 -1.6042 -1.0237
  186ACOH    H310388   7.241   9.535   1.038 -0.9882 -0.4559 -0.6725
  187ACOH    H410389   3.928   1.538   2.198  0.8890  0.5608  0.2595
  187ACOH    O210390   3.906   1.492   2.281 -0.2734 -0.0505 -0.3979
  187ACOH    C210391   4.006   1.410   2.303  0.4365 -0.0073 -0.0334
  187ACOH    O110392   4.104   1.373   2.236 -0.1449 -0.2569 -0.3430
  187ACOH    C110393   3.980   1.354   2.433  0.0781 -0.1410  0.3365
  187ACOH    H110394   4.006   1.424   2.513  0.4418  0.8557 -0.6492
  187ACOH    H210395   4.060   1.281   2.447  2.7950  2.2724 -2.0532
  187ACOH    H310396   3.881   1.310   2.447 -0.4014  0.5931 -0.7090
  188ACOH    H410397   7.230   7.598   8.549  0.8582 -2.6050  0.8497
  188ACOH    O210398   7.166   7.618   8.619  0.0692 -0.5163 -0.4321
  188ACOH    C210399   7.199   7.542   8.721 -0.2999  0.2469 -0.8490
  188ACOH    O110400   7.300   7.472   8.723 -0.3864  0.0335  0.2213
  188ACOH    C110401   7.125   7.586   8.843  0.3337  0.3247  0.0010
  188ACOH    H110402   7.085   7.686   8.824 -0.8751 -0.1667 -0.0437
  188ACOH    H210403   7.190   7.595   8.930  1.5128  0.3454 -0.8675
  188ACOH    H310404   7.043   7.523   8.877  0.2002 -1.1277 -2.8560
  189ACOH    H410405   7.373   7.444   1.192  1.2156  3.1793 -0.8320
  189ACOH    O210406   7.279   7.467   1.188  0.2485 -0.3089  0.0104
  189ACOH    C210407   7.217   7.394   1.089 -0.3561  0.3587  0.2660
  189ACOH    O110408   7.266   7.310   1.017  0.4708 -1.5728 -0.4936
  189ACOH    C110409   7.073   7.430   1.083 -0.5961  0.2479 -0.3664
  189ACOH    H110410   7.015   7.339   1.099  0.8474 -0.4388  1.1343
  189ACOH    H210411   7.064   7.468   0.981  0.3711 -1.0946 -0.9777
  189ACOH    H310412   7.038   7.505   1.154 -0.6592 -0.2153  0.0932
  190ACOH    H410413   6.298   3.225   2.852 -1.0223 -0.6868  0.4692
  190ACOH    O210414   6.310   3.309   2.898  0.3512 -0.2340 -0.6545
  190ACOH    C210415   6.327   3.413   2.818  0.3680 -0.2459  0.3327
  190ACOH    O110416   6.322   3.408   2.694  0.9349 -0.3739 -0.2585
  190ACOH    C110417   6.379   3.529   2.892  0.2305  0.6204  0.5616
  190ACOH    H110418   6.429   3.586   2.814 -1.0513 -0.3900 -1.0334
  190ACOH    H210419   6.449   3.497   2.968 -1.3298  0.4329  1.9388
  190ACOH    H310420   6.298   3.589   2.934 -0.1062 -0.2105  1.1151
  191ACOH    H410421   5.478   6.504   9.206  1.5119 -0.6187 -0.2637
  191ACOH    O210422   5.524   6.588   9.223 -0.5604  0.5080  0.0429
  191ACOH    C210423   5.656   6.558   9.245 -0.0094 -0.0635  0.2301
  191ACOH    O110424   5.721   6.469   9.197 -0.0349  0.1513  0.0043
  191ACOH    C110425   5.721   6.659   9.336 -0.6231 -0.7838  0.7217
  191ACOH    H110426   5.793   6.712   9.274 -1.0756 -2.0410 -0.9128
  191ACOH    H210427   5.767   6.605   9.419 -1.5252 -1.7369  0.6145
  191ACOH    H310428   5.643   6.727   9.370  1.3222  2.4096 -0.9822
  192ACOH    H410429   8.666   1.961   6.905  1.5306 -0.3564  0.7315
  192ACOH    O210430   8.678   2.032   6.839 -0.0742 -0.5962  0.1633
  192ACOH    C210431   8.728   1.973   6.726 -0.7404 -0.0368  0.1585
  192ACOH    O110432   8.797   1.872   6.716  0.2502  0.1213  0.2827
  192ACOH    C110433   8.722   2.066   6.611  0.6460 -0.4277 -0.3499
  192ACOH    H110434   8.659   2.149   6.644  0.5356 -0.2356 -1.0300
  192ACOH    H210435   8.679   2.021   6.521 -0.1248 -0.3108 -0.0418
  192ACOH    H310436   8.819   2.114   6.598  1.0847 -1.0210  0.7166
  193ACOH    H410437   4.968   4.614   6.091  0.0232  0.9938  0.2462
  193ACOH    O210438   4.979   4.666   6.010 -0.0583 -0.2447 -0.5699
  193ACOH    C210439   5.111   4.652   5.970  0.9738 -0.5544 -1.2138
  193ACOH    O110440   5.197   4.610   6.043 -0.1220  0.1884  0.3983
  193ACOH    C110441   5.131   4.699   5.837  0.0910 -0.1498  0.0777
  193ACOH    H110442   5.235   4.714   5.808 -0.4645 -0.0181 -1.8734
  193ACOH    H210443   5.064   4.778   5.802  1.1834  1.2775  1.1644
  193ACOH    H310444   5.110   4.614   5.772  0.3816 -0.2531  0.1191
  194ACOH    H410445   5.548   9.423   9.046  0.9370 -2.7308 -0.8641
  194ACOH    O210446   5.570   9.394   9.135 -0.4745 -0.1082  0.4153
  194ACOH    C210447   5.593   9.260   9.127 -0.9713 -0.0601  0.6148
  194ACOH    O110448   5.596   9.193   9.024 -0.1424 -0.4296 -0.0838
  194ACOH    C110449   5.635   9.200   9.250 -0.0442 -0.1035 -0.0476
  194ACOH    H110450   5.736   9.235   9.271  0.9522 -2.5709 -0.5421
  194ACOH    H210451   5.642   9.092   9.242  3.6961  0.0288  0.5005
  194ACOH    H310452   5.568   9.233   9.329 -1.6202  3.7288 -2.8221
  195ACOH    H410453   3.606   1.227   5.379  0.9539  1.5388 -0.3685
  195ACOH    O210454   3.533   1.213   5.316  0.7542  0.1286  0.1622
  195ACOH    C210455   3.573   1.271   5.199  0.0022 -0.3308  0.0598
  195ACOH    O110456   3.681   1.321   5.164  0.2845  0.2017  0.2610
  195ACOH    C110457   3.453   1.254   5.112 -0.1415  0.6538 -0.0079
  195ACOH    H110458   3.445   1.146   5.103  0.9895  0.4440  1.3984
  195ACOH    H210459   3.462   1.307   5.017 -0.8629 -1.6138 -1.3953
  195ACOH    H310460   3.365   1.284   5.168 -0.2529  0.0051  0.1701
  196ACOH    H410461   4.188   3.749   5.911 -2.0968 -2.3225  0.5091
  196ACOH    O210462   4.186   3.748   5.814  0.2057 -0.2741  0.3685
  196ACOH    C210463   4.079   3.672   5.787 -0.2177  0.0450  0.0802
  196ACOH    O110464   3.986   3.660   5.865  0.1322  0.7209  1.2088
  196ACOH    C110465   4.071   3.651   5.641  0.0233  0.1210  0.1329
  196ACOH    H110466   3.981   3.599   5.608  0.4913  0.5291 -1.8598
  196ACOH    H210467   4.160   3.601   5.603 -1.8453 -2.9450 -0.3456
  196ACOH    H310468   4.064   3.750   5.595 -0.9415  0.2355  0.5103
  197ACOH    H410469   3.680   0.435   5.078 -0.3028  0.6044 -0.7147
  197ACOH    O210470   3.620   0.475   5.144 -0.2859  0.0220 -0.3400
  197ACOH    C210471   3.704   0.521   5.237  1.1896  0.7809 -0.1860
  197ACOH    O110472   3.822   0.507   5.244 -0.2669  0.2863  0.0179
  197ACOH    C110473   3.616   0.576   5.338  0.1601 -0.0764 -0.2533
  197ACOH    H110474   3.669   0.633   5.415 -0.3522  0.9899 -0.6695
  197ACOH    H210475   3.565   0.492   5.385  1.3316 -0.7479 -0.1872
  197ACOH    H310476   3.536   0.636   5.293  0.1983 -0.5930 -1.0158
  198ACOH    H410477   6.294   7.485   6.672  0.0043 -2.0093  0.3926
  198ACOH    O210478   6.264   7.494   6.764  0.0615 -0.3563  0.2705
  198ACOH    C210479   6.374   7.504   6.845 -0.5533 -0.0905  0.2344
  198ACOH    O110480   6.486   7.524   6.808 -0.3285 -0.2408 -0.7523
  198ACOH    C110481   6.334   7.504   6.989 -0.0657  0.0162  0.5342
  198ACOH    H110482   6.370   7.413   7.036 -1.5883 -0.0169  1.6620
  198ACOH    H210483   6.226   7.509   7.007 -0.1454  0.3071  0.0248
  198ACOH    H310484   6.384   7.584   7.043 -1.4354  1.1817  0.1258
  199ACOH    H410485   2.031   8.683   3.280 -0.9099 -0.0203  0.2969
  199ACOH    O210486   1.942   8.688   3.242 -0.4672 -0.0901 -0.7781
  199ACOH    C210487   1.933   8.791   3.155  0.3987  0.0131 -0.2884
  199ACOH    O110488   2.006   8.889   3.151  0.6909  0.0148  0.1783
  199ACOH    C110489   1.810   8.788   3.080  0.5178 -0.1028  0.0425
  199ACOH    H110490   1.824   8.699   3.019 -0.4522 -0.2246 -0.0207
  199ACOH    H210491   1.784   8.870   3.013  0.5090 -2.2604 -2.6601
  199ACOH    H310492   1.724   8.771   3.146  3.7175 -0.9363  4.1697
  200ACOH    H410493   5.386   7.334   6.231 -0.0315  0.2196 -0.2149
  200ACOH    O210494   5.442   7.269   6.278 -0.3901  0.4385  0.5216
  200ACOH    C210495   5.511   7.339   6.376 -0.0997  0.3408 -0.0917
  200ACOH    O110496   5.507   7.460   6.399  0.4145  0.1230  0.0079
  200ACOH    C110497   5.574   7.248   6.471 -0.4980 -0.5704 -0.2295
  200ACOH    H110498   5.513   7.161   6.495  0.3003 -0.9402  0.4693
  200ACOH    H210499   5.584   7.304   6.563 -2.7724 -0.5263  0.0048
  200ACOH    H310500   5.673   7.225   6.430 -0.5889  0.2845 -0.9463
  201ACOH    H410501   4.084   7.657   2.732 -0.1270  0.2693 -0.1393
  201ACOH    O210502   4.132   7.727   2.779 -0.0278  0.1176 -0.0131
  201ACOH    C210503   4.111   7.855   2.741  0.7640  0.2283  0.3711
  201ACOH    O110504   4.054   7.880   2.635 -0.0966 -0.4812 -0.4409
  201ACOH    C110505   4.158   7.959   2.833 -0.3736  0.0726  0.0049
  201ACOH    H110506   4.164   8.051   2.776  0.0972 -0.1488 -0.3076
  201ACOH    H210507   4.259   7.929   2.865 -0.1079 -0.1698 -1.0396
  201ACOH    H310508   4.097   7.978   2.921 -0.2561  1.8911 -0.2929
  202ACOH    H410509   7.824   2.002   7.023  0.4460  2.7736 -2.4111
  202ACOH    O210510   7.733   2.035   7.030 -0.5193 -0.0984 -0.6383
  202ACOH    C210511   7.732   2.110   7.143  0.0324  0.1827  0.4307
  202ACOH    O110512   7.805   2.098   7.240  0.6037 -0.0016 -0.2413
  202ACOH    C110513   7.599   2.170   7.169 -0.3203  0.4958 -0.0026
  202ACOH    H110514   7.554   2.207   7.077  0.8094 -0.3431 -0.9114
  202ACOH    H210515   7.607   2.256   7.237 -0.3761 -1.0464  2.0151
  202ACOH    H310516   7.538   2.098   7.224  0.2989  0.3810  0.5352
  203ACOH    H410517   5.770   1.554   2.145  0.0718  0.7130 -1.2743
  203ACOH    O210518   5.731   1.643   2.150 -0.1588  0.5579 -0.0818
  203ACOH    C210519   5.820   1.721   2.203  0.1247  0.0640 -0.3309
  203ACOH    O110520   5.934   1.693   2.223 -0.7359  0.2582 -0.0408
  203ACOH    C110521   5.753   1.850   2.230  0.8771 -0.2673 -0.1707
  203ACOH    H110522   5.737   1.899   2.135 -0.3017  1.3875  0.8652
  203ACOH    H210523   5.823   1.911   2.288 -0.2536 -0.0042  0.9346
  203ACOH    H310524   5.661   1.835   2.287  1.0001  0.1850  0.1454
  204ACOH    H410525   7.881   1.914   6.856 -1.0704  3.0126  1.1151
  204ACOH    O210526   7.828   1.936   6.777 -0.4349  0.5036 -0.0532
  204ACOH    C210527   7.886   1.884   6.666 -0.2387  0.3076  0.1596
  204ACOH    O110528   7.964   1.793   6.674 -0.0654 -0.3883 -0.0235
  204ACOH    C110529   7.823   1.916   6.537  0.4763  0.5003 -0.0569
  204ACOH    H110530   7.904   1.909   6.465 -0.0186 -2.1965 -0.4171
  204ACOH    H210531   7.781   2.016   6.542  1.3986  0.8393  1.2468
  204ACOH    H310532   7.755   1.836   6.506  1.5802 -0.6119  0.3610
  205ACOH    H410533   5.252   5.364   7.363 -0.2355  3.0682  0.0283
  205ACOH    O210534   5.225   5.375   7.270 -0.0353 -0.2751 -0.4698
  205ACOH    C210535   5.090   5.373   7.267  0.0377  0.2053  0.1375
  205ACOH    O110536   5.025   5.366   7.373 -0.6120 -0.1658  0.4414
  205ACOH    C110537   5.050   5.380   7.126  0.0386 -0.6406 -0.4141
  205ACOH    H110538   4.991   5.469   7.106 -2.2081 -2.3518 -1.5789
  205ACOH    H210539   4.984   5.294   7.117  0.0733 -0.9156  1.7666
  205ACOH    H310540   5.139   5.370   7.063  0.0229  0.6425 -0.6476
  206ACOH    H410541   3.069   1.583   1.052  0.0464 -1.4342  2.3793
  206ACOH    O210542   3.166   1.579   1.049  0.0508 -0.2549 -0.5095
  206ACOH    C210543   3.212   1.677   1.121 -0.5104  0.4423  0.4347
  206ACOH    O110544   3.156   1.748   1.207  0.9613  0.2179 -0.1439
  206ACOH    C110545   3.363   1.694   1.116 -0.1185 -0.5078  0.4747
  206ACOH    H110546   3.382   1.801   1.117 -2.2628 -0.0036 -2.9278
  206ACOH    H210547   3.403   1.644   1.027  1.6061 -0.2259  1.0886
  206ACOH    H310548   3.399   1.635   1.200 -1.8039 -2.9218 -0.4418
  207ACOH    H410549   1.830   2.915   1.908  1.9597 -0.3717  0.1806
  207ACOH    O210550   1.846   2.960   1.824  0.7107 -0.2676 -0.0187
  207ACOH    C210551   1.787   3.080   1.857 -0.1164 -1.1189  0.2165
  207ACOH    O110552   1.799   3.138   1.964 -0.4375  0.2486  0.0844
  207ACOH    C110553   1.726   3.144   1.741 -0.3001 -0.1823 -0.0194
  207ACOH    H110554   1.815   3.172   1.686  0.7013  0.1492  1.7141
  207ACOH    H210555   1.669   3.232   1.771 -2.2196 -1.4124  0.0006
  207ACOH    H310556   1.657   3.083   1.684 -0.1103  0.3087 -0.7713
  208ACOH    H410557   0.776   0.133   2.365 -1.2254  1.6899 -0.5009
  208ACOH    O210558   0.866   0.168   2.376 -0.6893  0.2331 -0.1480
  208ACOH    C210559   0.924   0.179   2.257 -0.0321  0.3998 -0.2036
  208ACOH    O110560   0.865   0.182   2.154 -0.3037  0.3145 -0.0153
  208ACOH    C110561   1.060   0.218   2.282  0.0907 -0.3316  0.2767
  208ACOH    H110562   1.072   0.325   2.265 -0.8090 -0.5469 -1.9101
  208ACOH    H210563   1.121   0.156   2.216  2.4451  1.2952  0.8406
  208ACOH    H310564   1.091   0.183   2.380 -1.5414 -1.3562  0.4420
  209ACOH    H410565   7.711   4.605   6.418 -0.0848  0.3230  0.1737
  209ACOH    O210566   7.677   4.639   6.334  0.6992 -0.0621 -0.3097
  209ACOH    C210567   7.784   4.686   6.266  0.0484  0.1088 -0.0305
  209ACOH    O110568   7.881   4.726   6.329 -0.1473 -0.0729  0.5594
  209ACOH    C110569   7.774   4.694   6.119  0.0360  0.0242 -0.5889
  209ACOH    H110570   7.864   4.731   6.069  0.0015  2.2371  0.9152
  209ACOH    H210571   7.692   4.760   6.094  0.0140 -0.3574 -1.5209
  209ACOH    H310572   7.751   4.592   6.090  0.9559 -0.1732 -0.6371
  210ACOH    H410573   4.299   0.441   2.010 -1.4126  3.1018 -0.9719
  210ACOH    O210574   4.385   0.464   1.971 -0.0569 -0.5204 -0.2803
  210ACOH    C210575   4.397   0.387   1.861  0.3427 -0.0450 -0.0168
  210ACOH    O110576   4.353   0.278   1.850  0.1516  0.3290  0.0579
  210ACOH    C110577   4.517   0.438   1.796  0.1258  0.1391 -0.1540
  210ACOH    H110578   4.570   0.353   1.752 -0.7055 -1.2175  1.4268
  210ACOH    H210579   4.584   0.494   1.861 -0.5588  1.5438 -0.6466
  210ACOH    H310580   4.482   0.509   1.721  1.0423  2.5646  1.6262
  211ACOH    H410581   6.982   9.310   4.222  0.7021  0.7820  1.3487
  211ACOH    O210582   7.004   9.389   4.170  0.5119 -0.1617 -0.1734
  211ACOH    C210583   6.989   9.490   4.255  0.2842 -0.4863  0.0309
  211ACOH    O110584   6.903   9.495   4.343 -0.0147  0.2352  0.4781
  211ACOH    C110585   7.084   9.598   4.230 -0.1928  0.1641  0.0984
  211ACOH    H110586   7.184   9.575   4.268 -0.2628 -0.8723 -0.3229
  211ACOH    H210587   7.048   9.693   4.270 -1.9383  1.4098 -4.1675
  211ACOH    H310588   7.090   9.603   4.121  1.3376 -0.1290  0.1573
  212ACOH    H410589   6.472   9.994   0.967 -0.7471  1.6042 -0.7032
  212ACOH    O210590   6.521   9.953   0.893 -0.2974  0.2206  0.3461
  212ACOH    C210591   6.648   9.984   0.926  0.9726  0.3177 -0.2887
  212ACOH    O110592   6.679  10.078   0.993 -0.1623  0.3508 -0.1683
  212ACOH    C110593   6.746   9.926   0.827  0.2996 -0.2043 -0.1108
  212ACOH    H110594   6.829   9.892   0.888  1.9059  0.7140 -1.7460
  212ACOH    H210595   6.785  10.012   0.773  0.0669  0.0211  0.0778
  212ACOH    H310596   6.693   9.853   0.765 -0.4276  1.3145 -1.2975
  213ACOH    H410597   0.286   5.207   5.067 -1.7560  0.5573  0.2473
  213ACOH    O210598   0.313   5.300   5.061  0.2300 -0.0078  0.0512
  213ACOH    C210599   0.399   5.331   5.161 -0.2160  0.1883 -0.5881
  213ACOH    O110600   0.432   5.248   5.240  0.2794  0.7994 -0.2136
  213ACOH    C110601   0.423   5.478   5.169  0.0572 -0.4728  0.3708
  213ACOH    H110602   0.530   5.485   5.184  0.1210 -2.1778  0.7581
  213ACOH    H210603   0.368   5.522   5.252  3.5479 -0.1457  2.6066
  213ACOH    H310604   0.394   5.525   5.075 -1.7581  2.4698  2.3139
  214ACOH    H410605   7.886   6.958   9.493 -0.7115 -1.0903  3.1805
  214ACOH    O210606   7.977   6.988   9.507 -0.5191  0.1052 -0.2638
  214ACOH    C210607   7.965   7.118   9.475  0.4192 -1.0148 -0.1615
  214ACOH    O110608   7.892   7.173   9.399 -0.6235  0.4890 -0.1396
  214ACOH    C110609   8.083   7.203   9.511 -0.4509  0.6697  0.1663
  214ACOH    H110610   8.119   7.243   9.417  1.7447 -1.4379  0.0764
  214ACOH    H210611   8.158   7.136   9.555  0.3243  1.6125  0.2930
  214ACOH    H310612   8.059   7.279   9.585  0.2186  1.7289 -0.6957
  215ACOH    H410613   7.213   3.782   7.545 -0.6091 -1.1257 -1.0788
  215ACOH    O210614   7.129   3.748   7.581 -0.3194 -0.8482 -0.1154
  215ACOH    C210615   7.042   3.847   7.574  0.0168 -0.7209  0.2154
  215ACOH    O110616   7.060   3.966   7.569 -0.8238 -0.1203 -0.4340
  215ACOH    C110617   6.906   3.789   7.555 -0.3326  0.2622 -0.1288
  215ACOH    H110618   6.866   3.820   7.458 -1.0051 -2.8332 -0.8880
  215ACOH    H210619   6.846   3.829   7.637  1.0108 -0.8744  1.4407
  215ACOH    H310620   6.898   3.681   7.561 -1.4807  0.4797  3.3716
  216ACOH    H410621   7.028   5.948   3.504 -0.3514 -0.9512 -0.6320
  216ACOH    O210622   6.986   5.881   3.561 -0.4185  0.2625  0.7699
  216ACOH    C210623   7.091   5.804   3.585 -0.3575 -0.6867 -0.5264
  216ACOH    O110624   7.209   5.831   3.567 -0.1429  0.2839  0.2385
  216ACOH    C110625   7.056   5.678   3.657 -0.3440  0.4179  0.2243
  216ACOH    H110626   7.106   5.670   3.754  2.5821 -3.7002 -1.4526
  216ACOH    H210627   7.090   5.594   3.597 -0.0171  0.1853  0.7250
  216ACOH    H310628   6.949   5.676   3.674 -0.2682 -2.1772  0.7180
  217ACOH    H410629   7.590   2.768   8.025 -2.0155 -0.2872 -1.4873
  217ACOH    O210630   7.641   2.822   7.964  0.6221 -0.1197  0.7631
  217ACOH    C210631   7.640   2.756   7.846  0.0761 -0.0094 -0.1006
  217ACOH    O110632   7.574   2.658   7.815  0.1205 -0.0144 -1.1818
  217ACOH    C110633   7.702   2.843   7.744 -0.4088  0.5578 -0.1204
  217ACOH    H110634   7.727   2.781   7.657 -0.2182  1.8103 -0.9652
  217ACOH    H210635   7.798   2.884   7.777  1.5286 -1.3357 -3.0437
  217ACOH    H310636   7.645   2.933   7.722  1.6142  1.6442 -1.1222
  218ACOH    H410637   0.781   6.649   9.155 -0.7789  1.1869 -3.5365
  218ACOH    O210638   0.816   6.736   9.181  0.6278 -0.3862  0.1078
  218ACOH    C210639   0.717   6.826   9.163  0.4111 -0.5472 -0.0152
  218ACOH    O110640   0.608   6.805   9.108 -0.0166 -0.0898 -0.4334
  218ACOH    C110641   0.757   6.958   9.213 -0.2571 -0.8106  0.3651
  218ACOH    H110642   0.855   6.947   9.261  0.6930 -2.2046 -1.7820
  218ACOH    H210643   0.679   6.995   9.279  0.8201  0.7436  0.7952
  218ACOH    H310644   0.768   7.024   9.127 -0.7357 -0.1542  0.8099
  219ACOH    H410645   0.452   1.286   5.462 -0.0747 -1.3342  0.2494
  219ACOH    O210646   0.535   1.250   5.427  0.3073 -0.1342 -0.1181
  219ACOH    C210647   0.560   1.148   5.510  0.6872  0.6081 -0.7582
  219ACOH    O110648   0.557   1.160   5.629  0.3210  0.5603  0.0836
  219ACOH    C110649   0.613   1.029   5.441  0.8102 -0.0097 -1.2227
  219ACOH    H110650   0.695   1.055   5.374 -0.9473  1.9128 -2.7153
  219ACOH    H210651   0.542   0.968   5.385 -0.7098 -0.0867  0.7632
  219ACOH    H310652   0.650   0.964   5.520 -0.9553  1.2252  0.6528
  220ACOH    H410653   4.829   1.610   1.415  0.1816  1.6970  0.2630
  220ACOH    O210654   4.808   1.583   1.506  0.1869  0.4513 -0.1007
  220ACOH    C210655   4.799   1.450   1.497 -0.1667 -0.5606 -0.8632
  220ACOH    O110656   4.855   1.384   1.409  0.1094  0.1494  0.2243
  220ACOH    C110657   4.737   1.373   1.608 -0.8163 -0.4240  0.1454
  220ACOH    H110658   4.658   1.427   1.660 -0.7781  0.0047 -0.2459
  220ACOH    H210659   4.820   1.346   1.673 -0.4208 -0.8455 -0.5396
  220ACOH    H310660   4.698   1.280   1.565 -0.4854 -0.5844  0.1895
  221ACOH    H410661   6.894   6.887   7.107  0.3889 -0.4364 -0.1892
  221ACOH    O210662   6.849   6.905   7.191 -0.0256  0.3421 -0.5713
  221ACOH    C210663   6.759   7.001   7.166 -0.0433 -1.0760  0.4321
  221ACOH    O110664   6.773   7.089   7.087  0.0104  0.2245 -0.2066
  221ACOH    C110665   6.673   7.038   7.277  0.3310  0.0272 -0.1693
  221ACOH    H110666   6.654   6.970   7.360  2.3980 -1.9101 -1.2093
  221ACOH    H210667   6.575   7.059   7.235 -0.0227 -2.8549 -0.8868
  221ACOH    H310668   6.710   7.132   7.319 -0.1887  1.1004 -2.0760
  222ACOH    H410669   5.032   0.491   4.737 -0.9617  1.3083  0.0083
  222ACOH    O210670   4.944   0.455   4.759 -0.2257 -0.2215  0.5026
  222ACOH    C210671   4.854   0.468   4.662  0.3499 -0.1384  0.2881
  222ACOH    O110672   4.822   0.564   4.599  0.1104 -0.6867 -0.4622
  222ACOH    C110673   4.761   0.353   4.667  0.9652  0.6640 -0.1547
  222ACOH    H110674   4.805   0.275   4.729 -1.1430  0.5418  1.2094
  222ACOH    H210675   4.743   0.319   4.566  0.4777 -1.9562  0.7893
  222ACOH    H310676   4.664   0.385   4.704  0.2576 -0.1186 -1.3218
  223ACOH    H410677   7.021   9.199   2.748  0.3519 -0.0524  1.1254
  223ACOH    O210678   6.995   9.271   2.808  0.1582  0.5383  0.3390
  223ACOH    C210679   7.097   9.356   2.819  0.1879 -0.0019 -0.0351
  223ACOH    O110680   7.207   9.346   2.767  0.3319  0.7744 -0.3923
  223ACOH    C110681   7.062   9.460   2.920 -0.4974 -0.3656 -0.2181
  223ACOH    H110682   6.979   9.510   2.871  0.1990  0.5048 -0.5123
  223ACOH    H210683   7.139   9.534   2.941 -1.2375 -0.2412  2.2089
  223ACOH    H310684   7.026   9.421   3.016  0.0606 -0.0158  0.1396
  224ACOH    H410685   5.226   6.151   1.873 -0.3741  1.7378 -0.6791
  224ACOH    O210686   5.298   6.201   1.830  1.2210  0.2742  0.1971
  224ACOH    C210687   5.375   6.267   1.921 -0.8218 -0.2439  0.6015
  224ACOH    O110688   5.325   6.323   2.019  0.4056  0.0472 -0.0458
  224ACOH    C110689   5.510   6.305   1.871 -0.4925  0.1297 -0.0237
  224ACOH    H110690   5.535   6.408   1.895 -1.1105  1.2259 -3.7244
  224ACOH    H210691   5.528   6.279   1.767  0.5153 -0.5365  0.3033
  224ACOH    H310692   5.574   6.238   1.929  0.5059  1.8006  0.8351
  225ACOH    H410693   6.081   2.752   3.443 -0.7281  0.1824  1.0866
  225ACOH    O210694   6.019   2.792   3.379  0.1457 -0.2205 -0.0341
  225ACOH    C210695   6.045   2.773   3.248 -0.0726  0.2388  0.1347
  225ACOH    O110696   6.138   2.708   3.217  0.7023 -0.1175  0.4310
  225ACOH    C110697   5.945   2.841   3.162 -0.3072 -0.0433  0.1102
  225ACOH    H110698   5.931   2.942   3.199 -0.7235  0.0395 -0.2771
  225ACOH    H210699   5.851   2.786   3.158  0.4808 -1.3983 -0.4162
  225ACOH    H310700   5.986   2.850   3.061  1.0237 -2.9663  0.3213
  226ACOH    H410701   6.395   6.484   9.460  0.5974  1.2264 -0.2795
  226ACOH    O210702   6.450   6.482   9.540 -0.1683  0.8384  0.2444
  226ACOH    C210703   6.578   6.493   9.511 -0.2443 -0.0375  0.4929
  226ACOH    O110704   6.625   6.523   9.403 -0.2646  0.2539 -0.0489
  226ACOH    C110705   6.651   6.484   9.637 -0.0198  1.0114 -0.8839
  226ACOH    H110706   6.620   6.563   9.705 -0.0601  0.8480 -0.7126
  226ACOH    H210707   6.759   6.473   9.629 -0.3516 -3.8223 -0.0574
  226ACOH    H310708   6.621   6.388   9.678 -1.2965  0.6551 -2.5773
  227ACOH    H410709   5.952   9.476   8.198  1.2851 -1.2584 -0.7325
  227ACOH    O210710   6.026   9.487   8.261  0.1813  0.1912  0.3304
  227ACOH    C210711   6.124   9.535   8.185 -0.0023 -0.1016 -0.3918
  227ACOH    O110712   6.113   9.576   8.070  0.0706  0.3253  0.3044
  227ACOH    C110713   6.253   9.518   8.256  0.2995 -0.6584 -0.7619
  227ACOH    H110714   6.279   9.412   8.256  1.1625 -0.4466 -0.5731
  227ACOH    H210715   6.245   9.557   8.358 -0.3479 -2.2923 -0.1581
  227ACOH    H310716   6.328   9.573   8.199 -0.5080 -0.8249 -2.0085
  228ACOH    H410717   7.739   3.278   7.380  0.1407  1.8186  1.2873
  228ACOH    O210718   7.811   3.298   7.319  0.1049 -0.5538  0.4167
  228ACOH    C210719   7.827   3.437   7.320  0.2365 -0.3050 -0.2719
  228ACOH    O110720   7.766   3.513   7.391  0.1037  0.0712  0.3798
  228ACOH    C110721   7.921   3.469   7.209 -0.7000 -0.9570  0.4818
  228ACOH    H110722   7.981   3.550   7.251 -2.4566 -0.1446  1.4800
  228ACOH    H210723   7.862   3.497   7.121  0.6486  0.2824 -0.0467
  228ACOH    H310724   7.980   3.380   7.189  2.0608  0.4082  2.2267
  229ACOH    H410725   5.533   3.699   2.576 -0.9331  0.4371 -0.0523
  229ACOH    O210726   5.530   3.694   2.673  0.4487  0.3073 -0.0086
  229ACOH    C210727   5.646   3.655   2.731  0.1060  0.1550  0.8289
  229ACOH    O110728   5.733   3.595   2.676 -0.4468  0.0167  0.0615
  229ACOH    C110729   5.645   3.662   2.877 -0.1144  0.2284  0.3210
  229ACOH    H110730   5.729   3.728   2.898  0.7935 -1.4106  1.9449
  229ACOH    H210731   5.665   3.562   2.915  0.8460  0.1249 -0.4307
  229ACOH    H310732   5.552   3.704   2.916 -0.2189 -1.2454  1.7197
  230ACOH    H410733   8.218   4.537   6.777  0.1097 -0.6064 -0.8140
  230ACOH    O210734   8.238   4.549   6.682  0.3012 -0.7240 -0.7880
  230ACOH    C210735   8.173   4.660   6.640  0.9254 -0.0202 -0.2130
  230ACOH    O110736   8.088   4.728   6.695  0.0809  0.0940  0.0629
  230ACOH    C110737   8.198   4.671   6.494  0.0431  0.1563 -0.2636
  230ACOH    H110738   8.176   4.577   6.443  0.8490 -1.0050  1.4892
  230ACOH    H210739   8.302   4.698   6.479  0.1415 -0.3606 -0.5165
  230ACOH    H310740   8.136   4.746   6.445  1.0870  1.4157  0.3081
  231ACOH    H410741   5.800   6.839   9.788  1.1011 -0.2989 -1.1179
  231ACOH    O210742   5.827   6.924   9.826 -0.3220 -0.5558  0.5497
  231ACOH    C210743   5.834   6.916   9.959  0.3850 -0.0888 -0.0032
  231ACOH    O110744   5.774   6.833  10.023 -0.0065  0.7423 -1.5501
  231ACOH    C110745   5.858   7.046  10.013  0.2762  0.0652  0.3929
  231ACOH    H110746   5.920   7.111   9.951 -1.2345  0.1492 -1.0670
  231ACOH    H210747   5.895   7.028  10.114  0.8877 -1.7132 -0.1206
  231ACOH    H310748   5.757   7.087  10.020 -0.6309 -1.5649 -2.3470
  232ACOH    H410749   5.044   6.407   8.190 -1.2091  2.1346 -1.9773
  232ACOH    O210750   5.118   6.406   8.127  0.0673 -0.3256 -0.5057
  232ACOH    C210751   5.078   6.444   8.007 -0.4148  0.1563  0.6149
  232ACOH    O110752   4.972   6.497   7.981  0.4185  0.2319  0.2227
  232ACOH    C110753   5.167   6.392   7.902 -0.3617 -0.9303  0.3287
  232ACOH    H110754   5.252   6.338   7.944 -0.0505 -1.5336 -1.0550
  232ACOH    H210755   5.205   6.479   7.847  0.0117 -0.4182  1.3706
  232ACOH    H310756   5.122   6.328   7.827  0.1565  0.7188 -1.4285
  233ACOH    H410757   3.354   3.145   6.661 -2.9473 -1.5769 -1.8575
  233ACOH    O210758   3.416   3.072   6.644 -0.0678  0.2424  0.2231
  233ACOH    C210759   3.371   3.027   6.520 -0.5138  0.1693 -0.2869
  233ACOH    O110760   3.281   3.074   6.454 -0.1685  0.2053  0.6814
  233ACOH    C110761   3.438   2.897   6.484 -0.0326 -0.4399 -0.0189
  233ACOH    H110762   3.529   2.910   6.425  0.4904 -2.2924  0.3481
  233ACOH    H210763   3.366   2.844   6.421 -1.9287  0.9775  0.9139
  233ACOH    H310764   3.453   2.833   6.571 -1.4745 -0.4627  0.2292
  234ACOH    H410765   4.297   6.955   1.627  1.5031 -0.2804 -0.6680
  234ACOH    O210766   4.307   6.951   1.723  0.1063 -0.3086 -0.5169
  234ACOH    C210767   4.367   6.827   1.752  0.7264 -0.0897  0.5993
  234ACOH    O110768   4.415   6.763   1.655  1.0348 -0.2669 -0.1988
  234ACOH    C110769   4.434   6.810   1.885  0.1513  0.3888  0.7007
  234ACOH    H110770   4.541   6.798   1.870  0.0759  0.8590 -0.3095
  234ACOH    H210771   4.397   6.712   1.915 -2.6869  0.5564 -1.9205
  234ACOH    H310772   4.417   6.892   1.956 -1.5880 -0.0670  0.8402
  235ACOH    H410773   4.984   6.846   9.427 -0.3122 -0.3069  0.6138
  235ACOH    O210774   4.966   6.925   9.481  0.1515 -0.0362  0.3818
  235ACOH    C210775   4.861   6.895   9.558  0.0402 -0.0398 -0.5209
  235ACOH    O110776   4.810   6.787   9.581  0.1355 -0.2339 -0.1589
  235ACOH    C110777   4.824   7.016   9.627 -0.1639  0.3473 -0.2957
  235ACOH    H110778   4.915   7.056   9.672 -0.5274  0.3379  0.4449
  235ACOH    H210779   4.753   7.016   9.709 -0.8131  0.9270 -0.8564
  235ACOH    H310780   4.805   7.094   9.553 -1.7172  1.0612  0.8316
  236ACOH    H410781   6.964   6.236   6.165  0.4146 -0.8604  1.1037
  236ACOH    O210782   6.914   6.174   6.109  0.1202  0.1943  0.1806
  236ACOH    C210783   6.964   6.049   6.126  0.2037 -0.7827 -0.2363
  236ACOH    O110784   7.062   6.025   6.195 -0.2506 -0.1265 -0.1833
  236ACOH    C110785   6.883   5.947   6.056  0.4908  0.0390  0.5403
  236ACOH    H110786   6.955   5.878   6.012 -0.4573  0.6342 -2.0598
  236ACOH    H210787   6.817   5.996   5.985 -0.8895 -1.7470  0.5565
  236ACOH    H310788   6.819   5.901   6.132 -0.6491 -0.4351 -0.6834
  237ACOH    H410789   6.617   0.880   0.397 -0.2875 -0.4270  1.2360
  237ACOH    O210790   6.540   0.841   0.353  0.3410 -0.0814 -0.1766
  237ACOH    C210791   6.477   0.775   0.449 -0.1596 -0.4435 -0.0975
  237ACOH    O110792   6.522   0.709   0.538 -0.2128  0.5530  0.3094
  237ACOH    C110793   6.334   0.775   0.436  0.8596  0.5550  0.1328
  237ACOH    H110794   6.278   0.797   0.526 -0.2716 -2.1710  0.1524
  237ACOH    H210795   6.316   0.669   0.415  0.2588  0.4339  1.2246
  237ACOH    H310796   6.295   0.840   0.359  0.1074 -0.6589 -0.5142
  238ACOH    H410797   0.943   8.707   6.196  1.1375  0.0604 -0.3321
  238ACOH    O210798   0.889   8.785   6.175  0.4563 -0.3483 -0.0763
  238ACOH    C210799   0.937   8.853   6.067 -0.2400  0.4097  0.3405
  238ACOH    O110800   1.042   8.831   6.011  0.0339  0.3747 -0.2792
  238ACOH    C110801   0.843   8.964   6.031 -0.1525  0.0477  0.1793
  238ACOH    H110802   0.898   9.058   6.043 -0.4248  0.3061 -0.6197
  238ACOH    H210803   0.750   8.964   6.087 -1.3954  2.2968 -1.8076
  238ACOH    H310804   0.817   8.950   5.926 -3.0158  1.2946  0.6730
  239ACOH    H410805   7.528   7.198   0.800  0.0513 -0.7520  1.1253
  239ACOH    O210806   7.553   7.108   0.774  0.4812 -0.3044 -0.0225
  239ACOH    C210807   7.603   7.121   0.650 -0.3679  0.3212 -0.7025
  239ACOH    O110808   7.610   7.228   0.597  0.3373 -0.3370  0.1965
  239ACOH    C110809   7.656   6.985   0.606 -0.5636  0.0921 -0.1937
  239ACOH    H110810   7.606   6.901   0.653  0.0353  0.0462  0.3716
  239ACOH    H210811   7.765   6.989   0.607 -0.5344 -0.6258 -0.2141
  239ACOH    H310812   7.638   6.964   0.500 -0.6620  0.8410 -0.3322
  240ACOH    H410813   8.806   2.574   8.732  1.2349  0.4787  0.7239
  240ACOH    O210814   8.841   2.484   8.748 -0.3459 -0.2276  0.3106
  240ACOH    C210815   8.752   2.423   8.824 -0.0565 -0.6480  0.2085
  240ACOH    O110816   8.671   2.476   8.897 -0.3374  0.4870  0.6450
  240ACOH    C110817   8.766   2.278   8.834  0.5137 -0.6001 -0.4058
  240ACOH    H110818   8.835   2.250   8.913  0.0449 -0.7279 -0.0383
  240ACOH    H210819   8.812   2.241   8.742  0.9866  0.2052 -0.4966
  240ACOH    H310820   8.669   2.234   8.859  0.5700 -0.2125  0.5299
  241ACOH    H410821   8.005   4.191   6.062 -0.6543  0.7326 -3.6000
  241ACOH    O210822   7.910   4.209   6.073 -0.3933  0.4952 -0.2171
  241ACOH    C210823   7.869   4.306   5.987 -0.2881 -0.0270 -0.4285
  241ACOH    O110824   7.949   4.391   5.946 -0.4869 -0.5178  0.2052
  241ACOH    C110825   7.735   4.290   5.939  1.0941 -0.7663 -0.3492
  241ACOH    H110826   7.682   4.384   5.952  0.0741 -1.1682 -1.5264
  241ACOH    H210827   7.690   4.199   5.979 -1.1899 -0.1996 -1.5991
  241ACOH    H310828   7.749   4.269   5.833 -0.7645  0.0037 -0.7599
  242ACOH    H410829   7.899   3.812   3.742 -0.7405  1.1587 -0.8568
  242ACOH    O210830   7.901   3.862   3.825 -0.0404 -0.7995  0.3451
  242ACOH    C210831   7.850   3.977   3.790  0.1633  0.4346  1.4404
  242ACOH    O110832   7.826   4.012   3.676  0.2131  0.3602 -0.2649
  242ACOH    C110833   7.831   4.071   3.902 -0.3857 -0.4411 -0.0770
  242ACOH    H110834   7.755   4.038   3.973  0.1504  0.5645  0.9796
  242ACOH    H210835   7.806   4.166   3.854 -1.0364 -1.0888 -1.0457
  242ACOH    H310836   7.925   4.081   3.956  1.2626 -2.8736 -2.3840
  243ACOH    H410837   6.367   7.165   2.476  0.2721 -0.6138  1.0754
  243ACOH    O210838   6.375   7.076   2.439 -0.2052 -0.3239  0.2655
  243ACOH    C210839   6.429   7.084   2.314 -0.9889 -0.2139 -0.3576
  243ACOH    O110840   6.461   7.177   2.249  0.0503  0.2949  0.3895
  243ACOH    C110841   6.436   6.948   2.265  0.3394 -0.3879  0.5133
  243ACOH    H110842   6.375   6.879   2.323 -0.3466 -1.5511 -1.5618
  243ACOH    H210843   6.539   6.912   2.261  0.8577  1.1811 -1.4717
  243ACOH    H310844   6.392   6.948   2.165 -0.8945 -1.8625  1.0300
  244ACOH    H410845   7.895   7.198   0.513  2.4862  0.3256  0.0576
  244ACOH    O210846   7.903   7.163   0.423  1.0463 -0.2509  0.1471
  244ACOH    C210847   7.906   7.270   0.343 -0.2076 -0.4044 -0.4433
  244ACOH    O110848   7.925   7.385   0.375 -0.4740 -0.0739  0.0991
  244ACOH    C110849   7.922   7.222   0.199  0.4338 -1.0089 -0.4582
  244ACOH    H110850   7.918   7.295   0.119 -0.7027 -0.3211  0.2135
  244ACOH    H210851   7.855   7.142   0.170  0.6975 -1.1630 -0.6458
  244ACOH    H310852   8.023   7.184   0.184  1.3662  0.4427  1.8339
  245ACOH    H410853   5.748   0.975   8.315  0.6763  0.8562 -0.7255
  245ACOH    O210854   5.798   0.919   8.253  0.2128 -0.2480 -0.1055
  245ACOH    C210855   5.724   0.905   8.145  0.1782  0.9820  0.8536
  245ACOH    O110856   5.629   0.976   8.112  0.4980  0.4961  0.5255
  245ACOH    C110857   5.779   0.799   8.058  1.4239 -1.0012 -0.2105
  245ACOH    H110858   5.731   0.806   7.961 -1.4129 -1.2266  1.1314
  245ACOH    H210859   5.740   0.703   8.091 -2.6356  0.2355 -1.1657
  245ACOH    H310860   5.888   0.803   8.050  1.5091 -0.3664  1.0699
  246ACOH    H410861   5.954   7.385   6.472 -1.2142  0.3347 -2.4783
  246ACOH    O210862   5.912   7.300   6.490  0.6556 -0.1032  0.0220
  246ACOH    C210863   5.953   7.215   6.391 -0.4016  0.0639  0.7142
  246ACOH    O110864   6.048   7.221   6.315 -0.4312  0.0304 -0.1849
  246ACOH    C110865   5.891   7.078   6.404 -0.2352  0.0466  0.3342
  246ACOH    H110866   5.969   7.026   6.460  1.4420  0.9882 -1.0488
  246ACOH    H210867   5.883   7.041   6.301 -1.2593  1.7333 -0.2005
  246ACOH    H310868   5.801   7.067   6.463 -0.1588 -0.1276  0.4176
  247ACOH    H410869   6.800   5.932   2.529 -1.6159 -0.3935 -0.5227
  247ACOH    O210870   6.771   5.931   2.622 -0.7378 -0.0828 -0.2416
  247ACOH    C210871   6.695   5.829   2.661 -0.2772  0.0422  0.0239
  247ACOH    O110872   6.641   5.755   2.584 -0.3752  0.1583  0.2261
  247ACOH    C110873   6.688   5.825   2.808  0.3694 -0.8181  0.0092
  247ACOH    H110874   6.630   5.912   2.841  0.6965 -0.4915 -0.2685
  247ACOH    H210875   6.789   5.827   2.848  0.0707 -1.1220  0.7806
  247ACOH    H310876   6.627   5.745   2.848 -1.2857  1.7483  2.8344
  248ACOH    H410877   7.473   5.608   4.464  0.4360  0.1536  0.8628
  248ACOH    O210878   7.444   5.525   4.504  0.0867 -0.0889  0.1086
  248ACOH    C210879   7.311   5.530   4.493 -0.2549  0.1887  0.6513
  248ACOH    O110880   7.249   5.622   4.446  0.2622 -0.4497  0.1434
  248ACOH    C110881   7.254   5.406   4.552 -0.1930  0.1715  0.6492
  248ACOH    H110882   7.303   5.379   4.646  2.8067 -0.8637 -1.1220
  248ACOH    H210883   7.273   5.320   4.487 -1.3827  1.5477 -1.5905
  248ACOH    H310884   7.146   5.408   4.566 -0.1997  3.2334  0.4094
  249ACOH    H410885   4.982   5.722   7.447 -1.1844  0.0147 -2.8565
  249ACOH    O210886   5.066   5.684   7.417 -0.3353 -0.3604 -0.1403
  249ACOH    C210887   5.130   5.638   7.521 -0.5937  0.2628 -0.0810
  249ACOH    O110888   5.108   5.653   7.641 -0.3030  0.1129 -1.2964
  249ACOH    C110889   5.270   5.615   7.471 -0.5732 -0.3342 -0.3544
  249ACOH    H110890   5.339   5.698   7.484 -0.1343 -0.7989  0.3048
  249ACOH    H210891   5.269   5.593   7.365 -0.2882 -0.0808 -0.4089
  249ACOH    H310892   5.312   5.528   7.522 -1.4154 -0.6708 -0.2144
  250ACOH    H410893   7.607   8.914   7.465 -1.2179  0.2190  1.7185
  250ACOH    O210894   7.646   9.002   7.453 -0.1270 -0.3545  0.9649
  250ACOH    C210895   7.781   8.990   7.447 -0.4106 -0.2951  0.4505
  250ACOH    O110896   7.840   8.895   7.486  0.5010 -0.0972 -0.0058
  250ACOH    C110897   7.837   9.120   7.410  0.1313  0.3926  0.0459
  250ACOH    H110898   7.795   9.148   7.313  0.9389 -2.3991 -1.1276
  250ACOH    H210899   7.945   9.126   7.409  0.3398 -2.0192  2.4024
  250ACOH    H310900   7.807   9.196   7.482  1.0452 -0.9190  1.8336
  251ACOH    H410901   4.327   8.502   9.017 -4.1260  1.1974 -1.5632
  251ACOH    O210902   4.378   8.549   8.949  0.0935  0.2894  0.7927
  251ACOH    C210903   4.441   8.651   9.012  0.3587 -0.3839 -0.6405
  251ACOH    O110904   4.431   8.670   9.132 -0.5225  0.0910 -0.4290
  251ACOH    C110905   4.554   8.691   8.927  0.5542 -0.4421 -0.2130
  251ACOH    H110906   4.606   8.775   8.974  1.9336  0.0267 -2.4951
  251ACOH    H210907   4.530   8.712   8.823  0.6337 -2.4439 -0.6538
  251ACOH    H310908   4.625   8.609   8.930  0.8265 -0.1742  2.3034
  252ACOH    H410909   7.108   5.779   4.735  2.4257  0.4421  1.7964
  252ACOH    O210910   7.121   5.685   4.758  0.1529 -0.3319  0.0506
  252ACOH    C210911   7.250   5.678   4.799  0.6970  0.5798  0.2834
  252ACOH    O110912   7.340   5.755   4.765 -0.1453  0.3233  0.1010
  252ACOH    C110913   7.263   5.559   4.885  0.5340  0.9017 -0.0541
  252ACOH    H110914   7.201   5.478   4.847  1.8571 -0.4470  0.6190
  252ACOH    H210915   7.228   5.573   4.987  0.8108  0.6533  0.0776
  252ACOH    H310916   7.366   5.525   4.890  0.5506  1.0878  1.0590
  253ACOH    H410917   7.805   2.227   5.745  2.0846  0.9201  0.3141
  253ACOH    O210918   7.736   2.294   5.760  0.6414 -0.3238 -0.6521
  253ACOH    C210919   7.691   2.285   5.890 -0.7470  0.4930  0.1838
  253ACOH    O110920   7.704   2.183   5.960 -0.3407  0.6210  0.2929
  253ACOH    C110921   7.588   2.395   5.910 -0.6414 -0.6867  0.1589
  253ACOH    H110922   7.499   2.365   5.855 -1.4604 -0.7988  1.5175
  253ACOH    H210923   7.635   2.482   5.864  2.5493 -3.0029 -1.1783
  253ACOH    H310924   7.572   2.414   6.016  1.0734  0.0574  0.3106
  254ACOH    H410925   8.553   7.134   1.802 -2.4236 -0.0523  1.4472
  254ACOH    O210926   8.483   7.103   1.742 -0.3586 -0.2903 -0.9208
  254ACOH    C210927   8.380   7.191   1.744 -0.0878  0.4894  0.3552
  254ACOH    O110928   8.381   7.310   1.733 -0.2815 -0.1814 -0.5422
  254ACOH    C110929   8.256   7.125   1.691 -0.5717 -0.4132  0.5421
  254ACOH    H110930   8.269   7.108   1.584 -1.2014  2.4260 -0.0293
  254ACOH    H210931   8.168   7.188   1.699 -0.8096 -0.4884 -1.2009
  254ACOH    H310932   8.247   7.027   1.738 -1.9071 -0.6139 -0.0862
  255ACOH    H410933   6.463   5.585   7.373 -1.1726 -2.3478 -1.4404
  255ACOH    O210934   6.373   5.617   7.385 -0.2577 -0.0028 -0.6353
  255ACOH    C210935   6.359   5.711   7.482 -0.4833  0.1991 -0.5547
  255ACOH    O110936   6.439   5.767   7.547 -0.1704 -0.1765 -0.1990
  255ACOH    C110937   6.216   5.751   7.493 -0.1249  0.2584  0.2803
  255ACOH    H110938   6.165   5.659   7.519 -1.2749  0.2937 -1.7525
  255ACOH    H210939   6.181   5.787   7.396  0.1653  0.2074  0.1542
  255ACOH    H310940   6.198   5.828   7.568 -1.7238  0.2653 -0.1002
  256ACOH    H410941   7.801   5.253   5.209  0.5238  0.2312 -0.2437
  256ACOH    O210942   7.779   5.275   5.117 -0.1352 -1.0270 -0.4003
  256ACOH    C210943   7.858   5.207   5.031 -0.5512 -0.0103  0.2903
  256ACOH    O110944   7.952   5.138   5.060 -0.5382 -0.7379  0.5960
  256ACOH    C110945   7.800   5.201   4.894 -0.3567  0.4016  0.0176
  256ACOH    H110946   7.873   5.182   4.815  1.6655 -1.2689  2.2078
  256ACOH    H210947   7.752   5.297   4.877 -0.0390  0.3980 -0.9173
  256ACOH    H310948   7.731   5.118   4.879 -0.2150  0.1170  0.8781
  257ACOH    H410949   7.022   1.382   3.587  1.3279 -0.2192  1.2992
  257ACOH    O210950   7.081   1.338   3.524 -0.3609 -0.0703 -0.4331
  257ACOH    C210951   7.017   1.228   3.479 -0.2113 -0.1478 -0.2488
  257ACOH    O110952   6.896   1.212   3.469 -0.2680 -0.1192  0.0563
  257ACOH    C110953   7.105   1.121   3.442  0.6013 -0.2020  0.0694
  257ACOH    H110954   7.060   1.045   3.378  0.8526  1.0008 -1.5783
  257ACOH    H210955   7.144   1.074   3.532  0.7590 -0.7383 -0.2770
  257ACOH    H310956   7.187   1.159   3.381 -0.2230  0.0288 -0.9202
  258ACOH    H410957   9.762   4.122   3.489 -0.1888 -1.8582  1.2522
  258ACOH    O210958   9.841   4.177   3.507 -0.5665 -0.6470 -0.6808
  258ACOH    C210959   9.875   4.230   3.389  0.1089  0.4896  0.0824
  258ACOH    O110960   9.843   4.171   3.284  0.2273  0.3790 -0.5610
  258ACOH    C110961   9.960   4.351   3.401 -0.2518  0.4728  0.4829
  258ACOH    H110962   9.903   4.424   3.344  1.2378  1.2879  0.0146
  258ACOH    H210963  10.049   4.333   3.342 -0.5098 -2.1052  0.8177
  258ACOH    H310964   9.980   4.391   3.501 -2.1958 -1.2762  1.6094
  259ACOH    H410965   1.964   8.072   0.407  0.8900  0.8063 -1.5182
  259ACOH    O210966   1.925   8.022   0.333 -0.6028 -0.5102  0.1030
  259ACOH    C210967   2.011   7.927   0.288  0.1833 -0.1196 -0.0393
  259ACOH    O110968   2.088   7.869   0.361  0.5170  0.0858  0.1777
  259ACOH    C110969   1.970   7.890   0.152  0.3155  0.1277  0.1995
  259ACOH    H110970   1.881   7.827   0.157  1.5154 -1.4811  1.6120
  259ACOH    H210971   2.049   7.839   0.097  0.1748 -0.9552  0.9888
  259ACOH    H310972   1.955   7.982   0.096 -0.6855 -0.3006 -0.2613
  260ACOH    H410973   0.464   3.231   3.839  0.6492 -0.1569  2.6931
  260ACOH    O210974   0.382   3.278   3.859  0.1900  0.1145  0.2106
  260ACOH    C210975   0.390   3.325   3.984  0.1187 -1.1281  0.6621
  260ACOH    O110976   0.486   3.326   4.060 -0.5040 -0.3258  0.3606
  260ACOH    C110977   0.258   3.378   4.024 -0.7511  0.0798 -0.1660
  260ACOH    H110978   0.265   3.409   4.128  0.3664  0.5171 -0.3688
  260ACOH    H210979   0.180   3.302   4.014  0.2262 -0.7924 -1.3409
  260ACOH    H310980   0.222   3.461   3.963 -1.8944  0.4036  0.9240
  261ACOH    H410981   4.568   4.927   4.561  0.8885 -0.2223  1.1559
  261ACOH    O210982   4.538   4.834   4.560 -0.2497  0.1361  0.4584
  261ACOH    C210983   4.573   4.768   4.668  0.0706 -0.0760 -0.7336
  261ACOH    O110984   4.662   4.801   4.748 -0.4463  0.0899 -0.1088
  261ACOH    C110985   4.516   4.631   4.678 -0.2593  0.9981  1.1709
  261ACOH    H110986   4.563   4.567   4.753 -3.2358 -0.7779  1.5744
  261ACOH    H210987   4.520   4.582   4.580 -1.0304 -0.1086  1.6745
  261ACOH    H310988   4.412   4.643   4.707 -1.4115 -0.3183 -2.1528
  262ACOH    H410989   7.104   0.612  -0.012  1.5520  0.9639 -0.9457
  262ACOH    O210990   7.125   0.525  -0.050 -0.0791  0.5798 -1.0394
  262ACOH    C210991   7.145   0.447   0.060 -0.7849 -0.0997  0.4565
  262ACOH    O110992   7.127   0.486   0.177 -0.0218 -0.7293 -0.3906
  262ACOH    C110993   7.165   0.307   0.031  0.6202 -0.1192 -0.4099
  262ACOH    H110994   7.213   0.297  -0.066  1.9592  0.6893  0.1444
  262ACOH    H210995   7.070   0.254   0.037  1.3492 -1.4636 -0.3745
  262ACOH    H310996   7.231   0.251   0.098 -1.0775 -3.0259 -1.1004
  263ACOH    H410997   6.983   6.583   4.170  1.2342 -0.9486  0.8262
  263ACOH    O210998   6.905   6.571   4.227  0.4805 -0.1613 -0.0209
  263ACOH    C210999   6.946   6.534   4.349  0.5247 -0.0404  0.3830
  263ACOH    O111000   7.044   6.469   4.376  0.1167  0.0567  0.4584
  263ACOH    C111001   6.836   6.564   4.440 -0.0345 -0.2478  0.0302
  263ACOH    H111002   6.801   6.469   4.482  0.7657 -0.5612  0.0019
  263ACOH    H211003   6.753   6.613   4.389 -1.3315 -1.9606  0.4334
  263ACOH    H311004   6.872   6.626   4.522 -1.7881 -0.2586  0.8268
  264ACOH    H411005   2.143   5.526   4.326 -1.1917 -1.3078 -0.8034
  264ACOH    O211006   2.160   5.539   4.231  0.0803  0.0921 -0.3896
  264ACOH    C211007   2.048   5.521   4.163  0.6743  0.5203  0.0198
  264ACOH    O111008   1.939   5.498   4.214  0.2552 -0.8462 -0.2041
  264ACOH    C111009   2.074   5.527   4.021 -0.9216 -0.1786  0.2737
  264ACOH    H111010   1.989   5.528   3.952 -1.3615  1.6936  0.8088
  264ACOH    H211011   2.142   5.447   3.990 -0.2755  0.3293  0.3642
  264ACOH    H311012   2.133   5.617   4.003 -2.6116  1.0668  0.8989
  265ACOH    H411013   6.231   1.957  -0.080  0.1103 -0.6184 -1.0492
  265ACOH    O211014   6.175   1.880  -0.057 -0.1884 -0.0064  0.3408
  265ACOH    C211015   6.178   1.870   0.078 -1.2876  0.6571 -0.1121
  265ACOH    O111016   6.257   1.922   0.154  0.2707  0.3218  0.2137
  265ACOH    C111017   6.074   1.774   0.128  0.2688 -0.7406  0.5190
  265ACOH    H111018   6.136   1.689   0.155  0.7089  0.0134  1.9220
  265ACOH    H211019   5.997   1.745   0.056  0.4825 -1.1139  0.4396
  265ACOH    H311020   6.036   1.810   0.223  0.0375 -0.3533  0.2830
  266ACOH    H411021   5.664   7.994   2.160  0.4202 -0.1892  1.5448
  266ACOH    O211022   5.709   7.909   2.146  0.2844 -0.1644  0.9407
  266ACOH    C211023   5.816   7.919   2.070 -0.6139  0.3218 -0.1452
  266ACOH    O111024   5.877   8.027   2.062  0.5101  0.3448  0.0454
  266ACOH    C111025   5.864   7.789   2.019 -0.4127 -0.4244  0.2657
  266ACOH    H111026   5.944   7.749   2.081  1.0552 -0.5714 -1.6785
  266ACOH    H211027   5.885   7.792   1.912  0.8659  0.4283  0.5256
  266ACOH    H311028   5.786   7.714   2.032  0.7260 -1.2039  3.0702
  267ACOH    H411029   6.897   4.567   3.529  0.1556  0.5537  0.1722
  267ACOH    O211030   6.812   4.596   3.567  0.0141 -0.3733  0.5671
  267ACOH    C211031   6.803   4.728   3.529 -0.0789  0.2699 -0.4057
  267ACOH    O111032   6.887   4.800   3.486 -0.1364  0.2468  0.3091
  267ACOH    C111033   6.676   4.774   3.577  0.1718 -0.3005 -0.1033
  267ACOH    H111034   6.608   4.713   3.517 -0.2589 -2.1476  2.1788
  267ACOH    H211035   6.655   4.876   3.548 -1.0255 -0.7171 -0.7209
  267ACOH    H311036   6.653   4.750   3.681  0.2726  0.3269  0.0630
  268ACOH    H411037   8.049   2.567   5.925  0.3986  0.5186 -0.0106
  268ACOH    O211038   8.018   2.486   5.969 -0.3394  0.2903 -0.9338
  268ACOH    C211039   8.114   2.400   6.001 -0.2211 -0.4318 -0.3201
  268ACOH    O111040   8.228   2.405   5.967 -0.6530 -0.5964  0.6356
  268ACOH    C111041   8.060   2.269   6.040  0.6390  0.5226  0.2628
  268ACOH    H111042   8.039   2.214   5.949 -0.5574  1.5177 -0.0703
  268ACOH    H211043   7.960   2.282   6.082 -0.8771 -0.7930 -2.8117
  268ACOH    H311044   8.116   2.206   6.109  0.0337 -0.5621 -0.2306
  269ACOH    H411045   4.981   5.673   3.383 -0.1670  2.5568 -0.9105
  269ACOH    O211046   5.054   5.702   3.442  0.2146  0.1559 -0.1352
  269ACOH    C211047   5.018   5.677   3.574  0.0727 -0.4392  0.0917
  269ACOH    O111048   4.911   5.646   3.626  0.0202  0.2161 -0.4399
  269ACOH    C111049   5.128   5.696   3.669  0.4427 -0.2611  0.6615
  269ACOH    H111050   5.200   5.615   3.656  0.0264 -0.2462 -2.1038
  269ACOH    H211051   5.096   5.708   3.772 -2.3101 -0.7815 -0.1012
  269ACOH    H311052   5.182   5.787   3.642  1.2979 -0.3905  1.9036
  270ACOH    H411053   3.298   4.395   9.034 -0.5036 -0.0824  0.1741
  270ACOH    O211054   3.329   4.311   8.996 -0.1659  0.1805 -0.1390
  270ACOH    C211055   3.393   4.342   8.885  0.0481 -0.6684 -0.3046
  270ACOH    O111056   3.381   4.452   8.834 -0.6051 -0.2730  0.1744
  270ACOH    C111057   3.484   4.237   8.844  0.7657 -0.2142 -0.7601
  270ACOH    H111058   3.544   4.192   8.923  1.9811 -1.4096 -2.3378
  270ACOH    H211059   3.553   4.298   8.786  1.2687  2.4714  2.4998
  270ACOH    H311060   3.426   4.162   8.790  0.1250 -0.7330  0.6313
  271ACOH    H411061   7.555   9.997   0.305 -2.0561  1.6494 -0.3171
  271ACOH    O211062   7.507   9.942   0.241 -0.3458  0.0281 -0.2536
  271ACOH    C211063   7.594   9.869   0.167  0.7571 -0.2742  0.1903
  271ACOH    O111064   7.714   9.879   0.165  0.0432 -0.0957 -0.4160
  271ACOH    C111065   7.514   9.775   0.068 -0.0466  0.2257 -0.6999
  271ACOH    H111066   7.532   9.815  -0.032 -0.6151  2.1823 -0.0399
  271ACOH    H211067   7.406   9.772   0.087  0.5493  0.4117  3.0137
  271ACOH    H311068   7.546   9.672   0.082 -2.1722 -0.6181 -1.7593
  272ACOH    H411069   7.633   2.890   2.193  1.6064 -0.4197 -0.6211
  272ACOH    O211070   7.631   2.986   2.204 -0.1963 -0.4633 -0.3483
  272ACOH    C211071   7.594   3.034   2.078  0.1844 -0.0870  0.5950
  272ACOH    O111072   7.586   2.969   1.976 -0.0336 -0.4740 -0.0428
  272ACOH    C111073   7.563   3.179   2.092 -0.1073 -0.1495  0.4138
  272ACOH    H111074   7.484   3.195   2.165 -1.4818  0.9348 -1.2609
  272ACOH    H211075   7.539   3.231   1.999  1.7265  2.6064  1.4288
  272ACOH    H311076   7.655   3.231   2.121 -1.8613  2.8326  0.8058
  273ACOH    H411077   9.499   8.114   4.086  2.3277  1.3674 -0.6992
  273ACOH    O211078   9.557   8.068   4.149  0.5912  0.1042  0.0087
  273ACOH    C211079   9.543   7.937   4.124 -0.0321 -0.6177  0.1968
  273ACOH    O111080   9.437   7.896   4.075  0.1090  0.3911  0.3860
  273ACOH    C111081   9.622   7.859   4.222  0.2431  0.1554  0.1863
  273ACOH    H111082   9.704   7.919   4.262  1.6164 -2.3779  1.2756
  273ACOH    H211083   9.667   7.767   4.186 -0.9245 -0.6514  0.7521
  273ACOH    H311084   9.554   7.843   4.305 -0.3463 -0.3415 -0.3846
  274ACOH    H411085   7.953   4.999   1.280 -0.8160 -1.0204 -0.4079
  274ACOH    O211086   8.025   4.962   1.227 -0.2683  0.0330 -0.4092
  274ACOH    C211087   8.152   4.991   1.271  0.1663  0.2936  0.6113
  274ACOH    O111088   8.179   5.055   1.369 -0.2704 -0.4526 -0.2289
  274ACOH    C111089   8.250   4.918   1.189  0.2266 -0.7255  0.0765
  274ACOH    H111090   8.333   4.879   1.249  0.0975  0.2250  0.8824
  274ACOH    H211091   8.297   4.985   1.118  0.0062 -1.4555 -0.7668
  274ACOH    H311092   8.205   4.830   1.142  2.0053 -0.1519 -2.8371
  275ACOH    H411093   5.919   9.809   8.195  3.1025 -1.1428 -1.0206
  275ACOH    O211094   5.932   9.749   8.271  0.6364 -0.0008  0.3525
  275ACOH    C211095   6.013   9.804   8.365 -0.5003  0.2070 -0.2361
  275ACOH    O111096   6.115   9.874   8.345  0.2110  0.6084  0.1275
  275ACOH    C111097   5.968   9.759   8.498 -0.3391  0.7429 -0.2906
  275ACOH    H111098   5.961   9.840   8.571  0.0675 -0.3895  1.0175
  275ACOH    H211099   6.042   9.688   8.534 -3.1403 -0.8960  2.4139
  275ACOH    H311100   5.879   9.697   8.496  0.5145 -0.4937 -1.2308
  276ACOH    H411101   1.070   6.015   2.835 -0.1441  0.4054  1.5683
  276ACOH    O211102   1.153   6.056   2.805  0.0168 -0.6738  0.5154
  276ACOH    C211103   1.239   6.046   2.905 -0.5053 -0.3287  0.2823
  276ACOH    O111104   1.204   6.022   3.022  0.4029 -0.4579  0.4591
  276ACOH    C111105   1.382   6.058   2.871 -0.5178 -0.1124  0.2695
  276ACOH    H111106   1.401   6.057   2.764  2.0067 -0.5010  0.6858
  276ACOH    H211107   1.443   5.988   2.928  0.9323  1.0873  0.2408
  276ACOH    H311108   1.417   6.157   2.902 -0.9238  0.5185 -1.2550
  277ACOH    H411109   6.491   2.252   5.949 -0.0503 -1.1363 -1.2750
  277ACOH    O211110   6.397   2.264   5.971  0.5272  0.3655  0.5286
  277ACOH    C211111   6.381   2.180   6.075  0.3215 -0.2862  0.2231
  277ACOH    O111112   6.467   2.110   6.130  0.3277 -0.3099  0.4132
  277ACOH    C111113   6.235   2.170   6.116  0.1193  0.3358 -0.0799
  277ACOH    H111114   6.210   2.215   6.212 -1.2436 -1.4383  0.4290
  277ACOH    H211115   6.218   2.063   6.133 -0.5362  0.3097 -0.8884
  277ACOH    H311116   6.173   2.211   6.037 -1.5867  0.0369  1.0722
  278ACOH    H411117   6.009   5.791   8.594  0.3697 -0.4398  0.2808
  278ACOH    O211118   5.990   5.765   8.502  0.3135 -0.2288  0.2326
  278ACOH    C211119   5.855   5.779   8.476  0.1513  0.5673  0.1310
  278ACOH    O111120   5.806   5.765   8.364  0.1197 -0.0273 -0.4741
  278ACOH    C111121   5.767   5.785   8.601  0.4051 -0.4811  0.3309
  278ACOH    H111122   5.710   5.693   8.614  0.5440 -0.5626  0.3575
  278ACOH    H211123   5.698   5.869   8.588  1.0902  0.1243  0.5519
  278ACOH    H311124   5.829   5.809   8.687 -2.9826  1.7088  2.2758
  279ACOH    H411125   5.773   8.327   7.204 -1.8439 -2.8371 -4.4889
  279ACOH    O211126   5.848   8.266   7.213  0.3071  0.1939 -0.2209
  279ACOH    C211127   5.961   8.327   7.258 -0.2071  0.9776  0.4617
  279ACOH    O111128   5.964   8.442   7.295  0.0573 -0.0215  0.4769
  279ACOH    C111129   6.077   8.239   7.278  0.7396  0.1056 -0.6347
  279ACOH    H111130   6.170   8.281   7.240  1.5359  0.0275  1.1700
  279ACOH    H211131   6.053   8.164   7.202 -0.3914  0.4163 -0.5810
  279ACOH    H311132   6.084   8.194   7.377  0.4210  0.6114 -0.3825
  280ACOH    H411133   3.797   7.987   7.190  0.0258 -1.4227 -1.7411
  280ACOH    O211134   3.750   7.954   7.268 -0.1364  0.1239 -1.1751
  280ACOH    C211135   3.840   7.875   7.333 -0.7503  0.7717 -0.3861
  280ACOH    O111136   3.958   7.906   7.341 -0.1636  0.5647 -0.0698
  280ACOH    C111137   3.769   7.774   7.417 -0.7684 -0.3851  0.0403
  280ACOH    H111138   3.678   7.816   7.462 -2.0224 -1.0469 -1.8125
  280ACOH    H211139   3.839   7.747   7.496 -0.9263  2.4511  1.2073
  280ACOH    H311140   3.735   7.691   7.354  1.0585 -1.7045  0.7393
  281ACOH    H411141   6.726   2.589   5.918 -0.6443 -0.2705 -0.3346
  281ACOH    O211142   6.787   2.630   5.853 -0.2090 -0.3315  0.0310
  281ACOH    C211143   6.863   2.538   5.792  0.4632 -0.2202  0.2439
  281ACOH    O111144   6.879   2.420   5.810  0.4246  0.1058 -0.1232
  281ACOH    C111145   6.922   2.605   5.672 -0.7222  0.8835 -0.1262
  281ACOH    H111146   6.991   2.678   5.713  0.3922  0.0845 -0.5607
  281ACOH    H211147   6.836   2.645   5.619 -1.1500 -0.6083 -0.5824
  281ACOH    H311148   6.976   2.530   5.615  0.5942  0.7049  1.3297
  282ACOH    H411149   9.278   7.817   5.015 -0.7256 -0.9996 -2.2101
  282ACOH    O211150   9.268   7.725   5.045  0.1117 -0.3510  0.1848
  282ACOH    C211151   9.163   7.724   5.136  0.7619 -0.0328 -0.0221
  282ACOH    O111152   9.098   7.819   5.174  0.1800  0.2937 -0.4927
  282ACOH    C111153   9.127   7.581   5.157 -0.5485  0.4190 -0.5255
  282ACOH    H111154   9.214   7.533   5.201 -1.9844  0.4676  2.5342
  282ACOH    H211155   9.095   7.529   5.067  0.2454  0.3397 -0.7627
  282ACOH    H311156   9.051   7.580   5.236 -0.5778 -1.8283 -0.5526
  283ACOH    H411157   6.449   2.527   5.412 -1.6485 -2.9798 -0.0640
  283ACOH    O211158   6.413   2.545   5.501  0.4549 -0.3891  0.3392
  283ACOH    C211159   6.512   2.555   5.590 -0.6208  0.1656  0.0484
  283ACOH    O111160   6.622   2.499   5.589 -0.3795  0.0632 -0.2141
  283ACOH    C111161   6.457   2.637   5.701 -0.0546  0.0846  0.3011
  283ACOH    H111162   6.389   2.574   5.760 -0.3383  0.8315  0.7806
  283ACOH    H211163   6.400   2.724   5.669 -1.6694 -0.9197  0.3781
  283ACOH    H311164   6.532   2.674   5.771 -0.1961  1.5016 -0.2975
  284ACOH    H411165   5.454   2.485   5.092 -0.0320 -0.0201 -0.9510
  284ACOH    O211166   5.389   2.412   5.094 -0.6603  0.5448  0.2406
  284ACOH    C211167   5.342   2.397   5.221 -0.0712  0.3592  0.2591
  284ACOH    O111168   5.337   2.485   5.304  0.5241 -0.1088  0.3233
  284ACOH    C111169   5.275   2.268   5.222 -0.0811 -0.4949 -0.7100
  284ACOH    H111170   5.331   2.188   5.173 -0.2744 -0.0432 -1.6751
  284ACOH    H211171   5.185   2.281   5.163  0.8161  2.7115 -1.4689
  284ACOH    H311172   5.254   2.236   5.324  0.4781 -1.1205 -0.7857
  285ACOH    H411173   8.114   8.831   0.711  0.6375 -1.4351  0.6763
  285ACOH    O211174   8.030   8.785   0.694 -0.3149  0.5909 -0.2183
  285ACOH    C211175   7.980   8.755   0.819 -0.1393  0.3506 -0.6121
  285ACOH    O111176   7.942   8.838   0.901  0.1944 -0.6294  0.3059
  285ACOH    C111177   7.912   8.624   0.807  0.1645 -0.6921 -0.1479
  285ACOH    H111178   7.917   8.579   0.906 -1.6494 -1.4006 -0.3641
  285ACOH    H211179   7.963   8.554   0.741  2.6377 -0.2461  1.2106
  285ACOH    H311180   7.808   8.639   0.779  0.5478  0.9760 -0.7150
  286ACOH    H411181   4.522   5.448   8.362 -0.6309  0.2566  0.4515
  286ACOH    O211182   4.527   5.366   8.309 -0.5586  0.5697 -0.0266
  286ACOH    C211183   4.395   5.343   8.290  0.1620 -0.9873  0.0138
  286ACOH    O111184   4.306   5.426   8.301  0.1634 -0.0586  0.3178
  286ACOH    C111185   4.367   5.209   8.234  0.4922  0.5217 -0.0347
  286ACOH    H111186   4.303   5.222   8.147  0.0279  2.0795  0.5102
  286ACOH    H211187   4.320   5.150   8.313 -1.0336  0.4098 -1.0137
  286ACOH    H311188   4.461   5.165   8.202  0.9662 -0.0249  2.0048
  287ACOH    H411189   6.784   3.956   9.334  0.3783 -0.1396 -0.7037
  287ACOH    O211190   6.818   3.938   9.423 -0.2616  0.1838 -0.3884
  287ACOH    C211191   6.811   3.806   9.426 -0.0817  0.4581  0.1264
  287ACOH    O111192   6.808   3.746   9.531 -0.2097  0.1699  0.3952
  287ACOH    C111193   6.812   3.729   9.298 -0.1881 -0.2816  0.1072
  287ACOH    H111194   6.810   3.620   9.308  0.3407 -0.1291  2.1122
  287ACOH    H211195   6.903   3.754   9.243 -0.6166  1.5938  0.2250
  287ACOH    H311196   6.721   3.750   9.242  0.1750  0.5599 -0.1743
  288ACOH    H411197   5.290   3.932   6.327 -2.6352  0.1094 -0.5034
  288ACOH    O211198   5.285   3.838   6.351  0.0760 -0.0237 -0.2711
  288ACOH    C211199   5.240   3.771   6.244 -0.6373  0.6106 -0.0411
  288ACOH    O111200   5.227   3.816   6.134 -0.0765  0.4530  0.6982
  288ACOH    C111201   5.234   3.620   6.268 -0.3837 -0.0778 -0.0848
  288ACOH    H111202   5.164   3.587   6.344  1.1324  0.5361  1.6163
  288ACOH    H211203   5.331   3.580   6.297  0.4453  1.5273 -0.5136
  288ACOH    H311204   5.221   3.582   6.167  0.3177  4.1208 -1.8733
  289ACOH    H411205   7.865   4.046   4.854  0.6041  0.6580 -0.7639
  289ACOH    O211206   7.807   4.122   4.874 -0.2699 -0.1544 -0.1280
  289ACOH    C211207   7.801   4.124   5.011  0.2566  0.2682 -0.1651
  289ACOH    O111208   7.782   4.025   5.076  0.5561 -0.2767 -0.1188
  289ACOH    C111209   7.777   4.268   5.050  0.1413  0.4132 -0.6390
  289ACOH    H111210   7.826   4.296   5.144 -1.5504  1.3104 -0.0096
  289ACOH    H211211   7.670   4.282   5.044 -0.2102 -2.4007 -1.3825
  289ACOH    H311212   7.827   4.336   4.981  1.2517 -0.2755 -0.5226
  290ACOH    H411213   7.181   6.195   3.834  0.5787  4.1013  1.5271
  290ACOH    O211214   7.096   6.226   3.798  0.0384  0.3988 -0.5168
  290ACOH    C211215   7.018   6.116   3.803  0.8475 -0.2618 -0.1921
  290ACOH    O111216   7.055   6.001   3.828 -0.3045  0.0544 -0.3964
  290ACOH    C111217   6.880   6.142   3.751 -0.2500 -0.5607  0.0103
  290ACOH    H111218   6.812   6.064   3.786 -1.5722  1.0169  1.0104
  290ACOH    H211219   6.884   6.143   3.643 -1.8229 -0.5642 -0.0623
  290ACOH    H311220   6.835   6.237   3.779 -0.3798 -0.2867 -1.1341
  291ACOH    H411221   4.882   7.502   5.216  0.3285  1.1125  0.7195
  291ACOH    O211222   4.954   7.451   5.257 -0.0549  0.1146  0.1687
  291ACOH    C211223   5.048   7.444   5.158 -0.2201  0.2750  0.0792
  291ACOH    O111224   5.028   7.455   5.039  0.2190  0.7751 -0.2344
  291ACOH    C111225   5.179   7.395   5.211  0.0832 -0.0355 -0.5614
  291ACOH    H111226   5.223   7.476   5.269  0.1400  0.9612 -1.9940
  291ACOH    H211227   5.243   7.367   5.128 -3.3740  2.4648 -4.2307
  291ACOH    H311228   5.175   7.304   5.272 -0.8626 -0.2522 -0.9370
  292ACOH    H411229   4.966   3.475   2.373 -0.6351  0.0471 -4.1257
  292ACOH    O211230   5.036   3.540   2.359  0.0218  0.3251 -0.2417
  292ACOH    C211231   5.029   3.640   2.443  0.4466  0.6972 -0.0796
  292ACOH    O111232   4.932   3.666   2.509 -0.0824 -0.1464  0.2223
  292ACOH    C111233   5.133   3.743   2.408  0.0270  0.8769 -0.0964
  292ACOH    H111234   5.217   3.698   2.356  0.0042 -0.2196  0.8066
  292ACOH    H211235   5.168   3.790   2.500  0.8284 -0.0984  0.1037
  292ACOH    H311236   5.093   3.831   2.357 -0.9062  0.6449  0.2194
  293ACOH    H411237   5.234   7.690   1.023  0.2973 -1.6646  2.7971
  293ACOH    O211238   5.260   7.612   0.970 -0.2089  0.0141 -0.0275
  293ACOH    C211239   5.195   7.602   0.856 -0.1999  0.4987 -1.0541
  293ACOH    O111240   5.085   7.647   0.834 -0.0888  0.2056  0.3318
  293ACOH    C111241   5.252   7.502   0.774  0.0883 -0.3720  0.6082
  293ACOH    H111242   5.231   7.397   0.797 -0.0565 -0.7135 -0.9816
  293ACOH    H211243   5.360   7.517   0.769  0.2183 -1.5795 -0.8394
  293ACOH    H311244   5.218   7.515   0.671 -1.0355  0.4885  1.0795
  294ACOH    H411245   8.398   1.028   0.537  0.1660 -1.1538  0.0101
  294ACOH    O211246   8.491   0.998   0.531  0.4817  0.0210 -1.2556
  294ACOH    C211247   8.503   0.919   0.643  0.1888  0.8020 -0.0984
  294ACOH    O111248   8.422   0.917   0.734 -0.3057 -0.4559 -0.1953
  294ACOH    C111249   8.616   0.822   0.643 -0.0116  0.2365 -0.1872
  294ACOH    H111250   8.591   0.743   0.573  2.3506  0.1341 -0.9670
  294ACOH    H211251   8.625   0.779   0.743 -2.0239 -0.3932 -0.2547
  294ACOH    H311252   8.707   0.873   0.611 -0.3940  2.1201  1.5763
  295ACOH    H411253   5.290   4.837   2.890 -0.6610 -0.0293  0.4144
  295ACOH    O211254   5.240   4.854   2.971 -0.2990  0.0557  0.6181
  295ACOH    C211255   5.127   4.782   2.960 -0.3795  0.9986  0.0881
  295ACOH    O111256   5.084   4.746   2.853  0.1616 -0.0636 -0.3430
  295ACOH    C111257   5.058   4.799   3.089 -0.4572  0.4345  0.4341
  295ACOH    H111258   5.111   4.759   3.174 -0.3660 -0.3949 -0.0144
  295ACOH    H211259   4.952   4.773   3.089 -0.4925  0.5781  0.6032
  295ACOH    H311260   5.052   4.907   3.104  0.3463  0.5146  0.1914
  296ACOH    H411261   5.176   4.956   6.414 -1.0461  0.1508  0.8991
  296ACOH    O211262   5.182   5.053   6.409 -0.6535  0.1120  0.5746
  296ACOH    C211263   5.183   5.080   6.277  0.4405  0.0104 -0.0504
  296ACOH    O111264   5.150   5.006   6.184  0.0463 -0.0568  0.2396
  296ACOH    C111265   5.204   5.228   6.254  0.4740  0.1515 -0.2142
  296ACOH    H111266   5.312   5.239   6.248  0.6255 -1.1949 -0.2901
  296ACOH    H211267   5.156   5.284   6.334  0.3802 -0.5570  0.2374
  296ACOH    H311268   5.155   5.253   6.160  2.3049  0.8796 -1.0051
  297ACOH    H411269   5.402   9.237   8.485  0.5206  0.7322  1.5366
  297ACOH    O211270   5.377   9.151   8.523  0.2742 -0.0349 -0.2976
  297ACOH    C211271   5.421   9.066   8.430  0.1292 -0.1739  0.8786
  297ACOH    O111272   5.532   9.065   8.388 -0.0843  0.0221  0.1041
  297ACOH    C111273   5.325   8.954   8.412 -0.0715 -0.4611 -0.2468
  297ACOH    H111274   5.347   8.872   8.480 -0.9363 -1.1577 -0.7979
  297ACOH    H211275   5.338   8.914   8.311 -4.0445 -2.1953 -0.1385
  297ACOH    H311276   5.223   8.990   8.423  0.3965  0.2557  2.0305
  298ACOH    H411277   1.156   7.104   1.896 -1.5935 -1.0515  1.0613
  298ACOH    O211278   1.131   7.190   1.934  0.3837 -0.0925  0.2722
  298ACOH    C211279   1.088   7.157   2.055  0.6455  1.0424  0.5787
  298ACOH    O111280   1.054   7.047   2.086 -0.0624  0.1771 -0.0973
  298ACOH    C111281   1.088   7.270   2.150 -0.5715 -0.3509 -0.2775
  298ACOH    H111282   1.195   7.288   2.155 -0.3854 -1.5454  0.2199
  298ACOH    H211283   1.053   7.236   2.248 -3.6118  1.8811 -0.5271
  298ACOH    H311284   1.041   7.360   2.112  1.3757  0.1764 -1.4794
  299ACOH    H411285   5.017   2.598   2.016 -0.0489  1.1754 -1.0073
  299ACOH    O211286   4.921   2.584   2.014  0.0990 -0.0005 -0.2658
  299ACOH    C211287   4.900   2.480   1.936  0.4407  0.5362 -0.2127
  299ACOH    O111288   4.977   2.428   1.863  0.2395 -0.4472  0.4562
  299ACOH    C111289   4.759   2.440   1.941 -0.4768 -0.5052 -0.3287
  299ACOH    H111290   4.720   2.467   2.039  3.8477 -2.8774  2.1593
  299ACOH    H211291   4.763   2.332   1.928 -0.0210 -0.4496 -0.6676
  299ACOH    H311292   4.697   2.480   1.860 -1.2224  0.4133  0.6691
  300ACOH    H411293   1.756   2.482   4.649 -0.6712 -1.3062  0.0270
  300ACOH    O211294   1.746   2.520   4.738  0.5472  0.7673 -0.6782
  300ACOH    C211295   1.860   2.472   4.788 -0.4286  0.6423  0.3058
  300ACOH    O111296   1.909   2.362   4.778 -0.2822  0.1170  0.4910
  300ACOH    C111297   1.905   2.569   4.895 -0.5679  0.5167 -0.1821
  300ACOH    H111298   1.940   2.661   4.847 -2.1995  1.0473 -0.4002
  300ACOH    H211299   1.979   2.524   4.960 -0.6687 -0.4497 -0.7342
  300ACOH    H311300   1.818   2.599   4.953 -0.2529 -0.8731  1.0311
  301ACOH    H411301   5.160   7.168   0.554 -0.2072  1.0787  1.1576
  301ACOH    O211302   5.226   7.102   0.581 -0.4164  0.2995 -0.2167
  301ACOH    C211303   5.180   7.028   0.682  0.6781  0.1873  1.2795
  301ACOH    O111304   5.091   7.065   0.756  0.3618 -0.2754  0.3877
  301ACOH    C111305   5.277   6.921   0.718 -0.9302 -0.4290  0.5759
  301ACOH    H111306   5.264   6.830   0.659  0.0001 -0.9898  1.2300
  301ACOH    H211307   5.259   6.886   0.820 -0.5730 -0.6264  0.5736
  301ACOH    H311308   5.379   6.960   0.716 -1.9733  2.3426  0.5374
  302ACOH    H411309   4.988   2.305   4.639  1.1145  1.6797  0.2165
  302ACOH    O211310   4.987   2.310   4.542  0.2576  0.2491  0.1370
  302ACOH    C211311   5.072   2.403   4.499  0.2891 -0.1286  0.1713
  302ACOH    O111312   5.097   2.497   4.572 -0.4247 -0.3983  0.4517
  302ACOH    C111313   5.090   2.405   4.354 -0.0506 -0.0772  0.1662
  302ACOH    H111314   5.016   2.476   4.318 -0.2090 -0.5225 -0.4100
  302ACOH    H211315   5.069   2.314   4.298  2.9629  0.2403 -1.6121
  302ACOH    H311316   5.185   2.441   4.314  0.2428 -0.3283  0.6316
  303ACOH    H411317   4.068   5.568   4.739 -0.6686 -0.0411  0.4015
  303ACOH    O211318   4.105   5.607   4.820 -0.2768  0.4295 -0.0041
  303ACOH    C211319   4.220   5.537   4.841  0.4648 -0.9215  0.4781
  303ACOH    O111320   4.275   5.458   4.764 -0.5555  0.3622  0.2990
  303ACOH    C111321   4.286   5.576   4.967 -0.3076  0.2705 -0.6098
  303ACOH    H111322   4.252   5.679   4.979  1.6715  0.9571 -0.7158
  303ACOH    H211323   4.393   5.579   4.951  0.1938  1.7458  2.5042
  303ACOH    H311324   4.259   5.517   5.055 -1.0450  2.7451  0.8993
  304ACOH    H411325   7.920   7.077   4.369 -0.8203 -0.8144  0.9046
  304ACOH    O211326   7.857   7.146   4.395 -0.1883  0.1943 -0.1882
  304ACOH    C211327   7.881   7.187   4.520  0.3626  0.0490  0.5535
  304ACOH    O111328   7.982   7.154   4.586 -0.1848  0.2952  0.1142
  304ACOH    C111329   7.794   7.293   4.573  0.3407 -0.2765 -0.5093
  304ACOH    H111330   7.731   7.331   4.493 -1.1577  1.6780  1.5569
  304ACOH    H211331   7.857   7.374   4.610 -0.4698  0.3665 -0.5324
  304ACOH    H311332   7.736   7.246   4.653 -0.3185 -2.1866 -2.0792
  305ACOH    H411333   3.921   7.028   3.326 -0.1386  1.5323 -0.1408
  305ACOH    O211334   3.911   7.056   3.233 -0.1676  0.5821 -0.4273
  305ACOH    C211335   3.925   7.186   3.227  0.1517  0.3544  0.1477
  305ACOH    O111336   3.985   7.253   3.309 -0.0227 -0.3550 -0.2640
  305ACOH    C111337   3.898   7.225   3.088  0.3974 -0.4907  0.0062
  305ACOH    H111338   3.965   7.302   3.050 -0.9319  0.1820 -1.0230
  305ACOH    H211339   3.794   7.257   3.081  0.3740 -0.5172  0.2286
  305ACOH    H311340   3.918   7.138   3.026  0.6278 -2.6547  2.9985
  306ACOH    H411341   5.627   2.273   4.913 -1.9642  2.9285  0.3218
  306ACOH    O211342   5.613   2.247   5.005  0.0880 -0.2578 -0.1780
  306ACOH    C211343   5.719   2.296   5.070  0.4389 -0.0366 -0.0867
  306ACOH    O111344   5.785   2.397   5.043  0.1326  0.2903 -0.6216
  306ACOH    C111345   5.724   2.238   5.206 -0.4847 -0.1376  0.3749
  306ACOH    H111346   5.807   2.274   5.266 -1.4886  1.5381  0.8016
  306ACOH    H211347   5.724   2.129   5.202 -1.1113 -0.1109 -0.9618
  306ACOH    H311348   5.635   2.273   5.259 -0.9692  0.4801 -0.8214
  307ACOH    H411349   7.040  10.035   8.805 -1.1369  0.1522  2.3349
  307ACOH    O211350   7.033   9.939   8.800 -0.5009  0.2149 -0.3543
  307ACOH    C211351   6.945   9.907   8.703 -0.0944  0.4663 -0.1972
  307ACOH    O111352   6.917   9.984   8.610  0.4450 -0.4077 -0.3906
  307ACOH    C111353   6.932   9.763   8.685 -0.0824  0.2568  0.5981
  307ACOH    H111354   6.828   9.740   8.709  0.3000 -1.1693  0.8911
  307ACOH    H211355   7.002   9.719   8.755 -0.6806 -1.2915  0.2326
  307ACOH    H311356   6.958   9.740   8.582  0.0019 -1.0768  0.9112
  308ACOH    H411357   4.683   4.974   5.209 -0.8773  0.9278 -2.0581
  308ACOH    O211358   4.765   5.004   5.166  0.4489  0.5043  0.1016
  308ACOH    C211359   4.730   5.022   5.043  0.6932 -0.2730 -0.6201
  308ACOH    O111360   4.625   5.076   5.006  0.4969  0.1376  0.1191
  308ACOH    C111361   4.850   5.043   4.962 -0.9747 -0.3507 -0.2284
  308ACOH    H111362   4.831   5.036   4.855  0.2112 -0.7667 -0.4186
  308ACOH    H211363   4.927   4.974   4.995 -1.0048 -0.8712 -1.2318
  308ACOH    H311364   4.877   5.147   4.981 -0.8990 -0.2404 -0.9238
  309ACOH    H411365   4.549   1.351   3.416  0.3995  0.9003  0.0429
  309ACOH    O211366   4.617   1.368   3.483  0.2430  0.1309  0.3981
  309ACOH    C211367   4.578   1.484   3.542 -0.0671  0.3558  0.6151
  309ACOH    O111368   4.490   1.561   3.510 -0.1909  0.3656 -0.2954
  309ACOH    C111369   4.647   1.508   3.672 -0.2570  0.0643 -0.3688
  309ACOH    H111370   4.704   1.417   3.689  1.5061  1.3133  0.4951
  309ACOH    H211371   4.575   1.513   3.754 -1.4721 -1.2066 -1.3349
  309ACOH    H311372   4.722   1.586   3.665  0.4014 -0.5393 -0.1564
  310ACOH    H411373   5.843   0.093   8.355  0.4671 -0.8098  0.2351
  310ACOH    O211374   5.829   0.048   8.440 -0.1721  0.1917  0.6690
  310ACOH    C211375   5.738   0.114   8.510 -0.2998 -1.0015  0.1444
  310ACOH    O111376   5.680   0.219   8.479  0.2643  0.2132  0.3454
  310ACOH    C111377   5.710   0.028   8.627  0.3023 -0.1862  0.4366
  310ACOH    H111378   5.646  -0.052   8.590  0.8176 -0.6747  0.5889
  310ACOH    H211379   5.661   0.092   8.701  2.0181 -1.6102  2.8733
  310ACOH    H311380   5.799  -0.012   8.676 -0.0997 -1.3099  0.2677
  311ACOH    H411381   5.959   8.619   1.675  1.2012 -0.1712  1.8404
  311ACOH    O211382   5.969   8.527   1.705  0.1773 -0.8481  0.1729
  311ACOH    C211383   5.881   8.497   1.801 -0.3869 -0.1145 -0.5145
  311ACOH    O111384   5.794   8.571   1.834 -0.2584  0.0765 -0.0052
  311ACOH    C111385   5.905   8.368   1.872  0.3137  0.0073 -0.0382
  311ACOH    H111386   5.814   8.319   1.907 -0.5835  1.4108 -0.3445
  311ACOH    H211387   5.968   8.400   1.955  1.0392  0.6217 -0.8314
  311ACOH    H311388   5.960   8.296   1.813  0.2459 -0.7079  0.7686
  312ACOH    H411389   6.104   7.709   2.255  1.3382  0.9056 -2.1197
  312ACOH    O211390   6.137   7.618   2.241  0.4998  0.1033  0.7351
  312ACOH    C211391   6.256   7.612   2.182 -0.0502 -0.7062 -0.7333
  312ACOH    O111392   6.313   7.710   2.135  0.1800  0.4957  0.3991
  312ACOH    C111393   6.310   7.474   2.172 -0.2898  0.8770 -0.1545
  312ACOH    H111394   6.399   7.472   2.108 -0.9042 -1.1446 -0.9907
  312ACOH    H211395   6.236   7.411   2.122 -1.9445  2.2190  0.5460
  312ACOH    H311396   6.333   7.429   2.269  1.1673  2.4695  0.2609
  313ACOH    H411397   6.550   6.066   2.198 -0.5940  0.5838 -0.9842
  313ACOH    O211398   6.546   6.084   2.293 -0.7809  0.0022 -0.8800
  313ACOH    C211399   6.633   6.182   2.327 -0.6799 -0.0230 -0.1590
  313ACOH    O111400   6.703   6.251   2.253  0.6476  0.0242 -0.3284
  313ACOH    C111401   6.648   6.181   2.473 -0.4618 -0.0448  0.2751
  313ACOH    H111402   6.735   6.124   2.505  0.7039  0.6695 -1.5071
  313ACOH    H211403   6.554   6.159   2.522  0.1922  1.2996  2.1896
  313ACOH    H311404   6.676   6.283   2.499  0.9651 -0.2140 -0.5440
  314ACOH    H411405   9.670   0.374   0.659 -1.2436  0.0185  0.9495
  314ACOH    O211406   9.632   0.285   0.665 -0.4339 -0.3949  0.0548
  314ACOH    C211407   9.654   0.229   0.790  0.1176  0.6376 -0.1963
  314ACOH    O111408   9.713   0.279   0.885  0.2423  0.2980  0.1326
  314ACOH    C111409   9.590   0.096   0.793  0.2286  0.2111  0.5082
  314ACOH    H111410   9.501   0.091   0.857  0.6676 -2.8698  0.9675
  314ACOH    H211411   9.659   0.023   0.835 -0.5263  0.2639  1.8876
  314ACOH    H311412   9.560   0.061   0.694 -0.9515  0.6342  0.7004
  315ACOH    H411413   9.874   7.600   5.060  0.4462 -1.7023 -1.6166
  315ACOH    O211414   9.795   7.554   5.093 -0.2321  0.5891  0.0297
  315ACOH    C211415   9.702   7.562   5.001 -0.2251  0.4686  0.2805
  315ACOH    O111416   9.699   7.635   4.907 -0.2124 -0.0914  0.0853
  315ACOH    C111417   9.580   7.477   5.027  0.4657  1.3193 -0.5274
  315ACOH    H111418   9.538   7.442   4.932  0.9385 -0.7534  0.0013
  315ACOH    H211419   9.515   7.524   5.101 -0.6272 -1.4881  0.3640
  315ACOH    H311420   9.603   7.381   5.073 -1.2774  1.5447  0.8808
  316ACOH    H411421   1.381   4.067   5.217  0.1511 -2.6161  0.3486
  316ACOH    O211422   1.355   4.062   5.124  0.0849  0.1392  0.1834
  316ACOH    C211423   1.370   3.930   5.102 -0.5957  0.3206 -0.0747
  316ACOH    O111424   1.410   3.843   5.179  0.2533  0.4152  0.5071
  316ACOH    C111425   1.358   3.904   4.959 -0.0530 -0.3068  0.2441
  316ACOH    H111426   1.300   3.978   4.904 -0.1484 -1.8447 -1.7788
  316ACOH    H211427   1.319   3.803   4.940  2.0636 -0.9902 -0.5896
  316ACOH    H311428   1.458   3.904   4.916  0.2721 -1.8732  0.9333
  317ACOH    H411429   4.751   6.863   9.231 -0.2973  0.1699 -0.5083
  317ACOH    O211430   4.800   6.943   9.206  0.5588 -0.2831 -0.3055
  317ACOH    C211431   4.745   7.047   9.271 -0.0740 -0.1159  0.3992
  317ACOH    O111432   4.655   7.051   9.354 -0.5308  0.0358  0.4280
  317ACOH    C111433   4.822   7.165   9.226  0.0940 -1.0168 -0.0031
  317ACOH    H111434   4.751   7.248   9.218 -0.1833 -1.3680 -1.3466
  317ACOH    H211435   4.866   7.154   9.127  1.5870  0.8023  0.4146
  317ACOH    H311436   4.907   7.186   9.292 -0.7606 -0.6253  0.9830
  318ACOH    H411437   4.413   5.069   6.499  0.5049 -0.4477  0.5727
  318ACOH    O211438   4.497   5.117   6.503  0.0747  0.3667 -0.1019
  318ACOH    C211439   4.499   5.176   6.624  0.6562  0.5087  0.6686
  318ACOH    O111440   4.409   5.156   6.707  0.3177  0.1956 -0.0479
  318ACOH    C111441   4.628   5.252   6.641 -0.1204 -1.0822  0.3186
  318ACOH    H111442   4.630   5.337   6.573 -1.2336  0.5336  2.2659
  318ACOH    H211443   4.712   5.182   6.635  0.6450 -0.1860  0.4698
  318ACOH    H311444   4.620   5.295   6.740 -0.0686  0.0709 -0.1681
  319ACOH    H411445   5.371   6.856   0.120  1.2478  0.7102 -1.3484
  319ACOH    O211446   5.405   6.906   0.195 -0.1523 -0.3489  0.0122
  319ACOH    C211447   5.463   7.020   0.151  0.4731 -0.3008  0.5753
  319ACOH    O111448   5.472   7.051   0.032  0.1377 -0.1504 -0.6389
  319ACOH    C111449   5.487   7.111   0.260  0.3356  0.1102  0.0340
  319ACOH    H111450   5.585   7.157   0.247  0.1415  0.4418 -0.2299
  319ACOH    H211451   5.491   7.054   0.353  1.4788  2.0200  1.1911
  319ACOH    H311452   5.411   7.188   0.264  0.4223  0.2374 -0.8402
  320ACOH    H411453   8.132   9.175   0.591 -0.3760 -0.3828 -0.7737
  320ACOH    O211454   8.071   9.105   0.564 -0.2387 -0.6832 -0.3117
  320ACOH    C211455   7.956   9.108   0.619 -0.2427 -0.0653  0.1604
  320ACOH    O111456   7.922   9.190   0.698  0.2405 -0.1284 -0.0715
  320ACOH    C111457   7.867   8.990   0.589  0.4134 -0.3047 -0.6373
  320ACOH    H111458   7.908   8.936   0.503  2.1559  0.3661 -0.2386
  320ACOH    H211459   7.769   9.028   0.560  0.5121  0.4958  0.0752
  320ACOH    H311460   7.851   8.925   0.675 -0.5670  0.1911 -0.4336
  321ACOH    H411461   1.173   2.902   6.868 -1.8223  2.3230  0.9954
  321ACOH    O211462   1.207   2.879   6.956 -0.6378  0.7703  0.1380
  321ACOH    C211463   1.242   2.749   6.965 -0.2107 -0.4399  0.0191
  321ACOH    O111464   1.228   2.662   6.886  0.0886  0.1642 -0.6840
  321ACOH    C111465   1.328   2.728   7.088 -0.3762 -0.1860  0.3749
  321ACOH    H111466   1.371   2.824   7.116  0.3676 -0.3452 -0.2132
  321ACOH    H211467   1.407   2.656   7.068  0.8491  1.6012 -1.3690
  321ACOH    H311468   1.266   2.707   7.175 -1.8235  0.6457 -0.4388
  322ACOH    H411469   6.453   2.817   4.563  0.8268 -0.8989 -0.3633
  322ACOH    O211470   6.449   2.880   4.489 -0.1036 -0.5373 -0.0149
  322ACOH    C211471   6.326   2.929   4.485  0.0740 -0.2937  0.3777
  322ACOH    O111472   6.234   2.891   4.554 -0.0375 -0.3451  0.3462
  322ACOH    C111473   6.313   3.031   4.381 -0.1252  0.0974  0.1376
  322ACOH    H111474   6.277   2.982   4.291  1.2514 -1.4977  0.4406
  322ACOH    H211475   6.407   3.082   4.359 -0.4174  0.0496 -1.2613
  322ACOH    H311476   6.237   3.101   4.415  0.7052  0.0179  2.2453
  323ACOH    H411477   5.129   4.926   6.914  1.7430  2.6521  0.6425
  323ACOH    O211478   5.104   4.961   6.827 -0.7582 -0.3572  0.0876
  323ACOH    C211479   5.119   5.094   6.840  0.0257  0.8300  0.0497
  323ACOH    O111480   5.158   5.150   6.943  0.0897 -0.4296  0.3935
  323ACOH    C111481   5.065   5.167   6.720 -0.0861  0.5945  0.3641
  323ACOH    H111482   4.959   5.142   6.716 -0.3468  1.5728  0.9917
  323ACOH    H211483   5.108   5.121   6.631 -1.3516 -1.4654  0.7962
  323ACOH    H311484   5.078   5.276   6.723  0.7669  0.5131 -0.1155
  324ACOH    H411485   5.243   7.323   5.593  0.4070  1.4818 -2.7204
  324ACOH    O211486   5.331   7.283   5.578  0.3038 -0.1546  0.4862
  324ACOH    C211487   5.410   7.329   5.676 -0.2759  0.2217 -0.0674
  324ACOH    O111488   5.375   7.390   5.778 -0.1651  0.5675  0.7640
  324ACOH    C111489   5.546   7.274   5.647 -0.1065 -0.5575 -0.3483
  324ACOH    H111490   5.544   7.165   5.652 -1.4398 -0.5488 -0.3345
  324ACOH    H211491   5.618   7.310   5.720 -0.6863 -0.9875  0.4344
  324ACOH    H311492   5.575   7.301   5.545 -1.0737  0.3239 -0.4085
  325ACOH    H411493   0.654   1.669   3.289  1.7012 -0.6376  1.5575
  325ACOH    O211494   0.588   1.686   3.358  0.1099  0.0318 -0.0950
  325ACOH    C211495   0.512   1.790   3.316 -0.0554  0.7526 -0.6051
  325ACOH    O111496   0.536   1.864   3.221 -0.1546 -0.3919  0.1099
  325ACOH    C111497   0.422   1.822   3.432 -0.3273 -0.2659 -1.1169
  325ACOH    H111498   0.321   1.843   3.395  0.2862 -1.9499 -3.9095
  325ACOH    H211499   0.441   1.916   3.484 -0.7210  0.0486 -1.5401
  325ACOH    H311500   0.416   1.735   3.497 -3.2267 -0.5265 -1.6561
  326ACOH    H411501   7.088   3.196   5.135 -1.4201 -0.8129  1.2080
  326ACOH    O211502   7.105   3.285   5.171 -0.3886 -0.1106 -0.9542
  326ACOH    C211503   7.054   3.286   5.293  0.2682 -0.1954 -0.7578
  326ACOH    O111504   7.004   3.193   5.352 -0.5619  0.1822  0.6880
  326ACOH    C111505   7.077   3.416   5.359  0.4438  0.7406 -0.7759
  326ACOH    H111506   6.979   3.463   5.367 -1.2435 -2.7763  0.3318
  326ACOH    H211507   7.145   3.480   5.302  2.6142  0.4218  1.3451
  326ACOH    H311508   7.103   3.397   5.464 -3.8764  0.4928  0.3303
  327ACOH    H411509   5.411   1.041   3.192 -1.4061  1.3372 -0.5297
  327ACOH    O211510   5.443   1.065   3.103 -0.0441  0.2501 -0.3449
  327ACOH    C211511   5.550   0.979   3.085  0.1241  0.1413  0.1438
  327ACOH    O111512   5.568   0.872   3.141 -0.2203  0.0712  0.6028
  327ACOH    C111513   5.630   1.029   2.972 -0.0908  0.3671 -0.5155
  327ACOH    H111514   5.588   0.987   2.880  0.1513 -0.8981 -0.0533
  327ACOH    H211515   5.737   1.005   2.973 -0.3697 -0.8406  1.3855
  327ACOH    H311516   5.619   1.136   2.958  1.1194  0.4512 -0.9000
  328ACOH    H411517   4.239   3.716   3.543  0.3012 -1.1364 -0.4702
  328ACOH    O211518   4.154   3.686   3.578 -0.1147  0.1330 -0.3533
  328ACOH    C211519   4.102   3.786   3.652  0.9559 -0.3912 -0.5258
  328ACOH    O111520   4.134   3.901   3.627  0.0761  0.3709 -0.4137
  328ACOH    C111521   3.984   3.753   3.742  0.2266 -0.5640 -0.1874
  328ACOH    H111522   4.016   3.657   3.783  2.7407  0.1997 -0.2574
  328ACOH    H211523   3.897   3.753   3.677  1.2983  1.5241 -1.6653
  328ACOH    H311524   3.960   3.825   3.821 -0.6501 -0.5936 -0.4241
  329ACOH    H411525   2.323   3.866   8.902 -1.4996 -0.3588 -0.4050
  329ACOH    O211526   2.310   3.955   8.868  0.3231  0.0586 -0.0828
  329ACOH    C211527   2.439   4.004   8.853  0.3976 -0.5507  0.2277
  329ACOH    O111528   2.536   3.942   8.804 -0.0092  0.5620  0.6422
  329ACOH    C111529   2.434   4.148   8.848  0.1325  0.1633 -0.4326
  329ACOH    H111530   2.417   4.187   8.747 -4.0122  3.7022  1.4461
  329ACOH    H211531   2.533   4.180   8.881  0.0585 -0.8718  0.8172
  329ACOH    H311532   2.362   4.199   8.913 -0.6786  1.0625 -2.0060
  330ACOH    H411533   5.334   4.674   6.628 -0.6103  0.0240  0.9029
  330ACOH    O211534   5.333   4.741   6.699 -0.0504  0.2585  0.6864
  330ACOH    C211535   5.438   4.821   6.667 -0.0305  0.9301 -0.0962
  330ACOH    O111536   5.539   4.777   6.615  0.7775  0.4658  0.2182
  330ACOH    C111537   5.432   4.943   6.745 -0.4890 -0.1099 -0.7515
  330ACOH    H111538   5.359   5.017   6.710 -0.6974 -0.8010 -1.8233
  330ACOH    H211539   5.531   4.988   6.738 -0.2402 -0.6504 -0.6696
  330ACOH    H311540   5.405   4.918   6.847 -1.5741  1.1282 -0.7163
  331ACOH    H411541   7.735   1.807   6.175 -0.9311 -0.6140 -0.9142
  331ACOH    O211542   7.658   1.865   6.181 -0.4258  0.0048 -0.1867
  331ACOH    C211543   7.688   1.991   6.226 -0.4410  0.2129 -0.0769
  331ACOH    O111544   7.797   2.029   6.250 -0.4078 -0.4421  0.1337
  331ACOH    C111545   7.573   2.080   6.245 -0.1963  0.0673  0.3065
  331ACOH    H111546   7.532   2.096   6.145 -1.6992 -1.8605  0.5807
  331ACOH    H211547   7.594   2.176   6.292  1.5973  1.5402 -3.3624
  331ACOH    H311548   7.498   2.027   6.304  1.4496  0.0944  2.4995
  332ACOH    H411549   6.889   8.500   8.460 -0.4706 -1.1994  0.4934
  332ACOH    O211550   6.828   8.535   8.526 -0.3766 -0.5093  0.2212
  332ACOH    C211551   6.788   8.659   8.496  0.0873 -0.5826 -0.5019
  332ACOH    O111552   6.851   8.739   8.428  0.1346 -0.5041 -0.3100
  332ACOH    C111553   6.657   8.704   8.553 -0.0499 -0.3676  0.2198
  332ACOH    H111554   6.594   8.616   8.561 -1.5473  0.8018  1.4071
  332ACOH    H211555   6.615   8.788   8.498  1.7541  1.9507  2.2816
  332ACOH    H311556   6.670   8.740   8.655  2.3736 -1.4037  0.3277
  333ACOH    H411557   5.418   3.063   4.808 -0.4079 -0.5496 -1.5978
  333ACOH    O211558   5.411   3.153   4.774  0.1149  0.0944 -0.0411
  333ACOH    C211559   5.280   3.178   4.747  0.1671  0.1284 -0.5292
  333ACOH    O111560   5.199   3.090   4.728  0.8719  0.2393  0.4056
  333ACOH    C111561   5.267   3.323   4.709  0.5166 -0.3432  0.7525
  333ACOH    H111562   5.345   3.339   4.635 -0.6025  2.1392  0.0464
  333ACOH    H211563   5.283   3.377   4.802 -1.4487  2.1683 -0.3006
  333ACOH    H311564   5.166   3.342   4.672  1.3145  1.2563 -0.6802
  334ACOH    H411565   7.726  10.113   9.166  1.0533 -0.8265  0.1403
  334ACOH    O211566   7.664  10.042   9.144 -0.7349  0.5700  0.5361
  334ACOH    C211567   7.688   9.951   9.237 -0.0879  0.0949 -0.0171
  334ACOH    O111568   7.745   9.967   9.347  0.4819 -0.0288  0.0318
  334ACOH    C111569   7.631   9.820   9.202  0.4910  0.1060  0.6601
  334ACOH    H111570   7.525   9.831   9.182 -0.0668 -0.7629  3.0364
  334ACOH    H211571   7.637   9.761   9.293 -0.6901 -1.1242 -0.0482
  334ACOH    H311572   7.691   9.767   9.128 -0.0985  0.2493  0.0729
  335ACOH    H411573   2.352   7.810   2.325 -1.4698  0.1688 -1.2766
  335ACOH    O211574   2.268   7.789   2.368 -0.4863 -0.0714  0.5895
  335ACOH    C211575   2.181   7.828   2.274 -0.0311  0.3453  0.0929
  335ACOH    O111576   2.200   7.872   2.159  0.0130 -0.8883  0.3530
  335ACOH    C111577   2.043   7.821   2.331  0.1720  0.4052 -0.6538
  335ACOH    H111578   2.032   7.739   2.401  1.8913 -0.2281 -1.1020
  335ACOH    H211579   1.971   7.802   2.251 -0.7051 -1.1964  0.5027
  335ACOH    H311580   2.036   7.918   2.381  0.5128  1.3932 -2.4517
  336ACOH    H411581   4.142   2.350   2.692 -2.5518  0.7090  1.1868
  336ACOH    O211582   4.189   2.359   2.776 -0.1697  0.0714 -0.0450
  336ACOH    C211583   4.228   2.490   2.780  0.1928 -0.3067  0.9654
  336ACOH    O111584   4.206   2.574   2.697  0.0820  0.4040 -0.2323
  336ACOH    C111585   4.288   2.525   2.910 -0.1195 -0.0560  0.8311
  336ACOH    H111586   4.237   2.617   2.939  1.8052  1.5517 -0.7855
  336ACOH    H211587   4.393   2.547   2.891  0.1316 -1.4163  0.5452
  336ACOH    H311588   4.287   2.442   2.981  1.7353 -1.2598 -0.4969
  337ACOH    H411589   4.989   8.386   0.512  0.5578  1.3814  0.9041
  337ACOH    O211590   5.059   8.347   0.568  0.3033 -0.2808  0.0889
  337ACOH    C211591   5.001   8.244   0.629  0.0329 -0.6427 -0.4933
  337ACOH    O111592   4.900   8.182   0.594  0.2334 -0.0717 -0.5762
  337ACOH    C111593   5.111   8.184   0.704  0.0111 -0.1898  0.4930
  337ACOH    H111594   5.157   8.256   0.772  2.5281 -1.4649  0.1708
  337ACOH    H211595   5.185   8.139   0.638 -1.2647 -1.9303  0.1986
  337ACOH    H311596   5.076   8.101   0.766  2.0224 -1.3676  0.0991
  338ACOH    H411597   4.435   6.037   7.095 -2.1614 -1.2663  0.5026
  338ACOH    O211598   4.362   6.058   7.034 -0.4656  0.7121 -0.9116
  338ACOH    C211599   4.282   6.135   7.111 -0.1179  0.1574 -0.1766
  338ACOH    O111600   4.298   6.183   7.221  0.4459  0.4950  0.9298
  338ACOH    C111601   4.162   6.155   7.038 -0.5965  0.1977  0.4050
  338ACOH    H111602   4.114   6.063   7.005  1.7555 -0.7354 -0.5113
  338ACOH    H211603   4.184   6.221   6.954  0.4160  1.6901  1.8255
  338ACOH    H311604   4.090   6.199   7.107  0.5739 -2.0429  3.1456
  339ACOH    H411605   7.880   2.729   2.009 -0.7456  1.4716  0.5494
  339ACOH    O211606   7.917   2.812   1.975  0.3975  0.6618 -0.2071
  339ACOH    C211607   7.923   2.898   2.080 -0.4801 -0.3933  0.5904
  339ACOH    O111608   7.930   2.866   2.198  0.6808  0.3115  0.3533
  339ACOH    C111609   7.953   3.034   2.035 -0.1550 -1.2793  0.5385
  339ACOH    H111610   8.013   3.036   1.944 -0.5057  0.5430  0.3156
  339ACOH    H211611   8.014   3.085   2.109 -1.3270 -1.2600  1.5158
  339ACOH    H311612   7.857   3.079   2.008  0.4010  0.8288  1.9376
  340ACOH    H411613   2.580   1.836   8.661 -0.0462  0.1538 -1.0119
  340ACOH    O211614   2.628   1.795   8.735 -0.1487  1.2559 -0.3282
  340ACOH    C211615   2.612   1.875   8.840  0.1285  0.2147 -0.0594
  340ACOH    O111616   2.568   1.986   8.835  0.1504 -0.4451  0.1268
  340ACOH    C111617   2.691   1.834   8.967 -0.2155 -0.3179  0.1403
  340ACOH    H111618   2.634   1.751   9.007 -0.7016 -0.3948 -0.6862
  340ACOH    H211619   2.686   1.924   9.028 -0.8557  0.7615 -1.4601
  340ACOH    H311620   2.793   1.798   8.955  0.3513  1.3720 -0.3350
  341ACOH    H411621   4.322   4.388   3.226  1.4967 -1.0311  0.8269
  341ACOH    O211622   4.317   4.298   3.191 -0.2757 -0.5669 -0.2322
  341ACOH    C211623   4.365   4.310   3.067 -0.3195  0.2002 -0.4168
  341ACOH    O111624   4.358   4.406   2.997  0.0476  0.2923  0.1858
  341ACOH    C111625   4.424   4.186   3.016  0.1576  0.0951 -0.1717
  341ACOH    H111626   4.349   4.110   3.034  1.0192 -1.2864 -2.2464
  341ACOH    H211627   4.514   4.150   3.066  0.0685 -1.0843 -0.8410
  341ACOH    H311628   4.453   4.168   2.912  0.6229  1.8086 -0.3618
  342ACOH    H411629   1.925   0.466   3.892 -1.2976  0.2566  0.7215
  342ACOH    O211630   1.900   0.477   3.799  0.2414  0.7410  0.3483
  342ACOH    C211631   1.795   0.398   3.770  0.2484  0.4631 -0.5992
  342ACOH    O111632   1.728   0.339   3.854 -0.2031 -0.1926 -0.0507
  342ACOH    C111633   1.739   0.436   3.637  0.6848  0.4161  0.1443
  342ACOH    H111634   1.631   0.423   3.632  0.6019  1.8118 -2.6861
  342ACOH    H211635   1.785   0.379   3.556  2.4100  2.1554 -0.1381
  342ACOH    H311636   1.768   0.539   3.617  1.9511 -0.1811 -1.2522
  343ACOH    H411637   7.523   7.180   9.213  0.4134  0.4292  1.2489
  343ACOH    O211638   7.512   7.092   9.255  0.5434 -0.1632  0.0524
  343ACOH    C211639   7.390   7.041   9.228  0.2321 -0.5526 -0.9394
  343ACOH    O111640   7.286   7.093   9.182  0.6662 -0.0625  0.7842
  343ACOH    C111641   7.375   6.919   9.305  0.4482  0.2679  0.4653
  343ACOH    H111642   7.473   6.873   9.324  0.4116 -0.1678 -0.3719
  343ACOH    H211643   7.312   6.853   9.246  0.1558 -0.5263  1.6445
  343ACOH    H311644   7.329   6.945   9.400 -0.7179 -0.5257  0.1290
  344ACOH    H411645   4.035   0.496   2.707 -0.2601 -1.6602  0.7449
  344ACOH    O211646   4.064   0.519   2.797 -0.6184  0.1107  0.4329
  344ACOH    C211647   3.972   0.501   2.893 -0.0246  0.1752 -0.3148
  344ACOH    O111648   3.862   0.451   2.866  0.3773  0.6112  0.0915
  344ACOH    C111649   4.029   0.509   3.030 -0.1495  0.4559 -0.0041
  344ACOH    H111650   3.959   0.558   3.097 -0.4742 -1.7596  1.3140
  344ACOH    H211651   4.123   0.564   3.030  0.3750 -0.3961  2.5281
  344ACOH    H311652   4.040   0.410   3.074 -2.6651  0.3929  0.5416
  345ACOH    H411653   4.383   4.521   3.772  0.2918  0.2781 -1.9467
  345ACOH    O211654   4.382   4.617   3.786  0.2636 -0.0182  0.1228
  345ACOH    C211655   4.290   4.672   3.700 -0.0387 -0.1020 -0.4916
  345ACOH    O111656   4.239   4.627   3.602 -0.0955 -0.2823 -0.1837
  345ACOH    C111657   4.261   4.817   3.738  0.3096  0.5466 -0.3155
  345ACOH    H111658   4.202   4.868   3.662 -0.8552  0.1902  0.3201
  345ACOH    H211659   4.350   4.877   3.757 -0.7649  1.7391  1.1448
  345ACOH    H311660   4.199   4.816   3.829 -0.6912 -1.7795 -1.0041
  346ACOH    H411661   5.209   7.031   3.179  0.4935 -1.7220 -0.0024
  346ACOH    O211662   5.298   7.035   3.139  0.1452 -0.0616 -0.6792
  346ACOH    C211663   5.384   7.111   3.209 -0.3862 -0.1815  0.1033
  346ACOH    O111664   5.339   7.194   3.284 -0.1517 -0.2674  0.2971
  346ACOH    C111665   5.522   7.119   3.156 -0.4120  0.1069 -0.3051
  346ACOH    H111666   5.531   7.119   3.047 -2.3863  0.3741 -0.4880
  346ACOH    H211667   5.570   7.037   3.209 -0.8073  1.7876  2.7448
  346ACOH    H311668   5.559   7.218   3.179  0.6433 -0.2720 -0.3437
  347ACOH    H411669   1.570   5.063   9.278 -0.4516  0.4515  0.4495
  347ACOH    O211670   1.547   5.115   9.199  0.4649 -0.4695 -0.4336
  347ACOH    C211671   1.413   5.119   9.199 -0.0448 -0.0284  0.3969
  347ACOH    O111672   1.337   5.090   9.295 -0.6982  0.0593 -0.3440
  347ACOH    C111673   1.366   5.181   9.076 -0.0032 -0.0799 -0.0555
  347ACOH    H111674   1.322   5.277   9.102 -2.1050 -1.4310  1.5352
  347ACOH    H211675   1.281   5.119   9.048 -0.1749  0.6831 -1.2741
  347ACOH    H311676   1.442   5.178   8.997 -0.0685  1.5097 -0.1862
  348ACOH    H411677   5.055   2.997   2.548  1.6750  1.0411  0.9542
  348ACOH    O211678   5.007   2.980   2.631  0.0888  1.0254  0.0554
  348ACOH    C211679   4.972   3.100   2.688  0.8979 -0.2738 -0.3393
  348ACOH    O111680   5.003   3.212   2.657 -0.2316 -0.6637  0.0182
  348ACOH    C111681   4.887   3.068   2.807  0.1817  0.0198  0.5771
  348ACOH    H111682   4.787   3.112   2.799  0.7421  0.9215 -1.8786
  348ACOH    H211683   4.937   3.096   2.899  2.3913  0.7181 -0.8018
  348ACOH    H311684   4.875   2.959   2.805 -2.4141  0.2764 -3.0798
  349ACOH    H411685   3.925   7.538   5.974 -1.2707 -0.5780 -1.1788
  349ACOH    O211686   3.986   7.529   5.899  0.5463 -0.3735  0.2480
  349ACOH    C211687   4.082   7.627   5.912  0.1385 -0.0048  0.7040
  349ACOH    O111688   4.115   7.704   6.000 -0.1360  0.8872  0.0240
  349ACOH    C111689   4.151   7.631   5.782 -0.4206  0.0486  0.0293
  349ACOH    H111690   4.194   7.729   5.765  0.5226 -0.3732 -0.0718
  349ACOH    H211691   4.073   7.612   5.708 -0.4975 -0.6324  0.2774
  349ACOH    H311692   4.223   7.549   5.775 -0.7480 -0.0833 -2.3610
  350ACOH    H411693   5.216   8.671   1.077  0.0419 -0.8854 -2.4456
  350ACOH    O211694   5.307   8.697   1.056  0.3522 -0.0791 -0.2859
  350ACOH    C211695   5.379   8.589   1.096  0.3175 -0.3126  0.2162
  350ACOH    O111696   5.332   8.477   1.107 -0.2270 -0.2405 -0.1428
  350ACOH    C111697   5.523   8.620   1.078 -0.4679  0.2698 -0.5612
  350ACOH    H111698   5.575   8.545   1.018 -0.7221  1.0170 -1.7489
  350ACOH    H211699   5.580   8.638   1.169  0.4404 -1.2079 -0.8191
  350ACOH    H311700   5.535   8.716   1.027 -0.0578 -0.6517 -2.2645
  351ACOH    H411701   5.938   1.979   3.822 -2.0661  0.9256 -2.2588
  351ACOH    O211702   5.872   1.991   3.892  0.3028 -0.4367  0.3312
  351ACOH    C211703   5.896   2.104   3.957 -0.3758  0.6606  0.3373
  351ACOH    O111704   5.999   2.171   3.944  0.4968  0.0121  0.3188
  351ACOH    C111705   5.781   2.148   4.045 -0.5848 -0.1812 -0.2198
  351ACOH    H111706   5.710   2.066   4.054 -1.1310  0.5742  2.8167
  351ACOH    H211707   5.729   2.236   4.010 -0.4403 -0.4009 -0.9980
  351ACOH    H311708   5.814   2.161   4.148  1.7083 -0.3449 -0.8917
  352ACOH    H411709   3.805   8.116   0.433 -0.0658  1.1446  0.4598
  352ACOH    O211710   3.727   8.105   0.490  0.0591 -0.2761  0.3868
  352ACOH    C211711   3.625   8.155   0.420 -0.5957  0.1827  0.0691
  352ACOH    O111712   3.628   8.229   0.326  0.0366  0.0966  0.3945
  352ACOH    C111713   3.502   8.097   0.474  0.5383 -0.0111  0.2400
  352ACOH    H111714   3.469   8.173   0.545  0.9331 -0.5592  1.0193
  352ACOH    H211715   3.529   8.011   0.536 -0.0853  1.0397  2.0256
  352ACOH    H311716   3.425   8.072   0.401  0.1104  2.6568 -0.2852
  353ACOH    H411717   6.224   8.475   7.480 -0.7644  0.5244 -0.3386
  353ACOH    O211718   6.208   8.453   7.573  0.3564  0.3514 -0.1866
  353ACOH    C211719   6.317   8.412   7.638  0.3977 -0.7110 -0.1961
  353ACOH    O111720   6.426   8.394   7.592 -0.0722  0.1007 -0.5962
  353ACOH    C111721   6.295   8.410   7.786 -0.4638 -0.3172  0.5810
  353ACOH    H111722   6.393   8.399   7.833  0.7727 -0.7175 -2.0242
  353ACOH    H211723   6.226   8.331   7.814 -0.4793  0.4184  2.7028
  353ACOH    H311724   6.267   8.512   7.814  1.0664  0.2419  0.1733
  354ACOH    H411725   7.517   1.605   7.523  1.1494  1.1873  1.4749
  354ACOH    O211726   7.583   1.647   7.465  0.3266  0.0197 -0.3559
  354ACOH    C211727   7.647   1.739   7.540 -0.1767  0.9363 -0.0730
  354ACOH    O111728   7.607   1.767   7.651  0.2665  0.4830 -0.4409
  354ACOH    C111729   7.777   1.777   7.484  0.2368 -1.0870 -0.1685
  354ACOH    H111730   7.818   1.851   7.553 -1.4733 -2.7591  2.7565
  354ACOH    H211731   7.764   1.809   7.381  0.9071  1.5108  0.5095
  354ACOH    H311732   7.844   1.691   7.483  1.3521 -0.2189 -0.8979
  355ACOH    H411733   8.237   3.545   6.984  1.4834  1.2342 -2.0146
  355ACOH    O211734   8.158   3.591   6.951  0.1626  0.3848 -0.0755
  355ACOH    C211735   8.137   3.565   6.817 -0.5216 -0.3347 -0.4913
  355ACOH    O111736   8.197   3.484   6.751 -0.3058 -0.4700 -0.7424
  355ACOH    C111737   8.020   3.635   6.760  0.2874  0.0351  0.1213
  355ACOH    H111738   7.944   3.666   6.831  0.2240 -1.7856  0.8704
  355ACOH    H211739   7.969   3.575   6.685 -1.3836  1.9510 -0.3342
  355ACOH    H311740   8.071   3.714   6.703 -2.3732  0.8566 -1.2203
  356ACOH    H411741   4.538   5.187   9.096  0.6711  0.5498  0.6724
  356ACOH    O211742   4.477   5.262   9.110  0.1240  0.2244  0.0501
  356ACOH    C211743   4.542   5.375   9.089 -0.0151  0.0711  0.1153
  356ACOH    O111744   4.660   5.391   9.066 -0.1507  0.0849  0.0738
  356ACOH    C111745   4.457   5.498   9.114 -0.3560  0.1348  0.4332
  356ACOH    H111746   4.451   5.521   9.221  3.5336 -1.6073  1.1225
  356ACOH    H211747   4.354   5.484   9.082  0.3112 -0.8598 -1.3406
  356ACOH    H311748   4.498   5.580   9.056 -2.3239  0.4473 -0.5553
  357ACOH    H411749   6.277   2.443   4.674 -3.6103 -0.6486  0.0537
  357ACOH    O211750   6.301   2.373   4.611 -0.5214  0.2644  0.1081
  357ACOH    C211751   6.215   2.277   4.629 -0.7008 -0.2543  0.2712
  357ACOH    O111752   6.142   2.256   4.723  0.2311 -0.7564 -0.3332
  357ACOH    C111753   6.230   2.177   4.515 -0.2064  0.1250  0.0013
  357ACOH    H111754   6.255   2.231   4.424 -0.8460  1.5478  0.6631
  357ACOH    H211755   6.132   2.135   4.491  1.5183 -2.2241 -3.2511
  357ACOH    H311756   6.303   2.099   4.538  0.1919  0.3682 -0.4255
  358ACOH    H411757   9.726   1.242   7.945 -0.5639  0.2825 -1.9383
  358ACOH    O211758   9.653   1.304   7.931 -0.7925  0.5645  0.2371
  358ACOH    C211759   9.575   1.280   8.039  0.1660 -0.1836 -0.5976
  358ACOH    O111760   9.585   1.186   8.117  0.3660  0.0514  0.0205
  358ACOH    C111761   9.460   1.369   8.037 -0.1040 -0.8122  0.5604
  358ACOH    H111762   9.390   1.350   8.118 -1.6973  0.5098 -0.4905
  358ACOH    H211763   9.399   1.367   7.947  0.9814  2.8494 -0.3302
  358ACOH    H311764   9.496   1.472   8.043 -1.0147 -0.2569 -2.6518
  359ACOH    H411765   5.480   5.888   7.751  1.1044  4.7733  3.0528
  359ACOH    O211766   5.575   5.874   7.737  0.1164 -0.7001  0.8251
  359ACOH    C211767   5.613   5.799   7.839 -0.4274 -0.5725 -0.6918
  359ACOH    O111768   5.554   5.771   7.944 -0.2724 -0.1624  0.1361
  359ACOH    C111769   5.754   5.762   7.826  0.3622 -0.2159  0.0352
  359ACOH    H111770   5.780   5.707   7.916  0.8545 -2.1720 -1.2673
  359ACOH    H211771   5.808   5.857   7.820  0.2412  0.0145  2.1452
  359ACOH    H311772   5.759   5.699   7.737 -1.3652  1.3782 -1.2356
  360ACOH    H411773   4.792   7.706   0.262 -0.8274  1.1588  0.7658
  360ACOH    O211774   4.829   7.763   0.331  0.9496  0.4414  0.4248
  360ACOH    C211775   4.943   7.705   0.383  0.3198 -0.0241 -0.7056
  360ACOH    O111776   4.946   7.584   0.406 -0.0716  0.9178  0.3663
  360ACOH    C111777   5.021   7.798   0.468  0.0482 -0.0045  0.1017
  360ACOH    H111778   4.985   7.790   0.570  1.3134  0.9434  0.6482
  360ACOH    H211779   5.014   7.903   0.437 -1.4280 -0.1952 -0.2121
  360ACOH    H311780   5.126   7.769   0.465  0.1501  0.0985  2.0403
  361ACOH    H411781   7.510   8.942   4.925 -1.4962  0.1825 -1.3229
  361ACOH    O211782   7.475   8.963   5.013  0.2746  0.1175 -0.6058
  361ACOH    C211783   7.466   9.094   5.043  0.1930  0.2756  0.2803
  361ACOH    O111784   7.543   9.175   4.997 -0.1808  0.0010  0.5965
  361ACOH    C111785   7.376   9.122   5.153  0.6248  0.3618 -0.4841
  361ACOH    H111786   7.272   9.113   5.122 -0.2192  0.2060  2.2381
  361ACOH    H211787   7.387   9.216   5.205 -0.1261  0.1273  0.1078
  361ACOH    H311788   7.389   9.042   5.227 -0.2711 -0.1826 -0.9020
  362ACOH    H411789   8.450   2.372   6.475 -1.7798  0.0605 -0.0283
  362ACOH    O211790   8.414   2.282   6.473  0.1571 -0.7343 -0.4326
  362ACOH    C211791   8.396   2.263   6.609 -0.0985 -0.2305  0.1306
  362ACOH    O111792   8.397   2.342   6.702 -0.4607 -0.3778  0.4593
  362ACOH    C111793   8.371   2.126   6.649  0.4270 -0.0604 -0.3416
  362ACOH    H111794   8.438   2.063   6.590 -0.1272 -0.9014 -0.0601
  362ACOH    H211795   8.266   2.109   6.628  0.0503  0.2617  1.2062
  362ACOH    H311796   8.402   2.112   6.752  0.4364  1.6036 -0.0983
  363ACOH    H411797   4.245   5.803   4.542 -1.6733  1.7356 -0.9706
  363ACOH    O211798   4.231   5.828   4.635  0.3347 -0.7606  0.0879
  363ACOH    C211799   4.352   5.807   4.690 -0.2816  0.1100 -0.4265
  363ACOH    O111800   4.449   5.753   4.641  0.0754  0.0282 -0.5225
  363ACOH    C111801   4.352   5.869   4.821  0.8910 -0.9840  0.6947
  363ACOH    H111802   4.262   5.923   4.848  1.3782 -0.3416  1.0230
  363ACOH    H211803   4.430   5.944   4.810 -0.2579  0.1558  0.1188
  363ACOH    H311804   4.379   5.811   4.909  1.8724  0.4595  1.3545
  364ACOH    H411805   4.869   7.972   0.993 -0.9223  0.9039  0.1305
  364ACOH    O211806   4.925   7.999   1.067  0.0922 -0.0359 -0.2640
  364ACOH    C211807   4.832   8.025   1.165 -0.2629  0.3159  0.5927
  364ACOH    O111808   4.712   8.033   1.147 -0.0094  0.1169 -0.5679
  364ACOH    C111809   4.890   8.117   1.266  0.6199  0.3275 -0.2852
  364ACOH    H111810   4.967   8.062   1.320 -0.8212 -0.7358  0.7206
  364ACOH    H211811   4.809   8.145   1.333 -0.8074 -1.5287 -1.1467
  364ACOH    H311812   4.931   8.208   1.222  0.5692  0.0028 -1.0251
  365ACOH    H411813   4.035   1.997   3.200 -0.9125  0.5391  0.0242
  365ACOH    O211814   4.102   2.068   3.203 -0.3229 -0.0220  0.1477
  365ACOH    C211815   4.039   2.185   3.180 -0.9355 -0.0397 -0.2177
  365ACOH    O111816   3.926   2.192   3.129  0.2754 -0.3608  0.2246
  365ACOH    C111817   4.123   2.308   3.206  0.7212  0.4358  0.8554
  365ACOH    H111818   4.138   2.313   3.313  0.0925 -1.6544  1.0695
  365ACOH    H211819   4.073   2.399   3.173 -0.5437 -0.3424  0.5890
  365ACOH    H311820   4.221   2.286   3.164  0.6485  0.2162  0.7971
  366ACOH    H411821   0.510   6.398   2.051  0.2768 -1.3101  1.8567
  366ACOH    O211822   0.605   6.406   2.032 -0.1812  0.6359  0.1904
  366ACOH    C211823   0.618   6.474   1.915 -0.1146 -0.0933  0.2056
  366ACOH    O111824   0.523   6.527   1.862 -0.5651  0.1721  0.3417
  366ACOH    C111825   0.759   6.486   1.870  0.6731  0.5657  0.5022
  366ACOH    H111826   0.787   6.589   1.847  0.9626 -0.4203 -4.1122
  366ACOH    H211827   0.766   6.423   1.781 -1.0914  0.2921  0.5448
  366ACOH    H311828   0.819   6.438   1.948  0.8708  0.2688  0.1727
  367ACOH    H411829   2.845   6.644   2.962  0.2057 -2.9247  1.7356
  367ACOH    O211830   2.938   6.672   2.966 -0.5081 -0.2171  0.4215
  367ACOH    C211831   2.936   6.781   2.883 -0.8340 -0.5253  0.2643
  367ACOH    O111832   2.850   6.813   2.803  0.1267  0.0687 -0.2838
  367ACOH    C111833   3.053   6.876   2.905  0.3262  0.4447  0.1677
  367ACOH    H111834   3.103   6.889   2.809 -1.7221  1.5859 -0.7804
  367ACOH    H211835   3.126   6.841   2.978 -0.2986 -0.7060  0.2490
  367ACOH    H311836   3.018   6.974   2.937  1.7103  1.0055 -0.0060
  368ACOH    H411837   7.707   7.468   9.224 -0.0630  2.1630 -1.1283
  368ACOH    O211838   7.634   7.519   9.263 -0.3746  0.3642  0.7522
  368ACOH    C211839   7.520   7.468   9.233  1.1786  0.7146 -0.1546
  368ACOH    O111840   7.499   7.356   9.184 -0.2780  0.3537  0.0308
  368ACOH    C111841   7.416   7.547   9.292  0.1621 -0.0343 -0.1190
  368ACOH    H111842   7.394   7.634   9.229  0.5687  0.3374  0.2575
  368ACOH    H211843   7.432   7.579   9.395 -0.8596 -0.9537  0.3416
  368ACOH    H311844   7.330   7.480   9.292  0.6831 -0.7095 -0.6073
  369ACOH    H411845   5.135   7.231   3.645 -1.0478  1.4295 -0.0411
  369ACOH    O211846   5.085   7.180   3.711 -0.1504  0.5172 -0.0423
  369ACOH    C211847   5.014   7.075   3.654  0.6612  0.0903 -0.0317
  369ACOH    O111848   5.041   7.028   3.547 -0.1062 -0.3363 -0.2596
  369ACOH    C111849   4.946   6.997   3.760  0.6015 -0.2710 -0.5076
  369ACOH    H111850   4.843   7.029   3.775  0.6144 -0.5681  0.1960
  369ACOH    H211851   4.998   7.013   3.854  2.4084 -0.7772 -1.4108
  369ACOH    H311852   4.948   6.891   3.736  0.2314 -0.6028  0.8882
  370ACOH    H411853   5.091   9.837   0.803  2.2126  2.6959  0.1748
  370ACOH    O211854   5.164   9.773   0.800 -0.1391 -0.0859  0.1689
  370ACOH    C211855   5.134   9.682   0.705  0.9347  0.3233  0.5862
  370ACOH    O111856   5.025   9.650   0.666 -0.2370 -0.5158  0.0594
  370ACOH    C111857   5.255   9.595   0.689  0.1722  0.4405  0.0588
  370ACOH    H111858   5.248   9.491   0.719  1.4913  0.1571 -0.6182
  370ACOH    H211859   5.339   9.635   0.745  0.3138 -1.3173  1.1181
  370ACOH    H311860   5.284   9.611   0.585 -2.4524  0.2354 -0.7430
  371ACOH    H411861   5.751   5.273   7.520 -0.4845  1.4316  0.8232
  371ACOH    O211862   5.771   5.339   7.452 -0.1157  0.1697 -0.3098
  371ACOH    C211863   5.723   5.452   7.507 -0.4219 -0.0564 -0.3281
  371ACOH    O111864   5.681   5.458   7.623 -0.3957  0.0429  0.2932
  371ACOH    C111865   5.719   5.568   7.412  0.4320 -0.4833  0.3360
  371ACOH    H111866   5.674   5.536   7.318 -2.6058  0.7201  1.3057
  371ACOH    H211867   5.816   5.614   7.393  0.6877 -1.2586 -0.2775
  371ACOH    H311868   5.655   5.648   7.450 -0.6979 -1.0022 -0.4306
  372ACOH    H411869   9.821   4.891   3.740 -1.3063  1.6022  0.6540
  372ACOH    O211870   9.797   4.876   3.647  0.4928  0.1605  0.4008
  372ACOH    C211871   9.860   4.975   3.573 -0.1255 -0.3226 -0.2584
  372ACOH    O111872   9.924   5.072   3.619 -0.0670  0.1409  0.0737
  372ACOH    C111873   9.831   4.965   3.431  0.7409 -0.0734 -0.1204
  372ACOH    H111874   9.776   4.876   3.401  1.0424 -0.2209 -0.2408
  372ACOH    H211875   9.927   4.958   3.379  0.8727  0.9121 -0.0158
  372ACOH    H311876   9.770   5.050   3.401  1.0504 -0.0491 -0.6798
  373ACOH    H411877   5.208   0.817   0.054 -0.7738 -0.9076  1.4658
  373ACOH    O211878   5.287   0.764   0.076  0.5255  0.0531 -0.6855
  373ACOH    C211879   5.311   0.787   0.208  0.1068  0.9319  0.0377
  373ACOH    O111880   5.277   0.882   0.270  0.3512 -0.3049  0.7069
  373ACOH    C111881   5.442   0.718   0.234 -0.0534  0.2938 -0.4000
  373ACOH    H111882   5.519   0.786   0.269  0.1169  0.8034 -1.7339
  373ACOH    H211883   5.482   0.666   0.147 -0.2384 -1.4051  0.5128
  373ACOH    H311884   5.430   0.646   0.315 -1.3640  0.3517 -0.5378
  374ACOH    H411885   4.791   5.485   5.066  0.1354 -0.2170 -0.0566
  374ACOH    O211886   4.865   5.479   5.003  0.1762  0.2225 -0.0534
  374ACOH    C211887   4.819   5.545   4.897  0.5166 -0.0243  0.4949
  374ACOH    O111888   4.705   5.587   4.871  1.0754  0.4056  0.8247
  374ACOH    C111889   4.935   5.565   4.802 -0.9374 -0.6067 -0.4231
  374ACOH    H111890   4.963   5.670   4.798 -1.0754 -0.6100 -2.0045
  374ACOH    H211891   4.922   5.520   4.703 -2.2278 -2.3090  0.4948
  374ACOH    H311892   5.023   5.513   4.839  0.0179  0.3029 -1.3728
  375ACOH    H411893   7.808   9.056   9.106  3.0612 -1.0118  0.9209
  375ACOH    O211894   7.765   8.971   9.127  0.1888  0.2409  0.2379
  375ACOH    C211895   7.825   8.951   9.248 -1.1548  0.2242  0.2665
  375ACOH    O111896   7.866   9.038   9.322 -0.0083 -0.0083 -0.0580
  375ACOH    C111897   7.802   8.810   9.287 -0.3921 -0.4210 -0.1157
  375ACOH    H111898   7.895   8.762   9.255 -0.9176 -3.1723  2.2594
  375ACOH    H211899   7.729   8.756   9.226 -1.5187  2.1643 -1.1299
  375ACOH    H311900   7.781   8.793   9.392  0.2135  1.0895  0.2618
  376ACOH    H411901   6.052   6.592   1.335  0.0456  0.6301 -1.9125
  376ACOH    O211902   6.145   6.606   1.359 -0.3610 -0.3039  0.3145
  376ACOH    C211903   6.170   6.495   1.434  0.5005 -0.6610  0.5319
  376ACOH    O111904   6.087   6.411   1.469  0.6207 -0.1199  0.0864
  376ACOH    C111905   6.304   6.508   1.502 -0.5501  0.0774 -0.1784
  376ACOH    H111906   6.301   6.557   1.599 -2.7112 -0.4034  0.0176
  376ACOH    H211907   6.379   6.555   1.438  0.5260 -0.4369  0.6792
  376ACOH    H311908   6.348   6.410   1.523 -0.7235  0.2879  1.2003
  377ACOH    H411909   7.576   6.098   9.903  0.5749 -0.0866  0.6332
  377ACOH    O211910   7.602   6.006   9.884 -0.1579 -0.1787  0.0339
  377ACOH    C211911   7.727   6.000   9.932 -1.1051 -0.5165 -0.1332
  377ACOH    O111912   7.806   6.096   9.930  0.3207  0.1316  0.2153
  377ACOH    C111913   7.794   5.866   9.916  0.0727  0.8197  0.0009
  377ACOH    H111914   7.725   5.782   9.912  0.2207  0.6119  1.3296
  377ACOH    H211915   7.858   5.847  10.003  1.4685  1.3703 -0.9016
  377ACOH    H311916   7.851   5.877   9.824 -1.1563  0.4777 -0.8116
  378ACOH    H411917   6.051   2.805   5.025  0.2718  0.4697 -2.6315
  378ACOH    O211918   6.127   2.749   5.000  0.4390 -0.5400 -0.0562
  378ACOH    C211919   6.234   2.835   4.994  0.6074 -0.4583  0.2592
  378ACOH    O111920   6.332   2.806   4.928 -0.2576  0.2802 -0.4544
  378ACOH    C111921   6.203   2.975   5.043 -0.3899 -0.0258  0.0758
  378ACOH    H111922   6.102   3.001   5.011 -0.2010  0.8113  0.1479
  378ACOH    H211923   6.261   3.054   4.996  0.5783 -0.7546  0.0329
  378ACOH    H311924   6.213   2.987   5.151  2.1832  0.6925 -0.2080
  379ACOH    H411925   5.782   3.999   0.789 -0.4768 -0.8744 -2.5660
  379ACOH    O211926   5.783   4.086   0.747  0.1751  0.3832 -0.0095
  379ACOH    C211927   5.896   4.151   0.783  0.1767  0.2237 -0.5060
  379ACOH    O111928   5.987   4.107   0.852 -0.8101  0.1844  0.1733
  379ACOH    C111929   5.903   4.287   0.723 -0.3445  0.1184 -0.5267
  379ACOH    H111930   6.005   4.317   0.699 -0.1966  0.5631  0.6170
  379ACOH    H211931   5.868   4.361   0.796 -0.9754  0.6353 -1.3487
  379ACOH    H311932   5.839   4.300   0.636 -0.7908  2.7414  0.1323
  380ACOH    H411933   5.707   2.105   6.438  0.5474  1.5434  0.8881
  380ACOH    O211934   5.804   2.109   6.437  0.5968  0.3710  0.0097
  380ACOH    C211935   5.854   2.003   6.495 -0.3350 -0.2137 -0.1884
  380ACOH    O111936   5.787   1.930   6.566  0.3580 -0.2612 -0.8262
  380ACOH    C111937   6.001   1.996   6.483 -0.0253  0.6654  0.1537
  380ACOH    H111938   6.037   2.002   6.586 -0.4728 -0.2918  0.3731
  380ACOH    H211939   6.042   2.075   6.421  0.1181 -0.1259 -0.7675
  380ACOH    H311940   6.028   1.899   6.441 -1.1470 -0.3379  1.6796
  381ACOH    H411941   4.921   2.997   4.300 -2.9389  0.9705 -0.3168
  381ACOH    O211942   4.930   2.971   4.207  0.0582 -0.3657  0.3016
  381ACOH    C211943   5.050   2.914   4.196 -0.1983 -0.1234  0.2792
  381ACOH    O111944   5.105   2.848   4.281 -0.1668  0.4133 -0.3412
  381ACOH    C111945   5.115   2.929   4.066 -0.1096 -0.4430  0.5022
  381ACOH    H111946   5.046   2.941   3.982 -0.0863  1.6153  0.7461
  381ACOH    H211947   5.182   2.848   4.039  1.8417  1.1132  0.5636
  381ACOH    H311948   5.180   3.017   4.063 -1.6722  0.7090 -0.0893
  382ACOH    H411949   7.412   6.727   8.412 -0.1011 -0.5655  2.6790
  382ACOH    O211950   7.365   6.811   8.429  0.4021  0.2461  0.2577
  382ACOH    C211951   7.435   6.905   8.364 -0.7605  0.1656 -0.2108
  382ACOH    O111952   7.545   6.890   8.312  0.3428  0.0493 -0.5432
  382ACOH    C111953   7.383   7.039   8.395  0.2478  0.1538  0.6801
  382ACOH    H111954   7.281   7.061   8.364  1.1248  3.7719  0.0960
  382ACOH    H211955   7.445   7.118   8.354  0.4571 -0.3509  0.0140
  382ACOH    H311956   7.390   7.053   8.503  0.4805  1.2156  0.5349
  383ACOH    H411957   4.396   5.467   6.913 -0.3382 -0.0656  0.3884
  383ACOH    O211958   4.436   5.538   6.966 -0.5326  0.3507 -0.0103
  383ACOH    C211959   4.545   5.481   7.031 -0.3557  0.1484  0.8604
  383ACOH    O111960   4.581   5.367   7.008  0.1861  0.1011  0.0547
  383ACOH    C111961   4.624   5.583   7.107  0.5863 -0.4915  0.3367
  383ACOH    H111962   4.659   5.653   7.031 -1.4590 -0.3442 -0.5039
  383ACOH    H211963   4.714   5.543   7.154  0.1724 -0.4174  1.2099
  383ACOH    H311964   4.566   5.637   7.182 -0.2943  0.0968 -0.7486
  384ACOH    H411965   5.552   2.551   4.329  0.4087  0.3164 -0.8867
  384ACOH    O211966   5.549   2.460   4.297 -0.1006 -0.0568  0.1967
  384ACOH    C211967   5.566   2.382   4.405 -0.1028  0.6687  0.2337
  384ACOH    O111968   5.605   2.414   4.514 -0.0988  0.3663  0.3405
  384ACOH    C111969   5.555   2.239   4.360  0.0997  0.6417  0.0534
  384ACOH    H111970   5.644   2.196   4.311 -1.2185 -0.3028 -1.5812
  384ACOH    H211971   5.477   2.214   4.289  0.6327  3.8301 -1.7384
  384ACOH    H311972   5.538   2.170   4.443 -0.2392 -0.4490 -0.8978
  385ACOH    H411973   5.989   0.802   7.428  3.3352  1.8868 -1.5807
  385ACOH    O211974   5.956   0.887   7.461 -0.0958 -0.0010  0.1586
  385ACOH    C211975   5.901   0.856   7.586 -0.4555  0.0504  0.0470
  385ACOH    O111976   5.903   0.749   7.649 -0.0904 -0.3911 -0.0750
  385ACOH    C111977   5.853   0.986   7.639  0.4692 -0.1055  0.1689
  385ACOH    H111978   5.762   1.006   7.581 -0.6910 -2.0557  1.2850
  385ACOH    H211979   5.919   1.072   7.625 -2.0221  1.9996  0.8195
  385ACOH    H311980   5.826   0.993   7.744  1.7795  0.4837  0.4820
  386ACOH    H411981   5.200   3.258   1.848 -1.1707 -1.8890 -0.4771
  386ACOH    O211982   5.218   3.240   1.942 -0.8225  0.1125 -0.1447
  386ACOH    C211983   5.107   3.271   2.009  0.2581  0.3123 -0.4589
  386ACOH    O111984   5.009   3.321   1.958  0.3356  0.1939 -0.1614
  386ACOH    C111985   5.154   3.280   2.149 -0.0899  0.1758 -0.3898
  386ACOH    H111986   5.066   3.292   2.212  0.6617  1.1061  0.4875
  386ACOH    H211987   5.199   3.378   2.162  1.2035 -0.2550 -1.5415
  386ACOH    H311988   5.210   3.201   2.199 -2.0779 -0.5432  0.7744
  387ACOH    H411989   2.117   6.251   3.910  0.3744 -0.3825 -0.4321
  387ACOH    O211990   2.057   6.255   3.834 -0.0569 -0.0120 -0.0713
  387ACOH    C211991   1.968   6.345   3.866  0.6928  0.6625  0.0575
  387ACOH    O111992   1.958   6.418   3.960  0.2930  0.4657 -0.0557
  387ACOH    C111993   1.870   6.351   3.758  0.2846  0.0810 -0.3600
  387ACOH    H111994   1.847   6.457   3.752  1.6572  0.4091  0.0757
  387ACOH    H211995   1.780   6.293   3.778  1.3322 -1.6430 -0.5028
  387ACOH    H311996   1.913   6.326   3.661  2.7997 -0.9901  0.9825
  388ACOH    H411997   5.464   5.357   2.550  2.0209  0.3766 -2.7644
  388ACOH    O211998   5.530   5.340   2.619 -0.2699 -0.3942 -0.6534
  388ACOH    C211999   5.590   5.219   2.607 -0.4821 -0.2127  0.3011
  388ACOH    O112000   5.585   5.128   2.528 -0.0867  0.0040 -0.0539
  388ACOH    C112001   5.677   5.200   2.723  0.0238 -0.2862 -0.3876
  388ACOH    H112002   5.768   5.259   2.706  0.6331 -1.3824 -0.9566
  388ACOH    H212003   5.702   5.095   2.735  2.1411  0.3293  0.7739
  388ACOH    H312004   5.620   5.244   2.806 -1.2391 -2.3443 -0.1445
  389ACOH    H412005   6.620   6.523   1.670 -0.7892 -3.7563 -1.0008
  389ACOH    O212006   6.602   6.559   1.581  0.0365 -0.1441  0.2283
  389ACOH    C212007   6.705   6.551   1.497  0.3383 -0.1864  0.0793
  389ACOH    O112008   6.783   6.462   1.524 -0.1273  0.3987  0.1554
  389ACOH    C112009   6.666   6.587   1.359  0.6654  0.4468  0.4655
  389ACOH    H112010   6.725   6.540   1.280  0.1037  0.8624 -0.2046
  389ACOH    H212011   6.664   6.696   1.350  1.8060  0.5847  1.7169
  389ACOH    H312012   6.565   6.553   1.340  0.1803  0.3192  3.0345
  390ACOH    H412013   4.759   0.504  10.021 -0.5916 -0.8888 -0.5463
  390ACOH    O212014   4.824   0.463  10.081 -0.3749  0.1131 -0.0872
  390ACOH    C212015   4.949   0.512  10.068  0.3789  0.9210  0.2581
  390ACOH    O112016   4.977   0.623  10.031  0.0183  0.0883  0.3476
  390ACOH    C112017   5.043   0.410  10.121 -0.5502 -0.7557 -1.0031
  390ACOH    H112018   5.069   0.448  10.220 -1.7241 -3.0816  0.2539
  390ACOH    H212019   5.129   0.387  10.058  0.5568 -0.0164  0.2195
  390ACOH    H312020   4.988   0.316  10.134 -2.0782  0.2103 -0.3939
  391ACOH    H412021   1.306   8.272   1.449 -0.8976  2.1893  2.2614
  391ACOH    O212022   1.333   8.201   1.511 -0.3885  0.2407 -0.1165
  391ACOH    C212023   1.220   8.142   1.554 -0.5724 -0.3051 -0.7560
  391ACOH    O112024   1.105   8.182   1.537  0.6352  0.5003 -0.8239
  391ACOH    C112025   1.253   8.062   1.675  0.2767 -0.3216 -0.5177
  391ACOH    H112026   1.342   8.107   1.719  0.0902 -1.3946  1.0159
  391ACOH    H212027   1.284   7.960   1.652  0.5347 -0.2061 -0.6861
  391ACOH    H312028   1.175   8.065   1.750  1.2464  0.9570  0.4572
  392ACOH    H412029   7.576   5.555   3.917 -1.6117  0.8871 -2.8770
  392ACOH    O212030   7.494   5.554   3.970  0.1167  0.4509 -0.1409
  392ACOH    C212031   7.522   5.460   4.063 -0.0185 -0.0317 -0.2609
  392ACOH    O112032   7.610   5.376   4.056  0.1234  0.4120  0.5583
  392ACOH    C112033   7.414   5.454   4.158 -0.0563  0.5062  0.3606
  392ACOH    H112034   7.455   5.433   4.257 -0.1068  2.0012  0.7090
  392ACOH    H212035   7.341   5.375   4.137 -0.1400  0.1979  1.7822
  392ACOH    H312036   7.356   5.546   4.160 -0.8086  0.0452  0.2339
  393ACOH    H412037   7.847   9.504   9.238  1.9702 -0.0694 -0.5734
  393ACOH    O212038   7.863   9.470   9.327 -0.1720 -0.6671 -0.3818
  393ACOH    C212039   7.906   9.568   9.409  0.6982  0.8526 -0.2467
  393ACOH    O112040   7.958   9.670   9.376  0.5829 -0.3864 -0.6385
  393ACOH    C112041   7.894   9.523   9.548 -0.6228 -0.3704  0.2074
  393ACOH    H112042   7.792   9.496   9.574 -0.3964 -0.4498  1.0306
  393ACOH    H212043   7.935   9.597   9.616 -0.2379 -0.8128  0.4620
  393ACOH    H312044   7.957   9.435   9.562  1.4614  0.5597 -2.7752
  394ACOH    H412045   5.348   4.616   7.291  0.9087 -0.0910 -0.0414
  394ACOH    O212046   5.350   4.713   7.285  0.3773 -0.0975 -0.4354
  394ACOH    C212047   5.463   4.746   7.347 -0.3262 -0.7303  0.0769
  394ACOH    O112048   5.529   4.686   7.430 -0.1379  0.2595 -0.4944
  394ACOH    C112049   5.491   4.887   7.312 -0.1783 -0.4345  0.3445
  394ACOH    H112050   5.462   4.901   7.208 -0.1056  1.1933  0.5231
  394ACOH    H212051   5.596   4.916   7.315  0.4943 -2.1285 -3.8964
  394ACOH    H312052   5.431   4.960   7.366  0.4950 -0.3580  1.0002
  395ACOH    H412053   7.352   0.912   2.835 -0.4827 -1.7299  1.0790
  395ACOH    O212054   7.255   0.915   2.832 -0.4380  0.0268  1.0977
  395ACOH    C212055   7.211   0.786   2.837 -0.4233  0.3578  0.7573
  395ACOH    O112056   7.272   0.700   2.890  0.2354  0.1472 -0.2487
  395ACOH    C112057   7.063   0.767   2.808 -0.5557  0.1880 -0.3516
  395ACOH    H112058   7.056   0.783   2.700  3.3843 -0.6300 -0.8180
  395ACOH    H212059   7.014   0.853   2.852  1.4091  2.0226 -1.6384
  395ACOH    H312060   7.029   0.671   2.845 -1.5807  0.3489 -0.8666
  396ACOH    H412061   5.135   6.109   7.805  0.2452  0.3792  1.0043
  396ACOH    O212062   5.165   6.124   7.714 -0.6320  0.2225  0.6773
  396ACOH    C212063   5.233   6.015   7.682  0.1780  0.3343  0.3314
  396ACOH    O112064   5.309   5.947   7.747  0.2156  0.5385 -0.1038
  396ACOH    C112065   5.239   6.017   7.534 -0.2002 -0.0919  0.4187
  396ACOH    H112066   5.150   5.974   7.488 -0.0140  1.1140 -1.1015
  396ACOH    H212067   5.319   5.959   7.488  1.6875  2.2219  0.6968
  396ACOH    H312068   5.250   6.120   7.500 -0.3245  0.0592  0.8395
  397ACOH    H412069   4.354   0.555   1.050  0.2300 -1.7351 -0.1489
  397ACOH    O212070   4.300   0.514   0.979 -0.5702 -0.4634 -0.3043
  397ACOH    C212071   4.215   0.428   1.042  0.4702 -1.0136  0.1533
  397ACOH    O112072   4.237   0.357   1.139  0.3114 -0.9154 -0.3812
  397ACOH    C112073   4.123   0.396   0.933  0.9912 -0.4952 -0.6230
  397ACOH    H112074   4.094   0.485   0.879 -0.5880  0.1243  1.1811
  397ACOH    H212075   4.039   0.343   0.977 -0.1042  1.9675  0.3282
  397ACOH    H312076   4.178   0.335   0.861  0.3393 -1.2253 -0.5185
  398ACOH    H412077   5.462   9.906   8.967 -1.2996  0.8731  1.4472
  398ACOH    O212078   5.495   9.832   9.022 -0.0121  0.0555 -0.3759
  398ACOH    C212079   5.476   9.876   9.148 -0.7401  0.4906 -0.5265
  398ACOH    O112080   5.452   9.989   9.184 -0.5058 -0.3326 -0.0636
  398ACOH    C112081   5.539   9.773   9.236 -0.6818  0.1336  0.0318
  398ACOH    H112082   5.626   9.819   9.282  0.2234 -0.8141 -0.7378
  398ACOH    H212083   5.572   9.689   9.175 -1.4087  0.0711 -0.2813
  398ACOH    H312084   5.468   9.736   9.310 -0.6810 -0.5185 -0.2935
  399ACOH    H412085   5.387   4.631   6.037  0.2583 -0.4774 -1.0662
  399ACOH    O212086   5.483   4.642   6.040  0.1810  0.0191 -0.0372
  399ACOH    C212087   5.499   4.697   6.163 -0.3587  0.4234 -0.4732
  399ACOH    O112088   5.421   4.690   6.255 -0.2300  0.5179  0.4131
  399ACOH    C112089   5.637   4.748   6.182  0.7198  0.2892 -0.3313
  399ACOH    H112090   5.717   4.682   6.149 -0.0159 -1.2359  0.9221
  399ACOH    H212091   5.654   4.755   6.289 -0.4238 -1.5752 -0.0207
  399ACOH    H312092   5.646   4.847   6.137  0.3780  0.1943 -0.6168
  400ACOH    H412093   4.194   6.774   6.778  0.6860 -0.9208 -0.4356
  400ACOH    O212094   4.250   6.790   6.856  0.0170  0.7019 -0.2649
  400ACOH    C212095   4.360   6.859   6.821  0.0455  0.5294  0.1348
  400ACOH    O112096   4.372   6.909   6.709  0.8036  0.5757  0.0151
  400ACOH    C112097   4.460   6.848   6.930 -0.1561 -0.0144  0.7468
  400ACOH    H112098   4.557   6.877   6.889  1.3707 -3.3927  1.7349
  400ACOH    H212099   4.468   6.742   6.952  2.0913  0.0645  0.4116
  400ACOH    H312100   4.437   6.909   7.017  0.6038  2.9294 -1.0454
  401ACOH    H412101   3.973   7.274   8.633  0.0056  0.3682  0.7537
  401ACOH    O212102   4.065   7.282   8.663  0.0640  0.0151  0.6726
  401ACOH    C212103   4.106   7.156   8.690  0.3539 -0.4189  0.0560
  401ACOH    O112104   4.042   7.054   8.698  0.0320  0.2288 -0.6735
  401ACOH    C112105   4.246   7.154   8.735  0.3011 -0.0538 -0.3964
  401ACOH    H112106   4.250   7.128   8.841  2.9403 -2.0680 -0.9584
  401ACOH    H212107   4.283   7.255   8.717  1.7317 -0.6173 -0.6158
  401ACOH    H312108   4.307   7.083   8.681 -1.3799 -0.5985 -1.6272
  402ACOH    H412109   2.856  10.024   0.365 -1.2906  2.1988 -0.2032
  402ACOH    O212110   2.932  10.060   0.414 -0.0874  0.0114 -0.3565
  402ACOH    C212111   2.960   9.984   0.521 -0.1193  0.5695  0.0598
  402ACOH    O112112   2.902   9.878   0.553 -0.4907  0.0994  0.6352
  402ACOH    C112113   3.075  10.031   0.604 -0.8461 -0.1089 -0.1086
  402ACOH    H112114   3.124   9.946   0.651 -2.6397 -2.2778 -2.0512
  402ACOH    H212115   3.025  10.088   0.682 -2.1671 -1.0757 -0.2301
  402ACOH    H312116   3.136  10.102   0.548  0.3551 -0.6218  0.5324
  403ACOH    H412117   1.218   1.979   2.165  0.1048  0.5291 -2.1103
  403ACOH    O212118   1.314   1.976   2.177 -0.1381 -0.3817 -0.2268
  403ACOH    C212119   1.347   2.093   2.117 -0.0866 -0.4211 -0.6388
  403ACOH    O112120   1.277   2.191   2.126  0.1102  0.2666  1.0290
  403ACOH    C112121   1.486   2.115   2.093 -0.6441  0.0427  0.1636
  403ACOH    H112122   1.527   2.161   2.183  0.8740 -0.3818 -0.2895
  403ACOH    H212123   1.508   2.174   2.004 -0.9515 -3.0668 -2.0584
  403ACOH    H312124   1.533   2.018   2.077  2.1592  1.5126 -0.9323
  404ACOH    H412125   4.699   3.400   2.521 -0.2471 -0.5286 -2.4650
  404ACOH    O212126   4.693   3.303   2.513  0.2506 -0.7390 -0.4869
  404ACOH    C212127   4.779   3.271   2.412  0.2078  0.1483  0.3065
  404ACOH    O112128   4.865   3.343   2.367  0.0078  0.1517 -0.3766
  404ACOH    C112129   4.749   3.130   2.377 -0.6630  0.3562 -0.3255
  404ACOH    H112130   4.644   3.106   2.396 -0.1526 -0.9363  0.9843
  404ACOH    H212131   4.810   3.071   2.445 -1.1768  0.3458  0.1312
  404ACOH    H312132   4.777   3.116   2.273  0.3677  0.2136 -0.0342
  405ACOH    H412133   5.313   3.097   1.531  0.4582  0.9265 -0.2297
  405ACOH    O212134   5.375   3.050   1.589 -0.3114 -0.2976 -0.3812
  405ACOH    C212135   5.484   3.030   1.511  0.1691 -0.2942 -0.2982
  405ACOH    O112136   5.499   3.084   1.407  0.2969 -0.0574  0.1419
  405ACOH    C112137   5.602   2.970   1.587  0.0917  0.0885  0.6381
  405ACOH    H112138   5.638   2.889   1.524  0.3640 -0.5941  1.6628
  405ACOH    H212139   5.570   2.919   1.678  2.0579 -1.4218  0.5187
  405ACOH    H312140   5.672   3.045   1.621  0.3478 -0.3523  1.0904
  406ACOH    H412141   3.248   0.349   5.793 -1.2891  1.1139  3.8900
  406ACOH    O212142   3.336   0.380   5.821  0.2810  0.1631  0.3016
  406ACOH    C212143   3.374   0.310   5.928 -0.9813 -0.2059 -0.0994
  406ACOH    O112144   3.317   0.216   5.979  0.0501  0.1481 -0.5464
  406ACOH    C112145   3.505   0.362   5.977  1.0226 -0.4393 -0.0500
  406ACOH    H112146   3.499   0.465   6.009  0.3357 -0.2803 -0.6734
  406ACOH    H212147   3.577   0.357   5.895  0.0594  0.2536 -0.9401
  406ACOH    H312148   3.550   0.305   6.058  2.1769 -1.2426 -1.2200
  407ACOH    H412149   4.996   1.641   3.798  1.2663 -0.1730 -0.7999
  407ACOH    O212150   5.001   1.727   3.754 -0.2186  0.3233 -0.0378
  407ACOH    C212151   5.123   1.737   3.706 -0.2723 -0.1052 -0.3037
  407ACOH    O112152   5.209   1.651   3.689  0.2267 -0.2923  0.4135
  407ACOH    C112153   5.156   1.878   3.680 -0.3613 -0.2807  0.0651
  407ACOH    H112154   5.178   1.884   3.573 -2.6536  0.3298 -0.4055
  407ACOH    H212155   5.244   1.910   3.736 -1.0622 -1.8505  2.1454
  407ACOH    H312156   5.075   1.949   3.694  0.9911  1.3510 -0.2762
  408ACOH    H412157   5.093   1.452   4.340  1.5038  2.4434  0.4095
  408ACOH    O212158   5.012   1.485   4.296  0.5878 -0.2148  0.0184
  408ACOH    C212159   5.041   1.606   4.232  0.0721  0.0315 -0.3227
  408ACOH    O112160   5.145   1.641   4.178  0.0940  0.3152 -0.3951
  408ACOH    C112161   4.918   1.691   4.219  0.0433 -0.0920  0.7233
  408ACOH    H112162   4.833   1.638   4.261 -0.4429 -1.2563 -1.6185
  408ACOH    H212163   4.900   1.714   4.114  0.8144 -2.0784  0.1305
  408ACOH    H312164   4.934   1.785   4.271  1.5524 -0.2023  0.4796
  409ACOH    H412165   4.499   8.503   0.430 -0.2272  1.0568 -0.5397
  409ACOH    O212166   4.559   8.526   0.503  0.2949 -0.1531 -0.5782
  409ACOH    C212167   4.622   8.416   0.553 -0.2450 -0.3829 -0.1666
  409ACOH    O112168   4.596   8.301   0.524  0.4329 -0.0662  0.2203
  409ACOH    C112169   4.680   8.455   0.686 -0.3864 -0.6730  0.1297
  409ACOH    H112170   4.634   8.402   0.769 -3.0150  2.2820  0.6863
  409ACOH    H212171   4.667   8.562   0.706  0.9226 -0.7416  1.4587
  409ACOH    H312172   4.785   8.429   0.682  0.0087  1.0711 -2.4298
  410ACOH    H412173   5.012   5.988   3.006 -2.9534  0.7675  0.6440
  410ACOH    O212174   4.991   5.896   3.030  0.0046 -0.0894  0.1044
  410ACOH    C212175   5.023   5.822   2.922 -0.2303 -0.5804 -0.4629
  410ACOH    O112176   5.022   5.853   2.805 -0.4260  0.1731 -0.5025
  410ACOH    C112177   5.023   5.683   2.973 -0.5104 -0.8486 -0.1083
  410ACOH    H112178   5.117   5.656   3.020 -1.2772 -0.6099  1.5930
  410ACOH    H212179   5.014   5.620   2.885 -0.7903  1.9681 -2.1765
  410ACOH    H312180   4.946   5.672   3.050 -0.2257  0.1311  0.3249
  411ACOH    H412181   8.096   6.925  10.073 -1.0902  2.0694  0.7432
  411ACOH    O212182   8.152   6.955  10.000  0.1283 -0.5654  0.5493
  411ACOH    C212183   8.279   6.956  10.045  0.0448  0.1583 -0.2567
  411ACOH    O112184   8.329   6.914  10.146  0.3446 -0.8128  0.2767
  411ACOH    C112185   8.362   6.999   9.930  0.4417  0.5284  0.1910
  411ACOH    H112186   8.362   7.108   9.924 -0.0623  0.4257 -1.8726
  411ACOH    H212187   8.329   6.948   9.840  0.0013  1.3548 -0.1219
  411ACOH    H312188   8.465   6.967   9.944  0.3092 -0.2230 -0.5607
  412ACOH    H412189   6.148   4.934   7.578 -1.4205 -1.8122  1.0293
  412ACOH    O212190   6.085   4.950   7.505 -0.9731 -0.3476  0.9609
  412ACOH    C212191   5.982   4.866   7.522 -0.0487  0.7385 -0.3430
  412ACOH    O112192   5.954   4.786   7.612  0.2528 -0.1974  0.7191
  412ACOH    C112193   5.882   4.887   7.414 -0.3679 -0.7271  0.4852
  412ACOH    H112194   5.825   4.976   7.441  1.6640  0.8816 -0.3747
  412ACOH    H212195   5.810   4.806   7.415 -0.9051 -0.2675 -0.6561
  412ACOH    H312196   5.911   4.908   7.311 -1.0324  1.5866  0.7502
  413ACOH    H412197   7.789   4.535   6.594 -2.0458  0.5699 -1.5609
  413ACOH    O212198   7.818   4.488   6.513  0.0521 -0.4611 -0.2631
  413ACOH    C212199   7.888   4.376   6.538 -0.2351  0.2223  0.0772
  413ACOH    O112200   7.926   4.328   6.643  0.3680 -0.5350  0.4780
  413ACOH    C112201   7.903   4.310   6.405  0.0070  0.0672 -0.0670
  413ACOH    H112202   7.819   4.273   6.345  1.1099 -1.4099 -0.7399
  413ACOH    H212203   7.962   4.220   6.424  1.1926  1.2986  2.2312
  413ACOH    H312204   7.960   4.378   6.342 -0.9213  0.3432 -0.6271
  414ACOH    H412205   5.461   0.124   1.643  0.6858  0.8220  0.7293
  414ACOH    O212206   5.458   0.137   1.547 -0.8349 -0.4756  0.5902
  414ACOH    C212207   5.332   0.149   1.494  0.0636 -0.3837  0.8644
  414ACOH    O112208   5.232   0.139   1.565  0.1238 -0.0165 -0.1811
  414ACOH    C112209   5.328   0.142   1.347  1.0337  0.5677 -0.1719
  414ACOH    H112210   5.419   0.180   1.301 -0.7511  2.5410 -2.1788
  414ACOH    H212211   5.241   0.187   1.299  2.6018  1.1396 -2.5617
  414ACOH    H312212   5.313   0.037   1.323 -1.5212  0.4732  1.6578
  415ACOH    H412213   0.693   4.970   1.780  1.5437  1.4289  1.8279
  415ACOH    O212214   0.717   4.892   1.834 -0.1716 -0.1532  0.3910
  415ACOH    C212215   0.803   4.930   1.931 -0.2809  0.4886 -0.1374
  415ACOH    O112216   0.857   5.038   1.938  0.2591  0.6401 -0.3547
  415ACOH    C112217   0.836   4.819   2.021  0.3378  0.3965 -0.6368
  415ACOH    H112218   0.906   4.848   2.100 -0.8004  1.0727  0.1459
  415ACOH    H212219   0.870   4.726   1.976 -2.3892 -2.1855  2.2511
  415ACOH    H312220   0.750   4.777   2.074  0.2434 -0.3132 -1.3429
  416ACOH    H412221   5.174   6.429   2.777 -1.2705 -0.4108 -0.1440
  416ACOH    O212222   5.197   6.340   2.808  0.4125  0.0906  0.0450
  416ACOH    C212223   5.298   6.289   2.726  0.9303  0.3813  0.1548
  416ACOH    O112224   5.349   6.343   2.626 -0.2150  0.2705  0.0744
  416ACOH    C112225   5.331   6.148   2.751  0.6226  0.6097 -0.4757
  416ACOH    H112226   5.291   6.112   2.845 -0.9328  0.5756 -1.1358
  416ACOH    H212227   5.440   6.141   2.748  0.5059 -1.5933  0.0212
  416ACOH    H312228   5.295   6.087   2.667  3.0213  2.0079 -2.5969
  417ACOH    H412229   4.478   6.017   4.364  1.7599 -0.5827  2.0954
  417ACOH    O212230   4.561   6.007   4.314  0.3154  0.5977 -0.6672
  417ACOH    C212231   4.622   6.125   4.301  0.2653  0.2981 -0.2599
  417ACOH    O112232   4.619   6.211   4.387  0.0191 -0.4530  0.4261
  417ACOH    C112233   4.709   6.112   4.179  0.5063 -0.4609 -0.6392
  417ACOH    H112234   4.778   6.030   4.198  0.7594  0.4655  2.7851
  417ACOH    H212235   4.764   6.206   4.172 -1.0019  0.5832  0.9756
  417ACOH    H312236   4.654   6.097   4.086  1.6323  1.2792 -1.6033
  418ACOH    H412237   5.159   4.236   6.526 -2.9909  0.3715 -1.5588
  418ACOH    O212238   5.202   4.304   6.472 -0.1455  0.2338  0.4302
  418ACOH    C212239   5.230   4.253   6.352 -0.6329 -0.0409 -0.1762
  418ACOH    O112240   5.212   4.136   6.315  0.3382 -0.4259 -0.6047
  418ACOH    C112241   5.289   4.354   6.258  0.0675 -0.6926  0.8364
  418ACOH    H112242   5.393   4.374   6.287  0.2554 -1.3078  0.5876
  418ACOH    H212243   5.221   4.439   6.252  0.2340 -0.5592  0.8310
  418ACOH    H312244   5.290   4.303   6.162 -2.0863  1.0514 -0.1196
  419ACOH    H412245   7.176   5.112   6.583  0.8875 -3.2527 -0.0603
  419ACOH    O212246   7.191   5.134   6.490 -0.2165 -0.2172  0.4424
  419ACOH    C212247   7.067   5.160   6.438  0.5209 -0.2334  0.0250
  419ACOH    O112248   6.966   5.176   6.502  0.3379  0.5635 -0.8720
  419ACOH    C112249   7.070   5.179   6.291 -0.4122 -0.1670  0.6446
  419ACOH    H112250   6.966   5.193   6.259  0.1869  2.0434 -0.4332
  419ACOH    H212251   7.116   5.096   6.238 -2.5244  0.7380 -2.7772
  419ACOH    H312252   7.136   5.265   6.285 -0.6962  0.0179  0.1138
  420ACOH    H412253   6.964   6.349   6.827 -0.9815 -2.6862 -0.5594
  420ACOH    O212254   6.934   6.389   6.743  0.5416 -0.0981  0.0506
  420ACOH    C212255   6.921   6.286   6.653  0.4939 -0.8122 -0.2569
  420ACOH    O112256   6.938   6.170   6.682 -0.5870  0.4362 -0.2001
  420ACOH    C112257   6.887   6.339   6.520 -0.5571  0.0812 -0.8457
  420ACOH    H112258   6.856   6.443   6.529  1.4162  0.5248  1.4277
  420ACOH    H212259   6.810   6.274   6.479 -1.4255  0.2854  0.4560
  420ACOH    H312260   6.974   6.335   6.454 -0.1244 -0.8582 -0.2347
  421ACOH    H412261   5.326   2.317   5.952  1.0704 -0.2947  0.1869
  421ACOH    O212262   5.300   2.282   6.038  0.3834 -0.0604  0.0775
  421ACOH    C212263   5.309   2.379   6.131  0.2715  0.3341  0.1493
  421ACOH    O112264   5.326   2.499   6.114  0.1907 -0.6759 -0.0378
  421ACOH    C112265   5.279   2.315   6.259 -0.1747 -0.1063 -0.0602
  421ACOH    H112266   5.173   2.292   6.275  0.2063 -0.9328  1.3449
  421ACOH    H212267   5.297   2.385   6.340 -3.0042 -0.3588  0.8536
  421ACOH    H312268   5.328   2.218   6.266  1.7802  0.9569  1.1739
  422ACOH    H412269   7.143   6.516   8.958 -1.1159  1.3963  1.7250
  422ACOH    O212270   7.173   6.579   8.891 -0.6200 -0.1958  0.4223
  422ACOH    C212271   7.166   6.520   8.771 -0.6579 -0.1776 -0.2145
  422ACOH    O112272   7.143   6.403   8.763  0.1557 -0.1671 -0.0144
  422ACOH    C112273   7.227   6.593   8.658 -0.6708  0.6243  0.5916
  422ACOH    H112274   7.271   6.684   8.698  0.4016  0.1033  0.6165
  422ACOH    H212275   7.150   6.626   8.588 -0.0909 -0.7586 -0.7209
  422ACOH    H312276   7.299   6.541   8.596  0.1992  1.6150  0.7650
  423ACOH    H412277   7.680   9.403   8.940 -1.8229 -0.2376 -0.4800
  423ACOH    O212278   7.662   9.498   8.927 -0.0584  0.0885 -0.6468
  423ACOH    C212279   7.542   9.505   8.872 -0.4258  0.1264 -0.6151
  423ACOH    O112280   7.454   9.422   8.872 -0.7002  0.6064 -0.0417
  423ACOH    C112281   7.512   9.643   8.818 -0.3254  0.1346  1.0485
  423ACOH    H112282   7.406   9.646   8.793  0.1088  0.1710 -0.8700
  423ACOH    H212283   7.567   9.652   8.725  0.1523  0.6577  1.3765
  423ACOH    H312284   7.542   9.723   8.886  1.3993 -0.7771  1.3788
  424ACOH    H412285   6.793   1.907   6.289 -0.2829  1.7246  0.8136
  424ACOH    O212286   6.832   1.857   6.363  0.3581  0.4061 -0.3864
  424ACOH    C212287   6.745   1.879   6.454  0.1284  0.3965 -0.3941
  424ACOH    O112288   6.634   1.932   6.436  0.3482  0.0368 -0.0967
  424ACOH    C112289   6.802   1.835   6.590 -0.5046  0.0719  0.5771
  424ACOH    H112290   6.796   1.920   6.659  1.8503  0.3156  0.5249
  424ACOH    H212291   6.906   1.802   6.587 -0.5223  0.1516 -1.4349
  424ACOH    H312292   6.737   1.761   6.637 -0.3191  0.2560  1.1228
  425ACOH    H412293   5.233   7.713   6.922  0.6411 -0.3605  1.1012
  425ACOH    O212294   5.157   7.721   6.981 -0.0676 -0.1934  0.1758
  425ACOH    C212295   5.206   7.775   7.095  0.7722  0.4079 -0.5295
  425ACOH    O112296   5.320   7.806   7.126  0.2385 -0.0872  0.6161
  425ACOH    C112297   5.095   7.782   7.188  0.1067 -0.0349 -0.3278
  425ACOH    H112298   5.001   7.758   7.139 -1.4534 -2.1891  3.4992
  425ACOH    H212299   5.082   7.884   7.226 -1.9657  0.0559 -1.2309
  425ACOH    H312300   5.099   7.713   7.272  2.0565  0.9105  0.4078
  426ACOH    H412301   5.362   4.370   2.577  1.3210  1.5207 -0.6620
  426ACOH    O212302   5.285   4.401   2.627  0.9862  0.1461 -0.3039
  426ACOH    C212303   5.181   4.422   2.540  0.6492  0.5528  0.1226
  426ACOH    O112304   5.192   4.418   2.421 -0.3973  0.4494  0.1921
  426ACOH    C112305   5.060   4.479   2.602 -0.8046 -0.7391 -0.6017
  426ACOH    H112306   5.072   4.587   2.596  0.2982 -0.9339 -2.3868
  426ACOH    H212307   5.065   4.454   2.708 -0.4807 -0.1240 -0.4660
  426ACOH    H312308   4.960   4.469   2.561 -1.9152  1.2928  1.5047
  427ACOH    H412309   0.871   5.389   1.727 -1.5978 -0.2878 -1.2298
  427ACOH    O212310   0.857   5.485   1.722  0.0683  0.0870  0.4142
  427ACOH    C212311   0.788   5.503   1.611 -0.0298  0.2080 -0.0918
  427ACOH    O112312   0.743   5.421   1.537 -0.5575 -0.0363  1.0473
  427ACOH    C112313   0.788   5.645   1.577  0.0288  0.0223 -1.0951
  427ACOH    H112314   0.686   5.681   1.563  0.0074  0.9789  1.3584
  427ACOH    H212315   0.848   5.662   1.488  0.8262 -0.6987 -0.6996
  427ACOH    H312316   0.823   5.696   1.667  0.6216  0.2093 -1.4297
  428ACOH    H412317   9.209  -0.058   8.609  0.7884 -2.2932  0.1456
  428ACOH    O212318   9.197  -0.039   8.515  0.2646  0.0076  0.6618
  428ACOH    C212319   9.112   0.064   8.503 -0.3031  0.0396  0.3369
  428ACOH    O112320   9.090   0.144   8.589 -0.0664  0.2770 -0.2284
  428ACOH    C112321   9.070   0.078   8.365 -0.2608  0.6284 -0.4518
  428ACOH    H112322   9.146   0.110   8.293  1.8185 -1.3871  0.7871
  428ACOH    H212323   9.000   0.161   8.370  0.5115  1.1557  3.1408
  428ACOH    H312324   9.028  -0.017   8.333 -0.0082  0.4400 -0.2247
  429ACOH    H412325   4.389   6.582   8.027 -0.3019 -0.3845  0.8933
  429ACOH    O212326   4.458   6.641   8.063  0.1095 -0.5335  0.3453
  429ACOH    C212327   4.573   6.601   8.000 -0.3538 -0.3048 -0.0280
  429ACOH    O112328   4.592   6.504   7.935  0.0540  0.7349  0.0772
  429ACOH    C112329   4.682   6.697   8.021 -0.1849 -0.1055  0.2707
  429ACOH    H112330   4.713   6.698   8.126 -1.6978  1.3394  0.7226
  429ACOH    H212331   4.667   6.798   7.983  2.4416  0.0960 -0.3545
  429ACOH    H312332   4.766   6.657   7.964 -0.3228 -1.4837  0.9910
  430ACOH    H412333   4.795   4.872   8.619  1.1683  1.1724  1.1946
  430ACOH    O212334   4.709   4.918   8.625  0.0786 -0.5927 -0.4310
  430ACOH    C212335   4.676   4.931   8.496  0.1920  0.2089 -0.1358
  430ACOH    O112336   4.741   4.900   8.394 -0.0272 -0.8915 -0.3004
  430ACOH    C112337   4.544   5.001   8.477  0.1758 -0.2579 -0.2270
  430ACOH    H112338   4.485   4.986   8.567  1.2201  5.6858  1.6575
  430ACOH    H212339   4.484   4.964   8.394  1.8258 -0.7846 -1.2157
  430ACOH    H312340   4.550   5.110   8.472  2.9904 -0.4097 -1.3875
  431ACOH    H412341   5.889   2.651   5.715  0.6226  1.3282 -1.3152
  431ACOH    O212342   5.962   2.587   5.720 -0.6168 -0.0056  0.0525
  431ACOH    C212343   5.953   2.502   5.613  0.5454  0.2189  0.0993
  431ACOH    O112344   5.866   2.506   5.526 -0.1448 -0.8023 -0.1278
  431ACOH    C112345   6.062   2.403   5.620  0.3727  0.2290  0.3892
  431ACOH    H112346   6.054   2.352   5.716 -0.2331 -1.2099 -0.4026
  431ACOH    H212347   6.159   2.453   5.617  0.3741  0.1928 -0.3029
  431ACOH    H312348   6.042   2.329   5.542 -0.3794  0.6812  0.1555
  432ACOH    H412349   5.953   4.215   2.729  0.6083 -0.4697  0.1450
  432ACOH    O212350   5.939   4.198   2.823  0.4892 -0.0660  0.2006
  432ACOH    C212351   5.818   4.239   2.849  0.1383  0.1316 -0.4006
  432ACOH    O112352   5.745   4.300   2.772  0.1697 -0.3192 -0.2870
  432ACOH    C112353   5.767   4.183   2.979 -0.7516 -0.2006 -0.1500
  432ACOH    H112354   5.696   4.249   3.029  0.9382  0.9135  0.8366
  432ACOH    H212355   5.847   4.180   3.053  0.4082 -0.0780 -1.3773
  432ACOH    H312356   5.714   4.091   2.953  2.1093 -1.7872 -0.6562
  433ACOH    H412357   4.813   3.495   5.269 -0.0045  2.1230 -0.3351
  433ACOH    O212358   4.870   3.481   5.346 -0.0847 -0.0061 -0.6555
  433ACOH    C212359   4.943   3.593   5.367 -0.1077 -0.0996  0.5853
  433ACOH    O112360   4.931   3.701   5.307 -0.1438 -0.6797  0.3443
  433ACOH    C112361   5.032   3.582   5.484 -0.2922  0.7873 -0.1817
  433ACOH    H112362   5.134   3.610   5.456  0.8634  0.3681  3.3514
  433ACOH    H212363   5.043   3.480   5.519 -0.1468  0.8533 -0.0355
  433ACOH    H312364   4.997   3.648   5.564  0.7774  0.2013  0.7682
  434ACOH    H412365   8.005   6.365   9.931 -2.2707  0.1010  1.8752
  434ACOH    O212366   7.941   6.421   9.883 -0.1214  0.3912 -0.7942
  434ACOH    C212367   7.895   6.520   9.960 -0.4580  0.2381  0.5588
  434ACOH    O112368   7.942   6.547  10.069 -0.2764  0.5572 -0.2391
  434ACOH    C112369   7.806   6.610   9.887  0.4567 -0.4177 -0.0639
  434ACOH    H112370   7.777   6.561   9.794 -3.0310 -1.0187  1.2458
  434ACOH    H212371   7.855   6.706   9.873  2.8655 -1.1102  3.0583
  434ACOH    H312372   7.716   6.623   9.947  1.4577  1.8054  1.0073
  435ACOH    H412373   8.526   6.820   6.344 -1.7834  0.8707 -1.8759
  435ACOH    O212374   8.552   6.735   6.303  0.3818  0.5866 -0.0274
  435ACOH    C212375   8.681   6.748   6.266 -0.0699 -0.0316  0.0445
  435ACOH    O112376   8.762   6.820   6.324 -0.1092  0.8758 -0.2448
  435ACOH    C112377   8.725   6.639   6.179  0.0576 -0.0004 -0.3511
  435ACOH    H112378   8.714   6.670   6.076  1.0573  2.0348  0.1403
  435ACOH    H212379   8.665   6.553   6.208  2.1782 -1.1607  0.7662
  435ACOH    H312380   8.831   6.619   6.198 -0.0577 -0.6276 -0.3317
  436ACOH    H412381   7.516   5.123   6.707  0.6263  0.2943  0.2573
  436ACOH    O212382   7.576   5.098   6.634  0.0303  0.0277 -0.1399
  436ACOH    C212383   7.574   4.962   6.622  0.5761 -0.0257  0.2186
  436ACOH    O112384   7.511   4.886   6.690 -0.1443  0.2565  0.0889
  436ACOH    C112385   7.661   4.922   6.506  0.2554  0.2538  0.3393
  436ACOH    H112386   7.754   4.877   6.540  0.4544  0.2107 -0.2628
  436ACOH    H212387   7.685   5.016   6.457 -0.8626  0.5356  0.3092
  436ACOH    H312388   7.607   4.856   6.438  0.4465  0.4751 -0.0275
  437ACOH    H412389   7.545   3.563   5.541  1.1628 -0.6839 -1.5430
  437ACOH    O212390   7.467   3.506   5.532 -0.0102  0.5654  0.1487
  437ACOH    C212391   7.509   3.381   5.500 -0.5782  0.1801 -0.5068
  437ACOH    O112392   7.621   3.340   5.494 -0.1777  0.2426  0.4935
  437ACOH    C112393   7.395   3.293   5.461  0.9342  0.8849 -0.5806
  437ACOH    H112394   7.296   3.331   5.487  1.2627  1.3868 -0.0698
  437ACOH    H212395   7.404   3.198   5.514 -0.4660  1.4327  0.6723
  437ACOH    H312396   7.397   3.265   5.356  0.0866 -1.1426 -0.0841
  438ACOH    H412397   1.561   4.768   6.750 -1.7004 -0.5406 -1.5966
  438ACOH    O212398   1.555   4.852   6.701 -0.1503  0.4851 -0.0940
  438ACOH    C212399   1.440   4.852   6.629  0.2847 -0.5480 -0.1315
  438ACOH    O112400   1.381   4.750   6.602  0.3984  0.4496  0.3805
  438ACOH    C112401   1.397   4.986   6.591  0.2656  0.2606  0.3814
  438ACOH    H112402   1.477   5.049   6.552 -0.8698 -1.0806 -4.3985
  438ACOH    H212403   1.352   5.033   6.678  0.2143 -0.4311  0.7367
  438ACOH    H312404   1.330   4.981   6.505  1.0698 -1.7285 -0.1542
  439ACOH    H412405   6.521   5.616   6.728 -0.6286  0.0892  0.7858
  439ACOH    O212406   6.472   5.579   6.653  0.6956 -0.2108  0.0595
  439ACOH    C212407   6.388   5.491   6.709 -0.1828 -0.6229 -0.2887
  439ACOH    O112408   6.379   5.465   6.824 -0.5356 -0.0092  0.5170
  439ACOH    C112409   6.314   5.411   6.603  0.6976 -0.1217 -0.0000
  439ACOH    H112410   6.207   5.417   6.622  0.9120  1.6683  0.7140
  439ACOH    H212411   6.346   5.308   6.615 -1.3823 -0.7684  0.0633
  439ACOH    H312412   6.341   5.453   6.506  3.4440  0.1010  0.8047
  440ACOH    H412413   4.549   4.786   5.921  0.7436  1.1870 -0.6864
  440ACOH    O212414   4.512   4.849   5.986  0.2737 -0.2295  0.4559
  440ACOH    C212415   4.534   4.799   6.108  0.0821  0.3080 -0.6141
  440ACOH    O112416   4.593   4.694   6.127 -0.0311 -0.5702  0.2492
  440ACOH    C112417   4.472   4.878   6.227  0.2733 -0.8352 -0.4150
  440ACOH    H112418   4.365   4.862   6.228  0.5184 -2.5644 -0.7486
  440ACOH    H212419   4.490   4.985   6.211 -0.6812 -1.0915 -3.4781
  440ACOH    H312420   4.513   4.853   6.325  1.7048 -0.8088 -0.9889
  441ACOH    H412421   4.606   8.385   7.595 -0.2576 -1.7926 -0.1692
  441ACOH    O212422   4.605   8.392   7.692 -0.5643  0.8867 -0.3246
  441ACOH    C212423   4.701   8.318   7.748  0.2132 -0.5804  0.1204
  441ACOH    O112424   4.770   8.239   7.688  0.2230 -0.0418 -0.5041
  441ACOH    C112425   4.694   8.323   7.893 -0.2768 -0.0042  0.0145
  441ACOH    H112426   4.659   8.225   7.925  2.4542  0.0068  3.2804
  441ACOH    H212427   4.625   8.403   7.923 -0.0904 -0.2126  1.0174
  441ACOH    H312428   4.789   8.351   7.938 -1.7473  1.1426  2.5814
  442ACOH    H412429   0.444   1.956   8.263  0.7093 -0.4238 -0.3781
  442ACOH    O212430   0.348   1.945   8.268  0.6067  0.1144 -1.1726
  442ACOH    C212431   0.292   1.968   8.147 -0.2190 -0.1936 -0.9156
  442ACOH    O112432   0.358   2.023   8.061 -0.0509  0.0908  0.5749
  442ACOH    C112433   0.145   1.957   8.142 -0.8493 -0.2521  0.5601
  442ACOH    H112434   0.125   1.926   8.039 -0.9888  1.0361  0.1878
  442ACOH    H212435   0.092   2.049   8.166 -1.6384 -0.4115 -0.5154
  442ACOH    H312436   0.116   1.883   8.216 -2.4190  0.5399  0.7539
  443ACOH    H412437   6.837   3.021   3.771 -3.9738 -0.4701  0.2859
  443ACOH    O212438   6.819   3.082   3.697  0.6492  0.3415 -0.3530
  443ACOH    C212439   6.706   3.142   3.728  0.1434  0.5804  0.6687
  443ACOH    O112440   6.649   3.132   3.832 -0.7875  0.0717 -0.2463
  443ACOH    C112441   6.650   3.219   3.619 -0.4494 -0.6969 -0.2480
  443ACOH    H112442   6.555   3.267   3.641 -0.3804 -0.6223 -0.1131
  443ACOH    H212443   6.634   3.154   3.533  0.2534  1.6757 -2.2198
  443ACOH    H312444   6.718   3.300   3.593 -0.9763  0.4906  1.9498
  444ACOH    H412445   4.881   8.868   4.364  0.3578 -0.3917  0.7777
  444ACOH    O212446   4.896   8.793   4.304 -0.0803  0.4197 -0.3839
  444ACOH    C212447   4.977   8.837   4.210  0.3025 -0.0567  0.1829
  444ACOH    O112448   5.013   8.956   4.191 -0.4729  0.3371  0.4228
  444ACOH    C112449   5.031   8.730   4.121  0.1122 -0.1032  0.0397
  444ACOH    H112450   5.111   8.772   4.059  0.5487 -0.8942  0.0605
  444ACOH    H212451   4.945   8.706   4.060 -0.2575 -0.1243  0.5633
  444ACOH    H312452   5.061   8.647   4.185  1.8259  1.4904  1.3930
  445ACOH    H412453   7.832   4.440   8.457  0.6606  1.8403 -0.4076
  445ACOH    O212454   7.911   4.408   8.503 -0.2335  0.2736  0.0673
  445ACOH    C212455   7.866   4.314   8.586 -0.6119  0.3615 -0.3387
  445ACOH    O112456   7.773   4.241   8.581  0.3157  0.2023 -0.0123
  445ACOH    C112457   7.952   4.326   8.712 -0.0731 -0.1946  0.7693
  445ACOH    H112458   7.961   4.429   8.747  1.2795 -0.2938  0.7443
  445ACOH    H212459   8.045   4.279   8.681  0.2631  0.0602  1.3812
  445ACOH    H312460   7.906   4.267   8.791 -1.4348 -0.8708 -0.5146
  446ACOH    H412461   9.604   9.086   4.434  1.7026  1.0862 -1.2669
  446ACOH    O212462   9.606   9.181   4.455  0.3340  0.8434  0.0107
  446ACOH    C212463   9.686   9.252   4.383 -0.6632 -0.6924 -0.3364
  446ACOH    O112464   9.772   9.213   4.311  0.0419 -0.2020  0.3721
  446ACOH    C112465   9.679   9.386   4.430 -0.7420  0.0184 -0.2770
  446ACOH    H112466   9.577   9.414   4.457 -0.7528  0.3837 -0.6977
  446ACOH    H212467   9.715   9.461   4.360 -0.5987  0.0375 -0.1834
  446ACOH    H312468   9.738   9.406   4.519  1.7580  0.7095 -2.0446
  447ACOH    H412469   3.509   5.969   0.366  1.5148 -0.0953 -0.8058
  447ACOH    O212470   3.483   5.880   0.395 -0.1295  0.4595 -0.5837
  447ACOH    C212471   3.352   5.875   0.377  0.3696 -0.6296 -0.1863
  447ACOH    O112472   3.274   5.964   0.368 -0.5098 -0.0451  0.1102
  447ACOH    C112473   3.294   5.737   0.390  0.1420  0.2683  0.5703
  447ACOH    H112474   3.284   5.717   0.497 -0.7579 -1.0271  0.2507
  447ACOH    H212475   3.364   5.664   0.351 -2.1537 -0.8127 -1.6940
  447ACOH    H312476   3.196   5.727   0.344 -0.3877 -0.5555  1.8716
  448ACOH    H412477   5.267   2.654   5.759 -0.4185 -3.2869 -0.8014
  448ACOH    O212478   5.350   2.649   5.810 -0.8200  0.7380  0.3620
  448ACOH    C212479   5.372   2.756   5.889  0.5824  0.2393 -0.1749
  448ACOH    O112480   5.279   2.828   5.921  0.2244 -0.7002 -0.1262
  448ACOH    C112481   5.514   2.769   5.923 -0.5598 -0.3768  0.3637
  448ACOH    H112482   5.539   2.700   6.003 -0.8764  0.2891  1.0436
  448ACOH    H212483   5.534   2.868   5.964  2.8933 -1.1501  0.6477
  448ACOH    H312484   5.580   2.761   5.837 -1.7045 -0.9282 -0.4774
  449ACOH    H412485   5.648   0.325   1.226 -1.9873  1.6677 -0.3931
  449ACOH    O212486   5.610   0.241   1.194 -0.3389  0.5943  0.3630
  449ACOH    C212487   5.703   0.153   1.205 -0.0727  0.7163  0.8658
  449ACOH    O112488   5.820   0.169   1.200  0.5578  0.3560  0.5232
  449ACOH    C112489   5.643   0.020   1.173 -0.1868 -0.4307 -0.4379
  449ACOH    H112490   5.629   0.012   1.065 -1.3663  1.9707 -0.5048
  449ACOH    H212491   5.542   0.009   1.214  0.5041  0.3275  1.5256
  449ACOH    H312492   5.702  -0.065   1.206  1.4713  1.1069  0.6178
  450ACOH    H412493   6.753   6.134   7.287 -0.2470  0.5801  0.1368
  450ACOH    O212494   6.668   6.087   7.289 -0.3119  0.7026  0.2480
  450ACOH    C212495   6.669   6.009   7.178 -0.6899 -0.1464 -0.3066
  450ACOH    O112496   6.725   6.034   7.077  0.2236 -0.2792 -0.1229
  450ACOH    C112497   6.574   5.901   7.200 -0.2067  0.3214 -0.1096
  450ACOH    H112498   6.633   5.811   7.187 -2.2771 -1.2261  0.8530
  450ACOH    H212499   6.498   5.904   7.122  0.6605 -2.7832 -1.1676
  450ACOH    H312500   6.525   5.906   7.298  0.0963  0.8804  0.0142
  451ACOH    H412501   4.464   7.399   1.165  2.2240 -1.8722 -2.1765
  451ACOH    O212502   4.491   7.476   1.113  0.9376  0.0346 -0.1102
  451ACOH    C212503   4.527   7.588   1.192  0.3711  0.2741 -0.2718
  451ACOH    O112504   4.529   7.582   1.315  0.2567  0.0693  0.7428
  451ACOH    C112505   4.592   7.696   1.112 -0.0119 -0.8817 -0.5810
  451ACOH    H112506   4.697   7.664   1.114  0.0227 -0.7076  1.0911
  451ACOH    H212507   4.574   7.789   1.164 -0.1126 -0.2433 -1.7398
  451ACOH    H312508   4.558   7.699   1.008  0.2201  0.6876 -0.6239
  452ACOH    H412509   5.897   1.290   5.424 -0.9617 -3.0083 -0.2187
  452ACOH    O212510   5.949   1.272   5.344  0.3318 -0.1500 -0.0832
  452ACOH    C212511   5.877   1.351   5.252 -0.3160  0.7859 -0.7257
  452ACOH    O112512   5.763   1.388   5.264 -0.7728  0.3595 -0.4736
  452ACOH    C112513   5.946   1.351   5.122  0.6933  0.2697 -0.2738
  452ACOH    H112514   5.886   1.378   5.036  0.1284 -0.2016 -0.0277
  452ACOH    H212515   5.986   1.251   5.106 -1.6970 -0.3189 -2.9434
  452ACOH    H312516   6.035   1.415   5.124 -0.1206  1.4096 -0.1012
  453ACOH    H412517   8.679   4.104   5.634  1.5787 -0.8338 -0.1132
  453ACOH    O212518   8.740   4.177   5.619  0.1776  0.4605  0.4042
  453ACOH    C212519   8.793   4.155   5.497  0.0012 -0.6019 -0.2762
  453ACOH    O112520   8.763   4.057   5.432 -0.6674 -0.2339 -0.2451
  453ACOH    C112521   8.840   4.278   5.436  0.0452 -0.3779  0.0258
  453ACOH    H112522   8.887   4.258   5.339 -0.3531  1.8311 -0.6445
  453ACOH    H212523   8.913   4.335   5.493 -0.8166 -0.9319  1.7125
  453ACOH    H312524   8.751   4.337   5.416  0.8119  0.9197  0.3477
  454ACOH    H412525   5.225   7.221   1.440 -1.1843  0.3399 -2.4880
  454ACOH    O212526   5.221   7.315   1.465 -0.2006 -0.1247 -0.4124
  454ACOH    C212527   5.245   7.398   1.363  0.5402 -0.6577 -0.0570
  454ACOH    O112528   5.169   7.487   1.330 -0.1610  0.5901  0.1459
  454ACOH    C112529   5.330   7.355   1.254  0.0117  0.4210 -0.1545
  454ACOH    H112530   5.273   7.287   1.190  0.7795 -1.6624  1.3026
  454ACOH    H212531   5.421   7.312   1.297 -1.5474 -2.0729  0.8110
  454ACOH    H312532   5.366   7.438   1.194  2.3764  1.2410  2.2922
  455ACOH    H412533   4.013   6.710   5.568 -0.3511 -0.9387  0.2393
  455ACOH    O212534   4.089   6.695   5.628 -0.0100 -0.3456 -0.0446
  455ACOH    C212535   4.192   6.713   5.544 -0.4377  0.8044 -0.6987
  455ACOH    O112536   4.181   6.735   5.425  0.5752 -0.2741  0.2526
  455ACOH    C112537   4.321   6.712   5.610 -0.4454  0.1356 -0.4346
  455ACOH    H112538   4.326   6.614   5.657  1.5551 -0.7242 -2.3463
  455ACOH    H212539   4.315   6.795   5.681 -2.0593  1.0640 -1.6270
  455ACOH    H312540   4.402   6.725   5.538  1.1645 -1.1994  1.1095
  456ACOH    H412541   7.968   5.725   9.510  0.8542  0.6624 -0.5818
  456ACOH    O212542   7.902   5.789   9.542  0.3034 -0.2052  0.0048
  456ACOH    C212543   7.916   5.900   9.479  0.4401 -0.3596  0.6096
  456ACOH    O112544   7.970   5.921   9.373 -0.3745 -0.3446  0.5098
  456ACOH    C112545   7.832   6.000   9.549  0.8915 -0.4735 -0.1868
  456ACOH    H112546   7.857   6.003   9.655 -0.1170 -1.0053  0.0789
  456ACOH    H212547   7.724   5.984   9.544  0.6084  1.5628 -1.1432
  456ACOH    H312548   7.847   6.100   9.508  1.1520 -0.2393  0.4712
  457ACOH    H412549   9.329   9.940   7.491  0.7148 -0.5683 -0.2101
  457ACOH    O212550   9.360   9.854   7.523 -0.3440 -0.9171 -0.1273
  457ACOH    C212551   9.373   9.768   7.423 -0.5189 -0.0215  0.1954
  457ACOH    O112552   9.349   9.798   7.306 -0.2348  0.1059 -0.1183
  457ACOH    C112553   9.422   9.634   7.461 -0.2158 -0.2250 -0.0370
  457ACOH    H112554   9.531   9.629   7.458 -0.1015  2.2166 -0.9195
  457ACOH    H212555   9.388   9.552   7.398 -1.2035 -1.3069  1.8577
  457ACOH    H312556   9.378   9.611   7.558 -1.0908  0.2910 -0.3057
  458ACOH    H412557   1.025   6.299   9.130 -2.0290 -3.6253  1.6083
  458ACOH    O212558   0.968   6.298   9.051  0.0092 -0.2227 -0.0044
  458ACOH    C212559   1.014   6.205   8.966  0.3440 -0.9215 -0.8960
  458ACOH    O112560   1.111   6.131   8.980 -0.2896 -0.4059 -0.0772
  458ACOH    C112561   0.928   6.202   8.847 -0.0029  0.0004 -0.5500
  458ACOH    H112562   0.976   6.241   8.757 -2.1817  1.3162 -1.1643
  458ACOH    H212563   0.844   6.269   8.858  0.6172  0.6004  0.6384
  458ACOH    H312564   0.899   6.098   8.831 -0.6874  0.0471  0.3954
  459ACOH    H412565   4.024   7.002   6.168 -1.3773  1.4641  0.9418
  459ACOH    O212566   3.999   6.998   6.075 -0.2011  0.4436  0.6582
  459ACOH    C212567   3.945   6.876   6.055  0.5347 -0.2340 -0.1829
  459ACOH    O112568   3.873   6.817   6.133 -0.0969 -0.0624 -0.4413
  459ACOH    C112569   3.930   6.845   5.911 -0.4188 -0.6893  0.0169
  459ACOH    H112570   3.909   6.944   5.870  1.4229 -0.4484 -0.3821
  459ACOH    H212571   3.838   6.788   5.897 -1.5114  1.2542 -0.8178
  459ACOH    H312572   4.017   6.800   5.862 -0.0900 -0.8128  0.7072
  460ACOH    H412573   7.702   4.811   5.421 -0.5292 -2.2775 -1.0870
  460ACOH    O212574   7.738   4.852   5.340  0.1208  0.1192  0.3533
  460ACOH    C212575   7.717   4.767   5.235  0.3823 -0.3742  0.1774
  460ACOH    O112576   7.659   4.659   5.232  0.4688  0.4569  0.3534
  460ACOH    C112577   7.761   4.831   5.108  0.2962  0.1889 -0.4883
  460ACOH    H112578   7.868   4.851   5.116  0.8603 -2.6357 -0.2678
  460ACOH    H212579   7.704   4.923   5.098  1.5582  1.0883  0.4635
  460ACOH    H312580   7.746   4.756   5.031 -1.5420 -0.3134  0.3237
  461ACOH    H412581   6.600   9.342   8.279  0.1254  0.1375  1.5957
  461ACOH    O212582   6.591   9.252   8.315 -0.3181 -0.1864  0.6964
  461ACOH    C212583   6.711   9.196   8.297 -0.1277  0.3055 -0.1312
  461ACOH    O112584   6.817   9.232   8.253 -0.0440 -0.1478 -0.4865
  461ACOH    C112585   6.700   9.054   8.343  0.1020  0.2735 -0.4103
  461ACOH    H112586   6.615   9.003   8.299 -0.5286  0.3947  0.6723
  461ACOH    H212587   6.678   9.067   8.448  0.4259  1.7747 -0.5199
  461ACOH    H312588   6.794   9.001   8.327  2.5520  4.2136  0.1350
  462ACOH    H412589   6.260   7.743   7.648 -0.2829  0.7381 -0.4492
  462ACOH    O212590   6.302   7.810   7.705 -0.0664 -0.3284  0.6430
  462ACOH    C212591   6.314   7.920   7.632 -0.3388 -0.0892 -0.8471
  462ACOH    O112592   6.259   7.946   7.522  0.5946  0.0524  0.8216
  462ACOH    C112593   6.405   8.019   7.699  0.5521  0.8128  0.7439
  462ACOH    H112594   6.358   8.117   7.702 -0.1705  0.4309  2.9372
  462ACOH    H212595   6.495   8.026   7.639 -1.0378 -1.5847 -2.0883
  462ACOH    H312596   6.421   7.990   7.803 -0.7623  2.1832  1.3487
  463ACOH    H412597   9.566   2.520   8.131  0.2119  0.3085  0.4254
  463ACOH    O212598   9.543   2.605   8.171  0.1569  0.4462  0.0999
  463ACOH    C212599   9.444   2.594   8.267  0.0474 -0.8996 -0.0638
  463ACOH    O112600   9.391   2.492   8.302  0.4666  0.5192  0.2667
  463ACOH    C112601   9.431   2.714   8.355 -0.3623 -0.0143  0.3675
  463ACOH    H112602   9.328   2.730   8.386 -0.7261 -0.5838 -0.5052
  463ACOH    H212603   9.460   2.806   8.304 -0.0728 -0.3461 -0.0780
  463ACOH    H312604   9.491   2.711   8.445 -0.5035 -0.8630  0.4344
  464ACOH    H412605   7.229   1.841   7.895 -0.0475 -1.4196 -0.0169
  464ACOH    O212606   7.133   1.856   7.906  0.0222 -0.4782 -0.6422
  464ACOH    C212607   7.086   1.809   8.020 -0.9934 -0.3670 -1.1263
  464ACOH    O112608   7.145   1.748   8.108 -0.6383 -0.0802  0.1646
  464ACOH    C112609   6.954   1.872   8.036  0.0014 -0.4688 -0.4939
  464ACOH    H112610   6.875   1.813   7.990 -1.1823 -0.4688  1.4644
  464ACOH    H212611   6.963   1.966   7.983 -4.0766  0.3382  0.1283
  464ACOH    H312612   6.920   1.897   8.137  0.8012 -1.1605 -0.0378
  465ACOH    H412613   5.344   2.178   2.245 -3.3163 -1.8486  0.6483
  465ACOH    O212614   5.367   2.144   2.334  0.2617  0.1270  0.6079
  465ACOH    C212615   5.274   2.189   2.419  0.2912  0.1424 -0.1127
  465ACOH    O112616   5.184   2.266   2.400 -0.1070  0.4164  0.0682
  465ACOH    C112617   5.300   2.138   2.554  0.2021 -0.3095 -0.2719
  465ACOH    H112618   5.348   2.208   2.622 -2.3143 -0.2291  1.5098
  465ACOH    H212619   5.364   2.051   2.534  2.6506  1.2696  0.4646
  465ACOH    H312620   5.205   2.108   2.598 -0.6547  0.4349 -1.6145
  466ACOH    H412621   3.770   7.121   6.760  0.9040 -0.7515  1.0232
  466ACOH    O212622   3.701   7.082   6.816 -0.4460  0.1067 -0.0180
  466ACOH    C212623   3.581   7.114   6.762 -0.0355  0.1695  0.4670
  466ACOH    O112624   3.557   7.180   6.660 -0.6710  0.1883 -0.0124
  466ACOH    C112625   3.475   7.052   6.841  0.0144 -0.4513  0.9993
  466ACOH    H112626   3.410   7.130   6.880 -1.3249 -0.1065 -1.7808
  466ACOH    H212627   3.507   6.983   6.919  0.1233 -2.2623 -0.6027
  466ACOH    H312628   3.414   6.987   6.778  0.0849  0.8268 -0.4083
  467ACOH    H412629   4.745   1.352   5.041 -3.1942  2.3774 -0.8867
  467ACOH    O212630   4.703   1.276   4.997  0.2168  0.2198 -0.6163
  467ACOH    C212631   4.682   1.190   5.097  0.0534 -0.3916  0.4972
  467ACOH    O112632   4.728   1.203   5.210 -0.1244  0.0177  0.1596
  467ACOH    C112633   4.591   1.082   5.063  0.8044 -0.3829  0.4417
  467ACOH    H112634   4.646   1.011   5.001  1.1407  0.4080 -0.1836
  467ACOH    H212635   4.502   1.124   5.015  0.9350 -0.9831 -0.3271
  467ACOH    H312636   4.557   1.023   5.148 -0.0428 -0.7841 -0.1665
  468ACOH    H412637   2.487   6.663   0.228 -0.6689  0.8051  1.3530
  468ACOH    O212638   2.419   6.713   0.178 -0.4045 -0.1172  0.0550
  468ACOH    C212639   2.474   6.832   0.159  0.3190 -0.8428  0.4067
  468ACOH    O112640   2.580   6.879   0.196 -0.2852 -0.2908 -0.2027
  468ACOH    C112641   2.390   6.910   0.070 -0.2143 -0.3629 -0.0124
  468ACOH    H112642   2.392   6.847  -0.019  1.5318 -0.1494 -0.1592
  468ACOH    H212643   2.435   7.006   0.041  0.0969  0.1484  2.0926
  468ACOH    H312644   2.288   6.926   0.105  0.0775  0.9116  0.3108
  469ACOH    H412645   9.349   7.539   0.538  1.7065  0.0947 -1.4667
  469ACOH    O212646   9.294   7.504   0.466 -0.6818  0.5073  0.1083
  469ACOH    C212647   9.364   7.540   0.358 -0.2623  0.1128 -0.8092
  469ACOH    O112648   9.472   7.585   0.354  0.0491  0.1634 -0.3194
  469ACOH    C112649   9.291   7.511   0.234  0.5788 -0.3622  0.2550
  469ACOH    H112650   9.317   7.407   0.210  1.3862  0.4520 -2.4909
  469ACOH    H212651   9.323   7.575   0.152  0.3291 -1.3475 -0.6309
  469ACOH    H312652   9.184   7.515   0.252  0.6165 -2.5577  1.2363
  470ACOH    H412653   6.004   7.582   5.818  1.9842  1.2751  1.2063
  470ACOH    O212654   5.990   7.536   5.902 -0.4856 -0.1547  0.0427
  470ACOH    C212655   5.866   7.484   5.901  0.7328  1.0798  0.5917
  470ACOH    O112656   5.812   7.424   5.811  0.0355  0.1059  0.7714
  470ACOH    C112657   5.815   7.454   6.033 -0.1281 -0.1848 -0.3579
  470ACOH    H112658   5.873   7.499   6.113  2.3636 -1.8246 -1.1768
  470ACOH    H212659   5.803   7.346   6.043  1.1567 -0.3559 -0.6209
  470ACOH    H312660   5.715   7.495   6.048 -0.5763 -1.6896  0.8786
  471ACOH    H412661   5.137   0.243   9.339 -2.2872  2.3233  1.5644
  471ACOH    O212662   5.155   0.195   9.422 -0.0723  0.3458 -0.0081
  471ACOH    C212663   5.100   0.074   9.419 -0.5138  0.5641 -0.5792
  471ACOH    O112664   5.045   0.008   9.334 -0.4998 -0.2791  0.6964
  471ACOH    C112665   5.157   0.005   9.537  0.3810  0.1116 -0.1538
  471ACOH    H112666   5.265   0.017   9.538  0.3950  0.8014 -3.6316
  471ACOH    H212667   5.116  -0.096   9.538  3.2270 -1.0758  0.1674
  471ACOH    H312668   5.121   0.058   9.625  0.4148 -0.3077  0.1123
  472ACOH    H412669   7.079   6.059   7.999  1.5240  0.6105  1.6144
  472ACOH    O212670   7.143   6.084   7.930  0.4253  0.2247  0.4298
  472ACOH    C212671   7.169   6.214   7.958 -0.0514  0.2999 -0.6068
  472ACOH    O112672   7.171   6.271   8.067 -0.2163  0.0597 -0.2695
  472ACOH    C112673   7.224   6.284   7.837  1.1528  1.0404 -0.6416
  472ACOH    H112674   7.137   6.319   7.781  0.7531 -0.1998 -0.7938
  472ACOH    H212675   7.288   6.215   7.783  0.3893 -0.3477  0.2103
  472ACOH    H312676   7.282   6.375   7.856 -0.2042  1.4663  1.7071
  473ACOH    H412677  -0.020   3.357   8.793  0.1338 -1.0381  2.0332
  473ACOH    O212678   0.067   3.399   8.781 -0.4598 -0.4035 -0.3153
  473ACOH    C212679   0.151   3.325   8.852 -0.1144  0.4154  0.0490
  473ACOH    O112680   0.122   3.235   8.929  0.1193  0.4353  0.7217
  473ACOH    C112681   0.291   3.332   8.812 -0.4572  0.5077 -0.0542
  473ACOH    H112682   0.299   3.379   8.714 -0.5701 -0.8326 -0.7175
  473ACOH    H212683   0.336   3.233   8.805 -1.3787  0.2463 -3.0324
  473ACOH    H312684   0.340   3.408   8.873 -0.3040  0.4737 -0.1321
  474ACOH    H412685   4.195   5.445   7.947 -1.2436  1.9127  1.0584
  474ACOH    O212686   4.285   5.478   7.961 -0.6877  0.8324  0.1608
  474ACOH    C212687   4.369   5.391   7.902 -0.6729  0.1504  0.4516
  474ACOH    O112688   4.339   5.301   7.830  0.6919 -0.0091 -0.0462
  474ACOH    C112689   4.509   5.439   7.929 -0.0024 -0.8498 -0.1160
  474ACOH    H112690   4.512   5.473   8.033  0.5086 -1.5204  0.0877
  474ACOH    H212691   4.542   5.524   7.869 -1.5226  0.3865  0.7689
  474ACOH    H312692   4.587   5.365   7.910  1.1683  0.2817  0.1941
  475ACOH    H412693   7.261   8.210   1.722 -0.0837  0.6286  2.1282
  475ACOH    O212694   7.169   8.188   1.701  0.3854  0.2382  0.3957
  475ACOH    C212695   7.124   8.305   1.657  0.0279 -0.1979  0.6608
  475ACOH    O112696   7.188   8.411   1.652 -0.3125 -0.5166  0.5045
  475ACOH    C112697   6.977   8.300   1.644 -0.0145  0.0391  0.2104
  475ACOH    H112698   6.935   8.240   1.724  0.6895 -1.2175 -0.3537
  475ACOH    H212699   6.958   8.248   1.550  0.6122 -1.6194  0.9864
  475ACOH    H312700   6.926   8.397   1.636 -1.2993 -0.6538 -0.2342
  476ACOH    H412701   8.471   1.007   1.749 -0.6911  1.0865 -0.8764
  476ACOH    O212702   8.542   1.067   1.779 -0.0019 -0.0806 -0.0972
  476ACOH    C212703   8.582   1.048   1.904  0.1867 -0.1962 -0.3834
  476ACOH    O112704   8.532   0.970   1.984  0.0900  0.6373  0.2254
  476ACOH    C112705   8.684   1.148   1.939 -0.6715 -0.1920 -0.2452
  476ACOH    H112706   8.774   1.101   1.979 -0.2173 -0.3696 -1.4748
  476ACOH    H212707   8.648   1.220   2.013  2.1812 -0.6065  1.6419
  476ACOH    H312708   8.711   1.202   1.849  2.0292 -1.1826 -0.0837
  477ACOH    H412709   6.912   9.189   8.591 -0.1349 -1.3599 -0.2568
  477ACOH    O212710   6.823   9.224   8.571  0.1608 -0.0978  0.6048
  477ACOH    C212711   6.830   9.352   8.617  0.3691  0.3505 -0.8313
  477ACOH    O112712   6.917   9.421   8.668 -0.1186  0.1477  0.1461
  477ACOH    C112713   6.690   9.410   8.607  0.5667  0.2503  0.6343
  477ACOH    H112714   6.695   9.492   8.535  0.4957 -0.1132  0.2205
  477ACOH    H212715   6.658   9.448   8.704 -1.5470 -0.8711  0.3915
  477ACOH    H312716   6.616   9.340   8.569 -0.5467  1.3815  0.6961
  478ACOH    H412717   6.988   1.777   8.761 -0.7666 -0.0332 -0.4866
  478ACOH    O212718   7.052   1.818   8.700 -0.5162  0.3610  0.0360
  478ACOH    C212719   6.988   1.815   8.581  0.1978  0.0812  0.2596
  478ACOH    O112720   6.870   1.780   8.563 -0.1210  0.5856  0.4270
  478ACOH    C112721   7.072   1.879   8.475 -0.0668 -0.1453 -0.4005
  478ACOH    H112722   7.153   1.933   8.524 -2.3558  0.5544  2.7889
  478ACOH    H212723   7.012   1.948   8.417  1.9092  1.9285 -0.0722
  478ACOH    H312724   7.123   1.805   8.413 -3.0433 -1.6226 -1.1501
  479ACOH    H412725   7.426   2.179   5.534  1.4586 -2.0490 -2.9901
  479ACOH    O212726   7.459   2.107   5.591  0.1558  0.3956  1.0667
  479ACOH    C212727   7.393   2.123   5.707 -0.1019 -0.2681  0.3883
  479ACOH    O112728   7.294   2.189   5.735 -0.4066 -1.3187  0.7238
  479ACOH    C112729   7.458   2.019   5.792  0.3863  0.2276 -0.9897
  479ACOH    H112730   7.564   2.038   5.779  0.0492  1.5847 -1.8747
  479ACOH    H212731   7.427   1.917   5.769 -0.2855 -0.3862  2.3488
  479ACOH    H312732   7.442   2.023   5.899  2.1250 -1.2843 -0.6409
  480ACOH    H412733   1.263   0.121   3.235 -0.4547  0.8951 -0.2532
  480ACOH    O212734   1.201   0.047   3.243  0.1937  0.3069 -0.6044
  480ACOH    C212735   1.085   0.117   3.253 -0.1758 -0.6207 -0.3481
  480ACOH    O112736   1.056   0.230   3.222 -0.1562  0.2389  0.1221
  480ACOH    C112737   0.981   0.017   3.292 -0.5304 -0.1205 -0.3023
  480ACOH    H112738   1.032  -0.079   3.287 -1.4771 -0.6008 -0.6533
  480ACOH    H212739   0.898   0.014   3.222 -0.0465 -0.1171 -0.8882
  480ACOH    H312740   0.950   0.034   3.395 -2.1326  0.2202 -0.8275
  481ACOH    H412741   9.427   5.127   5.797 -0.2531  0.7078  0.7970
  481ACOH    O212742   9.359   5.141   5.728 -0.3957  0.3946  0.8714
  481ACOH    C212743   9.301   5.017   5.707 -0.1949  0.6709 -0.1874
  481ACOH    O112744   9.273   4.933   5.792  0.3179  0.1533 -0.0066
  481ACOH    C112745   9.221   5.020   5.585  0.6537 -0.3030  1.0645
  481ACOH    H112746   9.282   5.045   5.499 -0.5044  1.9424  0.8704
  481ACOH    H212747   9.150   5.099   5.608  0.9142  0.0653  0.5985
  481ACOH    H312748   9.170   4.926   5.561 -0.4266  0.8652 -1.3764
  482ACOH    H412749   5.935   2.511   5.909 -1.6829  0.9448  0.3943
  482ACOH    O212750   5.917   2.442   5.976 -0.1346  0.1030 -0.0426
  482ACOH    C212751   5.824   2.354   5.928 -0.1696 -0.0274 -0.9665
  482ACOH    O112752   5.755   2.375   5.828 -0.1988  0.0201  0.0953
  482ACOH    C112753   5.807   2.238   6.024  0.1441 -0.6995  0.4442
  482ACOH    H112754   5.866   2.242   6.116 -0.1401  0.5426  0.5918
  482ACOH    H212755   5.822   2.139   5.981  1.0191 -0.7022  0.7374
  482ACOH    H312756   5.702   2.242   6.052 -0.9359 -0.9805 -3.2812
  483ACOH    H412757   2.105   4.403   1.880  0.6275  0.4933  0.9334
  483ACOH    O212758   2.173   4.443   1.824  0.1965 -0.1240 -0.0389
  483ACOH    C212759   2.144   4.574   1.825 -0.4580 -0.1000 -0.3444
  483ACOH    O112760   2.050   4.632   1.878 -0.4358  0.3416 -0.3141
  483ACOH    C112761   2.243   4.649   1.750  0.0188  0.1854  0.2715
  483ACOH    H112762   2.217   4.754   1.731 -1.2220  0.5238  3.4613
  483ACOH    H212763   2.249   4.591   1.658  0.6361  2.8305 -1.4336
  483ACOH    H312764   2.337   4.640   1.804  0.7491 -1.0435 -1.1641
  484ACOH    H412765   7.920   3.602   4.033 -0.2968  2.5896 -0.9722
  484ACOH    O212766   7.829   3.581   4.006 -0.1581  0.8713 -0.1902
  484ACOH    C212767   7.761   3.688   4.042 -0.4121  0.6878  0.1063
  484ACOH    O112768   7.788   3.786   4.107 -0.2958 -0.6208  0.3082
  484ACOH    C112769   7.625   3.663   3.985 -0.1467  0.5394 -0.8397
  484ACOH    H112770   7.577   3.570   4.018  1.9139  0.4912  2.2014
  484ACOH    H212771   7.638   3.653   3.878  1.6279 -0.4853 -0.5422
  484ACOH    H312772   7.560   3.746   4.012  0.6682  0.4691  1.4669
  485ACOH    H412773   3.242   9.292   6.776  1.7435 -1.1951  0.9115
  485ACOH    O212774   3.308   9.353   6.739  0.4501 -0.2321  0.1712
  485ACOH    C212775   3.361   9.414   6.842 -0.2949 -0.0194 -0.1296
  485ACOH    O112776   3.331   9.420   6.960 -0.3075  0.1238 -0.2302
  485ACOH    C112777   3.451   9.514   6.786  0.2095 -0.0518 -0.2995
  485ACOH    H112778   3.396   9.573   6.712 -1.9419 -2.9694 -1.1172
  485ACOH    H212779   3.538   9.476   6.733  0.9063  0.3865  0.5203
  485ACOH    H312780   3.481   9.584   6.864  0.4260  0.3374 -0.7319
  486ACOH    H412781   1.632   3.252   7.360  0.0342  1.0904 -0.1506
  486ACOH    O212782   1.618   3.279   7.453  0.0830  0.9399 -0.0990
  486ACOH    C212783   1.665   3.182   7.537  0.2560  0.4938  0.2215
  486ACOH    O112784   1.694   3.067   7.510  0.0532  0.3736  0.1393
  486ACOH    C112785   1.682   3.239   7.671  0.4845 -0.0815 -0.4284
  486ACOH    H112786   1.624   3.191   7.750 -0.5941 -0.2554 -1.3097
  486ACOH    H212787   1.645   3.342   7.674  4.2972  1.3404  4.5975
  486ACOH    H312788   1.787   3.233   7.698  1.0296 -1.0911 -2.6699
  487ACOH    H412789   0.756   5.497   7.839  1.9801 -0.2401  0.3201
  487ACOH    O212790   0.731   5.542   7.922  0.0964 -0.9269  0.1349
  487ACOH    C212791   0.640   5.453   7.977  0.4321 -1.0305 -0.5288
  487ACOH    O112792   0.581   5.364   7.923  0.6963  0.0804  0.1902
  487ACOH    C112793   0.604   5.502   8.114  0.0775 -0.2282 -0.4269
  487ACOH    H112794   0.674   5.468   8.190 -1.4885  0.7139  1.4912
  487ACOH    H212795   0.510   5.465   8.154  0.3533 -0.4644  0.0158
  487ACOH    H312796   0.612   5.611   8.116 -1.8252 -0.0645 -1.2161
  488ACOH    H412797   5.804   6.768   0.210 -0.3940  0.9882 -0.7458
  488ACOH    O212798   5.894   6.803   0.222 -0.1700  0.4267 -0.7584
  488ACOH    C212799   5.960   6.718   0.305 -0.8971 -0.3797 -0.0532
  488ACOH    O112800   5.948   6.601   0.321  0.2696 -0.9718 -0.8305
  488ACOH    C112801   6.084   6.790   0.353  0.3698  0.3119  0.2390
  488ACOH    H112802   6.120   6.751   0.449  1.1297 -0.4977 -0.3727
  488ACOH    H212803   6.056   6.895   0.366 -0.1149  0.5978 -2.9024
  488ACOH    H312804   6.163   6.789   0.278  0.1467  1.0671 -0.0094
  489ACOH    H412805   7.075   7.616   1.854  0.7857  0.5583 -0.2071
  489ACOH    O212806   7.104   7.564   1.777  0.2901 -0.3237  0.2023
  489ACOH    C212807   7.186   7.633   1.698  0.2681 -0.3409  0.1180
  489ACOH    O112808   7.235   7.746   1.716  0.1673  0.7311 -0.0971
  489ACOH    C112809   7.216   7.567   1.569  0.1634 -0.0628  1.4262
  489ACOH    H112810   7.204   7.630   1.481 -0.4033 -0.9640  0.8481
  489ACOH    H212811   7.151   7.483   1.546 -0.4713  0.0871  2.6828
  489ACOH    H312812   7.318   7.531   1.584  0.9989  1.6596  0.0892
  490ACOH    H412813   4.688   6.791   3.556  0.9995 -2.0830 -0.1138
  490ACOH    O212814   4.771   6.806   3.508  0.6858  0.0063 -0.0528
  490ACOH    C212815   4.793   6.695   3.436  0.0448 -0.3951  0.1079
  490ACOH    O112816   4.724   6.599   3.432  0.2107  0.3633 -0.2267
  490ACOH    C112817   4.916   6.709   3.354  0.0902 -0.1995 -0.8013
  490ACOH    H112818   4.959   6.611   3.332  1.9470  0.8463 -2.0184
  490ACOH    H212819   4.989   6.773   3.403  0.6427 -0.1814 -1.6341
  490ACOH    H312820   4.886   6.766   3.266 -0.6738  1.4265  0.4700
  491ACOH    H412821   4.927   6.945   8.808 -2.9038  1.6749 -0.5656
  491ACOH    O212822   4.930   6.937   8.712 -0.6586  0.2691 -0.4271
  491ACOH    C212823   5.041   6.864   8.679 -0.0524  0.4658  0.0822
  491ACOH    O112824   5.144   6.860   8.743 -0.3011 -0.3760  0.3934
  491ACOH    C112825   5.041   6.835   8.533  0.3209 -0.0680 -0.5308
  491ACOH    H112826   5.140   6.823   8.489  1.1094  0.0633  1.1635
  491ACOH    H212827   4.997   6.924   8.488  1.4704 -0.4140 -2.3697
  491ACOH    H312828   4.976   6.754   8.502 -0.7091  0.0011  1.3332
  492ACOH    H412829   5.882   2.754   4.389 -1.3330  0.2529  0.7759
  492ACOH    O212830   5.811   2.766   4.323 -0.5257  1.0365  0.0470
  492ACOH    C212831   5.831   2.680   4.227 -0.4970 -0.3963  0.3590
  492ACOH    O112832   5.908   2.585   4.214  0.0529 -0.4419  0.2949
  492ACOH    C112833   5.765   2.732   4.109 -0.3289  0.1814  0.4510
  492ACOH    H112834   5.657   2.727   4.119 -0.7105  3.2946 -1.4985
  492ACOH    H212835   5.795   2.687   4.014 -0.6031  1.4656 -0.2536
  492ACOH    H312836   5.788   2.839   4.104  3.1716 -0.5186 -0.4444
  493ACOH    H412837   6.380   4.423   7.975 -0.6214  0.0428  1.5168
  493ACOH    O212838   6.400   4.329   7.959  0.1219  0.3686  0.5267
  493ACOH    C212839   6.290   4.259   7.933  0.0172  0.5239 -0.4655
  493ACOH    O112840   6.180   4.310   7.911  0.4885  0.3488  0.1517
  493ACOH    C112841   6.306   4.111   7.915  0.0651 -0.5316  1.1268
  493ACOH    H112842   6.340   4.096   7.812 -0.2167  0.2751  0.9215
  493ACOH    H212843   6.214   4.055   7.933 -0.0640 -1.5706 -2.3279
  493ACOH    H312844   6.376   4.090   7.997  1.1613  0.8432  0.5577
  494ACOH    H412845   7.598   7.431   0.928 -1.3100 -0.2236 -0.9922
  494ACOH    O212846   7.583   7.335   0.938  0.5801 -0.4301  0.1288
  494ACOH    C212847   7.571   7.305   1.069  0.8828 -0.2326 -0.0349
  494ACOH    O112848   7.553   7.391   1.152  0.3715  0.6335  0.0208
  494ACOH    C112849   7.562   7.160   1.102 -0.1910 -0.2407  0.3229
  494ACOH    H112850   7.664   7.126   1.085 -0.2094 -0.5264  0.7639
  494ACOH    H212851   7.494   7.119   1.027 -1.7427 -0.7799  1.9806
  494ACOH    H312852   7.521   7.151   1.203  1.2133 -0.3320  0.8995
  495ACOH    H412853   7.482   0.354   9.788 -2.2152  0.2498 -0.9207
  495ACOH    O212854   7.460   0.271   9.742 -0.6720 -0.5261 -0.2983
  495ACOH    C212855   7.448   0.173   9.831  0.0086 -0.5646  0.1444
  495ACOH    O112856   7.442   0.195   9.951  0.3605  0.3207 -0.0960
  495ACOH    C112857   7.482   0.050   9.759 -0.3713 -0.2196  0.1686
  495ACOH    H112858   7.455   0.055   9.654  0.1214 -1.6917 -0.0434
  495ACOH    H212859   7.423  -0.035   9.794 -2.1221  1.2509  0.8673
  495ACOH    H312860   7.590   0.043   9.769 -0.1658  1.5222 -0.6814
  496ACOH    H412861   9.390   7.188   0.482 -0.1015  0.0093 -0.2367
  496ACOH    O212862   9.318   7.154   0.538 -0.1656  0.3759 -0.0946
  496ACOH    C212863   9.207   7.201   0.470 -0.1729 -0.1310  0.1810
  496ACOH    O112864   9.205   7.207   0.350  0.2472 -1.2714 -0.0532
  496ACOH    C112865   9.090   7.199   0.560  0.4363  0.0625 -0.1688
  496ACOH    H112866   9.088   7.122   0.637  1.9234  1.3968  1.2415
  496ACOH    H212867   9.000   7.181   0.502 -0.4562 -1.5515  1.6441
  496ACOH    H312868   9.084   7.297   0.606  1.6065  0.3169 -0.5520
  497ACOH    H412869  -0.035   4.788   8.098 -0.0390  0.2928  0.1035
  497ACOH    O212870   0.029   4.816   8.030 -0.0113 -0.0928 -0.0294
  497ACOH    C212871   0.156   4.785   8.050 -0.8202  0.1396  1.1536
  497ACOH    O112872   0.196   4.726   8.148 -0.6138  0.0721 -0.1748
  497ACOH    C112873   0.256   4.821   7.940  0.2884 -0.4074  0.2285
  497ACOH    H112874   0.356   4.813   7.982  0.1234 -0.8437  0.5363
  497ACOH    H212875   0.255   4.927   7.917  1.3027 -0.1798  1.2030
  497ACOH    H312876   0.244   4.764   7.847  0.7859 -1.0224  0.5326
  498ACOH    H412877   4.855   4.556   5.512 -0.0260  2.6665  1.6334
  498ACOH    O212878   4.911   4.581   5.437 -0.0366 -0.1926  0.6239
  498ACOH    C212879   4.867   4.677   5.360  0.1664 -0.5849 -0.6145
  498ACOH    O112880   4.754   4.722   5.355  0.2696 -0.4247  0.1548
  498ACOH    C112881   4.960   4.717   5.254  0.3984  0.4138 -0.3855
  498ACOH    H112882   4.954   4.646   5.171  0.8567 -2.1842  1.7444
  498ACOH    H212883   5.064   4.719   5.284 -0.4813  0.2217  2.8322
  498ACOH    H312884   4.937   4.815   5.212  2.2380  0.8324 -0.4618
  499ACOH    H412885   6.059   7.642   6.965  0.1107 -0.7526  0.4034
  499ACOH    O212886   6.001   7.573   6.928 -0.1636 -0.1249 -0.3399
  499ACOH    C212887   5.952   7.619   6.810 -0.4937  0.4006 -0.0401
  499ACOH    O112888   5.973   7.720   6.757  0.0109 -0.1995 -0.5172
  499ACOH    C112889   5.862   7.524   6.744  0.0713  0.5412 -0.0078
  499ACOH    H112890   5.761   7.527   6.786  0.7829  0.3043  1.7638
  499ACOH    H212891   5.900   7.423   6.759 -2.6691 -0.7623 -1.4319
  499ACOH    H312892   5.859   7.543   6.637 -0.9507 -3.9213 -0.8824
  500ACOH    H412893   6.819   6.832   3.759  0.2743 -0.4685 -2.9086
  500ACOH    O212894   6.772   6.749   3.781  0.2539  0.2524 -0.0711
  500ACOH    C212895   6.816   6.717   3.903 -0.0730 -0.6038 -0.1015
  500ACOH    O112896   6.848   6.799   3.987 -0.4724  0.8983 -0.1127
  500ACOH    C112897   6.790   6.571   3.937  0.0480 -0.1236 -0.5066
  500ACOH    H112898   6.744   6.561   4.036 -0.9995  1.4640 -0.8151
  500ACOH    H212899   6.888   6.524   3.945  1.1392  2.2781  0.8636
  500ACOH    H312900   6.726   6.524   3.862  2.3632 -0.5532 -2.2613
  501ACOH    H412901   4.808   1.515   1.912  0.0236  1.4763  0.4177
  501ACOH    O212902   4.806   1.486   2.005  0.1627 -0.0335 -0.0544
  501ACOH    C212903   4.681   1.446   2.050 -0.1488  0.3224  0.4206
  501ACOH    O112904   4.581   1.463   1.985  0.1902  0.2408  0.3601
  501ACOH    C112905   4.686   1.376   2.182 -0.0850 -0.5689  0.5855
  501ACOH    H112906   4.726   1.448   2.254 -0.4648 -1.0623  1.2869
  501ACOH    H212907   4.752   1.290   2.173  0.7769  0.1977 -0.7403
  501ACOH    H312908   4.589   1.343   2.219 -1.4338  1.6625 -0.8372
  502ACOH    H412909   5.087   9.459   9.689  0.5349  1.0254  1.7922
  502ACOH    O212910   5.051   9.398   9.754 -0.5887 -0.2747 -0.0124
  502ACOH    C212911   4.922   9.402   9.736  0.3998  0.2175  0.6866
  502ACOH    O112912   4.859   9.476   9.664  0.1078 -0.5067 -0.2709
  502ACOH    C112913   4.848   9.336   9.839  0.6071  0.5092 -0.2343
  502ACOH    H112914   4.752   9.386   9.856  0.4963 -0.0812  0.9050
  502ACOH    H212915   4.905   9.319   9.930 -0.1965 -1.2332 -0.0289
  502ACOH    H312916   4.818   9.237   9.804  1.2324 -0.5611  2.1663
  503ACOH    H412917   6.032   3.881   7.892 -1.4688 -1.6401  0.2081
  503ACOH    O212918   6.081   3.840   7.819 -0.3214  0.1990 -0.0773
  503ACOH    C212919   6.012   3.740   7.767 -0.2517  0.2325 -0.0392
  503ACOH    O112920   5.905   3.701   7.809 -0.0899  0.4040  0.6284
  503ACOH    C112921   6.065   3.683   7.638 -0.6783 -0.1432  0.5676
  503ACOH    H112922   6.168   3.713   7.622  0.0005 -1.5846  2.1013
  503ACOH    H212923   5.995   3.718   7.562  0.8501  0.9473 -0.3606
  503ACOH    H312924   6.071   3.575   7.653  3.0947 -0.0090  0.3463
  504ACOH    H412925   7.900   8.733   9.680 -0.4436 -0.9694  2.9345
  504ACOH    O212926   7.836   8.672   9.639 -0.1081  0.1935  0.6037
  504ACOH    C212927   7.841   8.548   9.703 -0.3244  0.2939 -0.0699
  504ACOH    O112928   7.846   8.529   9.823  0.7666  0.3638  0.4454
  504ACOH    C112929   7.791   8.447   9.608 -0.8493  0.0256 -0.4564
  504ACOH    H112930   7.789   8.489   9.508  0.0795  0.7170 -0.1873
  504ACOH    H212931   7.692   8.419   9.645 -0.0461 -0.2913  1.4951
  504ACOH    H312932   7.851   8.357   9.620 -1.9952 -0.5316  1.3830
  505ACOH    H412933   7.516   3.755   4.986 -0.4351 -0.8045 -2.0204
  505ACOH    O212934   7.424   3.749   5.016  0.0696  0.1024 -0.2125
  505ACOH    C212935   7.358   3.717   4.903  0.0527  0.1643 -0.0138
  505ACOH    O112936   7.398   3.679   4.796  0.4150  0.0662  0.4201
  505ACOH    C112937   7.214   3.742   4.929  0.0322  0.4766 -0.3113
  505ACOH    H112938   7.181   3.689   5.019  2.4560  1.4394  1.2145
  505ACOH    H212939   7.165   3.691   4.847  3.0086 -0.1632 -1.7578
  505ACOH    H312940   7.197   3.850   4.923 -0.2927  0.5620  1.7405
  506ACOH    H412941   6.111   6.382   9.110 -0.1716  2.7874 -1.3387
  506ACOH    O212942   6.200   6.380   9.071  0.5109 -0.1833  0.2384
  506ACOH    C212943   6.196   6.314   8.957 -0.5083 -0.3507  0.4474
  506ACOH    O112944   6.098   6.248   8.917 -0.9952  0.8429  0.0860
  506ACOH    C112945   6.335   6.285   8.917  0.3159  0.1534 -0.1899
  506ACOH    H112946   6.410   6.356   8.952  1.3849 -0.1444 -1.8036
  506ACOH    H212947   6.342   6.294   8.808 -1.2928  0.2492 -0.2984
  506ACOH    H312948   6.370   6.183   8.934  0.7003  0.0616 -1.4718
  507ACOH    H412949   5.661   8.598   3.208 -1.5811  1.8515  0.2566
  507ACOH    O212950   5.603   8.538   3.158  0.0235  0.7037 -0.2748
  507ACOH    C212951   5.605   8.592   3.029  0.2814  0.5694  0.0155
  507ACOH    O112952   5.683   8.682   2.998  0.8410  0.1230 -0.2956
  507ACOH    C112953   5.525   8.497   2.944  0.4597  0.6936  0.7029
  507ACOH    H112954   5.444   8.557   2.902  0.5085  1.7781  2.1053
  507ACOH    H212955   5.480   8.414   2.998  0.6158 -0.2040 -0.5179
  507ACOH    H312956   5.595   8.460   2.869 -1.6370 -2.1274  0.0775
  508ACOH    H412957   2.903   9.036   4.586 -0.5702  1.6367  0.1483
  508ACOH    O212958   2.834   8.995   4.642  0.0338  0.0645 -0.2138
  508ACOH    C212959   2.899   8.953   4.754  0.3722 -1.0081 -0.0900
  508ACOH    O112960   3.014   8.983   4.777  0.3311 -0.0609  0.7723
  508ACOH    C112961   2.798   8.902   4.849  0.0478  0.2985  0.2583
  508ACOH    H112962   2.738   8.824   4.802  0.2529  0.8949 -1.0247
  508ACOH    H212963   2.723   8.981   4.862  0.1376  0.1310  1.8567
  508ACOH    H312964   2.835   8.872   4.947  0.4448 -1.9327 -0.5560
  509ACOH    H412965   6.434   2.716   8.614 -1.4154 -2.7333  0.2781
  509ACOH    O212966   6.352   2.762   8.590  0.2865  0.3079 -0.0834
  509ACOH    C212967   6.282   2.685   8.507  0.1768  0.4875 -0.5918
  509ACOH    O112968   6.284   2.566   8.504 -0.1129  0.0869 -0.3481
  509ACOH    C112969   6.201   2.762   8.419 -0.0969  0.4339 -0.2934
  509ACOH    H112970   6.102   2.777   8.462  0.1435  1.3316 -0.0296
  509ACOH    H212971   6.199   2.710   8.324  2.6410 -1.0116  0.4045
  509ACOH    H312972   6.251   2.857   8.398  0.1953  0.6799  1.4163
  510ACOH    H412973   5.998   7.288   3.229 -1.8227  1.6304 -2.7006
  510ACOH    O212974   5.916   7.268   3.276  0.1890  0.2141  0.4146
  510ACOH    C212975   5.949   7.207   3.393 -0.1072  0.1819 -0.4257
  510ACOH    O112976   6.054   7.201   3.451 -0.0015 -0.4545 -0.3418
  510ACOH    C112977   5.827   7.178   3.478 -0.0276 -0.4124  0.7672
  510ACOH    H112978   5.761   7.264   3.469 -1.0968 -1.4082 -1.3114
  510ACOH    H212979   5.838   7.143   3.581  0.6552 -1.1277  0.4555
  510ACOH    H312980   5.771   7.100   3.427 -1.1135  0.1107  1.1310
  511ACOH    H412981   5.256   1.650   4.013  0.0327  0.8423 -2.0146
  511ACOH    O212982   5.341   1.613   3.983  0.0505 -0.3980 -0.5416
  511ACOH    C212983   5.418   1.720   3.959  0.0679 -0.1901  0.7390
  511ACOH    O112984   5.396   1.831   4.008  0.2494 -0.2178  0.7567
  511ACOH    C112985   5.519   1.711   3.857  0.0437  0.3540 -0.0699
  511ACOH    H112986   5.484   1.640   3.781  0.3996  0.1626 -0.0549
  511ACOH    H212987   5.614   1.665   3.885  0.2691  0.1211 -1.1884
  511ACOH    H312988   5.534   1.803   3.801  2.4555 -0.2249 -0.4249
  512ACOH    H412989   6.849   8.622   1.780  1.0169 -0.9942  1.2815
  512ACOH    O212990   6.772   8.568   1.805  0.3829 -0.7368 -0.0758
  512ACOH    C212991   6.663   8.651   1.781 -0.1944  0.8444  0.7387
  512ACOH    O112992   6.671   8.773   1.771 -0.3725  0.0667 -0.0155
  512ACOH    C112993   6.535   8.588   1.790 -0.6891 -0.7346  0.9755
  512ACOH    H112994   6.463   8.639   1.726 -0.4348 -0.8871  0.5671
  512ACOH    H212995   6.501   8.597   1.893 -0.1738  1.0643  1.0011
  512ACOH    H312996   6.525   8.481   1.772 -1.7027 -0.3498 -0.8588
  513ACOH    H412997   4.848   4.880   6.387  3.0089 -0.4716  1.5313
  513ACOH    O212998   4.818   4.912   6.474 -0.5034 -0.2171  0.3157
  513ACOH    C212999   4.789   4.804   6.546 -0.2666 -0.7163  0.2698
  513ACOH    O113000   4.741   4.701   6.499  0.0510 -0.3478  0.6296
  513ACOH    C113001   4.766   4.847   6.684  0.4477  0.1182  0.5631
  513ACOH    H113002   4.857   4.860   6.742  1.3341  1.4242 -1.0890
  513ACOH    H213003   4.709   4.774   6.742 -0.0023 -0.1769 -0.2441
  513ACOH    H313004   4.706   4.937   6.679 -1.9525 -1.4159  0.8741
  514ACOH    H413005   2.418   9.585   1.559  0.3207  0.3582  1.2971
  514ACOH    O213006   2.404   9.493   1.586  0.3526 -0.1347 -0.3142
  514ACOH    C213007   2.454   9.415   1.495 -0.4831 -0.0699  0.4231
  514ACOH    O113008   2.507   9.450   1.393  0.4298  1.2445 -0.3478
  514ACOH    C113009   2.443   9.274   1.547 -1.6802 -0.2424 -0.1536
  514ACOH    H113010   2.403   9.263   1.648 -2.1093 -0.0800 -0.3044
  514ACOH    H213011   2.548   9.248   1.536 -0.7090  3.0618  0.5708
  514ACOH    H313012   2.377   9.214   1.484 -0.2089 -2.2004  0.1198
  515ACOH    H413013   7.213   7.312   7.740 -0.5611  2.1005 -0.9529
  515ACOH    O213014   7.172   7.242   7.686  0.8662  0.4349  0.0570
  515ACOH    C213015   7.089   7.305   7.600  0.0576 -0.2884  0.1366
  515ACOH    O113016   7.048   7.260   7.498  0.2876  0.5095  0.3791
  515ACOH    C113017   7.086   7.451   7.606 -0.0002 -0.1644  0.7210
  515ACOH    H113018   6.996   7.485   7.555  1.1072 -0.2957 -1.3612
  515ACOH    H213019   7.170   7.492   7.550 -2.2308  1.5568 -1.4804
  515ACOH    H313020   7.090   7.493   7.706 -2.4880 -0.9730  1.2142
  516ACOH    H413021   7.914   5.692   5.842 -1.6691  0.1081 -1.0234
  516ACOH    O213022   7.910   5.596   5.854  0.6362  0.1296  0.1999
  516ACOH    C213023   7.836   5.549   5.758  0.2150 -0.1828 -0.6460
  516ACOH    O113024   7.771   5.621   5.680  0.3469 -0.6178  0.4951
  516ACOH    C113025   7.800   5.411   5.774  1.2113 -0.4955 -0.2104
  516ACOH    H113026   7.760   5.372   5.681 -1.7972 -2.2214  1.6907
  516ACOH    H213027   7.722   5.414   5.851  1.2083 -2.0985 -0.1352
  516ACOH    H313028   7.892   5.360   5.804  1.3900  0.0834  0.2551
  517ACOH    H413029   3.237   1.851   8.784  0.8510  0.6233 -0.9664
  517ACOH    O213030   3.176   1.917   8.748 -0.3412 -0.0465 -0.2060
  517ACOH    C213031   3.083   1.941   8.839 -0.3406 -1.3494 -0.0905
  517ACOH    O113032   3.079   1.888   8.950  0.8056  0.1710  0.0177
  517ACOH    C113033   2.982   2.045   8.808 -0.3121  0.3757 -0.2589
  517ACOH    H113034   2.882   2.003   8.814 -0.3592  0.4705 -0.3712
  517ACOH    H213035   3.002   2.101   8.716  0.3921 -0.2149 -0.4688
  517ACOH    H313036   2.992   2.118   8.888  0.2328 -0.8763  0.8343
  518ACOH    H413037   5.662   4.735   2.697  0.1999 -1.6430  0.0774
  518ACOH    O213038   5.602   4.731   2.621  0.4932 -0.0807 -0.2441
  518ACOH    C213039   5.474   4.775   2.652 -0.0194 -0.2216 -0.0738
  518ACOH    O113040   5.439   4.819   2.761  0.2878 -0.4916  0.5227
  518ACOH    C113041   5.363   4.758   2.550 -0.3426 -0.0440 -0.3792
  518ACOH    H113042   5.288   4.837   2.556 -0.2831 -0.1152  1.6300
  518ACOH    H213043   5.310   4.665   2.575 -0.5088  0.0349 -0.4306
  518ACOH    H313044   5.407   4.741   2.452 -0.2097 -1.2176 -0.1275
  519ACOH    H413045   2.547   2.133   4.719  0.7989 -0.4194 -3.0778
  519ACOH    O213046   2.625   2.190   4.725  0.2481  0.1081  0.0355
  519ACOH    C213047   2.732   2.111   4.771  0.4979  0.0652  0.8089
  519ACOH    O113048   2.721   2.007   4.833  0.0324  0.2842  0.4544
  519ACOH    C113049   2.867   2.170   4.747 -0.4434 -0.3346 -0.1114
  519ACOH    H113050   2.918   2.105   4.676 -0.8131 -1.4225  0.6069
  519ACOH    H213051   2.933   2.187   4.831 -2.0265 -0.5385  1.2021
  519ACOH    H313052   2.855   2.268   4.700 -0.2483 -0.6770 -0.8942
  520ACOH    H413053   6.208   2.073   3.271  2.2155  0.2183  0.0059
  520ACOH    O213054   6.185   2.114   3.186  0.1095 -0.2640  0.3133
  520ACOH    C213055   6.142   2.242   3.197  0.4863 -0.8282 -0.2932
  520ACOH    O113056   6.119   2.317   3.287 -0.3447  0.2363 -0.3835
  520ACOH    C113057   6.080   2.271   3.062 -0.3929  0.4714 -0.5144
  520ACOH    H113058   6.012   2.193   3.027  0.6050 -0.9059  0.5641
  520ACOH    H213059   6.162   2.269   2.991  2.3813 -0.2082  2.6123
  520ACOH    H313060   6.036   2.371   3.069 -2.0812 -0.2771 -0.1805
  521ACOH    H413061   6.146   2.555   5.238  2.2505 -2.2964  0.3597
  521ACOH    O213062   6.116   2.583   5.326  0.8717 -0.9820 -0.5106
  521ACOH    C213063   6.147   2.715   5.334 -0.2318 -0.7018 -0.4881
  521ACOH    O113064   6.242   2.764   5.279  0.5139  0.2177  0.1666
  521ACOH    C113065   6.086   2.780   5.455 -0.2210  0.0963 -0.7596
  521ACOH    H113066   6.118   2.885   5.463 -0.8971  0.1895  1.0073
  521ACOH    H213067   6.116   2.712   5.535  0.4512 -1.9073 -2.6834
  521ACOH    H313068   5.980   2.765   5.439 -0.0102 -1.2286 -0.9370
  522ACOH    H413069   4.423   5.274   5.265 -0.5346  0.3814  2.0502
  522ACOH    O213070   4.447   5.368   5.255 -0.3547  0.0821 -0.8355
  522ACOH    C213071   4.352   5.427   5.327 -0.0119 -0.4852  0.4940
  522ACOH    O113072   4.230   5.409   5.315  0.3957  0.1571 -0.3337
  522ACOH    C113073   4.395   5.524   5.428  0.1678 -0.2523  0.6814
  522ACOH    H113074   4.444   5.609   5.379  0.1287  1.5413  3.6514
  522ACOH    H213075   4.446   5.465   5.504 -0.4695 -0.9599  0.5634
  522ACOH    H313076   4.310   5.570   5.477  0.6312  1.4734 -0.0870
  523ACOH    H413077   9.812   8.668   1.487  1.9387  1.0658 -3.5064
  523ACOH    O213078   9.752   8.606   1.441  0.2329  0.0257 -0.0791
  523ACOH    C213079   9.640   8.619   1.505  0.6997 -0.3554 -0.9835
  523ACOH    O113080   9.600   8.715   1.571  0.0385  0.5371  0.0124
  523ACOH    C113081   9.538   8.528   1.457 -0.2032 -0.1574  0.3456
  523ACOH    H113082   9.584   8.439   1.415  0.3270  0.9552 -1.5031
  523ACOH    H213083   9.490   8.582   1.375 -0.0862 -1.2391 -0.4421
  523ACOH    H313084   9.462   8.498   1.529 -1.8567  3.2649  0.1216
  524ACOH    H413085   7.211   7.889   6.459 -0.4902 -0.3830 -0.4487
  524ACOH    O213086   7.274   7.828   6.500  0.1602  0.1786 -0.6093
  524ACOH    C213087   7.204   7.738   6.573 -0.5848  0.0395  0.8287
  524ACOH    O113088   7.085   7.727   6.580 -0.3049  0.1794  0.2135
  524ACOH    C113089   7.301   7.670   6.663  0.2135  0.7175 -0.0055
  524ACOH    H113090   7.299   7.562   6.649  0.6425  0.1065  4.0448
  524ACOH    H213091   7.282   7.690   6.768 -0.3567 -0.8733  0.2044
  524ACOH    H313092   7.404   7.694   6.634  0.8256  3.1023  3.7404
  525ACOH    H413093   8.429   2.720   7.362 -2.3254 -0.1712 -1.7827
  525ACOH    O213094   8.451   2.644   7.306  0.4950 -0.5288 -0.2881
  525ACOH    C213095   8.530   2.687   7.205 -0.3585  0.1451  0.6282
  525ACOH    O113096   8.574   2.801   7.200 -0.6606  0.0901  0.0777
  525ACOH    C113097   8.556   2.583   7.097 -0.5499 -0.1304  0.5347
  525ACOH    H113098   8.510   2.486   7.115 -1.0443  0.5004  2.8870
  525ACOH    H213099   8.663   2.583   7.081 -0.7992  1.8047 -1.3196
  525ACOH    H313100   8.521   2.622   7.002 -0.2627 -0.1499  0.4222
  526ACOH    H413101   3.816   0.773   9.172 -0.0147  0.1250  0.3796
  526ACOH    O213102   3.794   0.748   9.264  0.0538 -0.3457  0.2639
  526ACOH    C213103   3.906   0.722   9.327  0.7308  0.3272  0.2965
  526ACOH    O113104   4.011   0.775   9.316  1.0818 -0.0853  0.5619
  526ACOH    C113105   3.874   0.648   9.454 -0.0473  0.9543  0.7110
  526ACOH    H113106   3.786   0.584   9.452  0.5066  0.1363  1.9559
  526ACOH    H213107   3.853   0.728   9.525 -1.1868  0.8574  0.4941
  526ACOH    H313108   3.959   0.584   9.477  2.2716  2.8634 -2.1331
  527ACOH    H413109   6.604   7.346   3.682 -0.4541 -0.0454 -1.1997
  527ACOH    O213110   6.698   7.362   3.663 -0.2248  0.0619 -0.0222
  527ACOH    C213111   6.701   7.493   3.649 -0.6510  0.1831  0.0324
  527ACOH    O113112   6.607   7.569   3.637  0.0527  0.9260  0.1816
  527ACOH    C113113   6.843   7.534   3.649 -1.1431 -0.7138 -0.1306
  527ACOH    H113114   6.907   7.489   3.725 -2.8403  1.8788  3.0063
  527ACOH    H213115   6.853   7.642   3.661  2.1272 -1.0171  0.5954
  527ACOH    H313116   6.887   7.512   3.552  3.5693  1.9016  1.2132
  528ACOH    H413117   7.508   8.386   1.082 -1.0826  0.9787 -0.6132
  528ACOH    O213118   7.434   8.325   1.098  0.0327 -0.2060  0.1127
  528ACOH    C213119   7.350   8.384   1.183 -0.0140  0.4523 -0.2420
  528ACOH    O113120   7.369   8.497   1.232  0.2928 -0.4575 -0.4121
  528ACOH    C113121   7.221   8.309   1.194  0.7505 -0.2608 -0.0634
  528ACOH    H113122   7.145   8.348   1.126  1.1386 -0.9985 -0.9258
  528ACOH    H213123   7.185   8.314   1.297  1.9159  1.0939  0.2816
  528ACOH    H313124   7.235   8.205   1.165 -0.1955 -0.7069  1.0037
  529ACOH    H413125   7.905   4.777   4.233  1.6360  1.3186 -1.2126
  529ACOH    O213126   7.956   4.796   4.313  0.3218  0.4546 -0.1376
  529ACOH    C213127   8.068   4.725   4.289  0.2596 -0.6533 -0.3724
  529ACOH    O113128   8.071   4.609   4.254 -0.2672  0.3088  0.1293
  529ACOH    C113129   8.197   4.788   4.326 -0.3728 -0.6074  0.2879
  529ACOH    H113130   8.275   4.773   4.252 -0.3010 -1.8688  0.6172
  529ACOH    H213131   8.221   4.756   4.428 -2.0946  2.2680  1.6927
  529ACOH    H313132   8.178   4.893   4.352  1.9806  0.7558 -3.1864
  530ACOH    H413133   1.718   7.133   3.047  2.0191  0.9208  1.4198
  530ACOH    O213134   1.657   7.128   3.123  0.1013 -0.3942 -0.1548
  530ACOH    C213135   1.646   7.006   3.167  0.6377 -0.2026  0.3845
  530ACOH    O113136   1.723   6.913   3.141  0.1650  0.2051 -0.1689
  530ACOH    C113137   1.544   6.985   3.278 -0.6297 -0.6373  0.2623
  530ACOH    H113138   1.551   6.881   3.311  0.1579 -0.0600  1.9691
  530ACOH    H213139   1.444   7.012   3.245 -1.0737  0.0967  2.1496
  530ACOH    H313140   1.573   7.040   3.367  0.5577  3.4736 -2.5153
  531ACOH    H413141   1.262   4.377   8.134 -1.3159  1.1996  1.9658
  531ACOH    O213142   1.345   4.418   8.164  0.0948  0.2409 -0.4754
  531ACOH    C213143   1.418   4.331   8.242  0.2984  0.3872 -0.4248
  531ACOH    O113144   1.401   4.213   8.264 -0.0869  0.7858 -0.4085
  531ACOH    C113145   1.531   4.408   8.304 -0.3438  0.2127  0.1120
  531ACOH    H113146   1.591   4.430   8.216 -2.7628 -0.2478 -1.6979
  531ACOH    H213147   1.585   4.336   8.366 -0.5943  0.9636  1.2270
  531ACOH    H313148   1.506   4.499   8.360 -2.5658  0.8411 -1.8293
  532ACOH    H413149   5.563   8.153   7.367 -0.0907  0.6336  0.3650
  532ACOH    O213150   5.619   8.091   7.417 -0.3372  0.1351  0.0346
  532ACOH    C213151   5.567   8.108   7.540  0.5622  0.6669 -0.0102
  532ACOH    O113152   5.465   8.169   7.568 -0.5451  0.2969 -0.4571
  532ACOH    C113153   5.651   8.037   7.638  0.0654  0.1196  0.6421
  532ACOH    H113154   5.605   7.942   7.666  0.1425 -0.2029 -0.3043
  532ACOH    H213155   5.647   8.106   7.722 -1.9674 -1.0436  1.5243
  532ACOH    H313156   5.754   8.018   7.608  0.1265  0.9848  0.2895
  533ACOH    H413157   4.685   6.725   4.177  1.3991  0.0217 -0.0100
  533ACOH    O213158   4.714   6.817   4.166 -0.2218  0.5080 -0.3130
  533ACOH    C213159   4.643   6.884   4.255  0.3897 -0.4844  0.5052
  533ACOH    O113160   4.573   6.835   4.341  0.1832  0.5260 -0.3680
  533ACOH    C113161   4.673   7.027   4.249 -0.0901 -0.0834 -0.6644
  533ACOH    H113162   4.640   7.054   4.149  1.5771 -1.5906 -1.6578
  533ACOH    H213163   4.779   7.039   4.272  0.1793 -0.5459 -1.6389
  533ACOH    H313164   4.616   7.083   4.323 -1.0874 -1.0564 -0.6691
  534ACOH    H413165   5.569   2.424   2.563  0.1032 -1.1163 -0.8815
  534ACOH    O213166   5.473   2.431   2.550  0.0158  0.5889  0.3919
  534ACOH    C213167   5.452   2.551   2.503  0.0272  0.2693  0.5181
  534ACOH    O113168   5.544   2.635   2.481  0.2714 -0.4837  0.3975
  534ACOH    C113169   5.311   2.582   2.479 -0.1007 -0.0911 -0.3407
  534ACOH    H113170   5.286   2.587   2.373 -0.0519 -0.4906 -0.3720
  534ACOH    H213171   5.283   2.680   2.518  2.2557  1.0731 -1.4890
  534ACOH    H313172   5.246   2.513   2.535  0.6720  0.2157  0.9481
  535ACOH    H413173   6.994   6.551   3.653  0.5794  1.7663 -0.8904
  535ACOH    O213174   6.922   6.559   3.589 -0.3200 -0.3883 -0.1836
  535ACOH    C213175   6.943   6.461   3.498  0.1841 -0.7930 -0.9836
  535ACOH    O113176   6.995   6.357   3.516  0.4092 -0.4966  0.1923
  535ACOH    C113177   6.844   6.475   3.388 -0.1417  0.7039 -0.3140
  535ACOH    H113178   6.877   6.431   3.294 -1.0146 -1.9440  0.5702
  535ACOH    H213179   6.840   6.582   3.368 -1.2559  0.4485 -1.5381
  535ACOH    H313180   6.748   6.438   3.424  1.4283 -2.7370  0.4786
  536ACOH    H413181   6.282   5.029   2.709 -0.9310 -0.4388 -0.0943
  536ACOH    O213182   6.230   5.101   2.750  0.3456  0.3288  0.2017
  536ACOH    C213183   6.184   5.192   2.666  0.5347 -0.0680  0.5557
  536ACOH    O113184   6.199   5.204   2.545 -0.2076 -0.1063  0.2414
  536ACOH    C113185   6.113   5.294   2.743 -0.2971 -0.4877 -0.0168
  536ACOH    H113186   6.009   5.268   2.761 -0.3584 -1.6440 -1.8270
  536ACOH    H213187   6.114   5.379   2.675  1.7108 -1.8348 -1.7480
  536ACOH    H313188   6.166   5.330   2.831 -1.2998  0.0356  0.3847
  537ACOH    H413189   2.815   6.445   9.370  0.7049  0.6989  2.0485
  537ACOH    O213190   2.830   6.352   9.392 -0.3785  0.0062  0.0321
  537ACOH    C213191   2.861   6.354   9.525  0.8396  0.3826 -0.6899
  537ACOH    O113192   2.839   6.450   9.600  0.6801  0.8410  0.0230
  537ACOH    C113193   2.907   6.219   9.571  0.3884 -0.2519  0.1184
  537ACOH    H113194   3.009   6.188   9.551  1.0256  0.7779  1.6843
  537ACOH    H213195   2.832   6.148   9.536 -0.9797  1.5198 -0.6304
  537ACOH    H313196   2.898   6.212   9.680 -0.1151  0.0928  0.1004
  538ACOH    H413197   7.985   4.024   1.789 -1.9340 -1.7136  1.4442
  538ACOH    O213198   7.961   4.023   1.695  0.3377 -0.5664  0.8061
  538ACOH    C213199   7.869   3.924   1.690  0.5351  0.4050  0.0652
  538ACOH    O113200   7.812   3.874   1.784  0.1887  0.0058 -0.4586
  538ACOH    C113201   7.848   3.891   1.549 -0.0310 -0.2285  0.6201
  538ACOH    H113202   7.929   3.828   1.511  0.6945  1.2944 -0.4565
  538ACOH    H213203   7.831   3.976   1.482 -4.4636 -2.6754 -1.5450
  538ACOH    H313204   7.764   3.822   1.550  0.3069 -0.6448  0.5911
  539ACOH    H413205   7.284   3.744   2.163 -1.0290 -1.9772  2.2337
  539ACOH    O213206   7.216   3.812   2.181  0.1708 -0.1098 -0.0534
  539ACOH    C213207   7.140   3.825   2.071  0.6218 -0.6668  0.1713
  539ACOH    O113208   7.167   3.778   1.962 -0.2522 -0.2252 -0.2864
  539ACOH    C113209   7.030   3.922   2.089  0.1290 -0.4400 -0.1033
  539ACOH    H113210   6.955   3.890   2.161  0.2132  0.1346  0.2397
  539ACOH    H213211   6.982   3.946   1.994  1.6922  1.5127 -0.4260
  539ACOH    H313212   7.082   4.012   2.121 -1.3391  0.3245  0.1851
  540ACOH    H413213   5.319   6.049   2.272 -0.2699 -0.2129 -0.5825
  540ACOH    O213214   5.394   5.994   2.247  0.4062  0.0356  0.8271
  540ACOH    C213215   5.464   5.958   2.350 -0.2579 -0.2708 -0.4891
  540ACOH    O113216   5.437   5.987   2.465 -0.0847  0.3049  0.2109
  540ACOH    C113217   5.568   5.853   2.320  0.8150 -0.3427  0.7782
  540ACOH    H113218   5.665   5.864   2.368  1.0784 -1.1271  0.4389
  540ACOH    H213219   5.593   5.842   2.214  0.3696 -1.7524  0.8106
  540ACOH    H313220   5.537   5.752   2.347  0.3900 -0.9196 -1.7863
  541ACOH    H413221   6.949   5.653   7.173  0.1054  0.6158 -1.2271
  541ACOH    O213222   6.941   5.746   7.198 -0.3056  0.2246  0.1333
  541ACOH    C213223   6.912   5.753   7.329  0.0595 -0.2749 -0.1382
  541ACOH    O113224   6.840   5.674   7.386  0.1748  0.0536  0.3345
  541ACOH    C113225   6.944   5.883   7.385 -0.5252  0.4479  0.0019
  541ACOH    H113226   6.905   5.959   7.317 -1.0028  2.1182  2.0761
  541ACOH    H213227   7.051   5.896   7.402 -0.7244  1.0874  0.8075
  541ACOH    H313228   6.900   5.892   7.485  1.6509  1.1096  0.9443
  542ACOH    H413229   5.564   7.310   4.930 -1.4295  0.0651 -1.6451
  542ACOH    O213230   5.589   7.216   4.932  0.0037  0.4503 -0.4112
  542ACOH    C213231   5.684   7.188   5.024 -0.0244 -0.0486 -0.4992
  542ACOH    O113232   5.772   7.265   5.054  0.0880 -0.0490  0.5433
  542ACOH    C113233   5.676   7.048   5.066  0.5018 -0.2129 -0.3787
  542ACOH    H113234   5.640   6.979   4.990 -0.7966  0.6091 -0.5223
  542ACOH    H213235   5.630   7.050   5.165  1.2891 -1.9365  0.0494
  542ACOH    H313236   5.777   7.010   5.080  0.2829  0.0111  2.0489
  543ACOH    H413237   4.448   0.411   5.135  0.9541  1.2715 -0.3367
  543ACOH    O213238   4.535   0.374   5.160  0.2509  0.0044  0.2876
  543ACOH    C213239   4.524   0.238   5.135  0.2721 -0.4418 -0.0618
  543ACOH    O113240   4.436   0.182   5.072  0.2031  0.5761  0.1353
  543ACOH    C113241   4.644   0.175   5.197 -0.2241 -0.0806  0.3708
  543ACOH    H113242   4.651   0.070   5.172  0.8638  0.1319 -0.2704
  543ACOH    H213243   4.635   0.187   5.305  1.7892  2.5672  0.3063
  543ACOH    H313244   4.729   0.227   5.153 -1.6293  0.6826 -1.4963
  544ACOH    H413245   7.861   5.137   4.571 -2.0592 -1.7251  1.7567
  544ACOH    O213246   7.796   5.209   4.568 -0.3679 -0.2412  0.1107
  544ACOH    C213247   7.715   5.159   4.474  0.4808  0.7777 -0.3238
  544ACOH    O113248   7.733   5.069   4.402  0.5862  0.0950  0.1669
  544ACOH    C113249   7.604   5.257   4.467 -0.4305 -0.0891 -0.6567
  544ACOH    H113250   7.554   5.259   4.371 -1.6392  2.1732 -0.0229
  544ACOH    H213251   7.638   5.357   4.495  0.3826 -0.4036 -0.5318
  544ACOH    H313252   7.540   5.226   4.550 -0.2095 -2.2187 -1.2586
  545ACOH    H413253   7.294   1.493   9.765  0.6666  1.9372  0.6955
  545ACOH    O213254   7.251   1.537   9.690  0.1329 -0.0247 -0.1700
  545ACOH    C213255   7.338   1.549   9.592 -0.1242  0.0898  0.8215
  545ACOH    O113256   7.450   1.494   9.585  0.2604 -0.0115  0.3880
  545ACOH    C113257   7.284   1.630   9.483 -0.0190  0.3468 -0.3771
  545ACOH    H113258   7.297   1.581   9.386 -2.2433  0.9632 -1.0110
  545ACOH    H213259   7.350   1.716   9.485  0.6004 -0.1341  0.4134
  545ACOH    H313260   7.178   1.653   9.496 -0.0533 -0.9406  1.8004
  546ACOH    H413261   4.873   4.070   5.123  0.0937 -1.1081  0.8814
  546ACOH    O213262   4.922   4.089   5.042 -0.2400 -0.6833  0.7733
  546ACOH    C213263   5.054   4.060   5.077 -0.1984  0.5346  0.3970
  546ACOH    O113264   5.089   3.947   5.109 -0.1625 -0.2695  0.3461
  546ACOH    C113265   5.147   4.156   5.006 -0.1246 -0.3784 -0.5495
  546ACOH    H113266   5.091   4.205   4.926 -2.3650  0.0524  1.2129
  546ACOH    H213267   5.243   4.110   4.980  0.1073 -0.1152 -0.1437
  546ACOH    H313268   5.171   4.237   5.074  0.9750  1.4773 -3.0903
  547ACOH    H413269   6.769   3.964   3.174  0.6843  2.3332 -3.2434
  547ACOH    O213270   6.677   3.987   3.154 -0.5356 -0.2949 -0.9550
  547ACOH    C213271   6.600   3.890   3.211 -0.1692  0.7228 -0.3429
  547ACOH    O113272   6.624   3.771   3.220  1.1547 -0.5011 -0.8339
  547ACOH    C113273   6.458   3.931   3.235  0.1880  0.6939  0.1152
  547ACOH    H113274   6.452   4.039   3.226 -0.9216  0.7624  1.4725
  547ACOH    H213275   6.426   3.894   3.333 -0.2239 -0.6795 -0.5240
  547ACOH    H313276   6.394   3.895   3.155  0.3540 -0.4685  0.4847
  548ACOH    H413277   8.423   4.543   7.784 -1.9721  1.2380  0.5489
  548ACOH    O213278   8.483   4.618   7.804 -0.4820  0.2517 -0.1466
  548ACOH    C213279   8.545   4.590   7.920 -0.2704  0.1757  0.4150
  548ACOH    O113280   8.549   4.482   7.975  0.7592  0.3333 -0.2551
  548ACOH    C113281   8.638   4.697   7.967  0.2863  0.9616 -0.3741
  548ACOH    H113282   8.718   4.713   7.894  2.1249 -0.3294  1.3134
  548ACOH    H213283   8.680   4.670   8.064 -2.1924  0.2445  0.5311
  548ACOH    H313284   8.582   4.791   7.968 -0.7521  0.4028 -2.3111
  549ACOH    H413285   4.417   6.830   8.759 -0.0628 -0.3167  0.3444
  549ACOH    O213286   4.476   6.855   8.832 -0.0783 -0.0455  0.2627
  549ACOH    C213287   4.393   6.848   8.940  0.3243  0.1892 -0.1867
  549ACOH    O113288   4.273   6.844   8.946 -0.1501  0.6108  1.1728
  549ACOH    C113289   4.469   6.866   9.064 -0.9361 -0.2771  0.0016
  549ACOH    H113290   4.574   6.875   9.039 -0.4592 -1.2853  1.5532
  549ACOH    H213291   4.466   6.775   9.124  1.9025 -0.0701  0.5035
  549ACOH    H313292   4.433   6.955   9.116 -1.9891 -2.1367  2.6077
  550ACOH    H413293   6.923   5.853   6.495 -1.3449  0.9958  1.3089
  550ACOH    O213294   6.844   5.803   6.469 -0.3581  0.1323 -0.0675
  550ACOH    C213295   6.744   5.886   6.454 -0.1593 -1.0535 -0.0928
  550ACOH    O113296   6.752   6.006   6.428 -0.5397  0.4675  0.2792
  550ACOH    C113297   6.615   5.820   6.434 -0.2239 -0.2345  0.6253
  550ACOH    H113298   6.604   5.778   6.334  1.6373  1.3253 -0.2462
  550ACOH    H213299   6.531   5.890   6.441  0.8011  0.9502  1.1280
  550ACOH    H313300   6.598   5.746   6.513 -2.0310  1.3107  1.7235
  551ACOH    H413301   8.078   4.798   4.836 -0.3673  0.1772  0.0523
  551ACOH    O213302   8.067   4.774   4.743 -0.1306 -0.8659  0.2893
  551ACOH    C213303   8.080   4.639   4.753  0.2060  0.4301  0.2384
  551ACOH    O113304   8.120   4.563   4.841 -0.0085  0.1468 -0.1457
  551ACOH    C113305   8.027   4.580   4.624  0.1290 -0.4288  0.3110
  551ACOH    H113306   7.940   4.637   4.592  1.3455  1.1669 -0.2516
  551ACOH    H213307   7.984   4.483   4.646 -1.6340  0.6298  1.6915
  551ACOH    H313308   8.101   4.569   4.545  0.4189 -1.7763  0.7586
  552ACOH    H413309   8.020   8.407   4.850  0.6255  1.0384 -0.3080
  552ACOH    O213310   8.105   8.453   4.850  0.8373  0.6471  0.0011
  552ACOH    C213311   8.130   8.468   4.984 -0.3272 -0.8161 -0.1950
  552ACOH    O113312   8.059   8.422   5.074 -0.0533  0.2355  0.6124
  552ACOH    C113313   8.257   8.538   5.001 -0.1281 -0.7412 -0.5318
  552ACOH    H113314   8.329   8.487   5.065  2.1630  2.6199 -0.3382
  552ACOH    H213315   8.238   8.637   5.041 -0.5642 -0.9441 -0.2276
  552ACOH    H313316   8.301   8.563   4.905 -1.0649  1.2517 -0.4573
  553ACOH    H413317   7.291   6.400   1.098 -1.2602  2.1121  1.0518
  553ACOH    O213318   7.308   6.456   1.021  0.1477 -0.0088 -0.2338
  553ACOH    C213319   7.358   6.570   1.069  0.5133 -0.2281  0.1687
  553ACOH    O113320   7.338   6.612   1.180  0.2459  0.2029 -0.6935
  553ACOH    C113321   7.449   6.636   0.974  1.0639  0.2157 -0.1141
  553ACOH    H113322   7.526   6.570   0.935  1.4355  0.5068  0.1229
  553ACOH    H213323   7.503   6.720   1.017  2.5534 -0.3826 -0.7944
  553ACOH    H313324   7.395   6.668   0.885  0.5461 -2.9610 -1.0104
  554ACOH    H413325   7.434   1.251   2.928 -1.1286 -1.6908 -1.2291
  554ACOH    O213326   7.392   1.211   3.006 -0.3507 -0.4651 -0.1757
  554ACOH    C213327   7.262   1.213   2.972  0.0627  0.2339 -0.4293
  554ACOH    O113328   7.203   1.247   2.871  0.1043 -0.1413 -0.1747
  554ACOH    C113329   7.179   1.149   3.079  0.0518 -0.0952 -0.2218
  554ACOH    H113330   7.250   1.102   3.147 -0.2076 -0.4397 -0.1892
  554ACOH    H213331   7.100   1.085   3.038 -2.4265  1.8743  1.3185
  554ACOH    H313332   7.127   1.233   3.126 -1.2539 -0.0330 -1.7023
  555ACOH    H413333   1.988   6.767   0.395  0.6148 -0.9520 -0.8954
  555ACOH    O213334   1.894   6.749   0.378  0.2322 -0.2729  0.4717
  555ACOH    C213335   1.842   6.714   0.499  0.0685  0.0080  0.5226
  555ACOH    O113336   1.894   6.731   0.609 -0.3787 -0.0999  0.2313
  555ACOH    C113337   1.697   6.668   0.481 -0.2850 -0.4875  0.3217
  555ACOH    H113338   1.644   6.660   0.575 -0.9018  1.3995  0.1674
  555ACOH    H213339   1.709   6.568   0.439  0.1179  0.1408 -1.1014
  555ACOH    H313340   1.640   6.736   0.416  0.3888 -1.2180 -1.0668
  556ACOH    H413341   4.193   8.048   7.102 -0.0908 -2.1428 -0.1055
  556ACOH    O213342   4.187   8.025   7.008 -0.2879 -0.0460 -0.6198
  556ACOH    C213343   4.305   8.065   6.959 -0.3867  0.1437  0.1440
  556ACOH    O113344   4.399   8.124   7.014 -0.1706 -0.4581  0.1742
  556ACOH    C113345   4.322   8.020   6.824 -0.5066  0.1945  0.7120
  556ACOH    H113346   4.426   8.022   6.791 -0.6761 -1.8089 -0.0247
  556ACOH    H213347   4.270   8.094   6.764 -1.5376 -0.9745  0.1384
  556ACOH    H313348   4.283   7.919   6.808 -1.3248  0.7114 -0.6447
  557ACOH    H413349   3.885   1.076   1.793  0.0797 -0.3965 -0.6591
  557ACOH    O213350   3.934   1.160   1.788 -0.0358 -0.2706  0.2081
  557ACOH    C213351   3.870   1.254   1.864 -0.3066  0.0323  0.0165
  557ACOH    O113352   3.748   1.259   1.882  0.0390  0.4917 -0.1952
  557ACOH    C113353   3.963   1.358   1.904  0.2368  0.0679  0.0130
  557ACOH    H113354   4.064   1.327   1.876 -0.0148 -1.0791  0.3398
  557ACOH    H213355   3.960   1.378   2.011  2.1545 -0.6557  0.2194
  557ACOH    H313356   3.942   1.453   1.855 -0.6322 -0.2020 -0.1574
  558ACOH    H413357   3.007   8.886   5.107  0.1722 -1.1208  1.4329
  558ACOH    O213358   3.083   8.861   5.051 -0.2436 -0.3356  0.5116
  558ACOH    C213359   3.180   8.956   5.066  0.1453  0.4671  0.1643
  558ACOH    O113360   3.165   9.047   5.140 -0.0130 -0.5113  0.1499
  558ACOH    C113361   3.307   8.929   4.988 -0.2733 -0.6509  0.1387
  558ACOH    H113362   3.285   8.897   4.886  2.9704  0.2344 -0.9034
  558ACOH    H213363   3.363   8.854   5.043 -1.6948 -1.1481  0.9241
  558ACOH    H313364   3.358   9.025   4.973 -2.0313  0.6797  2.3551
  559ACOH    H413365   6.872   6.209   0.700 -0.7116 -0.5992 -0.3493
  559ACOH    O213366   6.871   6.246   0.790  0.0023 -0.3285 -0.4502
  559ACOH    C213367   6.992   6.264   0.827 -0.5676 -0.2657  0.7228
  559ACOH    O113368   7.090   6.200   0.783  0.3343 -0.5660  0.0693
  559ACOH    C113369   7.006   6.338   0.955  0.0983 -0.0395  0.5467
  559ACOH    H113370   6.909   6.372   0.990 -0.4715  2.7214 -3.4188
  559ACOH    H213371   7.068   6.424   0.934 -0.4115 -0.5803 -3.4312
  559ACOH    H313372   7.041   6.272   1.035  3.0658  0.0912 -0.5924
  560ACOH    H413373   9.762   3.314   9.366  0.5018  0.2920 -0.5339
  560ACOH    O213374   9.847   3.286   9.327  0.5613  0.4580 -0.5230
  560ACOH    C213375   9.794   3.185   9.252  0.0843 -0.6610 -0.2663
  560ACOH    O113376   9.679   3.165   9.208 -0.0261  0.8144  0.0240
  560ACOH    C113377   9.905   3.111   9.192 -0.3430 -0.4246 -0.3613
  560ACOH    H113378   9.886   3.050   9.103 -0.7105 -0.1486 -0.4750
  560ACOH    H213379   9.948   3.043   9.265 -0.7567  2.3774  2.6225
  560ACOH    H313380   9.983   3.181   9.161 -1.8890  1.2275 -0.6110
  561ACOH    H413381   9.285   9.460   2.893 -1.1571 -0.8034  0.4579
  561ACOH    O213382   9.267   9.444   2.799  0.2214 -0.2199  0.0814
  561ACOH    C213383   9.245   9.564   2.755  0.6749 -0.6456  0.2089
  561ACOH    O113384   9.279   9.673   2.808 -0.4453  0.3883  0.4491
  561ACOH    C113385   9.225   9.573   2.614  0.2669 -0.5083  0.0306
  561ACOH    H113386   9.211   9.475   2.568  3.8740 -0.4944 -1.2756
  561ACOH    H213387   9.303   9.620   2.554  1.7583 -2.3526  0.4724
  561ACOH    H313388   9.131   9.628   2.603  0.6003 -0.0896 -0.7539
  562ACOH    H413389   4.904   8.717   0.602 -0.0987  1.3635  0.0115
  562ACOH    O213390   4.856   8.750   0.525 -0.4818  0.5273 -0.1119
  562ACOH    C213391   4.850   8.652   0.426 -0.3637 -0.2837 -0.2010
  562ACOH    O113392   4.906   8.545   0.415 -0.4999  0.1625  0.0739
  562ACOH    C113393   4.771   8.708   0.310  0.3647 -0.2298  0.3858
  562ACOH    H113394   4.834   8.716   0.221 -0.3734  3.0999  0.0985
  562ACOH    H213395   4.726   8.804   0.335 -2.0261 -0.6400 -2.2188
  562ACOH    H313396   4.689   8.642   0.282 -0.3062  0.1688  1.3842
  563ACOH    H413397   6.446   9.287   2.411 -0.2809  0.7724 -0.8198
  563ACOH    O213398   6.362   9.320   2.375 -0.9469 -0.3811 -0.3434
  563ACOH    C213399   6.305   9.385   2.470  0.1608 -0.3704  0.3465
  563ACOH    O113400   6.352   9.415   2.579  0.0780  0.5558  0.7176
  563ACOH    C113401   6.173   9.437   2.428  0.6593  0.3137  0.0787
  563ACOH    H113402   6.170   9.546   2.419  0.7491  0.1925 -1.7029
  563ACOH    H213403   6.093   9.403   2.493  1.3589 -0.7711  0.3905
  563ACOH    H313404   6.153   9.392   2.330 -0.9067 -0.9553  0.9622
  564ACOH    H413405   1.391   6.520   4.121  2.3550 -2.7836 -0.4636
  564ACOH    O213406   1.371   6.534   4.026  0.4441  0.2943  0.3163
  564ACOH    C213407   1.253   6.585   4.024  0.4936  0.0866 -0.4515
  564ACOH    O113408   1.169   6.587   4.113 -0.2644  0.0179 -0.3296
  564ACOH    C113409   1.227   6.645   3.892  0.1846 -0.1334 -0.3220
  564ACOH    H113410   1.197   6.747   3.918 -0.3506 -0.3591 -0.0416
  564ACOH    H213411   1.149   6.591   3.838  1.4295 -0.4368 -1.8510
  564ACOH    H313412   1.320   6.645   3.835  1.4016 -1.2627  1.6180
  565ACOH    H413413   0.750   3.395   9.788 -0.6240 -1.6635 -0.9991
  565ACOH    O213414   0.764   3.471   9.728  0.2226 -0.5908  0.5269
  565ACOH    C213415   0.824   3.559   9.809  0.1534 -0.2448 -0.3484
  565ACOH    O113416   0.895   3.536   9.904  0.5531  0.5081 -0.0500
  565ACOH    C113417   0.810   3.692   9.750  0.1352 -0.0844  0.3453
  565ACOH    H113418   0.866   3.769   9.804 -0.1597  0.7420 -0.5181
  565ACOH    H213419   0.706   3.716   9.730  0.1665 -0.4311 -0.2390
  565ACOH    H313420   0.865   3.685   9.656 -1.5121  1.2393 -0.7466
  566ACOH    H413421   6.097   1.012   8.770 -0.4435 -0.0578 -0.3608
  566ACOH    O213422   6.127   1.043   8.684 -0.3529 -0.4734 -0.4813
  566ACOH    C213423   6.028   1.004   8.598 -1.1128  0.4350  0.1772
  566ACOH    O113424   5.913   0.983   8.620  0.4865 -0.5853 -0.5205
  566ACOH    C113425   6.076   1.032   8.458  0.1031 -0.5767  0.0316
  566ACOH    H113426   6.032   1.130   8.438 -0.0125 -0.7933 -0.7766
  566ACOH    H213427   6.014   0.977   8.387 -1.2551  1.5758 -0.5052
  566ACOH    H313428   6.181   1.027   8.431 -0.2340  0.8480 -1.6120
  567ACOH    H413429   2.799   5.521   9.843 -0.0561  1.7429 -1.8598
  567ACOH    O213430   2.882   5.509   9.794  0.7315 -0.3565 -0.0373
  567ACOH    C213431   2.949   5.420   9.873  0.2776  0.0764  0.6518
  567ACOH    O113432   2.895   5.328   9.930 -0.1098 -0.1690  0.1194
  567ACOH    C113433   3.094   5.398   9.838  0.6332 -0.4698  0.1075
  567ACOH    H113434   3.135   5.490   9.796  0.1674 -0.1960  0.2473
  567ACOH    H213435   3.103   5.319   9.764 -0.9388 -0.5251 -0.0466
  567ACOH    H313436   3.147   5.373   9.930 -2.1076 -2.1914  1.2906
  568ACOH    H413437   6.187   6.437   0.876 -1.1515  1.9359 -1.4314
  568ACOH    O213438   6.261   6.490   0.910 -0.7067  0.1969  0.4309
  568ACOH    C213439   6.240   6.490   1.042 -1.0316 -0.4803  0.1548
  568ACOH    O113440   6.149   6.440   1.112 -0.8616 -0.1173  0.6161
  568ACOH    C113441   6.350   6.556   1.113 -0.5866 -0.0195  0.7330
  568ACOH    H113442   6.418   6.618   1.054 -0.0075  0.1334  1.5635
  568ACOH    H213443   6.409   6.487   1.173  0.5324  0.0078 -0.2917
  568ACOH    H313444   6.298   6.627   1.177  0.0085  1.2053 -0.1118
  569ACOH    H413445   5.749   9.335   1.216  1.0896 -0.8264 -0.8467
  569ACOH    O213446   5.700   9.402   1.165  0.1342 -0.4525  0.5192
  569ACOH    C213447   5.760   9.515   1.199  0.0316  0.1383 -0.2335
  569ACOH    O113448   5.876   9.533   1.219 -0.2137  0.2080 -0.2581
  569ACOH    C113449   5.658   9.618   1.201  0.5142  0.8261  0.1932
  569ACOH    H113450   5.594   9.604   1.114 -0.3530  0.5308  0.8791
  569ACOH    H213451   5.709   9.714   1.191  1.6791  0.1999  0.0544
  569ACOH    H313452   5.604   9.606   1.294  0.5946 -0.2375  0.1066
  570ACOH    H413453   1.984   7.610   5.870 -1.9451  0.0725 -0.0560
  570ACOH    O213454   2.008   7.689   5.921 -0.1074 -0.5004  0.0115
  570ACOH    C213455   1.923   7.788   5.873 -0.5227 -0.0573 -0.6275
  570ACOH    O113456   1.844   7.782   5.780  0.0277  0.1081 -0.9132
  570ACOH    C113457   1.941   7.914   5.947 -0.4654 -0.0515  0.0810
  570ACOH    H113458   1.858   7.986   5.946 -0.2245  0.2233 -0.9735
  570ACOH    H213459   2.015   7.968   5.887 -2.1397 -0.1441 -2.1577
  570ACOH    H313460   1.975   7.884   6.046  0.3249 -1.6498 -0.6596
  571ACOH    H413461   6.361   2.945   3.653 -3.6382 -3.1786  0.2355
  571ACOH    O213462   6.324   3.000   3.724  0.4991  0.2407 -0.0480
  571ACOH    C213463   6.323   2.941   3.838 -0.3094  0.4821  0.7812
  571ACOH    O113464   6.287   2.827   3.853  0.0261  0.3223  0.1498
  571ACOH    C113465   6.285   3.037   3.948 -0.8531  0.3245 -0.5662
  571ACOH    H113466   6.360   3.035   4.027 -2.3791 -2.7267  0.9231
  571ACOH    H213467   6.193   3.004   3.997 -1.7502  0.4311 -2.1483
  571ACOH    H313468   6.263   3.133   3.903 -0.1068  0.1578 -1.2951
  572ACOH    H413469   7.969   9.699   0.800  0.5693  0.3999 -0.7421
  572ACOH    O213470   7.899   9.760   0.769  0.1900  0.5171  0.3487
  572ACOH    C213471   7.958   9.826   0.669  0.5512 -0.5346  0.5235
  572ACOH    O113472   8.076   9.821   0.636  0.1959 -0.2697 -0.3117
  572ACOH    C113473   7.870   9.934   0.617 -0.1882 -0.1486 -0.1440
  572ACOH    H113474   7.772   9.932   0.665  1.3101 -2.5123  2.9823
  572ACOH    H213475   7.858   9.930   0.509 -1.3643  0.7304 -0.0572
  572ACOH    H313476   7.917  10.029   0.643 -1.5377  0.6761 -0.6411
  573ACOH    H413477   1.906   9.398   7.530  0.4522  0.5936  0.2875
  573ACOH    O213478   1.825   9.451   7.541 -0.1019 -0.1736 -0.0807
  573ACOH    C213479   1.746   9.382   7.454 -0.1447 -0.8963  0.0998
  573ACOH    O113480   1.756   9.266   7.424  0.1284 -0.1533  0.1840
  573ACOH    C113481   1.619   9.454   7.428 -0.8606  0.1214  0.7232
  573ACOH    H113482   1.576   9.486   7.523 -1.4521 -1.5042  1.0156
  573ACOH    H213483   1.555   9.376   7.386  2.3752 -1.8141 -0.8060
  573ACOH    H313484   1.630   9.533   7.353 -1.2923  0.4061  0.9587
  574ACOH    H413485   7.637   6.452   9.287  1.6985  1.5622  0.6318
  574ACOH    O213486   7.578   6.520   9.250 -0.0005 -0.2952 -0.1851
  574ACOH    C213487   7.473   6.459   9.195  0.1223 -0.3162 -0.1480
  574ACOH    O113488   7.463   6.342   9.168  0.8755 -0.1819  0.0127
  574ACOH    C113489   7.377   6.561   9.138 -0.3560  0.3745 -0.1222
  574ACOH    H113490   7.427   6.627   9.066  2.9731 -2.7851 -0.8421
  574ACOH    H213491   7.330   6.606   9.225  0.8938 -0.8473  1.1990
  574ACOH    H313492   7.302   6.507   9.080  0.6639 -0.5484 -0.6049
  575ACOH    H413493   7.203   7.920   8.025 -1.4919  0.8355  0.6003
  575ACOH    O213494   7.249   7.958   8.102  0.5143 -0.3724  0.0523
  575ACOH    C213495   7.229   7.882   8.213 -0.7095 -0.5299 -0.0195
  575ACOH    O113496   7.218   7.763   8.218  0.4809  0.2364  0.3577
  575ACOH    C113497   7.288   7.961   8.326  0.5496  0.4629  0.4010
  575ACOH    H113498   7.252   8.064   8.327 -0.3152  0.1762 -0.6906
  575ACOH    H213499   7.397   7.957   8.320  0.4661  0.3096 -1.2717
  575ACOH    H313500   7.260   7.912   8.419 -2.5894  1.0358 -0.1928
  576ACOH    H413501   1.677   3.577   3.407 -1.1380 -0.4925 -0.5139
  576ACOH    O213502   1.746   3.517   3.373 -0.5358 -0.1033  0.0094
  576ACOH    C213503   1.789   3.466   3.486  0.7314  0.3371  0.4108
  576ACOH    O113504   1.794   3.522   3.594  0.2484  0.5482 -0.6011
  576ACOH    C113505   1.877   3.346   3.473  0.4961 -0.2888 -0.3955
  576ACOH    H113506   1.977   3.373   3.437  0.3346  1.3014  0.3088
  576ACOH    H213507   1.844   3.272   3.401 -0.2299 -0.3029 -0.0482
  576ACOH    H313508   1.901   3.308   3.572  0.6712 -1.0468 -0.7320
  577ACOH    H413509   9.749   4.331   2.319 -0.8348  0.9784 -0.6175
  577ACOH    O213510   9.785   4.386   2.390  0.2289 -1.0053  0.3852
  577ACOH    C213511   9.793   4.315   2.500 -0.5051  0.0855  0.5440
  577ACOH    O113512   9.812   4.197   2.505  0.7813  0.2458 -0.9623
  577ACOH    C113513   9.816   4.406   2.612 -0.1425 -0.4029  0.1072
  577ACOH    H113514   9.743   4.487   2.605 -0.0379 -0.3752 -0.7132
  577ACOH    H213515   9.914   4.449   2.593 -0.2796  0.5055  1.3818
  577ACOH    H313516   9.818   4.358   2.710  0.1672  0.5834  0.5987
  578ACOH    H413517   0.866   7.169   7.388 -1.4277 -0.7701  1.0215
  578ACOH    O213518   0.861   7.257   7.429 -0.3680 -0.1283 -0.1961
  578ACOH    C213519   0.789   7.319   7.330  0.0856 -0.7074 -0.4659
  578ACOH    O113520   0.725   7.270   7.239  0.4973  0.1262 -0.5136
  578ACOH    C113521   0.775   7.470   7.362  0.2238  0.7960  0.4983
  578ACOH    H113522   0.668   7.491   7.367 -0.3069 -1.0496 -2.3494
  578ACOH    H213523   0.814   7.519   7.274 -0.2311 -2.3350 -1.5258
  578ACOH    H313524   0.829   7.499   7.452 -1.5194  1.5212  1.3414
  579ACOH    H413525   4.857   7.827   6.570  0.6311 -1.0965  0.1760
  579ACOH    O213526   4.809   7.779   6.501 -0.2813  0.1224 -0.0674
  579ACOH    C213527   4.892   7.694   6.453 -0.2748 -0.0331  0.5399
  579ACOH    O113528   5.012   7.680   6.473 -0.7607  0.0024  0.5321
  579ACOH    C113529   4.816   7.615   6.350  0.8183 -0.1632 -0.5463
  579ACOH    H113530   4.798   7.665   6.255  3.0675  2.0922  0.1634
  579ACOH    H213531   4.722   7.586   6.397  1.0261  1.1757  0.7317
  579ACOH    H313532   4.864   7.522   6.322  0.6049 -0.5514  0.3493
  580ACOH    H413533   7.572   3.907   5.444  2.3575  1.5777 -0.5855
  580ACOH    O213534   7.577   3.955   5.528  0.7531 -0.3200  0.6403
  580ACOH    C213535   7.619   3.857   5.613  0.0036 -0.9228  0.0679
  580ACOH    O113536   7.639   3.741   5.589 -0.1230  0.6706  0.0447
  580ACOH    C113537   7.608   3.916   5.751 -0.0445 -0.5083  0.4366
  580ACOH    H113538   7.625   4.023   5.745  0.0773 -0.6068 -1.0317
  580ACOH    H213539   7.686   3.861   5.803  1.9275  0.5829 -1.3311
  580ACOH    H313540   7.510   3.902   5.798 -0.3220  1.3539  0.4372
  581ACOH    H413541   5.855   2.135   8.114  0.8857 -1.0932  0.4533
  581ACOH    O213542   5.939   2.172   8.082  0.2042 -0.0997 -0.2234
  581ACOH    C213543   5.930   2.235   7.959 -0.4449  0.3183  0.0592
  581ACOH    O113544   5.825   2.269   7.912 -0.0172  0.3132 -0.1371
  581ACOH    C113545   6.055   2.222   7.887 -0.4036 -0.4340  0.4763
  581ACOH    H113546   6.039   2.227   7.779 -0.0502  2.2023  0.5060
  581ACOH    H213547   6.117   2.140   7.922 -1.3179 -0.8967  1.0150
  581ACOH    H313548   6.112   2.315   7.898 -0.4180 -0.4982  1.1205
  582ACOH    H413549   8.244   8.049   9.469 -3.7610  1.3709 -2.2656
  582ACOH    O213550   8.218   8.092   9.552  0.2509 -0.2170 -0.0321
  582ACOH    C213551   8.110   8.021   9.599 -0.0502  0.0010  0.5283
  582ACOH    O113552   8.071   7.920   9.552  0.3501  0.1792  0.3095
  582ACOH    C113553   8.098   8.062   9.744 -0.2813 -0.3565 -0.2397
  582ACOH    H113554   8.174   8.010   9.802  1.5965  2.2311 -0.2999
  582ACOH    H213555   8.002   8.038   9.790 -0.6932  0.2127 -0.8022
  582ACOH    H313556   8.109   8.170   9.753 -1.4761 -0.4357  3.0966
  583ACOH    H413557   8.341   7.325   0.217  0.0612 -0.1592 -1.4043
  583ACOH    O213558   8.269   7.373   0.172 -0.5031 -0.0840 -0.4302
  583ACOH    C213559   8.254   7.479   0.249  0.6688  0.0999 -0.3718
  583ACOH    O113560   8.306   7.505   0.353  0.3734  0.1488 -0.3549
  583ACOH    C113561   8.148   7.564   0.183 -0.2790  0.3773  0.6530
  583ACOH    H113562   8.080   7.614   0.252 -1.5418 -0.0452 -0.2911
  583ACOH    H213563   8.083   7.501   0.123 -0.0423 -0.1390  0.9363
  583ACOH    H313564   8.190   7.634   0.111  1.4058 -0.6143  0.6415
  584ACOH    H413565   5.789   3.475   1.866 -0.3839  0.6308 -0.4395
  584ACOH    O213566   5.704   3.430   1.881 -0.0766  0.0710 -0.3839
  584ACOH    C213567   5.678   3.354   1.774 -0.0327 -0.1855  1.0705
  584ACOH    O113568   5.764   3.291   1.710  0.3945  0.0721  0.1822
  584ACOH    C113569   5.540   3.347   1.740  0.0192  0.2140  0.5907
  584ACOH    H113570   5.522   3.414   1.656  0.2629 -1.3940 -0.7778
  584ACOH    H213571   5.486   3.377   1.830  0.9899  3.2497  0.2114
  584ACOH    H313572   5.504   3.251   1.703 -0.8270  0.9081 -0.4389
  585ACOH    H413573   5.564   0.982   1.648 -0.3508  0.3682 -3.3459
  585ACOH    O213574   5.659   1.001   1.640 -0.0703  0.4922 -0.1771
  585ACOH    C213575   5.712   0.887   1.591 -0.4521  0.2438  0.1232
  585ACOH    O113576   5.657   0.808   1.519 -0.0942 -0.1984  0.2497
  585ACOH    C113577   5.858   0.883   1.594 -0.3149 -0.1513  0.5972
  585ACOH    H113578   5.895   0.955   1.667  0.1719  0.0962  0.1026
  585ACOH    H213579   5.891   0.915   1.495  0.7929 -0.2207  0.9367
  585ACOH    H313580   5.887   0.780   1.617 -1.7212 -1.0175 -1.4099
  586ACOH    H413581   9.401   0.479   0.958 -1.3009 -0.9988 -2.2855
  586ACOH    O213582   9.365   0.568   0.949  0.0966 -0.0866  0.4717
  586ACOH    C213583   9.343   0.592   0.818  0.3349  0.0711 -0.2046
  586ACOH    O113584   9.353   0.518   0.721  0.8656 -0.0237 -0.2936
  586ACOH    C113585   9.294   0.731   0.804 -0.5018  0.3779 -0.2528
  586ACOH    H113586   9.300   0.778   0.705 -1.0254  0.9584 -0.0117
  586ACOH    H213587   9.349   0.793   0.874  0.8888  1.1827 -1.9966
  586ACOH    H313588   9.189   0.719   0.830 -0.1210  0.5048  1.3522
  587ACOH    H413589   9.193   1.184   9.527  0.5811  0.1138 -0.4404
  587ACOH    O213590   9.170   1.234   9.607  0.1118 -0.2911 -0.3219
  587ACOH    C213591   9.113   1.144   9.694  0.5944  0.6506 -0.1169
  587ACOH    O113592   9.107   1.024   9.670 -0.1822  0.2494 -1.4047
  587ACOH    C113593   9.068   1.209   9.816 -0.3360 -0.6943  0.4103
  587ACOH    H113594   9.041   1.310   9.788 -2.4520 -1.5662 -0.8294
  587ACOH    H213595   9.157   1.218   9.879  0.2964  0.5737 -0.6378
  587ACOH    H313596   8.983   1.164   9.867 -1.3846  1.9818  1.0745
  588ACOH    H413597   8.441   3.664   3.910 -2.2619 -0.3927 -0.2288
  588ACOH    O213598   8.456   3.579   3.867 -0.0424  0.1157 -0.5346
  588ACOH    C213599   8.584   3.556   3.866  0.9387 -0.0843  0.2655
  588ACOH    O113600   8.667   3.635   3.902 -0.4001  0.5473  0.2446
  588ACOH    C113601   8.613   3.428   3.800  0.0088  1.0167  0.2860
  588ACOH    H113602   8.636   3.439   3.694 -1.3088 -0.8064 -0.2203
  588ACOH    H213603   8.530   3.358   3.805 -0.0363  1.1387  1.3404
  588ACOH    H313604   8.695   3.373   3.846  0.4450  1.4881  0.0697
  589ACOH    H413605   2.919   0.816   4.148  0.0353  0.3969 -2.1734
  589ACOH    O213606   3.012   0.801   4.172 -0.3170  0.7017 -0.6021
  589ACOH    C213607   3.091   0.875   4.097 -0.8670 -0.5455  0.0924
  589ACOH    O113608   3.051   0.944   4.004  0.6139 -0.1713  0.3497
  589ACOH    C113609   3.237   0.869   4.132  0.4098  0.4126 -0.2869
  589ACOH    H113610   3.255   0.930   4.220 -3.3575  0.3204  0.6042
  589ACOH    H213611   3.303   0.899   4.050 -0.0166  0.9664 -0.4262
  589ACOH    H313612   3.265   0.769   4.166  1.1669 -0.2528 -2.7659
  590ACOH    H413613   4.622   4.412   7.741  1.2203 -1.3616 -0.9154
  590ACOH    O213614   4.638   4.442   7.650  1.1548  0.0915 -0.4614
  590ACOH    C213615   4.763   4.402   7.624  0.6057 -0.6791  0.1035
  590ACOH    O113616   4.814   4.302   7.666 -0.2380 -1.0359  0.2804
  590ACOH    C113617   4.814   4.470   7.512  0.2148 -0.4975 -0.0262
  590ACOH    H113618   4.763   4.566   7.515  0.7507 -0.1946 -0.3514
  590ACOH    H213619   4.785   4.417   7.421 -2.1551  0.9872 -0.1485
  590ACOH    H313620   4.922   4.481   7.523  0.4486  0.5894 -2.9102
  591ACOH    H413621   3.811   2.866   2.046  2.4169  1.6409 -1.9938
  591ACOH    O213622   3.872   2.866   2.121  0.1320 -0.7169 -0.0484
  591ACOH    C213623   3.796   2.842   2.226 -0.5804  0.1070 -0.5264
  591ACOH    O113624   3.682   2.798   2.228 -0.1684 -0.0040  0.9934
  591ACOH    C113625   3.874   2.865   2.348 -0.0138 -0.3135  0.2697
  591ACOH    H113626   3.856   2.972   2.363  2.1913  0.1155 -0.0136
  591ACOH    H213627   3.981   2.852   2.331 -0.5135 -1.2222 -2.3140
  591ACOH    H313628   3.844   2.815   2.440  0.7029  0.8127  1.1263
  592ACOH    H413629   9.032   7.972   4.900 -0.2411 -0.0999  0.2972
  592ACOH    O213630   8.973   7.905   4.861 -0.1142 -0.0276 -0.0233
  592ACOH    C213631   8.851   7.956   4.826 -0.2245  0.4598  0.1963
  592ACOH    O113632   8.793   8.050   4.872 -0.2343  0.1678  0.2619
  592ACOH    C113633   8.782   7.856   4.741  0.1282 -0.0602 -0.3439
  592ACOH    H113634   8.848   7.771   4.721  1.9224  1.1832  0.1128
  592ACOH    H213635   8.750   7.911   4.653 -1.8778 -1.0342 -0.2448
  592ACOH    H313636   8.692   7.824   4.792  1.1862 -0.2495  1.4478
  593ACOH    H413637   7.541   4.520   5.612 -1.2997 -1.1069  1.1872
  593ACOH    O213638   7.621   4.526   5.667 -0.5552  0.2856 -0.0056
  593ACOH    C213639   7.679   4.647   5.657 -0.7598 -0.5640 -0.2113
  593ACOH    O113640   7.650   4.739   5.588 -0.5320 -0.8659  0.0183
  593ACOH    C113641   7.789   4.661   5.755  0.0384  0.4693 -0.1190
  593ACOH    H113642   7.821   4.558   5.771 -1.4310 -0.2681 -1.7620
  593ACOH    H213643   7.767   4.713   5.848  0.2563  1.0612 -0.3952
  593ACOH    H313644   7.864   4.723   5.705  0.2417 -0.4159 -0.9429
  594ACOH    H413645   6.826   7.076   2.395 -1.5051 -4.7356  0.9254
  594ACOH    O213646   6.762   7.108   2.461 -0.1267  0.5871 -0.1036
  594ACOH    C213647   6.730   6.988   2.509 -0.1723 -0.4522  0.3938
  594ACOH    O113648   6.775   6.877   2.468 -0.5618  0.1522  0.1669
  594ACOH    C113649   6.639   6.988   2.615  0.6522  0.1977 -0.0403
  594ACOH    H113650   6.547   6.942   2.578  0.6541  0.7466 -0.7254
  594ACOH    H213651   6.625   7.094   2.640  0.3574 -0.1762  1.4580
  594ACOH    H313652   6.678   6.947   2.708 -0.0921  0.3479  0.3439
  595ACOH    H413653   5.392   6.772   1.035  0.5555  1.7883 -2.2395
  595ACOH    O213654   5.486   6.758   1.056 -0.2156 -0.3980  0.1730
  595ACOH    C213655   5.506   6.835   1.161  0.5427 -0.5658 -0.2724
  595ACOH    O113656   5.432   6.916   1.209 -0.1390 -0.3380 -0.3206
  595ACOH    C113657   5.639   6.828   1.223 -0.8540 -0.4746  0.3015
  595ACOH    H113658   5.717   6.899   1.195 -0.3612 -0.4701  1.6616
  595ACOH    H213659   5.683   6.732   1.197  1.4418  0.5590  0.2193
  595ACOH    H313660   5.642   6.819   1.332  2.1686  2.5373  0.5650
  596ACOH    H413661   4.066   6.906   8.452 -0.2748 -2.3573  0.9238
  596ACOH    O213662   4.160   6.884   8.439  0.0800 -0.3909 -0.1283
  596ACOH    C213663   4.190   6.884   8.313 -1.1621  0.0720  0.1936
  596ACOH    O113664   4.112   6.860   8.222  0.4176 -0.1779  0.0660
  596ACOH    C113665   4.339   6.859   8.284 -0.0969 -0.2611  0.3066
  596ACOH    H113666   4.379   6.926   8.208  0.2051  1.5997  2.0451
  596ACOH    H213667   4.355   6.756   8.254 -2.5772 -0.1235 -1.6437
  596ACOH    H313668   4.395   6.878   8.376 -0.9648 -1.7812  1.1645
  597ACOH    H413669   8.765   6.598   3.246  0.7753  1.3041  1.1810
  597ACOH    O213670   8.770   6.524   3.308  0.3681  0.3486  0.1040
  597ACOH    C213671   8.829   6.419   3.247 -0.3898 -0.2199 -0.2902
  597ACOH    O113672   8.861   6.415   3.129 -0.1948 -0.5133 -0.1677
  597ACOH    C113673   8.877   6.327   3.349 -0.6084 -0.2009 -0.1700
  597ACOH    H113674   8.806   6.244   3.355 -0.6797 -0.1809 -0.7366
  597ACOH    H213675   8.878   6.379   3.445  0.2514 -0.3811 -0.0759
  597ACOH    H313676   8.970   6.284   3.313 -1.0732  0.0819 -1.7213
  598ACOH    H413677   7.156   4.377   3.710  2.0080 -0.3330  0.0153
  598ACOH    O213678   7.144   4.304   3.772 -0.2208 -0.2596 -0.2712
  598ACOH    C213679   7.188   4.339   3.893  0.9691 -0.5027 -0.6704
  598ACOH    O113680   7.253   4.438   3.917 -0.5229 -0.0910  0.2168
  598ACOH    C113681   7.174   4.225   3.989  0.0844  0.7219  0.0980
  598ACOH    H113682   7.210   4.135   3.939  0.5945  0.4684  0.9191
  598ACOH    H213683   7.071   4.208   4.019  0.5539 -0.3473  1.1255
  598ACOH    H313684   7.233   4.249   4.078  1.7364  0.2977 -0.8540
  599ACOH    H413685   7.323   7.978   1.382 -0.2385  0.8483 -2.1832
  599ACOH    O213686   7.347   7.885   1.369 -0.6517  0.4154 -0.0002
  599ACOH    C213687   7.469   7.871   1.313 -0.0104  0.0752  0.1725
  599ACOH    O113688   7.528   7.954   1.249 -0.1858 -0.1301  0.4815
  599ACOH    C113689   7.511   7.735   1.319 -0.1829 -0.3321 -0.2066
  599ACOH    H113690   7.524   7.709   1.424 -1.8932 -1.6467 -0.2848
  599ACOH    H213691   7.606   7.715   1.269 -1.0180 -2.4768 -1.0060
  599ACOH    H313692   7.432   7.669   1.282  1.3749 -2.5981  0.3998
  600ACOH    H413693   1.346   9.322   7.643  0.3963 -2.5870  0.4611
  600ACOH    O213694   1.432   9.326   7.688  0.4375 -0.4840  0.2626
  600ACOH    C213695   1.505   9.226   7.643  0.5802 -0.5552 -0.1392
  600ACOH    O113696   1.474   9.145   7.559 -0.1739  0.5884 -0.6786
  600ACOH    C113697   1.608   9.196   7.740  0.0040 -0.4339  0.6177
  600ACOH    H113698   1.651   9.096   7.731 -1.0748 -0.8864  0.4684
  600ACOH    H213699   1.558   9.186   7.836  1.2048 -0.8252  1.2279
  600ACOH    H313700   1.677   9.280   7.738 -2.3462  1.6058  2.5472
  601ACOH    H413701   7.170   8.040   8.712 -2.4401 -1.8209  0.9267
  601ACOH    O213702   7.114   8.116   8.688 -0.0204 -0.2720  0.0056
  601ACOH    C213703   7.020   8.146   8.783  0.4005  0.0400 -0.1187
  601ACOH    O113704   6.993   8.074   8.872  0.0059 -0.4864 -0.1844
  601ACOH    C113705   6.922   8.233   8.727  0.1607 -0.0203 -0.4929
  601ACOH    H113706   6.941   8.333   8.767  0.1050  0.6385 -2.0702
  601ACOH    H213707   6.819   8.199   8.739 -0.1624  1.3976  0.9525
  601ACOH    H313708   6.932   8.244   8.619  1.1113 -0.0713 -0.4102
  602ACOH    H413709   4.964   4.611   9.873 -1.2703 -1.5023  3.0914
  602ACOH    O213710   5.040   4.659   9.910 -0.5141  0.1047 -0.2929
  602ACOH    C213711   5.143   4.571   9.915  0.1396 -0.1237  0.5269
  602ACOH    O113712   5.120   4.459   9.962  0.3667  0.2682  0.5651
  602ACOH    C113713   5.268   4.635   9.951 -0.5220 -0.0021  0.1713
  602ACOH    H113714   5.246   4.737   9.982  0.8975 -0.1807  1.7823
  602ACOH    H213715   5.337   4.633   9.866 -0.3067  0.1712  0.3437
  602ACOH    H313716   5.316   4.588  10.036  2.1464 -1.1610 -1.8874
  603ACOH    H413717   5.268   1.302   3.606  4.1316 -2.1248  1.1414
  603ACOH    O213718   5.230   1.233   3.549  0.5902  0.2974  0.4804
  603ACOH    C213719   5.097   1.225   3.572 -0.0146 -0.1483  0.6278
  603ACOH    O113720   5.038   1.278   3.666 -0.3381 -0.6558  0.4522
  603ACOH    C113721   5.034   1.141   3.470  0.0632 -0.0990  0.0757
  603ACOH    H113722   4.989   1.050   3.510 -0.5860 -0.3897 -1.2981
  603ACOH    H213723   5.104   1.110   3.393  0.9897  2.2577 -0.0833
  603ACOH    H313724   4.945   1.191   3.431 -0.3978  0.0345  1.2477
  604ACOH    H413725   4.985   9.146   9.350  0.7222 -2.1587  0.3388
  604ACOH    O213726   5.081   9.156   9.339  0.5089 -0.2821 -0.0711
  604ACOH    C213727   5.119   9.277   9.383 -0.2652  0.2673 -0.3409
  604ACOH    O113728   5.053   9.378   9.417 -0.1604  0.1208 -0.1456
  604ACOH    C113729   5.266   9.275   9.389  0.7591  0.0382  0.4808
  604ACOH    H113730   5.308   9.369   9.354 -2.3535  1.2603 -0.1160
  604ACOH    H213731   5.310   9.190   9.337  1.6106 -0.5238  2.0722
  604ACOH    H313732   5.286   9.269   9.496  0.5663  0.4578  0.5388
  605ACOH    H413733   6.643   7.842   7.374  1.0674  1.1488  2.0445
  605ACOH    O213734   6.570   7.791   7.413  0.6124  0.4270  0.2854
  605ACOH    C213735   6.625   7.670   7.418 -0.5508  0.4328 -0.7678
  605ACOH    O113736   6.726   7.626   7.363  0.0710 -0.3008  0.6207
  605ACOH    C113737   6.551   7.595   7.525  0.7489 -0.1676 -0.0366
  605ACOH    H113738   6.449   7.592   7.487  0.3426  1.9844  0.8331
  605ACOH    H213739   6.558   7.642   7.623 -1.0283  1.4249 -0.6451
  605ACOH    H313740   6.593   7.495   7.529 -0.2959 -0.6764 -1.3440
  606ACOH    H413741   9.336   4.137   8.711  0.6615  1.7328  1.2228
  606ACOH    O213742   9.388   4.149   8.630 -0.5545 -1.0427 -0.0309
  606ACOH    C213743   9.349   4.050   8.544 -0.0101 -0.2861 -0.2261
  606ACOH    O113744   9.233   4.015   8.530  0.3940 -0.0237 -0.6771
  606ACOH    C113745   9.458   4.037   8.446 -0.3502 -0.7582 -0.3356
  606ACOH    H113746   9.465   3.939   8.399  0.6798 -1.0832  0.4843
  606ACOH    H213747   9.555   4.052   8.494 -0.0104 -1.7005 -0.7145
  606ACOH    H313748   9.444   4.116   8.372 -1.7149  0.2264  0.9577
  607ACOH    H413749   7.911   3.903   5.745  0.2299  2.9048  0.8848
  607ACOH    O213750   7.935   3.879   5.836  0.7611  0.5291  0.1596
  607ACOH    C213751   8.050   3.942   5.865 -0.4569  0.1427 -1.0389
  607ACOH    O113752   8.109   4.016   5.794 -0.2916  0.3132  0.4551
  607ACOH    C113753   8.076   3.941   6.010 -0.1732 -0.4099  0.0334
  607ACOH    H113754   7.983   3.942   6.068  0.6310 -0.3259  1.3431
  607ACOH    H213755   8.148   4.010   6.053 -2.1724  0.7154  1.7033
  607ACOH    H313756   8.108   3.840   6.034  0.4128 -0.2611 -0.1235
  608ACOH    H413757   5.386   0.675   9.882  0.0436 -0.1981  0.7626
  608ACOH    O213758   5.466   0.727   9.902 -0.3079  0.4547  0.5037
  608ACOH    C213759   5.452   0.860   9.899  0.4847 -0.3650 -0.2436
  608ACOH    O113760   5.355   0.915   9.854 -0.1478 -0.4237 -0.0027
  608ACOH    C113761   5.570   0.935   9.939  0.4347  0.0872  0.3912
  608ACOH    H113762   5.577   0.944  10.047 -2.8458  2.6901  0.4546
  608ACOH    H213763   5.558   1.035   9.897  0.3478 -0.3568 -0.6667
  608ACOH    H313764   5.663   0.892   9.901  1.8640  2.8714  0.5331
  609ACOH    H413765   7.588   2.965   5.488 -0.9239 -0.7485 -1.9374
  609ACOH    O213766   7.504   2.991   5.531  0.1487 -0.5215  0.0943
  609ACOH    C213767   7.413   2.896   5.501  1.1511 -0.0733  0.4190
  609ACOH    O113768   7.426   2.780   5.471 -0.0407  0.6265  0.1392
  609ACOH    C113769   7.280   2.960   5.541  0.1819 -0.3809 -0.5037
  609ACOH    H113770   7.222   2.888   5.600  1.2267  0.4786  1.5972
  609ACOH    H213771   7.217   2.983   5.455 -1.0415  0.0517  0.4833
  609ACOH    H313772   7.293   3.049   5.602  0.5223 -1.8594  1.6643
  610ACOH    H413773   4.404   3.073   4.380 -0.6114 -1.7062  0.4657
  610ACOH    O213774   4.435   3.062   4.289 -0.1554 -0.4368  0.4570
  610ACOH    C213775   4.468   2.932   4.275 -0.8788  0.2439 -0.2033
  610ACOH    O113776   4.471   2.848   4.365  0.1614 -0.5714 -0.0942
  610ACOH    C113777   4.496   2.891   4.135  0.6206  0.3100  0.6176
  610ACOH    H113778   4.474   2.968   4.060 -3.2491 -2.0097 -0.7444
  610ACOH    H213779   4.433   2.805   4.115  2.8319 -0.7200 -2.4118
  610ACOH    H313780   4.603   2.878   4.116  0.5193  1.0594 -0.5380
  611ACOH    H413781   8.901   1.202   5.016 -1.8429 -0.1415  0.5697
  611ACOH    O213782   8.872   1.295   5.021 -1.0521  0.1405  0.0705
  611ACOH    C213783   8.748   1.293   5.067 -0.1436  0.6004 -0.5801
  611ACOH    O113784   8.685   1.197   5.102  0.0316  0.2824  0.1566
  611ACOH    C113785   8.681   1.424   5.053 -0.2957  1.0280 -0.6468
  611ACOH    H113786   8.745   1.501   5.096  0.5644  0.5367 -1.0489
  611ACOH    H213787   8.578   1.423   5.090  0.5045 -4.2511  1.8425
  611ACOH    H313788   8.678   1.459   4.950  1.9075 -0.0196 -1.0862
  612ACOH    H413789   3.876   1.522   4.656 -0.5297 -0.1529 -0.8981
  612ACOH    O213790   3.958   1.557   4.617 -0.1082  0.3191  0.3921
  612ACOH    C213791   3.916   1.613   4.502  0.1684 -0.6626 -0.0368
  612ACOH    O113792   3.801   1.633   4.470 -0.9924  0.7574  0.3297
  612ACOH    C113793   4.025   1.667   4.419  0.0460  0.0158  0.6914
  612ACOH    H113794   4.121   1.618   4.406  0.7577  1.3573  0.8298
  612ACOH    H213795   4.036   1.764   4.468 -2.8834 -0.6242  2.7784
  612ACOH    H313796   3.984   1.695   4.322 -0.9936 -0.5631  0.9495
  613ACOH    H413797   1.918   7.939   1.985  0.7753  2.1103 -1.0101
  613ACOH    O213798   1.875   7.981   2.061  0.4156 -0.0179 -0.0329
  613ACOH    C213799   1.920   8.107   2.065  0.3630  0.6115  0.5826
  613ACOH    O113800   1.986   8.161   1.977  0.0500  0.0862 -0.1475
  613ACOH    C113801   1.846   8.185   2.165  0.0856  0.1627 -0.0431
  613ACOH    H113802   1.779   8.254   2.113  0.7666 -2.5446 -4.8133
  613ACOH    H213803   1.911   8.231   2.239 -0.8604  0.5352  0.5782
  613ACOH    H313804   1.779   8.118   2.220  0.4585 -1.4102 -1.4654
  614ACOH    H413805   7.448   3.203   7.828  0.4831 -0.5071  0.4915
  614ACOH    O213806   7.429   3.117   7.870  0.0265 -0.5965  0.0995
  614ACOH    C213807   7.326   3.051   7.803  0.4939  0.3077 -0.7629
  614ACOH    O113808   7.254   3.103   7.717  0.6506  0.1007 -0.4879
  614ACOH    C113809   7.306   2.915   7.876  0.4653  0.5442  0.4321
  614ACOH    H113810   7.201   2.901   7.900  0.6609 -0.3010  0.8127
  614ACOH    H213811   7.356   2.919   7.973 -0.2173 -2.9513  0.9902
  614ACOH    H313812   7.346   2.829   7.822 -1.4006  0.8048 -1.4303
  615ACOH    H413813   7.342   0.649   8.465  1.5026  1.1917 -2.5057
  615ACOH    O213814   7.426   0.673   8.509  0.0962  0.2066  0.9173
  615ACOH    C213815   7.389   0.719   8.623 -0.2031 -0.3166  0.4321
  615ACOH    O113816   7.274   0.724   8.667 -0.2089 -0.1334 -0.1388
  615ACOH    C113817   7.504   0.768   8.702  0.3378 -0.3418 -0.1121
  615ACOH    H113818   7.573   0.684   8.703 -0.4185 -0.9753  0.6271
  615ACOH    H213819   7.478   0.791   8.806  0.6490 -0.3673 -0.0307
  615ACOH    H313820   7.548   0.856   8.656  0.1646 -0.5829 -0.7366
  616ACOH    H413821   3.568   6.503   6.012 -0.3920  0.0458  3.1557
  616ACOH    O213822   3.662   6.482   6.030  0.2729  0.4204  0.2879
  616ACOH    C213823   3.724   6.446   5.915  0.0596  0.0480 -0.0937
  616ACOH    O113824   3.710   6.506   5.808  0.1267  0.2040 -0.0237
  616ACOH    C113825   3.859   6.388   5.947  0.1792  0.7580 -0.1404
  616ACOH    H113826   3.875   6.309   5.874 -0.8326 -1.2096  1.6992
  616ACOH    H213827   3.869   6.358   6.051 -0.2418  0.5500 -0.1602
  616ACOH    H313828   3.931   6.467   5.928  1.9889 -0.9193 -0.3404
  617ACOH    H413829   4.053   3.899   5.264  0.6532  3.8364 -1.5328
  617ACOH    O213830   3.974   3.894   5.207 -0.0983  0.4902 -0.3369
  617ACOH    C213831   3.966   3.770   5.147 -0.3205  0.2086  0.6863
  617ACOH    O113832   4.048   3.683   5.139 -0.1193  0.3147 -0.2434
  617ACOH    C113833   3.834   3.767   5.082 -0.1564  0.1098  0.0470
  617ACOH    H113834   3.753   3.772   5.155  2.1949 -0.1931  2.7652
  617ACOH    H213835   3.823   3.673   5.027  0.0993 -0.4908  0.9915
  617ACOH    H313836   3.827   3.847   5.009  1.5087  1.1250  0.9698
  618ACOH    H413837   3.836   7.727   0.186  0.8237  0.7171 -1.2420
  618ACOH    O213838   3.774   7.800   0.171 -0.2751 -0.0349 -0.4546
  618ACOH    C213839   3.845   7.886   0.088 -0.0448  1.0982  0.2043
  618ACOH    O113840   3.953   7.870   0.038 -0.5006  0.3323  0.4412
  618ACOH    C113841   3.757   7.997   0.047  0.2279  0.1607 -0.0223
  618ACOH    H113842   3.711   8.043   0.135  1.2644  2.3473 -0.6029
  618ACOH    H213843   3.690   7.973  -0.036 -2.9321  1.3487  2.0712
  618ACOH    H313844   3.820   8.073   0.000  1.0896 -0.8262 -0.4751
  619ACOH    H413845   5.468   6.931   2.667  0.1740  1.4078 -0.4763
  619ACOH    O213846   5.565   6.937   2.655  0.3167 -0.3915 -0.3377
  619ACOH    C213847   5.595   6.807   2.658  0.2982 -1.2088  0.1168
  619ACOH    O113848   5.530   6.709   2.670  0.6216  0.3922  0.1497
  619ACOH    C113849   5.747   6.805   2.636 -0.5139 -1.3015  0.0966
  619ACOH    H113850   5.797   6.901   2.646 -1.4840 -0.9965  2.3793
  619ACOH    H213851   5.748   6.754   2.540 -1.5007 -0.8887 -0.1438
  619ACOH    H313852   5.789   6.743   2.715  0.1771  0.7332  1.3585
  620ACOH    H413853   3.950   5.118   6.367 -0.0961 -0.5098  0.3764
  620ACOH    O213854   3.895   5.083   6.296  0.5635 -0.1222 -0.3436
  620ACOH    C213855   3.801   4.994   6.336  1.0257  0.0791 -0.4874
  620ACOH    O113856   3.785   4.949   6.449  0.1713  0.1893 -0.4331
  620ACOH    C113857   3.710   4.968   6.217  0.8258  0.0062  0.0664
  620ACOH    H113858   3.672   4.866   6.206 -0.8765  0.7074 -0.7035
  620ACOH    H213859   3.761   4.995   6.124 -0.7643  0.5760 -0.6514
  620ACOH    H313860   3.621   5.031   6.225 -0.6480 -2.2119  1.7209
  621ACOH    H413861   0.187   1.379   1.608  3.1451  0.3684 -0.6535
  621ACOH    O213862   0.152   1.456   1.560  0.3686 -0.2872  0.2290
  621ACOH    C213863   0.020   1.433   1.546  0.0994 -0.1497  0.3275
  621ACOH    O113864  -0.047   1.376   1.629 -0.0627  0.1317  0.1788
  621ACOH    C113865  -0.031   1.514   1.436 -0.4148  0.0479  0.6603
  621ACOH    H113866  -0.122   1.559   1.475  0.2282 -0.3308  2.6938
  621ACOH    H213867  -0.049   1.462   1.342 -0.8415  2.3391 -0.5396
  621ACOH    H313868   0.036   1.592   1.400  0.2829 -0.8838 -0.0851
  622ACOH    H413869   7.483   5.306   8.806  0.6201  0.6728 -0.2921
  622ACOH    O213870   7.543   5.333   8.878  0.1361 -0.0207  0.3764
  622ACOH    C213871   7.469   5.411   8.956  0.8766 -0.2446 -0.6806
  622ACOH    O113872   7.347   5.442   8.939  0.4328 -0.7559  0.1891
  622ACOH    C113873   7.558   5.498   9.037  0.5627  0.0307 -0.0495
  622ACOH    H113874   7.497   5.542   9.116 -1.1662  0.4932 -1.6181
  622ACOH    H213875   7.606   5.577   8.981  0.9089 -1.0864 -1.3607
  622ACOH    H313876   7.643   5.448   9.084  2.0151  0.1111 -2.5007
  623ACOH    H413877   3.482   7.606   2.504 -0.7757  1.2262  2.4664
  623ACOH    O213878   3.576   7.604   2.530 -0.1915 -0.3382  0.3591
  623ACOH    C213879   3.651   7.700   2.465  0.4680  0.6116 -0.4413
  623ACOH    O113880   3.611   7.756   2.363 -0.0557  0.1503  0.0713
  623ACOH    C113881   3.797   7.694   2.498  0.6784 -0.1100  0.0658
  623ACOH    H113882   3.839   7.633   2.418  2.1802  2.0190 -0.8269
  623ACOH    H213883   3.813   7.635   2.588 -0.5508  2.1215  1.8139
  623ACOH    H313884   3.838   7.794   2.513  0.9938 -0.4864  1.7945
  624ACOH    H413885   9.013   0.720   5.288 -0.9583  0.6487  0.2108
  624ACOH    O213886   9.013   0.669   5.371 -0.6691 -0.3287 -0.3784
  624ACOH    C213887   8.984   0.540   5.336  0.3652 -0.6160  0.1352
  624ACOH    O113888   8.938   0.511   5.228 -0.1196  0.0692  0.3771
  624ACOH    C113889   8.967   0.458   5.458 -0.2345  0.4594  0.5048
  624ACOH    H113890   8.870   0.410   5.450  0.4557 -0.9714  0.4803
  624ACOH    H213891   8.982   0.511   5.552 -2.4018  0.4825  0.8569
  624ACOH    H313892   9.037   0.374   5.455  1.7819  2.1420 -1.3125
  625ACOH    H413893   6.159   7.259   5.688 -1.6891 -0.3364 -0.8790
  625ACOH    O213894   6.127   7.266   5.779 -0.0116 -0.0809 -0.2792
  625ACOH    C213895   6.083   7.146   5.816 -0.2553  0.0649  0.3537
  625ACOH    O113896   6.123   7.041   5.768  0.0221  0.4937 -0.0268
  625ACOH    C113897   6.027   7.152   5.952 -0.0218 -0.4365  0.7632
  625ACOH    H113898   5.940   7.086   5.959 -1.5603  1.2588 -1.8040
  625ACOH    H213899   5.994   7.254   5.968 -2.5899 -0.8118 -1.8240
  625ACOH    H313900   6.096   7.112   6.027 -0.1654 -2.5868 -0.1984
  626ACOH    H413901   7.100   0.806   9.492  0.0000 -1.3407  0.0257
  626ACOH    O213902   7.107   0.788   9.587  0.0346 -0.1835  0.2473
  626ACOH    C213903   7.194   0.690   9.606  0.3534 -0.0502  0.4223
  626ACOH    O113904   7.268   0.639   9.525  0.1142  0.3831 -0.3028
  626ACOH    C113905   7.210   0.650   9.743 -0.0412 -0.0758 -0.5049
  626ACOH    H113906   7.290   0.576   9.743  0.3974  0.3878  0.3603
  626ACOH    H213907   7.123   0.595   9.778  0.9007 -1.9890 -1.0751
  626ACOH    H313908   7.231   0.738   9.804  0.3574  0.0745 -0.8553
  627ACOH    H413909   6.650   9.749   1.158 -0.6759  1.0025  1.5440
  627ACOH    O213910   6.561   9.730   1.125  0.0354  0.1952  0.0067
  627ACOH    C213911   6.536   9.598   1.123 -0.5736 -0.5007 -0.7986
  627ACOH    O113912   6.593   9.511   1.190  0.0497 -0.0873 -0.6310
  627ACOH    C113913   6.420   9.564   1.042  0.2484  0.3510 -0.0757
  627ACOH    H113914   6.333   9.623   1.073  0.1254  0.0140  0.2167
  627ACOH    H213915   6.384   9.461   1.041 -1.2241  0.8384  0.2715
  627ACOH    H313916   6.434   9.593   0.938 -2.0099  0.0826 -0.4959
  628ACOH    H413917   5.623   5.147   6.040 -0.5350 -0.0946 -0.5219
  628ACOH    O213918   5.682   5.224   6.037 -0.5197 -0.0821  0.1651
  628ACOH    C213919   5.797   5.167   6.008 -0.0780 -0.3262 -0.4240
  628ACOH    O113920   5.823   5.057   5.959  0.1716 -0.1949 -0.8420
  628ACOH    C113921   5.904   5.260   6.036  0.0533  0.7311  0.8290
  628ACOH    H113922   5.860   5.349   6.081 -1.8868  0.2677 -0.0980
  628ACOH    H213923   5.958   5.291   5.947 -1.2875  2.9928  0.7748
  628ACOH    H313924   5.976   5.220   6.108  1.0017  0.5981 -0.1793
  629ACOH    H413925   8.023   1.479   9.771  0.3043 -1.7064  0.3354
  629ACOH    O213926   7.928   1.463   9.757  0.1472 -0.2995 -0.2597
  629ACOH    C213927   7.895   1.407   9.876 -0.4988 -0.6030 -0.2643
  629ACOH    O113928   7.966   1.391   9.971  0.3585  0.1205  0.2385
  629ACOH    C113929   7.747   1.384   9.880 -0.5116 -0.2015  0.6584
  629ACOH    H113930   7.718   1.332   9.972 -0.5051 -0.8609  0.2874
  629ACOH    H213931   7.731   1.315   9.798 -1.2237  1.1901 -0.3871
  629ACOH    H313932   7.691   1.475   9.859 -1.1668 -0.6269  0.5730
  630ACOH    H413933   0.687   1.485   0.675 -0.4911 -0.7922 -0.5903
  630ACOH    O213934   0.732   1.402   0.698  0.2072 -0.2207  0.1520
  630ACOH    C213935   0.658   1.291   0.661 -0.3079  0.5771 -0.4841
  630ACOH    O113936   0.550   1.296   0.600 -0.3330 -0.6979  0.2599
  630ACOH    C113937   0.727   1.169   0.679  0.4952 -0.2231 -0.7859
  630ACOH    H113938   0.668   1.107   0.745  0.8371  1.0802  0.7892
  630ACOH    H213939   0.826   1.185   0.724  0.5667 -0.8079 -0.7376
  630ACOH    H313940   0.734   1.112   0.587 -1.0935 -1.7650  0.0230
  631ACOH    H413941   7.675   1.690   0.584  0.7615 -1.0415 -0.6412
  631ACOH    O213942   7.634   1.725   0.503  0.1621  0.8195  0.4540
  631ACOH    C213943   7.536   1.812   0.545 -0.0787  0.1011  0.3520
  631ACOH    O113944   7.537   1.882   0.646  0.4318 -0.6777 -1.0078
  631ACOH    C113945   7.444   1.849   0.433  0.6758 -0.4311  0.6471
  631ACOH    H113946   7.338   1.832   0.449  0.5061  0.3943  0.4386
  631ACOH    H213947   7.479   1.784   0.353 -1.2676 -1.5083  0.6521
  631ACOH    H313948   7.459   1.954   0.408 -1.9551 -0.6750 -2.1569
  632ACOH    H413949   5.228   0.917   0.781 -1.5459  0.1324 -0.9207
  632ACOH    O213950   5.263   0.862   0.709 -0.0820  0.6672 -0.6443
  632ACOH    C213951   5.394   0.900   0.697  0.1946  0.0904  0.4116
  632ACOH    O113952   5.451   0.995   0.751  0.7024 -0.7116  0.0982
  632ACOH    C113953   5.453   0.834   0.576 -0.7983  0.8420  0.2403
  632ACOH    H113954   5.556   0.808   0.599 -1.1521 -0.0374  0.8873
  632ACOH    H213955   5.453   0.901   0.490  1.3911  0.0126 -0.4114
  632ACOH    H313956   5.396   0.743   0.556  2.2882 -0.8498 -1.0649
  633SOL     OW13957   2.315   1.335   7.941 -0.1527  0.0149 -0.2494
  633SOL    HW113958   2.377   1.344   8.020 -0.3059  0.0926 -0.1372
  633SOL    HW213959   2.221   1.348   7.972 -0.1010  1.5770 -0.7132
  634SOL     OW13960   4.078   4.319   6.154 -0.1787 -0.5581  0.6646
  634SOL    HW113961   4.034   4.349   6.239  1.4317 -3.4026  2.6141
  634SOL    HW213962   4.176   4.338   6.160 -0.3299  1.1920 -1.5440
  635SOL     OW13963   2.472   4.313   1.530  0.2907 -0.1986  0.1485
  635SOL    HW113964   2.491   4.356   1.442 -1.9768 -1.2380 -0.9064
  635SOL    HW213965   2.373   4.315   1.547  0.6883 -0.0411  2.6718
  636SOL     OW13966   3.067   0.485   9.856  0.2515  0.0987  0.2271
  636SOL    HW113967   3.116   0.524   9.778 -2.0226 -0.3822 -1.5035
  636SOL    HW213968   3.127   0.421   9.905  1.7500  0.5175 -1.0204
  637SOL     OW13969   6.705   9.856   1.759  0.1230 -0.1051  0.2410
  637SOL    HW113970   6.780   9.868   1.823  0.2247 -0.1248  0.1250
  637SOL    HW213971   6.621   9.834   1.809  0.0699  0.4823  0.4124
  638SOL     OW13972   2.561   4.792   4.853 -0.0837 -0.1801 -0.6041
  638SOL    HW113973   2.624   4.736   4.908  0.5123 -0.1859 -1.2870
  638SOL    HW213974   2.586   4.784   4.757  1.5249  3.1280 -0.5189
  639SOL     OW13975   4.417   6.705   0.904  0.2947  0.0864 -0.2110
  639SOL    HW113976   4.461   6.618   0.883 -0.9786 -0.1519 -2.0040
  639SOL    HW213977   4.463   6.778   0.853  1.6742  0.5537  1.6687
  640SOL     OW13978   2.350   3.052   8.340 -0.2344  0.4012  0.1581
  640SOL    HW113979   2.300   3.108   8.274 -0.0444 -0.3806 -0.6655
  640SOL    HW213980   2.315   3.070   8.432 -1.9771 -0.0441 -0.3917
  641SOL     OW13981   5.074   1.449   5.899 -0.0957 -0.1479  0.4486
  641SOL    HW113982   5.039   1.402   5.819 -1.0409  0.3908  0.5350
  641SOL    HW213983   5.111   1.382   5.964  0.5112 -0.5937 -0.3547
  642SOL     OW13984   2.909   0.870   3.517 -0.3352  0.2007 -0.6409
  642SOL    HW113985   2.951   0.781   3.496 -0.0664  0.2051 -0.1393
  642SOL    HW213986   2.890   0.875   3.615  1.4187  1.4378 -0.3406
  643SOL     OW13987   6.918   0.785   6.945  0.0224  0.5818 -0.1537
  643SOL    HW113988   6.995   0.728   6.973  1.4728  1.6619 -1.8511
  643SOL    HW213989   6.932   0.816   6.851 -2.8714  0.1472 -0.7835
  644SOL     OW13990   8.932   4.075   9.676  0.1672  0.4125 -0.1643
  644SOL    HW113991   9.026   4.100   9.696 -0.2845  0.9075  1.4116
  644SOL    HW213992   8.888   4.150   9.626  0.3847  0.4973 -0.2300
  645SOL     OW13993   1.090   1.880   9.249  0.3755 -0.2383 -1.0696
  645SOL    HW113994   1.013   1.871   9.185  0.3878  1.2277 -1.3183
  645SOL    HW213995   1.176   1.878   9.198  0.5891 -2.9866 -0.6845
  646SOL     OW13996   3.313   5.193   4.123 -0.4906  0.5135 -0.1236
  646SOL    HW113997   3.308   5.133   4.203  0.6414 -0.4621 -0.7637
  646SOL    HW213998   3.382   5.264   4.138 -0.7414  0.7203  0.0344
  647SOL     OW13999   8.654   4.026   7.750 -0.3085  0.2598 -0.2140
  647SOL    HW114000   8.585   3.974   7.701  0.8315 -0.3553 -1.1875
  647SOL    HW214001   8.692   3.970   7.824 -1.6715  1.0113  1.0782
  648SOL     OW14002   0.333   1.564   4.580  0.6896 -0.6962 -0.1509
  648SOL    HW114003   0.416   1.535   4.627  1.5437  0.4000 -0.9831
  648SOL    HW214004   0.352   1.642   4.522 -1.3143  0.7189  1.0235
  649SOL     OW14005   1.842   6.364   3.202  0.1362 -0.4429  0.3458
  649SOL    HW114006   1.754   6.352   3.248 -0.7431  0.1877 -1.1290
  649SOL    HW214007   1.873   6.458   3.212  0.6164 -0.6460  0.8056
  650SOL     OW14008   3.945   6.194   1.596 -0.2055  0.3949 -0.7196
  650SOL    HW114009   4.031   6.241   1.619  0.6719 -1.1930 -0.6342
  650SOL    HW214010   3.869   6.258   1.602  0.9877  1.8467 -0.8436
  651SOL     OW14011   2.373   3.827   3.303  0.3521  0.2017  0.3151
  651SOL    HW114012   2.409   3.771   3.377  1.1709  0.5887  0.2165
  651SOL    HW214013   2.404   3.791   3.215 -1.4843 -0.8830  0.0845
  652SOL     OW14014   1.695   2.083   2.943 -0.2856  0.2729  0.3604
  652SOL    HW114015   1.765   2.108   2.876 -0.3271  0.0709  0.2414
  652SOL    HW214016   1.609   2.130   2.921  0.2759  1.8655  1.4951
  653SOL     OW14017   6.357   0.762   2.849  0.5084 -0.5231 -0.5826
  653SOL    HW114018   6.350   0.670   2.889  2.6468 -1.2907 -1.8509
  653SOL    HW214019   6.322   0.760   2.755  1.3157 -0.2597 -0.8979
  654SOL     OW14020   0.779   3.637   7.291 -0.3088  0.0935  0.3804
  654SOL    HW114021   0.756   3.706   7.360  1.6443  3.5114 -2.2263
  654SOL    HW214022   0.702   3.626   7.228 -0.4992  0.2237  0.5914
  655SOL     OW14023   4.618   5.729   4.305 -0.6033  0.0603  0.3944
  655SOL    HW114024   4.645   5.714   4.400 -2.0328  0.4408  0.8688
  655SOL    HW214025   4.615   5.827   4.286 -1.2059  0.0092  0.2149
  656SOL     OW14026   1.407   9.640   6.374 -0.3541  0.1152 -0.3024
  656SOL    HW114027   1.392   9.609   6.468  0.3335  2.6360  0.6658
  656SOL    HW214028   1.504   9.635   6.352 -0.3488  0.8268 -0.4309
  657SOL     OW14029   9.743   2.128   8.731 -0.1238 -0.4879  0.0119
  657SOL    HW114030   9.837   2.131   8.766  0.2423 -0.3865 -0.9530
  657SOL    HW214031   9.740   2.067   8.651 -0.8544 -0.4011 -0.0243
  658SOL     OW14032   0.792   3.507   0.181  0.2539 -0.3499 -0.4515
  658SOL    HW114033   0.857   3.563   0.234 -1.4729  1.4466 -0.1921
  658SOL    HW214034   0.767   3.556   0.098 -0.0458 -1.4756 -1.0238
  659SOL     OW14035   4.604   3.713   8.319  0.2179 -0.0863 -0.0442
  659SOL    HW114036   4.674   3.673   8.378  1.3873 -0.0479 -1.3603
  659SOL    HW214037   4.597   3.658   8.235  0.9505  1.7276 -1.3303
  660SOL     OW14038   8.687   7.868   2.861  0.1049 -0.1377  0.2387
  660SOL    HW114039   8.694   7.788   2.922  2.4585 -0.6349 -0.6412
  660SOL    HW214040   8.773   7.879   2.811 -1.5784  0.6126 -2.5866
  661SOL     OW14041   2.740   0.881   4.098 -0.4225 -0.4747 -0.1077
  661SOL    HW114042   2.688   0.846   4.176 -1.8747 -1.7379 -1.5881
  661SOL    HW214043   2.763   0.977   4.113 -0.9764 -0.6114  1.7201
  662SOL     OW14044   1.277   9.050   5.228  0.5403  0.6802 -0.7543
  662SOL    HW114045   1.301   9.120   5.161 -1.5282  2.1022 -0.0669
  662SOL    HW214046   1.276   9.090   5.320 -1.3849 -0.0299 -0.4392
  663SOL     OW14047   9.905   7.690   6.149 -0.9452 -0.8737  0.3887
  663SOL    HW114048   9.979   7.634   6.112  0.0708 -0.0459  1.1301
  663SOL    HW214049   9.824   7.633   6.164 -1.0725 -1.4163 -2.1765
  664SOL     OW14050   0.200   0.460   8.438  0.0732  0.7280  0.5348
  664SOL    HW114051   0.209   0.556   8.465 -0.2239  0.9422 -0.1246
  664SOL    HW214052   0.103   0.436   8.433  0.1465  0.4125  0.6314
  665SOL     OW14053   1.033   7.348   3.304 -0.1916 -0.8856  0.5953
  665SOL    HW114054   1.058   7.411   3.230 -0.7532 -0.3174  0.8850
  665SOL    HW214055   1.105   7.281   3.316 -0.3167 -1.3052 -0.8334
  666SOL     OW14056   3.591   7.521   9.516  0.0962 -0.1466  0.0334
  666SOL    HW114057   3.674   7.573   9.494  0.2519 -0.4751 -0.1518
  666SOL    HW214058   3.616   7.428   9.544 -0.0228  0.5850  2.6604
  667SOL     OW14059   1.587   1.429   2.633  0.6375 -0.2651 -0.4437
  667SOL    HW114060   1.531   1.470   2.562 -0.1677 -1.1891 -0.3508
  667SOL    HW214061   1.677   1.473   2.634  0.0295  1.0269 -0.7835
  668SOL     OW14062   3.355   0.650   2.407 -0.3681 -0.3777 -0.6866
  668SOL    HW114063   3.394   0.703   2.332  0.5597 -1.6452 -1.1034
  668SOL    HW214064   3.338   0.711   2.485  1.6046  0.3520 -0.8080
  669SOL     OW14065   6.491   3.992   0.580  0.1276  0.3344  0.4755
  669SOL    HW114066   6.580   4.019   0.615  0.4113  1.0758 -0.7653
  669SOL    HW214067   6.421   4.010   0.649  0.7137  1.4391  0.7931
  670SOL     OW14068   6.874   1.647   4.270 -0.8146 -0.1355  0.1944
  670SOL    HW114069   6.942   1.715   4.295  0.4580 -1.8826  1.5832
  670SOL    HW214070   6.846   1.660   4.175  1.4423  0.6021 -0.3781
  671SOL     OW14071   2.022   3.485   2.305 -0.0610  0.1335 -0.5739
  671SOL    HW114072   2.097   3.543   2.337 -0.5326  0.5311 -0.2001
  671SOL    HW214073   2.034   3.393   2.343  1.1326 -0.2558 -1.8161
  672SOL     OW14074   6.649   2.494   0.503 -0.3294  0.1811 -0.2886
  672SOL    HW114075   6.710   2.502   0.582  0.8624 -1.5386 -0.9976
  672SOL    HW214076   6.619   2.399   0.494 -1.8504  0.7048 -0.8859
  673SOL     OW14077   3.390   0.654   1.909 -0.0814  0.0515  0.6724
  673SOL    HW114078   3.425   0.606   1.990 -0.3087 -2.2588 -0.5725
  673SOL    HW214079   3.314   0.713   1.936 -1.3822 -2.1059  1.8749
  674SOL     OW14080   2.365   8.054   3.405  0.3011 -0.1294  0.3816
  674SOL    HW114081   2.305   8.095   3.336  0.6812  0.3348  0.3200
  674SOL    HW214082   2.426   7.989   3.361  0.2132 -0.1943  0.3561
  675SOL     OW14083   1.948   9.619   6.428  0.7970  0.3352 -0.4448
  675SOL    HW114084   2.033   9.631   6.377 -0.0730  0.4611 -1.9064
  675SOL    HW214085   1.963   9.557   6.505  1.9768 -0.4197 -1.2684
  676SOL     OW14086   7.415   5.503   6.732 -0.1914  0.1631 -0.2346
  676SOL    HW114087   7.424   5.506   6.831  1.8285 -1.1917 -0.3509
  676SOL    HW214088   7.441   5.591   6.693  0.3678  0.2618  0.3565
  677SOL     OW14089   3.886   3.482   0.354  0.2857  0.0937  0.1404
  677SOL    HW114090   3.889   3.509   0.450 -2.3306  1.4561 -0.1145
  677SOL    HW214091   3.976   3.497   0.312  0.9477  1.2062  1.9127
  678SOL     OW14092   8.113   0.525   8.933 -0.0422  0.0698  0.1694
  678SOL    HW114093   8.208   0.516   8.902  0.1632 -0.4804  0.9140
  678SOL    HW214094   8.063   0.441   8.911 -0.7352  0.9051 -1.4723
  679SOL     OW14095   1.105   2.640   3.249 -0.3138  0.5845  0.3702
  679SOL    HW114096   1.025   2.650   3.190 -0.5857  0.9846  0.7989
  679SOL    HW214097   1.086   2.573   3.321 -0.5047  1.1891  0.8801
  680SOL     OW14098   5.176   2.932   6.165 -0.1614  0.0714 -0.4835
  680SOL    HW114099   5.197   2.904   6.071 -2.6801 -1.7424 -0.5585
  680SOL    HW214100   5.199   2.857   6.227 -0.3843  0.5045  0.1189
  681SOL     OW14101   7.289   9.805   7.087 -0.0761 -0.2211 -0.3778
  681SOL    HW114102   7.370   9.758   7.121  1.0462  0.6281 -1.8398
  681SOL    HW214103   7.213   9.740   7.081  1.5431 -1.9618 -2.7719
  682SOL     OW14104   2.556   2.976   7.118 -0.2105  0.1936  0.1492
  682SOL    HW114105   2.562   3.022   7.029  0.5667  1.7051  0.9585
  682SOL    HW214106   2.575   2.879   7.107 -2.6115 -0.1084 -1.7301
  683SOL     OW14107   2.386   1.152   5.041 -0.7600 -0.2877 -0.0321
  683SOL    HW114108   2.419   1.159   5.135 -1.0154  0.1318  0.0277
  683SOL    HW214109   2.289   1.129   5.041 -0.6816 -0.6288 -0.1986
  684SOL     OW14110   0.963   7.496   5.541 -0.2620  0.2067 -0.6654
  684SOL    HW114111   1.051   7.535   5.566 -1.2373  0.6473  2.3893
  684SOL    HW214112   0.893   7.568   5.542 -1.5637 -0.9749  2.2205
  685SOL     OW14113   8.106   1.694   9.896  0.2207  0.1163  1.0268
  685SOL    HW114114   8.112   1.660   9.989 -0.2773  0.8552  1.3339
  685SOL    HW214115   8.194   1.733   9.869  0.6599 -0.9972  0.8274
  686SOL     OW14116   7.955   1.342   8.429 -0.5008  0.0218  0.2705
  686SOL    HW114117   7.961   1.314   8.333 -1.7455  4.4823 -1.2165
  686SOL    HW214118   8.043   1.325   8.474  0.4489 -1.1156 -1.9149
  687SOL     OW14119   6.380   9.931   1.731 -0.2254 -0.0477 -0.7017
  687SOL    HW114120   6.394   9.871   1.651  1.8491  0.2962 -0.6224
  687SOL    HW214121   6.407  10.024   1.708  1.5269 -0.1771  0.7615
  688SOL     OW14122   9.924   6.936   6.765  0.8261 -0.0556 -0.1657
  688SOL    HW114123   9.916   6.837   6.778  0.2383  0.0553  0.3338
  688SOL    HW214124   9.908   6.958   6.669  3.8013 -0.7325 -0.8395
  689SOL     OW14125   9.215   3.639   9.643  0.0441 -0.3729 -0.1512
  689SOL    HW114126   9.176   3.727   9.614  0.7606  0.2084  0.6428
  689SOL    HW214127   9.142   3.572   9.653 -0.6105  0.3866  0.1703
  690SOL     OW14128   0.020   3.183   5.923 -0.8438  0.0885 -0.3578
  690SOL    HW114129   0.056   3.132   6.001 -0.3466  1.6464  0.4425
  690SOL    HW214130   0.039   3.132   5.839  1.3977 -0.1133  0.2396
  691SOL     OW14131   0.882   3.538   4.706  0.6752 -0.3233 -0.4131
  691SOL    HW114132   0.945   3.566   4.778 -0.1322  0.3770  0.0362
  691SOL    HW214133   0.833   3.456   4.734  0.2944  0.0019 -0.1181
  692SOL     OW14134   2.335   5.773   6.352  0.3246 -0.3292 -0.3208
  692SOL    HW114135   2.401   5.698   6.358  1.8292  0.9872 -0.4058
  692SOL    HW214136   2.289   5.769   6.263  1.1154 -0.5664 -0.7240
  693SOL     OW14137   0.244   5.561   1.374 -0.0741  0.5086 -0.1845
  693SOL    HW114138   0.309   5.506   1.424 -2.2497 -0.7346  1.3439
  693SOL    HW214139   0.235   5.526   1.280  0.2648 -0.2969  0.0860
  694SOL     OW14140   6.057   5.859   8.752  0.4907  0.2274  0.0460
  694SOL    HW114141   6.147   5.897   8.770 -0.0972  1.3970  0.5983
  694SOL    HW214142   6.036   5.788   8.820  0.2117  1.3173  1.1122
  695SOL     OW14143   8.283   4.080   9.765  0.4114 -0.0250 -0.4894
  695SOL    HW114144   8.377   4.046   9.776  0.0001 -0.8124  0.6345
  695SOL    HW214145   8.227   4.008   9.725 -0.0750 -0.0779  0.2939
  696SOL     OW14146   5.457   7.646   5.950 -0.1738  0.1641 -0.1237
  696SOL    HW114147   5.441   7.592   5.868 -0.9671 -1.5948  1.1708
  696SOL    HW214148   5.422   7.739   5.935 -0.6206 -0.2233 -1.6444
  697SOL     OW14149   2.126   4.411   0.820 -0.2993  0.4313 -0.0311
  697SOL    HW114150   2.111   4.369   0.909  1.1391 -5.3125 -2.2551
  697SOL    HW214151   2.038   4.422   0.773 -0.8642  1.6190  1.2643
  698SOL     OW14152   0.158   5.824   9.629 -0.0247 -0.2994 -0.8243
  698SOL    HW114153   0.194   5.917   9.621 -0.2029 -0.2686 -1.2419
  698SOL    HW214154   0.202   5.779   9.707  0.0955  0.1179 -0.6484
  699SOL     OW14155   0.346   1.399   5.486  0.0866 -0.3025  0.0707
  699SOL    HW114156   0.389   1.475   5.436  2.3332 -0.8280  1.1236
  699SOL    HW214157   0.251   1.422   5.506  0.6852  2.1980  0.2545
  700SOL     OW14158   0.875   1.211   6.235 -0.3795  0.4462 -0.2629
  700SOL    HW114159   0.811   1.259   6.175 -1.2681  1.2027  1.2677
  700SOL    HW214160   0.827   1.183   6.319  0.6778 -1.1848 -0.1863
  701SOL     OW14161   4.418   4.642   0.707 -0.1194 -0.5913 -0.4025
  701SOL    HW114162   4.364   4.563   0.678 -0.2817 -1.4975  2.2587
  701SOL    HW214163   4.360   4.706   0.757  0.6444 -0.1847 -0.0209
  702SOL     OW14164   8.206   6.457   0.632  0.3334  0.0810 -0.2526
  702SOL    HW114165   8.186   6.409   0.547  0.7579 -0.5586  0.0053
  702SOL    HW214166   8.243   6.548   0.612 -2.3213  1.1101 -0.7468
  703SOL     OW14167   3.103   0.678   5.398  0.1503 -0.2918  0.4990
  703SOL    HW114168   3.088   0.772   5.368 -0.3553 -1.0142 -1.6158
  703SOL    HW214169   3.029   0.650   5.459 -0.5148  0.1907 -0.0775
  704SOL     OW14170   7.285   6.550   6.907  0.2157  0.0435  0.0541
  704SOL    HW114171   7.323   6.574   6.817 -0.2696 -0.8263 -0.3894
  704SOL    HW214172   7.350   6.576   6.979  0.3452  1.2852 -0.5117
  705SOL     OW14173   8.439   8.679   6.757 -0.1960 -0.0910  0.2963
  705SOL    HW114174   8.460   8.650   6.850  1.1215  0.7188  0.2706
  705SOL    HW214175   8.437   8.599   6.697  3.0024 -0.2408  0.3083
  706SOL     OW14176   9.416   8.711   3.579 -0.1380  0.0683  0.0027
  706SOL    HW114177   9.319   8.695   3.596 -0.0571 -1.0808 -0.5071
  706SOL    HW214178   9.442   8.801   3.612 -1.5219  0.6389 -0.4554
  707SOL     OW14179   1.384   8.468   8.131 -0.4681 -0.0970  0.0963
  707SOL    HW114180   1.357   8.519   8.049 -0.3243  2.6129  1.6709
  707SOL    HW214181   1.312   8.473   8.199  0.7854  0.6396  1.4126
  708SOL     OW14182   5.384   3.702   0.121 -0.2759  0.4969 -0.3332
  708SOL    HW114183   5.431   3.750   0.047  0.9623 -0.6732 -0.3250
  708SOL    HW214184   5.317   3.639   0.082 -0.4794  0.7682 -0.4199
  709SOL     OW14185   4.874   7.593   3.023  0.5166  0.6422  0.0041
  709SOL    HW114186   4.960   7.545   3.005  0.1835 -1.2918  3.0813
  709SOL    HW214187   4.879   7.638   3.112 -1.9746 -0.3335  0.6877
  710SOL     OW14188   9.811   6.427   0.426  0.0451  0.4363 -0.6772
  710SOL    HW114189   9.768   6.344   0.391 -1.3609  0.7999  0.1482
  710SOL    HW214190   9.827   6.491   0.351  0.1246 -0.1275 -1.1421
  711SOL     OW14191   9.105   8.800   8.946  0.1455 -0.1422  0.1333
  711SOL    HW114192   9.199   8.820   8.974  0.2251  1.2010 -1.0262
  711SOL    HW214193   9.091   8.701   8.944  2.1895 -0.4354 -1.6935
  712SOL     OW14194   5.135   6.319   0.964  0.6044 -0.2370  0.1544
  712SOL    HW114195   5.081   6.334   1.047 -2.4294 -2.4010 -1.3332
  712SOL    HW214196   5.222   6.276   0.987 -0.0453 -0.4705  2.2394
  713SOL     OW14197   1.991   2.591   2.855 -0.2444  0.6464  0.7162
  713SOL    HW114198   1.916   2.641   2.899  1.1277  1.5783  2.0533
  713SOL    HW214199   2.064   2.576   2.922  0.9700  0.1910 -0.6983
  714SOL     OW14200   1.008   3.804  10.013 -0.3080  0.2405 -0.6544
  714SOL    HW114201   0.925   3.845  10.052  0.1197  1.1263 -0.6516
  714SOL    HW214202   0.989   3.711   9.984 -1.5474  0.7238 -1.4598
  715SOL     OW14203   7.768   6.493   6.330 -0.4976  0.2486  0.3057
  715SOL    HW114204   7.790   6.530   6.420 -1.2660  0.2838  0.4853
  715SOL    HW214205   7.734   6.399   6.339  0.4857 -0.1444 -0.0543
  716SOL     OW14206   8.557   6.756   2.954 -0.4021  0.1273  0.8116
  716SOL    HW114207   8.481   6.703   2.992 -0.2446 -1.0488 -0.4781
  716SOL    HW214208   8.616   6.788   3.029  0.1369 -2.5041  1.5704
  717SOL     OW14209   7.555   8.736   2.221 -0.1099 -0.5111  0.0176
  717SOL    HW114210   7.581   8.652   2.270 -1.9373 -1.4981 -0.6831
  717SOL    HW214211   7.535   8.808   2.288  2.2551 -0.3580  0.6134
  718SOL     OW14212   9.403   7.338   4.220 -0.0002 -0.5984  0.3809
  718SOL    HW114213   9.460   7.258   4.241  0.3273 -0.1497  1.1985
  718SOL    HW214214   9.462   7.418   4.207 -0.5710  0.3923  3.5828
  719SOL     OW14215   7.309   5.954   2.139  0.2230 -1.2337  0.3548
  719SOL    HW114216   7.390   5.996   2.181 -0.4303  0.7049 -0.2695
  719SOL    HW214217   7.227   5.992   2.181 -0.3894 -1.7133 -0.4176
  720SOL     OW14218   0.836   3.023   7.346 -0.3088 -0.0821  0.2716
  720SOL    HW114219   0.909   2.962   7.315 -0.2358  0.3484 -0.4134
  720SOL    HW214220   0.839   3.107   7.293 -0.8914  0.2053  0.6969
  721SOL     OW14221   0.548   6.427   3.909  0.3487 -0.5258  0.2062
  721SOL    HW114222   0.592   6.385   3.830  1.0219 -0.3763  0.4934
  721SOL    HW214223   0.488   6.360   3.954 -0.8587 -0.2987 -1.0359
  722SOL     OW14224   1.848   3.759   9.449  0.9025 -0.0650  0.1427
  722SOL    HW114225   1.898   3.846   9.448  2.5961 -1.0332 -1.2430
  722SOL    HW214226   1.803   3.747   9.537  1.3750  1.8054  0.6520
  723SOL     OW14227   2.100   6.796   9.982  0.0366 -0.4913  0.3042
  723SOL    HW114228   2.170   6.783   9.912 -0.7374 -1.7195 -0.2553
  723SOL    HW214229   2.054   6.884   9.967 -0.4577 -0.9694 -1.0258
  724SOL     OW14230   2.491   0.035   0.134  0.3880 -0.3909  0.0582
  724SOL    HW114231   2.395   0.007   0.141 -0.3472  1.8748 -0.6924
  724SOL    HW214232   2.526   0.013   0.043  0.5143 -0.9853  0.2476
  725SOL     OW14233   0.664   7.462   7.908 -0.1659 -0.1136  0.1775
  725SOL    HW114234   0.696   7.369   7.926  0.4194  0.0782  0.1593
  725SOL    HW214235   0.691   7.521   7.984 -0.2367  0.1099  0.0301
  726SOL     OW14236   0.190   4.964   8.470  0.1108 -0.1708  0.3716
  726SOL    HW114237   0.108   4.920   8.506  0.3535  0.6096  1.8852
  726SOL    HW214238   0.172   4.996   8.377 -1.4050  0.2744  0.8042
  727SOL     OW14239   5.989   5.610   9.978  0.2591 -0.0472 -0.0796
  727SOL    HW114240   5.904   5.559   9.964  0.0638  0.4486 -0.7881
  727SOL    HW214241   6.013   5.657   9.893 -0.8051  2.8910  1.1671
  728SOL     OW14242   0.969   8.852   7.129 -0.1828 -0.2565  0.3545
  728SOL    HW114243   1.033   8.907   7.075 -0.6427 -0.7874 -0.7478
  728SOL    HW214244   0.930   8.908   7.201  1.0997  0.2306  0.6874
  729SOL     OW14245   2.128   9.310   2.846 -0.4296  0.1379 -0.0663
  729SOL    HW114246   2.188   9.345   2.918  1.2424  0.4426 -1.5718
  729SOL    HW214247   2.073   9.235   2.882 -1.2936  1.7712  2.1529
  730SOL     OW14248   8.683   0.204   9.234  0.3786 -0.4325  0.2728
  730SOL    HW114249   8.684   0.119   9.286 -1.3246 -0.6086  0.0561
  730SOL    HW214250   8.750   0.199   9.160  0.7886 -1.3048  0.6996
  731SOL     OW14251   4.739   3.881   2.511 -0.4793  0.0402 -0.0458
  731SOL    HW114252   4.810   3.810   2.511 -1.9023 -1.4197  0.2295
  731SOL    HW214253   4.674   3.862   2.437 -3.6860 -1.8741  3.0670
  732SOL     OW14254   9.912   5.719   9.559 -0.0149 -0.1708  0.1998
  732SOL    HW114255  10.001   5.764   9.562 -0.2545  0.2558  1.1413
  732SOL    HW214256   9.910   5.645   9.627  0.4791 -1.7963 -1.5381
  733SOL     OW14257   2.391   0.446   1.272  0.2224 -0.0143  0.3325
  733SOL    HW114258   2.343   0.389   1.339 -0.0098 -0.2466 -0.0240
  733SOL    HW214259   2.488   0.425   1.273 -0.2724 -2.7170 -1.9970
  734SOL     OW14260   7.012   4.542   1.032  0.3206 -0.4730 -0.2711
  734SOL    HW114261   6.920   4.516   1.060  0.8648  0.1761  2.2719
  734SOL    HW214262   7.069   4.460   1.026  0.1792 -0.6380  0.5399
  735SOL     OW14263   9.134   3.606   6.768 -0.5003  0.4832  0.2428
  735SOL    HW114264   9.199   3.532   6.784 -1.0884  0.2031  1.4281
  735SOL    HW214265   9.127   3.625   6.670  0.1252 -0.6025 -0.0137
  736SOL     OW14266   2.052   4.471   2.855 -0.3360 -0.8798 -0.0433
  736SOL    HW114267   2.050   4.397   2.923  1.8533 -0.7567  0.1941
  736SOL    HW214268   2.147   4.494   2.835 -0.9920  0.1740 -1.9917
  737SOL     OW14269   0.450   5.392   7.270  0.3025 -0.0003  0.2925
  737SOL    HW114270   0.407   5.304   7.253  1.4174 -0.1653 -1.7846
  737SOL    HW214271   0.434   5.453   7.192  1.8948  0.6872  0.4945
  738SOL     OW14272   2.900   6.749   9.616  0.1649  0.1425  0.3035
  738SOL    HW114273   2.902   6.802   9.531 -1.7455 -1.1891 -0.5849
  738SOL    HW214274   2.970   6.678   9.611 -1.1108 -1.0555 -0.9167
  739SOL     OW14275   6.668   9.894   2.602  0.2517 -0.7014  0.1965
  739SOL    HW114276   6.691   9.930   2.512  2.0116 -1.2313  0.4281
  739SOL    HW214277   6.691   9.797   2.606 -1.4351 -1.0998  0.6539
  740SOL     OW14278   0.097   5.355   8.456  0.0154  0.4222 -0.5503
  740SOL    HW114279   0.142   5.279   8.502  1.7163  1.9101  0.2809
  740SOL    HW214280   0.043   5.407   8.523  0.4190  1.0709 -0.7212
  741SOL     OW14281   9.963   2.951   6.988  0.6589 -0.3759 -0.5124
  741SOL    HW114282  10.011   2.864   6.979  0.0810 -0.6328 -1.1093
  741SOL    HW214283   9.897   2.961   6.914  0.4889  0.4234 -0.2597
  742SOL     OW14284   1.524   7.371   5.151 -0.1456  0.3732  0.1250
  742SOL    HW114285   1.510   7.462   5.112 -0.2004  1.6086  2.9446
  742SOL    HW214286   1.614   7.365   5.193  0.0408 -1.0536 -0.4213
  743SOL     OW14287   0.325   1.103   0.430 -0.7064  0.3694  0.0177
  743SOL    HW114288   0.270   1.159   0.369  0.2243  1.3781  0.0871
  743SOL    HW214289   0.333   1.149   0.519 -0.7869 -0.3604  0.4067
  744SOL     OW14290   0.016   9.569   8.869  0.4940 -0.2512 -0.6227
  744SOL    HW114291   0.021   9.470   8.859 -2.4400 -0.4788 -0.4061
  744SOL    HW214292  -0.049   9.606   8.803 -0.5396  1.1759  1.1253
  745SOL     OW14293   2.088   7.401   6.928 -0.0384 -0.0239 -0.3088
  745SOL    HW114294   2.034   7.468   6.978  0.4469 -0.0303  0.2328
  745SOL    HW214295   2.031   7.321   6.908 -0.0572 -0.3054  0.8288
  746SOL     OW14296   1.198   7.827   4.088 -0.7136  0.4624  0.0779
  746SOL    HW114297   1.256   7.762   4.137  0.0537 -0.6232 -2.2150
  746SOL    HW214298   1.235   7.842   3.996 -2.1409  2.4366 -0.2081
  747SOL     OW14299   2.169   8.258   9.100 -0.6066 -0.2308  0.4489
  747SOL    HW114300   2.211   8.312   9.173  0.8553  0.9470 -1.2384
  747SOL    HW214301   2.116   8.318   9.040  2.2786 -0.3366 -2.3387
  748SOL     OW14302   5.032   8.968   7.229  0.2101 -0.6316  0.2998
  748SOL    HW114303   4.952   8.912   7.249 -0.7078  0.0508 -1.3695
  748SOL    HW214304   5.093   8.920   7.165 -0.8266  0.4281 -1.5347
  749SOL     OW14305   9.096   9.359   7.504 -0.6574  0.5890  0.8370
  749SOL    HW114306   9.109   9.296   7.580  0.4662 -2.1070 -1.4712
  749SOL    HW214307   9.001   9.388   7.500 -1.6435 -2.4797  0.8926
  750SOL     OW14308   8.142   4.637   7.835 -0.3550 -0.3860 -0.1364
  750SOL    HW114309   8.200   4.718   7.843  1.7204 -1.8140 -0.5604
  750SOL    HW214310   8.106   4.630   7.742  1.4050 -1.2213 -0.7794
  751SOL     OW14311   3.231   8.400   5.385 -0.3471  0.2199  0.0861
  751SOL    HW114312   3.198   8.458   5.310  0.2427  0.2527 -0.1487
  751SOL    HW214313   3.308   8.445   5.431 -0.9991  0.4123  1.0095
  752SOL     OW14314   2.740   1.915   9.534  0.1425  0.1794 -0.3653
  752SOL    HW114315   2.734   2.015   9.541  1.1393  0.1557  0.9711
  752SOL    HW214316   2.782   1.878   9.617 -0.5951 -1.3919 -0.6810
  753SOL     OW14317   7.021   2.088   2.600  0.3919 -0.0021  0.1686
  753SOL    HW114318   7.054   2.180   2.622  0.7470 -0.3750  1.2082
  753SOL    HW214319   6.921   2.090   2.592  0.4253  0.5421 -0.1658
  754SOL     OW14320   1.480   0.115   4.809 -0.1973 -0.2015 -0.3480
  754SOL    HW114321   1.447   0.208   4.796 -0.4529 -0.1055  0.9173
  754SOL    HW214322   1.526   0.107   4.898  0.1492 -1.1852 -0.6018
  755SOL     OW14323   5.479   0.586   3.580  0.5561 -0.5965 -0.2756
  755SOL    HW114324   5.454   0.615   3.488  2.5290 -2.5154 -1.4528
  755SOL    HW214325   5.418   0.514   3.611 -1.2318  1.2611  0.6874
  756SOL     OW14326   6.546   3.504   8.273 -0.0570  0.0604  0.0399
  756SOL    HW114327   6.489   3.524   8.193  0.4979  2.0304  0.1068
  756SOL    HW214328   6.594   3.587   8.300  0.1951 -0.7418  2.0889
  757SOL     OW14329   1.825   7.781   9.054 -0.3585 -0.0225  0.2335
  757SOL    HW114330   1.786   7.763   8.964  0.0474 -0.3279  0.1160
  757SOL    HW214331   1.834   7.880   9.068  1.9846 -0.0076 -1.1070
  758SOL     OW14332   0.941   0.652   6.002 -0.5321  0.1643 -0.1260
  758SOL    HW114333   0.967   0.664   5.906  0.6893 -1.3165 -0.0023
  758SOL    HW214334   0.928   0.555   6.021  0.8446  0.2986  1.6134
  759SOL     OW14335   7.953   9.731   6.193  0.3344 -0.1965  0.1894
  759SOL    HW114336   7.896   9.703   6.116  0.1351  0.2488  0.1731
  759SOL    HW214337   8.031   9.785   6.159 -0.6482  1.4163  0.4354
  760SOL     OW14338   8.174   2.731   7.982 -0.0792  0.3080  0.3280
  760SOL    HW114339   8.221   2.794   8.044 -0.8976 -0.3946  1.6653
  760SOL    HW214340   8.183   2.637   8.016 -0.5062 -0.0896 -0.6331
  761SOL     OW14341   0.744   0.164   5.705  0.5564  0.2350  0.7721
  761SOL    HW114342   0.812   0.095   5.727  0.9269  0.4040  0.1820
  761SOL    HW214343   0.748   0.185   5.607 -0.0724  0.5336  0.8060
  762SOL     OW14344   0.356   3.983   5.701 -0.5687 -0.0632  0.1165
  762SOL    HW114345   0.285   3.969   5.632 -1.2937 -0.0583  0.8498
  762SOL    HW214346   0.346   4.074   5.741  1.4098  0.9314 -1.5341
  763SOL     OW14347   5.174   6.464   0.720 -0.4434 -0.0020  0.0175
  763SOL    HW114348   5.263   6.431   0.690  0.9682  1.6893  2.1322
  763SOL    HW214349   5.143   6.410   0.798  0.0916  1.2022  1.0786
  764SOL     OW14350   4.906   9.378   4.882 -0.6389  0.2402 -0.2966
  764SOL    HW114351   4.946   9.425   4.961  1.3188 -0.7075 -0.6973
  764SOL    HW214352   4.812   9.409   4.869 -0.3906  1.7436  1.3109
  765SOL     OW14353   1.455   2.266   4.671  0.2168  0.9261  0.2826
  765SOL    HW114354   1.494   2.261   4.763 -1.8362 -0.1646  1.1155
  765SOL    HW214355   1.364   2.224   4.670  0.3684  0.5579 -2.3421
  766SOL     OW14356   0.305   0.229   5.375 -0.1298  0.0004  0.1914
  766SOL    HW114357   0.278   0.325   5.374 -0.0163  0.0318  0.1482
  766SOL    HW214358   0.400   0.222   5.404 -1.0827 -0.3156  3.4730
  767SOL     OW14359   1.454   4.221   7.383  0.5208  0.0342 -0.0374
  767SOL    HW114360   1.361   4.258   7.387  0.7591  0.8960 -1.7700
  767SOL    HW214361   1.450   4.121   7.385 -0.2513  0.0818  2.7457
  768SOL     OW14362   0.545   9.116   9.932  0.4042 -0.5103  0.4289
  768SOL    HW114363   0.542   9.114  10.032  1.4028 -3.2759  0.4573
  768SOL    HW214364   0.485   9.045   9.896  1.1433 -0.4767 -0.9060
  769SOL     OW14365   8.567   9.069   1.645  0.1453  0.2945  0.3022
  769SOL    HW114366   8.637   9.041   1.579 -0.6254 -1.8285  0.3408
  769SOL    HW214367   8.506   9.136   1.602  2.1573  2.1833  0.2778
  770SOL     OW14368   4.885   8.193   4.107  0.7409  0.4221  0.4618
  770SOL    HW114369   4.912   8.233   4.019 -1.2804  0.1725 -0.2908
  770SOL    HW214370   4.859   8.097   4.093 -1.1031  0.8184  1.0305
  771SOL     OW14371   6.060   8.800   3.692 -0.4720  0.8814 -0.0281
  771SOL    HW114372   6.019   8.714   3.661 -0.8845  1.3312 -0.7314
  771SOL    HW214373   6.120   8.781   3.769  0.6389 -0.2613 -1.1463
  772SOL     OW14374   2.129   1.157   3.539 -0.2866 -0.1043 -0.8325
  772SOL    HW114375   2.094   1.212   3.463  1.5233  1.9857 -0.2174
  772SOL    HW214376   2.215   1.113   3.510 -1.6335 -2.5412 -1.2648
  773SOL     OW14377   7.195   1.691   5.897  0.3641  0.2013 -0.2483
  773SOL    HW114378   7.183   1.750   5.817  1.6437  1.6381  0.6007
  773SOL    HW214379   7.233   1.603   5.868  1.9540  1.1466 -1.0980
  774SOL     OW14380   6.059   1.507   5.803 -0.0111 -0.1462 -0.4168
  774SOL    HW114381   6.096   1.475   5.716 -1.2270  0.6723 -1.2443
  774SOL    HW214382   5.994   1.440   5.839  1.1976 -0.9287  0.3463
  775SOL     OW14383   8.404   7.035   2.682  0.3813 -0.8208 -0.6244
  775SOL    HW114384   8.312   7.073   2.672 -0.0479 -0.9935  2.1291
  775SOL    HW214385   8.399   6.937   2.696  0.7699 -0.5211  1.8655
  776SOL     OW14386   0.391   6.151   9.879 -0.8883 -0.0295  0.1396
  776SOL    HW114387   0.462   6.193   9.935 -0.8965  0.1126  0.0453
  776SOL    HW214388   0.315   6.216   9.867  0.1210  0.8196 -1.9440
  777SOL     OW14389   6.589   3.955   1.868 -0.3346 -0.1265  0.0572
  777SOL    HW114390   6.564   3.949   1.965  1.3957  0.0242  0.5484
  777SOL    HW214391   6.634   4.043   1.851  1.0900 -0.9277 -0.4417
  778SOL     OW14392   5.532   0.859   8.927  0.5325 -0.3845 -0.1220
  778SOL    HW114393   5.627   0.880   8.950  0.5104 -0.2913 -0.1152
  778SOL    HW214394   5.530   0.794   8.851  0.6003 -0.1976 -0.2851
  779SOL     OW14395   5.590   7.973   5.884  0.2252  0.8791 -0.2101
  779SOL    HW114396   5.663   8.005   5.944  0.0236 -3.5930  2.6802
  779SOL    HW214397   5.629   7.926   5.805  0.4675  0.8400 -0.0676
  780SOL     OW14398   2.363   3.257   2.796  0.4375  0.0413 -0.4801
  780SOL    HW114399   2.462   3.273   2.800  0.4918 -0.4027 -0.1029
  780SOL    HW214400   2.344   3.160   2.806  0.0227  0.0068 -1.5849
  781SOL     OW14401   5.023   2.039   4.607  0.4433  0.1677  0.5757
  781SOL    HW114402   4.969   2.089   4.540  0.5398  0.1755  0.5036
  781SOL    HW214403   4.964   1.977   4.659  0.2379  0.7097  0.9955
  782SOL     OW14404   3.017   4.360   6.265  0.5418 -0.0552 -0.1080
  782SOL    HW114405   3.061   4.270   6.266  1.3346  0.3024 -1.1342
  782SOL    HW214406   3.064   4.422   6.328 -2.0886 -1.2762  3.1843
  783SOL     OW14407   3.598   7.369   8.469 -0.5570 -0.7425  0.7659
  783SOL    HW114408   3.577   7.271   8.463 -2.0112 -0.5646  2.6489
  783SOL    HW214409   3.536   7.420   8.410 -0.5581 -0.8510  0.6734
  784SOL     OW14410   8.615   6.323   8.381 -0.3680  0.7662 -0.0044
  784SOL    HW114411   8.644   6.271   8.301 -0.7583  0.4436  0.0615
  784SOL    HW214412   8.526   6.291   8.412  0.2178  0.2064  1.1577
  785SOL     OW14413   9.617   4.822   6.804  0.3851 -0.2940  0.0068
  785SOL    HW114414   9.647   4.744   6.749 -0.9664 -0.5480 -0.3920
  785SOL    HW214415   9.553   4.790   6.874  0.3096  0.3754  0.2440
  786SOL     OW14416   3.066   0.032   8.828  0.2665  0.1568 -0.2808
  786SOL    HW114417   3.019  -0.047   8.789  0.3557 -0.0668  0.0612
  786SOL    HW214418   2.998   0.097   8.863  0.2153 -0.8905  1.6607
  787SOL     OW14419   9.788   5.995   0.586 -0.3937 -0.2706  0.0080
  787SOL    HW114420   9.707   6.053   0.594 -1.2826 -1.4085 -0.4595
  787SOL    HW214421   9.764   5.902   0.613  0.7439 -0.6360 -0.2198
  788SOL     OW14422   2.519   2.497   5.783 -0.0301 -0.7350 -0.1608
  788SOL    HW114423   2.616   2.490   5.757 -0.2121  0.1507 -1.1304
  788SOL    HW214424   2.486   2.407   5.812  0.8390 -1.2508 -0.7283
  789SOL     OW14425   7.952   0.757   4.957 -0.1118  0.2390 -0.0690
  789SOL    HW114426   7.873   0.698   4.972 -0.1136 -0.1160 -1.4472
  789SOL    HW214427   8.020   0.709   4.901  0.5017  1.0246 -0.0095
  790SOL     OW14428   4.043   3.576   7.757  0.0945 -0.4316  0.3448
  790SOL    HW114429   4.030   3.673   7.780  0.1514 -0.0520 -1.1718
  790SOL    HW214430   4.052   3.523   7.842 -2.0773  0.5781  1.2489
  791SOL     OW14431   2.131   6.109   4.886 -0.0624 -0.8548 -0.0615
  791SOL    HW114432   2.182   6.051   4.951 -0.9811 -1.2221  0.3343
  791SOL    HW214433   2.170   6.201   4.887  0.5359 -1.1036  0.3205
  792SOL     OW14434   1.917   5.642   1.608  0.1545 -0.1296  0.1620
  792SOL    HW114435   1.896   5.678   1.518 -0.8474 -0.0131  0.4366
  792SOL    HW214436   1.844   5.579   1.637 -0.1414  0.7532  1.3805
  793SOL     OW14437   8.950   5.713   2.734 -0.0665  0.3928  0.7424
  793SOL    HW114438   9.003   5.657   2.670 -1.4173  0.0022 -0.0631
  793SOL    HW214439   8.868   5.748   2.688 -1.9178 -1.2414  2.6993
  794SOL     OW14440   4.804   7.298   4.021 -0.4474  0.6529  0.0836
  794SOL    HW114441   4.814   7.379   3.962  0.8097  0.3091 -0.2002
  794SOL    HW214442   4.895   7.267   4.050 -0.8632 -1.0697 -0.3819
  795SOL     OW14443   0.729   0.785   1.816 -0.0588 -0.1505 -0.4140
  795SOL    HW114444   0.652   0.831   1.772 -0.2953 -0.2494 -0.1003
  795SOL    HW214445   0.696   0.727   1.890  0.3968  0.5734  0.3692
  796SOL     OW14446   8.951   6.779   2.910  0.2047 -0.1187  0.0042
  796SOL    HW114447   8.959   6.797   3.008  2.3605  1.9019 -0.5174
  796SOL    HW214448   8.983   6.686   2.891  1.8388  0.2249  0.9480
  797SOL     OW14449   9.666   6.552   1.622  0.4998 -0.0087 -0.6284
  797SOL    HW114450   9.695   6.480   1.685 -0.0589 -1.0098 -1.5081
  797SOL    HW214451   9.569   6.572   1.636  1.0438  1.7757  0.7769
  798SOL     OW14452   7.516   6.889   7.275  0.6431  0.5158 -0.3152
  798SOL    HW114453   7.445   6.956   7.257  1.2103  0.9335 -0.9912
  798SOL    HW214454   7.518   6.868   7.373 -1.7694 -1.0309 -0.5661
  799SOL     OW14455   8.205   6.160   2.433  0.4641 -0.1033 -0.2562
  799SOL    HW114456   8.131   6.210   2.388 -1.5401 -1.3585  1.5437
  799SOL    HW214457   8.262   6.223   2.485 -0.4067  0.6623 -0.2281
  800SOL     OW14458   5.875   2.319   4.715 -0.2265  0.3833 -0.1599
  800SOL    HW114459   5.872   2.321   4.615 -1.5459 -1.1284 -0.1787
  800SOL    HW214460   5.963   2.282   4.745 -0.1706 -0.0058 -0.7920
  801SOL     OW14461   0.106   4.391   8.058  0.2612  0.4618  0.4657
  801SOL    HW114462   0.039   4.415   8.128  0.2789  1.4069  0.1694
  801SOL    HW214463   0.070   4.415   7.967  0.4117 -0.3584  0.1828
  802SOL     OW14464   1.766   3.979   9.790  0.0624  0.4427  0.2912
  802SOL    HW114465   1.725   4.012   9.876 -0.2129  1.8593 -0.3718
  802SOL    HW214466   1.862   3.957   9.805 -0.8397 -2.7532  1.8364
  803SOL     OW14467   5.535   1.679   6.059 -0.3627  1.0396  0.0257
  803SOL    HW114468   5.510   1.754   5.999  0.4870  0.9056 -0.5083
  803SOL    HW214469   5.564   1.715   6.148  2.1297  1.5121 -0.9330
  804SOL     OW14470   4.524   3.877   6.035 -0.4188 -0.3785 -0.6480
  804SOL    HW114471   4.565   3.866   5.944 -1.2881 -1.3722 -0.9296
  804SOL    HW214472   4.586   3.841   6.104 -1.1496 -2.6692 -1.1425
  805SOL     OW14473   3.273   2.345   3.606  0.4362 -0.0666 -0.7323
  805SOL    HW114474   3.203   2.275   3.599  1.0744 -0.6869 -0.9555
  805SOL    HW214475   3.246   2.413   3.674 -0.6893  0.0582 -1.3020
  806SOL     OW14476   2.301   4.654   5.879  0.3034  0.0452  0.1189
  806SOL    HW114477   2.352   4.739   5.867 -0.5798  0.6494  0.6125
  806SOL    HW214478   2.321   4.593   5.802 -0.9591  1.6748 -1.5381
  807SOL     OW14479   2.968   9.710   2.094 -0.3735 -0.3976  0.6820
  807SOL    HW114480   2.946   9.735   2.000  0.1495 -1.1826  0.3530
  807SOL    HW214481   3.013   9.621   2.096  2.8638  1.1715  1.3223
  808SOL     OW14482   0.271   1.683   6.976 -0.3922  0.2580  0.1715
  808SOL    HW114483   0.249   1.765   6.923 -0.7327 -0.8255 -1.3905
  808SOL    HW214484   0.210   1.608   6.950  0.7133 -0.8522  0.6827
  809SOL     OW14485   9.760   9.341   3.530 -0.0109 -0.4711  0.5710
  809SOL    HW114486   9.763   9.435   3.561 -1.5160 -1.0849  2.6443
  809SOL    HW214487   9.810   9.283   3.594  3.4606 -0.7460 -2.2067
  810SOL     OW14488   5.264   7.747   2.885  0.2785  0.2861 -0.3569
  810SOL    HW114489   5.289   7.680   2.955  0.7622  0.9688  0.1218
  810SOL    HW214490   5.232   7.831   2.928 -1.4567 -0.0412 -0.9682
  811SOL     OW14491   7.983   1.922   6.996  0.0318  0.1159 -0.3503
  811SOL    HW114492   8.064   1.956   7.045 -1.8020  2.4338  1.2384
  811SOL    HW214493   7.982   1.822   6.998  1.5113  0.1039  1.8628
  812SOL     OW14494   4.089   5.131   8.867  0.6515 -0.0214 -0.5831
  812SOL    HW114495   4.157   5.122   8.794  1.0848 -0.5202 -0.1188
  812SOL    HW214496   4.129   5.181   8.944  0.8648 -1.2961  0.1506
  813SOL     OW14497   9.639   8.719   9.078 -0.2258 -0.5618 -0.3341
  813SOL    HW114498   9.709   8.779   9.039 -0.6138  0.1060 -0.0145
  813SOL    HW214499   9.649   8.716   9.177 -2.0984  1.4142 -0.0506
  814SOL     OW14500   2.778   5.357   2.685 -0.6883  0.0631  0.1929
  814SOL    HW114501   2.848   5.399   2.744 -0.7402  0.1166  0.2166
  814SOL    HW214502   2.699   5.332   2.740 -0.9083  0.4992  0.0766
  815SOL     OW14503   2.918   9.514   4.521 -0.1404 -0.6883  0.1908
  815SOL    HW114504   2.985   9.571   4.472 -0.2450  0.2129  1.0691
  815SOL    HW214505   2.959   9.427   4.546 -0.6207 -1.9144 -3.0601
  816SOL     OW14506   1.272   7.683   7.123 -0.0226  0.1746 -0.1693
  816SOL    HW114507   1.289   7.668   7.221 -0.4203  0.0791 -0.1159
  816SOL    HW214508   1.320   7.766   7.094 -0.4455  0.5758  0.2600
  817SOL     OW14509   1.716   0.672   8.448  0.1351 -0.1624 -0.1310
  817SOL    HW114510   1.635   0.622   8.480 -1.0896  3.4545  2.8853
  817SOL    HW214511   1.781   0.683   8.523  0.6414  2.1224 -0.8407
  818SOL     OW14512   4.242   2.255   6.348  0.4640 -0.2944  0.6077
  818SOL    HW114513   4.249   2.198   6.266  1.0958  0.9331 -0.1971
  818SOL    HW214514   4.165   2.222   6.404  0.1800 -1.2934 -0.3424
  819SOL     OW14515   2.158   0.127   8.284  0.1500 -0.2061 -0.4292
  819SOL    HW114516   2.088   0.100   8.218 -0.4987 -2.7902  1.2203
  819SOL    HW214517   2.193   0.045   8.330  1.4617  1.4187  1.5502
  820SOL     OW14518   3.848   8.243   6.302  0.6670  0.3069  0.0551
  820SOL    HW114519   3.855   8.342   6.311  2.5365  0.1064  1.1814
  820SOL    HW214520   3.781   8.208   6.368  0.9096  0.7065  0.5180
  821SOL     OW14521   0.837   0.740   2.810  0.0423 -0.4047  0.0339
  821SOL    HW114522   0.888   0.682   2.747 -0.1344 -0.4032 -0.1121
  821SOL    HW214523   0.847   0.836   2.783 -0.4753 -0.4484 -0.3119
  822SOL     OW14524   2.572   1.781   8.289  0.1967 -0.1423  0.1599
  822SOL    HW114525   2.630   1.841   8.234 -0.2231 -0.3534 -0.5313
  822SOL    HW214526   2.627   1.708   8.329  0.4274 -0.3012 -0.4392
  823SOL     OW14527   2.614   1.599   9.298 -0.2509  0.3335  0.2023
  823SOL    HW114528   2.666   1.684   9.288 -1.1725  0.7553 -1.2118
  823SOL    HW214529   2.668   1.523   9.262  0.9022  0.1765  2.2015
  824SOL     OW14530   9.755   4.071   1.266 -0.0675 -0.3318  0.1699
  824SOL    HW114531   9.764   4.167   1.292  0.7804 -0.5073  0.5372
  824SOL    HW214532   9.711   4.020   1.340 -2.0791  0.0822 -0.6965
  825SOL     OW14533   8.841   8.600   3.905  0.4010  0.7691  0.6728
  825SOL    HW114534   8.805   8.648   3.825 -0.4990 -0.7417  0.1490
  825SOL    HW214535   8.876   8.666   3.971 -3.2578  2.3496  1.1698
  826SOL     OW14536   5.727   1.601   8.535 -0.5997 -0.0654  0.4243
  826SOL    HW114537   5.787   1.527   8.565  1.0332  1.2929  0.5585
  826SOL    HW214538   5.635   1.565   8.519  0.0748 -2.0312  0.8882
  827SOL     OW14539   1.378   3.423   5.256 -0.1152  0.0852 -0.2585
  827SOL    HW114540   1.407   3.496   5.317  0.4111  0.4472 -0.9336
  827SOL    HW214541   1.445   3.348   5.260 -1.8023 -1.3652  2.1397
  828SOL     OW14542   8.025   8.943   1.942 -0.2197  0.5652  0.1143
  828SOL    HW114543   7.929   8.915   1.931  0.5043 -1.7627 -0.5150
  828SOL    HW214544   8.054   8.992   1.860 -0.7109  0.8029  0.0765
  829SOL     OW14545   4.581   0.750   4.581  0.3969  0.4638  0.3394
  829SOL    HW114546   4.627   0.675   4.535  1.3016 -0.8110  3.1977
  829SOL    HW214547   4.486   0.724   4.600 -0.5571  1.7515 -2.4792
  830SOL     OW14548   9.747   4.544   6.771  0.1107  0.0829  0.0050
  830SOL    HW114549   9.752   4.496   6.859  3.3310 -2.2172 -1.3654
  830SOL    HW214550   9.680   4.499   6.712  1.0399 -0.9544 -0.2502
  831SOL     OW14551   9.601   6.975   1.551 -0.0096 -0.0968  0.1909
  831SOL    HW114552   9.582   7.021   1.638 -0.3592  0.2933 -0.0888
  831SOL    HW214553   9.698   6.951   1.546 -0.3998 -2.1680  1.6746
  832SOL     OW14554   0.640   2.147   3.278  0.6388  0.2854  0.1248
  832SOL    HW114555   0.575   2.160   3.354 -1.6026  0.4808 -1.7810
  832SOL    HW214556   0.651   2.049   3.260 -1.8620  0.3158 -1.7954
  833SOL     OW14557   1.647   8.003   4.645 -0.8308  0.0149 -0.7049
  833SOL    HW114558   1.689   7.923   4.689  0.7179  0.5211 -1.2618
  833SOL    HW214559   1.658   7.995   4.546 -1.4743  0.4816 -0.8115
  834SOL     OW14560   3.920   9.879   6.607  0.0729 -0.2578 -0.3185
  834SOL    HW114561   3.882   9.946   6.543 -0.0556 -0.7305 -0.7430
  834SOL    HW214562   3.947   9.925   6.692 -1.6451  0.0538  0.0781
  835SOL     OW14563   4.826   4.470   5.070  0.3419  0.2048  0.1982
  835SOL    HW114564   4.795   4.564   5.054 -3.5298 -0.7819  1.5225
  835SOL    HW214565   4.815   4.416   4.986  2.5685  0.8433 -0.5631
  836SOL     OW14566   0.863   1.937   6.339  0.0516 -0.3461 -0.0154
  836SOL    HW114567   0.901   1.879   6.412  1.7823  1.0464  0.2069
  836SOL    HW214568   0.804   2.007   6.380  1.8996  1.1270  0.1726
  837SOL     OW14569   3.625   6.421   0.332  0.1179  0.3284 -0.5250
  837SOL    HW114570   3.672   6.376   0.409 -1.5117  1.2794  1.0526
  837SOL    HW214571   3.530   6.390   0.328  0.0303  0.7280 -1.8200
  838SOL     OW14572   0.700   2.658   7.524  0.9272  0.0807 -0.1733
  838SOL    HW114573   0.718   2.681   7.428 -0.0700 -0.1089 -0.4087
  838SOL    HW214574   0.699   2.742   7.579  1.3084  0.2083 -0.3635
  839SOL     OW14575   4.387   8.141   1.874  0.5540 -0.2853  0.3399
  839SOL    HW114576   4.438   8.221   1.907  0.4862 -0.2550  0.3719
  839SOL    HW214577   4.302   8.171   1.832  0.9490 -0.2765 -0.4621
  840SOL     OW14578   4.383   9.392   8.879  0.3596  0.4730 -0.1268
  840SOL    HW114579   4.348   9.373   8.787 -0.2001 -0.4137  0.2508
  840SOL    HW214580   4.449   9.467   8.876  1.7931 -0.8221 -1.5338
  841SOL     OW14581   8.181   6.892   2.994  0.2437 -0.2688 -0.1227
  841SOL    HW114582   8.099   6.839   3.018  0.9639 -1.1873  0.3106
  841SOL    HW214583   8.160   6.951   2.916 -1.0841  0.1331  0.5260
  842SOL     OW14584   8.432   5.118   0.480  0.3590 -0.5703  0.3656
  842SOL    HW114585   8.457   5.215   0.474 -1.8471 -0.0539 -1.1321
  842SOL    HW214586   8.514   5.062   0.469  2.0155  1.1128  3.4557
  843SOL     OW14587   2.876   6.725   8.730 -0.0742  0.0376  0.5759
  843SOL    HW114588   2.967   6.729   8.689 -0.1829  0.1666  0.3514
  843SOL    HW214589   2.843   6.631   8.729 -1.0041  0.3736 -1.6150
  844SOL     OW14590   7.998   2.583   3.565 -0.0169  0.0354  0.1974
  844SOL    HW114591   7.995   2.501   3.622  0.4749  0.1749  0.4233
  844SOL    HW214592   8.055   2.566   3.485 -0.4454 -0.0545 -0.0916
  845SOL     OW14593   3.387   4.286   2.903 -0.0432 -0.2859  0.0097
  845SOL    HW114594   3.316   4.270   2.834  0.0051 -0.7465  0.0624
  845SOL    HW214595   3.471   4.317   2.858  0.0144 -0.6671 -0.1520
  846SOL     OW14596   0.829   7.596   3.573 -0.2778  0.1043 -0.1722
  846SOL    HW114597   0.805   7.618   3.668 -1.0949 -1.3406 -0.0300
  846SOL    HW214598   0.925   7.618   3.557 -0.5117  1.7158  0.5686
  847SOL     OW14599   8.673   1.045   5.912 -0.4234 -0.1240 -0.4374
  847SOL    HW114600   8.587   1.078   5.872 -1.1460 -3.2548 -1.6277
  847SOL    HW214601   8.720   0.989   5.845  0.6001 -1.7398  1.5950
  848SOL     OW14602   4.257   0.900   8.479  0.2070  0.3833 -0.0225
  848SOL    HW114603   4.319   0.827   8.505  0.4322  0.2985 -0.7691
  848SOL    HW214604   4.261   0.913   8.380  0.3878  1.6070  0.1374
  849SOL     OW14605   8.207   2.068   2.384 -0.3359 -0.1285 -0.1680
  849SOL    HW114606   8.214   2.117   2.297 -2.0055  0.5213  0.0440
  849SOL    HW214607   8.116   2.027   2.392  0.3021 -1.4284  0.6265
  850SOL     OW14608   3.815   4.855   3.690 -0.2917 -0.5217 -0.1784
  850SOL    HW114609   3.845   4.801   3.611  0.5137  0.7013 -0.7282
  850SOL    HW214610   3.751   4.925   3.660  0.3591  0.2352  0.1651
  851SOL     OW14611   3.787   6.360   0.752  0.0477  0.2604  0.2156
  851SOL    HW114612   3.701   6.369   0.803  0.5139  1.4164  0.8083
  851SOL    HW214613   3.859   6.410   0.799  1.4129 -1.9309  0.5005
  852SOL     OW14614   8.759   9.633   6.489 -0.4049  0.4148 -0.5460
  852SOL    HW114615   8.805   9.623   6.577 -0.7250 -1.4923 -0.5678
  852SOL    HW214616   8.666   9.666   6.504 -0.2445  0.7231 -0.2213
  853SOL     OW14617   3.195   6.511   3.010  0.0015 -0.3181 -0.1023
  853SOL    HW114618   3.112   6.467   3.045 -1.2621  0.3172 -2.1921
  853SOL    HW214619   3.232   6.458   2.934  2.1077 -1.1228  1.4304
  854SOL     OW14620   8.131   8.088   5.386 -0.3219 -0.3438  0.3935
  854SOL    HW114621   8.228   8.108   5.402  0.2563 -2.0757 -0.7832
  854SOL    HW214622   8.079   8.173   5.389  1.2478  0.6310  0.9237
  855SOL     OW14623   7.460   1.253   0.775  0.1599  0.5416  0.6515
  855SOL    HW114624   7.556   1.279   0.763  0.0484  0.4966 -0.4009
  855SOL    HW214625   7.454   1.169   0.829  0.7868 -0.2079 -0.4356
  856SOL     OW14626   1.462   1.915   9.258  0.1789 -0.2214  0.3726
  856SOL    HW114627   1.441   1.819   9.273  0.5168 -0.2051  0.9618
  856SOL    HW214628   1.447   1.938   9.162  1.1166 -1.1198  0.0102
  857SOL     OW14629   8.882   4.305   8.505 -0.1951 -0.9488 -0.0614
  857SOL    HW114630   8.846   4.259   8.423 -0.0823  0.0551 -0.6866
  857SOL    HW214631   8.973   4.340   8.485 -0.8259  0.7438 -0.0472
  858SOL     OW14632   5.319   3.879   2.004  0.1862 -0.1816 -0.4287
  858SOL    HW114633   5.274   3.947   2.062  0.9915 -0.2128  0.2478
  858SOL    HW214634   5.284   3.788   2.025 -0.2085 -0.0798 -0.6597
  859SOL     OW14635   9.421   0.660   9.447 -0.5248  0.5286 -0.1458
  859SOL    HW114636   9.341   0.721   9.449 -1.1141 -0.2571  1.1262
  859SOL    HW214637   9.420   0.607   9.362 -0.5603  1.5620 -0.7983
  860SOL     OW14638   1.899   0.320   5.535 -0.1863  0.3288 -0.3938
  860SOL    HW114639   1.987   0.316   5.488 -0.0005 -0.3985 -0.0019
  860SOL    HW214640   1.854   0.407   5.515 -0.7296 -0.5141 -2.9974
  861SOL     OW14641   9.149   4.515   8.893  0.0340 -0.2462  0.2684
  861SOL    HW114642   9.100   4.561   8.820  0.7200 -0.5130 -0.3597
  861SOL    HW214643   9.108   4.540   8.981 -0.2360  0.7540 -0.1390
  862SOL     OW14644   3.421   8.271   0.124  0.0527  0.4472  0.1587
  862SOL    HW114645   3.502   8.254   0.180  1.1677 -0.6208 -1.7745
  862SOL    HW214646   3.346   8.214   0.156  0.9521 -0.8410 -0.0216
  863SOL     OW14647   1.022   6.679   1.225  0.4365 -0.6326  0.0574
  863SOL    HW114648   1.113   6.708   1.198  0.5841 -0.4809  0.7186
  863SOL    HW214649   0.957   6.701   1.152  1.2919 -2.8611 -1.4307
  864SOL     OW14650   8.559   4.055   9.910 -0.1212 -0.2878  0.5978
  864SOL    HW114651   8.506   4.037   9.993 -0.6049  0.4750  0.4605
  864SOL    HW214652   8.554   4.152   9.889 -0.8247 -0.6354 -0.8785
  865SOL     OW14653   4.675   7.554   2.846 -0.0013  0.0189  0.0666
  865SOL    HW114654   4.732   7.572   2.927  1.8779 -1.6143 -0.8625
  865SOL    HW214655   4.584   7.591   2.862  1.2800  2.7653  1.5948
  866SOL     OW14656   3.683   0.646   1.404 -0.0214  0.3263  0.3470
  866SOL    HW114657   3.727   0.586   1.337 -1.3762  1.1257 -1.2936
  866SOL    HW214658   3.743   0.655   1.484  1.5445 -0.7938 -0.6558
  867SOL     OW14659   2.535   0.475   5.915 -0.6789 -0.1550  0.1538
  867SOL    HW114660   2.464   0.487   5.985 -0.7872  0.5390 -0.0692
  867SOL    HW214661   2.604   0.547   5.925 -0.4259 -0.3568 -0.1328
  868SOL     OW14662   1.239   2.228   8.340 -0.6242 -0.5280 -0.4701
  868SOL    HW114663   1.164   2.258   8.398  0.0477  0.3134 -0.0327
  868SOL    HW214664   1.239   2.280   8.255  0.0983  0.2224 -0.0193
  869SOL     OW14665   0.681   9.688   2.465  0.1350 -0.1507 -0.0902
  869SOL    HW114666   0.635   9.604   2.494  1.6760 -1.5873 -1.6866
  869SOL    HW214667   0.673   9.757   2.537  0.7264 -2.3834  2.1990
  870SOL     OW14668   1.815   5.630   6.007  0.0264  0.5113 -0.5494
  870SOL    HW114669   1.733   5.598   5.959 -0.3166  2.3825 -1.2453
  870SOL    HW214670   1.789   5.701   6.073  1.0482  0.9528 -0.6146
  871SOL     OW14671   2.931   5.762   2.019  0.3959 -0.0359 -0.0889
  871SOL    HW114672   2.912   5.843   2.075 -1.1081 -0.1602 -0.3936
  871SOL    HW214673   2.863   5.691   2.039  1.5209 -1.1092 -0.0568
  872SOL     OW14674   8.154   8.479   0.216  0.3072  0.0686  0.0717
  872SOL    HW114675   8.195   8.569   0.229  0.5038  0.2822 -1.8479
  872SOL    HW214676   8.110   8.450   0.301  0.7849  1.6825  0.9009
  873SOL     OW14677   8.492   0.500   0.766 -0.2499  0.0903  0.1199
  873SOL    HW114678   8.567   0.436   0.752  0.4812  0.8579  0.4631
  873SOL    HW214679   8.528   0.584   0.807 -1.5074 -0.0479  1.5300
  874SOL     OW14680   0.170   3.752   4.718  0.5179 -0.2899 -0.3278
  874SOL    HW114681   0.243   3.775   4.654  0.7247 -0.9301 -0.3298
  874SOL    HW214682   0.118   3.674   4.683 -1.1437  1.1115 -1.0716
  875SOL     OW14683   8.832   7.462  10.035  0.0894 -0.1697  0.2473
  875SOL    HW114684   8.873   7.553  10.030  0.5239 -0.4862 -3.5706
  875SOL    HW214685   8.886   7.404  10.096  3.0174  0.6275 -1.4710
  876SOL     OW14686   2.451   7.861   1.147 -0.3166  0.0571 -0.0314
  876SOL    HW114687   2.364   7.816   1.126 -0.8134 -0.4672  3.0007
  876SOL    HW214688   2.433   7.950   1.189  0.6258  0.3565 -0.2559
  877SOL     OW14689   7.803   5.480   6.827 -0.6003 -0.1099 -0.2868
  877SOL    HW114690   7.801   5.573   6.791 -2.3678 -0.3528 -0.8729
  877SOL    HW214691   7.810   5.482   6.927  3.0594  0.5808 -0.4886
  878SOL     OW14692   7.648   0.345   6.953  0.2740 -0.1824  0.1732
  878SOL    HW114693   7.648   0.364   7.052  0.2850 -1.0249  0.3403
  878SOL    HW214694   7.689   0.256   6.937  3.2100  1.2958 -0.8940
  879SOL     OW14695   1.300   7.629   6.445  0.2657  0.6591  0.3978
  879SOL    HW114696   1.255   7.596   6.528  4.3395 -2.5833  1.4906
  879SOL    HW214697   1.347   7.715   6.464  0.4861  0.3563  1.2330
  880SOL     OW14698   7.034   0.832   4.366 -0.4837  0.3402  0.1288
  880SOL    HW114699   7.023   0.858   4.270 -0.5040  0.7779  0.2492
  880SOL    HW214700   7.052   0.734   4.372  1.4897  0.6405 -0.4625
  881SOL     OW14701   2.550   6.277   1.039 -0.4162 -0.6007  0.1840
  881SOL    HW114702   2.544   6.181   1.065 -2.3267 -0.0754  1.7757
  881SOL    HW214703   2.609   6.326   1.104  1.0605 -0.7914 -0.9788
  882SOL     OW14704   0.636   4.645   4.826  0.0244  0.3711  0.1578
  882SOL    HW114705   0.611   4.732   4.785  0.1042  0.4735  0.3257
  882SOL    HW214706   0.566   4.576   4.803  0.2310  0.3515 -0.3978
  883SOL     OW14707   9.666   4.390   8.157 -0.3359  0.4479 -0.2652
  883SOL    HW114708   9.697   4.295   8.170  0.7090  0.9073  0.7471
  883SOL    HW214709   9.597   4.412   8.226  0.4013  0.8278  0.3667
  884SOL     OW14710   8.340   3.610   1.728 -0.3894 -0.2537  0.0656
  884SOL    HW114711   8.273   3.633   1.799 -0.3091  0.4167 -0.0759
  884SOL    HW214712   8.425   3.658   1.747 -0.5550  0.3790 -0.8211
  885SOL     OW14713   9.785   8.967   2.817  0.2019 -0.7715  0.3062
  885SOL    HW114714   9.851   9.031   2.855  0.4622 -0.0366 -1.3619
  885SOL    HW214715   9.697   9.012   2.805 -0.4947 -1.6144  2.0635
  886SOL     OW14716   2.775   2.194   9.577 -0.3257  0.3621  0.1475
  886SOL    HW114717   2.871   2.206   9.552 -0.2608 -0.0830  0.1711
  886SOL    HW214718   2.748   2.264   9.643  0.1575  0.1170  0.6062
  887SOL     OW14719   6.588   2.390   1.532 -0.1210  0.8672  0.1298
  887SOL    HW114720   6.536   2.455   1.588  0.3197  0.5338  0.9294
  887SOL    HW214721   6.650   2.441   1.471 -1.3268  1.2645 -0.7873
  888SOL     OW14722   4.518   0.438   7.789  0.6856  0.1013 -0.4536
  888SOL    HW114723   4.559   0.432   7.880 -0.1325 -0.2165 -0.1061
  888SOL    HW214724   4.456   0.361   7.774 -0.1470  0.8243 -0.8003
  889SOL     OW14725   9.530   0.844   0.018  0.7376 -0.4816 -0.3544
  889SOL    HW114726   9.611   0.823  -0.036 -0.1927 -1.3796 -1.4262
  889SOL    HW214727   9.543   0.814   0.113  1.6540 -0.5878 -0.5175
  890SOL     OW14728   9.815   6.697   7.187  0.4379 -0.3235  0.8998
  890SOL    HW114729   9.758   6.774   7.216 -0.2565 -0.9333  1.1776
  890SOL    HW214730   9.757   6.617   7.173  0.4138  0.3746 -3.9370
  891SOL     OW14731   5.752   1.105   9.011 -0.4900 -0.3907 -0.4560
  891SOL    HW114732   5.843   1.145   8.999 -0.6794  0.0310 -0.4948
  891SOL    HW214733   5.741   1.072   9.104 -0.5450  0.1815 -0.2587
  892SOL     OW14734   3.184   6.181   8.808 -0.1267 -0.1480  0.0312
  892SOL    HW114735   3.095   6.138   8.812 -0.0072 -0.3228  0.8683
  892SOL    HW214736   3.237   6.143   8.732  0.3920 -2.2795  1.4234
  893SOL     OW14737   0.819   6.347   0.055 -0.4310  0.5104 -0.2142
  893SOL    HW114738   0.860   6.343  -0.036  0.4931 -0.3708  0.2210
  893SOL    HW214739   0.826   6.440   0.091  2.4382  0.1011  0.3903
  894SOL     OW14740   5.890   0.059   3.824  0.3331  0.3820  1.0629
  894SOL    HW114741   5.971   0.036   3.878  0.9144 -1.7611 -0.6314
  894SOL    HW214742   5.811   0.010   3.861  0.5201 -0.2511  0.6364
  895SOL     OW14743   3.846   7.962   6.829  0.1273  0.2935 -0.0330
  895SOL    HW114744   3.864   7.981   6.926  1.6965 -0.5867 -0.1257
  895SOL    HW214745   3.755   7.996   6.804 -0.2907  0.5319  1.7446
  896SOL     OW14746   8.360   9.622   0.706 -0.3360  0.0638 -0.6191
  896SOL    HW114747   8.296   9.613   0.782 -2.0720  1.8965 -1.8058
  896SOL    HW214748   8.313   9.661   0.627  1.8131 -0.2926 -2.1284
  897SOL     OW14749   8.057   1.975   4.492  0.1856  0.0385  0.3827
  897SOL    HW114750   8.080   1.879   4.508 -0.8902 -0.2215  0.4178
  897SOL    HW214751   7.982   2.002   4.552 -0.0326  0.6810 -0.1648
  898SOL     OW14752   3.819   7.849   3.914  0.1784 -0.4336  0.4924
  898SOL    HW114753   3.797   7.891   3.827  3.1099 -0.2693 -0.2406
  898SOL    HW214754   3.883   7.773   3.899 -0.5736 -1.4630  2.3351
  899SOL     OW14755   0.499   9.690   3.366  0.1053  0.9145 -0.0774
  899SOL    HW114756   0.423   9.650   3.417 -0.1773 -2.6712 -3.1066
  899SOL    HW214757   0.465   9.721   3.277  1.5950  2.2507 -0.1950
  900SOL     OW14758   4.837   2.173   1.109  0.1598  0.1359  0.0972
  900SOL    HW114759   4.770   2.230   1.156  1.6938  2.0910 -0.0426
  900SOL    HW214760   4.920   2.226   1.092  1.2280 -1.8341 -0.9760
  901SOL     OW14761   8.865   6.960   9.094  0.2922 -0.3058 -0.2589
  901SOL    HW114762   8.883   6.914   9.181  0.2410  0.1129 -0.0279
  901SOL    HW214763   8.820   7.047   9.111 -0.6497 -0.6885 -0.7616
  902SOL     OW14764   7.744   8.228   5.472 -0.6551  0.7036 -0.1332
  902SOL    HW114765   7.772   8.215   5.568 -1.4756 -2.3477 -0.2490
  902SOL    HW214766   7.664   8.288   5.469 -0.4335  1.0826  1.0745
  903SOL     OW14767   3.075   2.860   4.191 -0.1423  0.1545 -0.3071
  903SOL    HW114768   3.115   2.781   4.237  0.2197 -0.8085 -2.2566
  903SOL    HW214769   3.136   2.939   4.201  0.8731 -0.5631 -0.8236
  904SOL     OW14770   3.822   8.383   0.953  0.5035 -0.3901 -0.2204
  904SOL    HW114771   3.908   8.363   0.906  0.5039  1.4406 -1.0282
  904SOL    HW214772   3.841   8.416   1.045  0.7372  1.0429 -0.7657
  905SOL     OW14773   9.287   9.610   8.149  0.0486 -0.2951 -0.1813
  905SOL    HW114774   9.376   9.635   8.186  0.5938 -0.8953 -1.0537
  905SOL    HW214775   9.289   9.514   8.119 -0.9797 -0.4037  0.0589
  906SOL     OW14776   7.351   8.268   3.762 -0.0600 -0.2240  0.0498
  906SOL    HW114777   7.383   8.174   3.754  0.4145 -0.0379 -0.2521
  906SOL    HW214778   7.278   8.284   3.696 -0.4069 -0.4898  0.3630
  907SOL     OW14779   2.906   0.515   7.512 -0.4204 -0.3945  0.2124
  907SOL    HW114780   2.938   0.604   7.545 -1.9595  0.0157  0.6482
  907SOL    HW214781   2.968   0.481   7.441 -0.5716  1.6408 -0.9069
  908SOL     OW14782   0.109   9.742   5.345 -0.3247  0.5142 -0.0257
  908SOL    HW114783   0.145   9.833   5.366  1.8271 -0.6146  1.3924
  908SOL    HW214784   0.056   9.708   5.422  0.8270 -0.3562  0.4005
  909SOL     OW14785   0.008   1.740   2.072 -0.0211 -0.3916 -0.1625
  909SOL    HW114786  -0.030   1.681   2.143  2.8403 -1.0787  0.8780
  909SOL    HW214787   0.008   1.835   2.104  0.2977 -0.5603  0.3551
  910SOL     OW14788   7.022   0.680   6.101 -0.0409 -0.1373  0.2687
  910SOL    HW114789   7.103   0.730   6.133 -1.0916  0.4422  2.0844
  910SOL    HW214790   6.999   0.711   6.009  1.8932 -0.4364 -0.3489
  911SOL     OW14791   3.826   4.873   0.466  0.6895 -0.1575  0.0187
  911SOL    HW114792   3.828   4.777   0.439 -0.0070 -0.6284  1.5820
  911SOL    HW214793   3.901   4.922   0.421  0.8301 -1.3431 -1.0688
  912SOL     OW14794   2.036   1.120   3.944  0.6965 -0.7045 -0.1165
  912SOL    HW114795   1.964   1.053   3.926 -0.0025 -0.1453  0.5497
  912SOL    HW214796   2.114   1.075   3.988 -0.5209 -0.7757  2.0673
  913SOL     OW14797   2.571   7.338   4.512  0.3207  0.4557 -0.4955
  913SOL    HW114798   2.660   7.376   4.485  0.5448  0.6300  0.4896
  913SOL    HW214799   2.530   7.291   4.433  2.2364 -1.4320 -0.4184
  914SOL     OW14800   2.348   4.887   5.479 -0.5639  0.8443  0.3176
  914SOL    HW114801   2.448   4.889   5.472 -0.5817  1.3567  0.2448
  914SOL    HW214802   2.318   4.951   5.550 -0.8092  0.3105  0.7087
  915SOL     OW14803   2.876   7.583  10.031 -0.4005  0.5982  0.1854
  915SOL    HW114804   2.952   7.630  10.075 -1.5771  1.3009  1.5030
  915SOL    HW214805   2.844   7.636   9.953  1.3018 -0.3518 -1.1868
  916SOL     OW14806   3.589   7.636   1.451 -0.2058 -0.1093  0.7267
  916SOL    HW114807   3.666   7.664   1.394  0.5585 -0.2236  1.6870
  916SOL    HW214808   3.532   7.571   1.401 -1.0103  1.7735 -0.8705
  917SOL     OW14809   6.719   0.581   2.749  0.5763 -0.2375  0.5920
  917SOL    HW114810   6.699   0.670   2.708 -0.1611 -0.1477  1.1448
  917SOL    HW214811   6.752   0.519   2.678  0.1940  0.1958  0.0306
  918SOL     OW14812   0.986   0.542   0.010  0.2139 -0.0460  0.2169
  918SOL    HW114813   0.939   0.526  -0.077  2.2524 -0.5266 -0.8189
  918SOL    HW214814   0.998   0.641   0.024 -0.5982  0.0552  0.2279
  919SOL     OW14815   9.258   6.274   7.571 -0.0504 -0.3033  0.7390
  919SOL    HW114816   9.171   6.314   7.599  0.0726  0.2606  0.3378
  919SOL    HW214817   9.290   6.211   7.641  1.1957  2.4983  2.7639
  920SOL     OW14818   0.833   7.100   2.402 -0.1729 -0.0653  0.3128
  920SOL    HW114819   0.765   7.027   2.402 -0.3514  0.0968 -0.3845
  920SOL    HW214820   0.803   7.173   2.340 -0.2845  0.8652  1.4535
  921SOL     OW14821   7.136   8.891   8.429 -0.5641  0.3442  0.4316
  921SOL    HW114822   7.043   8.857   8.441 -0.6361  0.4997  0.3048
  921SOL    HW214823   7.201   8.819   8.455 -0.7090 -0.1748 -0.6012
  922SOL     OW14824   6.715   2.302   2.136 -0.5717  0.2505  0.0005
  922SOL    HW114825   6.680   2.213   2.106 -3.0506  1.6048 -1.2420
  922SOL    HW214826   6.798   2.288   2.191 -1.5397 -2.8926  0.7800
  923SOL     OW14827   9.135   8.213   5.483 -0.6886 -0.3512 -0.5780
  923SOL    HW114828   9.142   8.148   5.407 -1.7170 -1.7870  0.5329
  923SOL    HW214829   9.099   8.167   5.564  0.7199  1.0909  0.9059
  924SOL     OW14830   7.702   7.334   7.285  0.2274  0.2237  0.6611
  924SOL    HW114831   7.789   7.294   7.316  1.1993  2.5228  0.9586
  924SOL    HW214832   7.648   7.362   7.364 -1.3169 -2.1849  0.5224
  925SOL     OW14833   1.315   9.589   0.673 -0.0441  0.2627  0.1458
  925SOL    HW114834   1.297   9.551   0.583  0.3352 -0.5243  0.3961
  925SOL    HW214835   1.328   9.515   0.739 -0.7053  0.8217  0.9253
  926SOL     OW14836   2.274   4.216   9.544 -0.2059 -0.6559 -0.0375
  926SOL    HW114837   2.348   4.282   9.547  0.6365 -1.5469 -0.7557
  926SOL    HW214838   2.282   4.152   9.620 -0.0504 -0.9384 -0.2879
  927SOL     OW14839   0.559   9.468   2.856 -0.5198 -0.3043  1.1111
  927SOL    HW114840   0.546   9.378   2.897  1.5430 -0.7892  0.7878
  927SOL    HW214841   0.656   9.480   2.834 -0.9329  1.6185  0.2703
  928SOL     OW14842   6.189   1.500   0.004  0.3583  0.0032 -0.3355
  928SOL    HW114843   6.184   1.541  -0.088 -0.0379  0.9235  0.0864
  928SOL    HW214844   6.097   1.495   0.043  0.4839 -0.7201 -0.1241
  929SOL     OW14845   3.847   0.307   9.915 -0.4475 -0.5077 -0.9380
  929SOL    HW114846   3.845   0.349   9.824  1.7665  1.3978 -0.1561
  929SOL    HW214847   3.930   0.336   9.963 -2.2082 -0.4467  2.1707
  930SOL     OW14848   3.609   2.493   7.748 -0.1860 -0.3645 -0.6409
  930SOL    HW114849   3.527   2.435   7.749  0.2490 -1.0104 -1.4352
  930SOL    HW214850   3.637   2.509   7.654  0.2110  0.4272 -0.3922
  931SOL     OW14851   2.188   3.529   3.659  0.5184 -0.1651 -0.7384
  931SOL    HW114852   2.135   3.567   3.734  2.5313 -1.2826  1.2870
  931SOL    HW214853   2.156   3.568   3.572 -0.4403  2.7095  0.8630
  932SOL     OW14854   6.862   4.087   8.650 -0.5297  0.1480  0.2186
  932SOL    HW114855   6.956   4.118   8.634  0.3916 -2.3360  0.5449
  932SOL    HW214856   6.837   4.104   8.745  0.3999 -1.1465  0.7117
  933SOL     OW14857   7.729   9.813   2.907 -0.0343 -0.3795  0.1729
  933SOL    HW114858   7.792   9.791   2.833  0.0548  1.4462 -0.3105
  933SOL    HW214859   7.690   9.728   2.943  1.6556 -1.4328 -0.4196
  934SOL     OW14860   0.306   9.264   9.813 -0.0508  0.3117 -0.0922
  934SOL    HW114861   0.301   9.173   9.852  0.5026  0.9631  1.5394
  934SOL    HW214862   0.358   9.324   9.874  0.8651  1.3525 -1.8493
  935SOL     OW14863   6.777   1.095   1.818 -0.1460 -0.1929  0.2560
  935SOL    HW114864   6.876   1.092   1.834  0.0144 -1.2460 -0.9331
  935SOL    HW214865   6.731   1.106   1.906  0.9236 -2.2101  1.1228
  936SOL     OW14866   3.626   9.983   0.174 -0.4358 -0.3092  0.3091
  936SOL    HW114867   3.632  10.041   0.092 -0.0281 -0.7033  0.0569
  936SOL    HW214868   3.660  10.034   0.253  1.3251 -0.6972 -0.1757
  937SOL     OW14869   2.031   9.756   8.195  0.4751 -0.6367  0.2582
  937SOL    HW114870   2.017   9.855   8.197  0.9450 -0.5769  0.6453
  937SOL    HW214871   1.953   9.711   8.240 -0.8016 -0.5710 -1.8247
  938SOL     OW14872   3.790   7.286   0.370 -0.3006 -0.8049 -0.0407
  938SOL    HW114873   3.703   7.255   0.407 -0.8071 -0.6567 -1.0971
  938SOL    HW214874   3.850   7.207   0.354 -0.4375 -0.9542  0.1873
  939SOL     OW14875   1.306   5.144   9.752  0.1176  0.2405  0.0267
  939SOL    HW114876   1.358   5.212   9.700 -0.9345  0.1209 -1.2121
  939SOL    HW214877   1.251   5.089   9.689 -1.7967  0.5924  1.3603
  940SOL     OW14878   5.935   7.823   6.102 -0.1234 -0.4991 -0.5354
  940SOL    HW114879   5.889   7.848   6.188  0.5142  0.8436 -0.5689
  940SOL    HW214880   6.004   7.753   6.120  0.1270 -0.0981  0.0865
  941SOL     OW14881   5.017   4.090   2.193  0.1795 -0.0201  0.5000
  941SOL    HW114882   4.984   4.015   2.135  1.8927 -1.6105  1.5067
  941SOL    HW214883   4.964   4.091   2.278 -0.3462  0.4132  0.1736
  942SOL     OW14884   3.580   0.095   1.706 -0.5414 -0.7035  0.3770
  942SOL    HW114885   3.601   0.006   1.666 -0.7341 -0.7392  0.3546
  942SOL    HW214886   3.585   0.165   1.634 -0.0163 -0.6418  0.4734
  943SOL     OW14887   3.365   8.656   7.711  0.3164  0.2586 -0.4213
  943SOL    HW114888   3.329   8.578   7.659 -1.3161 -0.1866  1.3043
  943SOL    HW214889   3.295   8.726   7.719 -0.2827 -0.6619  3.0909
  944SOL     OW14890   0.639   8.931   4.550  0.0208 -0.1091 -0.2386
  944SOL    HW114891   0.552   8.972   4.525 -0.4726 -1.4674 -0.7626
  944SOL    HW214892   0.670   8.870   4.477  2.4013  1.8819 -0.9575
  945SOL     OW14893   6.529   5.120   1.987  0.5001 -0.1672  0.5347
  945SOL    HW114894   6.448   5.102   2.043 -1.4482  0.8574 -1.8554
  945SOL    HW214895   6.609   5.129   2.045 -1.7969  3.0605  3.3476
  946SOL     OW14896   4.321   7.351   4.775  0.1667 -0.2815  0.4816
  946SOL    HW114897   4.329   7.449   4.757  1.6374 -0.6584 -0.9924
  946SOL    HW214898   4.227   7.330   4.803 -0.1848  1.5263  0.6891
  947SOL     OW14899   3.853   5.346   9.653 -0.0631  0.3846 -0.1441
  947SOL    HW114900   3.851   5.270   9.588 -2.2604  0.9129 -0.7341
  947SOL    HW214901   3.788   5.329   9.727 -0.6735  1.7268 -0.3461
  948SOL     OW14902   0.838   2.796   0.404  0.0036 -0.1592 -0.4731
  948SOL    HW114903   0.883   2.714   0.369  0.6182  0.7883 -1.9225
  948SOL    HW214904   0.761   2.819   0.346 -0.5019 -0.0059  0.2468
  949SOL     OW14905   2.115   8.979   2.407  0.8275 -0.5561 -0.0294
  949SOL    HW114906   2.066   9.009   2.325 -1.1725 -1.2847  0.8882
  949SOL    HW214907   2.177   9.052   2.437  0.2095  0.4292 -1.0914
  950SOL     OW14908   5.658   1.137   6.395 -0.0741 -0.1516 -0.5153
  950SOL    HW114909   5.601   1.057   6.378 -2.8017  1.8489 -1.0777
  950SOL    HW214910   5.606   1.205   6.447  2.8368  0.4867  1.6967
  951SOL     OW14911   7.888   8.251   9.118 -0.5982  0.5680  0.8297
  951SOL    HW114912   7.876   8.207   9.029 -2.9654  0.8142  1.0126
  951SOL    HW214913   7.850   8.344   9.115  1.9714  1.7078  1.2344
  952SOL     OW14914   4.460   8.938   0.639  0.2522  0.0351  0.0906
  952SOL    HW114915   4.541   8.967   0.589  0.7191  0.3886  1.0263
  952SOL    HW214916   4.484   8.926   0.736 -0.4362 -1.3640  0.1045
  953SOL     OW14917   8.514   6.945   2.036 -0.0080  0.3338  0.3176
  953SOL    HW114918   8.551   7.036   2.022 -0.8590  1.0251  2.3492
  953SOL    HW214919   8.559   6.902   2.115  0.1220 -0.8457 -0.3907
  954SOL     OW14920   5.205   7.717   2.595  0.1444  0.2524 -0.1023
  954SOL    HW114921   5.118   7.760   2.575 -0.8840 -1.8935 -0.4188
  954SOL    HW214922   5.228   7.731   2.691 -0.3060  1.2271 -0.1312
  955SOL     OW14923   8.199   7.497   0.627 -0.5295  0.5336  1.0303
  955SOL    HW114924   8.284   7.455   0.658 -1.2434 -0.7156  1.3228
  955SOL    HW214925   8.169   7.453   0.543 -0.3956  1.6181  0.4064
  956SOL     OW14926   1.568   0.084   5.092 -0.2092 -0.0453  0.1094
  956SOL    HW114927   1.656   0.083   5.044  0.4861 -1.5164  1.3765
  956SOL    HW214928   1.530  -0.008   5.093 -1.3313  0.4152  0.3752
  957SOL     OW14929   2.538   4.820   1.684  0.2502  0.1881  0.4633
  957SOL    HW114930   2.636   4.828   1.666  0.1952 -0.7010 -0.2605
  957SOL    HW214931   2.510   4.893   1.747  1.3015  0.6617  0.4013
  958SOL     OW14932   0.430   3.963   8.373  0.1101 -0.1720 -0.3706
  958SOL    HW114933   0.342   3.925   8.403  0.1060  0.2327  0.1283
  958SOL    HW214934   0.501   3.893   8.381  0.1681  0.0097  0.8583
  959SOL     OW14935   4.723   1.193   0.137  0.1794  0.1602 -0.6583
  959SOL    HW114936   4.709   1.291   0.120 -0.2095  0.0798 -0.7924
  959SOL    HW214937   4.821   1.172   0.130 -0.0243 -0.0102 -3.5534
  960SOL     OW14938   3.116   0.064   4.411 -0.5391 -0.1037  0.7397
  960SOL    HW114939   3.126   0.149   4.463 -0.0512  0.3355 -0.0776
  960SOL    HW214940   3.178   0.064   4.333  1.7995 -2.5848  2.4879
  961SOL     OW14941   8.880   2.261   2.075  0.0680 -0.1118 -0.3757
  961SOL    HW114942   8.920   2.187   2.021  0.1134 -0.8131  0.5981
  961SOL    HW214943   8.954   2.319   2.111  0.0247  0.5185 -1.2748
  962SOL     OW14944   9.887   8.758   7.086  0.6301  0.3742 -0.0354
  962SOL    HW114945   9.868   8.684   7.021  0.0539 -1.8635  2.6175
  962SOL    HW214946   9.983   8.786   7.076  0.6251 -0.1046 -1.6657
  963SOL     OW14947   5.885   3.778   2.392  0.7866  0.0202 -0.4275
  963SOL    HW114948   5.892   3.875   2.368 -0.3073  0.3503  0.5271
  963SOL    HW214949   5.816   3.734   2.336 -0.1910  0.2814  0.5528
  964SOL     OW14950   7.475   3.619   0.580  0.1906  0.4414  0.2336
  964SOL    HW114951   7.430   3.631   0.492 -0.7653  1.0114  0.7909
  964SOL    HW214952   7.456   3.527   0.615  0.5139  0.2395 -0.1208
  965SOL     OW14953   4.929   4.116   7.103  0.0434 -0.3670  0.1284
  965SOL    HW114954   4.938   4.112   7.003 -0.3205 -2.4496  0.1572
  965SOL    HW214955   4.855   4.179   7.127 -1.6206 -1.8150 -1.0421
  966SOL     OW14956   7.093   1.117   4.885 -0.8172  0.1356  0.3846
  966SOL    HW114957   7.171   1.072   4.842  0.6645  0.9381  2.1777
  966SOL    HW214958   7.061   1.061   4.961  0.0917  1.3502  1.6856
  967SOL     OW14959   1.715   8.548   5.981  0.0511  0.1189  1.2948
  967SOL    HW114960   1.636   8.605   5.954  0.5546  0.2283  0.0048
  967SOL    HW214961   1.698   8.509   6.071 -1.9478 -0.6939  0.5964
  968SOL     OW14962   2.478   4.847   5.764 -0.3910  0.0140 -0.0473
  968SOL    HW114963   2.452   4.824   5.670  1.2935  0.4271 -0.6395
  968SOL    HW214964   2.484   4.947   5.773 -0.5864 -0.0226  0.5116
  969SOL     OW14965   4.991   0.654   8.630 -0.1365  0.1842  0.0767
  969SOL    HW114966   4.969   0.752   8.627  0.6988  0.3592 -0.5737
  969SOL    HW214967   5.056   0.637   8.704  2.1708  0.6611 -1.7416
  970SOL     OW14968   1.706   4.265   2.173  0.1529 -0.2127 -0.2842
  970SOL    HW114969   1.721   4.320   2.090 -1.1738  1.2826  0.4304
  970SOL    HW214970   1.644   4.314   2.234  1.1942 -1.2553  1.6505
  971SOL     OW14971   8.366   4.256   8.046 -0.1713  0.2870 -0.2834
  971SOL    HW114972   8.297   4.328   8.044  0.2952  0.8125  1.7476
  971SOL    HW214973   8.451   4.289   8.005 -0.7905 -0.0153 -1.8233
  972SOL     OW14974   2.269   7.726   8.223 -0.0998  0.2544 -0.0910
  972SOL    HW114975   2.348   7.765   8.270  0.0161 -0.2984  0.1770
  972SOL    HW214976   2.299   7.667   8.149 -0.2967  2.0828 -1.6597
  973SOL     OW14977   9.944   8.945   8.035 -0.3002 -0.3517  0.0660
  973SOL    HW114978  10.022   8.935   7.974  0.8778  2.3892  1.0148
  973SOL    HW214979   9.900   9.034   8.018 -1.1673 -0.4295  1.8076
  974SOL     OW14980   8.468   4.260   2.375  0.2060 -0.2815 -0.3990
  974SOL    HW114981   8.566   4.276   2.385  0.3250 -1.6036  0.8724
  974SOL    HW214982   8.419   4.347   2.376  1.1747  0.2814  1.5516
  975SOL     OW14983   9.896   8.316   8.624 -0.0827  0.3017  0.2686
  975SOL    HW114984   9.994   8.322   8.645  0.4814 -0.1972 -2.0623
  975SOL    HW214985   9.866   8.402   8.582 -0.0500 -0.4490 -1.3121
  976SOL     OW14986   1.422   4.562   1.136 -0.4493  0.0062 -0.6939
  976SOL    HW114987   1.352   4.551   1.066  0.4298 -0.8876 -1.4557
  976SOL    HW214988   1.512   4.568   1.092  0.1831 -1.3235  0.4034
  977SOL     OW14989   2.664   9.823   8.422 -0.2853 -0.4274  0.1572
  977SOL    HW114990   2.665   9.918   8.455  0.0572 -1.0654  2.0626
  977SOL    HW214991   2.734   9.771   8.471  0.0437 -1.4946 -1.4274
  978SOL     OW14992   9.416   4.875   2.940  0.2344 -0.0009  0.0090
  978SOL    HW114993   9.475   4.812   2.890 -1.1387 -0.8018 -0.6100
  978SOL    HW214994   9.406   4.844   3.035 -2.4783 -2.1720 -0.9232
  979SOL     OW14995   8.572   4.259   7.581  0.2179 -0.0047  0.3195
  979SOL    HW114996   8.568   4.169   7.626 -1.6149  1.1440  2.5716
  979SOL    HW214997   8.664   4.274   7.545  0.9401 -2.1948  1.1679
  980SOL     OW14998   3.624   2.299   3.198 -0.2716 -0.1686 -0.2033
  980SOL    HW114999   3.645   2.291   3.100 -1.1533 -0.2599 -0.3870
  980SOL    HW215000   3.694   2.251   3.251 -1.1024 -2.1972 -0.9027
  981SOL     OW15001   8.850   1.240   0.381  0.7292 -0.2486 -0.2356
  981SOL    HW115002   8.821   1.275   0.470  0.8863 -0.8090  0.0416
  981SOL    HW215003   8.900   1.311   0.331 -1.9697  1.0786 -1.1459
  982SOL     OW15004   3.420   3.577   5.401  0.2929  0.5429 -0.1606
  982SOL    HW115005   3.515   3.601   5.421 -0.4163  2.0127  1.5219
  982SOL    HW215006   3.364   3.660   5.400 -1.5126 -0.6055  1.8604
  983SOL     OW15007   0.123   4.122   8.513  0.0014 -0.4509  0.3120
  983SOL    HW115008   0.133   4.186   8.437 -0.1131  2.0763  2.3578
  983SOL    HW215009   0.026   4.109   8.533  0.0007 -1.8638 -0.5741
  984SOL     OW15010   2.325   3.061   9.120 -0.1839  0.0406 -0.1254
  984SOL    HW115011   2.283   3.135   9.068 -0.2541  1.3863  1.7885
  984SOL    HW215012   2.415   3.040   9.081 -0.5663  0.4950 -1.2582
  985SOL     OW15013   7.399   2.337   3.903  0.2793  0.6167  0.0128
  985SOL    HW115014   7.310   2.323   3.946 -0.4859  0.8349 -1.4647
  985SOL    HW215015   7.463   2.267   3.934 -0.7265 -0.2180  0.2302
  986SOL     OW15016   4.808   2.785   0.424  0.4319 -0.1739  0.6343
  986SOL    HW115017   4.804   2.865   0.365 -0.4219 -1.1968 -0.7316
  986SOL    HW215018   4.744   2.795   0.500 -0.9321 -0.2859 -0.4824
  987SOL     OW15019   9.839   6.728   1.985 -0.0637 -0.6235  0.2568
  987SOL    HW115020   9.761   6.668   1.968 -1.4951  1.1274  0.5139
  987SOL    HW215021   9.862   6.778   1.901  1.4198 -1.8430 -0.0841
  988SOL     OW15022   2.669   5.486   3.493 -0.5387  0.0871  0.0628
  988SOL    HW115023   2.762   5.465   3.462  0.2664 -2.0437  3.6306
  988SOL    HW215024   2.612   5.405   3.482 -0.9696  0.2059  1.3872
  989SOL     OW15025   9.675   0.386   2.011  0.0634  0.5303 -0.3430
  989SOL    HW115026   9.735   0.395   2.090  0.2415 -1.6488 -0.1946
  989SOL    HW215027   9.585   0.425   2.032  0.0050 -0.3215  1.0765
  990SOL     OW15028   9.765   6.821   0.790 -0.3441  0.1790  0.3028
  990SOL    HW115029   9.693   6.871   0.838 -0.4834  0.7924 -0.5363
  990SOL    HW215030   9.730   6.791   0.700 -0.3585 -1.6450  0.8892
  991SOL     OW15031   2.486   5.302   8.697  0.8113 -0.5075  0.0780
  991SOL    HW115032   2.471   5.219   8.750  0.6311  0.9265  2.3584
  991SOL    HW215033   2.583   5.326   8.699  0.9915 -1.0694 -1.2486
  992SOL     OW15034   6.926   6.676   1.711 -0.2979  0.1422 -0.0803
  992SOL    HW115035   6.854   6.610   1.688 -1.9917  1.3706  1.4852
  992SOL    HW215036   7.000   6.629   1.758 -1.5129 -0.6943  1.0558
  993SOL     OW15037   3.721   5.548   7.890 -0.3511  0.0155 -0.0177
  993SOL    HW115038   3.671   5.483   7.833 -0.2034  0.9504 -1.2322
  993SOL    HW215039   3.751   5.625   7.834  0.0834  0.7895  1.2649
  994SOL     OW15040   3.988   1.660   6.080 -0.2748  0.0540  0.6735
  994SOL    HW115041   3.900   1.675   6.033 -0.2869 -1.9315 -0.0186
  994SOL    HW215042   3.985   1.571   6.127  1.3381  0.0091  0.7035
  995SOL     OW15043   0.136   3.859   7.642  0.2107  0.2935  0.4786
  995SOL    HW115044   0.215   3.910   7.608 -0.0363  1.2595  1.3239
  995SOL    HW215045   0.128   3.872   7.741  0.8453 -2.3706  0.9121
  996SOL     OW15046   9.678   6.379   9.064  0.5509 -0.0337 -0.5631
  996SOL    HW115047   9.602   6.434   9.097  1.7947  1.5081 -0.1627
  996SOL    HW215048   9.671   6.286   9.100  1.2022  1.2575  3.1011
  997SOL     OW15049   6.869   8.971   7.970  0.0597 -0.7545  0.1869
  997SOL    HW115050   6.830   8.879   7.961 -0.8382 -0.5101  1.4973
  997SOL    HW215051   6.929   8.973   8.051 -2.3436  0.6413  1.9825
  998SOL     OW15052   3.849   8.321   9.278 -0.2163 -0.1438 -0.4929
  998SOL    HW115053   3.877   8.225   9.276  0.3999  0.0572 -1.7240
  998SOL    HW215054   3.792   8.341   9.198 -0.9662  0.3347  0.1494
  999SOL     OW15055   7.886   0.006   4.122  0.3713 -0.0450  0.1169
  999SOL    HW115056   7.853   0.070   4.192 -3.0770 -0.8329 -0.6716
  999SOL    HW215057   7.883   0.051   4.033  0.2803 -0.5112 -0.1143
 1000SOL     OW15058   6.892   5.529   6.801  0.0811 -0.2678  0.4889
 1000SOL    HW115059   6.933   5.519   6.892 -0.9467 -0.2845  0.9584
 1000SOL    HW215060   6.964   5.545   6.734  0.6873  2.4638  1.7008
 1001SOL     OW15061   4.707   9.054   8.330 -0.3391 -0.5166 -0.0604
 1001SOL    HW115062   4.780   9.036   8.264 -1.1280 -0.2530 -1.0248
 1001SOL    HW215063   4.630   8.993   8.313 -1.5314  1.1889 -0.9714
 1002SOL     OW15064   4.611   3.992   0.660 -0.2486  0.5695 -0.0400
 1002SOL    HW115065   4.611   4.075   0.606  1.6550  0.5060 -0.1664
 1002SOL    HW215066   4.649   4.011   0.751  0.1013 -0.1227 -0.0341
 1003SOL     OW15067   8.882   3.228   3.910  0.6436 -0.5361  0.4901
 1003SOL    HW115068   8.799   3.180   3.883  0.5273 -0.8276  1.3485
 1003SOL    HW215069   8.929   3.262   3.828 -0.0501 -0.8095 -0.0288
 1004SOL     OW15070   6.589   1.910   9.273  0.0162 -0.0035  0.2020
 1004SOL    HW115071   6.514   1.976   9.280 -1.7758 -2.1435  1.6154
 1004SOL    HW215072   6.597   1.859   9.358 -0.4252 -3.4650 -1.7241
 1005SOL     OW15073   4.597   4.125   7.287 -0.0666  1.1058  0.0277
 1005SOL    HW115074   4.589   4.114   7.386 -1.0631 -0.3218 -0.2002
 1005SOL    HW215075   4.631   4.040   7.247 -0.5167  1.3809 -0.9455
 1006SOL     OW15076   3.678   2.390   9.779 -0.0775 -0.3181  0.4013
 1006SOL    HW115077   3.599   2.334   9.805  1.8048 -2.7475  1.0879
 1006SOL    HW215078   3.650   2.457   9.710 -2.5804 -1.5785  0.1257
 1007SOL     OW15079   9.946   1.879   9.165  0.5429 -0.8468 -0.7999
 1007SOL    HW115080   9.918   1.792   9.126 -2.3698 -0.2533 -0.1564
 1007SOL    HW215081   9.882   1.950   9.137  0.9533  0.4496  1.4285
 1008SOL     OW15082   1.068   0.593   0.448  0.3241  0.3065 -0.0609
 1008SOL    HW115083   1.075   0.622   0.544  1.0614  1.6308 -0.5025
 1008SOL    HW215084   1.160   0.590   0.408  0.3150 -2.9755  0.0442
 1009SOL     OW15085   5.582   5.220   0.573 -0.8572  0.2804  0.1184
 1009SOL    HW115086   5.627   5.281   0.508  1.7514  0.4051  1.9671
 1009SOL    HW215087   5.606   5.125   0.552 -0.6648  0.2657  0.4033
 1010SOL     OW15088   1.053   1.014   1.204 -0.5897  0.0484  0.3054
 1010SOL    HW115089   1.032   1.085   1.271  0.5463 -1.3913  2.2469
 1010SOL    HW215090   1.149   0.988   1.211 -1.1337 -2.1734  0.1761
 1011SOL     OW15091   0.282   0.631   2.385 -0.6989 -0.5718 -0.0679
 1011SOL    HW115092   0.221   0.688   2.330 -0.4591  0.5371  0.7738
 1011SOL    HW215093   0.350   0.690   2.430 -1.7610 -1.2348  2.5312
 1012SOL     OW15094   8.414   7.586   1.734  0.4534 -0.3898 -0.1181
 1012SOL    HW115095   8.344   7.651   1.705  0.8807 -0.1917 -0.7144
 1012SOL    HW215096   8.383   7.493   1.716  0.3051 -0.3072 -0.2955
 1013SOL     OW15097   3.269   0.309   7.369 -0.3225  0.4992 -0.3017
 1013SOL    HW115098   3.257   0.403   7.402  1.4462 -0.1400  2.3519
 1013SOL    HW215099   3.340   0.307   7.299  0.3679  1.0180  0.3702
 1014SOL     OW15100   3.127   9.712   5.927 -0.3886  0.1145  0.0925
 1014SOL    HW115101   3.097   9.800   5.888 -2.2710 -0.8718 -0.7589
 1014SOL    HW215102   3.140   9.646   5.853 -2.5151 -1.3477  0.9792
 1015SOL     OW15103   6.870   7.299   5.210 -0.1484 -0.4500 -0.0828
 1015SOL    HW115104   6.916   7.325   5.125 -0.3877 -0.7792 -0.3161
 1015SOL    HW215105   6.771   7.297   5.195 -0.1715 -0.8695  0.1023
 1016SOL     OW15106   2.980   8.645   0.965  0.9519  0.1374  0.1649
 1016SOL    HW115107   2.964   8.713   0.893 -0.4943  0.0682  0.3882
 1016SOL    HW215108   2.980   8.691   1.054  0.2723 -0.1015  0.2935
 1017SOL     OW15109   8.151   2.377   2.178 -0.5242  0.2936  0.0580
 1017SOL    HW115110   8.162   2.444   2.105 -1.7110 -1.4058 -1.7130
 1017SOL    HW215111   8.186   2.288   2.148  0.7125 -0.0177  2.2560
 1018SOL     OW15112   5.757   1.026   6.863 -0.2098 -0.0191  0.3248
 1018SOL    HW115113   5.836   0.987   6.911  0.3576  0.4714 -0.2083
 1018SOL    HW215114   5.768   1.125   6.854 -0.1010 -0.1548 -1.1852
 1019SOL     OW15115   3.230   1.948   4.845  0.1006 -0.3254  0.1842
 1019SOL    HW115116   3.141   1.904   4.847 -0.3937  0.6305 -0.0628
 1019SOL    HW215117   3.298   1.885   4.807 -0.3591 -1.2300  0.8400
 1020SOL     OW15118   0.315   2.137   9.852 -0.0568 -0.0658  0.3468
 1020SOL    HW115119   0.223   2.133   9.813  0.0217 -0.4439  0.2050
 1020SOL    HW215120   0.379   2.169   9.782  0.2183 -1.5128 -0.0628
 1021SOL     OW15121   4.602   9.583   8.825  0.1073 -0.5887 -0.4031
 1021SOL    HW115122   4.670   9.521   8.787  2.3273  0.2359  2.0696
 1021SOL    HW215123   4.648   9.658   8.873 -2.5300  0.5847  0.3942
 1022SOL     OW15124   1.608   0.545   9.829 -0.2720 -0.2592  0.7880
 1022SOL    HW115125   1.705   0.524   9.824  0.0745  1.2817  0.8159
 1022SOL    HW215126   1.594   0.644   9.817 -1.8822 -0.5548  0.0376
 1023SOL     OW15127   2.686   1.885   2.578 -0.4747  0.0248  0.0039
 1023SOL    HW115128   2.670   1.949   2.502  0.7766  1.6664  1.0818
 1023SOL    HW215129   2.605   1.883   2.636 -0.3160  1.1161  0.2835
 1024SOL     OW15130   2.034   5.125   7.577 -0.0736  0.0271 -1.0247
 1024SOL    HW115131   2.037   5.061   7.500  1.1571  0.3449 -1.2540
 1024SOL    HW215132   2.083   5.209   7.552  0.7009 -0.0312  0.2422
 1025SOL     OW15133   5.063   4.474   8.955 -0.7441  0.6300  1.3256
 1025SOL    HW115134   5.142   4.418   8.979 -0.0015  1.7375  1.4511
 1025SOL    HW215135   5.023   4.440   8.870  0.1916  0.4122  0.9707
 1026SOL     OW15136   9.153   3.217   6.258  0.6705  0.2247  0.0735
 1026SOL    HW115137   9.056   3.228   6.235  0.5969  1.3839  0.8694
 1026SOL    HW215138   9.206   3.199   6.175  0.2497  2.9930 -0.8522
 1027SOL     OW15139   1.684   2.315   3.495  0.0583 -1.1430 -0.0992
 1027SOL    HW115140   1.758   2.377   3.470  0.9171 -1.2755  2.0210
 1027SOL    HW215141   1.609   2.367   3.536  0.1184 -1.3361  0.2527
 1028SOL     OW15142   9.618   6.971   5.705  1.0915  0.3609  0.5826
 1028SOL    HW115143   9.563   6.968   5.622  1.0699  0.6029  0.5859
 1028SOL    HW215144   9.595   6.893   5.763 -1.0984  1.8151  1.7370
 1029SOL     OW15145   2.223   7.210   9.149  0.9322 -0.1759 -0.5101
 1029SOL    HW115146   2.269   7.185   9.234  1.4374 -0.2208 -0.7920
 1029SOL    HW215147   2.170   7.293   9.163  0.8723 -0.2814 -0.1034
 1030SOL     OW15148   6.718   0.029   3.793  0.7480 -0.1774 -0.1134
 1030SOL    HW115149   6.628   0.072   3.792  0.9599  0.3330  1.2974
 1030SOL    HW215150   6.779   0.080   3.732  0.4365  0.2764 -0.0517
 1031SOL     OW15151   2.596   3.170   8.353  0.1081  0.6363  0.2835
 1031SOL    HW115152   2.666   3.146   8.286 -0.7567 -0.6976 -0.1627
 1031SOL    HW215153   2.514   3.115   8.338 -1.5158  3.0254  0.0441
 1032SOL     OW15154   8.494   9.245   0.417  0.6237  0.1487 -0.2458
 1032SOL    HW115155   8.527   9.178   0.484 -0.0225  1.6075  1.5746
 1032SOL    HW215156   8.403   9.277   0.444  0.1646  0.4156 -2.0852
 1033SOL     OW15157   7.103   2.123   4.345 -0.0280  0.0524  0.2684
 1033SOL    HW115158   7.036   2.082   4.407  0.0519 -1.3032 -0.5271
 1033SOL    HW215159   7.070   2.117   4.251  0.7278  0.3474 -0.0209
 1034SOL     OW15160   6.823   1.806   1.789  0.1706 -0.1172 -0.4373
 1034SOL    HW115161   6.899   1.824   1.852  1.6059  0.5729 -2.2937
 1034SOL    HW215162   6.756   1.748   1.833  1.1542  0.3375  1.7120
 1035SOL     OW15163   2.561   0.379   6.274 -0.3711  0.1985  0.6242
 1035SOL    HW115164   2.555   0.358   6.371  1.5357 -0.5508  0.6009
 1035SOL    HW215165   2.596   0.300   6.224 -0.4711  0.8723 -0.5442
 1036SOL     OW15166   3.675   5.497   5.860  0.4009  0.0589 -0.2474
 1036SOL    HW115167   3.740   5.421   5.855  1.3405  0.9576 -1.8747
 1036SOL    HW215168   3.585   5.465   5.828  0.2266 -0.9512  1.1945
 1037SOL     OW15169   8.108   1.235   4.253 -0.6099 -0.2197  1.0070
 1037SOL    HW115170   8.092   1.137   4.238 -0.2976 -0.8056  4.1044
 1037SOL    HW215171   8.147   1.276   4.171 -1.5001 -2.5158 -0.6149
 1038SOL     OW15172   7.385   9.908   6.639  0.1753 -0.4124  0.1955
 1038SOL    HW115173   7.469   9.884   6.687 -0.6205 -0.6917  1.4858
 1038SOL    HW215174   7.366   9.840   6.568  1.3459 -0.0185 -0.4939
 1039SOL     OW15175   3.789   4.449   8.784  0.2670 -0.1688 -0.1733
 1039SOL    HW115176   3.841   4.522   8.739 -0.0329  0.8167  1.0398
 1039SOL    HW215177   3.825   4.360   8.756  2.2275  0.4919  0.1654
 1040SOL     OW15178   8.469   4.721   8.657  0.1299 -0.0594  0.3835
 1040SOL    HW115179   8.537   4.709   8.728 -0.6487  0.0586  1.1559
 1040SOL    HW215180   8.399   4.785   8.688  0.3788  0.8638 -0.9178
 1041SOL     OW15181   5.317   8.464   6.918  0.2270 -0.1237  0.1244
 1041SOL    HW115182   5.402   8.413   6.907  0.1621 -0.1219 -0.3583
 1041SOL    HW215183   5.337   8.556   6.952  0.2649 -0.8655  2.1720
 1042SOL     OW15184   2.128   9.449   9.244  0.8153 -0.5999 -0.4733
 1042SOL    HW115185   2.205   9.430   9.305  1.4344 -1.7530 -1.5590
 1042SOL    HW215186   2.113   9.370   9.185 -0.9660 -0.2294 -0.5468
 1043SOL     OW15187   8.078   4.526   9.028 -0.5922  0.5138 -0.2420
 1043SOL    HW115188   8.093   4.483   9.117  0.2623  2.8286  0.7494
 1043SOL    HW215189   8.132   4.478   8.958  2.1505  1.3766  1.2369
 1044SOL     OW15190   3.474   4.664   2.695  0.5400  0.2165  0.1923
 1044SOL    HW115191   3.552   4.717   2.659 -0.3827  2.0481  0.8466
 1044SOL    HW215192   3.453   4.693   2.788 -0.4191 -0.8572  0.3294
 1045SOL     OW15193   6.376   9.437   7.963  0.0140 -0.0775  0.0601
 1045SOL    HW115194   6.475   9.446   7.975 -0.1184  2.0283 -0.2566
 1045SOL    HW215195   6.333   9.527   7.969 -1.6954 -0.7478 -1.4940
 1046SOL     OW15196   4.251   2.531   8.416 -0.4777  0.7597 -0.3623
 1046SOL    HW115197   4.153   2.551   8.429 -0.3522  1.1483  0.0112
 1046SOL    HW215198   4.264   2.432   8.409 -0.5485  0.4591  2.8753
 1047SOL     OW15199   1.888   1.324   5.926 -0.1694  0.2363  0.4985
 1047SOL    HW115200   1.866   1.233   5.962 -1.6794  0.7146  0.8014
 1047SOL    HW215201   1.812   1.386   5.943  1.1814  1.7799  1.0253
 1048SOL     OW15202   9.541   1.273   2.535 -0.3651  0.2700  0.2259
 1048SOL    HW115203   9.460   1.268   2.477 -0.7983 -1.4424  0.9361
 1048SOL    HW215204   9.591   1.358   2.516 -0.6518 -0.1205 -2.3993
 1049SOL     OW15205   0.702   3.751   0.522  0.5339  0.0152 -0.3292
 1049SOL    HW115206   0.747   3.662   0.525  0.9639  0.2549  0.7117
 1049SOL    HW215207   0.616   3.744   0.472  1.0300 -0.7710 -1.0653
 1050SOL     OW15208   1.423   5.726   5.644  0.0136  0.2854  0.1747
 1050SOL    HW115209   1.409   5.758   5.550 -0.2420 -0.1691  0.0610
 1050SOL    HW215210   1.356   5.656   5.666 -0.3401  0.8584  0.9199
 1051SOL     OW15211   1.454   0.311   8.432 -0.3533 -0.4766  0.2429
 1051SOL    HW115212   1.544   0.278   8.406 -0.1025  0.7466 -0.5041
 1051SOL    HW215213   1.384   0.247   8.401  0.1040 -0.2215 -1.3485
 1052SOL     OW15214   9.260   4.712   5.963  0.1453 -0.1282 -0.1563
 1052SOL    HW115215   9.173   4.664   5.948 -0.2920  0.5713  0.1092
 1052SOL    HW215216   9.272   4.780   5.890 -0.1986  0.7268  0.5800
 1053SOL     OW15217   3.140   2.373   4.791  0.0575 -0.0732  0.6906
 1053SOL    HW115218   3.211   2.425   4.744 -0.5498  0.3697  0.2613
 1053SOL    HW215219   3.115   2.419   4.877  0.5247 -0.4068  1.0089
 1054SOL     OW15220   3.265   0.159   2.372  0.1585  0.0352 -0.3894
 1054SOL    HW115221   3.319   0.243   2.375 -0.1498  0.2415 -0.6892
 1054SOL    HW215222   3.203   0.161   2.294 -1.6451  0.6198  1.0155
 1055SOL     OW15223   3.264   4.737   0.935 -0.4059 -0.0394  0.8212
 1055SOL    HW115224   3.217   4.757   1.021  1.1250 -0.4917  1.7871
 1055SOL    HW215225   3.224   4.656   0.893 -2.4644  1.3215  0.0907
 1056SOL     OW15226   0.812   3.994   2.070 -0.3630  0.4131 -0.1872
 1056SOL    HW115227   0.852   4.055   2.002 -2.8876  1.1661 -1.0824
 1056SOL    HW215228   0.797   3.903   2.029 -2.4422  1.0359 -0.9014
 1057SOL     OW15229   0.631   8.098   0.239  0.2303 -0.3351 -0.3967
 1057SOL    HW115230   0.563   8.169   0.218 -0.6039 -1.0285 -0.0879
 1057SOL    HW215231   0.590   8.008   0.225  1.4301 -0.7629 -1.2452
 1058SOL     OW15232   0.762   7.680   1.535  0.0441  0.1457  0.6237
 1058SOL    HW115233   0.760   7.725   1.445  0.0345 -1.6879 -0.3051
 1058SOL    HW215234   0.760   7.581   1.523 -1.0149 -0.1081  2.6912
 1059SOL     OW15235   0.829   8.992   2.719  0.0630  0.5400 -0.6494
 1059SOL    HW115236   0.860   9.017   2.627 -1.4573 -1.0183 -1.6196
 1059SOL    HW215237   0.729   8.995   2.722 -0.0388 -2.2957  0.0655
 1060SOL     OW15238   1.896   1.125   8.504  0.4361  0.2376  0.2899
 1060SOL    HW115239   1.935   1.168   8.585  0.2055 -1.2118  1.1956
 1060SOL    HW215240   1.968   1.079   8.453  0.2963 -0.5267  0.7578
 1061SOL     OW15241   1.631   2.203   0.942  0.0945  0.0551  0.0828
 1061SOL    HW115242   1.717   2.193   0.891 -0.4079  1.3578 -1.0482
 1061SOL    HW215243   1.554   2.198   0.878 -0.5032  2.7689  0.5242
 1062SOL     OW15244   3.171   1.174   4.296 -0.2874  0.1793  0.0894
 1062SOL    HW115245   3.136   1.263   4.322  1.3595  0.6251  0.8114
 1062SOL    HW215246   3.097   1.107   4.299 -1.5398  1.5210 -0.5183
 1063SOL     OW15247   2.220   9.961   5.453  0.3565 -0.0725 -0.4848
 1063SOL    HW115248   2.122   9.979   5.453  0.2204 -0.8014 -0.1238
 1063SOL    HW215249   2.246   9.917   5.539  1.0884  0.6118 -0.3536
 1064SOL     OW15250   5.670   7.809   5.667 -0.4825  0.3370 -0.3023
 1064SOL    HW115251   5.724   7.828   5.585 -1.5123 -0.4441 -1.1729
 1064SOL    HW215252   5.713   7.735   5.719  1.7771  2.7787  1.4222
 1065SOL     OW15253   4.690   1.564   9.301  0.2378  0.2944 -0.4219
 1065SOL    HW115254   4.711   1.662   9.297  0.7010  0.2151 -0.0063
 1065SOL    HW215255   4.628   1.540   9.226 -1.9635  1.3938  1.0302
 1066SOL     OW15256   6.884   0.556   1.373  0.6299 -0.0948  0.4724
 1066SOL    HW115257   6.850   0.511   1.291  1.7569 -0.4975  0.2185
 1066SOL    HW215258   6.840   0.645   1.383  1.9637  0.8359 -1.6629
 1067SOL     OW15259   9.541   2.939   2.000 -0.0247 -0.1563 -0.5179
 1067SOL    HW115260   9.578   2.856   1.960 -1.6848 -1.3760  0.3815
 1067SOL    HW215261   9.568   2.945   2.096 -2.6966 -1.4725  0.3690
 1068SOL     OW15262   2.049   0.893   8.352 -0.4393 -0.5273 -0.2862
 1068SOL    HW115263   2.065   0.847   8.265 -0.2764  0.3583 -0.7263
 1068SOL    HW215264   1.953   0.885   8.377 -0.2544 -1.8541  0.0776
 1069SOL     OW15265   9.269   9.213   2.542 -0.3840 -0.2425 -0.8342
 1069SOL    HW115266   9.197   9.256   2.597  0.4563 -1.9651  1.7038
 1069SOL    HW215267   9.233   9.132   2.496 -0.1796 -0.9081  0.1617
 1070SOL     OW15268   1.411   7.041   4.964 -0.0893 -0.0040 -0.0632
 1070SOL    HW115269   1.377   7.133   4.942 -0.4723  0.1597  1.1496
 1070SOL    HW215270   1.356   7.002   5.038  0.8970 -0.6778  0.3334
 1071SOL     OW15271   9.059   9.341   3.986 -0.0075 -0.0703  0.1751
 1071SOL    HW115272   9.040   9.434   4.018  0.0101  0.3498 -1.0091
 1071SOL    HW215273   9.129   9.344   3.915  0.4494 -1.0554  0.5766
 1072SOL     OW15274   1.139   9.107   2.370 -0.1015 -0.3855 -0.0582
 1072SOL    HW115275   1.112   9.197   2.334 -1.5617 -1.0632 -0.6905
 1072SOL    HW215276   1.239   9.102   2.376  0.1294  0.2926 -2.6162
 1073SOL     OW15277   5.671   1.603   1.369  0.7820  0.7868 -0.0228
 1073SOL    HW115278   5.682   1.603   1.468 -0.3184 -1.7694  0.1352
 1073SOL    HW215279   5.574   1.597   1.345  1.0604  0.8894 -1.2465
 1074SOL     OW15280   4.443   9.917   3.830  0.0781 -0.2262 -0.3067
 1074SOL    HW115281   4.441  10.015   3.811  0.9304 -0.2045 -0.2876
 1074SOL    HW215282   4.411   9.867   3.749 -1.5090  0.1103  0.0957
 1075SOL     OW15283   1.202   9.824   6.395  0.1700  0.3804 -0.1194
 1075SOL    HW115284   1.285   9.769   6.401 -0.7781 -1.1189 -0.5246
 1075SOL    HW215285   1.202   9.875   6.309  0.0273 -0.6662 -0.7424
 1076SOL     OW15286   7.905   5.645   3.012 -0.4076  0.3338 -0.1263
 1076SOL    HW115287   7.917   5.618   3.107 -0.0388 -0.4473 -0.3838
 1076SOL    HW215288   7.862   5.571   2.961  1.7516 -0.3075 -1.1151
 1077SOL     OW15289   2.445   0.448   0.711  0.4514 -0.5618  0.6549
 1077SOL    HW115290   2.366   0.469   0.655  0.2640 -0.9588  0.7659
 1077SOL    HW215291   2.463   0.524   0.773  1.5289  0.4808 -0.9187
 1078SOL     OW15292   9.041   5.670   4.437  0.0665 -0.6617 -0.4707
 1078SOL    HW115293   9.092   5.756   4.435  0.5623 -0.8925  1.1446
 1078SOL    HW215294   9.090   5.601   4.383 -0.2261  0.0021 -1.5961
 1079SOL     OW15295   1.454   0.955   1.687  0.1300  0.5316  0.0476
 1079SOL    HW115296   1.404   1.029   1.733  0.2376 -0.6383  2.0703
 1079SOL    HW215297   1.546   0.948   1.725  1.6385  2.1572 -3.1290
 1080SOL     OW15298   4.143   1.824   8.531  0.0938 -0.2433  0.0849
 1080SOL    HW115299   4.082   1.886   8.579 -1.3200 -1.1618 -0.4863
 1080SOL    HW215300   4.089   1.761   8.474  1.5509 -1.2420 -0.2302
 1081SOL     OW15301   7.413   3.160   9.992  0.2429  0.2421  0.1132
 1081SOL    HW115302   7.407   3.123  10.085  2.1856  1.4589  0.7663
 1081SOL    HW215303   7.454   3.093   9.931  1.7393  0.5282  0.8029
 1082SOL     OW15304   3.209   1.100   6.605 -1.1829  0.8444 -0.0653
 1082SOL    HW115305   3.270   1.029   6.571 -1.9814  0.1047  0.0468
 1082SOL    HW215306   3.226   1.115   6.703 -0.3723  1.4738 -0.2926
 1083SOL     OW15307   7.817   1.870   3.871  0.2998 -0.2526 -0.6177
 1083SOL    HW115308   7.869   1.809   3.931 -1.1598 -1.3887 -0.4669
 1083SOL    HW215309   7.834   1.965   3.896  0.3947 -0.6909  1.0308
 1084SOL     OW15310   3.602   1.711   0.447  0.5123 -0.2050  0.4097
 1084SOL    HW115311   3.596   1.656   0.364  2.1541 -2.0085  1.4461
 1084SOL    HW215312   3.515   1.758   0.462 -0.0999 -0.5855 -1.8312
 1085SOL     OW15313   1.198   2.047   2.660 -0.3060  0.2094 -0.3691
 1085SOL    HW115314   1.156   2.137   2.661 -0.3017  0.2413 -1.5622
 1085SOL    HW215315   1.130   1.978   2.686 -0.0881  0.6238  1.3620
 1086SOL     OW15316   0.720   0.058   6.684 -0.0147  0.2212  0.0119
 1086SOL    HW115317   0.673   0.043   6.597  0.8242  0.5134 -0.4919
 1086SOL    HW215318   0.717   0.155   6.708 -0.7457  0.0618  0.6025
 1087SOL     OW15319   2.494   9.542   4.103 -0.3500 -0.3733  0.1971
 1087SOL    HW115320   2.395   9.554   4.104 -0.3092  0.8778 -3.3211
 1087SOL    HW215321   2.535   9.595   4.177 -2.1619  0.9868  0.2539
 1088SOL     OW15322   4.516   0.435   3.836 -0.5604 -0.1286  0.1340
 1088SOL    HW115323   4.449   0.486   3.890 -0.2100 -0.3905  0.8158
 1088SOL    HW215324   4.602   0.485   3.832 -0.0718 -0.8659  1.1869
 1089SOL     OW15325   7.288   6.967   4.009  0.1579  0.2094 -0.0616
 1089SOL    HW115326   7.321   6.952   3.916 -0.2143 -2.3323  0.1751
 1089SOL    HW215327   7.331   6.901   4.071 -2.1502 -0.3775  0.9632
 1090SOL     OW15328   0.784   8.266   5.377  0.7374  0.0596 -0.5847
 1090SOL    HW115329   0.846   8.194   5.347  0.1014 -0.3375 -0.9511
 1090SOL    HW215330   0.768   8.258   5.475  1.4733  0.3280 -0.4395
 1091SOL     OW15331   0.777   0.401   4.838 -0.5748 -0.5525  0.4297
 1091SOL    HW115332   0.849   0.381   4.772 -0.8849  1.7975 -0.6679
 1091SOL    HW215333   0.807   0.474   4.899 -2.0936  0.6651 -0.2341
 1092SOL     OW15334   9.748   1.551   8.697  0.1910  0.5313  0.1249
 1092SOL    HW115335   9.795   1.463   8.708  1.4569  0.8688 -2.2438
 1092SOL    HW215336   9.684   1.564   8.772  2.6055 -0.7744  2.5013
 1093SOL     OW15337   4.116   5.754   7.385 -0.3196 -0.1754  0.0286
 1093SOL    HW115338   4.212   5.775   7.366 -0.2868  0.6013  1.0031
 1093SOL    HW215339   4.068   5.839   7.406 -0.7302 -0.8220  1.7026
 1094SOL     OW15340   2.347   4.780   7.362  0.7600 -0.2660 -0.4554
 1094SOL    HW115341   2.329   4.761   7.459 -0.1713 -3.2189 -1.1607
 1094SOL    HW215342   2.445   4.771   7.344  0.8647 -0.2415  0.0988
 1095SOL     OW15343   5.353   2.541   9.368  0.1462  0.1796 -0.4442
 1095SOL    HW115344   5.358   2.452   9.323 -1.3623 -0.1882  0.0656
 1095SOL    HW215345   5.321   2.528   9.462  0.5230  1.2114 -0.1705
 1096SOL     OW15346   3.958   8.521   3.708 -0.1551 -0.6132  0.1267
 1096SOL    HW115347   3.874   8.547   3.757  0.3837  0.3408  0.5468
 1096SOL    HW215348   3.946   8.538   3.611 -0.2520  0.0235  0.2508
 1097SOL     OW15349   7.494   2.400   0.909  0.3619  0.0315 -0.4982
 1097SOL    HW115350   7.403   2.407   0.950 -0.7367 -2.4037 -2.3869
 1097SOL    HW215351   7.562   2.436   0.973 -2.0234  3.2809  0.3751
 1098SOL     OW15352   4.983   0.649   2.369  0.1067  0.0084 -0.1632
 1098SOL    HW115353   4.887   0.663   2.393  0.5510  0.8659  1.1483
 1098SOL    HW215354   5.012   0.717   2.302 -0.3430 -0.6108 -1.0047
 1099SOL     OW15355   9.167   6.865   9.569  0.2131 -0.4960  0.4886
 1099SOL    HW115356   9.176   6.867   9.469 -0.9903 -0.0607  0.3857
 1099SOL    HW215357   9.241   6.920   9.610  0.3214 -0.1324 -0.1883
 1100SOL     OW15358   2.766   0.532   3.597 -0.4119  0.4073  0.6147
 1100SOL    HW115359   2.707   0.539   3.517 -1.1176  2.0008  1.2541
 1100SOL    HW215360   2.854   0.577   3.578 -0.6028  0.8404  0.7582
 1101SOL     OW15361   2.537   9.952   1.776 -0.1237  0.1184 -0.2255
 1101SOL    HW115362   2.545   9.866   1.826 -0.1888 -0.3485 -1.0159
 1101SOL    HW215363   2.447   9.957   1.732 -0.3264  0.8312  0.2596
 1102SOL     OW15364   2.545   6.535   5.616  0.0548  0.5213  0.7780
 1102SOL    HW115365   2.541   6.625   5.574  0.7144 -1.0734 -2.8950
 1102SOL    HW215366   2.639   6.512   5.638  0.1078  0.0199  0.0466
 1103SOL     OW15367   7.290   7.066   6.376  0.1770 -0.8105 -0.3438
 1103SOL    HW115368   7.200   7.029   6.397  0.7597 -3.2003 -1.8449
 1103SOL    HW215369   7.282   7.161   6.346 -1.6781 -0.6383  0.6439
 1104SOL     OW15370   1.080   0.633   0.728  0.1546 -0.1063 -0.3502
 1104SOL    HW115371   1.012   0.706   0.732 -0.1766 -0.5112  4.0978
 1104SOL    HW215372   1.167   0.665   0.764  0.0910 -1.7455  1.3788
 1105SOL     OW15373   9.431   6.221   8.686 -0.5812  0.2855 -0.3289
 1105SOL    HW115374   9.391   6.132   8.663 -0.5167 -0.6401  2.9341
 1105SOL    HW215375   9.531   6.216   8.675 -0.7240  0.4624 -1.7280
 1106SOL     OW15376   9.229   8.681   0.246 -0.0214 -0.8874 -0.1726
 1106SOL    HW115377   9.259   8.747   0.315 -0.1563 -0.0668 -0.8779
 1106SOL    HW215378   9.279   8.595   0.257  1.2525 -0.1526 -0.1748
 1107SOL     OW15379   2.442   6.377   9.617 -0.3300  0.4521  0.0069
 1107SOL    HW115380   2.503   6.439   9.666 -0.6263  0.8732 -0.1519
 1107SOL    HW215381   2.436   6.404   9.521 -0.4004  0.1279 -0.0834
 1108SOL     OW15382   0.102   1.775   9.771  0.0430  0.5769 -0.6502
 1108SOL    HW115383   0.142   1.685   9.791 -0.1045  0.5208 -0.6032
 1108SOL    HW215384   0.007   1.777   9.803  1.0214  1.8591  2.3078
 1109SOL     OW15385   8.420   5.187   8.079  0.0917 -0.0418 -0.0206
 1109SOL    HW115386   8.363   5.231   8.149 -1.2367  0.6287 -1.5061
 1109SOL    HW215387   8.452   5.255   8.014 -0.7504 -1.0167 -1.4927
 1110SOL     OW15388   8.999   1.016   0.457  0.2567  0.3163 -0.4362
 1110SOL    HW115389   8.939   1.091   0.429  1.5257  1.9221  0.9802
 1110SOL    HW215390   8.999   1.010   0.557  1.9586 -0.0437 -0.4436
 1111SOL     OW15391   5.159   9.840   8.758 -0.1162  0.0837 -0.2088
 1111SOL    HW115392   5.218   9.858   8.679  2.3294 -2.2023  1.0128
 1111SOL    HW215393   5.206   9.867   8.842 -0.5969 -2.1705  0.8289
 1112SOL     OW15394   3.241   4.566   6.374  0.0977 -0.1348  0.0695
 1112SOL    HW115395   3.236   4.659   6.338  0.2556 -0.6169 -1.2206
 1112SOL    HW215396   3.182   4.558   6.454 -0.1591  0.9952 -0.0052
 1113SOL     OW15397   7.238   8.191   6.537  0.1111  0.3541 -0.3839
 1113SOL    HW115398   7.201   8.139   6.459 -0.4035  1.0318 -0.5953
 1113SOL    HW215399   7.332   8.163   6.554 -0.4690 -1.3835  0.1377
 1114SOL     OW15400   5.779   9.875   6.821 -0.0765 -0.3399 -0.5492
 1114SOL    HW115401   5.696   9.851   6.871  1.1468 -0.1168  1.6535
 1114SOL    HW215402   5.816   9.792   6.778  0.4710 -1.1523  1.4237
 1115SOL     OW15403   3.292   6.207   2.589 -0.4070  0.2020  0.4352
 1115SOL    HW115404   3.317   6.111   2.577  1.0773  0.1247  3.4783
 1115SOL    HW215405   3.199   6.221   2.558 -0.8392 -2.3527  0.4343
 1116SOL     OW15406   9.200   9.713   2.357  0.5296 -0.1470 -0.3442
 1116SOL    HW115407   9.100   9.717   2.371 -0.0155  0.8411 -4.0991
 1116SOL    HW215408   9.241   9.795   2.396 -0.3395  0.2582 -0.2515
 1117SOL     OW15409   7.673   9.069   3.667  0.7204 -0.2692  0.1608
 1117SOL    HW115410   7.612   9.050   3.744  0.2099 -1.2194 -0.4650
 1117SOL    HW215411   7.765   9.086   3.701  0.3309  0.1277  1.0430
 1118SOL     OW15412   0.621   6.227   2.938  0.0920  0.0528  0.3993
 1118SOL    HW115413   0.692   6.263   2.878  1.9206 -2.6773  0.8178
 1118SOL    HW215414   0.553   6.176   2.885  0.5966 -0.6191  0.3822
 1119SOL     OW15415   1.681   4.493   6.643 -0.2503  0.1297 -0.1789
 1119SOL    HW115416   1.753   4.427   6.620  1.0270  1.1619  0.7660
 1119SOL    HW215417   1.597   4.470   6.594  0.5158 -1.5247 -0.7322
 1120SOL     OW15418   5.664   1.340   3.445  0.0517 -0.6236  0.6339
 1120SOL    HW115419   5.675   1.242   3.427 -2.0777 -0.7374 -0.0815
 1120SOL    HW215420   5.637   1.387   3.361 -0.7015  0.2915  1.3788
 1121SOL     OW15421   5.087   9.792   1.801  0.5241 -1.4875  0.2590
 1121SOL    HW115422   5.126   9.882   1.820 -0.6246 -0.8281 -0.4368
 1121SOL    HW215423   5.074   9.742   1.887 -0.1250 -0.4501  0.7711
 1122SOL     OW15424   8.812   9.313   3.527 -0.3340  0.1040 -0.5410
 1122SOL    HW115425   8.722   9.346   3.556 -0.0470  0.4936 -0.0849
 1122SOL    HW215426   8.835   9.351   3.437  0.7213  2.5269  0.7076
 1123SOL     OW15427   5.894   2.326   2.104  0.0449  0.2224 -0.0326
 1123SOL    HW115428   5.952   2.383   2.162 -0.8377  0.4624  0.6356
 1123SOL    HW215429   5.803   2.367   2.099  0.0093  0.0251 -1.3202
 1124SOL     OW15430   2.497   6.074   7.678 -0.4446  0.5551 -0.4561
 1124SOL    HW115431   2.586   6.114   7.657  0.3997  0.5161  2.8425
 1124SOL    HW215432   2.426   6.144   7.665  0.1735  0.9415 -1.8915
 1125SOL     OW15433   9.208   8.863   9.676  0.7356  0.1430 -0.2604
 1125SOL    HW115434   9.287   8.889   9.621  1.9412 -0.0373  1.3788
 1125SOL    HW215435   9.212   8.765   9.697  0.6667  0.3537  0.7627
 1126SOL     OW15436   8.444   2.636   5.893  0.4762 -0.5895 -0.2438
 1126SOL    HW115437   8.412   2.672   5.806 -0.3471 -2.5175 -0.7816
 1126SOL    HW215438   8.368   2.587   5.938  0.9601  0.1702  1.4252
 1127SOL     OW15439   9.701   3.019   8.132  0.0248  0.4804 -0.3069
 1127SOL    HW115440   9.721   2.984   8.224 -0.9388  0.0656 -0.2499
 1127SOL    HW215441   9.773   3.083   8.105 -0.1753  1.3387  1.1207
 1128SOL     OW15442   3.745   3.551   5.782  0.5929  0.2737 -0.0680
 1128SOL    HW115443   3.815   3.622   5.780  1.1238 -0.2566 -0.7669
 1128SOL    HW215444   3.781   3.469   5.828 -0.1298  0.5695  1.0416
 1129SOL     OW15445   2.956   0.053   7.135  0.2116  0.4206 -0.0575
 1129SOL    HW115446   3.022  -0.010   7.176  0.0920  0.4967  0.2508
 1129SOL    HW215447   3.003   0.112   7.070  0.2129 -0.3900 -0.7942
 1130SOL     OW15448   4.461   9.398   1.034  0.1150  0.0228  0.1675
 1130SOL    HW115449   4.428   9.475   1.088  2.6719  0.7486  0.7180
 1130SOL    HW215450   4.395   9.377   0.962 -1.0786  2.0415  0.6550
 1131SOL     OW15451   3.917   0.784   2.716  0.1405  0.1343  0.8314
 1131SOL    HW115452   4.009   0.823   2.703 -1.0831  3.0109  0.2898
 1131SOL    HW215453   3.897   0.720   2.642  1.5370 -0.1805  0.7171
 1132SOL     OW15454   7.594   4.797   0.726  0.0206  0.2673  0.5892
 1132SOL    HW115455   7.506   4.752   0.709 -0.2803  0.2594  2.0424
 1132SOL    HW215456   7.661   4.729   0.755  0.0972  0.4722  0.8963
 1133SOL     OW15457   7.698   1.258   9.158  0.2351 -0.4935 -0.4301
 1133SOL    HW115458   7.689   1.217   9.067 -0.5892  0.6989 -0.8909
 1133SOL    HW215459   7.794   1.281   9.174 -0.0041  1.8949 -2.1641
 1134SOL     OW15460   4.572   8.157   5.840  0.1190 -0.2862 -0.4164
 1134SOL    HW115461   4.500   8.090   5.858  0.2320 -0.4900 -0.7329
 1134SOL    HW215462   4.534   8.234   5.789 -0.0301 -0.0634  0.0245
 1135SOL     OW15463   8.623   2.644   2.811 -0.4330 -0.0650 -0.4011
 1135SOL    HW115464   8.705   2.701   2.825 -0.8990 -0.1592  3.0503
 1135SOL    HW215465   8.638   2.583   2.733  2.4166  0.5739 -0.4087
 1136SOL     OW15466   2.189   6.217   6.451  0.3308 -0.4024  0.2060
 1136SOL    HW115467   2.113   6.276   6.480  2.5920  2.3323  0.7230
 1136SOL    HW215468   2.227   6.170   6.530  0.1735 -0.5590  0.1887
 1137SOL     OW15469   2.992   8.303   2.028  0.1207  0.1503 -0.0070
 1137SOL    HW115470   3.038   8.369   2.088 -0.1222 -0.1092  0.4655
 1137SOL    HW215471   3.016   8.210   2.056  2.1488  0.0398 -1.9795
 1138SOL     OW15472   3.609   7.175   7.417 -0.1993  0.4934 -0.4060
 1138SOL    HW115473   3.536   7.177   7.485  0.9224  0.8223  0.8313
 1138SOL    HW215474   3.636   7.081   7.399  0.4561  0.4639  0.6848
 1139SOL     OW15475   5.490   5.778   0.946 -0.3664 -0.0597 -0.1540
 1139SOL    HW115476   5.533   5.693   0.978 -0.0409 -0.0818 -0.6296
 1139SOL    HW215477   5.412   5.755   0.887 -0.8017 -0.0226  0.4126
 1140SOL     OW15478   5.853   9.629   6.233  0.4430 -0.3481 -0.0281
 1140SOL    HW115479   5.854   9.604   6.136 -0.9159  0.4514 -0.2515
 1140SOL    HW215480   5.920   9.701   6.250 -1.4896  1.7600 -1.0109
 1141SOL     OW15481   0.748   8.866   9.633  0.5414 -0.3116  0.6395
 1141SOL    HW115482   0.683   8.930   9.593  0.6251  0.0549  1.0925
 1141SOL    HW215483   0.748   8.876   9.733  1.6350  0.0220  0.6129
 1142SOL     OW15484   2.941   0.124   9.684  0.0058 -0.6254  0.7052
 1142SOL    HW115485   2.866   0.146   9.622  0.4899  1.6044  0.8443
 1142SOL    HW215486   2.905   0.085   9.769 -1.0968  1.3826  1.1812
 1143SOL     OW15487   0.837   9.139   2.070 -0.2161  0.3506 -0.0747
 1143SOL    HW115488   0.810   9.216   2.127  2.9433 -0.7255  3.0586
 1143SOL    HW215489   0.784   9.058   2.096  0.8648 -0.0153  1.0283
 1144SOL     OW15490   2.427   7.077   2.804 -0.2766  0.2512 -0.2146
 1144SOL    HW115491   2.479   7.100   2.886 -0.5741 -0.1484  0.0865
 1144SOL    HW215492   2.483   7.018   2.745 -0.0339  0.6035 -0.3345
 1145SOL     OW15493   0.395   4.725   9.049 -0.1437 -0.0163 -0.3221
 1145SOL    HW115494   0.320   4.691   9.106  0.4716 -0.0812  0.4690
 1145SOL    HW215495   0.367   4.725   8.953 -1.2085  0.1257 -0.0147
 1146SOL     OW15496   3.806   6.744   2.854 -0.3672 -0.3117  0.1880
 1146SOL    HW115497   3.834   6.692   2.773 -1.0841 -1.7486  0.8477
 1146SOL    HW215498   3.720   6.707   2.890 -0.1932  0.4834  1.4605
 1147SOL     OW15499   0.453   3.657   7.900  0.5116 -0.1945  0.0062
 1147SOL    HW115500   0.446   3.559   7.881  1.5458 -0.1000 -0.9785
 1147SOL    HW215501   0.441   3.674   7.997  0.4029 -1.3188  0.1913
 1148SOL     OW15502   2.610   5.643   3.288 -0.3143 -0.0809  0.2651
 1148SOL    HW115503   2.672   5.719   3.268 -0.9773  0.3071 -0.3389
 1148SOL    HW215504   2.636   5.600   3.374  1.1380 -0.2770 -0.2548
 1149SOL     OW15505   7.298   5.971   6.755 -0.1608 -0.1580 -0.0603
 1149SOL    HW115506   7.224   5.978   6.688  0.6193 -0.5575 -0.9750
 1149SOL    HW215507   7.286   6.041   6.825 -0.6705  0.6253 -0.9255
 1150SOL     OW15508   1.651   0.120   9.819  0.1672 -0.2874 -0.0793
 1150SOL    HW115509   1.605   0.183   9.881 -1.6137 -0.4381 -1.2022
 1150SOL    HW215510   1.708   0.171   9.756  0.5632  0.0093  0.5151
 1151SOL     OW15511   8.684   2.812   3.563 -0.0749 -0.0219  0.0432
 1151SOL    HW115512   8.693   2.791   3.465 -1.0032 -1.9865  0.3482
 1151SOL    HW215513   8.605   2.764   3.600  0.9059 -0.1763  2.0171
 1152SOL     OW15514   3.262   6.228   6.348 -0.2164  0.5300 -0.0609
 1152SOL    HW115515   3.280   6.258   6.441  1.6841 -0.9192  0.0731
 1152SOL    HW215516   3.230   6.133   6.349  2.0513 -0.2955 -0.9878
 1153SOL     OW15517   6.253   0.519   1.787  0.2949 -0.1470  0.1942
 1153SOL    HW115518   6.343   0.482   1.810  0.9112  1.1414 -0.1104
 1153SOL    HW215519   6.253   0.554   1.694  0.0351  1.5736  0.8295
 1154SOL     OW15520   1.697   7.058   1.937 -0.1747  0.1252 -0.4038
 1154SOL    HW115521   1.757   7.070   1.858  0.0924 -0.8335 -0.3491
 1154SOL    HW215522   1.753   7.038   2.018 -0.4375  1.1895  0.0522
 1155SOL     OW15523   5.831   9.046   2.191  0.5583  0.2075  0.0701
 1155SOL    HW115524   5.748   9.064   2.138  0.1319  1.4476  1.1101
 1155SOL    HW215525   5.866   8.955   2.170 -0.3769  0.1618 -1.2940
 1156SOL     OW15526   2.591   7.914   5.555  0.3131  0.0912  0.3602
 1156SOL    HW115527   2.671   7.858   5.573  1.2502  0.9202 -1.0728
 1156SOL    HW215528   2.538   7.874   5.480  0.3666  0.5038  0.0982
 1157SOL     OW15529   2.676   8.804   9.309  0.3003  0.0103 -0.6845
 1157SOL    HW115530   2.677   8.741   9.231  0.5182  0.2537 -0.8812
 1157SOL    HW215531   2.737   8.769   9.380  0.9406  0.3292 -1.0633
 1158SOL     OW15532   1.573   7.589   1.387 -0.0075 -0.0743 -0.3597
 1158SOL    HW115533   1.622   7.551   1.465 -1.2229 -0.0124  0.4491
 1158SOL    HW215534   1.622   7.670   1.353  0.4987 -0.0655  0.3744
 1159SOL     OW15535   2.810   1.754   2.958 -0.0421  0.3945 -0.1024
 1159SOL    HW115536   2.886   1.737   3.020 -0.2111 -0.6498 -0.1623
 1159SOL    HW215537   2.780   1.849   2.966  0.4871  0.4908  0.7894
 1160SOL     OW15538   8.265   2.791   1.303 -0.0145 -1.0340 -0.1158
 1160SOL    HW115539   8.340   2.848   1.269 -1.0705  0.9920  0.7836
 1160SOL    HW215540   8.223   2.742   1.227  0.1595  0.3477 -1.1211
 1161SOL     OW15541   2.875   7.805   2.773 -0.7452 -0.2399 -0.1539
 1161SOL    HW115542   2.927   7.728   2.735  0.1464  0.8717 -1.1998
 1161SOL    HW215543   2.879   7.883   2.711 -1.8776  0.5857  0.7695
 1162SOL     OW15544   9.066   0.057   9.771 -0.3309 -0.0238 -0.2372
 1162SOL    HW115545   9.144   0.014   9.727  0.0723  0.6526 -0.1796
 1162SOL    HW215546   9.090   0.085   9.863 -0.0122  2.0462 -0.9270
 1163SOL     OW15547   1.643   6.827   8.961  0.0688 -0.3465 -0.1863
 1163SOL    HW115548   1.639   6.744   9.017 -2.5828  0.3600  0.7280
 1163SOL    HW215549   1.638   6.803   8.864 -0.8767 -1.2503  0.0791
 1164SOL     OW15550   6.039   7.542   6.396 -0.3271 -0.1384 -0.0893
 1164SOL    HW115551   6.054   7.557   6.298  0.9517 -1.2901 -0.0669
 1164SOL    HW215552   6.124   7.557   6.446 -0.9795  0.4706  0.8626
 1165SOL     OW15553   9.426   5.642   2.544 -0.0600 -0.1616  0.6966
 1165SOL    HW115554   9.452   5.711   2.611  2.2618 -2.2681  2.0436
 1165SOL    HW215555   9.387   5.563   2.591 -0.5265 -0.7493 -0.6420
 1166SOL     OW15556   6.265   1.474   1.508  0.2158  0.1451  0.2249
 1166SOL    HW115557   6.236   1.558   1.553  0.7374 -0.0675  0.9598
 1166SOL    HW215558   6.188   1.410   1.505 -0.4455  0.9726 -1.1394
 1167SOL     OW15559   2.891   3.356   4.977 -0.0240 -0.1533 -0.0597
 1167SOL    HW115560   2.951   3.432   4.950 -1.5736  0.7656 -1.0808
 1167SOL    HW215561   2.796   3.381   4.956 -0.9104 -1.0095  2.7839
 1168SOL     OW15562   2.945   0.186   7.910 -0.6137  0.8045  0.5528
 1168SOL    HW115563   2.999   0.243   7.971  0.1899  1.7880 -1.0340
 1168SOL    HW215564   2.905   0.243   7.838  0.6655 -0.6836 -1.4019
 1169SOL     OW15565   8.995   2.711   9.779  0.9487 -0.5111  0.2721
 1169SOL    HW115566   9.045   2.726   9.693 -0.8460  1.3293 -0.5068
 1169SOL    HW215567   9.022   2.780   9.845 -0.4516  0.4484 -0.1271
 1170SOL     OW15568   7.629   1.312   8.285  0.0880  0.1414  0.0264
 1170SOL    HW115569   7.647   1.376   8.360  2.8996  0.1368 -0.6077
 1170SOL    HW215570   7.683   1.338   8.205 -2.9314  0.1799 -2.0699
 1171SOL     OW15571   4.086   0.488   4.924  0.2560 -0.8207  0.1671
 1171SOL    HW115572   4.106   0.579   4.887  1.9678 -1.5704 -0.8348
 1171SOL    HW215573   3.991   0.483   4.952  0.0442  1.1534 -0.1767
 1172SOL     OW15574   3.667   5.378   3.094  0.1286 -0.4727  0.2018
 1172SOL    HW115575   3.679   5.278   3.089  0.1295 -0.3943 -1.4569
 1172SOL    HW215576   3.572   5.401   3.074  0.4487 -0.0399 -0.8346
 1173SOL     OW15577   9.942   4.780   6.377  0.1397 -0.3147  0.4315
 1173SOL    HW115578   9.860   4.785   6.433  0.5126  0.6161  0.8997
 1173SOL    HW215579  10.023   4.795   6.434  0.5052  1.0722 -0.4218
 1174SOL     OW15580   6.210   4.660   9.443 -0.0642  0.4203  0.2125
 1174SOL    HW115581   6.195   4.562   9.456 -0.0767  0.0313 -2.4226
 1174SOL    HW215582   6.297   4.674   9.396  0.0647  1.6952  0.8251
 1175SOL     OW15583   2.381   1.338   6.453  0.6514 -0.2381  0.1911
 1175SOL    HW115584   2.286   1.369   6.458  1.0051  0.9922 -0.3517
 1175SOL    HW215585   2.410   1.303   6.542  0.1675  0.8497  0.7834
 1176SOL     OW15586   0.184   7.116  10.011  0.2500  0.0134  0.1281
 1176SOL    HW115587   0.211   7.037  10.066 -3.1681 -1.6707 -0.4290
 1176SOL    HW215588   0.192   7.092   9.914 -0.3660  0.5100 -0.0463
 1177SOL     OW15589   3.004   1.521   9.212 -0.0792 -0.0041 -0.5391
 1177SOL    HW115590   2.990   1.614   9.246 -0.9727  0.2139 -1.4586
 1177SOL    HW215591   3.063   1.471   9.274 -0.8028  0.7178  0.7552
 1178SOL     OW15592   9.345   4.686   6.663  0.6664  0.5398  0.4265
 1178SOL    HW115593   9.259   4.634   6.670 -0.2704  2.1461  1.1706
 1178SOL    HW215594   9.397   4.654   6.585 -0.0834 -1.2464  0.6299
 1179SOL     OW15595   9.442   6.171   9.903 -0.1569 -0.0039 -0.6138
 1179SOL    HW115596   9.462   6.157  10.000  2.3383 -0.2105 -1.1354
 1179SOL    HW215597   9.352   6.214   9.894 -0.4533 -0.0428  1.7767
 1180SOL     OW15598   6.411   4.340   8.278 -0.0028 -0.0332 -0.0929
 1180SOL    HW115599   6.331   4.288   8.248 -0.4246  1.0654 -0.9076
 1180SOL    HW215600   6.484   4.332   8.210 -0.9148  2.3548 -1.4404
 1181SOL     OW15601   1.631   4.959   0.682  0.2616 -0.0896  0.1271
 1181SOL    HW115602   1.712   5.000   0.639 -1.0869  2.4734 -0.0496
 1181SOL    HW215603   1.570   4.925   0.611 -0.3383  0.9825  0.1167
 1182SOL     OW15604   4.664   6.019   9.379 -0.2646  0.1592 -0.2797
 1182SOL    HW115605   4.602   5.948   9.348 -0.4724  1.4013 -2.9111
 1182SOL    HW215606   4.612   6.100   9.407  0.0142 -0.2684  1.5135
 1183SOL     OW15607   0.121   5.568   7.546 -0.1218  0.0108  0.6394
 1183SOL    HW115608   0.190   5.635   7.518 -0.4688  0.0567 -0.1156
 1183SOL    HW215609   0.136   5.483   7.496  0.2059 -0.4154  1.4600
 1184SOL     OW15610   5.520   9.257   3.760 -0.3199 -0.2613 -0.1201
 1184SOL    HW115611   5.488   9.228   3.670  1.4655  1.1101 -1.2350
 1184SOL    HW215612   5.556   9.178   3.810 -0.0960 -0.8087 -1.1404
 1185SOL     OW15613   0.772   0.611   3.063 -0.3381  0.5164 -0.5503
 1185SOL    HW115614   0.839   0.628   3.135 -3.1722  0.8132  2.1073
 1185SOL    HW215615   0.818   0.612   2.974  2.9439  1.9233  1.0759
 1186SOL     OW15616   8.333   0.116   5.284 -0.2416  0.6888 -0.3770
 1186SOL    HW115617   8.385   0.169   5.217 -0.3815 -0.4565 -1.4131
 1186SOL    HW215618   8.235   0.126   5.266 -0.2634 -0.0329 -0.6774
 1187SOL     OW15619   2.979   3.734   3.637  0.3073 -0.2385  0.2522
 1187SOL    HW115620   2.929   3.649   3.650 -1.6196  0.6822 -0.9749
 1187SOL    HW215621   2.936   3.807   3.690  1.1523  0.2930  0.2281
 1188SOL     OW15622   2.173   9.070   0.378  0.4626  0.7045  0.6496
 1188SOL    HW115623   2.073   9.070   0.383  0.4808  2.6439  1.2456
 1188SOL    HW215624   2.201   9.057   0.282 -0.4112  2.0357  0.1919
 1189SOL     OW15625   0.910   2.732   8.332 -0.6005  0.1315  0.1430
 1189SOL    HW115626   0.901   2.633   8.335 -0.4192  0.1192  0.3110
 1189SOL    HW215627   0.864   2.773   8.411 -0.5136  0.1679  0.1758
 1190SOL     OW15628   9.865   1.397   5.200  0.1457  0.1292 -0.4763
 1190SOL    HW115629   9.845   1.489   5.233  2.0882 -0.0704  1.3378
 1190SOL    HW215630   9.863   1.333   5.276  4.0755 -0.4534 -0.7363
 1191SOL     OW15631   0.630   7.198   5.958 -0.2751  0.3314  0.2559
 1191SOL    HW115632   0.570   7.155   6.025 -0.5385  0.5645  0.1713
 1191SOL    HW215633   0.694   7.260   6.004 -1.1072  1.2417  0.1900
 1192SOL     OW15634   3.510   1.066   2.057 -0.2378 -0.1239 -0.1503
 1192SOL    HW115635   3.587   1.116   2.097 -1.6277  1.4979  0.6152
 1192SOL    HW215636   3.506   1.084   1.959 -0.4683  0.9642  0.0453
 1193SOL     OW15637   7.996   5.076   0.928  0.0746  0.9571 -0.0376
 1193SOL    HW115638   7.932   5.078   0.851 -0.0735 -0.0354  0.0457
 1193SOL    HW215639   8.049   4.991   0.924 -1.0547  0.1274  1.8481
 1194SOL     OW15640   7.745   7.487   7.718 -0.1303 -0.2084  0.0104
 1194SOL    HW115641   7.735   7.587   7.723  2.5804  0.0854  0.4770
 1194SOL    HW215642   7.801   7.463   7.638  0.0146 -1.2731  0.4248
 1195SOL     OW15643   0.426   0.286   0.853 -0.6613  0.1496 -0.3364
 1195SOL    HW115644   0.401   0.204   0.802  1.6233 -1.5010  1.0796
 1195SOL    HW215645   0.441   0.361   0.789 -1.4034 -0.9068 -1.7821
 1196SOL     OW15646   1.791   1.994   6.237  0.2258 -0.0848  0.2773
 1196SOL    HW115647   1.757   1.932   6.308 -0.0389 -0.9398 -0.5810
 1196SOL    HW215648   1.888   2.013   6.252 -0.1396  0.7933  1.6125
 1197SOL     OW15649   1.295   2.624   4.060  0.1956  0.2631  0.0213
 1197SOL    HW115650   1.379   2.570   4.057  0.3987  0.5009  1.2091
 1197SOL    HW215651   1.316   2.719   4.038  0.4333  0.5475  1.4648
 1198SOL     OW15652   3.272   3.023   2.042 -0.0972 -0.3905  0.2581
 1198SOL    HW115653   3.204   3.031   1.969 -0.6612  0.1695  0.8429
 1198SOL    HW215654   3.237   3.066   2.126  1.7112  1.5025  0.0683
 1199SOL     OW15655   7.658   7.109   1.563  0.2532  0.1579  0.1378
 1199SOL    HW115656   7.585   7.041   1.572  0.6499 -0.2585  0.2749
 1199SOL    HW215657   7.620   7.194   1.527  0.0056 -0.6325 -1.5221
 1200SOL     OW15658   1.162   9.059   9.888  0.0530 -0.1286 -0.1677
 1200SOL    HW115659   1.223   9.030   9.961  1.3469  0.0302 -1.1783
 1200SOL    HW215660   1.100   9.130   9.923  0.3368 -0.3898  0.8903
 1201SOL     OW15661   6.844   3.260   1.379  0.7335 -0.4529 -0.1000
 1201SOL    HW115662   6.752   3.222   1.370  0.5681 -0.0300 -0.1939
 1201SOL    HW215663   6.910   3.185   1.380  0.2921 -0.8377  1.3305
 1202SOL     OW15664   6.849   3.887   1.540  0.5980  0.3581 -0.7383
 1202SOL    HW115665   6.765   3.846   1.506 -0.6951  0.6384  1.9756
 1202SOL    HW215666   6.917   3.815   1.557 -0.3298 -0.2625  0.3971
 1203SOL     OW15667   1.371   1.360   8.997  0.0930 -0.9131 -0.4230
 1203SOL    HW115668   1.341   1.451   9.023  1.0567  0.0494 -2.5572
 1203SOL    HW215669   1.376   1.301   9.078 -0.8242  0.8348  0.9124
 1204SOL     OW15670   0.069   1.329   8.638  0.2506  0.4454 -0.1605
 1204SOL    HW115671   0.095   1.379   8.556 -1.0115 -2.3544 -2.3616
 1204SOL    HW215672   0.149   1.285   8.678  0.4332 -0.5759 -1.6076
 1205SOL     OW15673   2.898   9.592   7.649 -0.4674  0.2208  0.0845
 1205SOL    HW115674   2.949   9.531   7.708 -1.5358  1.1858  2.0585
 1205SOL    HW215675   2.827   9.541   7.600 -0.3106 -0.3862  0.4923
 1206SOL     OW15676   9.503   4.650   6.080  0.2481  0.0003  0.4729
 1206SOL    HW115677   9.545   4.571   6.036  0.5522 -0.0168  0.7951
 1206SOL    HW215678   9.408   4.658   6.050  0.5767  0.2489 -0.5374
 1207SOL     OW15679   3.943   8.684   9.212  0.4922  0.2711 -0.4192
 1207SOL    HW115680   3.928   8.722   9.121 -1.1383 -0.5647 -0.5330
 1207SOL    HW215681   3.858   8.693   9.265  1.2656  0.2560  0.8260
 1208SOL     OW15682   1.619   8.379   9.657 -0.0364  0.2729 -0.3696
 1208SOL    HW115683   1.667   8.320   9.593  1.1678  2.1187 -1.2178
 1208SOL    HW215684   1.684   8.414   9.725 -0.0531  3.0640 -1.7360
 1209SOL     OW15685   2.641   6.336   2.723  0.1908 -0.3010  0.1867
 1209SOL    HW115686   2.711   6.394   2.765  0.3869  0.2140 -0.8263
 1209SOL    HW215687   2.620   6.371   2.632 -1.5793 -0.3075  0.5770
 1210SOL     OW15688   0.093   1.533   6.876  0.7635 -0.0808  0.5530
 1210SOL    HW115689   0.083   1.589   6.794 -1.0809 -1.6854 -0.3514
 1210SOL    HW215690   0.073   1.438   6.854 -2.3510 -0.1706  3.4355
 1211SOL     OW15691   0.620   5.543   3.560 -0.0843  0.2605  0.0724
 1211SOL    HW115692   0.659   5.630   3.529  1.3226 -0.4467 -0.1708
 1211SOL    HW215693   0.558   5.508   3.490  0.9538  0.0405 -0.7435
 1212SOL     OW15694   9.502   3.540   4.936 -0.2098 -0.2002 -0.2934
 1212SOL    HW115695   9.590   3.574   4.968  0.0560 -0.8009 -0.3816
 1212SOL    HW215696   9.472   3.466   4.995  0.5714 -1.7314 -1.7606
 1213SOL     OW15697   3.802   7.535   6.097  0.2507  0.7709 -0.0889
 1213SOL    HW115698   3.742   7.459   6.121 -0.3124  0.9602 -0.8626
 1213SOL    HW215699   3.794   7.608   6.165  0.3693  0.3643  0.3542
 1214SOL     OW15700   3.080   5.964   1.184 -0.2425 -0.5743 -0.1836
 1214SOL    HW115701   3.180   5.963   1.183 -0.2428 -0.8780 -1.6415
 1214SOL    HW215702   3.046   5.919   1.101 -1.5669  0.5296 -0.2537
 1215SOL     OW15703   4.768   8.805   1.695 -0.2272  0.5617  0.0761
 1215SOL    HW115704   4.820   8.742   1.637 -2.2335 -0.0101 -1.1497
 1215SOL    HW215705   4.814   8.894   1.697 -0.4096  0.7593 -2.8444
 1216SOL     OW15706   7.309   1.896   3.540  0.3854 -0.1900  0.3735
 1216SOL    HW115707   7.224   1.845   3.555  0.3223 -0.3867 -0.5774
 1216SOL    HW215708   7.361   1.900   3.625  0.3692 -1.8329  0.4831
 1217SOL     OW15709   2.745   7.544   5.092 -0.3471 -0.6146 -0.2432
 1217SOL    HW115710   2.832   7.581   5.059 -0.5185  1.0360  1.0844
 1217SOL    HW215711   2.670   7.579   5.036 -0.3415 -0.4728 -0.1613
 1218SOL     OW15712   0.914   2.483   7.552  0.1528  0.0857 -0.6698
 1218SOL    HW115713   0.830   2.534   7.538  1.2319  1.9981 -0.4325
 1218SOL    HW215714   0.909   2.431   7.637 -0.7319  0.2857 -0.6017
 1219SOL     OW15715   1.361   3.163   1.716  0.0657 -0.1332 -0.5189
 1219SOL    HW115716   1.391   3.221   1.792 -0.1429 -0.1261 -0.4426
 1219SOL    HW215717   1.356   3.217   1.632  0.5046 -0.1897 -0.5817
 1220SOL     OW15718   2.676   6.162   1.949  0.4003  0.0223 -0.5260
 1220SOL    HW115719   2.737   6.226   1.996 -1.8514  0.9480  1.2467
 1220SOL    HW215720   2.636   6.100   2.016 -0.3871 -0.7367 -1.6969
 1221SOL     OW15721   5.820   2.796   9.176  0.2813  0.3786  0.2566
 1221SOL    HW115722   5.792   2.812   9.270 -1.2891 -0.7887  0.0060
 1221SOL    HW215723   5.919   2.778   9.173 -0.0768 -2.0878  1.9913
 1222SOL     OW15724   8.540   8.571   8.307 -0.0014  0.6344  0.0135
 1222SOL    HW115725   8.455   8.624   8.315 -0.9566 -0.8386 -0.1359
 1222SOL    HW215726   8.518   8.476   8.285  1.6277 -0.0916  1.3871
 1223SOL     OW15727   3.139   7.854   5.020 -0.3183  0.3031 -0.3658
 1223SOL    HW115728   3.159   7.825   4.927  1.9315  1.4889 -0.2873
 1223SOL    HW215729   3.186   7.794   5.085  2.6745  2.7596 -0.1596
 1224SOL     OW15730   4.531   1.381   1.135 -0.5703 -0.0778  0.6540
 1224SOL    HW115731   4.456   1.437   1.171  1.4387  2.6713  0.6804
 1224SOL    HW215732   4.601   1.440   1.096  0.6800 -2.7036 -1.1975
 1225SOL     OW15733   7.671   0.932   2.267 -0.4281  0.4395  0.1616
 1225SOL    HW115734   7.638   0.923   2.361 -1.4782  1.0238 -0.1408
 1225SOL    HW215735   7.727   0.853   2.243  0.0299  0.4003  1.3547
 1226SOL     OW15736   7.986   6.316   7.047 -0.3255 -0.0277 -0.4072
 1226SOL    HW115737   7.909   6.326   6.984 -1.3220  2.1492  1.1196
 1226SOL    HW215738   7.976   6.232   7.099 -0.3714 -0.9906 -1.9289
 1227SOL     OW15739   2.872   8.816   3.289  0.4847  0.4017 -0.1832
 1227SOL    HW115740   2.901   8.853   3.201  1.7744  1.7471  0.7770
 1227SOL    HW215741   2.943   8.756   3.325 -0.5016 -0.9997 -0.5392
 1228SOL     OW15742   1.374   4.990   5.072 -0.5950 -0.4338  0.0368
 1228SOL    HW115743   1.281   5.024   5.062  0.1074  1.6288  0.3168
 1228SOL    HW215744   1.406   4.954   4.985 -0.8478  0.9392 -0.6217
 1229SOL     OW15745   9.958   1.381   9.992  0.1540  0.4386  0.3540
 1229SOL    HW115746  10.014   1.456  10.027  0.3555  0.2743  0.3868
 1229SOL    HW215747   9.938   1.396   9.895  0.3189  0.4609  0.3229
 1230SOL     OW15748   3.496   5.693   5.351 -0.0726 -0.4023  0.2954
 1230SOL    HW115749   3.536   5.729   5.267 -1.8974  0.4242 -0.2371
 1230SOL    HW215750   3.569   5.668   5.414  1.2969  0.1084 -1.0524
 1231SOL     OW15751   2.298   9.884   9.504  0.0827  0.0948  0.1210
 1231SOL    HW115752   2.201   9.889   9.480 -0.3517  1.0592  2.0253
 1231SOL    HW215753   2.346   9.962   9.463 -0.3250  0.7415  0.8577
 1232SOL     OW15754   3.657   4.594  10.073 -0.5677 -0.6098  0.4680
 1232SOL    HW115755   3.683   4.542  10.154 -0.2541  0.3567  0.9940
 1232SOL    HW215756   3.568   4.638  10.088  0.0361  0.5523  0.7739
 1233SOL     OW15757   9.488   5.048   6.782  0.4908  0.1247 -0.1293
 1233SOL    HW115758   9.549   4.975   6.810 -1.6230 -1.5072  0.3745
 1233SOL    HW215759   9.499   5.066   6.684  0.6066 -1.3009 -0.3900
 1234SOL     OW15760   3.137   6.403   1.382  0.0192  1.4437  0.1429
 1234SOL    HW115761   3.127   6.412   1.481 -0.2533  1.4145  0.1176
 1234SOL    HW215762   3.181   6.485   1.345 -0.1264  1.5702  0.2518
 1235SOL     OW15763   8.995   0.437   3.240  0.0172 -0.4916  0.3751
 1235SOL    HW115764   8.905   0.400   3.216  0.4400 -0.3914 -1.4335
 1235SOL    HW215765   9.064   0.365   3.235  0.8188  0.4035 -3.0206
 1236SOL     OW15766   2.221   6.399   3.469  0.0917 -0.0494 -0.0382
 1236SOL    HW115767   2.216   6.470   3.398 -1.0055 -0.8731 -0.8143
 1236SOL    HW215768   2.263   6.317   3.431 -0.3366 -0.4330  0.3113
 1237SOL     OW15769   0.832   7.700   6.363  0.1422 -0.0833  0.0591
 1237SOL    HW115770   0.861   7.624   6.421 -0.5581 -1.4185 -1.3270
 1237SOL    HW215771   0.912   7.743   6.322  0.4411 -1.0722 -0.4040
 1238SOL     OW15772   2.035   5.929   8.309 -0.4055 -0.0919 -0.1809
 1238SOL    HW115773   1.965   5.857   8.312 -1.4054  0.8966  0.8691
 1238SOL    HW215774   2.027   5.979   8.223 -1.2528  0.2472  0.0831
 1239SOL     OW15775   3.088   8.979   9.295  0.3763  0.2236 -0.0520
 1239SOL    HW115776   3.057   9.035   9.218 -0.3548  0.2666  0.2673
 1239SOL    HW215777   3.108   9.038   9.373 -0.9617  0.0042  0.4735
 1240SOL     OW15778   3.290   7.975   7.418 -0.2132 -0.4016  0.6820
 1240SOL    HW115779   3.240   7.934   7.494  0.2260  0.1549  1.2773
 1240SOL    HW215780   3.341   7.904   7.370  1.1223 -0.4671  2.1516
 1241SOL     OW15781   7.889   3.632   9.570 -0.1033  0.0628  0.0361
 1241SOL    HW115782   7.942   3.560   9.526  0.8975  1.9376 -1.9138
 1241SOL    HW215783   7.798   3.636   9.530  0.4384  1.0407 -1.1196
 1242SOL     OW15784   6.626   8.510   6.161 -0.3940 -0.1934 -0.0983
 1242SOL    HW115785   6.605   8.607   6.163 -0.2551 -0.1774  1.2841
 1242SOL    HW215786   6.549   8.458   6.198 -0.9559 -0.7113 -1.9512
 1243SOL     OW15787   9.272   1.500   3.228 -0.0132 -0.4977  0.2724
 1243SOL    HW115788   9.201   1.491   3.159 -1.4757  0.8000  1.5698
 1243SOL    HW215789   9.290   1.411   3.270 -2.6665 -0.4344  1.6492
 1244SOL     OW15790   5.778   0.698   3.317 -0.0333  0.3730 -0.5734
 1244SOL    HW115791   5.710   0.768   3.296  0.3995  0.4142 -1.9227
 1244SOL    HW215792   5.868   0.740   3.326  0.0147  0.1599 -0.0730
 1245SOL     OW15793   7.757   3.589   8.729  0.4870 -0.8093 -0.3964
 1245SOL    HW115794   7.669   3.561   8.691 -0.1912  2.8671 -1.7733
 1245SOL    HW215795   7.828   3.582   8.659  0.6098 -0.5716 -0.2960
 1246SOL     OW15796   3.610   3.120   5.323 -0.1107 -0.4249 -0.3766
 1246SOL    HW115797   3.673   3.114   5.401 -1.6467 -0.3519  0.8825
 1246SOL    HW215798   3.553   3.038   5.320 -0.2948 -0.2699 -1.2309
 1247SOL     OW15799   4.336   4.083   7.139  0.4545  0.5225 -0.7536
 1247SOL    HW115800   4.265   4.054   7.203  0.1008 -0.5377 -1.6194
 1247SOL    HW215801   4.425   4.081   7.186  0.0576  0.8747  0.0337
 1248SOL     OW15802   0.377   8.552   2.775  0.5532  0.6177  0.2703
 1248SOL    HW115803   0.363   8.460   2.738 -0.8524  0.9208  0.0279
 1248SOL    HW215804   0.324   8.618   2.722  0.8779  1.4535  0.9728
 1249SOL     OW15805   1.461   2.984   1.235  0.1755  0.6279 -0.3641
 1249SOL    HW115806   1.531   3.038   1.188  0.8848 -0.4018 -0.5129
 1249SOL    HW215807   1.459   2.892   1.197 -0.2399  0.2081  0.6560
 1250SOL     OW15808   9.164   0.690   9.766  0.1365 -0.7753  0.0295
 1250SOL    HW115809   9.211   0.766   9.721 -1.7573 -0.1317 -0.9029
 1250SOL    HW215810   9.124   0.630   9.698 -0.4901 -1.2477  0.8044
 1251SOL     OW15811   7.990   8.459   3.297  0.1274 -0.3279  0.1215
 1251SOL    HW115812   7.928   8.459   3.376  0.3190 -0.3643  0.2707
 1251SOL    HW215813   7.978   8.374   3.246  0.6853 -0.7227  0.6429
 1252SOL     OW15814   8.423   3.123   1.591 -0.1705  0.2472  0.9079
 1252SOL    HW115815   8.342   3.139   1.535 -0.6824 -0.4102  1.4494
 1252SOL    HW215816   8.399   3.063   1.667  1.2389 -1.3810  0.0797
 1253SOL     OW15817   2.753   3.769   8.255  0.3525 -0.0607  0.3700
 1253SOL    HW115818   2.807   3.787   8.173 -1.2983 -0.8287 -0.9102
 1253SOL    HW215819   2.805   3.710   8.316  1.5019  0.3231 -0.2055
 1254SOL     OW15820   4.647   9.179   6.358 -0.0591  0.5213 -0.1676
 1254SOL    HW115821   4.696   9.198   6.274  0.5649  0.5905  0.2134
 1254SOL    HW215822   4.568   9.240   6.366 -0.6347 -0.0785 -1.1270
 1255SOL     OW15823   0.621   7.335   1.192 -0.0372  0.1646 -0.3634
 1255SOL    HW115824   0.677   7.257   1.164 -0.3317 -0.4979  0.8584
 1255SOL    HW215825   0.680   7.410   1.219  0.2487  0.3360 -1.4196
 1256SOL     OW15826   3.115   0.307   8.164  0.1473  0.9195 -0.4255
 1256SOL    HW115827   3.200   0.290   8.214  0.0199 -0.3222 -0.6025
 1256SOL    HW215828   3.073   0.392   8.195 -1.1646 -0.9827  3.3206
 1257SOL     OW15829   6.597   9.875   5.755  0.7101  0.1071  0.0775
 1257SOL    HW115830   6.557   9.832   5.837  2.1717  0.0690  0.7883
 1257SOL    HW215831   6.595   9.810   5.679 -0.1621 -0.0474  0.2287
 1258SOL     OW15832   8.329   1.532   9.375  0.4495 -0.0314  0.4903
 1258SOL    HW115833   8.282   1.510   9.289 -0.1651  0.0727  0.7969
 1258SOL    HW215834   8.408   1.472   9.387  0.4017 -0.2006 -0.0368
 1259SOL     OW15835   1.235   2.604   8.132 -0.1282 -0.0470 -0.2782
 1259SOL    HW115836   1.173   2.681   8.146  0.6689  0.4386  0.6478
 1259SOL    HW215837   1.330   2.635   8.140  0.2109 -0.9837 -0.6092
 1260SOL     OW15838   4.926   2.956   2.112 -0.0169  0.2561 -0.2388
 1260SOL    HW115839   4.971   2.976   2.026 -1.5360  3.8610 -0.2707
 1260SOL    HW215840   4.847   2.896   2.095  1.0400 -0.9413 -1.0009
 1261SOL     OW15841   8.974   1.734   8.055 -0.1919  0.3251 -0.7767
 1261SOL    HW115842   9.040   1.661   8.040 -0.4692 -0.4295  1.3638
 1261SOL    HW215843   8.890   1.695   8.094 -0.8276  1.6084 -0.8380
 1262SOL     OW15844   7.298   4.796   2.730  0.0751 -0.2135 -0.0757
 1262SOL    HW115845   7.214   4.742   2.740 -1.1783  1.7573  0.2889
 1262SOL    HW215846   7.317   4.810   2.633 -0.1108 -0.5161 -0.1586
 1263SOL     OW15847   9.866   5.505   7.327 -0.3662 -0.4462  0.4569
 1263SOL    HW115848   9.858   5.470   7.420 -0.5190 -0.0926  0.5737
 1263SOL    HW215849   9.776   5.533   7.294 -0.0222  1.1755  0.8757
 1264SOL     OW15850   6.958   6.918   2.835 -0.0541  0.5044  0.1651
 1264SOL    HW115851   6.978   6.824   2.806 -2.3480 -0.3955  1.3653
 1264SOL    HW215852   7.015   6.942   2.913 -0.2401 -0.2716  0.5386
 1265SOL     OW15853   8.666   0.194   3.528  0.0186  0.2369  0.1261
 1265SOL    HW115854   8.690   0.190   3.431 -0.4588 -4.4783  0.0771
 1265SOL    HW215855   8.749   0.207   3.582  0.4002  1.9062 -0.8231
 1266SOL     OW15856   2.779   8.729   2.617  0.2338 -0.1666  0.0669
 1266SOL    HW115857   2.809   8.685   2.702 -0.9799  0.3495  0.7875
 1266SOL    HW215858   2.686   8.764   2.629 -0.5078 -1.3418 -1.9545
 1267SOL     OW15859   1.271   5.511   5.639 -0.1487 -0.2179  0.2448
 1267SOL    HW115860   1.295   5.459   5.721 -0.8403 -1.1034 -0.1119
 1267SOL    HW215861   1.189   5.471   5.597  0.8101 -0.3944 -1.4725
 1268SOL     OW15862   0.080   7.126   3.629  0.3364 -0.6360 -0.5357
 1268SOL    HW115863   0.103   7.063   3.555  1.0452 -0.3630 -0.5530
 1268SOL    HW215864   0.121   7.093   3.715 -0.0098 -0.6546 -0.3770
 1269SOL     OW15865   9.959   2.023   8.471  0.0917 -0.1275 -0.1535
 1269SOL    HW115866   9.910   2.109   8.471  0.1903 -0.0428 -3.2341
 1269SOL    HW215867   9.953   1.980   8.381  1.9362 -2.2542  0.6779
 1270SOL     OW15868   0.986   4.934   7.521 -0.3380 -0.4127  0.3793
 1270SOL    HW115869   0.951   4.987   7.598  0.2357  0.4622  0.0387
 1270SOL    HW215870   1.080   4.960   7.503  0.0540 -1.7757  0.4057
 1271SOL     OW15871   3.331   1.811   6.961  0.0123 -0.3592 -0.3105
 1271SOL    HW115872   3.231   1.818   6.963 -0.1076 -1.8085 -0.0476
 1271SOL    HW215873   3.357   1.715   6.947  1.3668  0.2223 -1.8756
 1272SOL     OW15874   6.756   8.384   2.298  0.1550 -0.9377  0.1100
 1272SOL    HW115875   6.739   8.350   2.205  1.5534 -3.2946  0.6694
 1272SOL    HW215876   6.843   8.433   2.300 -0.2522 -0.2081  0.0161
 1273SOL     OW15877   4.837   1.619   1.782  0.3091 -0.4565  0.0289
 1273SOL    HW115878   4.868   1.714   1.786 -0.7287 -0.1175  0.2211
 1273SOL    HW215879   4.792   1.602   1.694  0.6267 -0.8115 -0.0666
 1274SOL     OW15880   1.115   7.564   8.662  0.0595  0.4415  0.5296
 1274SOL    HW115881   1.062   7.481   8.680  0.6409  0.0717  0.5299
 1274SOL    HW215882   1.055   7.644   8.671 -0.3478  0.0664  1.1663
 1275SOL     OW15883   8.017   6.199   8.557 -0.1621 -0.5957 -0.3702
 1275SOL    HW115884   8.029   6.180   8.460  0.6190 -1.0015 -0.1985
 1275SOL    HW215885   8.059   6.126   8.611  1.6576  0.8692  0.2859
 1276SOL     OW15886   9.562   5.580   2.322 -0.1050 -0.4757 -0.0345
 1276SOL    HW115887   9.510   5.610   2.402 -2.4572  0.4324 -1.8334
 1276SOL    HW215888   9.499   5.561   2.247  2.0277 -1.6401 -1.5791
 1277SOL     OW15889   2.182   9.602   6.298 -0.2991 -0.3445 -0.0274
 1277SOL    HW115890   2.260   9.561   6.251 -0.8148  0.3172 -1.4851
 1277SOL    HW215891   2.137   9.667   6.237 -1.6633 -0.3121  0.9945
 1278SOL     OW15892   8.380   0.805   3.291  0.1278 -0.3575  0.1486
 1278SOL    HW115893   8.425   0.811   3.381  0.1333  0.7476  0.0867
 1278SOL    HW215894   8.321   0.885   3.278 -2.7422 -2.3225  0.6790
 1279SOL     OW15895   8.222   6.353   6.619 -0.1615 -1.1339 -0.2130
 1279SOL    HW115896   8.234   6.406   6.703 -0.6099 -3.4631  1.3589
 1279SOL    HW215897   8.158   6.401   6.558 -0.0628  0.4243  0.8795
 1280SOL     OW15898   8.513   7.716   0.162 -0.2471 -0.0461 -0.5846
 1280SOL    HW115899   8.443   7.755   0.103 -2.2984 -1.2191  1.0126
 1280SOL    HW215900   8.602   7.755   0.138 -1.6311  2.6095 -1.6379
 1281SOL     OW15901   9.168   3.508   8.995 -0.5046  0.3151 -0.0794
 1281SOL    HW115902   9.214   3.470   9.076  0.7550  1.1194 -0.4225
 1281SOL    HW215903   9.138   3.601   9.015  2.9235  1.8277 -1.6799
 1282SOL     OW15904   2.421   6.537   1.457  0.3812 -0.0578  0.5350
 1282SOL    HW115905   2.355   6.585   1.399 -0.8265 -2.3329 -0.0344
 1282SOL    HW215906   2.512   6.574   1.443 -0.1795  0.5717 -1.5100
 1283SOL     OW15907   6.277   8.234   4.052  0.1154  0.3907  0.5093
 1283SOL    HW115908   6.233   8.144   4.056  1.8193 -0.3888  1.9989
 1283SOL    HW215909   6.210   8.305   4.076 -1.2057 -0.4695 -0.5607
 1284SOL     OW15910   4.006   2.633   5.475 -0.3562 -0.3784 -0.1619
 1284SOL    HW115911   4.083   2.684   5.436 -0.8019 -1.1423 -2.1047
 1284SOL    HW215912   3.926   2.646   5.418 -0.8522 -2.0941  0.1322
 1285SOL     OW15913   1.361   7.943   2.200  0.2048 -0.3427  0.4957
 1285SOL    HW115914   1.450   7.898   2.203  0.9954  1.2008  0.5804
 1285SOL    HW215915   1.317   7.936   2.290  0.1854 -1.2017  0.4228
 1286SOL     OW15916   8.512   4.752   2.792  0.8234  0.2604 -0.1731
 1286SOL    HW115917   8.502   4.848   2.769  0.9102  0.5368  0.9119
 1286SOL    HW215918   8.596   4.716   2.749  0.3803  0.4584 -1.2097
 1287SOL     OW15919   2.350   0.750   7.507  0.2877 -0.1216  0.1171
 1287SOL    HW115920   2.323   0.842   7.536  2.2888  0.4739  0.2182
 1287SOL    HW215921   2.425   0.757   7.441 -0.6110 -1.6429 -1.0801
 1288SOL     OW15922   1.824   2.952   8.286 -0.0475 -0.5801  0.1758
 1288SOL    HW115923   1.865   2.869   8.325 -0.5287 -1.0483 -0.3099
 1288SOL    HW215924   1.890   2.995   8.224  0.8198  0.3148  1.6982
 1289SOL     OW15925   7.878   0.614   7.530  0.5426 -0.1877  0.3498
 1289SOL    HW115926   7.902   0.523   7.563 -0.0164 -0.4193  0.1139
 1289SOL    HW215927   7.961   0.661   7.499  0.5513 -1.4619 -1.6541
 1290SOL     OW15928   5.980   5.518   1.994 -0.2631  0.7884 -0.0258
 1290SOL    HW115929   5.957   5.515   1.896 -2.2507 -0.3507  0.4333
 1290SOL    HW215930   5.902   5.484   2.046  1.2038  0.3540  1.8979
 1291SOL     OW15931   3.391   9.640   8.998  0.3728  0.3625  0.2942
 1291SOL    HW115932   3.301   9.681   8.981 -0.3952  0.1961  3.6513
 1291SOL    HW215933   3.447   9.704   9.050  1.7060 -0.1255 -0.5155
 1292SOL     OW15934   9.305   8.835   7.999 -0.1088  0.5138  0.2754
 1292SOL    HW115935   9.378   8.795   8.055 -0.3187  0.9900  0.8886
 1292SOL    HW215936   9.218   8.791   8.021 -0.2574  0.9709  0.6012
 1293SOL     OW15937   2.534   1.236   9.357  0.3777 -0.6277 -0.5888
 1293SOL    HW115938   2.496   1.257   9.267  2.5266 -0.1720 -1.4380
 1293SOL    HW215939   2.595   1.157   9.349  1.3175  0.0013  0.2804
 1294SOL     OW15940   5.506   5.844   1.396 -1.0429 -0.6264 -0.0463
 1294SOL    HW115941   5.455   5.863   1.313 -1.5346  0.9185  0.5803
 1294SOL    HW215942   5.445   5.847   1.475 -0.3383 -0.6614  0.5144
 1295SOL     OW15943   7.237   0.215   1.199  0.5858 -0.1917  0.4377
 1295SOL    HW115944   7.143   0.246   1.213 -0.4675 -2.8529 -0.5449
 1295SOL    HW215945   7.280   0.269   1.126 -0.8894 -0.3856 -0.5889
 1296SOL     OW15946   9.638   3.780   0.214 -0.0569 -0.0918 -0.1611
 1296SOL    HW115947   9.712   3.832   0.257 -0.0939 -0.5008  0.4012
 1296SOL    HW215948   9.565   3.843   0.187 -0.7623 -0.0066  1.8693
 1297SOL     OW15949   1.548   5.393   7.107 -0.1934  0.3153 -0.5085
 1297SOL    HW115950   1.513   5.318   7.050 -0.1617  0.0314 -0.1610
 1297SOL    HW215951   1.475   5.459   7.123 -0.5300 -0.1865  0.0693
 1298SOL     OW15952   9.078   8.092   5.022  0.3498 -0.3336  0.4390
 1298SOL    HW115953   9.012   8.100   5.096 -0.4002 -1.5587 -0.0940
 1298SOL    HW215954   9.090   8.182   4.978  1.0805  0.4816  2.2506
 1299SOL     OW15955   7.695   2.095   0.385  0.3517  0.0512  0.5073
 1299SOL    HW115956   7.645   2.146   0.456 -1.3030 -0.1638 -0.4808
 1299SOL    HW215957   7.751   2.025   0.427  0.7841  1.1201  1.7323
 1300SOL     OW15958   6.977   3.121   3.480  0.0361  0.5179  0.0984
 1300SOL    HW115959   6.918   3.078   3.549 -1.3655  2.7830  0.3737
 1300SOL    HW215960   7.067   3.139   3.519 -0.4042  0.7790  0.9995
 1301SOL     OW15961   6.819   0.174   5.860 -0.0889 -0.3940  0.7087
 1301SOL    HW115962   6.850   0.264   5.889 -0.0976 -0.4581  0.9171
 1301SOL    HW215963   6.882   0.138   5.792 -1.7862  1.1076 -1.7293
 1302SOL     OW15964   5.769   9.855   4.017  0.6207  0.1917 -0.0344
 1302SOL    HW115965   5.729   9.788   4.080  0.3581  1.9278  1.6960
 1302SOL    HW215966   5.786   9.811   3.929 -2.4663 -1.3342  0.0422
 1303SOL     OW15967   2.351   5.017   0.179 -0.4668  0.1944 -0.6072
 1303SOL    HW115968   2.434   4.968   0.151 -1.7336 -2.8880  0.8032
 1303SOL    HW215969   2.376   5.105   0.219  1.9984  0.0754 -1.8076
 1304SOL     OW15970   3.752   0.159   8.744  0.2010 -0.0910  0.0533
 1304SOL    HW115971   3.685   0.154   8.670 -0.1226 -0.1813  0.3537
 1304SOL    HW215972   3.837   0.199   8.709  0.3407 -0.9397 -0.5726
 1305SOL     OW15973   3.838   2.065   6.944  0.2434 -0.2584 -0.0525
 1305SOL    HW115974   3.755   2.105   6.984 -0.0505 -1.7644  0.8963
 1305SOL    HW215975   3.917   2.119   6.971 -0.5607  2.1540 -2.2917
 1306SOL     OW15976   2.744   7.740   3.814 -0.0140  0.0067 -0.6482
 1306SOL    HW115977   2.834   7.700   3.797  0.6692  1.3807 -0.3425
 1306SOL    HW215978   2.704   7.772   3.728 -1.2927 -2.7644 -1.1489
 1307SOL     OW15979   4.799   4.032   7.547  0.8157  0.4207  0.1791
 1307SOL    HW115980   4.833   4.117   7.588  0.8498  1.6318 -2.2761
 1307SOL    HW215981   4.702   4.041   7.528  0.9818  0.2182 -0.8038
 1308SOL     OW15982   1.801   3.254   4.769 -0.5378 -0.1480 -0.5199
 1308SOL    HW115983   1.804   3.213   4.861  0.5007 -0.5480 -0.7256
 1308SOL    HW215984   1.829   3.349   4.775  1.6243 -0.7498 -0.7215
 1309SOL     OW15985   3.522   7.116   8.001  0.3883  0.9129 -0.0027
 1309SOL    HW115986   3.598   7.082   8.056 -0.3176 -1.9553 -0.6933
 1309SOL    HW215987   3.437   7.112   8.055  0.2133  1.1667 -0.2529
 1310SOL     OW15988   8.701   2.690   7.638 -0.3168 -0.5432 -0.1409
 1310SOL    HW115989   8.611   2.650   7.655 -0.3709 -0.8690 -1.1716
 1310SOL    HW215990   8.728   2.672   7.543 -0.4067  1.9777 -0.6822
 1311SOL     OW15991   3.103   6.511   5.731  0.4488 -0.2477 -0.3237
 1311SOL    HW115992   3.099   6.412   5.716  0.6764 -0.3499  0.2770
 1311SOL    HW215993   3.197   6.543   5.718  1.3006 -0.8013  3.5847
 1312SOL     OW15994   1.374   1.918   1.274  0.5319  0.0578  0.0961
 1312SOL    HW115995   1.304   1.858   1.313  0.6449  0.3629  0.7745
 1312SOL    HW215996   1.463   1.874   1.279  0.4654 -0.1343 -0.3384
 1313SOL     OW15997   0.665   6.833   0.371 -0.2020 -0.0356 -0.2643
 1313SOL    HW115998   0.738   6.900   0.361 -0.8220  0.7621  0.4404
 1313SOL    HW215999   0.605   6.859   0.447 -0.0242 -1.7935  0.5136
 1314SOL     OW16000   4.735   2.098   4.437  0.4161  0.0320  0.6973
 1314SOL    HW116001   4.727   2.172   4.370  0.5818  1.4192  2.1718
 1314SOL    HW216002   4.726   2.010   4.391  0.0341  0.9719 -1.0670
 1315SOL     OW16003   2.862   6.816   0.901  0.2235  0.2544  0.3631
 1315SOL    HW116004   2.840   6.741   0.838  0.5829 -0.3839  0.9859
 1315SOL    HW216005   2.780   6.872   0.916 -0.2260 -0.4068  0.4166
 1316SOL     OW16006   0.712   7.613   8.124 -0.8181  0.3199 -0.3113
 1316SOL    HW116007   0.726   7.709   8.099 -2.1777  0.0585 -2.2878
 1316SOL    HW216008   0.742   7.598   8.218  0.9543  2.2981 -0.5177
 1317SOL     OW16009   9.239   5.646   7.474  0.1504  0.4831  0.4483
 1317SOL    HW116010   9.221   5.559   7.428  2.0966  1.4632 -2.3046
 1317SOL    HW216011   9.315   5.634   7.538  0.4808  0.1639  0.0005
 1318SOL     OW16012   8.753   0.222   3.274 -0.8886  0.2699  0.1901
 1318SOL    HW116013   8.822   0.154   3.251  0.0791  1.1975  0.3291
 1318SOL    HW216014   8.701   0.245   3.191 -1.9711 -1.4481  0.3697
 1319SOL     OW16015   9.646   4.275   7.677  0.4781  0.5955 -0.4207
 1319SOL    HW116016   9.570   4.266   7.741 -1.3340  1.0911 -2.4494
 1319SOL    HW216017   9.669   4.184   7.641  0.1878  0.5606 -0.5256
 1320SOL     OW16018   2.806   7.522   7.290  0.0692 -0.6343  0.3024
 1320SOL    HW116019   2.761   7.575   7.361 -1.2899 -0.6678 -0.5101
 1320SOL    HW216020   2.794   7.424   7.308 -0.1976 -0.6428  0.0908
 1321SOL     OW16021   7.937   9.129   9.007  0.1689 -0.2204 -0.4803
 1321SOL    HW116022   8.012   9.081   9.054  0.1285  0.4698  0.3078
 1321SOL    HW216023   7.971   9.216   8.972 -0.2169  0.0101 -0.2769
 1322SOL     OW16024   4.163   8.593   3.158 -0.2143  0.3576 -0.6758
 1322SOL    HW116025   4.121   8.607   3.248  0.5444  0.7492 -0.3725
 1322SOL    HW216026   4.214   8.507   3.158 -0.9424 -0.0849 -1.0229
 1323SOL     OW16027   3.208   5.979   4.780 -0.2128  0.3586  0.5554
 1323SOL    HW116028   3.123   5.927   4.767  0.1273 -0.3085  0.9768
 1323SOL    HW216029   3.199   6.040   4.858  0.3567 -1.1128  1.7877
 1324SOL     OW16030   7.163   8.530   5.210  0.0974  0.0115 -0.7472
 1324SOL    HW116031   7.094   8.530   5.282 -0.3344 -0.4245 -1.1634
 1324SOL    HW216032   7.248   8.493   5.246 -0.0893 -0.1179 -0.4371
 1325SOL     OW16033   5.919   5.324   9.086 -0.3307 -0.3496  0.8707
 1325SOL    HW116034   5.844   5.264   9.116  0.5129 -1.0217  1.6662
 1325SOL    HW216035   5.881   5.400   9.033 -1.5728 -0.7125  1.2095
 1326SOL     OW16036   7.539   5.745   3.018  0.4509 -0.0763  0.3224
 1326SOL    HW116037   7.535   5.654   2.977 -0.0857 -0.6049  1.5043
 1326SOL    HW216038   7.628   5.785   3.002  0.5419 -0.6280 -0.6006
 1327SOL     OW16039   1.696   9.733   9.134 -0.1030  0.0099  0.2595
 1327SOL    HW116040   1.653   9.664   9.193 -0.0273 -0.3614 -0.1183
 1327SOL    HW216041   1.666   9.824   9.163 -0.6676 -0.2133  0.3878
 1328SOL     OW16042   3.959   6.943   3.451  0.3614 -0.1239 -0.4230
 1328SOL    HW116043   4.041   6.890   3.432  1.0701  0.8199 -0.0109
 1328SOL    HW216044   3.975   7.004   3.528 -0.9714 -0.4652  0.1413
 1329SOL     OW16045   1.897   9.120   0.385  0.3354  0.4738 -0.6027
 1329SOL    HW116046   1.823   9.053   0.383  0.2190  0.5953 -0.4361
 1329SOL    HW216047   1.865   9.204   0.428  1.4774 -0.5855  2.4598
 1330SOL     OW16048   0.675   6.786   2.248 -0.2559  0.4962  0.0777
 1330SOL    HW116049   0.694   6.763   2.343 -1.7533 -0.8549  0.0726
 1330SOL    HW216050   0.699   6.708   2.189 -3.3064 -0.3374 -0.1767
 1331SOL     OW16051   1.035   0.400   0.855 -0.2855  0.1571  1.2400
 1331SOL    HW116052   1.060   0.487   0.813  1.6689 -0.9656  0.0238
 1331SOL    HW216053   0.939   0.380   0.834 -0.0254  0.7955 -0.6311
 1332SOL     OW16054   1.694   2.584   5.531 -0.1171 -0.1874 -0.6592
 1332SOL    HW116055   1.653   2.494   5.521  0.2534 -0.2531 -1.6298
 1332SOL    HW216056   1.630   2.654   5.498 -0.9097  0.0164  1.2711
 1333SOL     OW16057   1.198   0.139   0.354  0.5868  0.1642  0.5600
 1333SOL    HW116058   1.187   0.050   0.398 -1.4908  0.4571  0.6891
 1333SOL    HW216059   1.294   0.167   0.358  1.3932 -2.3628 -0.0667
 1334SOL     OW16060   1.632   0.952   7.180 -0.0541 -0.0959  0.3906
 1334SOL    HW116061   1.621   1.031   7.241 -0.0135 -0.9539  1.5402
 1334SOL    HW216062   1.594   0.871   7.225  2.0586 -1.1908  0.2467
 1335SOL     OW16063   3.699   1.679   6.770 -0.6018 -0.0860 -0.5932
 1335SOL    HW116064   3.639   1.641   6.840 -0.2284 -0.8440 -0.6786
 1335SOL    HW216065   3.656   1.671   6.680 -1.0781  0.8810 -0.4559
 1336SOL     OW16066   8.771   5.498   2.950 -0.0377  0.6492 -0.5173
 1336SOL    HW116067   8.797   5.581   2.900  0.0555  0.6768 -0.4245
 1336SOL    HW216068   8.673   5.499   2.966 -0.3800 -0.3637 -2.4958
 1337SOL     OW16069   6.048   5.624   8.898  0.6397  0.3854  0.1544
 1337SOL    HW116070   5.975   5.559   8.917 -0.5248  1.4506 -0.5863
 1337SOL    HW216071   6.127   5.603   8.956  0.1032 -1.3467  0.2945
 1338SOL     OW16072   3.380   2.871   7.340  0.5263  0.2652 -0.0559
 1338SOL    HW116073   3.282   2.871   7.322  0.3646 -0.9744  0.7630
 1338SOL    HW216074   3.398   2.837   7.432  1.6386  2.0320  0.4104
 1339SOL     OW16075   8.080   4.131   1.948  0.7519 -0.0672 -0.6100
 1339SOL    HW116076   8.084   4.219   1.901  0.3490  0.4828  0.3563
 1339SOL    HW216077   8.163   4.119   2.003 -0.3242  0.8868  1.2766
 1340SOL     OW16078   2.212   0.560   2.239  0.2231 -0.1331  0.2845
 1340SOL    HW116079   2.221   0.599   2.330 -2.1508  0.6918  0.2094
 1340SOL    HW216080   2.194   0.462   2.246 -1.1721  0.1505  0.7557
 1341SOL     OW16081   1.233   2.502   6.246 -0.4763  0.0069 -0.4164
 1341SOL    HW116082   1.187   2.558   6.177  0.4883  0.0897 -0.9942
 1341SOL    HW216083   1.322   2.473   6.212  0.1999  0.4172  0.9713
 1342SOL     OW16084   8.179   8.783   1.182 -0.4817  0.2210  0.0771
 1342SOL    HW116085   8.219   8.854   1.123  2.0360 -0.6898  0.6214
 1342SOL    HW216086   8.124   8.826   1.253  1.5560  1.6862  0.8131
 1343SOL     OW16087   1.186   1.213   8.873  0.4988 -0.5441 -0.3987
 1343SOL    HW116088   1.272   1.239   8.916  1.0521  1.0970 -2.4242
 1343SOL    HW216089   1.110   1.239   8.933  1.2897  0.9501 -0.0007
 1344SOL     OW16090   3.352   8.434   2.740  0.8990  0.5077  0.3641
 1344SOL    HW116091   3.363   8.524   2.698 -0.8970  0.6238  0.0865
 1344SOL    HW216092   3.259   8.401   2.723  1.1675 -0.8666  1.4929
 1345SOL     OW16093   4.491   6.724   0.568  0.3571  0.1093 -0.2654
 1345SOL    HW116094   4.561   6.667   0.610  0.1379 -0.0579 -0.1261
 1345SOL    HW216095   4.495   6.816   0.608  0.2050 -0.0258  0.0559
 1346SOL     OW16096   9.576   8.407   6.841  0.5660  0.3953 -0.2813
 1346SOL    HW116097   9.525   8.487   6.808  1.0670  2.0777  2.8532
 1346SOL    HW216098   9.522   8.359   6.910  1.3843 -0.4102 -0.1858
 1347SOL     OW16099   8.286   2.646   3.882 -0.0627  0.0175 -0.0681
 1347SOL    HW116100   8.213   2.578   3.884 -0.1522  0.1145 -0.0188
 1347SOL    HW216101   8.280   2.699   3.798 -0.8966  0.9446  0.5624
 1348SOL     OW16102   0.217   9.997   7.869  0.1013  0.4000 -0.3572
 1348SOL    HW116103   0.244   9.952   7.954  0.9593 -0.1828 -0.9147
 1348SOL    HW216104   0.255  10.090   7.866 -0.5167  0.6704  0.1964
 1349SOL     OW16105   4.047   0.512   9.084 -0.0982  0.1497 -0.4773
 1349SOL    HW116106   4.070   0.553   8.996  0.2289 -0.8552 -0.8683
 1349SOL    HW216107   3.968   0.451   9.073 -1.3245  1.5751  0.3349
 1350SOL     OW16108   9.877   4.730   9.339  0.3517  0.0493  0.0163
 1350SOL    HW116109   9.943   4.803   9.321  0.1451 -0.1977 -1.8032
 1350SOL    HW216110   9.924   4.655   9.385  0.0019  2.4024  4.5095
 1351SOL     OW16111   4.213   3.241   8.456  0.0820  0.1603  0.2889
 1351SOL    HW116112   4.196   3.167   8.390 -0.1312  1.3458 -1.0119
 1351SOL    HW216113   4.256   3.203   8.538 -0.1616 -1.4308 -0.2903
 1352SOL     OW16114   8.951   5.763   6.804 -0.0132  0.4117  1.1808
 1352SOL    HW116115   8.951   5.683   6.744  1.4685  0.4476  1.1155
 1352SOL    HW216116   8.914   5.737   6.894 -0.0625 -0.2001  0.9873
 1353SOL     OW16117   3.367   5.883   4.567 -0.3030 -0.0032 -0.1692
 1353SOL    HW116118   3.329   5.939   4.641  0.5505  0.6840 -0.2397
 1353SOL    HW216119   3.465   5.869   4.583 -0.6438 -2.0992  0.2332
 1354SOL     OW16120   8.314   1.972   1.145  0.2698  0.3948  0.4928
 1354SOL    HW116121   8.285   1.889   1.097  1.8299 -0.0426  0.2698
 1354SOL    HW216122   8.241   2.040   1.141 -0.8720 -0.8208  0.3329
 1355SOL     OW16123   2.192   6.757   8.127  0.0726  0.6701 -0.0428
 1355SOL    HW116124   2.181   6.853   8.151 -0.0619  0.2939  1.4567
 1355SOL    HW216125   2.286   6.740   8.097 -0.1492  1.4438 -1.2015
 1356SOL     OW16126   8.004   4.785   8.470  0.3709 -0.4355 -0.1666
 1356SOL    HW116127   7.923   4.729   8.450 -0.0358  0.7103 -1.8184
 1356SOL    HW216128   8.044   4.756   8.557 -2.2208 -0.5628  1.0150
 1357SOL     OW16129   0.091   9.506   6.102 -0.2405 -0.1051 -0.1944
 1357SOL    HW116130   0.133   9.596   6.115  0.7268 -0.3631 -1.4005
 1357SOL    HW216131   0.027   9.510   6.024 -0.8958 -0.2318  0.3355
 1358SOL     OW16132   6.586   0.575   1.135 -0.6160 -0.3258 -0.2538
 1358SOL    HW116133   6.518   0.536   1.072 -1.3180 -0.0297  0.3197
 1358SOL    HW216134   6.556   0.561   1.229  0.4478 -0.7922  0.0283
 1359SOL     OW16135   5.584   4.540   2.423  0.9465 -0.6495 -0.1855
 1359SOL    HW116136   5.617   4.575   2.335 -1.9909 -0.4673 -1.2887
 1359SOL    HW216137   5.589   4.613   2.492  1.5783 -0.2604 -0.6349
 1360SOL     OW16138   3.648   4.681   3.892  0.6685 -0.3147  0.5444
 1360SOL    HW116139   3.627   4.671   3.989  1.6350 -0.5446  0.7409
 1360SOL    HW216140   3.654   4.779   3.869  1.3847 -0.2623  0.9356
 1361SOL     OW16141   6.684   1.781   2.658 -0.7533  0.3508 -0.1356
 1361SOL    HW116142   6.669   1.749   2.752  1.2604 -1.0448 -0.2397
 1361SOL    HW216143   6.772   1.747   2.626 -2.1454 -0.5730 -3.1227
 1362SOL     OW16144   0.677   6.706   3.564  0.4963 -0.0407 -0.1525
 1362SOL    HW116145   0.674   6.805   3.579  0.9814 -0.4633  3.2724
 1362SOL    HW216146   0.765   6.681   3.524  0.9802  0.7696  0.3832
 1363SOL     OW16147   0.166   2.234   7.051  0.0048  0.3480  0.5258
 1363SOL    HW116148   0.225   2.185   7.115 -0.2611 -0.6785 -0.0092
 1363SOL    HW216149   0.199   2.219   6.958 -0.5894  0.4746  0.2942
 1364SOL     OW16150   2.239   2.245   8.186 -0.4815  0.0702  0.1934
 1364SOL    HW116151   2.144   2.248   8.157 -0.9140  2.6455  1.6830
 1364SOL    HW216152   2.258   2.322   8.247  1.7667 -2.1443  2.4272
 1365SOL     OW16153   2.752   7.516   3.085 -0.7290  1.0409 -0.0105
 1365SOL    HW116154   2.679   7.487   3.023 -0.8204  1.1365  0.0537
 1365SOL    HW216155   2.832   7.457   3.072 -1.2206  0.1896  0.7467
 1366SOL     OW16156   1.082   1.068   0.524  0.0164  0.0090 -0.5699
 1366SOL    HW116157   1.173   1.032   0.506 -0.9885 -1.3269 -3.2963
 1366SOL    HW216158   1.015   1.019   0.467 -2.3852  1.0173  1.2933
 1367SOL     OW16159   0.269   5.583   2.232 -0.2632  0.5037  0.1182
 1367SOL    HW116160   0.309   5.493   2.250  0.0231  0.3689 -1.1847
 1367SOL    HW216161   0.170   5.573   2.219 -0.6110  0.7171  2.4228
 1368SOL     OW16162   7.776   3.006   0.947  0.1110 -0.0449  0.3105
 1368SOL    HW116163   7.853   3.066   0.967 -0.4885  1.0800 -0.6687
 1368SOL    HW216164   7.800   2.944   0.872  0.1770  0.0767  0.2317
 1369SOL     OW16165   1.145   6.059   6.446 -0.2119 -0.3029 -1.0850
 1369SOL    HW116166   1.234   6.018   6.466 -0.6017  0.4288  2.5043
 1369SOL    HW216167   1.077   6.021   6.509 -1.4660  2.6435 -0.6160
 1370SOL     OW16168   8.801   5.964   6.004 -0.2624 -0.7535 -0.1621
 1370SOL    HW116169   8.828   5.979   5.908 -2.0365 -1.7168 -0.8340
 1370SOL    HW216170   8.877   5.989   6.064  0.7702  0.1507 -1.8064
 1371SOL     OW16171   1.386   7.924   8.443  0.2304 -0.1737  0.2644
 1371SOL    HW116172   1.311   7.927   8.377 -0.5897  0.4738  1.2103
 1371SOL    HW216173   1.464   7.974   8.406 -1.3844  3.1839  1.1509
 1372SOL     OW16174   6.936   7.234   3.400 -0.3409 -0.1888  0.6452
 1372SOL    HW116175   6.988   7.221   3.484  0.3315 -1.0492  0.1017
 1372SOL    HW216176   6.839   7.240   3.421 -0.2153 -0.8969  1.4376
 1373SOL     OW16177   6.314   8.003   6.190 -0.4199 -0.3795 -0.3814
 1373SOL    HW116178   6.387   8.041   6.133 -1.1658 -1.6828 -2.2423
 1373SOL    HW216179   6.350   7.929   6.247  0.6426  1.8516  1.9505
 1374SOL     OW16180   1.872   7.839   6.903  0.3558  0.2416  0.3080
 1374SOL    HW116181   1.775   7.823   6.917  0.1600 -0.0222 -1.3407
 1374SOL    HW216182   1.919   7.838   6.992 -1.2563  1.2008  1.1875
 1375SOL     OW16183   9.666   1.044   3.615 -0.7191 -0.1745  0.0285
 1375SOL    HW116184   9.738   0.975   3.625 -0.9892 -0.5085 -0.3128
 1375SOL    HW216185   9.703   1.125   3.569 -0.1957  0.2329  1.1485
 1376SOL     OW16186   0.680   3.462   5.002  0.4497  0.4385  0.4246
 1376SOL    HW116187   0.757   3.464   5.066  0.9169  1.1110 -0.1452
 1376SOL    HW216188   0.615   3.392   5.030  0.7499  0.5970  1.5224
 1377SOL     OW16189   4.339   4.062   6.175  0.1989 -0.0887 -0.3547
 1377SOL    HW116190   4.422   4.008   6.158  0.0733  0.2603 -2.2410
 1377SOL    HW216191   4.352   4.119   6.256  1.4963 -0.6259 -0.1643
 1378SOL     OW16192   0.055   7.508   8.807  0.0951  0.2907  0.1346
 1378SOL    HW116193   0.102   7.430   8.766  3.3387  1.5813  1.2406
 1378SOL    HW216194  -0.033   7.522   8.761 -0.4372 -3.7684 -0.2881
 1379SOL     OW16195   8.042   3.721  10.025  0.5709 -0.1841 -0.2037
 1379SOL    HW116196   8.031   3.724   9.926 -1.1617 -0.5152 -0.0508
 1379SOL    HW216197   8.019   3.810  10.064 -0.0340 -0.4177 -0.0097
 1380SOL     OW16198   1.679   7.482   1.664  0.0940 -0.0646  0.0013
 1380SOL    HW116199   1.690   7.382   1.663 -0.3888 -0.1145 -0.5962
 1380SOL    HW216200   1.610   7.507   1.732  0.0647 -0.1516  0.0034
 1381SOL     OW16201   6.279   0.859   3.162 -0.1557 -0.0270  0.1093
 1381SOL    HW116202   6.348   0.930   3.172 -1.5907  1.2339  1.2742
 1381SOL    HW216203   6.268   0.837   3.065  1.7979 -0.1808 -0.0907
 1382SOL     OW16204   2.227   4.052   0.594  0.1298  0.2318  0.6540
 1382SOL    HW116205   2.273   4.135   0.627  0.1198  0.3687  0.3224
 1382SOL    HW216206   2.128   4.061   0.608  0.2892 -0.4869  2.3124
 1383SOL     OW16207   9.045   4.510   4.652  0.3296 -0.4429 -0.0982
 1383SOL    HW116208   8.997   4.451   4.718 -0.4983  1.3667  0.9368
 1383SOL    HW216209   9.140   4.480   4.644  0.6821 -0.1525  2.5999
 1384SOL     OW16210   8.917   5.933   1.151 -0.3972 -0.2622 -0.1777
 1384SOL    HW116211   8.928   5.979   1.239  1.2125  1.0446 -1.0330
 1384SOL    HW216212   8.990   5.963   1.089 -1.4198 -1.2954 -1.8940
 1385SOL     OW16213   6.023   8.370   5.987  0.0527 -0.2528  0.5373
 1385SOL    HW116214   6.015   8.364   5.887  1.0532 -0.6692  0.4718
 1385SOL    HW216215   5.936   8.399   6.026 -1.4773 -3.6570 -0.1540
 1386SOL     OW16216   2.675   5.606   9.939  0.6600  0.1223 -0.0953
 1386SOL    HW116217   2.701   5.677  10.005 -0.2910  0.2001  0.2077
 1386SOL    HW216218   2.657   5.520   9.987  0.7906 -0.0437 -0.3440
 1387SOL     OW16219   1.452   7.777   9.594 -0.3912  0.2296  0.6115
 1387SOL    HW116220   1.471   7.809   9.687  0.5271  0.1809  0.4408
 1387SOL    HW216221   1.462   7.852   9.529  0.4869 -0.0904  0.3685
 1388SOL     OW16222   5.257   0.482   7.817  0.1613 -0.2506 -0.0317
 1388SOL    HW116223   5.166   0.446   7.799 -0.5113  1.2309  0.3171
 1388SOL    HW216224   5.309   0.417   7.872 -1.1953 -0.4620  1.0156
 1389SOL     OW16225   7.935   8.509   4.120  0.3645 -0.3094 -0.2577
 1389SOL    HW116226   7.934   8.441   4.047 -0.5089  0.2010 -0.7353
 1389SOL    HW216227   7.868   8.484   4.190 -0.3303  0.3196 -0.6875
 1390SOL     OW16228   5.370   8.145   7.018  0.1877  0.2655 -0.0242
 1390SOL    HW116229   5.426   8.161   6.936 -0.4711  0.2505 -0.4781
 1390SOL    HW216230   5.335   8.052   7.017 -0.1310  0.3832  0.0897
 1391SOL     OW16231   3.565   9.004   3.400 -0.1791 -0.0210 -0.1863
 1391SOL    HW116232   3.543   8.924   3.345  0.4534 -1.1450  1.1837
 1391SOL    HW216233   3.641   8.983   3.462  0.4007  1.8104 -0.2289
 1392SOL     OW16234   8.175   2.658   8.520  0.0315 -0.0712 -0.2597
 1392SOL    HW116235   8.132   2.583   8.570  2.3690 -2.2218 -1.3447
 1392SOL    HW216236   8.243   2.702   8.578 -0.8944  0.8056  0.1659
 1393SOL     OW16237   2.740   9.753   7.321 -0.2137 -0.3562  0.2429
 1393SOL    HW116238   2.791   9.679   7.277  0.2535 -1.3526  2.4119
 1393SOL    HW216239   2.790   9.785   7.401 -1.3071  1.0629  0.3769
 1394SOL     OW16240   5.780   3.850   0.437  0.6134  0.0944 -0.8963
 1394SOL    HW116241   5.878   3.868   0.446  1.2092 -3.2147 -0.0662
 1394SOL    HW216242   5.753   3.782   0.506 -2.0543  0.2203 -1.7913
 1395SOL     OW16243   9.020   1.825   6.419 -0.3065  0.1486 -0.3948
 1395SOL    HW116244   8.932   1.777   6.414  1.0026 -2.3839  0.3854
 1395SOL    HW216245   9.050   1.847   6.326 -2.1547  1.8191 -0.6325
 1396SOL     OW16246   4.253   9.031   2.010 -0.2363  0.3754 -0.6925
 1396SOL    HW116247   4.230   9.098   1.940  2.6607  1.2330 -0.8839
 1396SOL    HW216248   4.325   8.969   1.976 -0.6021 -0.8099  0.6084
 1397SOL     OW16249   2.438   3.414   8.065 -0.0830 -0.0000  0.8648
 1397SOL    HW116250   2.433   3.508   8.099 -0.5342 -0.2660  1.5425
 1397SOL    HW216251   2.530   3.395   8.031 -0.2323  0.9771 -0.1092
 1398SOL     OW16252   1.960   6.845   8.808  0.2400  0.1129 -0.2145
 1398SOL    HW116253   1.926   6.758   8.842 -0.1033  0.5631  0.6253
 1398SOL    HW216254   1.970   6.909   8.885  0.0124  0.9634 -0.8861
 1399SOL     OW16255   9.944   2.238   1.262  0.1283 -0.0299 -0.1311
 1399SOL    HW116256   9.882   2.191   1.325  0.6470 -0.9515 -0.2971
 1399SOL    HW216257  10.032   2.254   1.307  0.4647 -0.5943 -0.5791
 1400SOL     OW16258   6.673   8.059   4.988  0.0584 -0.4569  0.4167
 1400SOL    HW116259   6.583   8.066   5.030 -0.7652 -0.4360 -1.3153
 1400SOL    HW216260   6.693   8.143   4.937  0.2069 -1.2484 -0.8462
 1401SOL     OW16261   7.934   2.806   3.436  0.1777 -0.0551 -0.1483
 1401SOL    HW116262   7.939   2.718   3.483 -0.7752  0.0764  0.2111
 1401SOL    HW216263   7.841   2.843   3.443  0.3075  0.4980 -1.1702
 1402SOL     OW16264   6.553   8.675   3.741 -0.3884 -0.9200  0.1185
 1402SOL    HW116265   6.542   8.600   3.807  1.5200 -0.0406  1.5037
 1402SOL    HW216266   6.649   8.704   3.741 -1.1397  1.6181 -0.3052
 1403SOL     OW16267   5.555   5.039   1.681  0.0394 -0.1377 -0.6212
 1403SOL    HW116268   5.625   5.006   1.617 -1.0075 -0.4581 -1.6182
 1403SOL    HW216269   5.570   5.137   1.698  1.6212 -0.5309  0.3534
 1404SOL     OW16270   1.423   9.815   7.508 -0.4929 -0.4479 -0.2239
 1404SOL    HW116271   1.406   9.877   7.432 -1.3281 -0.7427 -0.2827
 1404SOL    HW216272   1.405   9.862   7.594  0.4692 -0.1085 -0.1980
 1405SOL     OW16273   8.582   3.801   8.160  0.3170  0.4251  0.5830
 1405SOL    HW116274   8.547   3.709   8.139  0.4828  0.8136 -1.5258
 1405SOL    HW216275   8.505   3.864   8.168  0.2622  0.3245  0.8397
 1406SOL     OW16276   8.352   9.262   5.218 -0.1575 -0.2045  0.3266
 1406SOL    HW116277   8.421   9.189   5.213 -0.0421  0.0283 -1.6447
 1406SOL    HW216278   8.398   9.351   5.226 -0.2467 -0.1091 -0.2404
 1407SOL     OW16279   6.695   2.203   0.486  0.0500  0.1012  0.3761
 1407SOL    HW116280   6.750   2.180   0.567  0.2550 -0.2020  0.1485
 1407SOL    HW216281   6.744   2.176   0.404 -0.5880 -0.4541  0.1830
 1408SOL     OW16282   8.858   7.601   2.376 -0.0369 -0.5832  0.4383
 1408SOL    HW116283   8.825   7.507   2.385 -0.1953 -0.4014  1.7532
 1408SOL    HW216284   8.803   7.662   2.433  1.0867  0.0577  0.8547
 1409SOL     OW16285   0.447   1.084   2.343  0.0651  0.7125 -0.4682
 1409SOL    HW116286   0.518   1.070   2.274  1.2015 -0.9889  1.0075
 1409SOL    HW216287   0.454   1.176   2.380  1.3897  0.6265 -0.4860
 1410SOL     OW16288   3.974   1.898   1.669  0.3604  0.3066  0.3128
 1410SOL    HW116289   3.926   1.855   1.593  0.8279  0.0298  0.1684
 1410SOL    HW216290   3.911   1.957   1.720 -0.0883  0.0661  0.0377
 1411SOL     OW16291   1.763   2.251   1.443 -0.2040 -0.2847 -0.6011
 1411SOL    HW116292   1.719   2.338   1.420  1.9427  0.6642 -1.2429
 1411SOL    HW216293   1.862   2.265   1.449  0.3412 -3.1025 -2.5435
 1412SOL     OW16294   8.987   2.704   0.215  0.6893 -0.4216  0.1830
 1412SOL    HW116295   8.916   2.774   0.221  0.0610 -1.2229  2.5279
 1412SOL    HW216296   8.984   2.662   0.124 -1.2997  0.1308 -0.0378
 1413SOL     OW16297   0.077   5.355   2.908  0.1710  0.2752  0.2172
 1413SOL    HW116298   0.041   5.419   2.840 -1.9668 -0.9256  0.1902
 1413SOL    HW216299   0.114   5.274   2.862  3.1230  1.5538  0.2356
 1414SOL     OW16300   0.105   2.133   2.110 -0.2561 -0.7123 -0.1895
 1414SOL    HW116301   0.092   2.071   2.188 -0.0194  0.1215  0.5215
 1414SOL    HW216302   0.073   2.224   2.135 -0.8848 -0.6116 -1.3381
 1415SOL     OW16303   4.153   0.300   9.737 -0.8290 -0.5925  0.0735
 1415SOL    HW116304   4.203   0.272   9.819 -0.2107 -2.1703 -0.8344
 1415SOL    HW216305   4.174   0.238   9.662 -3.0446 -0.4364 -0.7146
 1416SOL     OW16306   1.343   0.848   8.307  0.0642  0.5683 -0.4459
 1416SOL    HW116307   1.346   0.752   8.280  0.0976  0.1506  0.9721
 1416SOL    HW216308   1.346   0.854   8.407  0.2964  2.0547 -0.5314
 1417SOL     OW16309   2.409   2.496   2.955 -0.4782  0.4803 -0.4387
 1417SOL    HW116310   2.461   2.477   3.038 -2.0808 -0.1831  0.4307
 1417SOL    HW216311   2.328   2.549   2.978 -0.7829  0.5390 -1.6331
 1418SOL     OW16312   2.256   7.274   2.705 -0.1113 -0.5194  0.0664
 1418SOL    HW116313   2.317   7.205   2.744 -0.2904 -1.0943 -0.6470
 1418SOL    HW216314   2.279   7.364   2.742  1.5346 -0.6408 -0.6015
 1419SOL     OW16315   1.665   8.441   7.662  0.5219 -0.0869  0.3395
 1419SOL    HW116316   1.725   8.504   7.712 -0.7825  0.3770  1.3334
 1419SOL    HW216317   1.582   8.489   7.634  0.6637 -0.6900 -1.1747
 1420SOL     OW16318   6.692   9.349   6.786  0.1621  0.6440 -0.4862
 1420SOL    HW116319   6.771   9.395   6.745 -0.2342  1.2916 -0.5249
 1420SOL    HW216320   6.712   9.330   6.882 -0.0764  1.8576 -0.1884
 1421SOL     OW16321   2.000   5.259   6.170  0.2188  0.0328 -0.2384
 1421SOL    HW116322   1.943   5.246   6.252 -0.6500 -1.0877 -1.0021
 1421SOL    HW216323   2.023   5.356   6.160  0.8273  0.1087  1.6556
 1422SOL     OW16324   9.954   0.407   0.221 -0.2410 -0.1279  0.3470
 1422SOL    HW116325   9.914   0.377   0.135  0.2795  0.9549 -0.2731
 1422SOL    HW216326  10.044   0.447   0.205  1.0716 -2.3985  1.7067
 1423SOL     OW16327   3.562   1.540   9.589  0.1859  0.7885 -0.0290
 1423SOL    HW116328   3.564   1.456   9.535 -1.1408  0.1801  0.8620
 1423SOL    HW216329   3.609   1.613   9.538 -1.0910  0.2468 -2.0462
 1424SOL     OW16330   3.898   2.705   6.989 -0.7577  0.1816 -0.3320
 1424SOL    HW116331   3.991   2.716   6.954 -0.0716 -1.4819  0.9010
 1424SOL    HW216332   3.885   2.767   7.067 -1.3854  1.8900 -1.7509
 1425SOL     OW16333   2.030   9.577   5.036 -0.1207 -0.6985  0.2181
 1425SOL    HW116334   2.009   9.563   4.939 -0.2442 -0.2224  0.1750
 1425SOL    HW216335   1.962   9.530   5.092  0.1151 -1.2174  0.0778
 1426SOL     OW16336   7.879   5.149   2.637  0.1967  0.1626  0.4136
 1426SOL    HW116337   7.787   5.125   2.608  0.1681 -1.1437  1.5652
 1426SOL    HW216338   7.933   5.066   2.650  1.0941  0.8493  1.1819
 1427SOL     OW16339   9.931   0.599   9.974 -0.4309  0.1456 -0.7923
 1427SOL    HW116340   9.915   0.588   9.876 -0.8056  0.5802 -0.7821
 1427SOL    HW216341   9.913   0.512  10.021  2.4077 -0.8330 -1.4296
 1428SOL     OW16342   9.647   5.588   3.365 -0.2453 -0.4409 -0.3162
 1428SOL    HW116343   9.675   5.496   3.392 -1.8943 -0.0702  2.8694
 1428SOL    HW216344   9.559   5.583   3.318 -0.9731 -0.4019  1.0130
 1429SOL     OW16345   6.512   1.680   5.849 -0.4494 -0.1243 -0.1910
 1429SOL    HW116346   6.453   1.633   5.783 -1.6793  0.9195  0.1443
 1429SOL    HW216347   6.547   1.764   5.808 -1.1595  0.4909  0.4539
 1430SOL     OW16348   1.199   2.191   3.290  0.2369 -0.3278  0.2985
 1430SOL    HW116349   1.149   2.208   3.205 -0.4198 -3.1226  0.0668
 1430SOL    HW216350   1.297   2.195   3.273  0.1097 -1.6173 -0.7652
 1431SOL     OW16351   0.050   2.821   0.423  0.4468 -0.4015  0.2251
 1431SOL    HW116352  -0.043   2.858   0.423  0.6427  0.0948  0.7834
 1431SOL    HW216353   0.047   2.725   0.451  0.4308  0.5036  3.5377
 1432SOL     OW16354   6.183   4.893   1.484 -0.0623  0.5090  0.1430
 1432SOL    HW116355   6.127   4.953   1.541 -1.3014 -0.5705  0.0869
 1432SOL    HW216356   6.263   4.863   1.535 -0.4721  0.6281  0.8597
 1433SOL     OW16357   6.202   9.287   5.069  0.1130  0.0058 -0.8471
 1433SOL    HW116358   6.119   9.231   5.063  1.1959 -1.5211 -1.6931
 1433SOL    HW216359   6.278   9.241   5.023  1.6412  1.0354  0.5770
 1434SOL     OW16360   7.356   3.797   2.836  0.4322  0.1415  0.4961
 1434SOL    HW116361   7.266   3.767   2.803  0.8262 -1.0925  0.4958
 1434SOL    HW216362   7.346   3.844   2.924 -0.2731  0.5018  0.2225
 1435SOL     OW16363   6.550   1.942   8.943 -0.4437 -0.2991  0.6458
 1435SOL    HW116364   6.467   1.885   8.945  0.5675 -1.8169  0.3164
 1435SOL    HW216365   6.618   1.903   9.006  1.1824 -0.8998 -1.4360
 1436SOL     OW16366   6.533   9.225   5.801  0.1035  0.1527  0.5057
 1436SOL    HW116367   6.468   9.264   5.867 -1.1976 -1.5585  0.2559
 1436SOL    HW216368   6.511   9.258   5.710  0.9405  1.2830  0.7001
 1437SOL     OW16369   7.744   8.161   1.333 -0.3660  0.1642 -0.8515
 1437SOL    HW116370   7.673   8.112   1.281 -0.1217  1.0364 -2.0319
 1437SOL    HW216371   7.811   8.199   1.269  0.5140  0.3580  0.1877
 1438SOL     OW16372   3.746   8.930   3.037 -0.3656 -0.2149  0.3287
 1438SOL    HW116373   3.769   9.005   2.976 -1.8000  0.2275  0.3274
 1438SOL    HW216374   3.827   8.872   3.050  0.7212  1.2672  0.2683
 1439SOL     OW16375   0.392   9.376   7.382 -0.2174 -0.3441  0.0041
 1439SOL    HW116376   0.379   9.376   7.481 -1.0444  0.1251 -0.0987
 1439SOL    HW216377   0.314   9.420   7.338  0.8640  0.8374 -0.7700
 1440SOL     OW16378   0.250   6.769   8.295 -0.0008 -0.4736  0.2591
 1440SOL    HW116379   0.166   6.790   8.345 -0.6935 -0.0375 -1.0431
 1440SOL    HW216380   0.261   6.835   8.220  1.9110 -0.0564  0.8814
 1441SOL     OW16381   6.481   7.213   5.475 -0.5576 -0.2651 -0.2395
 1441SOL    HW116382   6.552   7.265   5.523 -1.6076  1.6027 -0.6519
 1441SOL    HW216383   6.515   7.122   5.455  0.9865 -0.0990  1.4011
 1442SOL     OW16384   0.213   8.892   2.833 -0.0563  0.0493  0.1072
 1442SOL    HW116385   0.170   8.936   2.912  0.2722 -0.6182  0.6728
 1442SOL    HW216386   0.144   8.876   2.762 -0.4969  0.0849  0.5192
 1443SOL     OW16387   1.195   2.047   5.870  0.1438 -0.7628  0.0718
 1443SOL    HW116388   1.142   1.980   5.818  0.4749 -0.8630 -0.1415
 1443SOL    HW216389   1.134   2.103   5.925 -0.1598 -1.0555  0.0332
 1444SOL     OW16390   3.673   3.116   0.775  0.3337 -0.3087 -0.3234
 1444SOL    HW116391   3.603   3.150   0.712 -2.0706 -2.0417  1.2662
 1444SOL    HW216392   3.661   3.160   0.864  0.6980 -1.2540  0.2025
 1445SOL     OW16393   1.382   3.434   3.145 -0.2681  0.5097 -0.4823
 1445SOL    HW116394   1.298   3.434   3.091 -0.0734  0.2554 -0.7827
 1445SOL    HW216395   1.359   3.420   3.241 -0.5082 -0.3702 -0.6640
 1446SOL     OW16396   3.346   3.757   1.074 -0.4574 -0.1948 -0.0553
 1446SOL    HW116397   3.357   3.810   0.990  2.2222 -0.5937  0.0016
 1446SOL    HW216398   3.314   3.817   1.147  0.7474  0.9287 -0.4471
 1447SOL     OW16399   5.082   3.280   8.901 -0.4299  0.1446 -0.3613
 1447SOL    HW116400   5.040   3.341   8.834  1.9357  1.6999 -0.4997
 1447SOL    HW216401   5.029   3.283   8.986 -0.4570  2.3150 -0.4209
 1448SOL     OW16402   1.646   9.617   7.012  0.1014 -0.7903 -0.1293
 1448SOL    HW116403   1.589   9.578   7.085  1.0827 -0.7746  0.6515
 1448SOL    HW216404   1.621   9.576   6.925 -0.7869 -1.1257  0.2720
 1449SOL     OW16405   7.594   9.779   1.296  0.4504  0.0498 -0.0343
 1449SOL    HW116406   7.660   9.739   1.233 -0.3887 -0.2132 -0.7636
 1449SOL    HW216407   7.507   9.730   1.289  0.1281  0.4758  0.8127
 1450SOL     OW16408   3.777   8.686   6.507  0.0683  0.5860  0.0090
 1450SOL    HW116409   3.861   8.668   6.560  0.6385  0.5639 -0.8897
 1450SOL    HW216410   3.792   8.764   6.447 -1.7523  2.8868  2.4472
 1451SOL     OW16411   8.728   1.343   2.944 -0.1329  0.6392  0.3755
 1451SOL    HW116412   8.710   1.248   2.970  0.8977 -0.1061 -1.6000
 1451SOL    HW216413   8.641   1.392   2.933 -0.6876 -0.3871  0.1908
 1452SOL     OW16414   9.997   5.239   4.599  0.4959  0.4366  0.2084
 1452SOL    HW116415  10.030   5.226   4.692 -1.0630 -0.0167  0.7201
 1452SOL    HW216416  10.008   5.335   4.572  0.3294  0.7121  1.1140
 1453SOL     OW16417   6.416   2.381   0.684 -0.1113 -0.4350  0.1419
 1453SOL    HW116418   6.468   2.419   0.761 -0.4581 -0.8280  0.5779
 1453SOL    HW216419   6.366   2.454   0.638 -0.1572 -0.2422  0.4911
 1454SOL     OW16420   7.693   7.467   5.064 -0.0690  0.0981  0.6067
 1454SOL    HW116421   7.659   7.395   5.126 -0.2063 -0.3022  0.0662
 1454SOL    HW216422   7.730   7.542   5.119  1.3750 -1.0060  1.1948
 1455SOL     OW16423   2.141   1.293   1.353 -0.2657 -0.1226  0.0055
 1455SOL    HW116424   2.121   1.351   1.274 -0.3502 -2.8808 -2.0710
 1455SOL    HW216425   2.058   1.277   1.405 -0.8884 -0.9741 -1.2333
 1456SOL     OW16426   0.068   6.120   0.590 -0.1175 -0.2354 -0.3775
 1456SOL    HW116427   0.090   6.215   0.566  0.8392 -0.4892 -0.5530
 1456SOL    HW216428  -0.017   6.117   0.642 -0.1196  0.7217 -0.3191
 1457SOL     OW16429   0.055   9.304   8.880  0.2048  0.1002  0.2107
 1457SOL    HW116430   0.127   9.235   8.881  0.5272  0.4434  1.8122
 1457SOL    HW216431  -0.026   9.268   8.926  0.0308  0.4357  0.1695
 1458SOL     OW16432   2.069   1.444   1.137  0.2076  0.1364 -0.0729
 1458SOL    HW116433   1.983   1.400   1.162 -0.3467  1.8143  1.0491
 1458SOL    HW216434   2.061   1.485   1.046  0.1570 -0.5769 -0.3912
 1459SOL     OW16435   1.879   5.293   8.677 -0.1149 -0.4824  0.1833
 1459SOL    HW116436   1.918   5.369   8.729  1.6186  0.3992 -2.3352
 1459SOL    HW216437   1.937   5.212   8.688  1.4409  0.3056 -2.0667
 1460SOL     OW16438   1.602   0.435   0.559 -0.2349 -0.1349  0.1060
 1460SOL    HW116439   1.658   0.358   0.591  1.5443 -0.2883 -3.1259
 1460SOL    HW216440   1.531   0.400   0.496 -0.2182  0.7120 -0.3899
 1461SOL     OW16441   9.371   0.035   7.756  0.3586 -0.5158  0.2523
 1461SOL    HW116442   9.407   0.047   7.663 -1.1151 -0.1637 -0.2945
 1461SOL    HW216443   9.438  -0.014   7.812  0.7677 -1.8114 -1.3322
 1462SOL     OW16444   5.351   8.491   5.717  0.1316 -0.4075 -0.1735
 1462SOL    HW116445   5.334   8.583   5.752  1.0858  0.4716 -1.9338
 1462SOL    HW216446   5.420   8.446   5.774 -0.9042 -0.3447  1.1551
 1463SOL     OW16447   0.470   4.843   2.544 -0.7560 -0.2552  0.2624
 1463SOL    HW116448   0.496   4.882   2.455 -0.1676 -0.5108  0.3205
 1463SOL    HW216449   0.534   4.876   2.614 -1.8124  0.7397  0.7672
 1464SOL     OW16450   5.878   0.239   6.117  0.3637 -0.6101  0.2019
 1464SOL    HW116451   5.967   0.259   6.076 -0.2467  0.6170 -0.5742
 1464SOL    HW216452   5.863   0.301   6.194 -0.1768 -0.2119 -0.2171
 1465SOL     OW16453   8.157   0.926   3.614  0.5849 -0.1498 -0.3362
 1465SOL    HW116454   8.113   0.902   3.527  1.9083  0.2567 -1.1322
 1465SOL    HW216455   8.184   0.842   3.662  0.3445 -0.3651 -0.5767
 1466SOL     OW16456   9.579   3.352   8.689  0.1096 -0.1038  0.1904
 1466SOL    HW116457   9.556   3.314   8.599 -0.0109  1.1086 -0.2927
 1466SOL    HW216458   9.497   3.390   8.731  0.4709  0.7539  0.1276
 1467SOL     OW16459   9.985   3.327   8.492  0.1335 -0.1747 -0.4094
 1467SOL    HW116460  10.020   3.233   8.495 -1.4782 -0.7969 -0.0188
 1467SOL    HW216461  10.057   3.389   8.464  1.4987 -1.3981  0.3324
 1468SOL     OW16462   6.234   1.381   3.568  0.7928 -0.6519 -0.3068
 1468SOL    HW116463   6.167   1.307   3.567 -0.1012  0.0066  3.2781
 1468SOL    HW216464   6.326   1.342   3.581  0.4246 -1.2122  0.6933
 1469SOL     OW16465   1.064   3.101   0.418  0.6201 -0.4264  0.0887
 1469SOL    HW116466   1.111   3.048   0.489  0.2239 -0.2794  0.4560
 1469SOL    HW216467   1.132   3.135   0.353  0.8853 -1.3859 -0.1589
 1470SOL     OW16468   2.476   2.277   7.885 -0.3884  0.1888 -0.0518
 1470SOL    HW116469   2.455   2.251   7.791 -3.0110  0.4028  0.4222
 1470SOL    HW216470   2.438   2.368   7.904 -1.4963 -0.6024  1.7170
 1471SOL     OW16471   5.170   9.083   5.923 -0.6029 -0.2095  0.2013
 1471SOL    HW116472   5.173   9.152   5.851 -2.7640 -0.2142  0.0897
 1471SOL    HW216473   5.216   9.119   6.005 -0.8707  0.9844 -0.1640
 1472SOL     OW16474   1.929   8.372   5.310  0.3138  0.2902 -0.6702
 1472SOL    HW116475   1.987   8.308   5.258  0.0503  1.4999 -2.5038
 1472SOL    HW216476   1.984   8.416   5.381  1.5834  1.1955 -2.1835
 1473SOL     OW16477   2.055   7.577   1.497  0.3460  0.2457  0.0932
 1473SOL    HW116478   1.997   7.570   1.578  1.2765 -0.3866  0.7201
 1473SOL    HW216479   2.141   7.530   1.514  0.7298  0.4947 -1.1114
 1474SOL     OW16480   0.604   3.269   8.270 -0.1038  0.5581  0.0712
 1474SOL    HW116481   0.701   3.275   8.294 -0.6673  0.8641  2.3881
 1474SOL    HW216482   0.568   3.361   8.255 -0.8115  0.7100  2.5387
 1475SOL     OW16483   1.498   5.270   3.585  0.0585 -0.4007  0.1251
 1475SOL    HW116484   1.521   5.361   3.549  1.3074 -1.0181 -0.6706
 1475SOL    HW216485   1.500   5.273   3.685  0.2672  0.4028  0.1017
 1476SOL     OW16486   0.766   2.711   0.649 -0.3869  0.3214  0.0655
 1476SOL    HW116487   0.675   2.682   0.678  1.0003 -4.2657  0.1071
 1476SOL    HW216488   0.764   2.735   0.552 -1.3793 -0.8445 -0.2053
 1477SOL     OW16489   7.440   5.614   9.881  0.4616  0.4252  0.2596
 1477SOL    HW116490   7.500   5.536   9.897  1.6397  1.1165 -0.6755
 1477SOL    HW216491   7.435   5.670   9.964 -0.2575 -0.5401  0.8793
 1478SOL     OW16492   4.172   9.087   7.448  0.3346  0.4782 -0.4226
 1478SOL    HW116493   4.251   9.147   7.437  0.1655  0.5710 -1.1301
 1478SOL    HW216494   4.096   9.139   7.488 -0.0515  0.9290 -1.7263
 1479SOL     OW16495   1.655   1.450   4.658  0.0250 -0.3612  0.3044
 1479SOL    HW116496   1.694   1.384   4.593  0.6232  0.2700  0.0156
 1479SOL    HW216497   1.556   1.456   4.645 -0.0964 -1.5157  0.6174
 1480SOL     OW16498   0.191   0.139   7.068 -0.0705  0.3025  0.0513
 1480SOL    HW116499   0.143   0.203   7.007  0.3807  0.3514 -0.2567
 1480SOL    HW216500   0.136   0.123   7.150 -0.1266  1.1914  0.1920
 1481SOL     OW16501   3.748   4.868   8.859  0.1197 -0.1713  0.0915
 1481SOL    HW116502   3.830   4.898   8.908 -0.9048 -0.1213  1.7807
 1481SOL    HW216503   3.727   4.774   8.885 -1.2600  0.3422  0.8391
 1482SOL     OW16504   0.425   4.651   4.544  0.0154  0.1643  0.2060
 1482SOL    HW116505   0.400   4.577   4.607  2.7902 -1.3992 -0.4548
 1482SOL    HW216506   0.343   4.703   4.520 -1.7265 -1.6434  2.0114
 1483SOL     OW16507   6.656   7.725   4.530  0.0925 -0.3630  0.0137
 1483SOL    HW116508   6.735   7.706   4.472 -0.0286 -0.4725 -0.1191
 1483SOL    HW216509   6.683   7.781   4.608 -0.0297  1.1500 -0.9991
 1484SOL     OW16510   9.299   0.514   8.952  0.3700  0.0711  0.1031
 1484SOL    HW116511   9.355   0.593   8.927  0.4471 -0.3094 -0.9530
 1484SOL    HW216512   9.329   0.434   8.901  0.3209 -0.6653  1.1966
 1485SOL     OW16513   6.990   5.561   1.952 -0.3858 -0.8565 -0.5465
 1485SOL    HW116514   7.061   5.612   2.000  1.2134 -1.9702 -1.6953
 1485SOL    HW216515   7.018   5.546   1.857 -2.0538 -1.5113 -0.9480
 1486SOL     OW16516   9.927   5.136   8.577  0.0355  0.3376  0.3628
 1486SOL    HW116517   9.999   5.166   8.641 -0.9760 -0.2343  1.7961
 1486SOL    HW216518   9.884   5.216   8.536  2.2636  0.6815 -1.4162
 1487SOL     OW16519   6.905   0.762   8.127  0.4871 -0.0802  0.0861
 1487SOL    HW116520   6.872   0.671   8.153 -2.3194  0.4579 -1.4179
 1487SOL    HW216521   6.930   0.813   8.210 -0.7039 -1.2048  1.1634
 1488SOL     OW16522   2.664   3.139   8.866 -0.0782  0.0984 -0.1249
 1488SOL    HW116523   2.636   3.091   8.949  1.1824 -0.3120  0.0735
 1488SOL    HW216524   2.623   3.095   8.786  1.1463 -1.4017  0.0417
 1489SOL     OW16525   1.183   2.927   7.931 -0.3358  0.6739 -0.4290
 1489SOL    HW116526   1.196   2.900   8.026  0.9388 -1.7317 -1.2218
 1489SOL    HW216527   1.270   2.959   7.893 -0.5477  0.4349 -1.1243
 1490SOL     OW16528   4.905   6.836   2.164  0.6843  0.0916 -0.0456
 1490SOL    HW116529   4.881   6.897   2.089 -0.1429  2.5192  2.0783
 1490SOL    HW216530   4.988   6.870   2.209 -1.1029  1.0960  2.6213
 1491SOL     OW16531   0.826   2.648   9.988  0.0265 -0.2507 -0.1124
 1491SOL    HW116532   0.832   2.570  10.050  2.4498  1.7747  2.2944
 1491SOL    HW216533   0.748   2.705  10.013 -0.1952 -0.5039 -0.2240
 1492SOL     OW16534   3.070   5.506   8.504  0.4963 -0.3360  0.2167
 1492SOL    HW116535   3.152   5.448   8.502 -0.3135 -1.4977 -0.0888
 1492SOL    HW216536   3.017   5.491   8.420 -0.7233 -0.6265  1.0211
 1493SOL     OW16537   1.484   4.376   6.186  1.1430  0.4497 -0.1527
 1493SOL    HW116538   1.443   4.385   6.277 -0.5084 -0.3450 -0.7990
 1493SOL    HW216539   1.522   4.464   6.158 -0.1570  1.2138  0.4582
 1494SOL     OW16540   3.911   0.803   3.002 -0.1513 -0.1404 -0.3759
 1494SOL    HW116541   3.816   0.808   3.033 -0.1480 -0.9035 -0.2547
 1494SOL    HW216542   3.913   0.806   2.902 -0.2212  1.2096 -0.3492
 1495SOL     OW16543   0.506   8.773   9.985 -0.0239 -0.2762  0.0358
 1495SOL    HW116544   0.545   8.682   9.999 -1.8555 -0.8595  1.6452
 1495SOL    HW216545   0.530   8.832  10.062  0.5354  0.3813 -0.6401
 1496SOL     OW16546   9.845   9.805   4.949 -0.5094 -0.0798  0.6665
 1496SOL    HW116547   9.819   9.712   4.977 -0.3043  0.0977  1.4658
 1496SOL    HW216548   9.931   9.830   4.993  1.2354 -0.7932 -2.2351
 1497SOL     OW16549   0.191   3.398   6.337 -0.1331 -0.1735  0.1664
 1497SOL    HW116550   0.235   3.483   6.310 -0.2802 -0.2443 -0.3206
 1497SOL    HW216551   0.096   3.398   6.304  0.1201 -0.8812 -0.5933
 1498SOL     OW16552   2.695   2.003   5.170  0.2259  0.2230 -0.0234
 1498SOL    HW116553   2.618   1.943   5.148 -0.2081  0.7820 -0.0441
 1498SOL    HW216554   2.662   2.080   5.225  0.5559  1.1260 -1.0882
 1499SOL     OW16555   7.416   7.105   2.768 -0.1738 -0.0301  0.2199
 1499SOL    HW116556   7.482   7.038   2.733 -0.1611  0.0316  0.1233
 1499SOL    HW216557   7.450   7.144   2.853  0.6424  1.0951 -0.5925
 1500SOL     OW16558   1.314   0.771   2.769  0.1728  0.2658  0.7851
 1500SOL    HW116559   1.293   0.804   2.861 -1.1762  1.0985  0.1865
 1500SOL    HW216560   1.360   0.844   2.717  0.3458  0.0125  0.5809
 1501SOL     OW16561   7.302   5.442   2.196 -0.0497  1.1491  0.6695
 1501SOL    HW116562   7.273   5.374   2.129  0.5948  1.6373 -0.1143
 1501SOL    HW216563   7.299   5.533   2.155  1.0486  1.3752  1.0661
 1502SOL     OW16564   6.759   8.477   3.286 -0.1056 -0.2134 -0.3413
 1502SOL    HW116565   6.836   8.417   3.266  0.3413  0.1308  0.3329
 1502SOL    HW216566   6.675   8.438   3.248  0.0687 -1.6231  0.6901
 1503SOL     OW16567   3.657   2.291   8.984 -0.0476 -0.3396 -0.3977
 1503SOL    HW116568   3.559   2.274   8.975 -0.2513  0.3585  0.4590
 1503SOL    HW216569   3.680   2.303   9.080  0.8660 -0.4131 -0.6050
 1504SOL     OW16570   5.533   9.081   4.729 -0.2826  0.3926 -0.0433
 1504SOL    HW116571   5.570   9.053   4.817  2.5848  1.6910 -0.7752
 1504SOL    HW216572   5.547   9.180   4.717 -1.3817  0.3790 -1.6033
 1505SOL     OW16573   4.437   0.159   5.917 -0.6410 -0.1091 -0.1016
 1505SOL    HW116574   4.388   0.195   5.996  1.2496  0.4047  0.8550
 1505SOL    HW216575   4.381   0.172   5.835 -2.1399  0.3657  0.9593
 1506SOL     OW16576   4.039   2.534  10.033 -0.7194 -0.2801 -0.0913
 1506SOL    HW116577   4.084   2.566   9.949  0.8450 -2.1336  0.0050
 1506SOL    HW216578   4.082   2.578  10.111 -1.4556  0.6313 -0.1935
 1507SOL     OW16579   4.148   0.472   3.753 -0.3006  0.0719 -0.3799
 1507SOL    HW116580   4.238   0.435   3.775 -1.0904 -0.5456  1.8735
 1507SOL    HW216581   4.106   0.417   3.680  0.6059 -0.4015 -0.5520
 1508SOL     OW16582   0.347   3.185   6.228  0.2551  0.5178  0.6127
 1508SOL    HW116583   0.383   3.149   6.314 -3.0694 -3.0772  0.6005
 1508SOL    HW216584   0.288   3.264   6.247 -0.7552 -0.4820  1.6819
 1509SOL     OW16585   9.988   9.055   7.395 -0.5310 -0.2995 -0.2291
 1509SOL    HW116586   9.970   9.142   7.441  0.4988 -0.3716  0.3180
 1509SOL    HW216587  10.001   9.071   7.297  3.1119  0.6520  0.3506
 1510SOL     OW16588   1.420   4.045   9.214  0.1288  0.2858  0.0485
 1510SOL    HW116589   1.518   4.045   9.232  0.2493 -2.6121 -0.3513
 1510SOL    HW216590   1.372   4.014   9.297 -0.3605  0.7264 -0.0746
 1511SOL     OW16591   9.543   4.466   9.084  0.0754 -0.3004 -0.0635
 1511SOL    HW116592   9.487   4.547   9.099  0.4900  0.0463 -0.3733
 1511SOL    HW216593   9.639   4.488   9.102  0.3822 -0.3073 -1.6545
 1512SOL     OW16594   4.957   6.420   0.338 -0.4693  0.1777  0.3429
 1512SOL    HW116595   4.877   6.403   0.281 -0.4962 -1.1453  0.7768
 1512SOL    HW216596   4.952   6.514   0.374 -1.8255  0.1007  0.3886
 1513SOL     OW16597   8.486   0.794   9.933 -0.0971 -0.3026 -0.1470
 1513SOL    HW116598   8.428   0.734   9.989  0.1567 -0.5806 -0.1796
 1513SOL    HW216599   8.489   0.885   9.975 -1.9848  0.2236 -1.0996
 1514SOL     OW16600   2.636   3.363   3.415  0.3627 -0.4182 -0.1306
 1514SOL    HW116601   2.556   3.415   3.384 -0.2969 -0.1500  1.9410
 1514SOL    HW216602   2.660   3.294   3.347 -0.8537  0.3235 -1.3356
 1515SOL     OW16603   9.646   4.162   6.841  0.4503  0.3104  0.0394
 1515SOL    HW116604   9.721   4.227   6.844  1.4630 -0.8617  0.2834
 1515SOL    HW216605   9.667   4.084   6.900 -0.4039 -0.6181 -0.8810
 1516SOL     OW16606   9.299   6.863   8.409 -0.0815 -0.2205 -0.0824
 1516SOL    HW116607   9.279   6.775   8.450 -0.5176 -0.4050 -0.6812
 1516SOL    HW216608   9.394   6.866   8.379  0.6432  0.4195  2.1845
 1517SOL     OW16609   1.983   1.001   9.987 -0.2098  0.5559 -0.0856
 1517SOL    HW116610   1.938   0.914  10.007 -0.3837  1.1427  2.2144
 1517SOL    HW216611   2.082   0.987   9.987 -0.2642  0.1050 -1.0505
 1518SOL     OW16612   0.074   6.302   1.769 -0.1398 -0.3478 -0.4030
 1518SOL    HW116613   0.008   6.334   1.837  0.8964 -0.1255  0.5056
 1518SOL    HW216614   0.036   6.223   1.721 -1.2121 -0.0070 -0.1384
 1519SOL     OW16615   0.041   6.245   7.348  0.2886 -0.1185 -0.5142
 1519SOL    HW116616  -0.001   6.318   7.294  1.0219 -0.2562 -1.2659
 1519SOL    HW216617  -0.028   6.206   7.409 -0.4474  0.2873 -1.0766
 1520SOL     OW16618   7.702   6.201   1.116  0.4996  0.3621 -0.3849
 1520SOL    HW116619   7.792   6.216   1.156 -0.3013  0.7357  1.3086
 1520SOL    HW216620   7.712   6.183   1.018  2.4414 -0.0267 -0.1412
 1521SOL     OW16621   3.002   8.673   5.396  0.5105  0.2745 -0.5747
 1521SOL    HW116622   3.082   8.657   5.338  1.1032  1.1404 -0.0008
 1521SOL    HW216623   2.920   8.642   5.348  0.8756  1.8381 -2.2666
 1522SOL     OW16624   7.627   8.346   3.701 -0.2272  0.4327  0.4013
 1522SOL    HW116625   7.674   8.375   3.618 -0.1780  1.7035  0.8524
 1522SOL    HW216626   7.529   8.358   3.690 -0.4043 -1.4334 -0.2375
 1523SOL     OW16627   9.406   6.528   9.399  0.1250  0.0783  0.4914
 1523SOL    HW116628   9.465   6.553   9.322 -1.0196 -2.7295 -1.3905
 1523SOL    HW216629   9.464   6.504   9.478  1.4123  0.0870 -0.4301
 1524SOL     OW16630   5.944   8.141   4.988 -0.1113 -0.2001 -0.2767
 1524SOL    HW116631   5.906   8.224   5.028  0.9061  0.3324 -0.3780
 1524SOL    HW216632   5.916   8.134   4.892 -0.9252 -0.4419 -0.0246
 1525SOL     OW16633   7.081   1.775   3.594 -0.6062  0.0935  0.3315
 1525SOL    HW116634   7.026   1.746   3.516  0.1419 -1.6147  0.4102
 1525SOL    HW216635   7.031   1.756   3.679  0.2607 -1.8952  0.4234
 1526SOL     OW16636   8.637   8.849   0.296 -0.1180 -0.0494 -0.3335
 1526SOL    HW116637   8.538   8.836   0.292 -0.3285  1.4186 -0.3889
 1526SOL    HW216638   8.665   8.916   0.227  1.2971 -2.3867 -2.1382
 1527SOL     OW16639   5.379   3.950   7.926 -0.4221  0.2710 -1.1166
 1527SOL    HW116640   5.359   3.920   7.833  1.0187 -1.9639 -0.7618
 1527SOL    HW216641   5.348   3.880   7.991 -0.2238  1.1978 -0.0100
 1528SOL     OW16642   3.137   0.772   1.969 -0.2223  0.4096 -0.1571
 1528SOL    HW116643   3.114   0.703   2.037  0.4701  0.6183  0.3017
 1528SOL    HW216644   3.165   0.856   2.016  0.1887  0.5758 -0.6973
 1529SOL     OW16645   6.607   0.080   3.475 -0.0391 -0.2486  0.2196
 1529SOL    HW116646   6.622   0.144   3.550  0.4800 -0.3178  0.1755
 1529SOL    HW216647   6.693   0.062   3.428 -0.1687 -1.0392  0.2812
 1530SOL     OW16648   2.095   3.579   0.349 -0.6059 -0.7407  0.0173
 1530SOL    HW116649   2.102   3.556   0.446  0.5618 -0.2666  0.0483
 1530SOL    HW216650   2.052   3.504   0.300  1.2385 -2.1307  0.4676
 1531SOL     OW16651   4.511   2.724   1.825 -0.0926  0.0882 -0.3006
 1531SOL    HW116652   4.548   2.751   1.736  0.4503  0.3286 -0.0041
 1531SOL    HW216653   4.445   2.793   1.855  0.6497  0.6497  0.0546
 1532SOL     OW16654   8.919   6.972   1.132 -0.2553 -0.2799  0.2719
 1532SOL    HW116655   8.821   6.990   1.131 -0.5860 -2.0683  0.0606
 1532SOL    HW216656   8.964   7.035   1.196 -1.4394  0.9630 -0.0951
 1533SOL     OW16657   9.976   0.005   1.624 -0.1562 -0.0288  0.3942
 1533SOL    HW116658   9.880   0.030   1.636 -0.6101 -1.9989  1.0588
 1533SOL    HW216659  10.032   0.056   1.689 -1.0424 -0.5881  1.6110
 1534SOL     OW16660   3.052   2.913   8.767  0.1129  0.5439  0.2184
 1534SOL    HW116661   3.038   2.867   8.855  1.3008 -0.4118 -0.0794
 1534SOL    HW216662   3.061   3.011   8.782  0.6002  0.3524  1.1966
 1535SOL     OW16663   7.691   9.424   5.056  0.6397  0.1440  0.0115
 1535SOL    HW116664   7.626   9.483   5.104 -0.0496  0.6186 -1.4676
 1535SOL    HW216665   7.643   9.345   5.017  0.4851  1.5977 -2.9329
 1536SOL     OW16666   0.653   6.299   7.317 -0.1405  0.2115  0.0547
 1536SOL    HW116667   0.712   6.324   7.394 -0.7700 -0.3010  0.7108
 1536SOL    HW216668   0.576   6.363   7.312 -1.8840 -1.6235  1.8814
 1537SOL     OW16669   2.145   7.212   4.631  0.3317  0.1904  0.6270
 1537SOL    HW116670   2.051   7.184   4.651  0.2733  0.4833  0.7678
 1537SOL    HW216671   2.205   7.132   4.634 -0.1734 -0.2627 -1.0532
 1538SOL     OW16672   1.139   9.010   1.411  0.7436 -0.3472 -0.9458
 1538SOL    HW116673   1.092   8.971   1.490 -0.0014  2.3920  0.0445
 1538SOL    HW216674   1.222   8.958   1.392  0.8143 -1.1942  1.5083
 1539SOL     OW16675   7.025   2.610   4.244 -0.3226 -0.1949  0.5052
 1539SOL    HW116676   7.100   2.560   4.288 -0.6510 -0.0315  1.2424
 1539SOL    HW216677   7.061   2.693   4.202 -0.1001 -0.0877  0.9080
 1540SOL     OW16678   1.134   7.649   0.413  0.9988  0.0027  0.2843
 1540SOL    HW116679   1.101   7.577   0.353  0.0038 -0.5503  1.4789
 1540SOL    HW216680   1.231   7.667   0.394  0.8915 -0.7009 -0.9336
 1541SOL     OW16681   3.355   5.401   0.170  0.3076  0.2098  0.4669
 1541SOL    HW116682   3.433   5.461   0.154  0.1748  0.2792  0.0849
 1541SOL    HW216683   3.382   5.306   0.154  0.2515  0.2539  0.1247
 1542SOL     OW16684   4.135   5.924   1.204  0.4415 -0.3023  0.3542
 1542SOL    HW116685   4.169   5.848   1.259  1.9717 -0.2072 -0.4187
 1542SOL    HW216686   4.100   5.995   1.265 -0.7676 -1.5074  1.0849
 1543SOL     OW16687   3.710   0.667   8.685 -0.3980  0.2137  0.3211
 1543SOL    HW116688   3.798   0.633   8.717 -1.0458  0.2806  2.2355
 1543SOL    HW216689   3.718   0.764   8.661  0.3136 -0.0720 -0.6385
 1544SOL     OW16690   4.171   0.858   1.007  0.1892 -0.5398 -0.3034
 1544SOL    HW116691   4.160   0.847   1.105 -0.4627 -0.3285 -0.3499
 1544SOL    HW216692   4.263   0.829   0.980  0.5277 -0.1644  0.4350
 1545SOL     OW16693   1.996   9.681   2.329  0.0074 -0.3593  0.5743
 1545SOL    HW116694   1.969   9.611   2.395  1.9155  0.6948  2.5677
 1545SOL    HW216695   2.087   9.658   2.293 -0.1637  0.1342 -0.1708
 1546SOL     OW16696   0.703   4.783   9.633 -0.4208 -0.1458 -0.0282
 1546SOL    HW116697   0.798   4.812   9.641 -0.6991  1.5991 -2.3509
 1546SOL    HW216698   0.694   4.717   9.558 -0.9800 -0.5750  0.4108
 1547SOL     OW16699   6.596   3.958   8.371 -0.2356  0.3739  0.2876
 1547SOL    HW116700   6.586   3.937   8.468 -0.0868  1.5521  0.5646
 1547SOL    HW216701   6.650   4.041   8.360 -0.2276  0.2354 -0.8085
 1548SOL     OW16702   0.297   4.714   9.857 -0.1329 -0.4779 -0.2266
 1548SOL    HW116703   0.345   4.773   9.792  1.2501 -1.4079 -0.0674
 1548SOL    HW216704   0.298   4.756   9.948  1.3741 -1.0211  0.0125
 1549SOL     OW16705   9.788   9.429   6.136 -0.2041 -0.3523  0.2001
 1549SOL    HW116706   9.747   9.473   6.056 -1.2870 -0.1902  0.8345
 1549SOL    HW216707   9.865   9.372   6.107  0.9869  1.6646 -0.6625
 1550SOL     OW16708   0.926   4.926   4.763  0.8544 -0.0185 -0.6400
 1550SOL    HW116709   0.967   4.985   4.693 -0.8001  2.2012  0.1996
 1550SOL    HW216710   0.949   4.830   4.744  3.9870  0.9222 -1.7666
 1551SOL     OW16711   8.805   5.156   0.804 -0.3551  0.4954  0.0205
 1551SOL    HW116712   8.797   5.188   0.710 -0.5375  1.0221  0.2108
 1551SOL    HW216713   8.714   5.152   0.846 -0.3204 -0.1703  0.0362
 1552SOL     OW16714   7.446   0.779   5.311 -0.3469  0.3670 -0.0692
 1552SOL    HW116715   7.461   0.878   5.298 -0.8224  0.4398 -0.0713
 1552SOL    HW216716   7.535   0.732   5.313 -0.1113  0.8124  0.0773
 1553SOL     OW16717   8.791   7.286   8.485  0.2020 -0.4983  0.0633
 1553SOL    HW116718   8.775   7.190   8.464  1.1305 -0.2525 -1.8418
 1553SOL    HW216719   8.819   7.295   8.581 -2.1497 -1.8506  0.9062
 1554SOL     OW16720   9.315   3.638   1.141  0.0196  0.5514  0.4383
 1554SOL    HW116721   9.261   3.718   1.114  0.5868  0.9365  0.4422
 1554SOL    HW216722   9.401   3.637   1.090 -0.1707 -0.2927  0.1227
 1555SOL     OW16723   7.391   0.927   0.272  0.3595 -0.3650 -0.1821
 1555SOL    HW116724   7.364   0.891   0.361 -0.4290  2.6820  0.8843
 1555SOL    HW216725   7.490   0.941   0.271  0.2166  0.8284  0.7402
 1556SOL     OW16726   8.090   4.531   5.751  0.1222 -0.2930  0.1505
 1556SOL    HW116727   8.042   4.501   5.668 -2.0358 -1.0362  1.6204
 1556SOL    HW216728   8.059   4.476   5.829  1.7646  0.7089  1.5450
 1557SOL     OW16729   3.792   8.481   2.020 -0.2615 -0.6907 -0.3754
 1557SOL    HW116730   3.750   8.454   1.933 -1.1865 -1.1048  0.1895
 1557SOL    HW216731   3.774   8.578   2.037 -0.0339 -0.5965 -0.6715
 1558SOL     OW16732   4.559   3.602   5.317 -0.6957 -0.2388  0.2168
 1558SOL    HW116733   4.628   3.594   5.246 -0.0892  0.0565  0.7655
 1558SOL    HW216734   4.489   3.668   5.290 -1.2667 -1.2298 -0.7418
 1559SOL     OW16735   0.487   6.445   8.243  0.3500 -0.3524 -0.5950
 1559SOL    HW116736   0.392   6.433   8.272  0.5504  1.3604  0.8378
 1559SOL    HW216737   0.491   6.510   8.167  0.5161  0.8390  0.4214
 1560SOL     OW16738   8.890   0.628   0.866 -0.5330 -0.0323 -0.6369
 1560SOL    HW116739   8.867   0.543   0.913  0.9757 -0.8930 -1.4251
 1560SOL    HW216740   8.912   0.609   0.770 -0.5279  1.2825 -0.9034
 1561SOL     OW16741   8.176   5.309   7.810  0.2814 -0.0261 -0.2096
 1561SOL    HW116742   8.177   5.272   7.903 -1.8395  0.5206  0.0653
 1561SOL    HW216743   8.152   5.237   7.745  0.1217 -0.0352 -0.1404
 1562SOL     OW16744   9.423   1.232   3.623 -0.5138 -0.5460 -0.0237
 1562SOL    HW116745   9.361   1.227   3.701  0.7280  0.9737  1.0943
 1562SOL    HW216746   9.493   1.161   3.631 -1.1386 -1.2109 -0.4301
 1563SOL     OW16747   1.011   3.703   2.357  0.2611  0.1468 -0.2071
 1563SOL    HW116748   1.012   3.753   2.444  0.8000 -1.2551  0.5974
 1563SOL    HW216749   1.102   3.710   2.315  0.6420 -1.0120  0.4069
 1564SOL     OW16750   1.277   6.405   5.179 -0.2815  0.1311  0.1849
 1564SOL    HW116751   1.232   6.473   5.120  0.6975  1.0531  0.4756
 1564SOL    HW216752   1.318   6.334   5.122 -1.9310 -0.6122 -0.0891
 1565SOL     OW16753   2.595   9.204   6.650 -0.8952  0.2539  0.2673
 1565SOL    HW116754   2.572   9.299   6.674  1.9520  1.1305 -0.2709
 1565SOL    HW216755   2.645   9.162   6.725  0.2008  0.0784 -0.5474
 1566SOL     OW16756   2.956   4.057   2.574  1.1668  0.2768 -0.2202
 1566SOL    HW116757   3.051   4.032   2.554  0.7149  0.0470 -2.1314
 1566SOL    HW216758   2.897   4.026   2.500 -0.4231  0.3955  0.9670
 1567SOL     OW16759   7.309   8.572   5.545 -0.2484  0.0418 -0.0215
 1567SOL    HW116760   7.318   8.666   5.512 -0.4838  0.7407  1.8129
 1567SOL    HW216761   7.212   8.546   5.544 -0.2421  0.0202 -0.0311
 1568SOL     OW16762   0.034   4.428   1.918  0.6209  0.7355  0.0978
 1568SOL    HW116763   0.030   4.514   1.969 -1.9563  0.3983  0.5239
 1568SOL    HW216764  -0.022   4.435   1.836  0.3345 -0.5751  0.1765
 1569SOL     OW16765   1.981   2.218   7.389 -0.2706 -0.0955  0.2906
 1569SOL    HW116766   1.953   2.280   7.316  0.1796 -0.1306  0.0885
 1569SOL    HW216767   1.946   2.126   7.370 -1.1389  0.1451  0.7117
 1570SOL     OW16768   5.546   1.272   4.075  0.1027 -0.2371  0.0089
 1570SOL    HW116769   5.463   1.248   4.126 -0.3467 -0.8638 -1.0058
 1570SOL    HW216770   5.599   1.339   4.127 -1.0015  0.1082  0.6998
 1571SOL     OW16771   6.420   7.308   5.209  0.4401 -0.6108 -0.1320
 1571SOL    HW116772   6.429   7.245   5.287  2.1239  1.1432  1.1529
 1571SOL    HW216773   6.503   7.303   5.153  0.4004  0.1278 -0.2593
 1572SOL     OW16774   7.801   6.277   5.835 -0.4547  0.2920  0.0587
 1572SOL    HW116775   7.866   6.253   5.906 -1.8988 -0.6983  1.0833
 1572SOL    HW216776   7.751   6.195   5.806 -0.3684  0.8098 -1.6063
 1573SOL     OW16777   0.890   5.412   8.588  0.0710  0.0475 -0.7572
 1573SOL    HW116778   0.931   5.491   8.632 -0.2970  0.9787 -2.0608
 1573SOL    HW216779   0.813   5.380   8.643  0.8660 -0.0561  0.3081
 1574SOL     OW16780   6.015   1.100   0.908 -0.0014  0.4611 -0.0914
 1574SOL    HW116781   5.966   1.183   0.882 -0.4781  0.3500  0.4279
 1574SOL    HW216782   6.036   1.046   0.826 -0.2192  0.8038 -0.3737
 1575SOL     OW16783   8.627   1.909   8.944 -0.0738  0.4241  0.3115
 1575SOL    HW116784   8.613   1.919   8.845 -0.1913 -0.9942  0.1702
 1575SOL    HW216785   8.711   1.857   8.960 -0.7196 -0.4385  0.9293
 1576SOL     OW16786   7.774   3.816   2.041 -0.3678  0.2272  0.1907
 1576SOL    HW116787   7.800   3.902   2.085 -0.4815  0.3007  0.1150
 1576SOL    HW216788   7.793   3.822   1.943  2.2394 -0.8517  0.6038
 1577SOL     OW16789   1.793   5.661   9.029  0.3492 -0.2052  0.4832
 1577SOL    HW116790   1.851   5.648   9.110  2.1545 -0.6769 -0.8579
 1577SOL    HW216791   1.833   5.613   8.952 -2.1158 -0.9115 -0.3728
 1578SOL     OW16792   4.170   4.632   7.204 -0.2797  0.5569 -0.0257
 1578SOL    HW116793   4.135   4.570   7.134 -0.6602  0.8554 -0.1020
 1578SOL    HW216794   4.096   4.654   7.268  0.6385 -1.6068  1.8592
 1579SOL     OW16795   4.932   1.430   8.465 -0.3913 -0.0507  0.2822
 1579SOL    HW116796   5.005   1.363   8.449 -1.7925 -1.5899  0.1479
 1579SOL    HW216797   4.857   1.412   8.402 -1.6293  0.3988  1.6123
 1580SOL     OW16798   5.748   3.850   1.259  0.1319  0.4504  0.4655
 1580SOL    HW116799   5.821   3.796   1.301  0.0776  1.4691  1.8765
 1580SOL    HW216800   5.660   3.806   1.277  0.4200 -1.0917 -1.7279
 1581SOL     OW16801   2.199   3.575   1.262 -0.2717  0.4697  0.4452
 1581SOL    HW116802   2.123   3.560   1.199 -0.6869 -0.5139  1.1753
 1581SOL    HW216803   2.271   3.508   1.242 -0.1624  0.5301  0.6425
 1582SOL     OW16804   8.600   9.916   4.554 -0.2386  0.2225  0.7595
 1582SOL    HW116805   8.546   9.871   4.483 -1.4685  1.4765  0.8689
 1582SOL    HW216806   8.568   9.888   4.644  0.7481 -0.7005  0.8315
 1583SOL     OW16807   8.015   1.203   7.248 -0.1114  0.0033 -0.4955
 1583SOL    HW116808   7.931   1.154   7.225 -2.5171  3.2859  0.9642
 1583SOL    HW216809   8.021   1.213   7.348  1.8794  0.0675 -0.6074
 1584SOL     OW16810   6.871   4.587   9.907 -0.5289  0.2139  0.1776
 1584SOL    HW116811   6.815   4.667   9.885 -1.1630  0.0506  1.1690
 1584SOL    HW216812   6.886   4.583  10.006 -0.5694 -0.9406  0.1416
 1585SOL     OW16813   0.566   3.344   6.897  0.0312 -0.2432  0.0512
 1585SOL    HW116814   0.499   3.335   6.970 -0.0609 -0.5303 -0.0669
 1585SOL    HW216815   0.595   3.439   6.889  0.9415 -0.4159  1.2582
 1586SOL     OW16816   8.475   3.491   5.711  0.1171  0.2202  0.4717
 1586SOL    HW116817   8.516   3.555   5.777 -0.5640  0.8969  0.2436
 1586SOL    HW216818   8.544   3.462   5.645 -0.3193  3.2861 -1.4189
 1587SOL     OW16819   1.669   6.410   4.474  0.3757 -0.0579 -0.3177
 1587SOL    HW116820   1.643   6.315   4.455 -0.7119  0.1615  0.0231
 1587SOL    HW216821   1.641   6.435   4.567  1.8392  0.1983  0.0599
 1588SOL     OW16822   2.312   9.437   8.420  0.5224 -0.1873 -0.3110
 1588SOL    HW116823   2.287   9.502   8.348  0.8866 -0.7335 -0.9360
 1588SOL    HW216824   2.336   9.487   8.503 -0.6369  0.4220 -0.3346
 1589SOL     OW16825   3.320   8.240   1.027  0.3050 -0.1037 -0.0171
 1589SOL    HW116826   3.308   8.141   1.017 -0.0281 -0.1304  0.5945
 1589SOL    HW216827   3.292   8.286   0.943 -0.1969 -0.4850 -0.0598
 1590SOL     OW16828   1.189   1.725   1.348 -0.6571  0.1954 -0.2643
 1590SOL    HW116829   1.142   1.768   1.271 -1.3256  1.0496  0.6046
 1590SOL    HW216830   1.140   1.746   1.433  1.3964  1.2900  0.6899
 1591SOL     OW16831   0.696   2.871   9.362 -0.3387  0.3478 -0.6179
 1591SOL    HW116832   0.745   2.955   9.383  0.3933 -0.1496 -0.3000
 1591SOL    HW216833   0.609   2.870   9.412  1.4300 -0.8714  2.5703
 1592SOL     OW16834   7.001   6.503   3.014 -0.7047  0.3221  0.1415
 1592SOL    HW116835   6.923   6.459   2.969 -0.8295 -1.1013  1.6989
 1592SOL    HW216836   7.058   6.434   3.058 -0.5822  1.6457  2.1393
 1593SOL     OW16837   4.722   5.716   0.235 -0.4586 -0.1219 -0.3440
 1593SOL    HW116838   4.628   5.694   0.210 -1.5241 -0.2338  3.4984
 1593SOL    HW216839   4.769   5.633   0.266 -0.1664  0.5268  0.9927
 1594SOL     OW16840   2.323   0.251   2.652  0.0216  0.1982 -0.3394
 1594SOL    HW116841   2.397   0.196   2.614  1.1763  1.7314 -0.3317
 1594SOL    HW216842   2.300   0.218   2.743 -0.8791 -1.7339 -1.2278
 1595SOL     OW16843   3.489   3.786   0.556  0.1585  0.0688  0.0906
 1595SOL    HW116844   3.475   3.688   0.572 -1.7869  0.4862  1.1011
 1595SOL    HW216845   3.577   3.814   0.596  1.0585 -1.3790 -0.8142
 1596SOL     OW16846   9.739   0.503   0.574  0.0162 -0.2267 -0.4835
 1596SOL    HW116847   9.694   0.575   0.521 -0.5464  0.1910  0.5452
 1596SOL    HW216848   9.832   0.533   0.597 -0.4673  0.4890  0.5698
 1597SOL     OW16849   9.757   4.322   1.345 -0.1464 -0.4746 -0.5735
 1597SOL    HW116850   9.670   4.371   1.338 -1.1194 -2.3946 -2.1601
 1597SOL    HW216851   9.774   4.298   1.441 -0.1981  1.9271  0.0772
 1598SOL     OW16852   6.283   8.618   5.954 -0.2474 -0.0526 -0.1369
 1598SOL    HW116853   6.243   8.566   6.029 -0.3406 -0.0777 -0.2030
 1598SOL    HW216854   6.309   8.709   5.986 -1.9174  0.5799 -0.4925
 1599SOL     OW16855   7.609   0.055   7.242  0.5708  0.1975 -0.3993
 1599SOL    HW116856   7.513   0.028   7.253  0.5638  0.2981 -0.2259
 1599SOL    HW216857   7.616   0.155   7.241  0.6015  0.1926 -1.0249
 1600SOL     OW16858   4.698   3.227   1.029 -0.0620  0.0943  0.0540
 1600SOL    HW116859   4.735   3.187   0.945  1.7070  1.1065  0.3367
 1600SOL    HW216860   4.772   3.266   1.083 -1.0864 -1.1248  2.4342
 1601SOL     OW16861   0.700   5.876   8.657  0.6623  0.3335 -0.9121
 1601SOL    HW116862   0.613   5.829   8.673  0.1298  1.4217 -0.4983
 1601SOL    HW216863   0.776   5.813   8.674 -0.0414 -0.6288 -1.2737
 1602SOL     OW16864   8.581   4.545   9.248  0.0703 -0.2076 -0.1894
 1602SOL    HW116865   8.655   4.602   9.284  1.5137 -0.7966 -2.1485
 1602SOL    HW216866   8.604   4.449   9.259 -2.0376 -0.5012  2.4267
 1603SOL     OW16867   8.444   5.187   3.519  0.1812 -0.2254 -0.2795
 1603SOL    HW116868   8.489   5.273   3.544  1.6208 -0.8790 -0.5371
 1603SOL    HW216869   8.510   5.112   3.526 -1.6447 -1.6724  2.1245
 1604SOL     OW16870   6.507   0.497   8.062  0.1349 -0.1466  0.0407
 1604SOL    HW116871   6.424   0.551   8.049  1.7452  2.2227 -0.6415
 1604SOL    HW216872   6.555   0.488   7.975  0.8117 -1.1620  0.5102
 1605SOL     OW16873   1.572   6.154   0.357  0.1819  0.2780  0.0802
 1605SOL    HW116874   1.497   6.090   0.374  0.1810  0.0105 -0.9515
 1605SOL    HW216875   1.648   6.106   0.314  0.8487  0.6098  0.8671
 1606SOL     OW16876   0.596   2.967   1.660 -0.0130  0.3313  0.0086
 1606SOL    HW116877   0.575   3.042   1.722 -0.6060 -0.7618  1.1746
 1606SOL    HW216878   0.695   2.958   1.649  0.0096  2.7104 -1.9561
 1607SOL     OW16879   6.299   9.775   2.310 -0.5358 -0.1935 -0.2985
 1607SOL    HW116880   6.369   9.718   2.268  1.3448  1.3922  0.5985
 1607SOL    HW216881   6.339   9.827   2.386 -2.6922  0.7118  0.2597
 1608SOL     OW16882   2.087   1.888   8.462  0.3016 -1.1314  0.0151
 1608SOL    HW116883   2.102   1.935   8.549 -0.6532 -0.7941  0.0011
 1608SOL    HW216884   2.152   1.922   8.394 -0.5884  0.4006 -0.0808
 1609SOL     OW16885   9.483   1.665   2.838  0.3451  0.4811 -0.3825
 1609SOL    HW116886   9.401   1.685   2.785 -1.0706  0.5319  1.7978
 1609SOL    HW216887   9.499   1.567   2.839 -0.9615  0.2801  1.0537
 1610SOL     OW16888   8.257   9.571   1.491 -0.0772 -0.2275  0.0897
 1610SOL    HW116889   8.320   9.540   1.562  0.9447  1.3928 -0.0772
 1610SOL    HW216890   8.296   9.551   1.401 -0.3221 -0.2123 -0.0210
 1611SOL     OW16891   8.732   3.641   6.771  0.1030  0.5458 -0.4695
 1611SOL    HW116892   8.766   3.716   6.714 -0.9161 -0.0628 -1.8982
 1611SOL    HW216893   8.808   3.604   6.825  1.1034  1.0698 -1.4900
 1612SOL     OW16894   1.938   3.567   9.284 -0.0384  0.3929  0.2128
 1612SOL    HW116895   1.860   3.505   9.274  0.8322 -0.7102  0.1338
 1612SOL    HW216896   1.912   3.646   9.339 -1.0238 -0.2844  0.7192
 1613SOL     OW16897   5.274   5.678   0.438 -0.2465  0.4566 -0.5750
 1613SOL    HW116898   5.348   5.636   0.385 -0.6473 -1.1987  0.1252
 1613SOL    HW216899   5.291   5.664   0.535 -1.9284 -0.7731 -0.4322
 1614SOL     OW16900   1.399   5.943   8.679 -0.3942  0.6987  0.1142
 1614SOL    HW116901   1.486   5.894   8.667 -0.9865 -1.0458  2.6624
 1614SOL    HW216902   1.362   5.923   8.769 -3.1179  1.9970 -0.6788
 1615SOL     OW16903   4.624   2.513   6.206  0.6441  0.5584  0.0037
 1615SOL    HW116904   4.688   2.449   6.166  0.0133 -0.6601  0.9019
 1615SOL    HW216905   4.567   2.466   6.274 -0.9261  1.6961 -0.4830
 1616SOL     OW16906   7.646   4.709   7.820 -0.0385  0.2796  0.2242
 1616SOL    HW116907   7.614   4.771   7.891  0.0066  1.6908 -0.9634
 1616SOL    HW216908   7.616   4.616   7.841 -0.9447  0.8550  1.5245
 1617SOL     OW16909   5.114   4.841   8.467  0.1219  0.6429 -0.4558
 1617SOL    HW116910   5.099   4.936   8.439  2.9735  1.1003 -0.5900
 1617SOL    HW216911   5.211   4.818   8.456 -0.5914 -2.4072 -0.7611
 1618SOL     OW16912   0.818   6.609   0.268 -0.5331 -0.1352 -0.3287
 1618SOL    HW116913   0.773   6.673   0.330  1.0792 -1.7227  2.5690
 1618SOL    HW216914   0.764   6.525   0.262 -0.8641  0.1471 -1.3750
 1619SOL     OW16915   7.377   7.388   6.911  0.3235  0.2456 -0.0954
 1619SOL    HW116916   7.286   7.426   6.928  1.4521  3.1435 -0.1772
 1619SOL    HW216917   7.409   7.340   6.993 -1.0632 -0.3517  0.0988
 1620SOL     OW16918   1.031   0.033   9.196 -0.7533 -0.2326 -0.3415
 1620SOL    HW116919   1.042   0.101   9.123 -1.1743 -0.6553 -0.8032
 1620SOL    HW216920   0.980   0.073   9.272 -1.0472 -0.0486 -0.6361
 1621SOL     OW16921   4.014   9.428   2.648  0.0186  0.3971  0.5647
 1621SOL    HW116922   4.055   9.438   2.557  1.3943 -0.2354  1.0886
 1621SOL    HW216923   4.078   9.379   2.707 -0.2477  2.0901  2.2933
 1622SOL     OW16924   7.541   7.757   6.412 -0.0401  0.2266 -0.4698
 1622SOL    HW116925   7.517   7.706   6.329  0.5932  0.3117 -0.7071
 1622SOL    HW216926   7.460   7.806   6.445 -0.0203  1.1564 -1.7190
 1623SOL     OW16927   4.412   2.327   9.580 -0.6579  0.0967 -0.1661
 1623SOL    HW116928   4.407   2.382   9.497  1.3457  0.7317  0.1141
 1623SOL    HW216929   4.459   2.378   9.652 -0.3021 -1.3211  0.6323
 1624SOL     OW16930   4.879   5.800   0.683  0.1764  0.3847  0.0301
 1624SOL    HW116931   4.787   5.785   0.720 -0.4576 -0.9166 -1.9633
 1624SOL    HW216932   4.938   5.724   0.711  0.4512  0.8674  0.7465
 1625SOL     OW16933   2.449   1.408   2.853 -0.0067  0.3466 -0.7081
 1625SOL    HW116934   2.430   1.324   2.904  0.4743 -0.4885 -1.8771
 1625SOL    HW216935   2.400   1.407   2.766 -0.0536  1.3095 -0.7004
 1626SOL     OW16936   3.200   9.142   3.271  0.2406 -0.1357 -0.3080
 1626SOL    HW116937   3.143   9.123   3.191  0.4538 -1.2445 -0.1948
 1626SOL    HW216938   3.296   9.148   3.243  0.2080  0.4893 -0.2954
 1627SOL     OW16939   3.363   3.525   9.130  0.0646 -0.1811 -0.1970
 1627SOL    HW116940   3.443   3.468   9.113 -0.0245 -0.5381  0.5496
 1627SOL    HW216941   3.386   3.597   9.196 -0.5333 -1.0186  0.9525
 1628SOL     OW16942   5.284   2.034   8.399 -0.3905 -0.7264  0.3450
 1628SOL    HW116943   5.348   1.957   8.397 -0.9361 -1.2051  0.9867
 1628SOL    HW216944   5.229   2.033   8.315  0.7328 -0.0525 -0.4113
 1629SOL     OW16945   5.081   3.179   7.662 -0.1265  0.0372 -0.2263
 1629SOL    HW116946   5.105   3.082   7.672  2.3108  0.5854 -0.3319
 1629SOL    HW216947   4.986   3.187   7.631 -0.3319 -2.3135 -0.3086
 1630SOL     OW16948   3.510   0.686   2.828  0.2329  0.0103  0.5363
 1630SOL    HW116949   3.423   0.637   2.814 -0.2946  1.1283 -0.1093
 1630SOL    HW216950   3.554   0.650   2.910 -1.6875  0.6087  1.8737
 1631SOL     OW16951   5.738   0.751   8.515  0.3765  0.3406 -0.2214
 1631SOL    HW116952   5.777   0.814   8.582  1.2075 -0.8583  0.4400
 1631SOL    HW216953   5.716   0.664   8.560 -0.7477  0.1541 -1.1216
 1632SOL     OW16954   7.259   7.450   3.428  0.0878 -0.1314  0.3171
 1632SOL    HW116955   7.281   7.524   3.492 -1.4335  1.1747 -0.6529
 1632SOL    HW216956   7.343   7.421   3.380  0.4492  1.9475 -0.3422
 1633SOL     OW16957   7.692   3.002   8.476 -0.2651 -0.2101 -0.6145
 1633SOL    HW116958   7.743   3.056   8.409  0.3350 -0.5125 -0.4055
 1633SOL    HW216959   7.644   3.063   8.539 -0.4549  0.0749 -1.0317
 1634SOL     OW16960   6.813   8.107   2.616  0.3676 -0.2958 -0.3688
 1634SOL    HW116961   6.882   8.052   2.568  0.6345 -0.0101 -0.3098
 1634SOL    HW216962   6.832   8.106   2.714  0.3169 -0.1682 -0.3583
 1635SOL     OW16963   4.884   2.039   0.815 -0.1267  0.2748  0.2497
 1635SOL    HW116964   4.851   2.005   0.727  0.5065  1.2760 -0.3806
 1635SOL    HW216965   4.806   2.060   0.874 -0.5320 -1.7627  0.4684
 1636SOL     OW16966   2.761   5.750   1.540  0.3121  0.1205  0.1102
 1636SOL    HW116967   2.677   5.803   1.531  0.4388  0.2837 -0.1108
 1636SOL    HW216968   2.809   5.749   1.453  1.8283  2.1760  0.8753
 1637SOL     OW16969   1.906   6.220   7.823  0.3739  0.8252 -0.1067
 1637SOL    HW116970   1.869   6.165   7.748 -0.0868  0.8446  0.1026
 1637SOL    HW216971   2.006   6.219   7.819  0.3722 -0.0696 -0.0785
 1638SOL     OW16972   3.572   2.775   7.161  0.2083  0.2351  0.0967
 1638SOL    HW116973   3.493   2.797   7.218 -0.2977 -3.1824  0.8736
 1638SOL    HW216974   3.655   2.771   7.218  0.4107  0.7764 -0.1545
 1639SOL     OW16975   0.844   5.425   5.840  0.3696  0.2213  0.0701
 1639SOL    HW116976   0.769   5.446   5.904  0.6253  0.9521  0.1430
 1639SOL    HW216977   0.901   5.507   5.829 -0.3635  0.4772 -2.0246
 1640SOL     OW16978   0.081   0.713   3.333  0.0490 -0.3595  0.1927
 1640SOL    HW116979   0.145   0.783   3.367 -0.2807 -0.5109  1.1260
 1640SOL    HW216980  -0.008   0.755   3.315 -0.4228 -0.7287  1.6619
 1641SOL     OW16981   1.688   6.124   4.409 -1.3800 -0.0231 -0.4666
 1641SOL    HW116982   1.759   6.061   4.377 -1.2460  1.4730 -3.2688
 1641SOL    HW216983   1.616   6.072   4.454  1.0436 -1.6548  1.6748
 1642SOL     OW16984   1.615   7.466   6.330 -0.3939 -0.0048 -0.5900
 1642SOL    HW116985   1.655   7.515   6.252 -1.6216  2.4622  0.2975
 1642SOL    HW216986   1.518   7.449   6.313 -1.0247  1.8355  0.9671
 1643SOL     OW16987   9.836   7.779   0.817 -0.8044 -0.1831 -0.4115
 1643SOL    HW116988   9.802   7.695   0.858  0.0213 -0.5967 -0.5768
 1643SOL    HW216989   9.928   7.798   0.851  0.2086 -0.9570 -2.6763
 1644SOL     OW16990   7.756   7.318   8.120  0.2512  0.2986  0.4591
 1644SOL    HW116991   7.836   7.331   8.061  1.1130 -2.0432  1.0573
 1644SOL    HW216992   7.786   7.293   8.212 -1.1712 -0.6630  0.6745
 1645SOL     OW16993   3.338   7.449   8.774  0.2656 -0.0744  0.5373
 1645SOL    HW116994   3.295   7.402   8.850  0.2368  0.4050  0.8242
 1645SOL    HW216995   3.341   7.389   8.694  1.4826 -1.0407  1.3002
 1646SOL     OW16996   3.404   9.868   8.546  0.7336 -0.3873  0.0080
 1646SOL    HW116997   3.417   9.816   8.462  3.0896 -0.2178  0.2291
 1646SOL    HW216998   3.363   9.809   8.616  3.0321 -1.8653  0.1420
 1647SOL     OW16999   5.733   2.502   9.766  0.1293  0.2431 -0.2559
 1647SOL    HW117000   5.757   2.508   9.669 -1.2554  1.1352 -0.5565
 1647SOL    HW217001   5.779   2.423   9.807 -0.7356 -1.2343 -2.0679
 1648SOL     OW17002   9.306   9.570   3.961 -0.3810 -0.3413  0.7032
 1648SOL    HW117003   9.219   9.587   4.008 -0.4324  1.4559 -0.0118
 1648SOL    HW217004   9.371   9.642   3.985  0.1017 -0.2899 -0.7145
 1649SOL     OW17005   9.759   6.890   7.526  0.2849 -0.1298 -0.4012
 1649SOL    HW117006   9.712   6.837   7.596  0.6455  0.4369  0.2813
 1649SOL    HW217007   9.858   6.886   7.542  0.3090  0.8147 -0.2922
 1650SOL     OW17008   7.602   6.189   4.280  0.2378  0.3796 -0.1765
 1650SOL    HW117009   7.506   6.217   4.282  0.2034  0.3613 -1.0969
 1650SOL    HW217010   7.621   6.126   4.354 -0.2151  1.1798  0.6299
 1651SOL     OW17011   1.436   5.641   9.847 -0.1988 -0.1879  0.5002
 1651SOL    HW117012   1.501   5.717   9.851 -1.6227  1.0681  0.2539
 1651SOL    HW217013   1.437   5.600   9.756 -0.1945  0.2302  0.3129
 1652SOL     OW17014   7.814   1.083   0.064 -0.0576 -0.5621  0.2224
 1652SOL    HW117015   7.833   1.178   0.091 -0.4400 -0.6495  0.8017
 1652SOL    HW217016   7.898   1.029   0.069  0.1532 -0.2674 -0.0699
 1653SOL     OW17017   7.728   9.771   4.368 -0.3189 -0.2675 -0.3298
 1653SOL    HW117018   7.800   9.820   4.318 -0.5466 -1.4558 -1.8494
 1653SOL    HW217019   7.718   9.679   4.331 -2.1502 -0.3602  0.3325
 1654SOL     OW17020   8.633   0.859   4.363 -0.0692 -0.3996  0.6009
 1654SOL    HW117021   8.675   0.840   4.274 -2.6323  0.9863 -0.9981
 1654SOL    HW217022   8.683   0.932   4.409  0.1600  0.2222 -0.6067
 1655SOL     OW17023   2.623   7.498   6.777  0.1648 -0.7982 -0.6832
 1655SOL    HW117024   2.527   7.476   6.795  0.7467 -2.8035  0.0972
 1655SOL    HW217025   2.681   7.454   6.846  1.5356  1.9625 -0.0089
 1656SOL     OW17026   7.898   3.378   4.921  0.4843  0.4518  0.1193
 1656SOL    HW117027   7.971   3.320   4.958 -0.9106 -1.8923 -0.6959
 1656SOL    HW217028   7.810   3.334   4.938 -0.3413  0.2246 -4.2534
 1657SOL     OW17029   1.493   9.846   5.182 -0.2750 -0.2693  0.3329
 1657SOL    HW117030   1.438   9.797   5.250  0.6086  0.6057  1.6870
 1657SOL    HW217031   1.573   9.791   5.157  0.4656  0.2626  1.5023
 1658SOL     OW17032   9.479   2.601   3.165  0.3120 -0.1427  0.0555
 1658SOL    HW117033   9.493   2.669   3.237  0.1450 -0.3971  0.3295
 1658SOL    HW217034   9.386   2.565   3.171 -0.0065  0.5136 -0.8733
 1659SOL     OW17035   1.077   7.769   5.876 -0.2486 -0.0553 -0.1690
 1659SOL    HW117036   1.022   7.850   5.899  0.5595  0.7391 -0.9974
 1659SOL    HW217037   1.015   7.694   5.850 -0.9541  0.8409 -1.1328
 1660SOL     OW17038   4.385   1.306   9.038 -0.2308 -0.4210 -0.7418
 1660SOL    HW117039   4.415   1.215   9.067 -1.4719 -0.5692  0.0903
 1660SOL    HW217040   4.290   1.321   9.065 -0.0562  1.1148 -0.9010
 1661SOL     OW17041   4.191   6.250   8.005 -0.0812 -0.5249  0.2600
 1661SOL    HW117042   4.119   6.261   7.936 -0.6978 -2.2210  0.5921
 1661SOL    HW217043   4.148   6.236   8.095  0.5890 -2.8602  0.2658
 1662SOL     OW17044   4.278   9.958   0.569 -0.0159  0.4144  0.6673
 1662SOL    HW117045   4.359   9.930   0.518 -2.5909 -2.0823 -2.1720
 1662SOL    HW217046   4.226   9.878   0.596 -3.3189  2.0872 -0.5248
 1663SOL     OW17047   8.191   8.738   2.642 -0.2700  0.5185  0.1927
 1663SOL    HW117048   8.169   8.737   2.740  1.0659  0.2846  0.4901
 1663SOL    HW217049   8.201   8.644   2.610 -0.2039  0.6124 -0.0541
 1664SOL     OW17050   0.242   5.918   1.521 -0.0661  0.4914  0.1880
 1664SOL    HW117051   0.169   5.855   1.495  0.2860 -0.0367  0.4584
 1664SOL    HW217052   0.295   5.942   1.439  0.3907 -0.3336  0.2297
 1665SOL     OW17053   8.863   8.547   9.289 -0.0229  0.5584 -0.4579
 1665SOL    HW117054   8.947   8.590   9.322 -0.3472  0.2076  0.8470
 1665SOL    HW217055   8.882   8.494   9.207  1.5369 -1.4907  1.1711
 1666SOL     OW17056   3.358   9.980   1.505 -0.3198  0.3505 -0.3111
 1666SOL    HW117057   3.325  10.000   1.597  0.0918 -1.3834  0.2332
 1666SOL    HW217058   3.432   9.912   1.510 -1.5679 -1.1902 -2.0556
 1667SOL     OW17059   8.855   3.072   1.440 -0.3339  0.0853 -0.2417
 1667SOL    HW117060   8.763   3.111   1.440 -0.7655 -0.9124  0.7287
 1667SOL    HW217061   8.869   3.022   1.355 -1.2482 -1.0299  0.2467
 1668SOL     OW17062   3.534   2.530   3.320  0.0310  0.2086  0.2603
 1668SOL    HW117063   3.560   2.613   3.271  0.0780  0.0659  0.0372
 1668SOL    HW217064   3.589   2.454   3.287 -0.6376 -0.0908 -0.1928
 1669SOL     OW17065   1.261   6.905   2.876 -0.7744 -0.3794  0.2649
 1669SOL    HW117066   1.188   6.840   2.900 -2.2178  1.0865 -0.0468
 1669SOL    HW217067   1.350   6.866   2.901 -1.7522 -1.6466  1.9103
 1670SOL     OW17068   3.006   2.513   6.287 -0.8684  0.7716  0.4946
 1670SOL    HW117069   2.929   2.568   6.255 -0.4370  0.6082 -0.8708
 1670SOL    HW217070   3.090   2.567   6.279 -0.7379  0.6872  1.2651
 1671SOL     OW17071   0.266   1.214   6.007  0.2434  0.6944 -0.1239
 1671SOL    HW117072   0.272   1.124   5.964 -0.0851  0.6800 -0.1435
 1671SOL    HW217073   0.197   1.269   5.959 -0.9234  0.2916  1.0632
 1672SOL     OW17074   9.262   2.722   1.781  0.3764 -0.3406 -0.8476
 1672SOL    HW117075   9.164   2.724   1.759  0.2360  1.7486 -0.0611
 1672SOL    HW217076   9.289   2.808   1.824  2.6650 -0.7246 -1.4494
 1673SOL     OW17077   8.834   2.632   3.878  0.5358 -0.5601  0.4179
 1673SOL    HW117078   8.750   2.636   3.931  0.1827  0.0049 -0.1788
 1673SOL    HW217079   8.862   2.724   3.851  0.3869 -0.8773 -0.8725
 1674SOL     OW17080   0.907   8.381   8.579  0.1981 -0.3560  0.1803
 1674SOL    HW117081   0.876   8.346   8.491  0.4018 -0.1894  0.0412
 1674SOL    HW217082   0.977   8.320   8.617 -1.3521 -1.5309  1.1903
 1675SOL     OW17083   7.397   7.967   5.551  0.0136  0.3168 -0.0217
 1675SOL    HW117084   7.308   8.003   5.578 -0.1154  0.2155 -0.3108
 1675SOL    HW217085   7.414   7.881   5.599  0.3973  0.8498  0.7959
 1676SOL     OW17086   7.863   1.690   4.101 -0.2664 -0.2084  0.0298
 1676SOL    HW117087   7.900   1.671   4.192 -0.2369  0.8705  0.2507
 1676SOL    HW217088   7.766   1.712   4.109 -0.4461 -0.8689 -0.2930
 1677SOL     OW17089   9.035   3.935   8.311  0.2696 -0.5758 -0.3103
 1677SOL    HW117090   8.940   3.966   8.308  0.5354  0.1954 -1.0709
 1677SOL    HW217091   9.084   3.981   8.385  0.2084 -0.5078 -0.3136
 1678SOL     OW17092   3.656   8.909   1.445 -0.8688 -0.1066  0.1944
 1678SOL    HW117093   3.592   8.852   1.496 -0.1802 -1.2858 -0.2368
 1678SOL    HW217094   3.694   8.979   1.505 -0.3434 -1.2567  1.2182
 1679SOL     OW17095   0.095   5.751   6.038  0.0865  0.0116  0.0133
 1679SOL    HW117096   0.160   5.793   6.102  0.7184  0.1969 -0.7419
 1679SOL    HW217097   0.088   5.653   6.057  2.3563 -0.4438 -1.3797
 1680SOL     OW17098   4.750   2.062   5.586  0.1563 -0.6172  0.1771
 1680SOL    HW117099   4.838   2.056   5.633  1.2348  0.2079 -1.6896
 1680SOL    HW217100   4.706   2.148   5.610 -0.3969 -1.2447  1.4943
 1681SOL     OW17101   2.972   2.890   9.493  0.0518  0.0102  0.7506
 1681SOL    HW117102   2.997   2.918   9.585 -0.1805 -0.6815  1.0286
 1681SOL    HW217103   3.010   2.799   9.474  3.0386  1.5590 -1.0991
 1682SOL     OW17104   3.849   4.781   4.230 -0.3077 -0.5264 -0.6888
 1682SOL    HW117105   3.817   4.823   4.315 -0.2896  0.2064 -1.0410
 1682SOL    HW217106   3.780   4.715   4.197 -0.7508 -0.0960 -0.6229
 1683SOL     OW17107   3.313   5.206   7.837 -0.0267 -0.1511 -0.0818
 1683SOL    HW117108   3.326   5.205   7.738 -1.2202  2.0672 -0.3065
 1683SOL    HW217109   3.224   5.167   7.859 -1.2757  2.4449 -0.2324
 1684SOL     OW17110   1.427   2.412   5.380  0.0405 -0.0723  0.0963
 1684SOL    HW117111   1.452   2.478   5.309  0.3888  0.1766  0.4434
 1684SOL    HW217112   1.353   2.448   5.435 -1.2162 -0.8806 -1.0332
 1685SOL     OW17113   1.123   7.085   6.356 -0.0738  0.0236  0.1024
 1685SOL    HW117114   1.149   6.988   6.360 -1.4217 -0.3695 -0.1852
 1685SOL    HW217115   1.101   7.117   6.448 -0.1245 -0.0918  0.1318
 1686SOL     OW17116   6.525   8.933   2.381 -0.2036 -0.1584  0.5247
 1686SOL    HW117117   6.522   8.909   2.478  0.1817 -1.6469  0.1780
 1686SOL    HW217118   6.494   8.855   2.326  1.0748  0.1310 -0.6307
 1687SOL     OW17119   0.021   8.310   2.886  0.0632 -0.1818 -0.0907
 1687SOL    HW117120  -0.069   8.269   2.880  0.2459 -0.3446 -2.0406
 1687SOL    HW217121   0.037   8.369   2.806  1.7533 -0.3340  0.1056
 1688SOL     OW17122   3.171   2.845   7.826  0.5093  0.6373  0.2907
 1688SOL    HW117123   3.076   2.833   7.794  0.6414  2.0476 -0.6876
 1688SOL    HW217124   3.203   2.759   7.866 -1.0865  0.0516  0.3773
 1689SOL     OW17125   9.938   1.542   5.743 -0.1375 -0.6783 -0.5158
 1689SOL    HW117126   9.850   1.560   5.787  0.0803 -1.1108  0.1027
 1689SOL    HW217127   9.974   1.628   5.705 -0.6029 -0.4112 -0.3630
 1690SOL     OW17128   2.972   7.611   3.767 -0.4753  0.1596  0.5447
 1690SOL    HW117129   3.041   7.637   3.700  0.3194  0.5755  1.5117
 1690SOL    HW217130   3.000   7.526   3.812 -0.1273  0.8261  1.5978
 1691SOL     OW17131   0.962   5.810   7.685 -0.1141 -0.0313 -0.2673
 1691SOL    HW117132   1.039   5.872   7.699  0.0868 -0.4038  0.2953
 1691SOL    HW217133   0.897   5.851   7.621 -0.5092  1.2194  0.9395
 1692SOL     OW17134   2.546   3.063   0.301  0.1680  0.3198 -0.4734
 1692SOL    HW117135   2.561   2.974   0.344  0.3478  0.1390 -0.9077
 1692SOL    HW217136   2.632   3.098   0.264  0.0363  0.5289 -0.5868
 1693SOL     OW17137   7.961   2.224   7.467  0.1242 -0.2306  0.7425
 1693SOL    HW117138   7.929   2.184   7.381 -1.6889 -1.6304  2.0389
 1693SOL    HW217139   8.036   2.287   7.448 -1.4490  0.8698 -2.0569
 1694SOL     OW17140   7.729   7.541   2.764  0.0286 -0.0536  0.1084
 1694SOL    HW117141   7.780   7.623   2.790  0.9813 -1.2933  2.3442
 1694SOL    HW217142   7.631   7.560   2.768  0.2210  0.6548  1.8033
 1695SOL     OW17143   9.275   1.365   6.151 -0.5526  0.7589  0.5027
 1695SOL    HW117144   9.255   1.326   6.061 -1.0019  2.3335 -0.0899
 1695SOL    HW217145   9.279   1.465   6.145 -1.4547  0.9433  2.3998
 1696SOL     OW17146   9.421   6.800   5.846  0.2161 -0.7833 -0.2731
 1696SOL    HW117147   9.392   6.896   5.845 -2.1415 -1.4517  0.1625
 1696SOL    HW217148   9.379   6.754   5.924  1.1601 -2.2258 -0.6078
 1697SOL     OW17149   2.643   8.848   5.559  0.0222  0.0009 -0.1300
 1697SOL    HW117150   2.663   8.946   5.555  3.2399 -0.6225 -0.5351
 1697SOL    HW217151   2.711   8.803   5.617 -2.6988 -1.7227  1.8318
 1698SOL     OW17152   8.430   9.951   5.692 -0.1075 -0.9718 -0.0424
 1698SOL    HW117153   8.464   9.868   5.648 -0.7079 -1.6732  0.8048
 1698SOL    HW217154   8.506  10.010   5.717  0.2539 -0.6223 -1.9064
 1699SOL     OW17155   1.617   2.947   9.252  0.0325 -0.0959  0.3096
 1699SOL    HW117156   1.524   2.984   9.246 -0.1589 -0.7785 -1.2304
 1699SOL    HW217157   1.618   2.855   9.214  1.5245  0.2784 -0.5945
 1700SOL     OW17158   0.462   2.385   1.079 -0.1141 -0.2521  0.7596
 1700SOL    HW117159   0.546   2.386   1.025  0.1711 -0.3776  1.1984
 1700SOL    HW217160   0.389   2.430   1.028 -0.0962 -1.2217 -0.1338
 1701SOL     OW17161   9.787   6.602   0.195  0.1151  0.2013 -0.2302
 1701SOL    HW117162   9.837   6.562   0.118 -0.4768 -2.3745  0.6710
 1701SOL    HW217163   9.688   6.596   0.177 -0.0412 -0.8122  0.8853
 1702SOL     OW17164   3.630   3.685   1.102 -0.1901 -0.0835 -0.2846
 1702SOL    HW117165   3.657   3.608   1.160 -1.5869  0.2450  0.8266
 1702SOL    HW217166   3.532   3.703   1.113 -0.4383  0.1626 -2.5458
 1703SOL     OW17167   1.418   8.208   7.798  0.2137 -0.2697  0.2342
 1703SOL    HW117168   1.345   8.256   7.749  0.4622  0.3026  0.4203
 1703SOL    HW217169   1.399   8.211   7.896  0.6183  0.1078  0.3023
 1704SOL     OW17170   0.159   3.284   6.947 -0.6987  0.5821  0.3331
 1704SOL    HW117171   0.186   3.189   6.928 -1.4820  0.1116  1.5099
 1704SOL    HW217172   0.130   3.328   6.863  1.5413  0.3859 -0.5781
 1705SOL     OW17173   2.105   8.337   8.765 -0.8342 -0.0990 -0.5540
 1705SOL    HW117174   2.082   8.378   8.853 -0.7319  0.5054 -0.8064
 1705SOL    HW217175   2.023   8.333   8.707 -1.0136 -0.9729 -0.2401
 1706SOL     OW17176   0.415   8.375   1.885  0.2559 -0.5283 -0.4769
 1706SOL    HW117177   0.492   8.372   1.821 -0.8201 -0.3513 -1.8069
 1706SOL    HW217178   0.345   8.310   1.856 -1.6758  1.8534 -1.4123
 1707SOL     OW17179   2.060   3.274   8.023  0.3050  0.2608 -0.2745
 1707SOL    HW117180   1.982   3.216   8.046  1.4100 -1.0444  0.2463
 1707SOL    HW217181   2.145   3.229   8.052  1.1621  2.3634  0.6014
 1708SOL     OW17182   5.977   0.945   6.992 -0.4476 -0.0702  0.2293
 1708SOL    HW117183   6.008   0.857   6.956  1.4375  0.3053  0.9166
 1708SOL    HW217184   6.037   1.017   6.959 -2.2917  1.0474 -0.7519
 1709SOL     OW17185   2.451   3.517   8.766 -0.1314 -0.1090 -0.0988
 1709SOL    HW117186   2.381   3.572   8.812 -2.0578 -1.7625 -0.9611
 1709SOL    HW217187   2.492   3.571   8.692  0.6728  1.4252  1.4412
 1710SOL     OW17188   0.467   4.239   4.517  0.5892  0.3801 -0.0455
 1710SOL    HW117189   0.414   4.261   4.435  0.6766  0.4815 -0.0740
 1710SOL    HW217190   0.421   4.166   4.568  1.7219 -1.3001 -1.3720
 1711SOL     OW17191   3.793   3.789   9.876  0.3633 -0.3875  0.2712
 1711SOL    HW117192   3.844   3.856   9.931  0.3421  1.0705 -1.4389
 1711SOL    HW217193   3.750   3.722   9.937  1.3571  0.4498  1.9485
 1712SOL     OW17194   9.780   0.583   2.768 -0.1614 -0.0009 -0.0479
 1712SOL    HW117195   9.827   0.521   2.706  0.5191  0.5945 -0.1414
 1712SOL    HW217196   9.843   0.654   2.798 -0.7086  0.1870  0.6871
 1713SOL     OW17197   6.484   2.351   4.962  0.4153 -0.3517  0.1063
 1713SOL    HW117198   6.582   2.334   4.960  0.4249 -0.2099 -0.8387
 1713SOL    HW217199   6.466   2.448   4.948  0.1854 -0.1699  1.5319
 1714SOL     OW17200   2.919   9.150   1.573  0.1344 -0.0421 -0.1943
 1714SOL    HW117201   2.895   9.169   1.668  0.6861  1.2067 -0.2861
 1714SOL    HW217202   2.921   9.237   1.522  0.5331 -0.6207 -1.1755
 1715SOL     OW17203   2.065   1.466   7.940 -0.0947 -0.1082 -0.2042
 1715SOL    HW117204   1.983   1.443   7.887  1.2288 -1.4117 -1.7414
 1715SOL    HW217205   2.067   1.564   7.957 -1.7664 -0.0101 -0.5067
 1716SOL     OW17206   9.805   4.634   5.267  0.1033  0.4829 -0.1430
 1716SOL    HW117207   9.761   4.580   5.338 -1.2079  1.1029 -0.4588
 1716SOL    HW217208   9.833   4.575   5.192 -1.8739  0.2966 -0.7655
 1717SOL     OW17209   3.390   1.269   4.090  0.0141 -0.0782  0.7687
 1717SOL    HW117210   3.448   1.190   4.071  1.8601  1.2624  0.7362
 1717SOL    HW217211   3.324   1.245   4.162  0.7744 -1.5392  0.9904
 1718SOL     OW17212   6.601   3.432   2.032  0.2389  0.3651  0.2969
 1718SOL    HW117213   6.695   3.464   2.029  0.8718 -1.4965 -0.9297
 1718SOL    HW217214   6.583   3.386   2.119  1.3100 -1.6541 -0.5181
 1719SOL     OW17215   5.604   0.788   3.917 -0.0904 -0.1248 -0.3514
 1719SOL    HW117216   5.698   0.818   3.902 -0.0976 -0.4676 -1.0709
 1719SOL    HW217217   5.543   0.839   3.856 -0.6672  1.8953  1.8386
 1720SOL     OW17218   2.910   6.156   9.219 -0.0166 -0.2563 -0.5778
 1720SOL    HW117219   2.864   6.219   9.281 -0.3505 -0.2326 -0.8415
 1720SOL    HW217220   2.848   6.081   9.195  0.5303 -0.9294  0.0876
 1721SOL     OW17221   1.423   9.232   7.168 -0.5152 -0.2660 -0.2840
 1721SOL    HW117222   1.508   9.180   7.174 -0.3564 -0.0763 -0.8969
 1721SOL    HW217223   1.354   9.190   7.228  0.2645  0.0890  0.8817
 1722SOL     OW17224   9.473   8.499   6.033  0.2928  0.0400 -0.2760
 1722SOL    HW117225   9.407   8.426   6.019  0.5018  0.0113 -1.1313
 1722SOL    HW217226   9.458   8.542   6.122 -1.1037  0.2695 -0.6209
 1723SOL     OW17227   1.747   2.190   0.195 -0.0016 -0.4866 -0.2360
 1723SOL    HW117228   1.769   2.283   0.224 -2.1053  0.1373 -0.5297
 1723SOL    HW217229   1.804   2.125   0.245  1.6371  0.9609 -0.1757
 1724SOL     OW17230   1.905   3.481   4.861 -0.6520 -0.5591 -0.0516
 1724SOL    HW117231   1.974   3.523   4.802 -1.6688  1.1987 -0.0096
 1724SOL    HW217232   1.941   3.471   4.953 -0.9324  1.6828  0.3217
 1725SOL     OW17233   4.958   4.826   8.681 -0.8364 -0.0217  0.1432
 1725SOL    HW117234   5.010   4.781   8.753  0.2811  1.3483  0.2054
 1725SOL    HW217235   5.014   4.833   8.599 -1.4246  0.1725 -0.2438
 1726SOL     OW17236   8.645   4.686   5.348 -0.4341  0.1058  0.3087
 1726SOL    HW117237   8.596   4.608   5.389 -0.4540  0.6225  1.2987
 1726SOL    HW217238   8.583   4.764   5.342 -0.0116  0.4734  0.6716
 1727SOL     OW17239   3.222   7.967   3.006  0.0217 -0.3394 -0.2149
 1727SOL    HW117240   3.180   7.899   2.945 -0.9162  0.6575 -0.6919
 1727SOL    HW217241   3.319   7.945   3.018 -0.4634 -2.3082  0.3783
 1728SOL     OW17242   1.065   5.624   9.725 -0.2176 -0.2909  0.0912
 1728SOL    HW117243   1.066   5.539   9.672  0.6985 -0.4035  0.2892
 1728SOL    HW217244   1.154   5.637   9.769 -0.2171  0.9928 -0.2828
 1729SOL     OW17245   9.621   0.555   8.809 -0.0567 -0.0719  0.0118
 1729SOL    HW117246   9.691   0.498   8.765 -0.6664 -1.2870  0.6007
 1729SOL    HW217247   9.664   0.611   8.879  0.4240 -0.3829 -0.0295
 1730SOL     OW17248   8.180   0.297   3.220  0.5332  0.5179  0.0361
 1730SOL    HW117249   8.118   0.356   3.169  1.1921  2.6494  1.6463
 1730SOL    HW217250   8.228   0.350   3.290  0.5344 -2.0701  2.0957
 1731SOL     OW17251   8.446   1.780   1.722 -1.2051  0.2416  0.3406
 1731SOL    HW117252   8.451   1.800   1.624 -0.2448  0.0034  0.3393
 1731SOL    HW217253   8.379   1.707   1.737  0.4747 -1.5141 -0.4260
 1732SOL     OW17254   2.861   8.700   7.922 -0.2932 -0.3221  0.4991
 1732SOL    HW117255   2.927   8.776   7.917 -0.0968 -0.5187  0.1236
 1732SOL    HW217256   2.777   8.727   7.876 -0.0941 -0.4627  0.0468
 1733SOL     OW17257   0.132   1.478   8.393  0.1115  0.2203 -0.2930
 1733SOL    HW117258   0.033   1.470   8.381 -0.1368  1.7131  0.7078
 1733SOL    HW217259   0.171   1.530   8.317 -0.1746  1.5171  0.4418
 1734SOL     OW17260   8.000   1.625   0.479 -0.3212  0.1646 -0.5926
 1734SOL    HW117261   7.920   1.615   0.539  0.0905  1.5998  0.2028
 1734SOL    HW217262   7.971   1.623   0.384 -1.5022  2.2914 -0.2880
 1735SOL     OW17263   8.816   1.668   1.130 -0.3354  0.1003  0.4153
 1735SOL    HW117264   8.869   1.704   1.053 -0.2117  0.6107  0.7359
 1735SOL    HW217265   8.857   1.583   1.162 -0.9889 -0.6641 -0.7453
 1736SOL     OW17266   6.026   5.074   8.418  0.6914  0.2458 -0.1140
 1736SOL    HW117267   6.055   5.154   8.367 -0.5162  0.8159  0.0611
 1736SOL    HW217268   6.019   4.995   8.357 -1.8255  1.1792 -1.0851
 1737SOL     OW17269   1.324   0.569   0.369  0.0851  0.4583 -0.2483
 1737SOL    HW117270   1.372   0.606   0.448  0.9664  0.2694 -0.6933
 1737SOL    HW217271   1.351   0.474   0.355 -0.2016  0.4366 -0.6805
 1738SOL     OW17272   3.108   2.656   1.403 -0.2147  0.3349  0.5923
 1738SOL    HW117273   3.130   2.560   1.418 -1.0699  0.1462  0.6483
 1738SOL    HW217274   3.163   2.713   1.465  0.1584 -0.1247  0.6861
 1739SOL     OW17275   3.066   5.912   6.072  0.4238 -0.6880  0.1581
 1739SOL    HW117276   3.094   5.999   6.030  0.0361 -0.7648 -0.2567
 1739SOL    HW217277   3.045   5.846   6.000  1.5118 -1.3798  0.4716
 1740SOL     OW17278   4.676   9.681   6.848  0.3490  0.0291  0.1188
 1740SOL    HW117279   4.721   9.642   6.768 -0.1243 -0.3068  0.0135
 1740SOL    HW217280   4.671   9.613   6.921 -3.3329 -1.2076 -1.1771
 1741SOL     OW17281   1.004   8.034   3.764 -0.6159 -0.2816  0.5294
 1741SOL    HW117282   1.070   8.000   3.697 -2.7855  0.7480 -2.2185
 1741SOL    HW217283   0.980   7.961   3.828  0.7650 -1.5705 -0.3913
 1742SOL     OW17284   9.108   1.035   0.185  0.5852  0.2421 -0.1513
 1742SOL    HW117285   9.086   1.029   0.282 -1.5028  0.2557 -0.5904
 1742SOL    HW217286   9.169   0.960   0.160  0.0728 -0.5449  0.8981
 1743SOL     OW17287   1.998   0.947   5.774  0.6290 -0.1007 -0.3187
 1743SOL    HW117288   2.073   0.881   5.772 -0.0855 -0.8769 -1.3815
 1743SOL    HW217289   1.932   0.926   5.702  0.0897  1.4151 -0.2853
 1744SOL     OW17290   5.471   8.711   4.425 -0.4051 -0.3306  0.2985
 1744SOL    HW117291   5.505   8.645   4.491  0.0692 -0.1832  0.2006
 1744SOL    HW217292   5.461   8.800   4.469  0.4749 -0.0891  0.0289
 1745SOL     OW17293   5.553   4.254   1.368  0.9224 -0.2043  0.3974
 1745SOL    HW117294   5.455   4.245   1.352  0.7197 -0.3502  1.6357
 1745SOL    HW217295   5.582   4.347   1.345  0.2692  0.1846  1.1152
 1746SOL     OW17296   9.822   2.216   6.116  0.3470  0.0192 -0.1741
 1746SOL    HW117297   9.876   2.299   6.108 -0.0522 -0.0367 -4.4183
 1746SOL    HW217298   9.877   2.137   6.088 -0.2685 -0.7457  0.7329
 1747SOL     OW17299   3.319   1.738   5.759  0.2603 -0.3635 -0.3920
 1747SOL    HW117300   3.289   1.722   5.853  0.1724  0.7116 -0.2336
 1747SOL    HW217301   3.300   1.833   5.733  0.6365 -0.5442 -1.3643
 1748SOL     OW17302   5.934   0.836   4.982 -0.1891 -0.1856  0.2279
 1748SOL    HW117303   5.837   0.857   4.981 -0.4451 -1.3201  0.4135
 1748SOL    HW217304   5.980   0.881   4.906 -1.2930 -1.6930 -1.3621
 1749SOL     OW17305   6.829   4.282   1.328  0.2377 -0.2155  0.2484
 1749SOL    HW117306   6.928   4.288   1.321  0.3520 -0.3399  1.5577
 1749SOL    HW217307   6.798   4.190   1.303  0.5873 -0.5842  1.1647
 1750SOL     OW17308   4.473   6.885   2.739  0.0392  0.7018 -0.4655
 1750SOL    HW117309   4.536   6.853   2.669 -0.8488 -1.8305 -0.1670
 1750SOL    HW217310   4.507   6.859   2.829 -1.0102  0.0580 -0.2511
 1751SOL     OW17311   3.990   1.138   0.130  0.1537 -0.3484 -0.3514
 1751SOL    HW117312   4.020   1.169   0.040 -0.3712  0.0513 -0.3911
 1751SOL    HW217313   3.890   1.138   0.134  0.1735  0.7790  0.6170
 1752SOL     OW17314   8.678   7.791   6.970  0.1643 -0.0735 -0.3815
 1752SOL    HW117315   8.770   7.827   6.986  0.3853  0.2205 -2.2086
 1752SOL    HW217316   8.681   7.727   6.893 -0.6135 -2.4412  1.4788
 1753SOL     OW17317   8.690   4.934   6.220 -0.2058 -0.2360  0.2307
 1753SOL    HW117318   8.652   4.842   6.225  0.4134 -0.3922  2.3323
 1753SOL    HW217319   8.769   4.935   6.159 -1.0028 -0.8048 -0.8217
 1754SOL     OW17320   1.049   8.245   4.781 -0.0370 -0.0025 -0.6522
 1754SOL    HW117321   0.986   8.323   4.775  0.4512  0.3432 -1.2888
 1754SOL    HW217322   1.080   8.235   4.876  0.5577  1.1034 -0.7196
 1755SOL     OW17323   6.851   7.796   6.799  0.0514  0.7987 -0.4575
 1755SOL    HW117324   6.872   7.738   6.878 -0.4347 -0.3135 -1.1204
 1755SOL    HW217325   6.880   7.749   6.716  1.0957  2.2241 -0.9007
 1756SOL     OW17326   3.393   9.387   5.471 -0.1361  0.2111 -0.3630
 1756SOL    HW117327   3.382   9.485   5.491  0.3210  0.4833 -1.4615
 1756SOL    HW217328   3.482   9.357   5.504 -0.2634  0.1686 -0.0539
 1757SOL     OW17329   6.119   1.130   2.955  0.3436 -0.3111  0.5362
 1757SOL    HW117330   6.035   1.085   2.988  0.4529 -0.6547  0.3564
 1757SOL    HW217331   6.140   1.096   2.863  0.4042  0.1487  0.3803
 1758SOL     OW17332   8.710   2.767   3.295 -0.3118  0.3146  0.1840
 1758SOL    HW117333   8.753   2.692   3.244  0.4897  1.4313 -0.8131
 1758SOL    HW217334   8.617   2.782   3.262  0.1174  0.8639 -0.7793
 1759SOL     OW17335   7.728   2.083   8.131  0.3409  0.4415 -0.3905
 1759SOL    HW117336   7.800   2.047   8.190  0.4979 -1.1586 -1.5038
 1759SOL    HW217337   7.720   2.181   8.144  2.3454  0.5594  0.1589
 1760SOL     OW17338   3.591   5.565   7.069  0.0963  0.1528  0.5860
 1760SOL    HW117339   3.550   5.538   7.156 -0.7582 -1.4618 -0.3005
 1760SOL    HW217340   3.669   5.506   7.049  0.4970  0.7400  0.4148
 1761SOL     OW17341   0.268   0.917   5.891  0.3488  0.3697  0.0089
 1761SOL    HW117342   0.301   0.959   5.807 -1.0838 -1.4903 -1.5431
 1761SOL    HW217343   0.278   0.818   5.885  1.3446  0.2848  2.5521
 1762SOL     OW17344   7.189   6.159   9.814 -0.2494 -0.5863  0.3077
 1762SOL    HW117345   7.136   6.079   9.786  0.3700 -0.2354 -2.0142
 1762SOL    HW217346   7.244   6.136   9.894 -1.2974 -1.9942  0.6413
 1763SOL     OW17347   4.223   1.994   7.064  0.2360  0.2139  0.1356
 1763SOL    HW117348   4.170   2.078   7.074 -0.0998 -0.0255  0.3947
 1763SOL    HW217349   4.269   1.994   6.976 -1.4994 -0.2993 -0.7849
 1764SOL     OW17350   7.713   8.038   4.697  0.2150 -0.3740 -0.0632
 1764SOL    HW117351   7.681   7.955   4.650  0.3830 -0.6250  0.2648
 1764SOL    HW217352   7.780   8.085   4.639  0.4149 -0.6770 -0.0806
 1765SOL     OW17353   1.108   1.501   8.432 -0.0482 -0.4658  0.0054
 1765SOL    HW117354   1.021   1.530   8.472  0.5638 -0.1559  1.1245
 1765SOL    HW217355   1.139   1.416   8.474  1.1850  0.4811  1.0766
 1766SOL     OW17356   9.621   7.337   6.984  0.2941 -0.5580  0.2045
 1766SOL    HW117357   9.594   7.311   6.891  1.1037  0.6204 -0.3735
 1766SOL    HW217358   9.690   7.272   7.018  1.3924  0.0858 -0.7548
 1767SOL     OW17359   7.014   8.599   7.760 -0.5648 -0.0417  0.1109
 1767SOL    HW117360   7.011   8.640   7.669 -0.1810 -0.6354 -0.1742
 1767SOL    HW217361   7.062   8.660   7.823 -1.0608  0.4853 -0.0202
 1768SOL     OW17362   2.359   9.538   3.765  1.0861 -0.9048 -0.3991
 1768SOL    HW117363   2.439   9.581   3.807  0.2457 -0.2101  0.5143
 1768SOL    HW217364   2.321   9.599   3.696 -0.1895 -0.0806  0.9938
 1769SOL     OW17365   0.916   4.851   6.658 -0.0194  0.2058 -0.5536
 1769SOL    HW117366   0.980   4.876   6.586 -0.8898 -0.2621 -1.4924
 1769SOL    HW217367   0.966   4.805   6.732  0.9881  1.3482 -0.5119
 1770SOL     OW17368   9.885   8.895   4.095 -0.3869  0.1940  0.2057
 1770SOL    HW117369   9.817   8.969   4.095  0.3048  0.8446 -0.9602
 1770SOL    HW217370   9.854   8.821   4.037  0.7699  1.3548 -1.9877
 1771SOL     OW17371   4.859   1.664   7.309  0.0197  0.6733 -0.1900
 1771SOL    HW117372   4.884   1.593   7.244  0.4668 -1.2577  2.0222
 1771SOL    HW217373   4.771   1.643   7.350  0.9987  0.3608  1.8329
 1772SOL     OW17374   8.690   8.551   5.332 -0.0421 -0.7829  0.0074
 1772SOL    HW117375   8.682   8.523   5.237  0.3426 -2.3536  0.4150
 1772SOL    HW217376   8.735   8.478   5.384 -3.1330 -1.3013  2.0382
 1773SOL     OW17377   1.266   1.723   3.661  0.3664  0.4444 -0.0792
 1773SOL    HW117378   1.358   1.696   3.688  0.8864  2.5764  0.4002
 1773SOL    HW217379   1.208   1.643   3.655  1.3264 -0.5595  3.1473
 1774SOL     OW17380   0.750   5.728   6.510 -0.2055 -0.3214  0.1189
 1774SOL    HW117381   0.714   5.677   6.431  2.0376 -2.6499  0.5285
 1774SOL    HW217382   0.692   5.711   6.589 -0.4246 -0.9244 -0.1609
 1775SOL     OW17383   2.018   3.236   0.506  0.7990 -0.3996 -0.3155
 1775SOL    HW117384   2.034   3.139   0.522 -0.8308 -0.5990  0.1646
 1775SOL    HW217385   2.078   3.290   0.565  0.5144 -1.1116  0.6257
 1776SOL     OW17386   2.302   3.502   5.212 -0.2012 -0.0322 -0.1796
 1776SOL    HW117387   2.382   3.559   5.192  1.2938 -2.1000 -0.1544
 1776SOL    HW217388   2.308   3.416   5.162 -3.4703  0.6220 -1.8066
 1777SOL     OW17389   9.117   1.924   3.703 -0.0878  0.0522  0.4235
 1777SOL    HW117390   9.092   1.830   3.679  1.6318 -0.2770 -0.1932
 1777SOL    HW217391   9.059   1.956   3.778 -1.7366 -0.9360 -0.4172
 1778SOL     OW17392   4.017   1.317   1.395  0.2232  0.1749 -0.1089
 1778SOL    HW117393   3.965   1.280   1.472  0.6709 -0.1122  0.0560
 1778SOL    HW217394   4.021   1.249   1.321 -1.2409  0.8961 -0.8785
 1779SOL     OW17395   8.194   8.499   6.374 -0.2352  0.3030 -0.4942
 1779SOL    HW117396   8.167   8.587   6.335  0.9362  0.2912 -1.3632
 1779SOL    HW217397   8.233   8.442   6.302  0.7784 -0.2037  0.4586
 1780SOL     OW17398   3.264   3.993   1.211 -0.2693 -0.9492 -0.1703
 1780SOL    HW117399   3.283   4.044   1.127 -1.6209  0.2771  0.2434
 1780SOL    HW217400   3.165   3.980   1.220 -0.0808 -1.6786  0.8750
 1781SOL     OW17401   7.461   7.388   5.421 -0.5095  0.4628 -0.1462
 1781SOL    HW117402   7.372   7.402   5.378 -0.6597  0.4569  0.1619
 1781SOL    HW217403   7.449   7.338   5.507  0.0781 -2.1418 -1.5395
 1782SOL     OW17404   1.379   5.009   2.928 -0.1687  0.1226  0.5255
 1782SOL    HW117405   1.357   4.929   2.871 -0.7352  0.9334 -0.4245
 1782SOL    HW217406   1.384   5.090   2.869 -1.0600  1.0298  1.6883
 1783SOL     OW17407   1.605   2.177   4.911  0.1918  0.1435  0.2958
 1783SOL    HW117408   1.691   2.223   4.891  0.1607 -0.2452 -0.7808
 1783SOL    HW217409   1.612   2.129   4.998  1.2211 -0.2664 -0.0072
 1784SOL     OW17410   2.863   7.192   6.245  0.1005 -0.3898  0.2117
 1784SOL    HW117411   2.850   7.256   6.321  1.2263  0.4590 -0.2898
 1784SOL    HW217412   2.775   7.152   6.219 -0.7401  1.5494  0.0085
 1785SOL     OW17413   2.446   5.129   9.726 -0.1003 -0.6146 -0.3553
 1785SOL    HW117414   2.412   5.037   9.745  1.3466 -0.8881  0.9937
 1785SOL    HW217415   2.372   5.195   9.742 -0.3944 -1.3126  1.2652
 1786SOL     OW17416   3.311   2.649   8.065 -0.1474 -0.1860  0.7389
 1786SOL    HW117417   3.286   2.691   8.152  2.2830  0.5728  1.0965
 1786SOL    HW217418   3.407   2.667   8.045 -0.4574 -1.0551 -1.7141
 1787SOL     OW17419   2.570   7.600   2.477 -0.0615  0.2449  0.3926
 1787SOL    HW117420   2.511   7.518   2.478 -0.0082  0.2042  1.0948
 1787SOL    HW217421   2.651   7.583   2.534  0.3162  0.5272 -0.0571
 1788SOL     OW17422   4.626   6.303   3.298  0.0281 -0.2354 -0.1080
 1788SOL    HW117423   4.664   6.391   3.271  1.7325 -0.5561  1.1108
 1788SOL    HW217424   4.679   6.266   3.375 -1.8264 -1.4440  0.6264
 1789SOL     OW17425   1.361   7.992   4.250 -0.0653  0.7092 -0.1787
 1789SOL    HW117426   1.296   7.934   4.201  0.8153 -0.5620  0.1290
 1789SOL    HW217427   1.386   7.948   4.336  1.4573  1.0093 -0.4532
 1790SOL     OW17428   8.084   8.384   9.477 -0.1489 -0.4154 -0.4044
 1790SOL    HW117429   8.007   8.325   9.454  0.3457 -1.4229  0.4989
 1790SOL    HW217430   8.152   8.379   9.403  0.3978 -1.8715  0.1630
 1791SOL     OW17431   7.279   4.188   7.810  0.0832 -0.9395 -0.4713
 1791SOL    HW117432   7.345   4.176   7.736  2.7137 -0.8179  1.7829
 1791SOL    HW217433   7.271   4.286   7.832  0.3769 -1.1064  0.3628
 1792SOL     OW17434   5.231   5.376   8.927 -0.0212 -1.0446  0.1330
 1792SOL    HW117435   5.280   5.445   8.874 -2.0385  0.3646  0.0533
 1792SOL    HW217436   5.232   5.289   8.877  1.7941 -0.8677 -0.1706
 1793SOL     OW17437   6.536   4.915   9.176 -0.3350  0.1039 -0.2210
 1793SOL    HW117438   6.626   4.925   9.135 -0.5995 -1.4001 -1.2328
 1793SOL    HW217439   6.475   4.867   9.112 -0.8354 -2.0534  1.7794
 1794SOL     OW17440   5.039   6.667   0.172 -0.0945 -0.1236 -0.5050
 1794SOL    HW117441   5.103   6.590   0.181  1.1849  0.9414 -0.4904
 1794SOL    HW217442   4.988   6.677   0.258  0.2731 -0.4839 -0.2385
 1795SOL     OW17443   4.227   9.914   1.565 -0.3909  0.2030 -0.0689
 1795SOL    HW117444   4.149   9.976   1.562  0.1249  0.9056  0.8175
 1795SOL    HW217445   4.290   9.943   1.637 -0.0908 -1.2948  0.2887
 1796SOL     OW17446   4.807   8.084   1.779  0.1572  0.0341  0.5476
 1796SOL    HW117447   4.761   8.156   1.727 -0.1471 -0.3064  0.3434
 1796SOL    HW217448   4.843   8.016   1.716  2.0876  0.9616  0.6205
 1797SOL     OW17449   3.398   7.712   9.089  0.0680  0.0395 -0.0714
 1797SOL    HW117450   3.461   7.658   9.145 -0.2789  0.7543  1.0245
 1797SOL    HW217451   3.442   7.734   9.002  0.9109 -0.4266  0.2245
 1798SOL     OW17452   1.439   1.337   9.686  0.2585  0.3429 -1.0558
 1798SOL    HW117453   1.524   1.297   9.722  0.8386 -0.6628 -3.4879
 1798SOL    HW217454   1.446   1.436   9.687 -0.3002  0.4277  2.9034
 1799SOL     OW17455   0.213   6.333   7.525  0.6455 -0.5836 -0.2251
 1799SOL    HW117456   0.155   6.307   7.448  0.4808  0.8679 -0.6118
 1799SOL    HW217457   0.269   6.412   7.499  0.9679 -0.4139  0.9682
 1800SOL     OW17458   2.148   0.275   6.257  0.1820  0.4927 -0.0249
 1800SOL    HW117459   2.192   0.362   6.235 -0.7501  0.9536 -0.0850
 1800SOL    HW217460   2.068   0.292   6.314  0.0389 -0.3330  0.0182
 1801SOL     OW17461   4.456   5.499   0.241 -0.9191 -0.4476  0.5229
 1801SOL    HW117462   4.428   5.587   0.280  2.2965  1.0875 -0.4806
 1801SOL    HW217463   4.499   5.443   0.312 -1.6072 -0.6294  0.8067
 1802SOL     OW17464   2.809   6.696   2.448  0.0711  0.4220 -0.0581
 1802SOL    HW117465   2.811   6.702   2.348  2.7832 -0.8294 -0.1413
 1802SOL    HW217466   2.879   6.757   2.486  0.4436 -0.6171  0.9605
 1803SOL     OW17467   7.533   5.478   2.971 -0.5234 -1.1244  0.8642
 1803SOL    HW117468   7.522   5.466   3.069  0.8450 -0.4614  1.1123
 1803SOL    HW217469   7.629   5.467   2.946 -0.2007  2.6093  0.1924
 1804SOL     OW17470   0.991   5.829   8.577  0.0856 -0.7667  0.1489
 1804SOL    HW117471   1.070   5.889   8.564 -1.0690  0.9895  0.9532
 1804SOL    HW217472   0.956   5.799   8.488 -0.5860  1.5028 -0.3859
 1805SOL     OW17473   8.355   3.103   0.913  0.4232  0.1837  0.4239
 1805SOL    HW117474   8.437   3.157   0.892 -0.5144  1.1499 -0.8633
 1805SOL    HW217475   8.304   3.086   0.829  0.7633 -2.8789  0.7895
 1806SOL     OW17476   2.534   5.426   4.860 -0.1693  0.1513 -0.2716
 1806SOL    HW117477   2.462   5.398   4.923  0.1282  1.4149  0.6489
 1806SOL    HW217478   2.600   5.484   4.909  0.4228  0.5926 -1.5844
 1807SOL     OW17479   2.414   8.540   7.070  0.0836  0.4752 -0.2326
 1807SOL    HW117480   2.399   8.446   7.040 -1.4338  0.2273  1.2002
 1807SOL    HW217481   2.328   8.590   7.067 -0.1163  0.4909  3.3093
 1808SOL     OW17482   4.630   4.213   1.583 -0.0826 -0.3562  0.1821
 1808SOL    HW117483   4.543   4.186   1.544 -0.1698 -0.8822  0.7389
 1808SOL    HW217484   4.698   4.141   1.567  0.1460 -0.1226  0.0979
 1809SOL     OW17485   9.398   4.725   8.801 -0.5471 -0.1372 -0.3366
 1809SOL    HW117486   9.358   4.640   8.834  0.2531  0.2029  1.5958
 1809SOL    HW217487   9.330   4.798   8.809 -0.4827 -0.1341  0.2380
 1810SOL     OW17488   2.987   6.469   0.574  0.2512 -0.4762  0.2173
 1810SOL    HW117489   2.965   6.557   0.532  0.5228 -0.2580  0.5322
 1810SOL    HW217490   2.994   6.480   0.673  0.3691 -0.8343  0.2489
 1811SOL     OW17491   0.554   4.548   3.185  0.4126  0.7152 -0.7012
 1811SOL    HW117492   0.602   4.473   3.138 -2.8521 -2.3755  0.6851
 1811SOL    HW217493   0.503   4.601   3.118 -0.4823 -0.8024 -1.2493
 1812SOL     OW17494   6.997   2.513   1.518  0.3779 -0.3924 -0.5895
 1812SOL    HW117495   6.982   2.453   1.439 -0.7054 -1.5564  0.4766
 1812SOL    HW217496   7.068   2.473   1.577  0.8700  0.2519 -0.7353
 1813SOL     OW17497   2.516   0.756   7.271 -0.0566  0.5483 -0.3134
 1813SOL    HW117498   2.527   0.662   7.238 -0.5127  0.0898  0.8099
 1813SOL    HW217499   2.602   0.805   7.261  0.7161 -0.5523  0.8341
 1814SOL     OW17500   7.745   7.865   0.896 -0.4209 -0.0431  0.3902
 1814SOL    HW117501   7.679   7.940   0.894  1.3022  1.5081  0.1269
 1814SOL    HW217502   7.784   7.857   0.988  0.9508  0.7868 -0.1105
 1815SOL     OW17503   2.723   1.848   9.271  0.6950  0.6511  0.2846
 1815SOL    HW117504   2.636   1.877   9.231  0.0901 -0.6622  0.5937
 1815SOL    HW217505   2.724   1.871   9.368 -1.2395 -3.3017  1.3548
 1816SOL     OW17506   7.284   1.133   7.493  0.4438  0.8010  0.3325
 1816SOL    HW117507   7.188   1.109   7.479  0.0569  1.4524  1.7405
 1816SOL    HW217508   7.325   1.070   7.560  1.2393 -0.0064 -0.8980
 1817SOL     OW17509   3.099   5.078   0.944  0.0009  0.1015  0.0599
 1817SOL    HW117510   3.150   5.005   0.990  0.4117 -0.0380 -0.6060
 1817SOL    HW217511   3.002   5.071   0.968  0.1081 -0.3845  0.3611
 1818SOL     OW17512   9.661   8.364   3.200  0.4468  0.0048  0.4202
 1818SOL    HW117513   9.670   8.279   3.148  2.2552  2.3836 -3.3908
 1818SOL    HW217514   9.569   8.401   3.186  1.2457  1.1428 -2.0039
 1819SOL     OW17515   5.401   9.233   3.518 -0.1405 -0.3348 -0.2144
 1819SOL    HW117516   5.367   9.171   3.447  1.2023 -1.2789 -0.0482
 1819SOL    HW217517   5.454   9.306   3.475 -0.0986 -0.3810 -0.2424
 1820SOL     OW17518   7.056   0.634   7.351 -0.7760 -0.0052 -0.2759
 1820SOL    HW117519   7.105   0.720   7.337 -0.0195 -0.3322  0.3315
 1820SOL    HW217520   7.090   0.589   7.434 -0.8427 -1.1244 -0.8457
 1821SOL     OW17521   6.126   8.001   5.260  0.2286 -0.6268 -0.4082
 1821SOL    HW117522   6.027   7.997   5.270  0.2792  1.3238  1.2086
 1821SOL    HW217523   6.166   8.047   5.340  2.1226  1.6728 -2.6040
 1822SOL     OW17524   9.976   6.862   7.723  0.4177  0.2484  0.4337
 1822SOL    HW117525   9.968   6.951   7.768 -0.5701 -0.1502  1.0520
 1822SOL    HW217526   9.976   6.789   7.792 -0.7583 -0.3458 -0.1947
 1823SOL     OW17527   9.044   9.112   2.196 -0.0159 -0.5362  0.2428
 1823SOL    HW117528   9.095   9.073   2.273  0.9135 -1.6940 -0.9281
 1823SOL    HW217529   9.033   9.210   2.209  0.8540 -0.5895  1.4505
 1824SOL     OW17530   0.366   9.594   7.618 -0.1670  0.3250  0.5845
 1824SOL    HW117531   0.313   9.633   7.543 -0.1452  3.0366  1.9452
 1824SOL    HW217532   0.462   9.587   7.591 -0.4498 -0.4570 -0.2754
 1825SOL     OW17533   9.402   4.616   6.398  0.2846  0.3219 -0.7308
 1825SOL    HW117534   9.303   4.621   6.388  0.2473 -0.9615 -1.0793
 1825SOL    HW217535   9.444   4.696   6.356 -0.5272  0.1782 -1.8267
 1826SOL     OW17536   9.090   8.452   1.630 -0.4931 -0.5465  0.0740
 1826SOL    HW117537   9.184   8.424   1.651 -0.3512 -1.4942 -1.7019
 1826SOL    HW217538   9.030   8.372   1.635 -1.3992  0.2215  2.1017
 1827SOL     OW17539   4.590   5.219   4.208 -0.2399 -0.1474 -0.5866
 1827SOL    HW117540   4.528   5.197   4.133 -0.6627 -1.6027  0.1720
 1827SOL    HW217541   4.639   5.136   4.237  3.1627  1.2114 -2.1239
 1828SOL     OW17542   9.609   5.316   6.832  0.9481 -0.5271 -0.5469
 1828SOL    HW117543   9.621   5.329   6.931 -0.8278 -0.2498 -0.3538
 1828SOL    HW217544   9.576   5.224   6.814 -0.4174 -0.0082 -0.7344
 1829SOL     OW17545   3.664   8.512   9.411  0.6123 -0.1859  0.5847
 1829SOL    HW117546   3.742   8.454   9.386 -0.1153 -0.4786 -1.0918
 1829SOL    HW217547   3.685   8.607   9.388  0.9509 -0.0889  1.2881
 1830SOL     OW17548   7.937   0.092   3.252 -0.1518  1.0015  0.1406
 1830SOL    HW117549   7.855   0.130   3.295 -1.0491  0.8930 -1.4350
 1830SOL    HW217550   7.976   0.158   3.188 -0.6146  0.0371 -1.1734
 1831SOL     OW17551   2.004   5.205   7.947 -0.5708 -0.2309 -0.2406
 1831SOL    HW117552   1.991   5.277   7.879 -0.8608  0.6148  0.7050
 1831SOL    HW217553   1.922   5.196   8.003  0.7262  1.1471  1.9627
 1832SOL     OW17554   3.106   2.950   2.336 -0.7451 -0.0274 -0.1986
 1832SOL    HW117555   3.159   2.888   2.278  0.8034 -0.5427  1.7134
 1832SOL    HW217556   3.129   3.045   2.315 -1.2503 -0.1666 -1.3958
 1833SOL     OW17557   2.810   6.707   7.793 -0.2414 -0.6555  0.7728
 1833SOL    HW117558   2.854   6.700   7.882  1.0705  0.0663  0.2010
 1833SOL    HW217559   2.881   6.714   7.722 -1.2823  0.9513 -0.1249
 1834SOL     OW17560   2.014   1.147   0.509  0.2915 -0.7362  0.5555
 1834SOL    HW117561   1.980   1.096   0.589 -0.3089 -0.4000  0.5189
 1834SOL    HW217562   2.015   1.245   0.530 -3.8501 -0.2148 -1.2385
 1835SOL     OW17563   1.774   3.306   9.578  0.4328 -0.1916 -0.5160
 1835SOL    HW117564   1.861   3.284   9.622 -0.5682 -0.8424  1.2263
 1835SOL    HW217565   1.722   3.222   9.563  0.2621  0.1551 -1.8935
 1836SOL     OW17566   0.241   2.758   4.785  0.4552 -0.0070  0.3883
 1836SOL    HW117567   0.238   2.856   4.805 -0.3632 -0.5959  3.4344
 1836SOL    HW217568   0.153   2.729   4.749  0.2426  0.1443  0.7771
 1837SOL     OW17569   1.926   6.014   9.954 -0.0760 -0.2797 -0.4669
 1837SOL    HW117570   1.960   6.042  10.045 -0.0797 -1.6056 -0.0545
 1837SOL    HW217571   1.965   5.925   9.930 -2.4833 -1.3737 -0.4215
 1838SOL     OW17572   2.510   5.136   3.751 -0.5056  0.0832  0.3910
 1838SOL    HW117573   2.428   5.081   3.733 -0.9974  1.0920 -0.4969
 1838SOL    HW217574   2.562   5.146   3.667  0.0595  0.2231  0.7554
 1839SOL     OW17575   6.676   0.149   8.482  0.7796  0.5700 -0.0586
 1839SOL    HW117576   6.622   0.065   8.491 -0.4358  1.3665  0.3038
 1839SOL    HW217577   6.751   0.147   8.548 -0.2171  0.4870  1.0870
 1840SOL     OW17578   7.215   5.828   3.986  0.7097  0.1638 -0.1274
 1840SOL    HW117579   7.303   5.841   3.940  0.6831 -0.1301 -0.2658
 1840SOL    HW217580   7.147   5.889   3.946  0.3843 -0.9492 -1.3173
 1841SOL     OW17581   4.922   9.505   5.133  0.0589  0.3407  0.0345
 1841SOL    HW117582   4.892   9.601   5.137 -0.9032  0.0751 -0.5714
 1841SOL    HW217583   4.859   9.448   5.186  0.2485 -0.0357 -0.1412
 1842SOL     OW17584   8.400   9.175   3.734  0.6842 -0.2178  0.3869
 1842SOL    HW117585   8.335   9.170   3.659  1.0201 -0.7550  0.1273
 1842SOL    HW217586   8.439   9.267   3.739  1.4809 -0.4847 -0.7966
 1843SOL     OW17587   2.463   9.858   6.322 -0.0816 -0.7102  0.3286
 1843SOL    HW117588   2.386   9.796   6.338  1.4487 -2.7089  0.1823
 1843SOL    HW217589   2.492   9.851   6.227 -0.3125  0.7557  0.1415
 1844SOL     OW17590   1.042   8.766   3.620 -0.1390 -0.0512  0.0994
 1844SOL    HW117591   1.130   8.719   3.622 -0.0070  0.2058  0.3650
 1844SOL    HW217592   0.972   8.707   3.660 -0.4612 -1.0134 -1.8093
 1845SOL     OW17593   9.990   3.545   4.706  0.4208 -0.1295  0.3880
 1845SOL    HW117594  10.034   3.463   4.669  0.9737 -0.3827  1.5869
 1845SOL    HW217595   9.891   3.539   4.690  0.4851 -0.9123  0.2578
 1846SOL     OW17596   9.866   4.866   9.637 -0.0766  0.1788  0.1935
 1846SOL    HW117597   9.933   4.792   9.642 -0.9413 -0.5899  0.6055
 1846SOL    HW217598   9.882   4.921   9.555  0.6405 -0.3997 -0.0526
 1847SOL     OW17599   1.668   2.962   7.890 -0.3192  0.8726 -0.1118
 1847SOL    HW117600   1.628   2.934   7.977 -0.2387  1.0961 -0.0036
 1847SOL    HW217601   1.595   2.978   7.824 -0.4490  2.0719  0.3177
 1848SOL     OW17602   3.664   6.035   8.684  0.2377 -0.1807 -0.4457
 1848SOL    HW117603   3.606   5.993   8.614  0.9638  0.8180 -1.6607
 1848SOL    HW217604   3.716   6.110   8.644 -0.4647  1.3940  1.5248
 1849SOL     OW17605   4.364   7.305   1.268  0.4551 -0.0802 -0.0791
 1849SOL    HW117606   4.437   7.279   1.332 -1.9778 -2.0468  2.0077
 1849SOL    HW217607   4.342   7.227   1.209  0.3053  0.6157 -0.9396
 1850SOL     OW17608   8.077   0.375   5.830 -0.1485  0.0444 -0.5817
 1850SOL    HW117609   8.129   0.386   5.745  0.1603  0.2671 -0.3620
 1850SOL    HW217610   8.098   0.287   5.871  0.8456  0.5740  0.0536
 1851SOL     OW17611   8.103   1.880   2.767 -0.1068  0.1714 -0.3253
 1851SOL    HW117612   8.171   1.939   2.722 -0.2730  0.8479  0.2958
 1851SOL    HW217613   8.039   1.937   2.818 -0.9652 -0.4886 -0.6542
 1852SOL     OW17614   4.185   6.520   8.407  0.1873  0.1861 -0.1575
 1852SOL    HW117615   4.116   6.540   8.476 -0.0562  0.0069 -0.3501
 1852SOL    HW217616   4.167   6.430   8.366  0.9678 -0.2001  0.3314
 1853SOL     OW17617   3.481   2.891   3.864 -0.0839 -0.0490  0.9849
 1853SOL    HW117618   3.397   2.873   3.814 -0.1554  0.7611  0.8045
 1853SOL    HW217619   3.516   2.805   3.903  0.2323 -0.7577 -0.8395
 1854SOL     OW17620   9.389   9.829   5.285 -0.0750  0.1678  0.1095
 1854SOL    HW117621   9.459   9.761   5.266  1.6417  1.8188  0.4402
 1854SOL    HW217622   9.302   9.783   5.302  0.7770 -1.8670 -0.8981
 1855SOL     OW17623   3.610   2.085   0.491 -0.6335  0.2231  0.3401
 1855SOL    HW117624   3.639   2.071   0.397 -1.9577  1.2557 -0.2343
 1855SOL    HW217625   3.669   2.031   0.552  0.0666 -0.6547 -1.0747
 1856SOL     OW17626   1.429   1.823   2.904 -0.7678 -0.3654  0.2215
 1856SOL    HW117627   1.516   1.826   2.952 -0.1852  0.7361 -0.8796
 1856SOL    HW217628   1.414   1.733   2.865  0.3963 -0.2286 -0.5359
 1857SOL     OW17629   1.273   8.907   3.785 -0.4209 -0.1328  0.3798
 1857SOL    HW117630   1.332   8.839   3.742 -2.6227 -3.0538  1.7926
 1857SOL    HW217631   1.265   8.887   3.883 -0.6864  2.5151  0.9397
 1858SOL     OW17632   2.069   1.438   0.251 -0.1874 -0.2557 -0.2842
 1858SOL    HW117633   2.159   1.396   0.237 -1.1086 -2.1466 -0.7136
 1858SOL    HW217634   2.014   1.426   0.168 -1.0494  0.3202  0.2028
 1859SOL     OW17635   0.240   3.047   4.775  0.7559 -0.5858 -0.1768
 1859SOL    HW117636   0.317   3.109   4.789 -0.4658  0.8155  0.4938
 1859SOL    HW217637   0.154   3.098   4.783 -0.2311 -1.7687 -2.5621
 1860SOL     OW17638   4.629   1.719   3.993  0.4418 -0.6575 -0.0589
 1860SOL    HW117639   4.624   1.619   3.995  0.7781 -0.6995 -0.8135
 1860SOL    HW217640   4.615   1.750   3.899  1.0576 -0.0388  0.0520
 1861SOL     OW17641   3.500   3.140   7.443  0.1195 -0.6260 -0.2352
 1861SOL    HW117642   3.558   3.123   7.523 -0.2715  0.9346  0.4133
 1861SOL    HW217643   3.458   3.055   7.413  1.3108 -1.4575  0.4160
 1862SOL     OW17644   2.638   7.592   4.707 -1.1228 -0.3310  0.2628
 1862SOL    HW117645   2.657   7.690   4.717 -1.8910 -0.2569  1.0373
 1862SOL    HW217646   2.588   7.577   4.622  0.4466 -0.2606 -0.6875
 1863SOL     OW17647   7.121   5.119   1.549  0.1763  0.2165  0.1645
 1863SOL    HW117648   7.024   5.138   1.534  0.0712  0.1904  0.7906
 1863SOL    HW217649   7.153   5.053   1.482 -0.6894 -1.1583  1.0665
 1864SOL     OW17650   0.218   5.062   9.849  0.0296  0.5567  0.0939
 1864SOL    HW117651   0.218   4.994   9.922  0.4028 -0.5526 -0.9159
 1864SOL    HW217652   0.126   5.069   9.809  0.4610 -0.9611 -1.2360
 1865SOL     OW17653   9.241   5.434   7.086 -0.3185 -0.0631  0.4921
 1865SOL    HW117654   9.141   5.424   7.083 -0.2346 -0.7069 -0.2423
 1865SOL    HW217655   9.281   5.389   7.007  0.5861 -0.1284  0.9847
 1866SOL     OW17656   5.433   0.085   5.763  0.0489 -0.0850  0.1347
 1866SOL    HW117657   5.514   0.046   5.806  0.0234  0.3156  0.5450
 1866SOL    HW217658   5.451   0.180   5.736 -0.0834 -0.1891 -0.3273
 1867SOL     OW17659   5.147   6.091   2.280  0.2355  0.1769 -0.2228
 1867SOL    HW117660   5.136   6.188   2.300 -1.2602  0.2167 -1.1573
 1867SOL    HW217661   5.071   6.040   2.321  1.6238 -0.7394  1.2308
 1868SOL     OW17662   2.622   1.876   5.657  0.3224 -0.1962  0.5159
 1868SOL    HW117663   2.682   1.857   5.578 -0.4449 -1.0414  0.1291
 1868SOL    HW217664   2.531   1.839   5.640 -0.1118  0.4184  1.4296
 1869SOL     OW17665   0.300   9.811   8.363 -0.0342 -0.0756 -0.2429
 1869SOL    HW117666   0.230   9.744   8.385  0.7372 -0.6441  0.5129
 1869SOL    HW217667   0.290   9.891   8.422  0.5407 -0.5646  0.5198
 1870SOL     OW17668   1.726   8.540   5.562  0.2086  0.3480 -0.0889
 1870SOL    HW117669   1.719   8.459   5.620 -0.4264  1.0679  0.8506
 1870SOL    HW217670   1.821   8.573   5.561  0.1827  0.4595  0.7272
 1871SOL     OW17671   8.569   1.994   9.228 -0.4910 -0.2274  0.0875
 1871SOL    HW117672   8.585   1.995   9.129 -0.1323  1.1151  0.1515
 1871SOL    HW217673   8.634   1.933   9.272  1.7294  1.9252 -0.1162
 1872SOL     OW17674   3.306   5.264   4.987  0.5442 -0.3054  0.1673
 1872SOL    HW117675   3.330   5.355   4.954 -0.5944 -0.3797 -0.9050
 1872SOL    HW217676   3.382   5.201   4.971  0.4869 -0.0481 -1.1810
 1873SOL     OW17677   6.768   8.831   2.158  0.7588 -0.0010  0.0287
 1873SOL    HW117678   6.688   8.857   2.104 -0.6064  0.1062  2.0164
 1873SOL    HW217679   6.844   8.808   2.098 -1.2780 -1.7101 -1.9830
 1874SOL     OW17680   4.223   2.234   0.191 -0.0111  0.6330  0.0902
 1874SOL    HW117681   4.177   2.319   0.215 -0.6369  0.4973 -0.6172
 1874SOL    HW217682   4.201   2.210   0.096 -1.4782 -1.4043  0.9403
 1875SOL     OW17683   9.162   2.042   6.791  0.1550  0.5097 -0.1584
 1875SOL    HW117684   9.127   1.997   6.708  0.0455  1.8379 -0.8625
 1875SOL    HW217685   9.088   2.095   6.833  0.0343 -0.7197  1.1858
 1876SOL     OW17686   4.923   4.717   1.579 -0.3217 -0.2792  0.1050
 1876SOL    HW117687   4.974   4.795   1.544 -0.6670  0.8092  1.9326
 1876SOL    HW217688   4.825   4.737   1.578 -0.3407 -0.1993  1.6798
 1877SOL     OW17689   2.599   8.879   0.988  0.1854 -0.0665 -0.3532
 1877SOL    HW117690   2.634   8.799   0.939  1.5299  1.1099 -1.3260
 1877SOL    HW217691   2.627   8.962   0.941 -0.2743  1.0224  1.2708
 1878SOL     OW17692   6.581   0.133   5.693  0.8072  0.1540 -0.6941
 1878SOL    HW117693   6.640   0.195   5.745  1.2372  0.5757 -1.6658
 1878SOL    HW217694   6.607   0.039   5.714  0.6822  0.3106  0.1880
 1879SOL     OW17695   3.430   2.913   6.960  0.1609  0.7539  0.4678
 1879SOL    HW117696   3.490   2.938   6.884  0.3457 -0.4939  0.2037
 1879SOL    HW217697   3.484   2.883   7.038 -0.1363 -1.9605 -0.3289
 1880SOL     OW17698   5.827   8.250   5.691 -1.1357  0.1499 -0.0434
 1880SOL    HW117699   5.733   8.241   5.722 -0.3809 -2.0114  1.7029
 1880SOL    HW217700   5.875   8.163   5.703  1.6714  1.7975  1.0983
 1881SOL     OW17701   4.893   4.150   8.641  0.2858 -0.0466 -0.2797
 1881SOL    HW117702   4.843   4.136   8.555 -0.6019 -1.3649  0.4236
 1881SOL    HW217703   4.851   4.095   8.713  1.3001  0.6937  0.9026
 1882SOL     OW17704   7.253   9.990   8.340 -0.4220 -0.1376 -0.0266
 1882SOL    HW117705   7.313  10.069   8.353 -0.4184 -0.1913  0.2970
 1882SOL    HW217706   7.246   9.939   8.426  0.6807 -1.2795 -0.5922
 1883SOL     OW17707   8.641   1.900   9.593  0.1499  0.2281 -0.5254
 1883SOL    HW117708   8.583   1.854   9.526 -3.0654  0.8647  1.7307
 1883SOL    HW217709   8.671   1.834   9.662 -0.1208  0.4564 -0.1912
 1884SOL     OW17710   9.486   6.759   3.330 -0.6292  0.0549 -0.4796
 1884SOL    HW117711   9.450   6.832   3.389  1.9076  2.1195 -1.4038
 1884SOL    HW217712   9.434   6.757   3.245 -1.5861 -0.1509  0.0957
 1885SOL     OW17713   8.684   5.735   7.446  0.3918  0.1105  0.2865
 1885SOL    HW117714   8.652   5.657   7.392  0.2528  0.3546  0.0196
 1885SOL    HW217715   8.783   5.746   7.432  0.4020  0.0149  0.2830
 1886SOL     OW17716   4.650   0.093   6.072 -0.1614 -0.4072  0.4969
 1886SOL    HW117717   4.578   0.122   6.009 -0.1260 -0.8055  0.2729
 1886SOL    HW217718   4.731   0.149   6.057  0.6695 -2.0570 -1.4745
 1887SOL     OW17719   1.025   1.075   1.584  0.1376  0.5396 -0.2227
 1887SOL    HW117720   1.028   1.174   1.574  0.8267  0.5155 -0.2619
 1887SOL    HW217721   1.104   1.034   1.540 -0.6093 -0.1020 -0.9786
 1888SOL     OW17722   1.236   2.183   0.184  0.0684  0.0596  0.1914
 1888SOL    HW117723   1.330   2.148   0.177 -0.1341 -0.3831 -0.3411
 1888SOL    HW217724   1.223   2.256   0.116  0.1114  0.3130  0.4549
 1889SOL     OW17725   4.841   4.764   0.752 -0.3263  0.2854 -0.5989
 1889SOL    HW117726   4.871   4.711   0.832 -0.1676 -0.5559 -1.2133
 1889SOL    HW217727   4.887   4.853   0.753 -1.8283  1.0946  1.3279
 1890SOL     OW17728   3.417   9.169  10.002  0.2754  0.3000 -0.0261
 1890SOL    HW117729   3.372   9.108  10.067  1.0627  0.3508  0.5724
 1890SOL    HW217730   3.498   9.209  10.044 -0.2272  1.7527 -0.4210
 1891SOL     OW17731   4.526   2.931   9.748 -0.0030 -0.2247  0.3245
 1891SOL    HW117732   4.573   2.990   9.814  0.3999 -0.3964  0.1963
 1891SOL    HW217733   4.593   2.869   9.707 -0.4690 -0.9307  0.6355
 1892SOL     OW17734   8.683   8.718   9.164 -0.4953  0.6546 -0.0277
 1892SOL    HW117735   8.744   8.648   9.201 -0.9133 -0.0431 -0.6464
 1892SOL    HW217736   8.737   8.787   9.116 -0.1095  0.5335  0.2313
 1893SOL     OW17737   0.872   1.418   6.721 -0.6726 -0.6243 -0.0477
 1893SOL    HW117738   0.782   1.387   6.689 -0.4986 -0.2529 -0.9187
 1893SOL    HW217739   0.861   1.470   6.805 -1.2750 -0.5995 -0.1380
 1894SOL     OW17740   9.198   2.721   9.024  0.0030  0.0483 -0.0798
 1894SOL    HW117741   9.219   2.658   9.098 -1.8069 -2.0599 -1.2865
 1894SOL    HW217742   9.178   2.669   8.941  0.5091  2.3041 -1.6685
 1895SOL     OW17743   8.454   0.005   9.920  0.2605  0.5043 -0.6449
 1895SOL    HW117744   8.442   0.034   9.825  1.2675  1.8246 -0.3709
 1895SOL    HW217745   8.368   0.021   9.970 -0.2855 -0.2365 -1.3295
 1896SOL     OW17746   3.233   8.110   5.680  0.4038 -1.2192  0.9381
 1896SOL    HW117747   3.168   8.164   5.626  0.5754 -1.6441  0.2971
 1896SOL    HW217748   3.185   8.069   5.758  0.6856  1.4717  2.5986
 1897SOL     OW17749   3.247   7.629   5.934  0.0283  0.5724 -0.3218
 1897SOL    HW117750   3.149   7.617   5.916 -0.0606  2.0032 -0.8798
 1897SOL    HW217751   3.298   7.615   5.849  0.2045  0.8408 -0.2608
 1898SOL     OW17752   8.455   6.203   4.091 -0.0838  0.6183  0.0079
 1898SOL    HW117753   8.545   6.222   4.128  0.9842 -1.6694 -1.2951
 1898SOL    HW217754   8.393   6.178   4.165  1.3410 -1.4245  0.5454
 1899SOL     OW17755   7.505   1.326   7.879  0.6286  0.4933  0.1277
 1899SOL    HW117756   7.451   1.408   7.897 -1.2793 -0.4572 -1.0443
 1899SOL    HW217757   7.559   1.340   7.796  0.7080  0.7610  0.2235
 1900SOL     OW17758   3.649   2.419   2.951  0.4643  0.1642 -0.0747
 1900SOL    HW117759   3.667   2.351   2.880  0.7826  0.4101 -0.2315
 1900SOL    HW217760   3.561   2.462   2.934 -0.5831 -1.4724  1.0362
 1901SOL     OW17761   2.542   0.672   2.443  0.1766  0.5665  0.1221
 1901SOL    HW117762   2.479   0.610   2.490  0.1984 -0.1008 -0.7251
 1901SOL    HW217763   2.491   0.731   2.380  0.1409  1.4980  1.0129
 1902SOL     OW17764   3.465   9.165   3.191 -0.2026  0.4357  0.1187
 1902SOL    HW117765   3.559   9.198   3.185 -0.8332  2.1852 -0.4180
 1902SOL    HW217766   3.464   9.077   3.240  1.6952  0.3764  0.1074
 1903SOL     OW17767   1.829   1.116   7.108 -0.2354  0.0918 -0.1773
 1903SOL    HW117768   1.872   1.138   7.196 -1.9850  0.3703  0.6420
 1903SOL    HW217769   1.779   1.029   7.117 -0.0292 -0.1210 -1.0405
 1904SOL     OW17770   9.389   5.338   0.223 -0.5358 -0.2098 -0.8049
 1904SOL    HW117771   9.463   5.335   0.156 -0.6730 -0.4117 -0.9487
 1904SOL    HW217772   9.355   5.245   0.239 -1.1127 -0.0627 -1.1399
 1905SOL     OW17773   5.811   8.490   6.118 -0.1662 -0.7848 -0.2181
 1905SOL    HW117774   5.819   8.587   6.093  0.4450 -0.6539  0.4604
 1905SOL    HW217775   5.773   8.482   6.210  0.4371 -1.1662  0.0015
 1906SOL     OW17776   2.144   6.733   0.358  0.5169  0.2794  0.5597
 1906SOL    HW117777   2.145   6.701   0.263 -1.2199 -1.0200  0.9539
 1906SOL    HW217778   2.200   6.672   0.414  0.2392  0.1061  0.6500
 1907SOL     OW17779   2.565   9.331   1.932 -0.1088  0.1319  0.3607
 1907SOL    HW117780   2.612   9.371   2.010  0.7464  1.2213 -0.6984
 1907SOL    HW217781   2.468   9.319   1.953  0.0760  0.6326  1.5006
 1908SOL     OW17782   9.970   5.113   2.127 -0.4926 -0.2349  0.4987
 1908SOL    HW117783   9.979   5.168   2.043 -1.7892 -0.8567 -0.0727
 1908SOL    HW217784   9.904   5.157   2.188 -0.9061 -0.7193  0.4024
 1909SOL     OW17785   0.303   5.922   4.994  0.1233  0.3186  0.9642
 1909SOL    HW117786   0.394   5.883   4.997  0.2889  0.4800 -1.0978
 1909SOL    HW217787   0.247   5.871   4.929 -0.3929  1.9395  0.1088
 1910SOL     OW17788   8.100   5.870   3.198  0.0441  0.0105  0.4105
 1910SOL    HW117789   8.010   5.831   3.216 -0.5428  1.0059 -0.2971
 1910SOL    HW217790   8.159   5.857   3.278 -0.1001 -2.3707  0.1353
 1911SOL     OW17791   4.734   0.227   8.979  0.8398  0.0661  0.1547
 1911SOL    HW117792   4.763   0.240   9.074  1.3284  1.6966 -0.2021
 1911SOL    HW217793   4.726   0.316   8.934 -0.8198 -0.6090 -0.9153
 1912SOL     OW17794   8.944   1.767   3.113  0.4005 -0.8977  0.1909
 1912SOL    HW117795   8.979   1.812   3.195  2.4364  1.0587 -1.6846
 1912SOL    HW217796   8.999   1.686   3.093  0.1478 -1.1521  0.5180
 1913SOL     OW17797   3.038   3.790   5.439 -0.3201  0.5472  0.3046
 1913SOL    HW117798   3.133   3.818   5.423 -0.4314  0.9210  0.3100
 1913SOL    HW217799   3.025   3.769   5.536 -0.3359  0.8330  0.3635
 1914SOL     OW17800   3.617   7.668   0.628  0.0412  0.3252  0.1383
 1914SOL    HW117801   3.673   7.751   0.623 -2.6816  2.2466  0.2104
 1914SOL    HW217802   3.587   7.654   0.722 -1.5854  0.7052 -0.3146
 1915SOL     OW17803   6.899   8.952   1.886 -0.1252 -0.0417 -0.3831
 1915SOL    HW117804   6.823   9.008   1.919 -0.3980 -1.3917  1.3807
 1915SOL    HW217805   6.868   8.892   1.813 -0.8949 -0.9774  0.7065
 1916SOL     OW17806   8.033   0.279   7.853  0.3732 -0.3696 -0.4129
 1916SOL    HW117807   8.123   0.242   7.870  0.3343  1.2215  3.9537
 1916SOL    HW217808   7.963   0.216   7.887  0.1004  0.7427  1.1882
 1917SOL     OW17809   4.321   0.046   9.667  0.1725 -0.1783  0.1674
 1917SOL    HW117810   4.314   0.066   9.569  0.0115 -1.2969 -0.0609
 1917SOL    HW217811   4.408   0.001   9.686 -0.5753 -1.6350  0.2258
 1918SOL     OW17812   3.509   9.948   3.041  0.6435  0.3174 -0.2338
 1918SOL    HW117813   3.539   9.984   3.130  1.1786 -0.0798 -0.2523
 1918SOL    HW217814   3.583   9.895   3.000  1.1437  2.2839 -1.9093
 1919SOL     OW17815   6.765   0.923   5.927 -0.5140  0.2168  0.1388
 1919SOL    HW117816   6.723   0.932   6.017  0.2533 -1.6242  0.7105
 1919SOL    HW217817   6.701   0.877   5.865 -0.6689  0.5967  0.0139
 1920SOL     OW17818   3.314   5.754   2.848 -0.2215 -0.1450 -0.8638
 1920SOL    HW117819   3.404   5.755   2.892 -0.0431 -0.4843 -1.2063
 1920SOL    HW217820   3.324   5.719   2.754 -0.7175 -0.2389 -0.8834
 1921SOL     OW17821   3.224   9.363   3.443  0.3928  0.7339 -0.3112
 1921SOL    HW117822   3.163   9.442   3.451 -0.5004  0.0816 -0.6354
 1921SOL    HW217823   3.191   9.303   3.371  1.3809  0.3354 -0.4312
 1922SOL     OW17824   6.022   4.837   1.122  0.3332  0.1866 -0.1962
 1922SOL    HW117825   6.040   4.767   1.192 -0.6829 -1.6281 -1.6993
 1922SOL    HW217826   6.079   4.917   1.140  1.4581 -0.9723  1.6423
 1923SOL     OW17827   4.467   2.001   9.814  0.2508 -0.2546  0.4381
 1923SOL    HW117828   4.542   1.966   9.871 -1.1557 -0.9027  1.9082
 1923SOL    HW217829   4.421   1.925   9.769 -0.2627  0.0476  0.4530
 1924SOL     OW17830   7.135   6.182   9.399  0.5623 -0.4730 -0.2319
 1924SOL    HW117831   7.087   6.186   9.487  0.6670 -0.2263 -0.1836
 1924SOL    HW217832   7.217   6.126   9.409  0.8749  0.0092 -0.0192
 1925SOL     OW17833   5.768   4.358   9.726  0.0373 -0.2677 -0.2499
 1925SOL    HW117834   5.740   4.299   9.802  0.1912 -2.5548 -1.8972
 1925SOL    HW217835   5.693   4.366   9.661  1.0560 -1.2446 -1.5751
 1926SOL     OW17836   4.901   1.314   8.142 -0.5588 -0.0810  0.6997
 1926SOL    HW117837   4.806   1.301   8.112 -0.7915  1.1095  0.8876
 1926SOL    HW217838   4.924   1.245   8.210 -1.1181 -0.7140  0.2559
 1927SOL     OW17839   3.849   6.346   8.448 -0.3897  0.5794 -0.1129
 1927SOL    HW117840   3.757   6.352   8.410 -0.4213 -3.4951 -0.9204
 1927SOL    HW217841   3.844   6.304   8.539  0.6771  0.1551 -0.2484
 1928SOL     OW17842   9.870   9.964   2.028  0.3788  0.1366 -0.5681
 1928SOL    HW117843   9.856   9.866   2.021  0.3800  0.1438 -0.6565
 1928SOL    HW217844   9.968   9.983   2.040  0.3189  0.0947 -0.0081
 1929SOL     OW17845   0.628   4.471   8.725 -0.2028  0.3096  0.1944
 1929SOL    HW117846   0.604   4.386   8.772  2.8278  0.4933  2.1919
 1929SOL    HW217847   0.701   4.452   8.658 -0.4270  1.1254 -0.2829
 1930SOL     OW17848   9.049   0.502   8.614  0.1144 -0.4597 -0.3057
 1930SOL    HW117849   8.999   0.426   8.573 -0.7166 -0.2565  0.3162
 1930SOL    HW217850   9.114   0.539   8.547  1.4316 -2.5064 -0.2010
 1931SOL     OW17851   4.778   0.610   1.944  0.7433  0.1280  0.4188
 1931SOL    HW117852   4.808   0.689   1.997  1.1634 -0.6822  1.4165
 1931SOL    HW217853   4.708   0.638   1.878 -0.4999  0.9951  2.0639
 1932SOL     OW17854   3.547   6.047   3.149  0.3856  0.8590  0.7326
 1932SOL    HW117855   3.480   6.069   3.220  1.5539  0.0865  2.0934
 1932SOL    HW217856   3.609   5.976   3.182  0.4564 -0.0881 -1.3621
 1933SOL     OW17857   3.417   5.839   4.938  0.4184  0.0128 -0.2829
 1933SOL    HW117858   3.342   5.891   4.896  2.0143  1.0655 -1.8615
 1933SOL    HW217859   3.446   5.884   5.022 -0.7588 -0.4474  0.3847
 1934SOL     OW17860   0.010   1.440   0.491  0.0452 -0.1313 -0.1936
 1934SOL    HW117861   0.109   1.451   0.499  0.2520 -1.3549 -0.9859
 1934SOL    HW217862  -0.015   1.423   0.396 -0.9397  0.2006 -0.0085
 1935SOL     OW17863   3.637   2.055   3.434  0.2336  0.0509  0.5211
 1935SOL    HW117864   3.609   2.039   3.528 -2.7480  0.7267 -0.1939
 1935SOL    HW217865   3.694   2.137   3.429  0.2486  0.1118  1.7089
 1936SOL     OW17866   0.581   8.014   1.081 -0.2725 -0.2340 -1.0043
 1936SOL    HW117867   0.546   7.994   1.173  1.6694  1.0210  0.0286
 1936SOL    HW217868   0.504   8.019   1.017 -1.6814 -0.8470  0.5899
 1937SOL     OW17869   4.970   9.008   8.187 -0.2421  0.2878  0.0665
 1937SOL    HW117870   4.982   8.929   8.248 -2.1266  0.5221  0.7493
 1937SOL    HW217871   5.032   9.081   8.216  1.4905 -0.8873 -0.5365
 1938SOL     OW17872   6.499   5.743   9.584  0.0618 -0.5804  0.4880
 1938SOL    HW117873   6.424   5.738   9.650 -1.0001  0.1655 -0.6417
 1938SOL    HW217874   6.479   5.814   9.516  0.5305 -2.1943 -1.3752
 1939SOL     OW17875   2.155   1.172   5.729  0.3584  0.2384 -0.7171
 1939SOL    HW117876   2.081   1.106   5.714 -0.2851  1.5184 -3.4406
 1939SOL    HW217877   2.149   1.245   5.661  3.9150  0.5804 -0.7588
 1940SOL     OW17878   9.503   8.398   5.418  0.1502 -0.1810  0.1077
 1940SOL    HW117879   9.484   8.303   5.393 -0.1190  0.1739 -1.0856
 1940SOL    HW217880   9.591   8.403   5.464 -0.4645 -1.1988  1.4367
 1941SOL     OW17881   9.672   1.641   5.814 -0.2345  0.4229  0.1120
 1941SOL    HW117882   9.575   1.616   5.813 -0.7158  2.2107  0.1546
 1941SOL    HW217883   9.691   1.696   5.895  0.6136  0.8560 -0.3805
 1942SOL     OW17884   9.234   0.861   9.990  0.0575  0.1657 -0.4224
 1942SOL    HW117885   9.332   0.864   9.972  0.3201  2.2051  1.0333
 1942SOL    HW217886   9.184   0.846   9.905  1.6215 -0.7507 -1.1936
 1943SOL     OW17887   7.934   3.390   2.624  0.2029  0.4114 -0.2062
 1943SOL    HW117888   8.015   3.350   2.583  0.6549  0.1180  0.9679
 1943SOL    HW217889   7.852   3.350   2.582  0.6558 -0.5935 -0.1389
 1944SOL     OW17890   8.724   0.337   4.676 -0.4386 -0.5905  0.6237
 1944SOL    HW117891   8.769   0.421   4.708 -0.3941  0.7318 -2.6942
 1944SOL    HW217892   8.794   0.270   4.649 -0.4066  0.0103 -0.8699
 1945SOL     OW17893   4.301   0.725   6.494 -0.1151 -0.4031 -0.2841
 1945SOL    HW117894   4.379   0.773   6.454 -0.9395  1.0398 -0.1861
 1945SOL    HW217895   4.221   0.786   6.496 -0.5574 -1.0059  1.9616
 1946SOL     OW17896   2.434   3.877   5.360  0.2751 -0.8530 -0.3708
 1946SOL    HW117897   2.400   3.822   5.436 -1.7147 -1.8859 -1.9432
 1946SOL    HW217898   2.391   3.967   5.362  3.5096  0.6989  2.1868
 1947SOL     OW17899   8.270   7.980   6.220  0.7065  0.6441  0.2670
 1947SOL    HW117900   8.305   7.963   6.128  0.0250  0.7759 -0.0182
 1947SOL    HW217901   8.330   7.937   6.287  1.0378  0.2945 -0.2526
 1948SOL     OW17902   6.870   0.732   7.602  0.0036  0.3774 -0.0630
 1948SOL    HW117903   6.897   0.795   7.529  1.0665 -0.7480 -0.6446
 1948SOL    HW217904   6.801   0.777   7.660  0.3063  1.8549 -0.8115
 1949SOL     OW17905   1.194   5.291   1.781  0.0141 -0.6983  0.0512
 1949SOL    HW117906   1.101   5.284   1.745 -1.3430  0.2256  3.2491
 1949SOL    HW217907   1.201   5.241   1.867  2.0436  0.5847  0.6808
 1950SOL     OW17908   4.362   3.456   2.251  0.8064 -0.6449  0.0095
 1950SOL    HW117909   4.367   3.398   2.171  1.7557 -2.0068  1.0408
 1950SOL    HW217910   4.453   3.490   2.274  0.2478  1.3917 -0.6694
 1951SOL     OW17911   6.215   1.820   0.429 -0.3642  0.7567  0.0967
 1951SOL    HW117912   6.222   1.720   0.424  1.4218  0.9201 -1.0207
 1951SOL    HW217913   6.271   1.862   0.358 -1.4786  2.5698  0.2397
 1952SOL     OW17914   7.376   5.049   1.791 -0.6638 -0.2722 -0.0128
 1952SOL    HW117915   7.409   4.958   1.816 -0.0666 -0.4026 -1.2574
 1952SOL    HW217916   7.277   5.046   1.778 -0.4146 -1.1951 -1.9002
 1953SOL     OW17917   3.402   0.289   9.754  0.3267 -0.4610 -0.4000
 1953SOL    HW117918   3.311   0.258   9.728 -0.0632 -0.5731  1.0494
 1953SOL    HW217919   3.468   0.217   9.737  0.0795 -0.5404 -1.0392
 1954SOL     OW17920   7.049   6.660   2.761  0.5044  0.7300  0.1777
 1954SOL    HW117921   7.012   6.609   2.839  0.9522 -1.4368 -0.9585
 1954SOL    HW217922   7.147   6.670   2.771  0.7912 -0.8401 -0.7494
 1955SOL     OW17923   5.674   0.409   7.299  0.0414  0.6759 -0.1930
 1955SOL    HW117924   5.607   0.428   7.370  0.2481 -0.9723  0.4547
 1955SOL    HW217925   5.640   0.336   7.240  1.0089  0.2513 -0.2238
 1956SOL     OW17926   9.917   9.314   8.646 -0.4670 -0.2559 -0.2465
 1956SOL    HW117927   9.982   9.296   8.721 -0.4458 -1.0525 -0.4554
 1956SOL    HW217928   9.962   9.299   8.559 -0.6064  0.3043 -0.4185
 1957SOL     OW17929   8.744   8.441   7.347  0.3253 -0.2505  0.0958
 1957SOL    HW117930   8.756   8.353   7.393  0.6904 -0.5763 -0.6077
 1957SOL    HW217931   8.811   8.506   7.382 -0.3065 -0.0884  1.0125
 1958SOL     OW17932   0.052   2.085   9.768 -0.1555  0.3547  0.1001
 1958SOL    HW117933   0.029   2.171   9.814  1.0943 -0.3368  2.0408
 1958SOL    HW217934   0.011   2.085   9.677 -2.5948  1.7733  1.1462
 1959SOL     OW17935   0.357   8.979   8.178  0.1884  0.0461  0.1844
 1959SOL    HW117936   0.281   8.913   8.177 -0.5201  0.8494  0.5732
 1959SOL    HW217937   0.360   9.027   8.091 -0.5369  0.9059  0.6299
 1960SOL     OW17938   8.181   3.341   4.110  0.0884  0.0522 -0.3096
 1960SOL    HW117939   8.182   3.253   4.063  0.9968 -0.9388  1.5247
 1960SOL    HW217940   8.246   3.339   4.186 -1.6350  1.4626  1.2429
 1961SOL     OW17941   6.464   9.594   7.410  0.5951 -0.4984 -0.3416
 1961SOL    HW117942   6.483   9.496   7.400  0.6133 -0.5947  0.5464
 1961SOL    HW217943   6.406   9.608   7.490 -2.3796 -0.1298 -2.4882
 1962SOL     OW17944   1.496   3.228   9.104  0.1172 -0.2746 -0.3184
 1962SOL    HW117945   1.441   3.299   9.060  0.1616 -0.0037  0.0657
 1962SOL    HW217946   1.526   3.259   9.194 -0.5153 -1.0693  0.1856
 1963SOL     OW17947   0.352   3.367   1.531  0.5128 -0.3936 -0.4819
 1963SOL    HW117948   0.270   3.310   1.522 -0.8143  1.6433 -1.6804
 1963SOL    HW217949   0.429   3.321   1.487 -0.0421 -2.1913  0.3860
 1964SOL     OW17950   1.120   5.256   9.941  0.1835  0.1226 -0.1143
 1964SOL    HW117951   1.146   5.350   9.964 -0.6306  0.1210  0.8383
 1964SOL    HW217952   1.187   5.218   9.877  0.4969  1.3657 -0.5429
 1965SOL     OW17953   7.491   0.874   6.836 -0.3899 -0.2227  0.4600
 1965SOL    HW117954   7.536   0.899   6.750 -1.7666  1.9326  0.2997
 1965SOL    HW217955   7.412   0.815   6.816 -1.3075  1.0919  0.1093
 1966SOL     OW17956   1.954   0.140   1.015 -0.7783  0.0664 -0.0124
 1966SOL    HW117957   1.972   0.058   1.069 -1.3928  1.5810  2.6009
 1966SOL    HW217958   2.041   0.182   0.989 -0.4756 -0.7637 -0.3634
 1967SOL     OW17959   9.082   2.603   6.118 -0.2530 -0.1874  0.3571
 1967SOL    HW117960   9.124   2.516   6.144 -0.1774 -0.4104 -0.5227
 1967SOL    HW217961   8.983   2.598   6.136 -0.3122 -0.5939 -0.0637
 1968SOL     OW17962   3.065   7.828   1.622 -0.4913  0.0431  0.1149
 1968SOL    HW117963   2.982   7.882   1.605 -0.3683  0.7297  1.6543
 1968SOL    HW217964   3.078   7.764   1.546 -1.5352  1.0430 -0.9461
 1969SOL     OW17965   7.203   2.744   0.565  0.0406  0.1646 -0.0622
 1969SOL    HW117966   7.183   2.660   0.615  0.8694 -0.2860 -0.4769
 1969SOL    HW217967   7.120   2.776   0.519 -0.0254 -0.9986 -0.7602
 1970SOL     OW17968   0.518   2.585   5.071 -0.1985  0.2250  0.2448
 1970SOL    HW117969   0.589   2.541   5.126 -0.0291 -0.0546 -0.1860
 1970SOL    HW217970   0.554   2.669   5.031 -0.1962  0.2261  0.2493
 1971SOL     OW17971   0.275   3.130   1.735  0.4069  0.3774  0.1776
 1971SOL    HW117972   0.226   3.150   1.650 -0.5591 -2.2636  0.0498
 1971SOL    HW217973   0.215   3.149   1.813 -0.9517 -2.9188  0.0182
 1972SOL     OW17974   5.590   9.988   6.404  0.1986  0.0257 -0.8364
 1972SOL    HW117975   5.610  10.039   6.488 -1.2983  1.3688 -1.2705
 1972SOL    HW217976   5.623   9.894   6.414 -0.1111  0.1084  1.3328
 1973SOL     OW17977  10.000   7.781   9.571 -0.1736  0.2003 -0.2598
 1973SOL    HW117978   9.929   7.829   9.622  0.0951 -0.3742  0.6579
 1973SOL    HW217979  10.026   7.697   9.619  2.5138  1.3745  0.4833
 1974SOL     OW17980   3.344   9.627   4.847 -0.2999  0.0395  0.4182
 1974SOL    HW117981   3.256   9.670   4.865 -1.8778 -1.9723 -2.2727
 1974SOL    HW217982   3.351   9.541   4.898 -0.8423 -0.9230 -1.1136
 1975SOL     OW17983   5.383   2.281   9.981  0.1226  0.0735  0.3975
 1975SOL    HW117984   5.376   2.182   9.986  0.5444  0.0971  1.4474
 1975SOL    HW217985   5.440   2.307   9.902 -0.6652 -0.4834 -0.3640
 1976SOL     OW17986   8.858   9.893   4.408  0.7674 -0.0780 -0.6045
 1976SOL    HW117987   8.815   9.875   4.497  1.3657  0.4433 -0.2124
 1976SOL    HW217988   8.957   9.882   4.416  0.9002  0.8237 -0.9982
 1977SOL     OW17989   1.322   6.537   6.488 -0.5155 -0.9122  0.1721
 1977SOL    HW117990   1.346   6.534   6.391 -0.4101 -1.2316  0.2087
 1977SOL    HW217991   1.262   6.615   6.505 -1.1049 -1.2610 -0.2833
 1978SOL     OW17992   0.518   2.105   8.939 -0.4442  1.1507 -0.2158
 1978SOL    HW117993   0.459   2.153   9.003  0.0644  0.0143  1.1177
 1978SOL    HW217994   0.606   2.153   8.933  0.1358  0.2878  1.2667
 1979SOL     OW17995   4.110   3.391   3.261  0.0168 -0.6854  0.1948
 1979SOL    HW117996   4.096   3.295   3.285 -0.4852 -0.8684 -0.8111
 1979SOL    HW217997   4.046   3.448   3.313 -1.0623 -1.0787 -0.6754
 1980SOL     OW17998   1.454   3.413   8.533  0.0947 -0.0159  0.2182
 1980SOL    HW117999   1.399   3.460   8.463  0.1362 -0.4156 -0.0819
 1980SOL    HW218000   1.504   3.337   8.491  1.4807  0.8098  0.3400
 1981SOL     OW18001   7.418   4.942   3.142 -0.0901  0.3590  0.6032
 1981SOL    HW118002   7.499   4.974   3.094 -1.7553  1.1624 -1.7503
 1981SOL    HW218003   7.351   5.017   3.149 -2.0728 -1.2497 -0.6642
 1982SOL     OW18004   0.866   6.504   4.363 -0.0580 -0.1242 -0.0407
 1982SOL    HW118005   0.877   6.411   4.328  0.3284 -0.0203 -0.1997
 1982SOL    HW218006   0.910   6.512   4.453 -1.1369 -0.4178  0.5295
 1983SOL     OW18007   1.087   7.494   0.671  0.5240  0.6992 -0.7133
 1983SOL    HW118008   1.113   7.427   0.603  1.8288  0.6920 -0.2187
 1983SOL    HW218009   1.117   7.585   0.642  0.7201  0.7560 -0.3320
 1984SOL     OW18010   9.500   5.985   3.531 -0.6490 -0.0531  0.1495
 1984SOL    HW118011   9.518   6.069   3.481  1.8246 -0.6425 -0.0082
 1984SOL    HW218012   9.458   5.918   3.470  0.2977 -0.0052 -0.5599
 1985SOL     OW18013   2.989   2.886   7.457  0.3842 -0.0677  0.0170
 1985SOL    HW118014   2.980   2.792   7.426  0.2681  0.6668 -2.3025
 1985SOL    HW218015   3.075   2.897   7.506  0.7946 -1.2016 -0.4315
 1986SOL     OW18016   4.629   0.457   0.718 -0.1505  0.2835  0.6189
 1986SOL    HW118017   4.666   0.507   0.797  0.2251  1.3257 -0.2063
 1986SOL    HW218018   4.703   0.438   0.654 -0.2565 -1.5647  1.0413
 1987SOL     OW18019   2.846   5.675   3.940  0.2190 -0.4585 -0.4375
 1987SOL    HW118020   2.748   5.697   3.942  0.3681  0.2107 -0.3379
 1987SOL    HW218021   2.871   5.642   3.849  0.2369  0.9859 -0.9748
 1988SOL     OW18022   8.167   2.687   2.835  0.4523 -0.2812  0.2399
 1988SOL    HW118023   8.140   2.760   2.773  2.7433 -0.2501 -0.7649
 1988SOL    HW218024   8.138   2.599   2.798  0.3086 -0.1268 -0.0169
 1989SOL     OW18025   9.166   6.471   1.740  0.8064  0.1865  0.2275
 1989SOL    HW118026   9.191   6.426   1.654 -1.2272  0.2153 -0.4159
 1989SOL    HW218027   9.155   6.402   1.811 -1.6444 -0.3425 -0.5972
 1990SOL     OW18028   7.097   4.432   7.557  0.1439  0.6486  0.4682
 1990SOL    HW118029   7.006   4.420   7.595  0.4671 -1.5554  0.5858
 1990SOL    HW218030   7.163   4.443   7.632  0.4185 -1.0934  0.5019
 1991SOL     OW18031   4.642   3.254   0.296 -0.6517 -0.1837  0.5502
 1991SOL    HW118032   4.555   3.244   0.248 -0.9047 -0.6917  1.0999
 1991SOL    HW218033   4.636   3.332   0.359  0.2574  1.5473 -1.4602
 1992SOL     OW18034   0.112   8.058   6.828  0.6131 -0.1467 -0.7440
 1992SOL    HW118035   0.035   8.052   6.892  1.0959  0.1142 -0.1325
 1992SOL    HW218036   0.085   8.021   6.740 -0.5411  0.8548 -0.8247
 1993SOL     OW18037   1.748   9.676   2.183 -0.1004 -0.2244 -0.4240
 1993SOL    HW118038   1.837   9.693   2.226 -1.0618  0.3932  1.3418
 1993SOL    HW218039   1.745   9.582   2.149  0.8952 -0.5273  0.3063
 1994SOL     OW18040   5.157   4.074   8.693  0.0656 -0.6482 -0.1458
 1994SOL    HW118041   5.062   4.096   8.675 -0.0469 -2.1329 -1.4227
 1994SOL    HW218042   5.189   4.127   8.772 -2.1181 -0.9649  0.9780
 1995SOL     OW18043   0.266  -0.002   6.240  0.2348 -0.4216 -0.4741
 1995SOL    HW118044   0.171   0.030   6.240 -0.2971 -1.9530  0.2249
 1995SOL    HW218045   0.326   0.073   6.214 -0.9935  1.1292  1.0176
 1996SOL     OW18046   3.968   6.634   6.925 -0.2568  0.0033  0.6447
 1996SOL    HW118047   4.034   6.627   7.000 -0.3155 -1.6701  0.5548
 1996SOL    HW218048   3.912   6.715   6.938 -0.5382 -0.4866  2.6642
 1997SOL     OW18049   9.791   9.587   5.124 -0.1683  0.0766  0.1924
 1997SOL    HW118050   9.718   9.614   5.186  0.9872  0.8961  1.2304
 1997SOL    HW218051   9.862   9.538   5.175  1.2431  1.5840 -0.2714
 1998SOL     OW18052   4.593   8.358   7.430  0.1350  0.2250 -0.7853
 1998SOL    HW118053   4.495   8.363   7.447  0.1598  0.2401 -0.6449
 1998SOL    HW218054   4.610   8.363   7.331 -0.0574 -0.6041 -0.8638
 1999SOL     OW18055   7.607   5.805   0.153 -0.1384 -0.2441  0.2163
 1999SOL    HW118056   7.615   5.898   0.116  0.8129 -0.5721 -0.4406
 1999SOL    HW218057   7.605   5.809   0.253 -1.0891  0.5510  0.1666
 2000SOL     OW18058   2.318   4.134   3.185  0.0418  0.0969  0.3604
 2000SOL    HW118059   2.331   4.129   3.284 -1.5463 -2.8908  0.4756
 2000SOL    HW218060   2.330   4.043   3.145 -0.8552  0.9731 -1.9918
 2001SOL     OW18061   6.326   4.791   1.282  0.5343 -0.2728  0.1611
 2001SOL    HW118062   6.386   4.845   1.225  0.5830 -1.9934 -1.4674
 2001SOL    HW218063   6.276   4.851   1.345  0.7796  1.6041 -1.4018
 2002SOL     OW18064   7.004   5.556   0.131 -0.5192 -0.2015  0.3341
 2002SOL    HW118065   6.934   5.510   0.076 -0.1944  2.3583 -2.3201
 2002SOL    HW218066   6.970   5.646   0.159  0.7374 -0.0124  1.2791
 2003SOL     OW18067   1.700   7.752   0.719 -0.3450  0.0302 -0.1445
 2003SOL    HW118068   1.695   7.852   0.718 -0.9351  0.0055  0.5734
 2003SOL    HW218069   1.796   7.724   0.721 -0.1850  0.5864  0.0834
 2004SOL     OW18070   1.300   5.840   8.910 -0.2830 -0.3609 -0.7153
 2004SOL    HW118071   1.354   5.756   8.921  0.9979  0.4630 -0.5358
 2004SOL    HW218072   1.203   5.819   8.918 -0.0648 -2.0940 -2.3340
 2005SOL     OW18073   1.423   4.515   3.312 -0.5684 -0.0636  0.1808
 2005SOL    HW118074   1.428   4.551   3.405  0.4782 -1.4352  0.6774
 2005SOL    HW218075   1.343   4.455   3.304 -0.9062  0.4004  0.0661
 2006SOL     OW18076   3.301   3.185   0.911  0.2105  0.3379  0.4557
 2006SOL    HW118077   3.301   3.258   0.978 -2.7229  2.3491 -1.5789
 2006SOL    HW218078   3.366   3.206   0.838 -2.7395  2.5570 -1.6636
 2007SOL     OW18079   0.284   4.589   2.164 -0.1729  0.0626 -0.2491
 2007SOL    HW118080   0.288   4.491   2.183  1.3850  0.0515 -0.5974
 2007SOL    HW218081   0.362   4.635   2.205 -2.2223  1.5868  2.1368
 2008SOL     OW18082   6.187   2.688   2.590 -0.4872  0.2039 -0.0454
 2008SOL    HW118083   6.105   2.714   2.539  0.4231  0.7517 -1.2327
 2008SOL    HW218084   6.170   2.601   2.636 -2.0147  0.6980  0.3889
 2009SOL     OW18085   2.732   1.620   4.254 -0.3075 -0.3325 -0.0049
 2009SOL    HW118086   2.661   1.680   4.219 -1.0919 -0.5287  1.2196
 2009SOL    HW218087   2.821   1.665   4.244 -0.6056 -0.0485 -1.4478
 2010SOL     OW18088   3.865   5.311   8.794 -0.6065 -0.7054  0.3376
 2010SOL    HW118089   3.953   5.264   8.793  0.4519  1.2486  0.5429
 2010SOL    HW218090   3.806   5.269   8.862  0.2028 -1.9452  0.2938
 2011SOL     OW18091   2.538   3.578   6.445 -0.3961 -0.2776 -0.0830
 2011SOL    HW118092   2.470   3.505   6.456 -0.0929 -0.7582 -1.2787
 2011SOL    HW218093   2.517   3.631   6.363  1.3794 -1.2634 -1.2357
 2012SOL     OW18094   6.405   1.604   0.626 -0.0287  0.4547 -0.3493
 2012SOL    HW118095   6.336   1.563   0.686 -1.1413  1.4108 -0.9350
 2012SOL    HW218096   6.388   1.574   0.532  1.0491 -0.1846 -0.3477
 2013SOL     OW18097   3.152   4.071   4.637  0.2094 -0.0331  0.7774
 2013SOL    HW118098   3.076   4.049   4.698  1.0699  0.2532  1.9840
 2013SOL    HW218099   3.130   4.152   4.583  0.2829  1.0527  2.3240
 2014SOL     OW18100   3.624   5.694   2.683 -0.0601  0.2092  0.2269
 2014SOL    HW118101   3.526   5.678   2.673  0.0217 -0.2299  0.1294
 2014SOL    HW218102   3.640   5.753   2.762 -0.5259  1.6452 -0.7230
 2015SOL     OW18103   5.479   8.046   3.316  0.5970  0.1206  0.5492
 2015SOL    HW118104   5.477   8.142   3.286  2.0096  0.5102  1.6387
 2015SOL    HW218105   5.564   8.004   3.285  0.0766 -0.7397  0.2672
 2016SOL     OW18106   0.998   5.973   4.196 -0.9237 -0.0862 -0.3149
 2016SOL    HW118107   1.094   5.948   4.183 -0.9050  0.1764 -0.7017
 2016SOL    HW218108   0.959   5.918   4.270 -1.0001 -1.5731 -1.4339
 2017SOL     OW18109   1.127   1.366   7.285  0.1473  0.5418  0.0900
 2017SOL    HW118110   1.183   1.408   7.213  1.1966 -0.6213  0.2077
 2017SOL    HW218111   1.062   1.302   7.244  1.4703 -0.9237  0.2402
 2018SOL     OW18112   2.215   8.506   5.954 -0.0091  0.4247 -0.1531
 2018SOL    HW118113   2.248   8.573   5.888  0.2554  1.4635  1.0333
 2018SOL    HW218114   2.120   8.483   5.932  0.3556  0.0777 -1.4296
 2019SOL     OW18115   0.332   1.705   0.684 -0.3719 -0.5971  0.2539
 2019SOL    HW118116   0.287   1.768   0.620 -1.0589 -1.1696  0.1633
 2019SOL    HW218117   0.404   1.753   0.733  0.1119 -0.1283 -0.8992
 2020SOL     OW18118   1.509   0.431   8.912 -0.1354  0.3895  0.2088
 2020SOL    HW118119   1.458   0.507   8.872 -3.2082 -0.8954  1.5675
 2020SOL    HW218120   1.446   0.361   8.944  2.5042 -1.3338  1.8700
 2021SOL     OW18121   4.168   2.572   0.961 -0.0173  0.0824  0.0312
 2021SOL    HW118122   4.169   2.667   0.992  0.2126  0.2500 -0.4817
 2021SOL    HW218123   4.186   2.568   0.863 -2.6796 -0.3101 -0.4793
 2022SOL     OW18124   7.629   4.946   4.102  0.1254  0.2413  0.0972
 2022SOL    HW118125   7.665   4.951   4.195  1.6669  1.7552 -0.5644
 2022SOL    HW218126   7.658   5.026   4.050 -1.7519  0.0269 -1.3350
 2023SOL     OW18127   1.199   0.211   3.797  0.8651 -0.0582  0.1623
 2023SOL    HW118128   1.189   0.120   3.758  0.5879 -0.4230  1.0776
 2023SOL    HW218129   1.234   0.204   3.890  0.4205  0.7490  0.3915
 2024SOL     OW18130   0.675   9.339   0.574 -0.1129 -0.6585 -0.1347
 2024SOL    HW118131   0.737   9.384   0.510 -1.6737  0.6713 -0.7595
 2024SOL    HW218132   0.639   9.255   0.532 -1.1703  0.2339 -1.0319
 2025SOL     OW18133   9.869   0.867   2.553 -0.6618  0.1862 -0.2595
 2025SOL    HW118134   9.855   0.769   2.536 -0.6381  0.1564 -0.1021
 2025SOL    HW218135   9.796   0.919   2.509  0.4586  0.2395 -2.1505
 2026SOL     OW18136   0.409   6.455   4.273 -0.1888  0.2656  0.0391
 2026SOL    HW118137   0.324   6.499   4.247 -1.1127 -2.5671 -1.9761
 2026SOL    HW218138   0.391   6.384   4.341  0.6807  0.2419  0.2585
 2027SOL     OW18139   4.481   2.678   0.021  0.5271  0.3147  0.4178
 2027SOL    HW118140   4.454   2.723  -0.064  1.4069  0.5033  0.2329
 2027SOL    HW218141   4.418   2.705   0.094 -0.6007 -0.3388 -0.3034
 2028SOL     OW18142   6.925   9.466   3.876  0.8083  0.3205  0.4120
 2028SOL    HW118143   6.913   9.387   3.816  1.8045 -0.3956  1.1281
 2028SOL    HW218144   6.946   9.434   3.969 -1.6532  1.4054  1.3597
 2029SOL     OW18145   1.262   3.477   8.736 -0.6294  0.8642  0.0680
 2029SOL    HW118146   1.329   3.457   8.665  0.7314 -2.1296  2.0490
 2029SOL    HW218147   1.270   3.572   8.765  0.9005  1.2666 -1.5992
 2030SOL     OW18148   1.121   0.736   7.832 -0.1243 -0.0955 -0.7087
 2030SOL    HW118149   1.215   0.766   7.843 -0.3241 -0.0252  0.9802
 2030SOL    HW218150   1.108   0.649   7.879 -0.5337 -0.8641 -2.2185
 2031SOL     OW18151   8.723   2.003   5.695 -0.3483 -0.2146 -0.3564
 2031SOL    HW118152   8.680   2.083   5.655 -1.0674 -1.6097 -2.4453
 2031SOL    HW218153   8.765   2.028   5.783  2.2634  3.2033 -2.4370
 2032SOL     OW18154   5.449   9.812   1.979  0.4390  0.1622  0.5281
 2032SOL    HW118155   5.499   9.859   2.052  0.2449  0.6868  0.3295
 2032SOL    HW218156   5.513   9.787   1.906  1.0433 -2.4002  1.8682
 2033SOL     OW18157   2.927   6.660   0.382  0.3068  0.1384  0.0762
 2033SOL    HW118158   2.875   6.610   0.314  0.1916  0.3523  0.0066
 2033SOL    HW218159   2.879   6.745   0.405 -0.4556 -0.7107  1.6205
 2034SOL     OW18160   4.054   1.929   5.943 -0.0745 -0.3533  0.0907
 2034SOL    HW118161   4.026   1.920   5.848  1.8704 -1.6260 -0.3935
 2034SOL    HW218162   4.011   1.857   5.998 -0.5028 -0.1616  0.0009
 2035SOL     OW18163   0.365   7.940   1.614 -0.2812 -0.2327 -0.0040
 2035SOL    HW118164   0.321   8.025   1.586 -0.9511 -0.3839  0.5822
 2035SOL    HW218165   0.420   7.956   1.696  1.7927  0.2410 -1.4541
 2036SOL     OW18166   2.914   1.368   4.697 -0.3926  0.0237  0.4739
 2036SOL    HW118167   2.899   1.461   4.663  0.5694  0.1148  0.2903
 2036SOL    HW218168   3.012   1.348   4.698 -0.6350 -1.2278 -0.1037
 2037SOL     OW18169   4.721   9.850   3.448  0.2450  0.4707 -0.0531
 2037SOL    HW118170   4.740   9.800   3.364  2.6927  1.7216 -0.2954
 2037SOL    HW218171   4.777   9.814   3.523 -0.8623  0.2993  0.7073
 2038SOL     OW18172   6.514   9.621   5.091  0.3161  0.3314 -0.4014
 2038SOL    HW118173   6.541   9.642   4.997  1.2555  2.4665  0.3154
 2038SOL    HW218174   6.590   9.641   5.153 -1.0643  1.1723  1.0698
 2039SOL     OW18175   8.457   8.178   0.643 -0.0225  0.1402 -0.1347
 2039SOL    HW118176   8.525   8.197   0.572  0.4814 -1.9649 -0.2586
 2039SOL    HW218177   8.451   8.256   0.705  0.8881  1.2532 -1.3995
 2040SOL     OW18178   2.169   7.644   7.891  0.1921 -0.9205  0.0645
 2040SOL    HW118179   2.088   7.681   7.937  1.5035  1.5503  0.4658
 2040SOL    HW218180   2.232   7.607   7.960  0.6605 -0.2615 -0.0056
 2041SOL     OW18181   3.391   2.857   3.126 -0.0477 -0.3080  0.3156
 2041SOL    HW118182   3.429   2.832   3.037 -2.6475 -0.2616 -0.8510
 2041SOL    HW218183   3.298   2.822   3.134 -0.6600  1.5919  2.1356
 2042SOL     OW18184   0.154   8.017   0.850 -0.4301 -0.2121  0.1818
 2042SOL    HW118185   0.129   7.963   0.770 -2.3348  1.9445 -0.7019
 2042SOL    HW218186   0.085   8.004   0.922 -1.2052  1.4471 -0.2415
 2043SOL     OW18187   7.988   3.429   7.675 -0.3334  0.4112 -0.2046
 2043SOL    HW118188   7.918   3.490   7.639  0.8661  1.5104 -0.7081
 2043SOL    HW218189   8.038   3.475   7.748 -1.0750 -0.8971  1.1584
 2044SOL     OW18190   2.935   2.748   0.331  0.5410 -0.0960 -0.5510
 2044SOL    HW118191   3.033   2.766   0.328  0.4228  0.2416 -2.8418
 2044SOL    HW218192   2.912   2.672   0.271 -0.3844 -1.3493  1.3364
 2045SOL     OW18193   8.934   0.468   6.547  0.6343  0.1113 -0.3539
 2045SOL    HW118194   9.001   0.396   6.566  0.3820 -0.1686 -0.5297
 2045SOL    HW218195   8.902   0.460   6.453 -1.0023 -0.8702  0.2604
 2046SOL     OW18196   0.064   3.994   9.443 -0.2039 -0.3470  0.5406
 2046SOL    HW118197   0.150   3.953   9.413  0.3731  0.0245  1.6506
 2046SOL    HW218198   0.004   4.009   9.364  1.2536  0.6014 -0.4026
 2047SOL     OW18199   2.163   0.634   1.464  0.4322 -0.3947 -0.1717
 2047SOL    HW118200   2.197   0.584   1.544 -2.0180 -0.2821  1.0138
 2047SOL    HW218201   2.219   0.715   1.449  1.3646 -0.7964  1.0105
 2048SOL     OW18202   1.282   1.776   8.988 -0.2797  0.3122 -0.1414
 2048SOL    HW118203   1.263   1.739   8.897  0.4500  0.2825 -0.2835
 2048SOL    HW218204   1.316   1.870   8.979 -2.2188  1.0730  0.2253
 2049SOL     OW18205   8.093   6.053   7.724 -0.0318 -0.3266 -0.1482
 2049SOL    HW118206   8.014   6.111   7.746  0.4459  0.5106 -0.5998
 2049SOL    HW218207   8.174   6.089   7.769 -0.0367 -1.6229  0.9286
 2050SOL     OW18208   9.436   8.525   9.949 -0.2076  0.2187  0.1159
 2050SOL    HW118209   9.464   8.570  10.033 -0.2977  1.1501 -0.3455
 2050SOL    HW218210   9.462   8.429   9.952  0.1916  0.3558  1.0153
 2051SOL     OW18211   6.487   2.163   5.696 -0.3913  0.4264  0.3321
 2051SOL    HW118212   6.537   2.248   5.710  2.4527 -1.0726 -0.3877
 2051SOL    HW218213   6.460   2.155   5.599  0.5820 -0.1230  0.0994
 2052SOL     OW18214   9.254   6.832   1.876 -0.0934 -0.2358 -0.1991
 2052SOL    HW118215   9.277   6.865   1.968 -0.4002  0.4535 -0.3718
 2052SOL    HW218216   9.239   6.910   1.815  0.4542 -0.6871 -0.9233
 2053SOL     OW18217   5.207   5.074   7.860  0.1734  1.3906 -0.0356
 2053SOL    HW118218   5.207   4.982   7.899 -1.3188  1.4570  0.1839
 2053SOL    HW218219   5.120   5.118   7.882 -1.5413  0.7671 -4.9738
 2054SOL     OW18220   5.850   5.411   8.655  0.0625 -0.0029  0.0605
 2054SOL    HW118221   5.757   5.443   8.639 -0.0414  0.2220  1.0888
 2054SOL    HW218222   5.861   5.320   8.616 -0.6357 -0.0933  0.0722
 2055SOL     OW18223   8.513   0.718   0.962 -0.1417 -0.0220  0.0562
 2055SOL    HW118224   8.468   0.785   0.902  0.2397  1.4644  1.3844
 2055SOL    HW218225   8.482   0.732   1.056  0.5307 -1.2307  0.4657
 2056SOL     OW18226   0.419   5.040   5.583  0.5832  0.2500 -0.1318
 2056SOL    HW118227   0.392   4.955   5.537 -0.2147  0.0981  0.5888
 2056SOL    HW218228   0.488   5.087   5.529  0.2354 -0.3181 -1.0862
 2057SOL     OW18229   5.945   8.812   5.239 -0.2723  0.3547  0.1482
 2057SOL    HW118230   5.904   8.751   5.170 -0.2351 -0.5517  0.9199
 2057SOL    HW218231   6.044   8.801   5.237 -0.3341 -0.3947  1.0109
 2058SOL     OW18232   2.279   9.505   1.839  0.1408  0.1043  0.1063
 2058SOL    HW118233   2.295   9.596   1.876 -1.3241  0.7574 -0.8053
 2058SOL    HW218234   2.322   9.498   1.749 -0.7971  0.3407 -0.3730
 2059SOL     OW18235   2.093   9.925   1.731 -0.5325 -0.2362 -0.2968
 2059SOL    HW118236   2.079   9.831   1.700  1.1342 -1.3711  2.2057
 2059SOL    HW218237   2.011   9.979   1.712 -1.2418 -1.9833 -2.4058
 2060SOL     OW18238   4.043   9.541   4.623  0.1355  0.2492  0.7323
 2060SOL    HW118239   3.958   9.590   4.604 -0.0489  0.2086  1.4358
 2060SOL    HW218240   4.108   9.602   4.667  1.3740  0.9464 -2.0206
 2061SOL     OW18241   1.230   9.466   9.319  0.0547 -0.7936  0.3738
 2061SOL    HW118242   1.265   9.417   9.239 -0.7249 -0.2053 -0.3419
 2061SOL    HW218243   1.154   9.415   9.359  0.6915 -1.2812  0.9847
 2062SOL     OW18244   8.143   7.938   4.460  0.3095  0.9557 -0.4170
 2062SOL    HW118245   8.099   7.897   4.380 -3.8198  0.8157  1.8069
 2062SOL    HW218246   8.201   7.870   4.505 -1.1851 -0.4533 -0.5672
 2063SOL     OW18247   8.697   6.208   4.225 -0.0945  0.3034  0.3619
 2063SOL    HW118248   8.671   6.279   4.289 -1.3977 -0.3956  0.6355
 2063SOL    HW218249   8.787   6.171   4.250 -0.6621 -0.0783  1.8975
 2064SOL     OW18250   9.791   3.470   9.696 -1.1637  0.7934  0.1370
 2064SOL    HW118251   9.876   3.506   9.658 -0.3265 -1.2743 -0.0124
 2064SOL    HW218252   9.801   3.460   9.795 -0.5568 -1.2434 -0.1266
 2065SOL     OW18253   2.143   6.100   8.793  0.7611 -0.2520 -0.4308
 2065SOL    HW118254   2.095   6.046   8.724 -0.2119  0.6588 -0.4903
 2065SOL    HW218255   2.076   6.148   8.850  1.5520 -1.0845  1.2319
 2066SOL     OW18256   9.070   2.248   7.224 -0.3319  0.3868  1.0601
 2066SOL    HW118257   9.045   2.184   7.297 -1.3811 -0.3513  0.0818
 2066SOL    HW218258   9.156   2.219   7.183 -0.7321 -0.3301  0.7149
 2067SOL     OW18259   1.154   6.348   5.616  0.1776 -0.7984 -0.1528
 2067SOL    HW118260   1.212   6.409   5.670 -2.1181  2.2205 -0.9478
 2067SOL    HW218261   1.210   6.300   5.549  2.0403  0.5128  0.4091
 2068SOL     OW18262   0.538   5.412   5.921 -0.1717  0.0348 -0.2390
 2068SOL    HW118263   0.578   5.334   5.873 -0.4211  0.2785 -0.8455
 2068SOL    HW218264   0.447   5.388   5.955  0.2086 -0.3027  0.5599
 2069SOL     OW18265   9.685   4.162   8.773  0.1195 -0.0221 -0.0616
 2069SOL    HW118266   9.763   4.224   8.784  0.8487 -1.3423  2.9204
 2069SOL    HW218267   9.601   4.209   8.798  0.4460  0.2865  0.4599
 2070SOL     OW18268   1.004   1.462   4.971 -0.2899 -0.1086 -0.1817
 2070SOL    HW118269   0.910   1.431   4.956 -0.4952  0.9737 -1.1533
 2070SOL    HW218270   1.067   1.397   4.928 -0.6403 -0.2677 -0.4629
 2071SOL     OW18271   9.702   9.979   3.131  0.3669 -0.4546 -0.1297
 2071SOL    HW118272   9.690   9.885   3.099 -0.1667 -0.7055  0.7835
 2071SOL    HW218273   9.796   9.993   3.159  0.2293 -0.9945  0.6096
 2072SOL     OW18274   9.677   6.557   3.322  0.1666  0.6575  0.2550
 2072SOL    HW118275   9.732   6.571   3.404  0.4655  0.6048  0.0655
 2072SOL    HW218276   9.630   6.642   3.298  0.6341  0.8679  0.0789
 2073SOL     OW18277   8.860   2.391   4.766  0.3907  0.2268 -0.5803
 2073SOL    HW118278   8.841   2.293   4.754  1.1864  0.0899 -0.7963
 2073SOL    HW218279   8.782   2.436   4.808  0.2017 -0.5944 -0.0542
 2074SOL     OW18280   4.954   2.143   9.755  0.1156 -0.7842  0.3115
 2074SOL    HW118281   5.010   2.143   9.672  0.1641  1.2291  0.3116
 2074SOL    HW218282   4.872   2.088   9.739 -0.4630  0.5329 -1.5143
 2075SOL     OW18283   1.327   1.734   0.803  0.0345 -0.3522  0.4362
 2075SOL    HW118284   1.304   1.791   0.725 -2.9445  1.4311  2.5205
 2075SOL    HW218285   1.407   1.678   0.781 -0.6669  0.1544 -3.8031
 2076SOL     OW18286   4.442   7.924   6.221 -0.6146  0.5727 -0.7419
 2076SOL    HW118287   4.349   7.924   6.183 -0.6027  1.6782 -0.7650
 2076SOL    HW218288   4.505   7.882   6.155 -1.0427  0.0591 -0.8322
 2077SOL     OW18289   3.977   9.862   7.672  0.4628  0.2691 -0.3975
 2077SOL    HW118290   3.926   9.821   7.747  1.5329  0.9557  0.7384
 2077SOL    HW218291   3.947   9.956   7.658  0.2663  0.1443 -0.8352
 2078SOL     OW18292   2.832   3.742   9.371  0.9329 -0.1760 -0.5522
 2078SOL    HW118293   2.807   3.795   9.289 -0.6706 -1.6654 -1.0578
 2078SOL    HW218294   2.882   3.660   9.343  0.6777 -0.5142 -0.0291
 2079SOL     OW18295   2.922   7.306   3.052  0.2169 -0.3197 -1.3799
 2079SOL    HW118296   2.970   7.360   2.983  1.1676 -0.5434 -0.9037
 2079SOL    HW218297   2.988   7.249   3.101 -0.4574 -0.1994 -0.3172
 2080SOL     OW18298   3.198   7.712   2.087  0.2489 -0.2410 -0.4601
 2080SOL    HW118299   3.180   7.772   2.165 -0.4980  1.1155 -1.6376
 2080SOL    HW218300   3.293   7.721   2.059  0.8997 -1.8358  1.1882
 2081SOL     OW18301   0.758   8.020   8.692 -0.6545 -0.0014  0.0881
 2081SOL    HW118302   0.844   7.989   8.732 -1.2757 -0.2486  1.2640
 2081SOL    HW218303   0.713   8.083   8.754 -2.4146 -1.6483  0.5563
 2082SOL     OW18304   6.711   0.619   7.344  0.4104  0.1677  0.5414
 2082SOL    HW118305   6.713   0.645   7.247 -0.6973  3.3766  1.3150
 2082SOL    HW218306   6.802   0.629   7.382  0.3626  1.2304  0.3894
 2083SOL     OW18307   1.906   1.996   8.284  0.1043 -0.3023 -0.4810
 2083SOL    HW118308   1.980   1.944   8.325 -1.9252 -2.1131  1.0429
 2083SOL    HW218309   1.897   1.972   8.187  1.9594  0.5124 -0.8771
 2084SOL     OW18310   1.155   4.862   5.375 -0.3405 -0.1504  0.0108
 2084SOL    HW118311   1.206   4.780   5.402 -0.0705 -0.8174 -2.3892
 2084SOL    HW218312   1.063   4.859   5.413  0.3417 -0.5617  1.6404
 2085SOL     OW18313   3.614   4.216   8.528  0.1174 -0.3247  0.1009
 2085SOL    HW118314   3.600   4.118   8.543  0.0410 -0.2491  0.5446
 2085SOL    HW218315   3.695   4.246   8.578  0.3935 -0.2500 -0.3923
 2086SOL     OW18316   9.187   8.224   6.203  0.1607  0.3617 -0.0754
 2086SOL    HW118317   9.206   8.266   6.114  2.4293 -0.1111  0.1453
 2086SOL    HW218318   9.146   8.292   6.264  0.2136  1.1817 -0.9506
 2087SOL     OW18319   4.086   3.894   2.497  0.1720 -0.0933  0.2982
 2087SOL    HW118320   4.030   3.828   2.547  0.6442 -2.1505 -1.7760
 2087SOL    HW218321   4.182   3.883   2.524 -0.0639  1.6323  1.9261
 2088SOL     OW18322   1.367   0.855   4.240 -0.8991 -0.1723  0.2834
 2088SOL    HW118323   1.383   0.911   4.321  0.0047 -0.5213  0.3524
 2088SOL    HW218324   1.281   0.804   4.251 -0.3397 -0.8942  1.4042
 2089SOL     OW18325   2.539   8.580   4.643  0.2932  0.0660 -0.0380
 2089SOL    HW118326   2.525   8.501   4.584 -1.1299 -0.0772  0.4571
 2089SOL    HW218327   2.523   8.554   4.738  1.5254  0.5438  0.3050
 2090SOL     OW18328   1.025   1.076   2.199 -0.1358 -0.3863 -0.9825
 2090SOL    HW118329   1.103   1.078   2.137  0.8227 -0.1822  0.1966
 2090SOL    HW218330   1.055   1.102   2.291 -1.4461 -1.0270 -0.3512
 2091SOL     OW18331   1.746   8.366   9.285  0.0025 -0.0064  0.2602
 2091SOL    HW118332   1.680   8.439   9.267 -1.0923 -0.9633  0.3188
 2091SOL    HW218333   1.837   8.396   9.259 -0.5483  1.1227 -0.3910
 2092SOL     OW18334   2.066   8.463   1.068 -0.3066 -0.0329  0.2874
 2092SOL    HW118335   2.021   8.427   0.986 -0.2398  1.7094 -0.5364
 2092SOL    HW218336   2.163   8.477   1.050 -0.0539 -0.7392  1.0494
 2093SOL     OW18337   0.544   9.001   3.523 -0.2892  0.5148 -0.1222
 2093SOL    HW118338   0.492   9.075   3.481 -1.5437 -0.2893 -0.0283
 2093SOL    HW218339   0.491   8.916   3.519  2.4815 -1.2179 -3.2863
 2094SOL     OW18340   9.708   9.463   0.829 -0.7375 -0.5623 -0.4169
 2094SOL    HW118341   9.706   9.552   0.875  1.2084 -0.2501 -0.8914
 2094SOL    HW218342   9.681   9.392   0.894  0.7442  0.0302  0.8729
 2095SOL     OW18343   7.635   5.410   9.990 -0.3367  0.4932 -0.1126
 2095SOL    HW118344   7.569   5.360  10.046  0.5242  0.8549  1.2417
 2095SOL    HW218345   7.682   5.346   9.929 -2.0598  0.2634 -1.2317
 2096SOL     OW18346   9.464   6.507   9.861 -0.0592 -0.3388 -0.0103
 2096SOL    HW118347   9.500   6.449   9.934  1.8572  1.9269  0.8795
 2096SOL    HW218348   9.481   6.463   9.772 -1.8641 -2.8098  0.8017
 2097SOL     OW18349   5.267   9.700   3.856 -0.2924  0.1338  0.0145
 2097SOL    HW118350   5.349   9.674   3.806 -0.3601 -2.2746  1.0686
 2097SOL    HW218351   5.190   9.709   3.792  0.2320 -0.1203 -0.6612
 2098SOL     OW18352   8.071   5.802   1.699 -0.0992 -0.1463 -0.0080
 2098SOL    HW118353   8.140   5.757   1.642 -0.4480 -1.2903  0.4627
 2098SOL    HW218354   8.021   5.733   1.751  0.9438  0.9579  2.5307
 2099SOL     OW18355   3.586   4.097   7.001  0.0065 -0.2741  0.5206
 2099SOL    HW118356   3.585   4.015   7.058  0.7173  0.5136  1.7117
 2099SOL    HW218357   3.619   4.075   6.910 -1.7942 -1.6972  0.1917
 2100SOL     OW18358   9.375   8.192   6.994  0.2650  0.6098 -0.3793
 2100SOL    HW118359   9.418   8.256   7.058  0.9173  0.7991 -0.9891
 2100SOL    HW218360   9.409   8.100   7.011 -0.9253  0.3596  0.7155
 2101SOL     OW18361   6.922   5.770   8.477  0.3103 -0.3839  0.5096
 2101SOL    HW118362   6.983   5.821   8.416  0.8316  0.3259  1.6124
 2101SOL    HW218363   6.974   5.733   8.554 -0.7234  0.6021  1.6961
 2102SOL     OW18364   8.235   0.075   1.569  0.1707 -0.5727  0.0325
 2102SOL    HW118365   8.228   0.002   1.501  1.3377 -0.3511 -0.3374
 2102SOL    HW218366   8.263   0.037   1.657  0.0751 -0.6707  0.0198
 2103SOL     OW18367   8.129   3.398   0.288  0.2338  0.0084 -0.4685
 2103SOL    HW118368   8.134   3.497   0.303  0.1735  0.0830 -0.9146
 2103SOL    HW218369   8.130   3.380   0.190 -0.1283 -0.4150 -0.3927
 2104SOL     OW18370   7.255   0.049   4.113  0.0814 -0.0001  0.1934
 2104SOL    HW118371   7.245  -0.040   4.158 -2.0348  0.9579  1.7348
 2104SOL    HW218372   7.208   0.047   4.025 -0.7053 -0.1702  0.6081
 2105SOL     OW18373   1.175   8.863   6.361 -0.2481 -0.4109 -0.4290
 2105SOL    HW118374   1.198   8.939   6.300 -1.0506  0.7292  0.6537
 2105SOL    HW218375   1.155   8.782   6.307 -0.5756  0.4725 -1.6591
 2106SOL     OW18376   7.818   4.638   7.469  0.3183  0.5101  0.2683
 2106SOL    HW118377   7.830   4.734   7.442  0.1625  0.4444 -0.0327
 2106SOL    HW218378   7.722   4.621   7.489 -0.1813 -0.3615 -2.6806
 2107SOL     OW18379   5.009   2.709   6.954 -0.0941 -0.1561 -0.3804
 2107SOL    HW118380   5.097   2.706   6.907 -0.0189 -0.8242 -0.1962
 2107SOL    HW218381   4.993   2.623   7.002 -1.5792 -0.6673 -1.7232
 2108SOL     OW18382   5.675   7.526   3.348 -0.0012  1.0050  0.0420
 2108SOL    HW118383   5.752   7.543   3.287  1.2391 -2.3242  0.6067
 2108SOL    HW218384   5.592   7.510   3.294  0.2257  2.0465 -0.6248
 2109SOL     OW18385   2.456   3.716   1.822 -0.1643 -0.1674  0.1056
 2109SOL    HW118386   2.402   3.696   1.904 -2.0296  0.4697 -0.9344
 2109SOL    HW218387   2.419   3.664   1.744 -0.0891  1.2301 -0.8942
 2110SOL     OW18388   2.438   5.480   9.654 -0.3480 -0.0166 -0.0952
 2110SOL    HW118389   2.477   5.407   9.597  0.4729  1.2035 -1.1288
 2110SOL    HW218390   2.510   5.544   9.680 -0.7111 -0.5746  2.3820
 2111SOL     OW18391   7.599   5.321   0.530 -0.1839 -0.1547 -0.5104
 2111SOL    HW118392   7.577   5.397   0.590  2.0012  1.5477 -1.8131
 2111SOL    HW218393   7.569   5.342   0.437  2.2893  0.0141 -1.2872
 2112SOL     OW18394   2.384   9.563   7.314  0.1630 -0.0519  0.3666
 2112SOL    HW118395   2.339   9.542   7.227 -1.4412  1.7135  0.7286
 2112SOL    HW218396   2.465   9.506   7.325 -0.1068 -0.9011 -1.8884
 2113SOL     OW18397   9.502   7.762   3.713 -0.3968 -0.3112  1.0167
 2113SOL    HW118398   9.467   7.854   3.694  0.5571 -0.0871  0.2837
 2113SOL    HW218399   9.493   7.743   3.811  1.1773  1.3334  1.5152
 2114SOL     OW18400   8.330   0.015   1.227 -0.1025 -0.1690  0.3623
 2114SOL    HW118401   8.299  -0.061   1.283 -0.4028 -0.0149  0.4020
 2114SOL    HW218402   8.252   0.070   1.199  0.0505 -0.2050 -0.1511
 2115SOL     OW18403   2.887   4.338   6.773  0.1049  0.1836 -0.0684
 2115SOL    HW118404   2.831   4.257   6.790  0.0386  0.2542  0.0516
 2115SOL    HW218405   2.911   4.380   6.861 -0.4333  0.6871 -0.1591
 2116SOL     OW18406   4.238   8.448   9.858 -0.0410 -0.2055  0.0936
 2116SOL    HW118407   4.173   8.384   9.899 -0.4026 -0.9982 -1.6791
 2116SOL    HW218408   4.205   8.541   9.871 -1.0319 -0.5451  0.0881
 2117SOL     OW18409   0.014   4.928   5.941 -0.2755 -0.7278 -0.4407
 2117SOL    HW118410  -0.086   4.925   5.938 -0.4010  0.3843  1.8397
 2117SOL    HW218411   0.049   4.850   5.992 -0.0234 -0.7510 -0.6478
 2118SOL     OW18412   3.292   9.349   3.997 -0.1789  0.4262  0.0736
 2118SOL    HW118413   3.254   9.372   3.908  3.2063  0.5315 -1.4235
 2118SOL    HW218414   3.308   9.251   4.003  0.0497  0.4790  0.3565
 2119SOL     OW18415   8.124   9.780   6.420  0.4870  0.1692  0.0879
 2119SOL    HW118416   8.108   9.750   6.326  0.1807  1.5240 -0.2948
 2119SOL    HW218417   8.079   9.717   6.483 -2.6351  1.4306 -0.8111
 2120SOL     OW18418   5.936   0.740   6.092  0.1081 -0.4126 -0.2082
 2120SOL    HW118419   5.993   0.668   6.052  0.8615 -0.2224  0.5233
 2120SOL    HW218420   5.936   0.731   6.191 -2.0833 -1.1357 -0.2272
 2121SOL     OW18421   0.203   7.706   8.008  0.1889  0.1778  0.1184
 2121SOL    HW118422   0.213   7.790   7.955 -1.0842  0.9952  1.1217
 2121SOL    HW218423   0.135   7.648   7.964 -0.7822  0.8046  0.7676
 2122SOL     OW18424   2.799   4.690   5.541 -0.5137  0.1824  0.1330
 2122SOL    HW118425   2.735   4.617   5.563  0.7687 -1.0214 -0.0050
 2122SOL    HW218426   2.750   4.769   5.506 -1.9802 -0.3828  0.8870
 2123SOL     OW18427   9.649   0.248   2.692  0.2738 -0.2364 -0.1511
 2123SOL    HW118428   9.583   0.323   2.694 -0.0127 -0.4466 -1.4197
 2123SOL    HW218429   9.720   0.264   2.760 -0.5597  0.4712  0.5687
 2124SOL     OW18430   5.448   1.688   0.237 -0.5297  0.1827  0.1391
 2124SOL    HW118431   5.352   1.714   0.246 -1.2503 -1.6297 -1.7734
 2124SOL    HW218432   5.470   1.616   0.303  0.4176  2.7366  2.7367
 2125SOL     OW18433   3.151   1.426   9.411  0.1808 -0.2664 -0.1978
 2125SOL    HW118434   3.213   1.504   9.409  2.4648 -2.0407 -1.5776
 2125SOL    HW218435   3.175   1.366   9.488 -0.7168 -0.2898  0.0754
 2126SOL     OW18436   4.139   2.676   8.748 -0.1111  0.3278  0.5898
 2126SOL    HW118437   4.197   2.730   8.687 -0.6872  1.9918  1.4832
 2126SOL    HW218438   4.058   2.644   8.697 -1.0973  2.5535  0.7076
 2127SOL     OW18439   8.343   5.268   1.256 -0.6823 -0.7627  0.0470
 2127SOL    HW118440   8.278   5.262   1.180 -1.8596  0.9896  0.8901
 2127SOL    HW218441   8.295   5.291   1.340  1.1311  1.4595  0.5235
 2128SOL     OW18442   9.933   1.086   7.684 -0.4079  0.1923  0.3782
 2128SOL    HW118443   9.904   1.166   7.631 -0.5435 -0.5995 -0.7800
 2128SOL    HW218444   9.897   1.003   7.640  2.1992 -0.6979 -0.1612
 2129SOL     OW18445   1.979   2.482   9.317 -0.2046 -0.0796  1.2109
 2129SOL    HW118446   2.062   2.427   9.309 -0.9596 -0.8712 -2.0850
 2129SOL    HW218447   1.899   2.423   9.312 -1.0572  1.2126 -3.3986
 2130SOL     OW18448   1.358   7.927   3.266 -0.1505  0.0002  0.5788
 2130SOL    HW118449   1.372   8.024   3.288  0.9576  0.1971 -0.9286
 2130SOL    HW218450   1.445   7.886   3.237 -0.8375 -1.1499  0.0939
 2131SOL     OW18451   6.916   7.973   5.063 -0.5429 -0.1084  0.5373
 2131SOL    HW118452   6.824   8.011   5.073 -1.2215 -1.3841 -0.7246
 2131SOL    HW218453   6.976   8.041   5.021 -1.5569 -0.1417 -0.9885
 2132SOL     OW18454   2.468   0.876   1.634  0.1854  0.1710  0.1635
 2132SOL    HW118455   2.514   0.964   1.647  1.0941 -0.4926  1.6006
 2132SOL    HW218456   2.422   0.849   1.718  0.2152 -0.8962 -0.1531
 2133SOL     OW18457   2.429   7.918   3.003  0.1078 -0.7332 -0.6390
 2133SOL    HW118458   2.473   7.841   2.958 -0.4237 -1.7544  0.5628
 2133SOL    HW218459   2.340   7.935   2.961  1.1151  0.6118 -2.3170
 2134SOL     OW18460   8.654   4.261   1.903 -0.0338 -0.7118  0.2754
 2134SOL    HW118461   8.555   4.270   1.896  0.1631  0.4402 -1.5429
 2134SOL    HW218462   8.687   4.311   1.983 -0.6385  1.4725 -0.8059
 2135SOL     OW18463   7.994   7.115   5.764 -0.0786  0.0892  0.3408
 2135SOL    HW118464   8.089   7.105   5.735 -0.2803  0.2420 -0.3617
 2135SOL    HW218465   7.934   7.117   5.684 -0.7383 -0.6859  0.8031
 2136SOL     OW18466   8.572   0.919   8.453  0.0397 -0.2622  0.3801
 2136SOL    HW118467   8.644   0.987   8.441 -0.1001  0.0279  1.1445
 2136SOL    HW218468   8.576   0.853   8.378 -1.4339  2.0239 -1.7551
 2137SOL     OW18469   2.001   8.923   5.929 -0.6443  0.1700  0.0779
 2137SOL    HW118470   2.038   8.859   5.997  0.1562  2.6948  2.0554
 2137SOL    HW218471   1.919   8.883   5.887  1.5349 -3.4747 -0.9591
 2138SOL     OW18472   8.824   3.704   7.234  0.4070  0.1133 -0.2569
 2138SOL    HW118473   8.871   3.621   7.264 -0.5784 -0.2357  0.3336
 2138SOL    HW218474   8.883   3.755   7.171  0.7864 -1.2949 -1.0467
 2139SOL     OW18475   2.566   7.840   9.279  0.4806  0.0016 -0.5257
 2139SOL    HW118476   2.525   7.801   9.196  1.8419 -1.3145 -0.6060
 2139SOL    HW218477   2.656   7.876   9.257 -0.2714  2.1778 -0.1861
 2140SOL     OW18478   1.617   1.052   8.462  0.5938 -0.6166  0.5815
 2140SOL    HW118479   1.716   1.059   8.469  0.4070  0.8194  1.9864
 2140SOL    HW218480   1.583   1.118   8.394  0.5146 -0.4939  0.7395
 2141SOL     OW18481   3.801   9.957   9.268 -0.2416 -0.3041  0.4037
 2141SOL    HW118482   3.798   9.884   9.200  1.9722 -2.3505  2.4121
 2141SOL    HW218483   3.851  10.035   9.231 -1.5557 -0.2415 -1.3139
 2142SOL     OW18484   0.787   9.292   7.133  0.1694  0.4836 -0.6704
 2142SOL    HW118485   0.878   9.306   7.173 -0.1031 -0.2987  0.2497
 2142SOL    HW218486   0.728   9.247   7.200 -1.3217  2.2340 -0.7538
 2143SOL     OW18487   2.068   0.683   9.753  0.0325 -0.1317 -0.1285
 2143SOL    HW118488   2.148   0.727   9.794  0.3550 -1.0282  0.2202
 2143SOL    HW218489   2.019   0.749   9.696  0.3565  0.7434  0.6023
 2144SOL     OW18490   8.198   5.046   6.351  0.3719 -0.2087  0.4924
 2144SOL    HW118491   8.209   4.996   6.437  0.5392 -0.2264  0.4619
 2144SOL    HW218492   8.174   5.141   6.370 -1.7835 -0.7424  0.5102
 2145SOL     OW18493   7.437   7.661   7.422 -0.0827 -0.4565  0.2887
 2145SOL    HW118494   7.405   7.744   7.377  1.6485  0.0224 -0.0998
 2145SOL    HW218495   7.380   7.584   7.394 -0.8022  0.3444 -0.4835
 2146SOL     OW18496   4.459   1.121   0.699  0.3319 -0.1262 -0.5823
 2146SOL    HW118497   4.501   1.176   0.772 -0.9485  0.8220 -0.5445
 2146SOL    HW218498   4.434   1.180   0.623 -0.0327 -0.8390 -1.0204
 2147SOL     OW18499   9.674   8.435   9.317 -0.3733  0.3816 -0.3485
 2147SOL    HW118500   9.739   8.408   9.246 -1.3601  2.3664 -2.0870
 2147SOL    HW218501   9.722   8.482   9.391  0.1981  1.8630 -1.6344
 2148SOL     OW18502   4.823   0.360   7.454  0.2868  0.1573 -0.4949
 2148SOL    HW118503   4.875   0.442   7.426 -0.2432  0.9921  0.9423
 2148SOL    HW218504   4.887   0.284   7.465  1.2176  1.1236  1.0489
 2149SOL     OW18505   1.508   7.119   2.763 -0.4102  0.3130  0.1069
 2149SOL    HW118506   1.588   7.164   2.723  0.3242  0.5692  1.8230
 2149SOL    HW218507   1.444   7.188   2.796 -1.0798  0.1028 -0.7288
 2150SOL     OW18508   9.871   9.169   9.023  0.2941 -0.8572  0.1061
 2150SOL    HW118509   9.834   9.218   9.102  1.7339  0.6304 -0.1161
 2150SOL    HW218510   9.845   9.072   9.029 -2.4540 -0.1240  0.6299
 2151SOL     OW18511   7.942   6.132   7.458 -0.0314  0.2713 -0.0115
 2151SOL    HW118512   7.856   6.159   7.417 -0.0926 -0.4223 -0.3490
 2151SOL    HW218513   8.007   6.208   7.453  0.4786 -0.3041 -2.8240
 2152SOL     OW18514   9.892   7.310   9.704 -0.2791 -0.1068  0.0799
 2152SOL    HW118515   9.958   7.372   9.663  0.5111 -0.3617  0.9505
 2152SOL    HW218516   9.913   7.298   9.802 -1.7850  0.0542  0.4415
 2153SOL     OW18517   3.273   7.736   0.617  0.1840 -0.0166  0.1514
 2153SOL    HW118518   3.283   7.820   0.671  0.9606 -1.3752  2.1882
 2153SOL    HW218519   3.288   7.757   0.520 -0.9272  2.4190  0.4661
 2154SOL     OW18520   8.185   7.624   3.423  0.3604 -0.2701  0.6593
 2154SOL    HW118521   8.247   7.626   3.345  2.8426 -0.4662  2.5313
 2154SOL    HW218522   8.141   7.535   3.430  2.4133 -1.2979  1.1233
 2155SOL     OW18523   1.573   3.618   8.674  0.0433 -0.4058  0.2470
 2155SOL    HW118524   1.563   3.709   8.634  0.7422  0.0207  1.0109
 2155SOL    HW218525   1.542   3.549   8.609  0.3496  0.3189 -0.6758
 2156SOL     OW18526   1.153   8.622   4.921 -0.0062 -0.1805  0.1967
 2156SOL    HW118527   1.187   8.646   5.012 -2.3764 -1.9604  1.5958
 2156SOL    HW218528   1.148   8.705   4.865  2.2158  0.8256  1.3893
 2157SOL     OW18529   1.631   4.607   1.753 -0.4493 -0.0981 -0.4022
 2157SOL    HW118530   1.532   4.590   1.755 -0.2687 -1.0583  0.6999
 2157SOL    HW218531   1.648   4.702   1.779 -0.9213 -0.6803  2.1543
 2158SOL     OW18532   6.895   0.939   3.130  0.1888 -0.5543  0.0868
 2158SOL    HW118533   6.842   0.864   3.091  0.1420 -0.0488 -0.8312
 2158SOL    HW218534   6.942   0.907   3.213 -0.6057 -1.3221  0.2467
 2159SOL     OW18535   0.650   8.951   0.573 -0.5752  0.0668  0.4328
 2159SOL    HW118536   0.650   8.911   0.665 -0.5958  0.8637  0.7781
 2159SOL    HW218537   0.557   8.973   0.546 -0.8574 -2.4821 -0.7941
 2160SOL     OW18538   3.170   3.520   7.653  0.2135  0.1527 -0.6270
 2160SOL    HW118539   3.166   3.421   7.639 -3.2027  0.2474 -0.7888
 2160SOL    HW218540   3.104   3.564   7.593 -1.6259  2.1148  2.6850
 2161SOL     OW18541   8.402   7.197   7.976 -0.3239 -0.2464 -0.4197
 2161SOL    HW118542   8.445   7.287   7.969 -0.7444 -0.0079  0.0152
 2161SOL    HW218543   8.383   7.176   8.072  0.1623 -0.9871 -0.4747
 2162SOL     OW18544   5.138   3.136   0.910 -0.7079  0.0116 -0.3942
 2162SOL    HW118545   5.098   3.090   0.831 -0.5323 -1.5139  0.3750
 2162SOL    HW218546   5.105   3.092   0.994  2.0615 -0.9108  0.2809
 2163SOL     OW18547   7.010   4.385   2.295  0.9363  0.6064  0.0071
 2163SOL    HW118548   6.967   4.353   2.210 -2.0016 -0.1398  1.7132
 2163SOL    HW218549   7.004   4.485   2.299 -1.2146  0.4897  0.4623
 2164SOL     OW18550   3.052   5.899   9.385 -0.2053  0.5556  0.3046
 2164SOL    HW118551   3.028   5.986   9.342 -0.1539  0.9209  1.0021
 2164SOL    HW218552   3.151   5.885   9.379  0.0075  1.3585  1.6695
 2165SOL     OW18553   5.593   5.235   1.069  0.1635 -0.1386  0.1418
 2165SOL    HW118554   5.542   5.152   1.050 -0.6665  0.5746 -0.8341
 2165SOL    HW218555   5.601   5.249   1.168  0.7778 -1.6450  0.3126
 2166SOL     OW18556   2.126   4.285   3.077  0.3676  0.0127 -0.1534
 2166SOL    HW118557   2.212   4.236   3.090  0.1785 -0.1651  0.4334
 2166SOL    HW218558   2.052   4.235   3.121 -0.0710  0.0661 -0.8350
 2167SOL     OW18559   8.633   2.786   4.592  0.7157 -0.1319 -0.0773
 2167SOL    HW118560   8.589   2.848   4.527  1.1169  0.1445 -0.0867
 2167SOL    HW218561   8.680   2.714   4.542  0.8972 -0.0053 -0.0894
 2168SOL     OW18562   1.521   3.567   7.834 -0.0584 -0.1141  0.0815
 2168SOL    HW118563   1.620   3.562   7.849 -0.2087 -0.0593  1.1263
 2168SOL    HW218564   1.486   3.653   7.872 -0.6798 -0.6424  0.7199
 2169SOL     OW18565   0.552   0.402   5.339  0.1871 -0.3189  0.2244
 2169SOL    HW118566   0.530   0.499   5.357  0.3116 -0.3148  0.3582
 2169SOL    HW218567   0.529   0.380   5.245 -0.3926 -0.3139  0.3627
 2170SOL     OW18568   1.921   0.440   2.433 -0.3344  0.0802 -0.4871
 2170SOL    HW118569   1.989   0.506   2.402 -0.5986  0.3644 -0.4617
 2170SOL    HW218570   1.947   0.406   2.523  0.4904 -0.8214 -1.0483
 2171SOL     OW18571   0.564   7.798   3.778 -0.1002 -0.1268 -0.2012
 2171SOL    HW118572   0.533   7.892   3.763  0.4029 -0.0266 -0.6320
 2171SOL    HW218573   0.661   7.791   3.754  0.0540 -0.5811  0.5578
 2172SOL     OW18574   2.841   2.927   8.613 -0.2647 -0.0154 -0.3515
 2172SOL    HW118575   2.896   2.929   8.697  0.2560  0.2309 -0.6969
 2172SOL    HW218576   2.750   2.964   8.633  0.0657  0.6528 -0.0386
 2173SOL     OW18577   3.484   6.025   4.322 -0.3430  0.0953  0.2108
 2173SOL    HW118578   3.578   6.058   4.315 -0.3957  0.6075  1.8619
 2173SOL    HW218579   3.475   5.965   4.402 -2.1932  2.7795  2.0785
 2174SOL     OW18580   5.135   2.358   8.586  0.1597 -0.0666  0.5798
 2174SOL    HW118581   5.231   2.339   8.566  0.3521  0.8186  0.6628
 2174SOL    HW218582   5.083   2.272   8.583  0.5942 -0.2899 -1.3543
 2175SOL     OW18583   6.123   5.323   9.717 -0.1704  0.4384 -0.1160
 2175SOL    HW118584   6.209   5.273   9.711 -0.4239 -0.0634  0.4016
 2175SOL    HW218585   6.096   5.355   9.626 -1.9317 -3.6127 -1.1189
 2176SOL     OW18586   2.805   8.459   5.264  0.1512 -0.3988 -0.1114
 2176SOL    HW118587   2.840   8.418   5.180  0.7567 -0.3029  0.0926
 2176SOL    HW218588   2.756   8.544   5.243  0.5859 -0.2034 -0.3268
 2177SOL     OW18589   7.677   6.322   5.159  0.1142  0.6536  0.1445
 2177SOL    HW118590   7.677   6.422   5.157 -1.7548  0.6608 -0.3281
 2177SOL    HW218591   7.584   6.288   5.140  0.3757 -1.1434  1.9686
 2178SOL     OW18592   8.481   0.713   1.288  0.2991 -0.1894 -0.2837
 2178SOL    HW118593   8.471   0.808   1.318 -0.5607 -0.5389  0.5452
 2178SOL    HW218594   8.556   0.670   1.338 -0.0615 -0.2856  0.1736
 2179SOL     OW18595   9.557   3.910   1.424 -0.8099 -0.2825  0.6327
 2179SOL    HW118596   9.556   3.963   1.508  0.0071  1.5753 -0.4898
 2179SOL    HW218597   9.513   3.822   1.439  1.1314 -0.8111  3.5231
 2180SOL     OW18598   1.353   4.853   8.602  0.2417 -0.4849  0.1463
 2180SOL    HW118599   1.259   4.882   8.618  0.0745 -1.1273  0.3872
 2180SOL    HW218600   1.410   4.932   8.580 -0.3405 -0.0864  0.0645
 2181SOL     OW18601   9.903   9.747   9.787 -0.0030  0.2170  0.2907
 2181SOL    HW118602   9.949   9.669   9.829  1.4372  1.0155  0.2377
 2181SOL    HW218603   9.868   9.807   9.858 -1.0561 -0.4281  0.3326
 2182SOL     OW18604   2.444   0.619   9.628  0.2426 -0.1673  0.9575
 2182SOL    HW118605   2.349   0.588   9.618  0.4271 -1.1453  2.1286
 2182SOL    HW218606   2.452   0.674   9.711  0.0924  2.4275 -0.6910
 2183SOL     OW18607   9.960   2.639   9.814 -0.3401 -0.3026 -0.0674
 2183SOL    HW118608  10.059   2.653   9.821 -0.5462  0.3719  1.7635
 2183SOL    HW218609   9.913   2.722   9.844 -1.4655 -0.4770 -1.3190
 2184SOL     OW18610   5.691   4.018   1.804  0.3870 -0.3882 -0.2032
 2184SOL    HW118611   5.658   4.096   1.752  1.3668  0.6262  0.6666
 2184SOL    HW218612   5.782   4.038   1.840 -0.2147 -1.0963  1.7999
 2185SOL     OW18613   4.075   3.199   7.145 -0.4156  0.2391 -0.0707
 2185SOL    HW118614   3.993   3.255   7.156 -0.2134  0.7866 -1.3498
 2185SOL    HW218615   4.059   3.108   7.185 -2.0478 -0.0477 -1.3494
 2186SOL     OW18616   3.268   8.621   6.657  0.1209 -0.3755 -0.8179
 2186SOL    HW118617   3.244   8.525   6.649  0.8791 -0.7377  1.1213
 2186SOL    HW218618   3.361   8.635   6.623 -0.3493 -0.1465 -2.0266
 2187SOL     OW18619   4.026   1.589   5.020  0.1980  0.8338  0.0216
 2187SOL    HW118620   4.027   1.689   5.016  0.6971  0.9384  1.9698
 2187SOL    HW218621   4.113   1.556   5.056 -0.8504 -0.1489  1.7239
 2188SOL     OW18622   6.790   6.926   5.845 -0.5045 -0.0510  0.3721
 2188SOL    HW118623   6.726   6.907   5.770 -0.2586  0.8099 -0.0721
 2188SOL    HW218624   6.754   7.001   5.901  0.2575  0.6699 -0.0808
 2189SOL     OW18625   2.094   3.546   3.096 -0.5106  0.1876  0.2740
 2189SOL    HW118626   2.004   3.503   3.089 -1.2409  1.6767  0.2182
 2189SOL    HW218627   2.163   3.487   3.054 -1.6623 -0.3705 -0.8568
 2190SOL     OW18628   4.561   5.719   8.179  0.3748  0.1421  0.1652
 2190SOL    HW118629   4.465   5.701   8.160 -0.0581  1.1154  1.3317
 2190SOL    HW218630   4.576   5.818   8.183  1.1518 -0.0070  1.2663
 2191SOL     OW18631   8.159   6.182   6.302  0.1223 -0.2351 -0.0224
 2191SOL    HW118632   8.090   6.183   6.374  0.9274  0.4020  0.7468
 2191SOL    HW218633   8.249   6.203   6.341  0.1457  3.0326 -1.6296
 2192SOL     OW18634   3.563   0.987   1.147  0.0486  0.1012 -0.6589
 2192SOL    HW118635   3.613   1.070   1.122 -1.3275  1.1089 -0.1469
 2192SOL    HW218636   3.524   0.998   1.238  0.7574 -1.5443 -0.1426
 2193SOL     OW18637   2.172   8.870   5.041  0.0550  1.0971 -0.5549
 2193SOL    HW118638   2.167   8.828   4.950  0.9818 -1.5014  0.5734
 2193SOL    HW218639   2.085   8.858   5.088  0.0729  1.1154 -0.5167
 2194SOL     OW18640   7.614   0.159   5.582  0.1118 -0.3174 -0.2850
 2194SOL    HW118641   7.603   0.258   5.591  1.8598 -0.2345  1.1883
 2194SOL    HW218642   7.672   0.138   5.504 -1.3094 -0.2513 -1.3707
 2195SOL     OW18643   7.911   1.368   6.970  0.1801 -0.1111  0.0929
 2195SOL    HW118644   7.933   1.354   7.067 -0.5995 -0.9416  0.1610
 2195SOL    HW218645   7.832   1.312   6.946  1.2311 -0.9761 -1.3849
 2196SOL     OW18646   4.084   5.783   2.049 -0.6674 -0.2087 -0.1384
 2196SOL    HW118647   4.005   5.741   2.004 -0.9240  1.0717 -0.9195
 2196SOL    HW218648   4.163   5.722   2.041 -1.1821 -0.8082 -0.7208
 2197SOL     OW18649   3.254   8.455   7.565  0.1294  0.2223 -0.2132
 2197SOL    HW118650   3.274   8.362   7.536  0.1219  0.5435 -1.2506
 2197SOL    HW218651   3.160   8.460   7.598  0.2315 -0.2055  0.1512
 2198SOL     OW18652   1.599   9.763   3.611  0.4575 -0.6267 -0.2500
 2198SOL    HW118653   1.514   9.791   3.566  0.4767 -1.5253 -0.8607
 2198SOL    HW218654   1.657   9.716   3.545  2.1999  1.5174 -0.3047
 2199SOL     OW18655   5.393   6.126   0.536 -0.5897 -0.4574 -0.3356
 2199SOL    HW118656   5.424   6.186   0.609 -0.7355 -2.7439  1.6648
 2199SOL    HW218657   5.373   6.180   0.454  2.2742  1.8208  0.3931
 2200SOL     OW18658   9.962   8.699   4.613  0.1878  0.0506  0.4162
 2200SOL    HW118659  10.018   8.749   4.679 -0.9496  0.8588  0.7849
 2200SOL    HW218660   9.976   8.738   4.522 -0.2845  0.6813  0.6148
 2201SOL     OW18661   8.398   8.049   8.923  0.3800 -0.4226  0.3621
 2201SOL    HW118662   8.339   8.130   8.917  0.2725 -0.6134 -1.5389
 2201SOL    HW218663   8.483   8.066   8.874  0.6620 -1.2010  0.5767
 2202SOL     OW18664   0.956   2.097   8.677  0.0126 -0.0470  0.0876
 2202SOL    HW118665   0.997   2.128   8.591 -0.2739 -0.9571 -0.3750
 2202SOL    HW218666   0.953   1.997   8.679 -1.7096  0.0010  0.3471
 2203SOL     OW18667   1.820   8.804   3.725 -0.0734 -0.5317 -0.0883
 2203SOL    HW118668   1.877   8.808   3.643  1.4248  2.6162  1.0222
 2203SOL    HW218669   1.878   8.815   3.806 -2.0981  1.5240  1.1326
 2204SOL     OW18670   3.911   3.813   6.587  0.4037  0.2773  0.4159
 2204SOL    HW118671   3.883   3.901   6.624  0.5947  1.4682 -2.1303
 2204SOL    HW218672   4.009   3.813   6.567  0.0986  0.1362 -1.2021
 2205SOL     OW18673   4.048   8.807   2.751 -0.1425  0.1481  0.2166
 2205SOL    HW118674   4.108   8.797   2.672 -0.4614  1.9858 -0.2624
 2205SOL    HW218675   4.091   8.866   2.819 -0.6835  0.0868  0.6164
 2206SOL     OW18676   1.708   9.304   8.253 -0.1080 -0.6549  0.3885
 2206SOL    HW118677   1.777   9.367   8.217 -0.1869  1.3563  3.5187
 2206SOL    HW218678   1.619   9.326   8.213  0.2561 -0.2290 -0.2033
 2207SOL     OW18679   3.078   4.154   8.239  0.1451  0.3686  0.6538
 2207SOL    HW118680   3.176   4.146   8.258 -0.1403 -1.8314  1.3730
 2207SOL    HW218681   3.027   4.127   8.321 -1.0721  1.4921  0.2754
 2208SOL     OW18682   1.039   3.675   0.189  0.2988  0.4758 -0.4653
 2208SOL    HW118683   1.065   3.732   0.266 -0.1593 -0.3902  0.3433
 2208SOL    HW218684   1.059   3.723   0.103  0.4857  1.5826  0.1898
 2209SOL     OW18685   4.030   1.308   3.425  0.1810  0.3443 -0.0960
 2209SOL    HW118686   4.100   1.380   3.428  0.6143 -0.1047  1.2922
 2209SOL    HW218687   4.042   1.248   3.504 -2.1725  0.6071  0.4848
 2210SOL     OW18688   2.086   4.539   3.186  0.1980  0.3711 -0.1618
 2210SOL    HW118689   1.999   4.563   3.142  0.2607  1.8559  0.4991
 2210SOL    HW218690   2.120   4.453   3.147 -2.1676 -0.8965  0.4102
 2211SOL     OW18691   3.994   1.557   8.961 -0.0442 -0.0443  0.1308
 2211SOL    HW118692   4.066   1.622   8.936 -0.6005  0.7270  0.5301
 2211SOL    HW218693   3.922   1.558   8.892  0.6325 -1.3024 -0.6127
 2212SOL     OW18694   2.484   0.718   1.195 -0.0814 -0.2660  0.2903
 2212SOL    HW118695   2.448   0.626   1.178 -0.8286 -0.2097  1.4960
 2212SOL    HW218696   2.436   0.758   1.273  0.5817  0.9607  0.0698
 2213SOL     OW18697   1.679   6.122   6.821  0.1856 -0.3414 -0.3093
 2213SOL    HW118698   1.776   6.143   6.808 -0.0045  1.4711  1.0462
 2213SOL    HW218699   1.665   6.084   6.912 -0.5346  0.4674 -0.0810
 2214SOL     OW18700   3.739   3.276   4.481 -1.1802 -0.3540  0.3179
 2214SOL    HW118701   3.683   3.200   4.514 -0.5231 -1.1503 -0.4063
 2214SOL    HW218702   3.792   3.314   4.557 -0.1762 -1.7591  0.3325
 2215SOL     OW18703   0.361   1.791   4.058 -0.1509  0.3728 -0.4181
 2215SOL    HW118704   0.432   1.801   3.988 -0.2903  0.5136 -0.5405
 2215SOL    HW218705   0.329   1.696   4.059  1.8326 -0.3236  1.3836
 2216SOL     OW18706   6.558   4.475   1.991  0.6842  0.5122  0.1311
 2216SOL    HW118707   6.463   4.448   2.007  0.8217  0.6051  1.1497
 2216SOL    HW218708   6.565   4.575   1.989  0.6773  0.5031 -0.4851
 2217SOL     OW18709   7.156   3.502   7.699  0.3124  0.7844 -0.3102
 2217SOL    HW118710   7.096   3.513   7.778  1.3105  0.6404  0.4843
 2217SOL    HW218711   7.158   3.588   7.646  0.6538  1.3167  0.5567
 2218SOL     OW18712   7.717   1.967   5.548 -0.4665  0.6321 -0.4658
 2218SOL    HW118713   7.714   2.067   5.545  0.9197  0.7280  0.4897
 2218SOL    HW218714   7.738   1.938   5.641  1.4424 -0.4618 -1.2121
 2219SOL     OW18715   2.537   9.593   8.364 -0.2450 -0.5025  0.0440
 2219SOL    HW118716   2.579   9.680   8.392 -0.6352 -0.7734  1.5237
 2219SOL    HW218717   2.451   9.612   8.316  0.4922 -0.0230 -1.1071
 2220SOL     OW18718   9.495   2.239   2.688  0.6488  0.1127 -0.3880
 2220SOL    HW118719   9.499   2.289   2.602  0.3630  0.5110 -0.1729
 2220SOL    HW218720   9.588   2.230   2.726  0.8002 -0.2787 -0.8581
 2221SOL     OW18721   2.419   2.802   8.256  0.1928 -0.4863  0.4012
 2221SOL    HW118722   2.343   2.751   8.217  1.9370 -0.5951 -3.0986
 2221SOL    HW218723   2.390   2.896   8.276 -1.5531 -1.2856  1.7010
 2222SOL     OW18724   9.641   8.740   9.351  0.0008 -0.0050 -0.0208
 2222SOL    HW118725   9.650   8.731   9.450  0.5719 -1.3454 -0.1904
 2222SOL    HW218726   9.546   8.764   9.329 -0.6867 -2.0219  0.6959
 2223SOL     OW18727   0.500   3.775   1.440  0.4091  0.0609  0.0566
 2223SOL    HW118728   0.414   3.824   1.429  0.3460  0.1213  0.8566
 2223SOL    HW218729   0.562   3.801   1.366  0.1397  0.8419  0.1051
 2224SOL     OW18730   7.559   2.150   8.678 -0.8714 -0.2514 -0.1385
 2224SOL    HW118731   7.609   2.118   8.758 -3.3742  0.1362  1.6414
 2224SOL    HW218732   7.540   2.072   8.617  1.3206 -0.4903 -0.5580
 2225SOL     OW18733   2.070   5.682   0.548 -0.1198 -0.3968  0.1722
 2225SOL    HW118734   2.048   5.619   0.623 -1.7188 -0.7991 -0.6060
 2225SOL    HW218735   2.096   5.631   0.467 -3.7552 -0.2403 -1.2032
 2226SOL     OW18736   0.661   3.373   3.236  0.1611 -0.4435  0.4245
 2226SOL    HW118737   0.614   3.327   3.312 -1.3626  0.2796 -0.0572
 2226SOL    HW218738   0.649   3.472   3.245 -0.2907 -0.3685 -0.9308
 2227SOL     OW18739   8.667   4.912   0.433 -0.0928  0.3479  0.0198
 2227SOL    HW118740   8.654   4.821   0.395  0.9702 -0.0355  0.5524
 2227SOL    HW218741   8.753   4.950   0.400  0.5750  0.2281  1.5861
 2228SOL     OW18742   2.728   3.257   6.805  0.3054  0.4180 -0.6450
 2228SOL    HW118743   2.750   3.217   6.894  0.1359  0.4524 -0.5873
 2228SOL    HW218744   2.711   3.355   6.816  0.9189  0.5471 -0.8178
 2229SOL     OW18745   3.827   6.911   1.422 -0.2616 -0.0518 -0.0532
 2229SOL    HW118746   3.893   6.983   1.446 -0.1217 -0.2822  0.2571
 2229SOL    HW218747   3.874   6.839   1.372 -0.7237  0.8348 -1.7891
 2230SOL     OW18748   9.566   3.206   3.845  0.0734  0.1455  0.0409
 2230SOL    HW118749   9.587   3.111   3.868  1.1759  0.7069  1.4712
 2230SOL    HW218750   9.467   3.219   3.843 -0.0778 -0.7603  1.1169
 2231SOL     OW18751   5.594   6.037   0.901 -0.6358  0.2707 -0.3405
 2231SOL    HW118752   5.656   6.034   0.822  0.3620  1.0605  0.3945
 2231SOL    HW218753   5.591   5.946   0.944 -0.4638  0.0723 -0.7410
 2232SOL     OW18754   7.480   1.772   3.228  0.0375 -0.1938  0.2149
 2232SOL    HW118755   7.404   1.837   3.238 -0.6116 -0.5904 -1.8707
 2232SOL    HW218756   7.443   1.680   3.214  0.9165 -0.5330  0.1057
 2233SOL     OW18757   8.228   3.634   9.635  0.0322  0.5284 -0.1792
 2233SOL    HW118758   8.305   3.627   9.571 -0.1362 -2.5247 -0.1163
 2233SOL    HW218759   8.157   3.569   9.608 -1.5647  1.6994  1.1054
 2234SOL     OW18760   5.252   2.917   0.639 -0.8369 -0.4463 -0.7466
 2234SOL    HW118761   5.259   2.827   0.596  1.4030 -0.6114 -0.1064
 2234SOL    HW218762   5.277   2.910   0.735 -4.0136  0.2637  0.1827
 2235SOL     OW18763   6.626   4.862   8.418 -0.1072  0.3313 -0.4313
 2235SOL    HW118764   6.624   4.940   8.356 -0.5994  0.0957 -0.7155
 2235SOL    HW218765   6.686   4.882   8.495  0.4002  0.6798 -0.9172
 2236SOL     OW18766   6.747   2.799   1.003  0.4045  0.5667  0.7783
 2236SOL    HW118767   6.816   2.871   1.008  0.2308  0.9826 -2.0587
 2236SOL    HW218768   6.777   2.720   1.057  2.7600  1.0237  0.1912
 2237SOL     OW18769   0.410   6.215   4.066  0.0464 -0.3035  0.0801
 2237SOL    HW118770   0.392   6.294   4.125 -0.3244 -0.1881 -0.1816
 2237SOL    HW218771   0.475   6.154   4.111  0.7166  0.3970  0.0722
 2238SOL     OW18772   4.369   0.444   6.605  1.0429 -0.1890  0.2538
 2238SOL    HW118773   4.388   0.537   6.575  1.2738 -0.7277 -1.3774
 2238SOL    HW218774   4.361   0.385   6.524 -1.7462 -1.0924  1.1502
 2239SOL     OW18775   6.362   7.825   4.104  0.0877  0.3569  0.1023
 2239SOL    HW118776   6.423   7.904   4.102 -1.7028  1.7927  0.8525
 2239SOL    HW218777   6.348   7.796   4.198 -0.4557  0.1131 -0.0525
 2240SOL     OW18778   6.502  10.001   2.060  0.1920  0.1542 -0.3502
 2240SOL    HW118779   6.574  10.019   1.993 -0.9014 -1.1257 -1.8848
 2240SOL    HW218780   6.465   9.909   2.046 -0.7226  0.2341  1.3974
 2241SOL     OW18781   7.482   8.100   6.585 -0.4621 -0.3717  0.1556
 2241SOL    HW118782   7.560   8.041   6.562 -0.5256 -0.5624  0.4278
 2241SOL    HW218783   7.511   8.169   6.651 -0.4834 -0.3361  0.1272
 2242SOL     OW18784   8.474   5.523   8.710  0.4015  0.4332 -0.0943
 2242SOL    HW118785   8.553   5.507   8.652 -0.4571 -0.7391 -0.9484
 2242SOL    HW218786   8.427   5.437   8.728  0.0571  0.9233  1.4903
 2243SOL     OW18787   3.724   9.822   2.934  0.5515  0.4947  0.4048
 2243SOL    HW118788   3.797   9.889   2.947 -0.4016  1.8752 -1.1779
 2243SOL    HW218789   3.744   9.765   2.854 -0.6329  1.6337 -0.7274
 2244SOL     OW18790   6.049   1.287   9.883 -0.0611 -0.5858  0.0531
 2244SOL    HW118791   6.062   1.224   9.959 -1.2512 -0.9636 -0.0457
 2244SOL    HW218792   6.092   1.375   9.905  1.5264 -1.3970  0.2207
 2245SOL     OW18793   8.113   7.477   5.513  0.5184 -0.0362 -0.5454
 2245SOL    HW118794   8.198   7.429   5.535 -0.8866 -1.8642  1.1903
 2245SOL    HW218795   8.071   7.434   5.433 -0.2536 -1.1488  0.4284
 2246SOL     OW18796   3.970   0.263   8.611 -0.2006 -0.4330  0.3401
 2246SOL    HW118797   4.033   0.259   8.533 -0.1342  0.4000  0.3445
 2246SOL    HW218798   4.022   0.249   8.696 -0.3948 -2.1537  0.1958
 2247SOL     OW18799   3.401   2.523   2.875 -0.1334 -0.4472 -0.3219
 2247SOL    HW118800   3.371   2.503   2.781 -1.5995  0.8900 -0.1523
 2247SOL    HW218801   3.322   2.523   2.936  0.6823 -0.2512  0.7475
 2248SOL     OW18802   4.112   8.034   9.950  0.0833  0.8115  0.4709
 2248SOL    HW118803   4.191   8.007  10.004  0.3241 -1.8680 -1.1209
 2248SOL    HW218804   4.029   7.996   9.991  0.0110  0.7224  0.2454
 2249SOL     OW18805   8.576   3.038   3.804  0.2948 -0.2935  0.0528
 2249SOL    HW118806   8.637   3.043   3.725  0.6505 -0.1631  0.3381
 2249SOL    HW218807   8.496   2.982   3.781  0.2504 -0.0031 -0.4993
 2250SOL     OW18808   7.422   8.317   7.522 -0.2278 -0.3825 -0.6866
 2250SOL    HW118809   7.512   8.361   7.526 -1.0628  1.3307  0.1223
 2250SOL    HW218810   7.353   8.387   7.503 -1.6754 -1.2554  1.2030
 2251SOL     OW18811   2.933   1.136   8.888 -0.3254  0.6458  0.1274
 2251SOL    HW118812   2.895   1.172   8.803  1.7767  1.2919 -0.5629
 2251SOL    HW218813   3.023   1.095   8.870  0.9761  2.4093  2.2908
 2252SOL     OW18814   2.398   2.612   5.568  0.0946  0.5493  0.2987
 2252SOL    HW118815   2.470   2.676   5.540  1.1059 -0.2712  0.9557
 2252SOL    HW218816   2.416   2.582   5.662 -0.7482 -0.1778  0.2288
 2253SOL     OW18817   2.218   4.751   9.199  0.0655 -0.0099  0.2120
 2253SOL    HW118818   2.146   4.696   9.242  1.4200  0.0016  2.5752
 2253SOL    HW218819   2.188   4.846   9.193 -1.8961 -0.7718 -2.9938
 2254SOL     OW18820   7.809   4.183   3.457  0.7445  0.2463  0.4666
 2254SOL    HW118821   7.821   4.118   3.532  1.4588  0.1683  0.2860
 2254SOL    HW218822   7.837   4.274   3.488  0.6393  0.2912  0.4274
 2255SOL     OW18823   3.726   4.593   5.650 -0.0924  0.0769 -0.0252
 2255SOL    HW118824   3.789   4.661   5.688  0.6103  0.1393 -1.2609
 2255SOL    HW218825   3.770   4.503   5.651 -0.7643 -0.2419  0.9877
 2256SOL     OW18826   7.450   5.766   6.656 -0.7872 -0.7692 -0.3214
 2256SOL    HW118827   7.403   5.854   6.654 -0.6346 -0.6906 -0.4657
 2256SOL    HW218828   7.484   5.744   6.564 -4.1349 -2.7549 -1.1888
 2257SOL     OW18829   2.209   7.090   9.614 -0.4120  0.3873 -0.5974
 2257SOL    HW118830   2.221   7.133   9.703 -1.3833 -1.2801  0.3616
 2257SOL    HW218831   2.257   7.143   9.544  0.7628  1.4405  0.9846
 2258SOL     OW18832   0.037   7.801   5.678  0.3222 -0.0990 -0.0996
 2258SOL    HW118833   0.126   7.780   5.638 -0.6301 -1.0014 -1.7866
 2258SOL    HW218834   0.009   7.727   5.739 -0.6785 -1.3312 -2.0148
 2259SOL     OW18835   1.412   7.789   1.494 -0.0847  0.4523  0.3245
 2259SOL    HW118836   1.323   7.751   1.467  0.3079 -0.7287  0.6494
 2259SOL    HW218837   1.479   7.715   1.498  0.9135  1.3394  0.0811
 2260SOL     OW18838   0.392   5.862   6.601  0.4015  0.1283 -0.2549
 2260SOL    HW118839   0.423   5.918   6.524  1.0236 -0.1709 -0.2325
 2260SOL    HW218840   0.458   5.788   6.616 -1.0121 -1.3146 -1.0299
 2261SOL     OW18841   8.508   9.736   0.463 -0.2844  0.0230  0.1985
 2261SOL    HW118842   8.475   9.713   0.371 -0.1408  0.5286  0.0174
 2261SOL    HW218843   8.471   9.671   0.529  0.4374 -0.9817 -0.3524
 2262SOL     OW18844   2.857   2.701   7.256 -0.0149  0.1802 -0.2626
 2262SOL    HW118845   2.773   2.684   7.205  0.9336 -1.9453 -1.1771
 2262SOL    HW218846   2.925   2.742   7.195  0.1387  0.4058  0.0601
 2263SOL     OW18847   3.534   6.833   4.007  0.2835 -0.2835  0.4327
 2263SOL    HW118848   3.458   6.778   4.040  0.6863 -0.8264  0.4556
 2263SOL    HW218849   3.573   6.792   3.925  1.1067 -0.4841  0.9163
 2264SOL     OW18850   3.530   8.665   6.574 -0.0501  0.0484 -0.4378
 2264SOL    HW118851   3.553   8.619   6.659 -0.5208  1.1676  0.2996
 2264SOL    HW218852   3.613   8.698   6.530  0.0535  0.9592  0.4379
 2265SOL     OW18853   0.217   3.838   8.452  0.3430  0.5030 -0.2389
 2265SOL    HW118854   0.142   3.901   8.433  0.6396  1.7749  2.6161
 2265SOL    HW218855   0.187   3.744   8.433 -1.9322  1.0096  0.7143
 2266SOL     OW18856   3.255   3.925   9.770 -0.3478 -0.1963  0.3908
 2266SOL    HW118857   3.255   3.892   9.676  1.7126 -2.3143  1.0817
 2266SOL    HW218858   3.349   3.942   9.799 -0.6069 -2.9563  3.1559
 2267SOL     OW18859   1.073   5.611   5.802  0.3994 -0.2030 -0.4455
 2267SOL    HW118860   1.140   5.669   5.848 -0.1790  1.0311 -1.1450
 2267SOL    HW218861   1.105   5.589   5.710 -0.2012  0.4560 -0.8086
 2268SOL     OW18862   3.155   2.920   8.228  0.4547  0.7719  0.1396
 2268SOL    HW118863   3.090   2.948   8.298  0.4909  0.3444  0.3458
 2268SOL    HW218864   3.112   2.931   8.137 -1.1366 -2.6289  0.4133
 2269SOL     OW18865   8.951   6.935   2.447 -0.0789 -0.2233  0.3671
 2269SOL    HW118866   8.906   6.954   2.360  2.2285 -0.9135 -1.0151
 2269SOL    HW218867   8.970   7.022   2.494 -0.2036  0.2351 -0.4207
 2270SOL     OW18868   3.815   2.086   1.814  0.1287  0.7119 -0.1495
 2270SOL    HW118869   3.846   2.175   1.782 -1.8910  0.8695 -1.8276
 2270SOL    HW218870   3.745   2.099   1.884  1.8421  0.4046  1.6265
 2271SOL     OW18871   2.549   3.431   1.453  0.4596 -0.2155 -0.5942
 2271SOL    HW118872   2.644   3.459   1.437 -0.5007  2.6673 -1.4491
 2271SOL    HW218873   2.509   3.399   1.368  0.8332 -2.0770 -0.0957
 2272SOL     OW18874   3.784   9.892   8.428  0.7131 -0.0454  0.6709
 2272SOL    HW118875   3.773   9.794   8.408  0.5176 -0.1634  1.3454
 2272SOL    HW218876   3.736   9.945   8.358 -1.2860 -0.4962  1.6621
 2273SOL     OW18877   0.928   6.931   1.318 -0.1595  0.1693  0.6007
 2273SOL    HW118878   0.829   6.932   1.336 -0.7935 -0.4776 -2.5206
 2273SOL    HW218879   0.957   6.838   1.297  0.8921  0.5591  0.3241
 2274SOL     OW18880   8.052   8.444   4.410  0.7419 -0.1054  0.5007
 2274SOL    HW118881   7.959   8.411   4.428  0.5553 -0.3055 -0.7774
 2274SOL    HW218882   8.052   8.499   4.326  1.5268  1.0352  1.2308
 2275SOL     OW18883   0.981   2.240  10.062  1.0386 -0.1715  0.2887
 2275SOL    HW118884   1.056   2.304  10.077  2.1720 -1.4916  0.3375
 2275SOL    HW218885   1.008   2.172   9.994  0.1255 -1.0529  0.7931
 2276SOL     OW18886   5.401   6.620   9.499 -0.1673  0.5089  0.2896
 2276SOL    HW118887   5.303   6.615   9.479 -0.4921  0.9603  1.6971
 2276SOL    HW218888   5.453   6.598   9.417 -1.4476  0.6335 -0.5685
 2277SOL     OW18889   2.983   5.091   5.268  0.0614  0.2365 -0.6678
 2277SOL    HW118890   3.052   5.163   5.261  0.7723 -0.2816  0.8435
 2277SOL    HW218891   2.932   5.102   5.353 -0.0747 -0.8338 -0.6075
 2278SOL     OW18892   2.524   0.134   8.238 -0.3694  0.0608 -0.0491
 2278SOL    HW118893   2.613   0.102   8.204 -0.0560 -2.3426  2.8401
 2278SOL    HW218894   2.451   0.094   8.184  0.2298  0.7795 -1.4310
 2279SOL     OW18895   2.791   6.449   8.260 -0.6926  0.1821  0.4203
 2279SOL    HW118896   2.746   6.369   8.298 -1.2188  0.4949  0.4608
 2279SOL    HW218897   2.787   6.446   8.160  1.6073 -1.1652  0.3499
 2280SOL     OW18898   4.417   8.813   9.408 -0.3271 -0.0596  0.0824
 2280SOL    HW118899   4.432   8.907   9.375 -1.3007  0.3677  0.8342
 2280SOL    HW218900   4.436   8.749   9.334 -0.8084  0.7960 -0.8075
 2281SOL     OW18901   0.869   8.686   0.849  0.5999  0.0985  0.0134
 2281SOL    HW118902   0.911   8.607   0.805  2.0483  0.9904 -0.2603
 2281SOL    HW218903   0.903   8.770   0.806  0.2980  0.9104  1.3150
 2282SOL     OW18904   3.562   9.832   1.958 -0.0560  0.1106 -0.4837
 2282SOL    HW118905   3.646   9.880   1.984  0.1712 -0.0018 -0.9990
 2282SOL    HW218906   3.527   9.781   2.037 -0.6285  1.5932  0.2334
 2283SOL     OW18907   2.475   0.658   7.786  0.4062 -0.0477  0.4719
 2283SOL    HW118908   2.550   0.717   7.814  0.3275  1.1919 -1.8432
 2283SOL    HW218909   2.392   0.712   7.773 -0.7048 -1.2838  2.1826
 2284SOL     OW18910   8.812   4.217   2.869 -0.1590 -0.0224  0.0784
 2284SOL    HW118911   8.908   4.240   2.881 -0.5106  1.3902  0.2447
 2284SOL    HW218912   8.785   4.147   2.936  0.7119 -0.3325  0.1045
 2285SOL     OW18913   9.915   9.464   6.600 -0.0840  0.2169 -0.3420
 2285SOL    HW118914   9.986   9.485   6.533  0.0461  3.8338  0.8291
 2285SOL    HW218915   9.951   9.399   6.667  0.2752 -2.2397 -2.8404
 2286SOL     OW18916   9.037   9.892   6.216  0.7014  0.1431 -0.1224
 2286SOL    HW118917   8.968   9.960   6.192 -0.7659 -0.8690  1.0895
 2286SOL    HW218918   9.122   9.937   6.241 -0.2323  1.5266  0.5841
 2287SOL     OW18919   0.048   0.395   7.554  0.1824 -0.7021  0.3021
 2287SOL    HW118920   0.061   0.359   7.461 -2.7962  0.0278 -0.4646
 2287SOL    HW218921   0.063   0.322   7.620  1.1136 -1.5586 -0.8231
 2288SOL     OW18922   2.116   6.166   1.436 -1.1426  0.3415 -0.0675
 2288SOL    HW118923   2.073   6.202   1.518 -1.3336  0.9273 -0.4200
 2288SOL    HW218924   2.065   6.197   1.355 -0.7531  0.0611 -0.4264
 2289SOL     OW18925   8.372   8.243   1.737  0.5135  0.1527 -0.3569
 2289SOL    HW118926   8.391   8.153   1.776  0.6822  0.5612  0.5252
 2289SOL    HW218927   8.411   8.248   1.645  0.5428 -0.6582 -0.3957
 2290SOL     OW18928   1.678   4.222   1.617  0.3791 -0.4204  0.2205
 2290SOL    HW118929   1.602   4.229   1.682  0.2047  0.1562 -0.0389
 2290SOL    HW218930   1.692   4.311   1.573 -1.1220 -1.3845 -2.3487
 2291SOL     OW18931   0.411   9.119   9.023  0.2149  0.2570  0.4197
 2291SOL    HW118932   0.442   9.044   9.081 -4.5375 -1.9205  0.4016
 2291SOL    HW218933   0.371   9.192   9.079  0.2662  0.4674  0.1847
 2292SOL     OW18934   9.684   1.528   0.052 -0.0849 -0.1618  0.1191
 2292SOL    HW118935   9.727   1.617   0.042 -1.7566  0.6241 -0.3564
 2292SOL    HW218936   9.689   1.498   0.147 -1.2108  1.3472  0.6792
 2293SOL     OW18937   1.784   1.280   5.293 -0.1910  0.5246 -0.3157
 2293SOL    HW118938   1.766   1.302   5.197 -0.2478 -1.2067 -0.7265
 2293SOL    HW218939   1.711   1.220   5.327  1.4590 -1.4061 -0.1179
 2294SOL     OW18940   4.550   1.794   1.086  0.1856  0.3121  0.4175
 2294SOL    HW118941   4.500   1.878   1.065 -1.2526 -0.4900  0.5065
 2294SOL    HW218942   4.485   1.718   1.090  0.9581 -0.2537  3.6439
 2295SOL     OW18943   3.849   0.775  10.004 -0.0078 -0.3596 -0.4362
 2295SOL    HW118944   3.949   0.783  10.000 -0.0155  1.2127  1.4612
 2295SOL    HW218945   3.824   0.687  10.042  0.6538 -0.8922 -1.2206
 2296SOL     OW18946   8.250   4.813   8.348 -0.2164 -0.4263 -0.7634
 2296SOL    HW118947   8.280   4.725   8.310 -0.6917 -1.3303  0.9418
 2296SOL    HW218948   8.178   4.798   8.415  1.2529  1.0718  1.1999
 2297SOL     OW18949   6.791   7.307   5.877  0.1648  0.0128 -0.1867
 2297SOL    HW118950   6.889   7.287   5.879  0.2810  0.6774  0.9061
 2297SOL    HW218951   6.745   7.254   5.947 -0.0119  0.9642  0.4264
 2298SOL     OW18952   0.128   7.042   1.580  0.3895 -0.1258 -0.2089
 2298SOL    HW118953   0.178   7.074   1.499  1.0647 -0.6329 -0.0001
 2298SOL    HW218954   0.153   6.947   1.599  0.1832 -0.0266  0.5565
 2299SOL     OW18955   0.973   0.897   4.950 -0.1524  0.2152  0.5182
 2299SOL    HW118956   0.981   0.805   4.989  1.6118  0.3083  0.3846
 2299SOL    HW218957   1.037   0.959   4.995 -0.4478  1.0920 -0.2535
 2300SOL     OW18958   9.849   1.615   7.813  0.0230  0.2487  0.0560
 2300SOL    HW118959   9.781   1.655   7.751  1.3753 -0.8861 -2.2401
 2300SOL    HW218960   9.913   1.560   7.760  0.1889 -2.2235  2.7239
 2301SOL     OW18961   8.248   6.395   1.222 -0.1669  0.3941  0.2585
 2301SOL    HW118962   8.307   6.422   1.298 -1.3988 -1.1191  1.7625
 2301SOL    HW218963   8.164   6.449   1.224 -0.8264 -0.6444  0.8335
 2302SOL     OW18964   7.287   8.948   6.943  0.4367 -0.5238 -0.3332
 2302SOL    HW118965   7.310   8.868   6.888  3.3297 -0.5709  0.8583
 2302SOL    HW218966   7.235   8.920   7.024  0.3705 -1.0168 -0.5448
 2303SOL     OW18967   4.238   3.501   9.561 -0.7580 -0.6125 -0.4048
 2303SOL    HW118968   4.197   3.577   9.509 -1.7224 -0.9472 -0.1588
 2303SOL    HW218969   4.177   3.421   9.556  0.2791 -1.3904 -0.7125
 2304SOL     OW18970   2.299   7.703   8.596  0.6067  0.4755 -0.5453
 2304SOL    HW118971   2.301   7.803   8.588 -0.7569  0.4249 -1.8742
 2304SOL    HW218972   2.214   7.669   8.557  0.0683 -1.0605  1.9135
 2305SOL     OW18973   5.036   0.721   3.624 -0.4295  0.4109 -0.2762
 2305SOL    HW118974   5.073   0.671   3.703 -3.9317  0.1424  1.2759
 2305SOL    HW218975   4.998   0.808   3.656 -0.6238  0.9369 -1.9163
 2306SOL     OW18976   7.722   6.964   4.759 -0.0446  0.5956  0.1077
 2306SOL    HW118977   7.697   6.868   4.746 -1.3609  0.8289  0.7835
 2306SOL    HW218978   7.804   6.970   4.816  1.4138 -0.1850 -1.8696
 2307SOL     OW18979   6.289   3.293   2.170 -0.5436  0.2214 -0.6593
 2307SOL    HW118980   6.283   3.269   2.268 -0.9643  3.1209  0.0602
 2307SOL    HW218981   6.247   3.220   2.116 -2.9649 -0.0934  1.5310
 2308SOL     OW18982   2.585   5.907   8.940  0.2502  0.0304 -0.1551
 2308SOL    HW118983   2.487   5.923   8.952  0.0132 -1.2534 -0.3156
 2308SOL    HW218984   2.611   5.929   8.846 -0.1123 -0.7399 -0.4373
 2309SOL     OW18985   5.329   9.556   2.120 -0.1921  0.0209 -0.1704
 2309SOL    HW118986   5.344   9.646   2.081  0.3348  0.3099  0.6870
 2309SOL    HW218987   5.331   9.562   2.220 -1.3493 -0.7351 -0.0900
 2310SOL     OW18988   8.587   3.415   9.474 -0.9927  0.3265  0.0783
 2310SOL    HW118989   8.631   3.440   9.561 -0.4383  0.8972 -0.3624
 2310SOL    HW218990   8.505   3.360   9.493 -0.6450  0.0945  0.9464
 2311SOL     OW18991   3.262   4.378   4.968 -0.1596  0.2157  0.0253
 2311SOL    HW118992   3.227   4.368   4.875 -0.1357  0.3251  0.0047
 2311SOL    HW218993   3.340   4.317   4.981  0.2108  0.6362 -0.2129
 2312SOL     OW18994   0.281   8.193   4.416 -0.3231  0.0970 -0.5568
 2312SOL    HW118995   0.221   8.115   4.400 -0.1025  0.0352 -1.0929
 2312SOL    HW218996   0.332   8.214   4.332  1.6836 -0.9357  0.3681
 2313SOL     OW18997   8.250   4.530   5.467  0.1218 -0.3306 -0.1880
 2313SOL    HW118998   8.348   4.513   5.452 -0.1255 -0.8292 -1.2101
 2313SOL    HW218999   8.239   4.619   5.513  1.0831 -0.5145  0.4123
 2314SOL     OW19000   1.980   9.401   6.586 -0.5940 -0.0539  0.5566
 2314SOL    HW119001   1.977   9.340   6.507 -1.2516  0.7203 -0.0195
 2314SOL    HW219002   2.061   9.379   6.641 -0.2545 -0.7489 -0.1984
 2315SOL     OW19003   8.345   5.050   8.766  0.0588  0.3224 -0.0313
 2315SOL    HW119004   8.420   5.021   8.826 -0.3657 -1.1575 -0.1942
 2315SOL    HW219005   8.262   5.064   8.820  0.1120  0.6803 -0.0383
 2316SOL     OW19006   1.382   3.299   5.618 -0.1253 -0.1964  0.4992
 2316SOL    HW119007   1.290   3.278   5.652  0.0090 -0.1061  0.9313
 2316SOL    HW219008   1.379   3.383   5.564 -0.4918 -0.8006 -0.4291
 2317SOL     OW19009   4.280   4.516   8.957 -0.1896 -0.2715  0.1322
 2317SOL    HW119010   4.216   4.543   9.029  0.6729  0.3370  0.6724
 2317SOL    HW219011   4.285   4.589   8.888 -0.1397 -0.3521  0.0499
 2318SOL     OW19012   9.692   4.136   1.818  0.1235 -0.0816 -0.0399
 2318SOL    HW119013   9.782   4.094   1.828  0.8859  1.6106  0.3654
 2318SOL    HW219014   9.655   4.157   1.908  0.5388  1.7518 -0.2897
 2319SOL     OW19015   2.161   0.855   0.517 -0.2528  0.8206  0.0725
 2319SOL    HW119016   2.171   0.908   0.433 -0.8480  0.6199 -0.1284
 2319SOL    HW219017   2.237   0.876   0.580  1.5417 -0.8001 -1.4680
 2320SOL     OW19018   3.168   5.186   7.109 -0.5067 -0.4251 -0.3768
 2320SOL    HW119019   3.094   5.121   7.128 -2.8191  1.5578 -2.2533
 2320SOL    HW219020   3.153   5.270   7.162  0.2167  0.1257 -1.0431
 2321SOL     OW19021   1.149   2.342   8.116 -0.1559 -0.3891 -0.0375
 2321SOL    HW119022   1.175   2.439   8.120  0.0895 -0.4672  0.2997
 2321SOL    HW219023   1.158   2.309   8.022  0.8489 -0.3772  0.0413
 2322SOL     OW19024   7.360   5.158   3.447 -0.9912  0.2537 -0.2359
 2322SOL    HW119025   7.298   5.229   3.414 -0.1843  0.5767 -1.0536
 2322SOL    HW219026   7.443   5.200   3.482 -0.8383 -0.2432  0.0024
 2323SOL     OW19027   0.723   8.582   8.993 -0.3155  0.6600  0.1019
 2323SOL    HW119028   0.627   8.596   8.969 -0.0940  1.0608 -0.5461
 2323SOL    HW219029   0.756   8.662   9.043 -0.8525 -0.2836  2.0075
 2324SOL     OW19030   9.358   0.751   1.162 -0.1732  0.1532  0.4440
 2324SOL    HW119031   9.339   0.677   1.098  1.2654 -0.1573  0.3598
 2324SOL    HW219032   9.434   0.806   1.128 -0.3719  0.8788  1.1504
 2325SOL     OW19033   4.532   9.682   5.487 -0.0541 -0.5664  0.3001
 2325SOL    HW119034   4.535   9.736   5.404  1.2639 -0.2062  0.5782
 2325SOL    HW219035   4.592   9.602   5.477  1.7703  0.5892  1.6573
 2326SOL     OW19036   5.277   0.424   5.890 -0.5806 -0.2286 -0.5325
 2326SOL    HW119037   5.216   0.451   5.816 -0.1611 -0.4205 -0.9464
 2326SOL    HW219038   5.267   0.488   5.966 -1.4109 -0.3430 -0.5365
 2327SOL     OW19039   0.191   0.498   0.204  0.5617 -0.5412  0.4335
 2327SOL    HW119040   0.267   0.441   0.234  2.4124  1.5413 -0.1142
 2327SOL    HW219041   0.201   0.590   0.243 -0.9601  0.1257 -0.7033
 2328SOL     OW19042   7.272   7.885   4.504  0.2044  0.1902 -0.8907
 2328SOL    HW119043   7.284   7.805   4.445  1.7262 -1.0302  1.0161
 2328SOL    HW219044   7.260   7.967   4.448 -1.7520 -1.3949 -2.8932
 2329SOL     OW19045   4.653   1.074   1.985  0.3182  0.3195  0.4893
 2329SOL    HW119046   4.613   1.071   1.894  0.7313  2.2059  0.2362
 2329SOL    HW219047   4.584   1.105   2.051 -0.9086 -3.9855  1.3808
 2330SOL     OW19048   2.601   5.690   9.694  0.5409  0.2986  0.0387
 2330SOL    HW119049   2.602   5.662   9.790 -0.7260  0.8914  0.2415
 2330SOL    HW219050   2.690   5.727   9.669  1.0946 -0.5146  0.7822
 2331SOL     OW19051   5.862   1.017   4.562  0.6330  0.3972 -0.5646
 2331SOL    HW119052   5.883   1.099   4.509  0.0608  0.6400 -0.4134
 2331SOL    HW219053   5.769   0.986   4.541  0.0677  1.0253  0.9851
 2332SOL     OW19054   2.920   1.665   5.118  0.6332  0.2819 -0.0411
 2332SOL    HW119055   2.866   1.588   5.152 -0.7729  1.3557  0.2105
 2332SOL    HW219056   2.883   1.750   5.155  0.6114  1.2841 -2.2877
 2333SOL     OW19057   8.864   8.122   3.009  0.5010 -0.3254 -0.7029
 2333SOL    HW119058   8.864   8.208   2.958 -2.7292  0.5696  0.7002
 2333SOL    HW219059   8.839   8.047   2.948  1.4167 -0.0033 -1.4959
 2334SOL     OW19060   9.936   8.173   4.321 -0.2795 -0.4539  0.6123
 2334SOL    HW119061  10.003   8.100   4.339 -0.3837 -0.8401 -0.5013
 2334SOL    HW219062   9.923   8.228   4.403  0.1683 -1.4009  1.3254
 2335SOL     OW19063   5.474   8.166   4.053  0.0988 -0.2940 -0.2868
 2335SOL    HW119064   5.488   8.189   4.150 -0.7941 -0.0420 -0.2161
 2335SOL    HW219065   5.405   8.226   4.014  0.1504 -0.6785 -0.9755
 2336SOL     OW19066   9.503   1.107   3.994  0.2770  0.4647  0.2673
 2336SOL    HW119067   9.468   1.026   4.042 -0.3659 -0.4123 -1.6259
 2336SOL    HW219068   9.430   1.175   3.987 -0.2307 -0.1803 -1.0863
 2337SOL     OW19069   9.000   8.610   2.698 -0.2312  0.3116  0.6032
 2337SOL    HW119070   9.077   8.662   2.663 -0.1387  0.5765  1.1970
 2337SOL    HW219071   8.980   8.534   2.636  1.6264 -0.8237  1.3491
 2338SOL     OW19072   7.993   1.750   5.901 -0.5883  0.1537  0.3758
 2338SOL    HW119073   7.976   1.662   5.856 -0.7932  1.1755 -1.6139
 2338SOL    HW219074   7.965   1.745   5.997  1.7080 -2.7301  0.9900
 2339SOL     OW19075   2.290   8.186   9.579 -0.1707  0.1710 -0.0034
 2339SOL    HW119076   2.355   8.256   9.552 -1.5505  1.4290 -0.1309
 2339SOL    HW219077   2.197   8.218   9.561 -0.9560 -0.5322  2.5559
 2340SOL     OW19078   1.745   2.043   9.132  0.6308 -0.0711  0.2131
 2340SOL    HW119079   1.707   1.959   9.171  0.0208  0.1658  0.1238
 2340SOL    HW219080   1.839   2.055   9.165  0.3557 -0.2339  1.0564
 2341SOL     OW19081   0.418   7.237   5.515 -0.1636 -0.5316 -0.2536
 2341SOL    HW119082   0.498   7.226   5.456  1.1659  0.9815  1.2179
 2341SOL    HW219083   0.432   7.187   5.601 -0.8098 -0.2964 -0.0038
 2342SOL     OW19084   3.603   4.004   6.722 -0.0303 -0.2285  0.5669
 2342SOL    HW119085   3.678   4.034   6.664  0.7058  0.2682  1.7554
 2342SOL    HW219086   3.516   4.035   6.683  0.3480 -1.0049 -0.9366
 2343SOL     OW19087   4.053   8.357   7.516 -0.2785 -0.4165 -0.2189
 2343SOL    HW119088   3.977   8.309   7.471  0.0429 -0.7108 -0.4464
 2343SOL    HW219089   4.056   8.332   7.612  0.7711 -1.9722 -0.6376
 2344SOL     OW19090   1.281   1.832   3.416  0.1711  0.0183 -0.2339
 2344SOL    HW119091   1.260   1.797   3.507 -0.2007 -0.3581 -0.4605
 2344SOL    HW219092   1.215   1.904   3.392  0.7241  0.6445  0.0917
 2345SOL     OW19093   9.881   0.026   2.337  1.0403 -0.4058 -0.0461
 2345SOL    HW119094   9.832   0.111   2.357 -0.3424 -1.4979  1.3589
 2345SOL    HW219095   9.863  -0.000   2.242  0.5870  0.3061 -0.1659
 2346SOL     OW19096   1.135   0.694   5.085  0.2381  0.3984  0.5958
 2346SOL    HW119097   1.135   0.669   5.182 -0.5776  0.0729  0.5160
 2346SOL    HW219098   1.152   0.613   5.029  0.1403  0.4834  0.4413
 2347SOL     OW19099   3.517   9.407   7.772 -0.0335  0.0469  0.8284
 2347SOL    HW119100   3.533   9.497   7.813 -0.9534  0.6192 -0.0237
 2347SOL    HW219101   3.593   9.346   7.794  0.9276  1.2349  0.8609
 2348SOL     OW19102   7.025   8.478   8.365  0.1976 -0.5218 -0.1404
 2348SOL    HW119103   7.067   8.394   8.331  0.7891 -0.5769  0.7182
 2348SOL    HW219104   7.092   8.531   8.417 -0.1010  0.6092 -0.8842
 2349SOL     OW19105   3.847   6.706   4.881 -0.1687  0.7143 -0.3865
 2349SOL    HW119106   3.801   6.673   4.963  1.9220 -1.4124 -0.0207
 2349SOL    HW219107   3.855   6.631   4.815  0.8958  1.5989 -1.2875
 2350SOL     OW19108   4.484   7.379   0.856  0.3832 -0.2144 -0.2136
 2350SOL    HW119109   4.503   7.416   0.947 -0.5677  1.3017 -0.6119
 2350SOL    HW219110   4.451   7.453   0.797  1.7119 -1.0187 -2.0072
 2351SOL     OW19111   7.677   2.348   1.591 -0.0779 -0.5353  0.5084
 2351SOL    HW119112   7.619   2.324   1.513 -0.3442  2.3379 -0.2115
 2351SOL    HW219113   7.633   2.421   1.643  1.5815 -0.3033  1.5947
 2352SOL     OW19114   7.390   9.969   2.631 -0.1997 -0.0024  0.6548
 2352SOL    HW119115   7.409   9.882   2.585 -0.9007 -0.0926  0.5254
 2352SOL    HW219116   7.331   9.953   2.710 -0.4116  0.3644  0.5723
 2353SOL     OW19117   2.647   0.486   2.757  0.4169 -0.0248 -0.0904
 2353SOL    HW119118   2.733   0.439   2.740  0.0861 -0.7829  0.3129
 2353SOL    HW219119   2.592   0.433   2.822 -1.1011 -0.4413 -1.6778
 2354SOL     OW19120   9.250   1.149   8.838  0.0603 -0.3308 -0.5315
 2354SOL    HW119121   9.165   1.103   8.810 -0.4265  0.4914 -0.4144
 2354SOL    HW219122   9.251   1.159   8.938 -0.0159  0.2575 -0.5884
 2355SOL     OW19123   4.346   2.221   0.416  0.3127  0.6180  0.3672
 2355SOL    HW119124   4.264   2.221   0.474  0.5923 -0.2518  0.7680
 2355SOL    HW219125   4.318   2.218   0.320 -0.1096 -1.5863  0.5399
 2356SOL     OW19126   3.296   4.624   7.305 -0.4105  0.2334 -0.0043
 2356SOL    HW119127   3.338   4.536   7.330  1.4107  1.1689  0.3100
 2356SOL    HW219128   3.299   4.686   7.384 -0.9776  0.8452 -0.4589
 2357SOL     OW19129   6.575   0.753   4.107  0.1842 -0.1021 -0.5888
 2357SOL    HW119130   6.576   0.848   4.075  0.4821 -0.7332 -2.5718
 2357SOL    HW219131   6.668   0.715   4.099 -0.3035 -1.1191 -1.6435
 2358SOL     OW19132   2.016   6.180   0.102  0.1620 -0.1199  0.0842
 2358SOL    HW119133   2.110   6.175   0.134 -0.0102 -1.6660  0.3831
 2358SOL    HW219134   1.999   6.269   0.060  0.4625  1.9059  4.0333
 2359SOL     OW19135   9.494   7.524   8.968 -0.2074  0.2022  0.1019
 2359SOL    HW119136   9.516   7.605   9.023  1.5175 -0.4198  0.3537
 2359SOL    HW219137   9.573   7.463   8.966 -1.6295 -1.6851  0.2687
 2360SOL     OW19138   6.254   1.797   1.908 -0.2091  0.5264  0.5470
 2360SOL    HW119139   6.297   1.717   1.950 -1.6557  0.9097  2.8463
 2360SOL    HW219140   6.324   1.852   1.861  1.2230 -0.6302  1.2898
 2361SOL     OW19141   8.858   0.561   9.827 -0.3878 -0.3711 -0.0930
 2361SOL    HW119142   8.810   0.640   9.790 -0.9544 -1.2056 -1.1788
 2361SOL    HW219143   8.900   0.585   9.915 -0.1373  1.2657 -0.6505
 2362SOL     OW19144   7.573   4.754   9.206 -0.6652 -0.2340  0.1093
 2362SOL    HW119145   7.609   4.662   9.189 -0.8980 -0.0471 -1.4988
 2362SOL    HW219146   7.509   4.778   9.133  0.4990  1.7766 -0.2848
 2363SOL     OW19147   2.703   5.972   8.503 -0.1032 -0.1813 -0.0566
 2363SOL    HW119148   2.650   5.887   8.495 -1.1423  0.6318 -2.3857
 2363SOL    HW219149   2.801   5.951   8.499 -0.3531 -1.1122 -3.3776
 2364SOL     OW19150   7.193   1.915   3.939  0.4233 -0.4267 -0.2823
 2364SOL    HW119151   7.246   1.939   4.020 -2.2758  3.4329  0.4437
 2364SOL    HW219152   7.181   1.996   3.882 -0.7841 -2.2944 -2.7441
 2365SOL     OW19153   9.269   1.974   0.424  0.0230 -0.6021 -0.4457
 2365SOL    HW119154   9.207   2.049   0.445 -1.0546 -1.7276  0.5269
 2365SOL    HW219155   9.244   1.933   0.336 -0.0329 -0.4711 -0.4905
 2366SOL     OW19156   2.650   3.335   5.223 -0.1263 -0.0445  0.3739
 2366SOL    HW119157   2.699   3.414   5.260  1.3861  0.0262 -1.7173
 2366SOL    HW219158   2.591   3.364   5.148 -0.4821 -0.7298  0.3828
 2367SOL     OW19159   8.169   9.797   4.733  0.4582  0.0691  0.4434
 2367SOL    HW119160   8.147   9.755   4.645  1.4682 -0.5471  0.4875
 2367SOL    HW219161   8.229   9.737   4.785  0.1643  0.5979  1.4096
 2368SOL     OW19162   0.352   6.793   1.973 -0.1162  0.3369 -0.2902
 2368SOL    HW119163   0.426   6.856   1.995  1.4684 -1.2621 -0.9130
 2368SOL    HW219164   0.369   6.751   1.884 -1.9129  0.1415 -0.5613
 2369SOL     OW19165   4.056   1.551   1.298 -0.2004 -0.1893 -0.3034
 2369SOL    HW119166   4.019   1.535   1.206  0.5646  0.4827 -0.7307
 2369SOL    HW219167   4.076   1.463   1.341  1.8838 -0.4936 -1.7924
 2370SOL     OW19168   2.308   8.422   3.205  0.1521 -0.2919 -0.0128
 2370SOL    HW119169   2.340   8.346   3.262  0.0920 -0.8733 -0.7528
 2370SOL    HW219170   2.382   8.453   3.146 -0.5814 -1.5896 -1.6739
 2371SOL     OW19171   8.867   1.777   5.178 -0.0725  0.0318 -0.6505
 2371SOL    HW119172   8.936   1.784   5.106 -1.0351  0.3278 -1.5495
 2371SOL    HW219173   8.858   1.682   5.206  0.5631 -0.0356 -0.6587
 2372SOL     OW19174   8.726   6.934   9.927 -0.0141  0.3655  0.1414
 2372SOL    HW119175   8.820   6.921   9.959 -0.6138 -0.2928  1.7040
 2372SOL    HW219176   8.705   7.032   9.928  0.1553  0.4064  1.3373
 2373SOL     OW19177   8.443   7.719   7.052 -0.0283  0.2045  0.2726
 2373SOL    HW119178   8.422   7.622   7.040  1.1169 -0.1329  0.9338
 2373SOL    HW219179   8.536   7.737   7.023  0.2173  0.8485  1.4182
 2374SOL     OW19180   7.070   4.193   9.207 -0.4132  0.0886 -0.2168
 2374SOL    HW119181   7.000   4.250   9.251  0.1828 -0.1675  1.0903
 2374SOL    HW219182   7.142   4.252   9.171  0.9953  0.1052  2.5428
 2375SOL     OW19183   2.932   7.702   2.006 -0.5452  0.2306  0.7112
 2375SOL    HW119184   2.899   7.608   1.999  1.6751 -0.6831  2.0378
 2375SOL    HW219185   3.032   7.702   2.004 -0.4452  2.9732 -4.3093
 2376SOL     OW19186   5.861   8.213   3.589 -0.0415  0.6861  0.1458
 2376SOL    HW119187   5.813   8.127   3.576  2.1867 -0.2295 -2.6785
 2376SOL    HW219188   5.874   8.231   3.687 -1.1348 -1.8193  0.7712
 2377SOL     OW19189   0.289   8.368   9.070 -0.2957 -0.1132 -0.2201
 2377SOL    HW119190   0.348   8.325   9.137 -1.5912  0.2549  1.1997
 2377SOL    HW219191   0.203   8.395   9.114 -0.9584  0.6092 -1.9059
 2378SOL     OW19192   1.890   4.829   0.267 -0.0843 -0.1133  0.5793
 2378SOL    HW119193   1.967   4.808   0.327 -1.3536  0.0347  2.2980
 2378SOL    HW219194   1.919   4.895   0.198  0.9325  1.1058  2.1351
 2379SOL     OW19195   7.038   8.926   4.145 -0.6400 -0.2221  0.1665
 2379SOL    HW119196   7.008   8.892   4.234  0.0834  0.4082  0.6647
 2379SOL    HW219197   7.065   9.023   4.154 -2.7592  0.5177 -1.2344
 2380SOL     OW19198   7.708   6.899   1.321 -0.3457  0.8893  0.4150
 2380SOL    HW119199   7.703   6.991   1.359  1.0083  0.2336  2.2382
 2380SOL    HW219200   7.800   6.862   1.335 -0.7729 -0.5964 -0.6353
 2381SOL     OW19201   4.630   6.008   2.981 -0.0492 -0.1359  0.6610
 2381SOL    HW119202   4.549   5.986   3.035  0.0532 -1.0235  0.4522
 2381SOL    HW219203   4.696   6.058   3.037  0.6433 -2.2407  1.7466
 2382SOL     OW19204   3.900   4.579   9.580 -0.5161 -0.3325  0.0018
 2382SOL    HW119205   3.998   4.587   9.595 -0.3704  1.6576 -1.8496
 2382SOL    HW219206   3.852   4.580   9.668  0.9863  0.4787  0.8197
 2383SOL     OW19207   8.509   0.646   7.644  0.6423  0.3339 -0.0268
 2383SOL    HW119208   8.429   0.620   7.589 -0.1694 -0.2206  1.3991
 2383SOL    HW219209   8.491   0.733   7.690  1.4654  0.9811 -0.9119
 2384SOL     OW19210   1.212   8.915   6.627 -0.1954  0.1852 -0.4619
 2384SOL    HW119211   1.189   8.900   6.531 -3.4248 -0.9486  0.4155
 2384SOL    HW219212   1.264   8.837   6.662 -0.2684 -0.0651 -0.9105
 2385SOL     OW19213   9.951   1.437   6.580  0.5241  0.4921  0.0109
 2385SOL    HW119214   9.976   1.341   6.596  1.4207  0.6143 -0.6489
 2385SOL    HW219215   9.853   1.449   6.599  0.5413 -0.4118  0.7149
 2386SOL     OW19216   2.892   6.277   3.934 -0.3477  0.1187 -0.1942
 2386SOL    HW119217   2.925   6.294   3.842 -0.3715 -0.8460 -0.3891
 2386SOL    HW219218   2.826   6.201   3.932  0.6019 -0.7447  0.7913
 2387SOL     OW19219   0.533   6.632   4.084  0.2433  0.1575 -0.3126
 2387SOL    HW119220   0.560   6.564   4.015  0.0933  0.0291 -0.2461
 2387SOL    HW219221   0.471   6.589   4.150 -0.3065  0.5188 -0.6027
 2388SOL     OW19222   8.640   7.182   1.938  0.2783 -0.1984  0.2324
 2388SOL    HW119223   8.733   7.162   1.968 -0.2935 -0.5775  1.7653
 2388SOL    HW219224   8.603   7.259   1.989  0.2587  0.8996 -1.3975
 2389SOL     OW19225   0.121   7.519   6.041 -0.1623  0.7772 -0.1174
 2389SOL    HW119226   0.213   7.525   6.080 -0.7472  1.4898  1.1946
 2389SOL    HW219227   0.082   7.430   6.063 -0.1375  0.8237  0.1168
 2390SOL     OW19228   9.271   2.477   2.606 -0.4449  0.2891 -0.4931
 2390SOL    HW119229   9.192   2.514   2.556 -1.5132 -0.7512  0.3875
 2390SOL    HW219230   9.319   2.411   2.548 -0.5385  0.5180 -0.8375
 2391SOL     OW19231   7.311   1.889   8.750  0.0196  0.2303 -1.1042
 2391SOL    HW119232   7.219   1.865   8.719 -0.0740 -2.2157  0.8743
 2391SOL    HW219233   7.305   1.959   8.821 -0.5079 -1.3900  0.4844
 2392SOL     OW19234   5.401   3.964   0.225  0.5468 -0.1087 -0.0818
 2392SOL    HW119235   5.361   3.994   0.312  2.8961  1.4775  0.5014
 2392SOL    HW219236   5.405   3.864   0.223 -1.8798 -0.2549  0.5199
 2393SOL     OW19237   8.365   7.720   2.952 -0.1781  0.4286 -0.5497
 2393SOL    HW119238   8.346   7.677   2.863  0.5535  3.7051 -2.3934
 2393SOL    HW219239   8.464   7.731   2.963 -0.0647 -2.5148  2.0194
 2394SOL     OW19240   7.658   5.152   8.661  0.1690 -0.3924  0.0936
 2394SOL    HW119241   7.670   5.059   8.694  0.5601 -0.9557 -1.5855
 2394SOL    HW219242   7.744   5.186   8.623  0.1017  0.7583  0.9244
 2395SOL     OW19243   2.701   7.269   2.359 -0.5418  0.1248  0.2480
 2395SOL    HW119244   2.621   7.213   2.380  1.6470 -2.0883  2.9452
 2395SOL    HW219245   2.695   7.355   2.410 -1.3237  0.1065  0.1998
 2396SOL     OW19246   5.006   8.772   3.413  0.1651 -0.4093  0.4217
 2396SOL    HW119247   4.978   8.852   3.466  1.8521  0.3866  0.1432
 2396SOL    HW219248   5.048   8.704   3.473  0.1536 -0.4198  0.4179
 2397SOL     OW19249   3.618   6.977   5.403 -0.1246 -0.6258  0.3932
 2397SOL    HW119250   3.574   7.053   5.451 -0.8576 -0.7436 -0.0860
 2397SOL    HW219251   3.711   7.004   5.377 -1.2315  1.0426 -2.0164
 2398SOL     OW19252   5.097   3.544   9.464 -0.3416  0.2974  0.0048
 2398SOL    HW119253   5.094   3.470   9.531 -0.9618  0.2454 -0.0754
 2398SOL    HW219254   5.192   3.568   9.445 -0.1348 -0.7925 -0.3284
 2399SOL     OW19255   1.513   4.372   0.607  0.3352  0.1180 -0.6433
 2399SOL    HW119256   1.451   4.383   0.684 -1.3558 -0.1922 -1.9338
 2399SOL    HW219257   1.524   4.275   0.586 -0.5805  0.2468 -1.8369
 2400SOL     OW19258   9.665   3.420   2.891  0.3853 -0.2432  0.0125
 2400SOL    HW119259   9.579   3.374   2.866  0.4288 -0.4755  0.2892
 2400SOL    HW219260   9.741   3.355   2.884  0.6518  0.1627 -0.9797
 2401SOL     OW19261   3.679   7.320   6.220 -0.0559  0.3835 -0.4446
 2401SOL    HW119262   3.624   7.294   6.299 -0.1876  0.6539 -0.4454
 2401SOL    HW219263   3.698   7.239   6.164  0.1006  0.1822 -0.0963
 2402SOL     OW19264   6.427   0.906   0.895 -0.4571  0.4247 -0.1852
 2402SOL    HW119265   6.369   0.825   0.897 -0.3896  0.3955  1.7305
 2402SOL    HW219266   6.510   0.889   0.948  0.4104  1.1354 -1.2764
 2403SOL     OW19267   0.611   4.008   1.790 -0.0555  0.1894  0.2100
 2403SOL    HW119268   0.595   3.920   1.835  0.7872  0.3550  0.8439
 2403SOL    HW219269   0.703   4.041   1.812 -1.2743  2.4651  2.0952
 2404SOL     OW19270   7.940   1.984   2.153  0.0382 -0.1701 -0.2108
 2404SOL    HW119271   7.903   1.955   2.065 -0.7686 -2.5293  0.8621
 2404SOL    HW219272   7.895   2.069   2.181  1.7883  1.7474 -3.0014
 2405SOL     OW19273   3.083   0.952   1.199  0.4495  0.3283  0.3928
 2405SOL    HW119274   3.082   0.997   1.109 -0.4233  0.9495  0.7045
 2405SOL    HW219275   3.123   1.014   1.266 -2.2877  1.3370  1.1636
 2406SOL     OW19276   9.468   5.817   1.399 -0.0825  0.3559 -0.2564
 2406SOL    HW119277   9.438   5.723   1.386 -1.3430  0.5471  1.1413
 2406SOL    HW219278   9.552   5.818   1.454  0.5965 -0.0036 -1.2742
 2407SOL     OW19279   9.573   9.616   5.272  0.1782 -0.6102 -0.4152
 2407SOL    HW119280   9.600   9.612   5.369  1.6742 -0.8975 -0.8244
 2407SOL    HW219281   9.546   9.524   5.242  1.2969 -0.8617 -0.6904
 2408SOL     OW19282   5.464   3.459   9.400 -0.1265 -0.0432 -0.0698
 2408SOL    HW119283   5.386   3.399   9.386  0.5230 -0.3773 -2.5275
 2408SOL    HW219284   5.530   3.445   9.326  0.6432  2.7130  0.0338
 2409SOL     OW19285   2.701   2.506   3.836 -0.2683 -0.3685 -0.2796
 2409SOL    HW119286   2.695   2.547   3.745 -0.3545  0.7723  0.2234
 2409SOL    HW219287   2.672   2.573   3.904 -1.9130 -1.7955  0.4582
 2410SOL     OW19288   0.633   1.447   1.776 -0.5280 -0.4210  0.2052
 2410SOL    HW119289   0.688   1.368   1.747 -0.2340 -0.3081  0.4599
 2410SOL    HW219290   0.548   1.449   1.723 -0.3721 -0.7015 -0.0584
 2411SOL     OW19291   8.497   4.342   6.176  0.0438 -1.0536 -0.1136
 2411SOL    HW119292   8.574   4.384   6.226 -0.2135  0.5885 -1.0641
 2411SOL    HW219293   8.530   4.260   6.128  1.1379 -0.5455 -0.2591
 2412SOL     OW19294   7.658   7.594   1.784 -0.1920  0.0073 -0.8887
 2412SOL    HW119295   7.636   7.496   1.784 -2.8376  0.5791 -1.0107
 2412SOL    HW219296   7.668   7.626   1.879 -1.5085  0.0872 -0.7750
 2413SOL     OW19297   8.865   0.114   4.639  0.0170  0.3124  1.0674
 2413SOL    HW119298   8.780   0.078   4.677  0.0721 -0.7957  0.1644
 2413SOL    HW219299   8.941   0.054   4.665  0.0378 -0.5211 -0.8429
 2414SOL     OW19300   1.648   7.195   9.844  0.1806  0.1474  0.1993
 2414SOL    HW119301   1.654   7.287   9.881 -1.3395  0.0837  0.6304
 2414SOL    HW219302   1.607   7.199   9.753  2.9623  0.2000 -1.1008
 2415SOL     OW19303   7.632   8.237   7.014 -0.1012 -0.3097  0.1398
 2415SOL    HW119304   7.721   8.275   6.989  0.2593  0.6243  2.6785
 2415SOL    HW219305   7.645   8.152   7.064 -0.8024 -1.9547 -2.3480
 2416SOL     OW19306   5.055   9.608   2.490  0.1947  0.3310 -0.4390
 2416SOL    HW119307   5.004   9.645   2.568  0.1078  1.7969 -1.1808
 2416SOL    HW219308   5.117   9.536   2.523  0.6924  1.4343  1.1017
 2417SOL     OW19309   8.549   6.586   8.265 -0.2671  0.1894 -0.1890
 2417SOL    HW119310   8.551   6.486   8.267 -0.8090  0.1500 -1.2615
 2417SOL    HW219311   8.474   6.620   8.322 -1.2498 -0.0862 -1.2978
 2418SOL     OW19312   3.328   6.468   6.580  0.2799 -0.6107  0.5988
 2418SOL    HW119313   3.342   6.542   6.645 -1.1665 -1.2008  1.6050
 2418SOL    HW219314   3.282   6.504   6.498 -0.9655 -0.4811  1.3317
 2419SOL     OW19315   0.400   5.261   1.640  0.3036  0.1979 -0.2397
 2419SOL    HW119316   0.382   5.230   1.547 -1.5056 -1.0703  0.4917
 2419SOL    HW219317   0.341   5.211   1.703  0.5525  1.9883  1.4539
 2420SOL     OW19318   8.959   1.055   4.962  0.0331 -0.0042  0.1305
 2420SOL    HW119319   9.038   1.046   4.901 -0.2725 -1.4653 -0.0624
 2420SOL    HW219320   8.875   1.032   4.912 -0.4798  1.0998  0.4564
 2421SOL     OW19321   0.390   3.666   8.788  0.0687  0.3206  0.9315
 2421SOL    HW119322   0.376   3.760   8.757 -1.2260 -0.5927 -1.3695
 2421SOL    HW219323   0.468   3.627   8.741  0.2411  0.0382  1.4461
 2422SOL     OW19324   5.014   2.179   7.348 -0.1289 -0.2860  0.2024
 2422SOL    HW119325   5.066   2.101   7.310  0.1614 -0.7629  1.5354
 2422SOL    HW219326   5.078   2.243   7.392 -0.4951  0.0168  0.2935
 2423SOL     OW19327   8.367   9.891   2.997 -0.3955 -0.1363 -0.0032
 2423SOL    HW119328   8.332   9.818   2.939 -1.7760  1.4378 -1.2052
 2423SOL    HW219329   8.294   9.956   3.018  0.5287  0.3195  1.9808
 2424SOL     OW19330   2.612   8.479   4.902 -0.7648 -0.0299 -0.7420
 2424SOL    HW119331   2.572   8.504   4.991 -1.9895 -1.1027 -0.9802
 2424SOL    HW219332   2.711   8.469   4.913 -1.1073 -2.0167  0.9674
 2425SOL     OW19333   2.871   5.046   6.220 -0.0308 -0.0618  0.0746
 2425SOL    HW119334   2.875   5.144   6.204  0.3130 -0.2242 -0.8526
 2425SOL    HW219335   2.897   4.997   6.137 -1.1801 -0.9478  0.2265
 2426SOL     OW19336   5.971   1.887   1.930  0.1163  0.0979 -0.5501
 2426SOL    HW119337   5.967   1.961   1.997 -1.0025  0.6221 -1.1798
 2426SOL    HW219338   6.063   1.847   1.930  0.7178  1.4535 -0.1793
 2427SOL     OW19339   8.266   6.631   3.009 -0.0207  0.1103 -0.3203
 2427SOL    HW119340   8.232   6.725   3.001  0.7820  0.3966 -0.3992
 2427SOL    HW219341   8.199   6.576   3.059  1.1206  1.5959  2.9757
 2428SOL     OW19342   2.980   8.063   7.083  0.6150 -0.1178  0.2693
 2428SOL    HW119343   3.069   8.020   7.069  0.7221 -0.4299  1.8193
 2428SOL    HW219344   2.925   8.007   7.145 -0.6651  0.0801 -0.6691
 2429SOL     OW19345   3.627   6.501   4.457  0.1955 -0.2544 -0.7422
 2429SOL    HW119346   3.542   6.499   4.510  1.4986  2.5639  1.6019
 2429SOL    HW219347   3.619   6.569   4.383  0.5936  0.4628 -0.1355
 2430SOL     OW19348   5.301   2.941   8.261  0.7071 -0.2686  0.0049
 2430SOL    HW119349   5.273   3.026   8.217 -0.2504 -1.0875 -1.0005
 2430SOL    HW219350   5.357   2.888   8.198 -1.4910 -1.8972 -0.6411
 2431SOL     OW19351   0.317   5.826   7.436  0.2503  0.2108  0.4354
 2431SOL    HW119352   0.324   5.903   7.374 -0.7232  0.5315  0.7200
 2431SOL    HW219353   0.381   5.754   7.408  1.8626  1.4973  0.7317
 2432SOL     OW19354   7.150   0.268   4.283 -0.3735 -0.5107  0.4610
 2432SOL    HW119355   7.134   0.211   4.363  0.7009 -0.9915  0.3424
 2432SOL    HW219356   7.181   0.212   4.207  4.4671  0.5777  1.4269
 2433SOL     OW19357   3.753   1.362   1.515  0.1498 -0.0691 -0.3990
 2433SOL    HW119358   3.825   1.429   1.498  0.7955 -0.6662 -0.0588
 2433SOL    HW219359   3.691   1.396   1.586  2.0205 -0.9578  1.7035
 2434SOL     OW19360   7.362   2.830   4.389 -0.1191 -0.2171  0.3284
 2434SOL    HW119361   7.354   2.744   4.339  2.5203  0.1583 -0.8123
 2434SOL    HW219362   7.429   2.889   4.344 -1.6644  2.3338  1.2561
 2435SOL     OW19363   1.482   6.972   8.429 -0.9189  0.4742 -0.2229
 2435SOL    HW119364   1.528   6.908   8.367 -0.3106 -0.1880  0.8830
 2435SOL    HW219365   1.498   6.943   8.524 -1.8684  1.4438  0.2418
 2436SOL     OW19366   1.993   9.827   4.688 -0.1361 -0.4316  0.5302
 2436SOL    HW119367   1.943   9.741   4.696 -2.7718  0.9764  0.0140
 2436SOL    HW219368   2.048   9.842   4.770 -1.7293 -1.3408  1.7982
 2437SOL     OW19369   3.420   8.625   3.672 -0.0052  0.0241 -0.1551
 2437SOL    HW119370   3.406   8.535   3.713 -2.2453 -0.5214 -2.0426
 2437SOL    HW219371   3.509   8.627   3.626  0.8254 -0.6198  1.3804
 2438SOL     OW19372   7.895   6.710   0.891 -0.8311  0.1265 -0.3716
 2438SOL    HW119373   7.953   6.637   0.927 -1.3986 -1.1191 -1.9020
 2438SOL    HW219374   7.863   6.768   0.966 -0.8172 -1.5275  0.9346
 2439SOL     OW19375   1.856   5.660   2.588 -0.0416  0.2932  0.2878
 2439SOL    HW119376   1.870   5.697   2.679  1.3616  0.8516 -0.1457
 2439SOL    HW219377   1.881   5.728   2.519 -2.4941  0.4127 -0.5397
 2440SOL     OW19378   0.373   7.098   6.777 -0.3975  0.4232 -0.0577
 2440SOL    HW119379   0.386   7.197   6.777 -0.4412  0.4411  1.2493
 2440SOL    HW219380   0.314   7.073   6.853 -0.1730 -0.6364 -0.2327
 2441SOL     OW19381   1.059   3.762   2.013 -0.4346 -0.1861 -0.2930
 2441SOL    HW119382   0.989   3.768   1.942 -1.4343 -0.5586  0.6562
 2441SOL    HW219383   1.123   3.838   2.002  0.1744 -0.9631 -2.3845
 2442SOL     OW19384   1.649   4.605   6.124 -0.7347 -0.1630  0.3572
 2442SOL    HW119385   1.684   4.662   6.050 -0.9277  0.0216  0.4073
 2442SOL    HW219386   1.703   4.621   6.207 -1.2234  0.4591  0.5570
 2443SOL     OW19387   0.649   0.428   0.205 -0.7009 -0.4455  0.3566
 2443SOL    HW119388   0.738   0.427   0.251 -0.8767 -2.2877  0.6981
 2443SOL    HW219389   0.650   0.361   0.131 -1.9243 -0.7309  0.5916
 2444SOL     OW19390   3.408   7.163   7.602  0.3539  0.1943 -0.0807
 2444SOL    HW119391   3.316   7.148   7.639  0.2000 -0.0286 -0.5469
 2444SOL    HW219392   3.461   7.219   7.665  0.3473 -0.8113  0.8419
 2445SOL     OW19393   3.077   4.433   8.593  0.1833  0.3071  0.0972
 2445SOL    HW119394   3.062   4.335   8.579  0.8884  0.2161 -0.0164
 2445SOL    HW219395   3.103   4.476   8.506  2.6461  0.0919  0.6861
 2446SOL     OW19396   0.287   4.600   6.553 -0.1591 -0.1692  0.1582
 2446SOL    HW119397   0.267   4.577   6.648 -2.1025  0.8022  0.0157
 2446SOL    HW219398   0.266   4.697   6.537 -0.0205 -0.3685 -1.2935
 2447SOL     OW19399   9.734   8.786   9.883  0.3656  0.2870  0.1553
 2447SOL    HW119400   9.684   8.864   9.845  1.4458 -0.6689 -3.3847
 2447SOL    HW219401   9.692   8.760   9.971 -2.5376  2.2815 -0.5490
 2448SOL     OW19402   1.060   1.809   2.706 -0.0666 -0.3097 -0.2159
 2448SOL    HW119403   0.978   1.865   2.695 -0.0008 -0.0001  0.7802
 2448SOL    HW219404   1.080   1.798   2.804  0.5327 -1.1817 -0.4315
 2449SOL     OW19405   1.253   4.714   7.605 -0.8791  0.0705 -0.6314
 2449SOL    HW119406   1.190   4.784   7.638  1.1969  1.6459  0.1169
 2449SOL    HW219407   1.274   4.651   7.679  2.1268  2.3719  0.5759
 2450SOL     OW19408   9.554   6.022   4.454  0.4731  0.6831 -0.0283
 2450SOL    HW119409   9.626   6.041   4.521  0.9581 -0.1122 -0.3231
 2450SOL    HW219410   9.465   6.048   4.493  0.7475  0.1889  0.9413
 2451SOL     OW19411   2.525   3.901   0.765  0.0188  0.0303 -0.4212
 2451SOL    HW119412   2.444   3.928   0.817  0.2614 -0.4864  0.2242
 2451SOL    HW219413   2.497   3.846   0.687 -0.4240  1.5169 -1.3415
 2452SOL     OW19414   0.544   5.126   7.070 -0.0394 -0.3511 -0.4885
 2452SOL    HW119415   0.485   5.196   7.112  0.9645  0.5958 -0.6388
 2452SOL    HW219416   0.570   5.059   7.139 -1.1232 -0.6646 -0.3701
 2453SOL     OW19417   1.014   5.742   0.408  0.2151  0.0379  0.1858
 2453SOL    HW119418   1.047   5.825   0.454 -0.2406 -0.0669  0.6982
 2453SOL    HW219419   0.984   5.765   0.316 -0.0844  0.4758  0.3929
 2454SOL     OW19420   5.656   3.007   8.104  0.1499 -0.3981  0.1292
 2454SOL    HW119421   5.740   2.978   8.150  0.6346 -0.1058 -0.5785
 2454SOL    HW219422   5.607   2.926   8.070 -0.4184 -0.6564  1.4932
 2455SOL     OW19423   4.636   7.604   1.793  0.0231 -0.3759  0.5181
 2455SOL    HW119424   4.695   7.677   1.828  0.5796 -0.8521  0.5862
 2455SOL    HW219425   4.593   7.557   1.870  1.8155 -1.8951  0.6201
 2456SOL     OW19426   1.773   3.975   8.011  0.2675  0.0407  0.7331
 2456SOL    HW119427   1.804   4.054   8.063 -0.5103 -0.3734  1.8385
 2456SOL    HW219428   1.688   3.998   7.963  0.9918  0.4268 -0.3696
 2457SOL     OW19429   1.876   0.443   8.197  0.4447 -0.2161 -0.3180
 2457SOL    HW119430   1.961   0.393   8.180  0.3421 -0.6973  0.5514
 2457SOL    HW219431   1.860   0.449   8.296  0.8570  2.2211 -0.3677
 2458SOL     OW19432   1.915   7.450   4.180 -1.2854 -0.3673  0.4940
 2458SOL    HW119433   1.856   7.400   4.244  0.0575  1.1489  3.0278
 2458SOL    HW219434   1.891   7.548   4.182 -1.1903 -0.2887 -1.3223
 2459SOL     OW19435   2.941   1.051   7.724 -0.0426  0.5465  0.0246
 2459SOL    HW119436   2.975   1.005   7.806  0.7501  0.4473 -0.3556
 2459SOL    HW219437   2.934   0.985   7.649  2.2009  1.2272 -0.8514
 2460SOL     OW19438   3.556   5.692   9.738  0.2868  0.0674  1.0089
 2460SOL    HW119439   3.626   5.711   9.808 -1.2746 -1.0332  2.9403
 2460SOL    HW219440   3.525   5.597   9.747 -1.4747  0.5483  0.2217
 2461SOL     OW19441   7.019   2.346   9.179  0.0878  0.3490  0.3094
 2461SOL    HW119442   7.086   2.272   9.190 -1.0094 -0.8300 -0.8281
 2461SOL    HW219443   7.050   2.408   9.107 -0.3273 -0.5227 -0.6232
 2462SOL     OW19444   0.473   0.713   8.653 -0.1686  0.5323 -0.4589
 2462SOL    HW119445   0.486   0.719   8.554  0.1236 -0.4713 -0.4872
 2462SOL    HW219446   0.548   0.660   8.693  0.0416  1.4512  0.3734
 2463SOL     OW19447   4.324   2.367   5.849 -0.1857  0.1968  0.7226
 2463SOL    HW119448   4.415   2.334   5.873 -0.1441  0.1906  0.5501
 2463SOL    HW219449   4.291   2.318   5.768 -1.0238 -1.0023  1.7658
 2464SOL     OW19450   5.857   1.510   3.767  0.1746 -0.2620 -0.7027
 2464SOL    HW119451   5.916   1.526   3.688  1.4664 -2.1190 -0.1470
 2464SOL    HW219452   5.773   1.465   3.738 -0.3295  1.0451 -1.2985
 2465SOL     OW19453   2.551   1.542   6.362  0.1152 -0.0750  0.6996
 2465SOL    HW119454   2.614   1.520   6.288 -0.8508 -0.0876 -0.1339
 2465SOL    HW219455   2.492   1.462   6.380 -0.5758  0.3901  0.5316
 2466SOL     OW19456   5.431   0.613   5.383 -0.0082 -0.1313  0.3997
 2466SOL    HW119457   5.475   0.630   5.471  0.7381  1.5094 -0.2659
 2466SOL    HW219458   5.336   0.587   5.398  0.7745 -2.2812  1.7858
 2467SOL     OW19459   0.646   8.182   1.893  0.3898  0.2544 -0.4420
 2467SOL    HW119460   0.553   8.152   1.874  0.3253 -0.2660  0.6054
 2467SOL    HW219461   0.707   8.151   1.820 -0.2219  0.4216 -1.0253
 2468SOL     OW19462   1.071   6.638   0.270  0.4266  0.5841  0.5654
 2468SOL    HW119463   1.110   6.692   0.344  1.1508 -2.7913  2.7325
 2468SOL    HW219464   0.971   6.642   0.275  0.4782  1.2011  1.1002
 2469SOL     OW19465   6.230   5.234   0.998 -0.0995  0.3389  0.0432
 2469SOL    HW119466   6.287   5.271   1.071 -1.0225  2.0933 -0.1043
 2469SOL    HW219467   6.185   5.308   0.949 -2.4452 -0.9878  0.0945
 2470SOL     OW19468   4.682   0.348   6.299 -0.1979 -0.0566 -0.2990
 2470SOL    HW119469   4.690   0.378   6.394  0.5540  1.7803 -0.9054
 2470SOL    HW219470   4.654   0.252   6.296 -0.4604 -0.0684  1.7641
 2471SOL     OW19471   3.694   6.741   8.343 -0.1467 -0.0096 -0.7079
 2471SOL    HW119472   3.701   6.723   8.441 -1.4459 -0.9976 -0.7696
 2471SOL    HW219473   3.737   6.666   8.292 -1.3240 -0.5734 -0.9050
 2472SOL     OW19474   0.614   3.873   7.759  0.2079 -0.6125  0.0350
 2472SOL    HW119475   0.588   3.784   7.797  1.3312 -0.2664  1.6623
 2472SOL    HW219476   0.638   3.935   7.834 -0.2746  0.9693 -1.1039
 2473SOL     OW19477   2.744   8.336   9.373  0.7561 -0.3223 -0.8919
 2473SOL    HW119478   2.796   8.329   9.458 -0.0019  0.0585 -0.3909
 2473SOL    HW219479   2.792   8.396   9.309  0.6587  0.4886 -0.2181
 2474SOL     OW19480   8.507   1.916   7.952  0.2411 -0.0958  0.2097
 2474SOL    HW119481   8.545   1.877   7.868 -1.9156  0.4641 -1.0752
 2474SOL    HW219482   8.416   1.878   7.968  0.5813 -0.0895  2.2390
 2475SOL     OW19483   1.468   5.349   3.867 -0.1141  0.5088 -0.3047
 2475SOL    HW119484   1.537   5.420   3.848 -1.5932  2.3759  1.0753
 2475SOL    HW219485   1.508   5.279   3.926  0.9670  0.9560 -0.4884
 2476SOL     OW19486   2.931   3.504   9.273  0.2646 -0.1086  0.4825
 2476SOL    HW119487   2.947   3.408   9.295  1.0188 -0.2498 -0.6814
 2476SOL    HW219488   2.953   3.521   9.177 -1.3208  0.8999  0.2748
 2477SOL     OW19489   0.893   7.275   4.657  0.4547 -0.4568 -0.0142
 2477SOL    HW119490   0.988   7.260   4.631  0.1021 -1.2756 -0.8572
 2477SOL    HW219491   0.859   7.196   4.709  0.0178 -0.4913 -0.3478
 2478SOL     OW19492   1.780   6.970   4.167  0.4950  0.0660  0.6247
 2478SOL    HW119493   1.874   6.943   4.146  0.5758 -0.9403  2.1444
 2478SOL    HW219494   1.750   7.041   4.104  1.7541 -0.6757 -0.8364
 2479SOL     OW19495   7.818   3.655   0.914  0.0830 -0.0759  0.2965
 2479SOL    HW119496   7.718   3.656   0.904  0.1765 -0.4100 -0.7086
 2479SOL    HW219497   7.844   3.719   0.987 -0.8222  0.4138  0.2069
 2480SOL     OW19498   2.648   6.301   6.768  0.5783  0.6473 -0.2074
 2480SOL    HW119499   2.587   6.312   6.847  0.9466 -1.1225  0.3288
 2480SOL    HW219500   2.593   6.292   6.685  0.1618  1.2963 -0.0041
 2481SOL     OW19501   2.681   5.971   4.504  0.0684 -0.4040 -0.0880
 2481SOL    HW119502   2.632   6.023   4.434  0.3568  0.4254  0.3228
 2481SOL    HW219503   2.779   5.979   4.489  0.1286 -0.3116  0.3556
 2482SOL     OW19504   1.951   7.734   8.035  0.0854 -0.6753 -0.1068
 2482SOL    HW119505   1.867   7.772   7.996  0.8055  0.0410 -0.9666
 2482SOL    HW219506   1.974   7.783   8.119  1.4815  1.3966 -1.6705
 2483SOL     OW19507   3.566   8.148   6.890  0.6925 -0.4725  0.3223
 2483SOL    HW119508   3.541   8.173   6.983 -0.4408  0.7128 -0.2798
 2483SOL    HW219509   3.561   8.229   6.831  0.6886 -1.3532 -0.9138
 2484SOL     OW19510   9.437   6.971   8.866  0.0284  0.1433  0.3464
 2484SOL    HW119511   9.339   6.952   8.874  0.1191 -0.6069 -0.2653
 2484SOL    HW219512   9.459   7.053   8.919 -0.8558  0.0847  0.8253
 2485SOL     OW19513   3.550   3.178   6.263  0.1077  0.2035 -0.1613
 2485SOL    HW119514   3.542   3.240   6.185 -2.7922 -0.9927 -0.8501
 2485SOL    HW219515   3.602   3.097   6.235 -0.9517 -0.2387 -0.8986
 2486SOL     OW19516   4.142   3.178   6.677 -0.4160  0.3063  0.3130
 2486SOL    HW119517   4.141   3.085   6.640 -0.5223  0.8545 -1.0816
 2486SOL    HW219518   4.231   3.219   6.662 -0.1078  0.1547  1.6579
 2487SOL     OW19519   1.673   8.403   5.231 -0.7503  0.4616 -0.1328
 2487SOL    HW119520   1.766   8.424   5.261 -0.4939 -1.2215  0.3143
 2487SOL    HW219521   1.676   8.355   5.143 -1.1736  0.0675  0.0640
 2488SOL     OW19522   6.252   0.226   2.958  0.4652 -0.2029 -0.6883
 2488SOL    HW119523   6.157   0.196   2.951  0.4704  0.1604 -2.8016
 2488SOL    HW219524   6.312   0.150   2.933  0.6281  0.2627 -1.7405
 2489SOL     OW19525   3.652   8.687   1.098  0.2099 -0.3501  0.2484
 2489SOL    HW119526   3.721   8.719   1.034  1.0921 -0.7334  0.9990
 2489SOL    HW219527   3.611   8.603   1.063  0.9637 -0.7727  0.3662
 2490SOL     OW19528   4.447   3.456   5.770 -0.7099 -0.2390 -0.2769
 2490SOL    HW119529   4.423   3.473   5.674 -0.8403 -0.8397 -0.3516
 2490SOL    HW219530   4.538   3.416   5.775 -1.5144 -2.1112 -0.2921
 2491SOL     OW19531   2.403   9.118   4.877 -0.2505 -0.0264 -0.4889
 2491SOL    HW119532   2.327   9.173   4.911  0.8923  0.1445  1.9108
 2491SOL    HW219533   2.486   9.174   4.873  0.0993 -0.6076 -1.6087
 2492SOL     OW19534   7.000   5.117   0.143 -0.1026  0.5425  0.0088
 2492SOL    HW119535   6.957   5.139   0.230 -0.4384  0.2544 -0.0862
 2492SOL    HW219536   6.980   5.023   0.118 -0.0025  0.6220 -0.3801
 2493SOL     OW19537   2.303   2.975   3.547 -0.5117 -0.1883  0.2322
 2493SOL    HW119538   2.274   3.068   3.568  0.6934  0.1193  0.5219
 2493SOL    HW219539   2.403   2.969   3.547 -0.5539 -1.1327 -1.3046
 2494SOL     OW19540   3.660   1.441   3.114  0.0160 -0.0598 -0.3311
 2494SOL    HW119541   3.677   1.395   3.026  0.2813  1.2942 -1.0064
 2494SOL    HW219542   3.582   1.398   3.159 -0.0732 -0.8239 -1.1835
 2495SOL     OW19543   8.695   4.896   9.183 -0.2937  0.1963 -0.1434
 2495SOL    HW119544   8.611   4.876   9.133 -0.0090 -0.8879 -0.2064
 2495SOL    HW219545   8.674   4.957   9.259 -0.9822  0.6432 -0.6868
 2496SOL     OW19546   0.790   5.476   7.119 -0.0660  0.2958 -0.1463
 2496SOL    HW119547   0.808   5.386   7.158  0.2944  0.1107 -0.7331
 2496SOL    HW219548   0.821   5.547   7.182  0.5414 -0.0046 -0.1026
 2497SOL     OW19549   9.202   1.614   4.393 -0.1620  0.3065 -0.4159
 2497SOL    HW119550   9.133   1.548   4.426 -3.1464  3.4706 -0.0956
 2497SOL    HW219551   9.243   1.580   4.309 -1.5097 -2.0549 -0.1688
 2498SOL     OW19552   0.850   4.389   8.237  0.2589  0.4491 -0.1266
 2498SOL    HW119553   0.921   4.456   8.262  0.1436  1.1041 -1.5311
 2498SOL    HW219554   0.886   4.297   8.250  0.1813  0.7396  2.5387
 2499SOL     OW19555   7.713   2.269   3.055  0.7039  0.3692  0.3626
 2499SOL    HW119556   7.651   2.311   2.990  0.8724 -0.7808 -0.5625
 2499SOL    HW219557   7.677   2.179   3.082  0.6530  0.8059  1.8323
 2500SOL     OW19558   0.247   6.659   4.173  0.2898  0.0136  0.0041
 2500SOL    HW119559   0.227   6.755   4.156 -1.9205 -0.7035 -1.6852
 2500SOL    HW219560   0.210   6.632   4.263 -0.0515  0.4580 -0.0042
 2501SOL     OW19561   2.292   7.744   2.640 -0.4267 -0.4302 -0.1338
 2501SOL    HW119562   2.308   7.841   2.656  0.0654 -0.4208 -0.6564
 2501SOL    HW219563   2.302   7.724   2.542  2.2322 -1.5036  0.3185
 2502SOL     OW19564   9.822   2.901   7.799  0.1788  0.9693  0.3367
 2502SOL    HW119565   9.891   2.867   7.862  0.7067  1.2457 -0.0835
 2502SOL    HW219566   9.811   3.000   7.811 -1.5779  0.6239  1.7748
 2503SOL     OW19567   0.365   0.950   4.347  0.5907 -0.2593 -0.5987
 2503SOL    HW119568   0.413   1.018   4.290  2.0147 -0.5786  0.2006
 2503SOL    HW219569   0.305   0.997   4.412  0.2795  0.1641 -1.1835
 2504SOL     OW19570   1.938   1.232   7.551 -0.2271  0.7008  0.0472
 2504SOL    HW119571   2.007   1.221   7.623 -0.4180 -4.4960 -0.3637
 2504SOL    HW219572   1.978   1.207   7.463 -1.7009  0.9059 -0.6957
 2505SOL     OW19573   9.206   6.459   8.098  0.1681  0.2751  0.3360
 2505SOL    HW119574   9.176   6.483   8.190  0.7757  1.8094  0.1581
 2505SOL    HW219575   9.177   6.531   8.034  0.9667 -0.0771 -0.4311
 2506SOL     OW19576   7.165   0.070   5.572  0.8234  0.5257 -0.7656
 2506SOL    HW119577   7.132   0.162   5.591 -2.1328 -0.0473 -2.7233
 2506SOL    HW219578   7.113   0.004   5.626  2.4141 -0.0743  0.0701
 2507SOL     OW19579   8.001   1.255   8.164 -0.2224  0.2679 -0.3002
 2507SOL    HW119580   7.993   1.156   8.159 -0.4342  0.2728 -0.1066
 2507SOL    HW219581   7.927   1.297   8.112  0.5501  0.3279 -1.3515
 2508SOL     OW19582   9.794   3.186   9.911 -0.4046  0.4890  0.1155
 2508SOL    HW119583   9.706   3.229   9.931 -0.7440  0.1013 -0.5252
 2508SOL    HW219584   9.830   3.145   9.994 -2.7114 -2.7837 -0.4167
 2509SOL     OW19585   0.301   1.113   8.310  0.4457  0.1711  0.4502
 2509SOL    HW119586   0.277   1.156   8.223 -1.3664  0.2849  0.9929
 2509SOL    HW219587   0.320   1.016   8.295 -2.9268 -0.5398  0.3419
 2510SOL     OW19588   0.745   0.254   3.179 -0.1165  0.2268 -0.1081
 2510SOL    HW119589   0.728   0.167   3.131  0.8859 -0.0128 -0.0301
 2510SOL    HW219590   0.660   0.285   3.221 -0.7169 -0.2226 -0.9505
 2511SOL     OW19591   7.974   5.204   7.252 -0.2397 -0.9998  0.3007
 2511SOL    HW119592   7.912   5.227   7.177  0.8227 -1.5372 -0.7512
 2511SOL    HW219593   8.035   5.130   7.224  0.3630 -1.0080  1.5957
 2512SOL     OW19594   2.581   0.204   1.485  0.6474 -0.6336 -0.5653
 2512SOL    HW119595   2.614   0.264   1.558  1.2905  0.7344 -1.9549
 2512SOL    HW219596   2.481   0.213   1.478  0.5704 -0.8336  0.1811
 2513SOL     OW19597   0.412   6.170   4.954 -0.5211  0.2700  0.5754
 2513SOL    HW119598   0.372   6.078   4.959  0.5403 -0.2167  0.1559
 2513SOL    HW219599   0.441   6.189   4.860 -2.2057  1.6741  0.2960
 2514SOL     OW19600   4.011   5.520   9.963 -0.2693 -0.2126 -0.0166
 2514SOL    HW119601   4.011   5.580   9.883 -0.6972 -0.7031 -0.3839
 2514SOL    HW219602   4.062   5.564  10.037  2.1839 -0.7718 -1.3087
 2515SOL     OW19603   2.599   0.187   2.604  0.2301 -0.0894  0.0420
 2515SOL    HW119604   2.682   0.195   2.658 -0.2717  0.1562  0.7847
 2515SOL    HW219605   2.607   0.245   2.522  0.8969 -0.2908 -0.0401
 2516SOL     OW19606   6.925   9.048   6.722  0.2152 -0.2916  0.0895
 2516SOL    HW119607   6.990   8.980   6.688 -1.0957 -0.8902 -1.2940
 2516SOL    HW219608   6.968   9.138   6.723  1.4738 -0.8880  0.4671
 2517SOL     OW19609   2.705   1.164   8.203 -0.0033 -0.1597  0.4328
 2517SOL    HW119610   2.657   1.236   8.252 -0.1972 -0.4214  0.6295
 2517SOL    HW219611   2.674   1.075   8.236  0.6814 -0.3296  0.6199
 2518SOL     OW19612   6.846   3.630   8.788 -0.5893 -0.2130  0.2464
 2518SOL    HW119613   6.767   3.574   8.809 -0.8340  1.1715  3.1591
 2518SOL    HW219614   6.923   3.571   8.762 -2.5088 -1.5546 -2.6755
 2519SOL     OW19615   4.375   8.304   3.284  0.0474  0.4556  0.1679
 2519SOL    HW119616   4.365   8.315   3.382  0.7349 -0.8123  0.3915
 2519SOL    HW219617   4.465   8.337   3.255  0.4665 -0.6249  0.2131
 2520SOL     OW19618   8.563   1.783   0.230 -0.4330 -0.4823 -0.1176
 2520SOL    HW119619   8.522   1.839   0.158 -0.0885  0.4281  0.3878
 2520SOL    HW219620   8.494   1.722   0.268 -0.6617 -0.8247 -1.0840
 2521SOL     OW19621   9.349   1.245   1.536 -0.4832  0.1832  0.6739
 2521SOL    HW119622   9.266   1.192   1.517  0.2286 -0.6594 -0.1776
 2521SOL    HW219623   9.409   1.192   1.596 -0.6982  0.9160  1.5363
 2522SOL     OW19624   1.924   0.616   9.064  0.5316  0.2222 -0.4806
 2522SOL    HW119625   1.968   0.652   8.982 -0.0740  0.7911 -0.5581
 2522SOL    HW219626   1.993   0.574   9.123  1.1757  1.0723 -0.6186
 2523SOL     OW19627   5.305   6.967   2.728 -0.0172  0.4977 -0.5238
 2523SOL    HW119628   5.254   6.991   2.646 -0.7019  1.7898  0.2476
 2523SOL    HW219629   5.242   6.927   2.796  0.0676  1.6808  0.2623
 2524SOL     OW19630   1.870   6.951   9.073 -0.0293 -0.0448 -0.6140
 2524SOL    HW119631   1.843   7.027   9.131  0.9269 -0.8964  0.9664
 2524SOL    HW219632   1.789   6.913   9.028 -0.6945  0.9653 -0.2758
 2525SOL     OW19633   0.629   9.123   8.818  0.3705  0.3921 -0.2974
 2525SOL    HW119634   0.668   9.042   8.775  1.8839  0.6178  0.6230
 2525SOL    HW219635   0.564   9.095   8.889  1.1043 -0.0265  0.2163
 2526SOL     OW19636   4.544   5.953   7.215  0.2289  0.3501 -0.0715
 2526SOL    HW119637   4.513   5.882   7.277  0.3504  0.7970  0.5024
 2526SOL    HW219638   4.608   6.013   7.262  0.3304  0.6873 -0.6296
 2527SOL     OW19639   1.506   1.159   0.020 -0.2656 -0.0421  0.7516
 2527SOL    HW119640   1.594   1.133  -0.019  0.7138  0.5941  2.4572
 2527SOL    HW219641   1.436   1.160  -0.051  1.1434 -0.3719 -0.6531
 2528SOL     OW19642   1.263   3.959   0.780  0.4486  0.4281 -0.4468
 2528SOL    HW119643   1.343   3.910   0.815 -0.1370  1.3561  2.2504
 2528SOL    HW219644   1.198   3.893   0.742  0.2771 -0.7906  1.8982
 2529SOL     OW19645   2.016   2.663   2.435  0.0292  0.0351 -0.2648
 2529SOL    HW119646   1.976   2.734   2.493  0.2081 -1.6074  1.9316
 2529SOL    HW219647   1.991   2.573   2.470  0.3819 -1.0265 -2.6037
 2530SOL     OW19648   2.302   3.699   8.955  0.4536  0.5741  0.7398
 2530SOL    HW119649   2.216   3.683   9.003  0.8834  1.0996  1.7086
 2530SOL    HW219650   2.377   3.660   9.007  0.5937 -1.8495 -1.2122
 2531SOL     OW19651   8.430   2.613   7.838 -0.1306 -0.2048 -0.3464
 2531SOL    HW119652   8.434   2.710   7.815 -0.9229  0.2089  1.2063
 2531SOL    HW219653   8.338   2.578   7.818  0.2463 -0.7366 -1.2141
 2532SOL     OW19654   0.366   1.626   6.257 -0.5018  0.8491  0.3972
 2532SOL    HW119655   0.308   1.549   6.284 -0.0075  0.4441  0.3269
 2532SOL    HW219656   0.399   1.673   6.339 -1.1229  1.2288  0.4312
 2533SOL     OW19657   0.997   2.324   4.408 -0.0521  0.7678  0.1831
 2533SOL    HW119658   1.045   2.393   4.354 -1.2366  1.6855  0.2865
 2533SOL    HW219659   0.901   2.351   4.419 -0.3373 -0.5046  0.8857
 2534SOL     OW19660   7.766   4.222   0.132  0.3795  0.5220 -0.9886
 2534SOL    HW119661   7.682   4.169   0.139  0.1350  0.7418 -2.1744
 2534SOL    HW219662   7.744   4.318   0.115  0.8481  0.7820 -0.1607
 2535SOL     OW19663   5.463   8.007   4.564  0.2876  0.3883 -0.4577
 2535SOL    HW119664   5.495   7.913   4.580  2.6708  1.6116  2.5702
 2535SOL    HW219665   5.375   8.005   4.517  1.1697 -3.3192 -2.1248
 2536SOL     OW19666   0.336   6.640  10.000  0.3307  0.3577  0.3939
 2536SOL    HW119667   0.409   6.609   9.938 -1.4234 -1.4802 -0.8094
 2536SOL    HW219668   0.256   6.666   9.946 -0.1804  1.6478  1.7507
 2537SOL     OW19669   1.483   6.984   0.202 -0.0620 -0.3848  0.0128
 2537SOL    HW119670   1.452   7.015   0.112  2.3574  0.6467 -0.5068
 2537SOL    HW219671   1.493   6.884   0.201 -2.0284 -0.5934 -0.2032
 2538SOL     OW19672   0.464   1.921   5.182  0.2788  0.0996 -0.3993
 2538SOL    HW119673   0.460   2.014   5.219  1.2084  0.4105 -1.0342
 2538SOL    HW219674   0.519   1.863   5.243 -1.8491 -0.5215  0.9575
 2539SOL     OW19675   1.746   8.034   6.190  0.1390  0.4036 -0.1346
 2539SOL    HW119676   1.751   7.939   6.219 -1.8630 -0.2890 -1.9352
 2539SOL    HW219677   1.834   8.079   6.209  1.0569 -1.7369  0.8634
 2540SOL     OW19678   9.885   1.859   6.537 -0.5311 -0.6967  0.5870
 2540SOL    HW119679   9.859   1.796   6.464  1.1737 -0.6256 -0.1059
 2540SOL    HW219680   9.808   1.871   6.600 -2.7307  0.8168 -2.2896
 2541SOL     OW19681   4.229   4.877   5.865 -0.0152  0.3590  0.4103
 2541SOL    HW119682   4.172   4.941   5.917 -0.7378 -2.1699  2.8725
 2541SOL    HW219683   4.323   4.884   5.896 -0.2818 -0.4833  1.4435
 2542SOL     OW19684   1.289   5.024   6.987 -0.3731 -0.2589  0.1577
 2542SOL    HW119685   1.288   4.927   6.962  0.0337 -0.0718 -0.6032
 2542SOL    HW219686   1.366   5.069   6.941  1.2609 -0.1923  2.8249
 2543SOL     OW19687   7.251   6.383   5.316  0.5920 -0.2465  0.2338
 2543SOL    HW119688   7.238   6.285   5.327  0.0243 -0.1552  0.3978
 2543SOL    HW219689   7.198   6.415   5.238 -0.3408  0.1623  1.0170
 2544SOL     OW19690   8.086   3.438   9.484 -0.1068  0.1982 -0.5555
 2544SOL    HW119691   8.106   3.501   9.410 -2.0521 -0.7155 -1.8872
 2544SOL    HW219692   8.118   3.346   9.459 -1.7136 -0.3247 -0.7321
 2545SOL     OW19693   6.654   5.402   2.239 -0.0927  0.0697 -0.1203
 2545SOL    HW119694   6.648   5.489   2.191 -0.4679 -1.7492 -3.5629
 2545SOL    HW219695   6.731   5.349   2.202 -0.4094 -1.4296  1.2873
 2546SOL     OW19696   6.525   0.958   3.280 -0.0923 -0.2824  0.6004
 2546SOL    HW119697   6.594   1.028   3.259 -0.1467  0.1426  1.7890
 2546SOL    HW219698   6.548   0.914   3.366  0.4313 -2.3762 -0.5752
 2547SOL     OW19699   9.833   0.424   9.667  0.0589  0.1653 -0.1231
 2547SOL    HW119700   9.736   0.406   9.650  0.0556  0.8160 -0.8348
 2547SOL    HW219701   9.885   0.340   9.653 -0.1264  0.3503 -2.0435
 2548SOL     OW19702   8.669   4.449   2.105  0.2884  0.5549  0.1363
 2548SOL    HW119703   8.634   4.528   2.055  0.4397  0.6043  0.1073
 2548SOL    HW219704   8.697   4.478   2.197 -0.6358  0.3316  0.4960
 2549SOL     OW19705   6.077   0.730   1.296 -0.1046  0.5746  0.1368
 2549SOL    HW119706   5.979   0.749   1.303 -0.2957 -0.4705  0.3647
 2549SOL    HW219707   6.120   0.800   1.239 -1.2663  0.1408 -1.3282
 2550SOL     OW19708   4.158   3.757   9.465  0.0965 -0.1414 -0.3629
 2550SOL    HW119709   4.173   3.781   9.561  0.5758  1.6529 -0.8833
 2550SOL    HW219710   4.236   3.786   9.410 -1.1075  0.7710 -1.6243
 2551SOL     OW19711   7.851   7.663   8.085 -0.1361  0.3263  0.3447
 2551SOL    HW119712   7.754   7.681   8.071  0.0800  0.9081 -0.4137
 2551SOL    HW219713   7.863   7.569   8.116 -1.0368  0.5902  1.5520
 2552SOL     OW19714   4.160   8.931   1.671  0.2582  0.2611 -0.4334
 2552SOL    HW119715   4.110   8.990   1.607  1.1223  1.1409 -0.3086
 2552SOL    HW219716   4.164   8.975   1.761 -0.9395 -0.9708  0.2353
 2553SOL     OW19717   8.283   9.690   8.742  0.3203  0.3351 -0.0099
 2553SOL    HW119718   8.314   9.783   8.720  2.2745 -0.0417  1.0107
 2553SOL    HW219719   8.289   9.675   8.841 -2.0837 -0.1675  0.0867
 2554SOL     OW19720   3.720   0.140   5.773  0.1294  0.1891  0.4984
 2554SOL    HW119721   3.818   0.122   5.766  0.5162  2.1401  0.4265
 2554SOL    HW219722   3.694   0.206   5.702 -1.2318 -0.3255  0.5245
 2555SOL     OW19723   2.066   4.701   4.617 -0.7022  0.3427 -0.4972
 2555SOL    HW119724   1.978   4.685   4.572 -0.5348  1.0486 -1.0731
 2555SOL    HW219725   2.089   4.798   4.614  0.7566 -0.0069 -1.5851
 2556SOL     OW19726   6.248   4.605   0.683 -0.3902 -0.2274  0.3598
 2556SOL    HW119727   6.270   4.676   0.616 -1.4400 -0.3653 -0.1550
 2556SOL    HW219728   6.191   4.645   0.755  0.4148 -0.1692  0.9619
 2557SOL     OW19729   0.958   7.457   4.345 -0.0521  0.2197 -0.3799
 2557SOL    HW119730   0.949   7.473   4.247 -0.1783  3.0491  0.0730
 2557SOL    HW219731   0.872   7.423   4.382 -0.0045 -0.8563 -1.2068
 2558SOL     OW19732   1.063   5.928   2.547  0.3202 -0.1453 -0.2021
 2558SOL    HW119733   1.127   5.930   2.624  1.1978  0.2901 -0.9357
 2558SOL    HW219734   1.005   5.847   2.554  0.2835 -0.0203  1.0081
 2559SOL     OW19735   6.471   5.396   9.600 -0.7093 -0.2670 -0.2027
 2559SOL    HW119736   6.480   5.305   9.561  0.1434  0.2526 -1.2503
 2559SOL    HW219737   6.385   5.437   9.571 -0.3558 -0.1177 -1.0479
 2560SOL     OW19738   6.845   6.569   4.945 -0.2461 -0.0254 -0.3263
 2560SOL    HW119739   6.842   6.514   5.028 -0.5866  0.5333  0.0285
 2560SOL    HW219740   6.832   6.665   4.968  0.3538  0.2048 -0.9468
 2561SOL     OW19741   8.752   5.523   2.504  0.6090  0.2787  0.3848
 2561SOL    HW119742   8.766   5.484   2.413 -3.3339 -1.8246  0.5636
 2561SOL    HW219743   8.788   5.460   2.573 -1.4034 -0.8077  0.4714
 2562SOL     OW19744   0.044   4.279   9.344  0.5108  0.4499  0.7279
 2562SOL    HW119745  -0.040   4.242   9.304  0.5567  0.8924  0.2214
 2562SOL    HW219746   0.123   4.242   9.293  0.6483 -0.3470  1.5058
 2563SOL     OW19747   2.594   3.921   3.670  0.1884  0.0009  0.6691
 2563SOL    HW119748   2.522   3.925   3.739  0.4667  2.4378  0.8614
 2563SOL    HW219749   2.564   3.971   3.588  0.8306 -0.7898 -0.0573
 2564SOL     OW19750   2.311   5.671   6.065  0.1489 -0.7463 -0.0118
 2564SOL    HW119751   2.268   5.585   6.038 -0.3942 -0.3378 -0.4953
 2564SOL    HW219752   2.292   5.740   5.994  2.4904 -0.8247 -0.7549
 2565SOL     OW19753   0.880   2.153   6.675  0.6201 -0.2242 -0.1714
 2565SOL    HW119754   0.958   2.142   6.737  0.3876 -1.1223 -0.0314
 2565SOL    HW219755   0.798   2.113   6.717  0.7029 -1.8796 -1.5398
 2566SOL     OW19756   0.583   5.047   3.251 -0.0475 -0.2059 -0.0732
 2566SOL    HW119757   0.674   5.024   3.284  0.1154 -1.3452 -1.2395
 2566SOL    HW219758   0.518   4.979   3.285 -0.5035  0.7674  0.9887
 2567SOL     OW19759   2.255   2.965   5.643 -0.0020 -0.0794  0.5997
 2567SOL    HW119760   2.218   3.045   5.690  0.6491  0.1277  0.7685
 2567SOL    HW219761   2.352   2.956   5.665  0.6296  0.7945 -1.7938
 2568SOL     OW19762   5.550   9.456   6.548  0.0251 -0.4013 -0.1215
 2568SOL    HW119763   5.603   9.389   6.495  1.9139  0.3661  0.7599
 2568SOL    HW219764   5.554   9.432   6.645 -0.0575  0.4695  0.0977
 2569SOL     OW19765   6.420   9.204   4.920  1.0533 -0.5722  0.2026
 2569SOL    HW119766   6.479   9.270   4.967  3.0902 -1.6895 -0.7651
 2569SOL    HW219767   6.379   9.248   4.840  1.0987 -0.0071  0.4852
 2570SOL     OW19768   2.720   8.474   6.541 -0.1146 -0.2447  0.6934
 2570SOL    HW119769   2.638   8.417   6.533 -0.8619  0.8289  0.5287
 2570SOL    HW219770   2.725   8.537   6.464  0.8921 -0.3312  0.6845
 2571SOL     OW19771   8.841   5.718   6.526  0.2084  0.4822 -0.4695
 2571SOL    HW119772   8.776   5.760   6.463  0.7130  0.1874 -1.1959
 2571SOL    HW219773   8.933   5.721   6.486  0.1176 -2.1888 -1.0241
 2572SOL     OW19774   9.040   8.051   5.701 -0.7497 -0.2093 -0.4299
 2572SOL    HW119775   9.019   7.955   5.680  0.0796 -0.1025 -1.8207
 2572SOL    HW219776   8.972   8.087   5.765 -1.2337 -1.6414 -0.1196
 2573SOL     OW19777   2.343   2.809   4.115  0.1506 -0.4754 -0.0247
 2573SOL    HW119778   2.320   2.712   4.117  1.0960 -0.6895  0.6310
 2573SOL    HW219779   2.398   2.828   4.033 -0.2849 -0.4406 -0.3066
 2574SOL     OW19780   0.004   1.938   2.264 -0.6982 -0.4898 -0.1259
 2574SOL    HW119781   0.055   1.926   2.350  0.5775 -0.5702 -0.8798
 2574SOL    HW219782  -0.082   1.985   2.283 -0.4443 -0.5396  1.2075
 2575SOL     OW19783   5.415   8.821   5.418 -0.5853  0.0731 -0.3791
 2575SOL    HW119784   5.316   8.820   5.432 -0.9147 -0.6549 -2.5371
 2575SOL    HW219785   5.446   8.914   5.398 -1.1070  0.0292 -1.4165
 2576SOL     OW19786   6.506   3.509   1.490 -0.0108 -0.3195  0.6448
 2576SOL    HW119787   6.514   3.533   1.587  0.1563  0.4107  0.4508
 2576SOL    HW219788   6.593   3.526   1.444 -0.3355  0.1164  0.1949
 2577SOL     OW19789   3.972   1.382   6.619  0.4381  0.4376  0.1025
 2577SOL    HW119790   4.001   1.463   6.567  1.8001 -0.1242 -0.0332
 2577SOL    HW219791   3.929   1.411   6.704  1.7458  1.3118  0.4868
 2578SOL     OW19792   4.540   8.731   1.331  0.4446 -0.2940  0.3213
 2578SOL    HW119793   4.466   8.772   1.384 -1.6999 -0.2351 -2.5599
 2578SOL    HW219794   4.609   8.800   1.309 -1.2136  0.9232 -1.2288
 2579SOL     OW19795   0.409   7.411   3.165 -0.1908 -0.8645  0.1253
 2579SOL    HW119796   0.350   7.445   3.238 -0.5039  2.2426 -1.5026
 2579SOL    HW219797   0.486   7.473   3.152  1.0410 -2.5409 -0.7479
 2580SOL     OW19798   8.040   3.932   0.086  0.0797 -0.0075 -0.5913
 2580SOL    HW119799   8.074   3.991   0.013 -1.3461  1.7765  0.1249
 2580SOL    HW219800   8.055   3.977   0.174 -0.1073 -1.1904  0.0487
 2581SOL     OW19801   1.262   3.745   6.616  0.2958  0.0976 -0.1129
 2581SOL    HW119802   1.314   3.767   6.534  0.7608  0.0847  0.1804
 2581SOL    HW219803   1.304   3.788   6.696  0.0671 -0.2109  0.1783
 2582SOL     OW19804   4.872   5.375   3.885  0.3696 -0.3592 -0.0196
 2582SOL    HW119805   4.785   5.405   3.845 -0.5842 -1.5303  1.1379
 2582SOL    HW219806   4.935   5.350   3.812 -0.2366  0.5426 -0.8746
 2583SOL     OW19807   9.228   2.234   1.471 -0.1084  0.1226 -0.5722
 2583SOL    HW119808   9.244   2.250   1.373 -0.7687  0.9419 -0.5488
 2583SOL    HW219809   9.307   2.186   1.509  0.6172  0.7168 -1.2873
 2584SOL     OW19810   7.779   0.733   2.572  0.1690  0.3678  0.0977
 2584SOL    HW119811   7.689   0.763   2.543  0.4203  0.3142 -0.7499
 2584SOL    HW219812   7.771   0.678   2.656 -0.6656 -0.2971 -0.4107
 2585SOL     OW19813   2.599   6.685   9.107  0.0923 -0.4469  0.5472
 2585SOL    HW119814   2.666   6.730   9.047  0.7557 -1.0839  0.7985
 2585SOL    HW219815   2.509   6.689   9.066  0.8436 -2.4921 -1.3864
 2586SOL     OW19816   7.541   6.978   4.414 -0.1439  0.4013 -0.1550
 2586SOL    HW119817   7.590   6.991   4.500 -1.8903  3.0057  0.5081
 2586SOL    HW219818   7.605   6.949   4.343  1.4487 -1.0751  1.8143
 2587SOL     OW19819   8.029   6.820   5.452 -0.0779 -0.4917 -0.1678
 2587SOL    HW119820   8.048   6.793   5.546  1.1790  0.2977 -0.1914
 2587SOL    HW219821   7.930   6.817   5.436 -0.3439 -0.0699  1.3390
 2588SOL     OW19822   4.062   7.441   0.667 -0.2674  0.0117  0.2324
 2588SOL    HW119823   3.972   7.452   0.626 -0.8243 -2.4453  0.7090
 2588SOL    HW219824   4.132   7.438   0.596 -0.8039 -0.4328 -0.2726
 2589SOL     OW19825   2.298   4.946   3.298  0.2924 -0.3035  0.0124
 2589SOL    HW119826   2.254   5.025   3.342  0.5059  0.2444 -0.7492
 2589SOL    HW219827   2.294   4.956   3.199  0.8456 -0.9630 -0.0827
 2590SOL     OW19828   7.629   1.687   5.867  0.2500 -0.8092  0.1517
 2590SOL    HW119829   7.672   1.774   5.845 -1.5330 -0.1670 -0.9129
 2590SOL    HW219830   7.698   1.615   5.871  1.4842  0.2994 -0.9093
 2591SOL     OW19831   6.389   0.776   4.310  1.0010  0.1066 -0.2872
 2591SOL    HW119832   6.466   0.756   4.249  1.3339 -0.0187  0.1737
 2591SOL    HW219833   6.336   0.692   4.325  2.1258 -0.3543  1.2650
 2592SOL     OW19834   2.731   3.331   1.751 -0.1199  0.6425  0.9048
 2592SOL    HW119835   2.767   3.387   1.677  2.4709 -1.0118  0.8057
 2592SOL    HW219836   2.803   3.267   1.782 -2.9946 -2.8491  0.7372
 2593SOL     OW19837   6.553   3.301   2.250  0.1292 -0.1278  0.0456
 2593SOL    HW119838   6.547   3.341   2.342 -0.9742 -0.8746  0.3044
 2593SOL    HW219839   6.466   3.258   2.226  1.0581 -1.7571 -0.5146
 2594SOL     OW19840   9.548   3.275   0.969 -0.0473 -0.2134  0.3451
 2594SOL    HW119841   9.544   3.303   1.065 -0.6562 -0.8399  0.5011
 2594SOL    HW219842   9.588   3.349   0.915 -0.5200  0.4893  0.9469
 2595SOL     OW19843   8.387   2.805   2.896 -0.0345  0.3316  0.1938
 2595SOL    HW119844   8.301   2.759   2.874  0.1351 -0.7524  1.7139
 2595SOL    HW219845   8.463   2.752   2.861  0.0404  1.1155 -0.8507
 2596SOL     OW19846   2.449   7.250   0.627  0.0498  0.2420  0.4718
 2596SOL    HW119847   2.428   7.198   0.710  0.5615  0.9970  1.0894
 2596SOL    HW219848   2.484   7.189   0.557 -1.3877 -0.5623  0.4556
 2597SOL     OW19849   2.180   5.354   8.101  0.3913  0.1814  0.0794
 2597SOL    HW119850   2.126   5.403   8.170  0.7020  0.5071  0.0935
 2597SOL    HW219851   2.123   5.283   8.058 -0.0988  0.6358 -0.0263
 2598SOL     OW19852   8.927   7.526   1.845 -0.0256  0.6251  0.5652
 2598SOL    HW119853   8.991   7.500   1.773  0.1784  2.2831  0.1284
 2598SOL    HW219854   8.835   7.532   1.807 -0.0859  0.4514  0.6829
 2599SOL     OW19855   5.601   4.239   2.119  0.1692 -0.0578  0.6581
 2599SOL    HW119856   5.696   4.255   2.147  1.1281 -0.2372 -2.3388
 2599SOL    HW219857   5.586   4.141   2.107  0.2131  0.1310 -0.9364
 2600SOL     OW19858   0.039   2.875   5.064 -0.0192  0.0193 -0.1796
 2600SOL    HW119859   0.109   2.803   5.056 -0.2448 -0.4442  1.8154
 2600SOL    HW219860   0.064   2.937   5.138 -1.8330 -0.2682  0.6824
 2601SOL     OW19861   7.482   1.565   5.678 -0.1304 -0.2161 -0.5912
 2601SOL    HW119862   7.528   1.624   5.744  0.9401 -1.5358 -0.1422
 2601SOL    HW219863   7.473   1.614   5.591  0.1556  0.8394 -0.0432
 2602SOL     OW19864   9.195   1.973   2.092  1.0954  0.3448  0.2796
 2602SOL    HW119865   9.185   1.992   1.994  0.9461  0.1898  0.2643
 2602SOL    HW219866   9.121   1.913   2.122  0.8868  0.7512  0.5833
 2603SOL     OW19867   2.983   8.069   1.423 -0.3806 -0.4243 -0.0276
 2603SOL    HW119868   2.906   8.027   1.470  0.9555 -1.9687  0.8025
 2603SOL    HW219869   3.005   8.156   1.467 -0.2080 -1.0625  1.1761
 2604SOL     OW19870   6.394   3.154   0.268 -0.2466  0.3938  0.1903
 2604SOL    HW119871   6.435   3.099   0.341 -0.1680 -0.5632 -0.5600
 2604SOL    HW219872   6.320   3.101   0.225 -0.4869  1.0665 -0.2265
 2605SOL     OW19873   2.806   2.073   6.200 -0.0937 -0.1938  0.0908
 2605SOL    HW119874   2.783   2.153   6.145  2.9633  0.2722 -0.6299
 2605SOL    HW219875   2.724   2.019   6.216 -1.6840  1.4970 -1.9614
 2606SOL     OW19876   8.508   2.815   9.142 -0.0913  0.2980  0.2783
 2606SOL    HW119877   8.464   2.846   9.226  0.7285 -1.5754  1.4207
 2606SOL    HW219878   8.463   2.732   9.108  0.6186  0.1111 -0.2267
 2607SOL     OW19879   9.589   3.103   6.903 -1.0270 -0.3681 -0.1017
 2607SOL    HW119880   9.563   3.125   6.997 -0.2970 -0.0036  0.0102
 2607SOL    HW219881   9.677   3.143   6.881 -0.1296 -2.3153 -0.2072
 2608SOL     OW19882   7.042   5.967   6.522 -0.6408  0.9675  0.1570
 2608SOL    HW119883   7.090   6.005   6.443  1.9254  0.2899  1.3370
 2608SOL    HW219884   6.980   6.036   6.560 -2.0771  1.2134 -2.5499
 2609SOL     OW19885   1.485   1.577   7.887 -0.7211  0.1025  0.3708
 2609SOL    HW119886   1.402   1.588   7.943 -1.5269  1.8545 -1.1031
 2609SOL    HW219887   1.464   1.521   7.807  0.0648 -1.1695  1.0320
 2610SOL     OW19888   3.905   9.479   6.437 -0.4475  0.2948 -0.0585
 2610SOL    HW119889   3.888   9.435   6.526  0.2359 -1.2724 -0.6754
 2610SOL    HW219890   3.819   9.487   6.387 -0.8375  1.1943  0.7530
 2611SOL     OW19891   2.560   5.745   8.507 -0.0637  0.1649 -0.0772
 2611SOL    HW119892   2.462   5.766   8.506 -0.3693 -1.1987 -0.6488
 2611SOL    HW219893   2.580   5.683   8.583  0.2020 -0.2426 -0.4799
 2612SOL     OW19894   2.870   0.488   8.165 -0.6971 -0.2413  0.2094
 2612SOL    HW119895   2.925   0.508   8.246 -0.0663  4.6812 -1.2713
 2612SOL    HW219896   2.782   0.450   8.193 -0.5205  1.4647  3.2474
 2613SOL     OW19897   6.756   3.533   1.397 -0.3026 -0.3695  0.2852
 2613SOL    HW119898   6.834   3.596   1.402  0.2621 -1.1074  0.8069
 2613SOL    HW219899   6.786   3.440   1.416 -1.5740 -0.4466  2.0985
 2614SOL     OW19900   3.624   8.710   7.414  0.6859  0.7036  0.2894
 2614SOL    HW119901   3.526   8.711   7.392  0.4435  2.2985  1.4277
 2614SOL    HW219902   3.677   8.716   7.329 -0.1412 -2.8913 -0.5677
 2615SOL     OW19903   0.624   1.474   4.215 -0.3958 -0.0216 -0.2449
 2615SOL    HW119904   0.588   1.418   4.141 -0.8857  0.3730 -0.3059
 2615SOL    HW219905   0.719   1.449   4.232 -0.7150 -1.1208 -0.0293
 2616SOL     OW19906   1.365   6.560   0.619  0.4090 -0.0704  0.7249
 2616SOL    HW119907   1.407   6.497   0.553  0.1216 -0.2344  0.6992
 2616SOL    HW219908   1.285   6.603   0.578  0.0290 -0.4299  1.0882
 2617SOL     OW19909   4.630   3.688   6.282 -0.1638  0.1401  0.8965
 2617SOL    HW119910   4.548   3.693   6.339 -0.0140  0.0207  1.1176
 2617SOL    HW219911   4.614   3.623   6.207 -0.8071  1.1873  0.0903
 2618SOL     OW19912   9.947   3.711   5.822 -0.3028 -0.3667 -0.3726
 2618SOL    HW119913   9.971   3.698   5.726  1.5155 -1.6547  0.2234
 2618SOL    HW219914   9.864   3.660   5.842  0.2145 -1.4554 -0.9026
 2619SOL     OW19915   0.728   6.517   8.294 -0.0227  0.0717  0.7276
 2619SOL    HW119916   0.632   6.491   8.295 -0.2772  0.9379 -0.7377
 2619SOL    HW219917   0.745   6.582   8.220  1.8753 -0.7605  0.4073
 2620SOL     OW19918   5.831   7.727   6.374 -0.0301  0.4493  0.4894
 2620SOL    HW119919   5.908   7.667   6.395  2.4448  2.6954 -1.7880
 2620SOL    HW219920   5.799   7.770   6.458  1.5525 -0.1173  1.4001
 2621SOL     OW19921   2.031   8.694   6.095  0.0543  0.0554 -0.3685
 2621SOL    HW119922   2.078   8.636   6.161  1.0016  0.8546 -0.3460
 2621SOL    HW219923   1.986   8.636   6.027  1.8126 -0.7048 -0.9082
 2622SOL     OW19924   9.124   4.559   3.279 -0.0288 -0.0519  0.3197
 2622SOL    HW119925   9.087   4.613   3.204  0.3296  0.8382  0.7823
 2622SOL    HW219926   9.211   4.598   3.308 -0.8355  0.4291  2.1243
 2623SOL     OW19927   1.467   9.318   9.774  0.4372 -0.1041  0.5033
 2623SOL    HW119928   1.440   9.322   9.870 -0.7355  0.9355  0.1403
 2623SOL    HW219929   1.390   9.283   9.720  1.1215 -0.7646 -0.0395
 2624SOL     OW19930   9.478   0.252   6.786 -0.2200  0.0550 -0.0251
 2624SOL    HW119931   9.549   0.295   6.841 -0.7037  1.1878 -0.2692
 2624SOL    HW219932   9.471   0.299   6.698 -2.3139  0.9517  0.5902
 2625SOL     OW19933   1.237   6.776   7.807  0.0893 -0.5662  0.4531
 2625SOL    HW119934   1.291   6.857   7.830 -0.8874  0.7332 -1.6872
 2625SOL    HW219935   1.297   6.696   7.803  1.7956  0.7575 -1.3254
 2626SOL     OW19936   1.373   5.720   3.073 -0.4339  0.2720  0.1270
 2626SOL    HW119937   1.286   5.701   3.026  0.4355  0.5496 -1.6335
 2626SOL    HW219938   1.423   5.790   3.022  1.2591 -0.5769  0.6207
 2627SOL     OW19939   4.281   8.705   2.524 -0.0378 -0.1983 -0.5146
 2627SOL    HW119940   4.349   8.777   2.517  1.3442 -1.2633  1.6743
 2627SOL    HW219941   4.198   8.733   2.476  0.6163  2.6611 -0.0358
 2628SOL     OW19942   3.218   0.937   4.925  0.2276 -0.5889  0.1260
 2628SOL    HW119943   3.118   0.937   4.931  0.1702 -2.6531 -0.6158
 2628SOL    HW219944   3.255   0.855   4.969  1.5674 -0.1353 -0.1105
 2629SOL     OW19945   1.293   1.462   7.094  0.1042 -0.4262  0.2815
 2629SOL    HW119946   1.258   1.443   7.002  0.4869 -1.8672  0.4252
 2629SOL    HW219947   1.359   1.537   7.089  0.5245 -0.8444 -0.7021
 2630SOL     OW19948   0.365   1.447   6.656 -0.2234 -0.0281  0.5852
 2630SOL    HW119949   0.290   1.404   6.706 -0.1559  0.3136  0.9845
 2630SOL    HW219950   0.329   1.495   6.576 -0.3188 -0.6718  0.2342
 2631SOL     OW19951   3.438   9.915   4.463  0.2424  0.2872 -0.0922
 2631SOL    HW119952   3.532   9.885   4.479  0.2574 -0.4377 -1.4623
 2631SOL    HW219953   3.376   9.837   4.469  0.0535  0.2757 -1.7647
 2632SOL     OW19954   0.882   9.132   6.874  0.0686  0.2947 -0.0443
 2632SOL    HW119955   0.920   9.181   6.795 -1.7295 -0.5095 -1.4525
 2632SOL    HW219956   0.836   9.197   6.934 -1.4056  0.5326 -1.3781
 2633SOL     OW19957   0.292   6.704   9.020 -0.1570 -0.4694 -0.2249
 2633SOL    HW119958   0.231   6.662   8.954  0.4326  0.2029 -1.2178
 2633SOL    HW219959   0.386   6.703   8.984  0.2477 -0.5409  0.8140
 2634SOL     OW19960   4.317   8.841   3.418 -0.1081  0.5285  0.2481
 2634SOL    HW119961   4.307   8.746   3.447  0.0001  0.6659  0.7388
 2634SOL    HW219962   4.412   8.859   3.395 -0.0748  0.6032  0.4484
 2635SOL     OW19963   4.413   0.390   5.604  0.1827  0.5273  0.3821
 2635SOL    HW119964   4.365   0.453   5.542  0.1642  0.0636 -0.0782
 2635SOL    HW219965   4.371   0.393   5.694  2.1043  3.5249  1.2535
 2636SOL     OW19966   9.082   8.043   9.279 -0.7588  0.1459  0.5239
 2636SOL    HW119967   9.125   8.095   9.352  1.3805 -0.3720 -0.3192
 2636SOL    HW219968   9.130   7.956   9.268  0.2028  1.0036 -2.7274
 2637SOL     OW19969   3.204   6.994   4.179  0.2440  0.2581  0.9012
 2637SOL    HW119970   3.122   7.009   4.234  1.1936  0.2861  2.3221
 2637SOL    HW219971   3.241   7.082   4.149 -0.2442  0.2444  0.2297
 2638SOL     OW19972   4.727   6.360   0.200  0.5142 -0.2201 -0.3918
 2638SOL    HW119973   4.680   6.275   0.226 -0.4083  0.8275  1.4917
 2638SOL    HW219974   4.685   6.397   0.117 -0.6187 -0.3918  0.0996
 2639SOL     OW19975   9.949   4.717   0.826 -0.3174  0.6712 -0.3061
 2639SOL    HW119976   9.866   4.712   0.882 -1.0476 -0.1925 -1.4357
 2639SOL    HW219977   9.945   4.798   0.768 -0.1074  0.9301  0.0374
 2640SOL     OW19978   7.627   9.002   2.681  0.0295  0.2759  0.1538
 2640SOL    HW119979   7.654   9.091   2.644  0.0257  0.4381  0.5338
 2640SOL    HW219980   7.647   8.999   2.779 -0.1987 -0.0509  0.1933
 2641SOL     OW19981   3.156   0.597   5.998 -0.3700 -0.6696  0.1908
 2641SOL    HW119982   3.176   0.597   6.096 -1.2489 -2.0473  0.3918
 2641SOL    HW219983   3.227   0.544   5.951 -0.6250 -1.0589  0.2420
 2642SOL     OW19984   0.265   8.618   8.556  0.1964  0.2009 -0.1749
 2642SOL    HW119985   0.204   8.563   8.613  0.6590 -0.9591 -0.7787
 2642SOL    HW219986   0.219   8.703   8.530 -0.4933  0.1462  0.8418
 2643SOL     OW19987   3.039   5.050   1.617 -0.2226  0.2225  0.2002
 2643SOL    HW119988   2.942   5.030   1.600 -0.1141  0.5522 -0.8590
 2643SOL    HW219989   3.089   4.965   1.631 -0.2144 -0.1322 -1.7975
 2644SOL     OW19990   5.286   2.356   6.619 -0.1830  0.1651 -0.2427
 2644SOL    HW119991   5.195   2.379   6.586 -0.5293  0.1712  0.7297
 2644SOL    HW219992   5.284   2.341   6.718  0.9355  0.5015 -0.1617
 2645SOL     OW19993   5.850   2.071   1.755 -0.2773  0.6894 -0.1046
 2645SOL    HW119994   5.761   2.079   1.800 -0.8647  2.1453 -1.4832
 2645SOL    HW219995   5.909   2.012   1.810 -1.7124  0.5998  1.4046
 2646SOL     OW19996   5.183   2.897   0.166 -0.7717 -0.0115  0.3351
 2646SOL    HW119997   5.278   2.928   0.174  0.2765 -1.7604 -3.8646
 2646SOL    HW219998   5.175   2.805   0.204 -0.9093  0.3021  1.0766
 2647SOL     OW19999   2.871   9.538   7.241  0.3727 -0.6196 -0.4088
 2647SOL    HW120000   2.962   9.505   7.216  0.4819 -0.8614  0.2746
 2647SOL    HW220001   2.817   9.461   7.276 -0.0714 -0.4662 -0.7542
 2648SOL     OW20002   5.519   7.470   3.725  0.3065  0.5931  0.7693
 2648SOL    HW120003   5.573   7.401   3.775  1.7625  0.3123 -1.1506
 2648SOL    HW220004   5.504   7.439   3.631 -2.1968  1.2384  0.9125
 2649SOL     OW20005   2.754   9.807   2.476 -0.1180  0.0805 -0.3717
 2649SOL    HW120006   2.795   9.850   2.556  1.3819 -0.0974 -1.0209
 2649SOL    HW220007   2.701   9.875   2.425 -0.7040  0.2958  0.5121
 2650SOL     OW20008   1.714   5.542   5.348  0.2829  0.1421 -0.1839
 2650SOL    HW120009   1.632   5.540   5.404  0.2861  0.0013 -0.1861
 2650SOL    HW220010   1.757   5.452   5.347  0.6875  0.3243  0.1917
 2651SOL     OW20011   3.586   0.409   4.278  0.5238  0.4914 -0.0775
 2651SOL    HW120012   3.554   0.320   4.309 -1.0967  0.3214 -2.1063
 2651SOL    HW220013   3.653   0.397   4.205 -0.0222  0.9024 -0.6589
 2652SOL     OW20014   1.791   5.475   4.467  0.1898  0.0768 -0.3587
 2652SOL    HW120015   1.703   5.509   4.500  0.8699 -0.1252  1.6769
 2652SOL    HW220016   1.858   5.549   4.468  1.1005 -0.7550  1.9876
 2653SOL     OW20017   5.292   9.433   7.947  0.2681 -0.0773  0.1592
 2653SOL    HW120018   5.249   9.464   7.862 -1.4087  1.2121  1.4584
 2653SOL    HW220019   5.257   9.341   7.970 -0.7594  0.3812  0.4672
 2654SOL     OW20020   5.058   8.650   1.076 -0.7577  0.1363  0.3790
 2654SOL    HW120021   5.031   8.672   1.170  0.4096 -0.4335  0.8597
 2654SOL    HW220022   5.011   8.566   1.047 -0.2866 -0.2927  0.8472
 2655SOL     OW20023   9.032   6.109   1.328  0.1407 -0.2086  0.3728
 2655SOL    HW120024   9.053   6.202   1.357  2.0103 -0.4407 -0.2090
 2655SOL    HW220025   8.973   6.065   1.397 -1.3058  1.6007  0.3199
 2656SOL     OW20026   2.398   5.998   0.707  0.5835 -0.5922  0.1754
 2656SOL    HW120027   2.388   6.097   0.696  0.6060 -0.4224  1.4879
 2656SOL    HW220028   2.318   5.952   0.669 -0.6489  0.1157  1.8326
 2657SOL     OW20029   8.098   6.488   6.072  0.1137 -0.0636 -1.0810
 2657SOL    HW120030   8.165   6.540   6.126  0.0512 -0.4817 -0.5975
 2657SOL    HW220031   8.006   6.512   6.102  0.1262 -2.5656  1.1575
 2658SOL     OW20032   8.606   6.030   5.720 -0.4065  0.1734  0.5209
 2658SOL    HW120033   8.528   6.050   5.779  0.4353 -1.3781  2.1911
 2658SOL    HW220034   8.594   5.941   5.677 -1.7252  1.9127 -2.9082
 2659SOL     OW20035   9.045   3.885   7.657  0.2344  0.0146  0.4869
 2659SOL    HW120036   9.023   3.840   7.743 -0.3537 -0.3848  0.1286
 2659SOL    HW220037   8.962   3.897   7.603  0.4101  1.3470  0.4908
 2660SOL     OW20038   8.764   6.336   2.198  0.4087  0.7606 -0.6371
 2660SOL    HW120039   8.747   6.241   2.170  0.0687  0.6395 -0.0261
 2660SOL    HW220040   8.827   6.379   2.133  0.6446  0.0855 -0.8616
 2661SOL     OW20041   1.216   0.114   4.573  0.1491  0.2461  0.4497
 2661SOL    HW120042   1.308   0.077   4.559 -0.9985 -2.8739  0.7958
 2661SOL    HW220043   1.196   0.119   4.671 -1.2024 -2.2275  0.3524
 2662SOL     OW20044   9.018   6.672   2.499  0.1010  0.4403 -0.0180
 2662SOL    HW120045   8.949   6.612   2.541 -0.9082  0.0545 -2.1786
 2662SOL    HW220046   8.982   6.765   2.495  0.1792  0.4664 -0.0880
 2663SOL     OW20047   7.163   8.679   1.552  0.3425 -0.8294 -0.0218
 2663SOL    HW120048   7.202   8.733   1.477  0.0269  1.1579  1.2293
 2663SOL    HW220049   7.212   8.592   1.559  0.2301 -1.1407 -2.6651
 2664SOL     OW20050   5.592   8.564   4.612  0.2142 -0.2550 -0.4713
 2664SOL    HW120051   5.647   8.633   4.660  1.0464 -0.1572 -1.5418
 2664SOL    HW220052   5.645   8.479   4.605  0.8398  0.2970 -2.8169
 2665SOL     OW20053   5.806   6.155   9.139 -0.2423 -0.3540 -0.2098
 2665SOL    HW120054   5.745   6.228   9.167 -0.3891 -0.4699 -0.2269
 2665SOL    HW220055   5.810   6.152   9.039 -0.7776 -0.8144 -0.2188
 2666SOL     OW20056   2.450   3.390   0.137 -0.3247  0.1354  0.0736
 2666SOL    HW120057   2.413   3.449   0.209 -0.8672  2.6510 -2.1974
 2666SOL    HW220058   2.374   3.355   0.081  0.2806  0.3717 -0.9005
 2667SOL     OW20059   1.835   9.830   4.212  0.6405  0.8994 -0.1510
 2667SOL    HW120060   1.784   9.768   4.153  1.8500  2.4600 -2.9198
 2667SOL    HW220061   1.771   9.889   4.261 -0.4519 -1.4862  1.4306
 2668SOL     OW20062   9.677   8.230   3.941  0.0652  0.1248 -0.1164
 2668SOL    HW120063   9.600   8.259   3.998  1.3050 -1.4083  2.4606
 2668SOL    HW220064   9.762   8.242   3.991  1.0917 -2.5755 -1.0857
 2669SOL     OW20065   2.764   7.477   1.136  0.0475  0.1267 -0.2619
 2669SOL    HW120066   2.779   7.568   1.173 -0.0959  0.4925 -1.0976
 2669SOL    HW220067   2.731   7.416   1.209  0.7404  0.5785  0.4351
 2670SOL     OW20068   0.715   5.460   2.609 -0.4438 -0.1007  0.0933
 2670SOL    HW120069   0.687   5.527   2.678 -0.6799  0.6814 -0.7586
 2670SOL    HW220070   0.655   5.466   2.530 -0.3798 -1.2366 -0.0517
 2671SOL     OW20071   3.276   1.872   9.179 -0.1731 -0.1619 -0.8289
 2671SOL    HW120072   3.269   1.854   9.277  3.0580  1.1195 -0.2733
 2671SOL    HW220073   3.200   1.929   9.150 -0.2676  0.8782  1.3149
 2672SOL     OW20074   1.747   6.237   1.497  0.4927 -0.2957 -0.2875
 2672SOL    HW120075   1.787   6.165   1.441  1.2187  0.1803 -0.3991
 2672SOL    HW220076   1.820   6.279   1.552  0.0344  0.1989 -0.0597
 2673SOL     OW20077   2.026   0.287   0.663  0.0705 -0.6554  0.1314
 2673SOL    HW120078   1.928   0.287   0.680  0.1716 -1.5318  0.7385
 2673SOL    HW220079   2.055   0.377   0.632 -1.1829 -0.7989 -1.5397
 2674SOL     OW20080   0.553   6.663   3.321 -0.1126  0.2180 -0.9495
 2674SOL    HW120081   0.617   6.633   3.249 -0.5290 -1.4689 -0.6273
 2674SOL    HW220082   0.605   6.692   3.401  0.3467  1.8370 -1.7950
 2675SOL     OW20083   7.375   5.073   7.329 -0.2700 -0.1322  0.2012
 2675SOL    HW120084   7.400   5.169   7.345 -1.3846  0.2229 -0.1114
 2675SOL    HW220085   7.317   5.041   7.403 -1.2231 -0.0601 -0.4951
 2676SOL     OW20086   3.753   0.878   5.330 -0.1299  0.2993 -0.4049
 2676SOL    HW120087   3.703   0.925   5.403 -0.7200 -0.5009 -0.2764
 2676SOL    HW220088   3.837   0.839   5.367 -0.5241 -0.2708 -0.0973
 2677SOL     OW20089   4.483   1.254   8.541  0.5054  0.4525 -0.0707
 2677SOL    HW120090   4.491   1.328   8.607  1.3929 -1.5589  2.1272
 2677SOL    HW220091   4.428   1.180   8.579  0.9757 -0.7204 -1.5980
 2678SOL     OW20092   1.527   6.114   5.412  0.3861 -0.1181  0.1324
 2678SOL    HW120093   1.595   6.116   5.485  0.8004 -1.5738 -0.1873
 2678SOL    HW220094   1.571   6.088   5.326 -0.0278  1.9731 -0.7353
 2679SOL     OW20095   0.126   4.684   3.388 -0.1995 -0.3868 -0.1060
 2679SOL    HW120096   0.213   4.636   3.375  0.1942  0.2688  0.0988
 2679SOL    HW220097   0.084   4.701   3.299  0.2056 -0.1075 -0.2434
 2680SOL     OW20098   8.756   8.976   1.447  0.4403  0.0489 -0.2109
 2680SOL    HW120099   8.711   8.889   1.470  2.0165 -1.1329 -1.4125
 2680SOL    HW220100   8.853   8.958   1.427  1.2317  2.3749  1.3755
 2681SOL     OW20101   3.377   0.161   8.062  0.1895 -0.1526  0.3758
 2681SOL    HW120102   3.403   0.253   8.034 -0.9905 -0.3592 -1.4508
 2681SOL    HW220103   3.354   0.161   8.160  1.7479  1.1298  0.7713
 2682SOL     OW20104   5.490   0.094   1.800 -0.1698  0.1221  0.1205
 2682SOL    HW120105   5.585   0.069   1.813  0.7190  2.2874 -1.8453
 2682SOL    HW220106   5.449   0.121   1.887  1.9394  2.2231  0.4882
 2683SOL     OW20107   8.480   0.278   5.127 -0.1264  0.7398 -0.4589
 2683SOL    HW120108   8.518   0.240   5.043 -0.6972  0.3858 -0.5617
 2683SOL    HW220109   8.522   0.367   5.145  1.1139  0.1261 -0.2922
 2684SOL     OW20110   8.564   2.697   0.223 -0.5364  0.4633  0.2679
 2684SOL    HW120111   8.610   2.660   0.304 -0.4988  2.2191  1.0971
 2684SOL    HW220112   8.632   2.719   0.153 -0.5333 -0.7432 -0.1038
 2685SOL     OW20113   8.309   1.264   7.379  0.2883 -0.7369  0.4995
 2685SOL    HW120114   8.333   1.338   7.316 -0.7303 -0.5542  0.3194
 2685SOL    HW220115   8.210   1.253   7.381  0.4167 -1.9792  0.6617
 2686SOL     OW20116   5.232   6.342   9.851  0.2008  0.4584  0.0367
 2686SOL    HW120117   5.175   6.269   9.814  1.2117 -1.3056  1.9003
 2686SOL    HW220118   5.203   6.430   9.811 -2.6130 -0.6171 -0.4129
 2687SOL     OW20119   2.945   9.488   1.397  0.3274 -0.0895  0.1510
 2687SOL    HW120120   2.926   9.449   1.306 -0.9721  1.1910 -0.1400
 2687SOL    HW220121   2.866   9.540   1.428  1.9519  2.1249  0.6614
 2688SOL     OW20122   4.419   4.731   5.073  0.0424 -0.1357  0.0413
 2688SOL    HW120123   4.358   4.782   5.012  1.0394  0.2569 -0.6650
 2688SOL    HW220124   4.396   4.634   5.071 -0.5950  0.0211 -0.1710
 2689SOL     OW20125   0.228   0.717   4.193  0.2986  0.5683  0.0258
 2689SOL    HW120126   0.218   0.620   4.212  0.9528  0.3131 -0.9452
 2689SOL    HW220127   0.299   0.755   4.252  0.9953  0.1761 -0.5674
 2690SOL     OW20128   7.426   0.517   7.344  0.4723 -0.3479 -0.3915
 2690SOL    HW120129   7.334   0.483   7.323  0.5025  0.0137 -1.1343
 2690SOL    HW220130   7.428   0.616   7.330  0.4647 -0.0605  1.4612
 2691SOL     OW20131   2.945   6.209   0.780 -0.7379 -0.3413 -0.2391
 2691SOL    HW120132   2.975   6.305   0.774  2.2795 -1.0462  2.5530
 2691SOL    HW220133   3.000   6.154   0.717 -0.3076 -0.6948  0.4405
 2692SOL     OW20134   2.326   2.788   4.529  0.4139 -0.4987 -0.3056
 2692SOL    HW120135   2.336   2.851   4.452  1.9127  2.0855  1.9491
 2692SOL    HW220136   2.335   2.838   4.615  0.0281 -3.5424  1.5676
 2693SOL     OW20137   2.124   9.229   9.090 -0.4834  0.2800  0.5576
 2693SOL    HW120138   2.164   9.146   9.128 -1.0235 -0.2131  0.0609
 2693SOL    HW220139   2.051   9.205   9.026  0.6058  1.0862 -1.0266
 2694SOL     OW20140   7.685   5.792   7.093  0.1279  0.7791  0.0819
 2694SOL    HW120141   7.717   5.698   7.096  0.1449  0.7651 -0.4553
 2694SOL    HW220142   7.606   5.798   7.031  0.3911  1.1923 -0.2193
 2695SOL     OW20143   6.475   4.573   0.387 -0.1568 -0.1444 -0.7040
 2695SOL    HW120144   6.423   4.658   0.394 -1.0124 -0.3909 -3.3548
 2695SOL    HW220145   6.421   4.504   0.339  1.3085 -1.5315 -0.4341
 2696SOL     OW20146   3.420   8.913   2.406  0.0222  0.1826 -0.2134
 2696SOL    HW120147   3.365   8.865   2.338 -0.3026  0.8265 -0.3999
 2696SOL    HW220148   3.360   8.956   2.473  0.2890  1.2707 -0.6756
 2697SOL     OW20149   5.792   7.667   3.598 -0.7326  0.0428  0.1999
 2697SOL    HW120150   5.869   7.607   3.618 -1.2679 -0.6040  0.3608
 2697SOL    HW220151   5.723   7.616   3.546 -1.3942  0.3771  0.7274
 2698SOL     OW20152   2.720   2.251   8.743 -0.5289  0.1097  0.3976
 2698SOL    HW120153   2.638   2.202   8.715 -0.9530  0.0608  1.7026
 2698SOL    HW220154   2.780   2.264   8.664 -2.2884  1.1246 -0.8106
 2699SOL     OW20155   5.781   0.554   3.951  0.1242  0.4168  0.6689
 2699SOL    HW120156   5.772   0.481   3.883  0.7106 -0.7020  1.7692
 2699SOL    HW220157   5.701   0.613   3.948 -0.4241 -0.3597 -0.1403
 2700SOL     OW20158   8.096   4.959   3.731  0.1708  0.3370 -0.2277
 2700SOL    HW120159   8.135   5.051   3.739  1.4107 -0.1794 -0.2528
 2700SOL    HW220160   8.073   4.925   3.821 -0.6916  0.8349 -0.2517
 2701SOL     OW20161   3.858   7.791   0.976 -0.2231 -0.2141  0.2004
 2701SOL    HW120162   3.921   7.736   1.029  2.3570  0.1677 -2.3703
 2701SOL    HW220163   3.899   7.880   0.957 -1.7579  0.2546 -1.0250
 2702SOL     OW20164   6.232   9.400   7.219 -0.7024  0.2426  0.0502
 2702SOL    HW120165   6.200   9.473   7.280 -1.5535  0.2288 -0.3713
 2702SOL    HW220166   6.161   9.330   7.210  0.3009 -0.8920  0.8342
 2703SOL     OW20167   1.860   5.823   2.026 -0.3975  0.0736 -0.1543
 2703SOL    HW120168   1.850   5.922   2.032  0.4996  0.2172 -0.9381
 2703SOL    HW220169   1.956   5.800   2.010 -0.7888 -0.8503 -1.2633
 2704SOL     OW20170   0.840   1.992   1.171 -0.2416 -0.3865  0.1842
 2704SOL    HW120171   0.820   1.994   1.074 -3.5153 -0.2840  0.8062
 2704SOL    HW220172   0.804   2.074   1.215 -1.9249 -2.0047  1.9793
 2705SOL     OW20173   1.988   3.094   4.644 -0.2402  0.4942 -0.2763
 2705SOL    HW120174   1.958   3.000   4.654 -0.3832  0.6951  1.3311
 2705SOL    HW220175   1.918   3.156   4.680  1.7453  0.9977  2.9068
 2706SOL     OW20176   7.995   1.495   4.728 -0.6171 -0.3916 -0.2240
 2706SOL    HW120177   8.031   1.459   4.642 -1.8391 -1.2273 -0.3994
 2706SOL    HW220178   8.036   1.445   4.805  0.6526  0.5127 -0.2824
 2707SOL     OW20179   9.708   0.426   7.220  0.2990 -0.0642 -0.0248
 2707SOL    HW120180   9.745   0.515   7.192 -0.1633  0.4029  0.8058
 2707SOL    HW220181   9.782   0.368   7.253  0.6180 -0.0184 -0.6592
 2708SOL     OW20182   9.853   8.643   5.314 -0.0309 -0.1843  0.2950
 2708SOL    HW120183   9.839   8.658   5.217 -1.2458  0.5098  0.5731
 2708SOL    HW220184   9.924   8.706   5.348  0.3627 -0.4008 -0.1288
 2709SOL     OW20185   2.319   0.144   5.263 -0.5305  0.2073  0.2367
 2709SOL    HW120186   2.274   0.084   5.330 -0.7383 -0.9141 -0.8797
 2709SOL    HW220187   2.254   0.167   5.190 -0.0646  0.7460 -0.0117
 2710SOL     OW20188   0.221   9.677   4.507 -0.0228  0.0072  0.2164
 2710SOL    HW120189   0.232   9.773   4.534  1.0519  0.0388 -0.3115
 2710SOL    HW220190   0.305   9.626   4.528 -0.7502 -0.9254  0.9143
 2711SOL     OW20191   4.050   8.502   2.205 -0.5470  0.6702 -0.1375
 2711SOL    HW120192   4.020   8.414   2.241 -0.4148  1.2495  1.4046
 2711SOL    HW220193   3.990   8.529   2.129 -1.0370 -0.3911 -0.1319
 2712SOL     OW20194   9.663   0.413   6.902 -0.3688 -0.4507 -0.3158
 2712SOL    HW120195   9.676   0.490   6.840 -1.8129 -1.8926 -2.4639
 2712SOL    HW220196   9.626   0.446   6.989 -1.2779  1.2344 -1.3214
 2713SOL     OW20197   2.420   5.221   5.443 -0.1132 -0.5654  0.5294
 2713SOL    HW120198   2.481   5.287   5.489 -0.7538 -1.1631  2.2730
 2713SOL    HW220199   2.354   5.186   5.509 -1.2458 -1.2315 -0.9510
 2714SOL     OW20200   4.103   8.784   9.866 -0.6630  0.1732 -0.7996
 2714SOL    HW120201   4.160   8.840   9.807 -2.7040  2.8641 -0.3447
 2714SOL    HW220202   4.022   8.754   9.816  0.3420 -2.3167 -0.9917
 2715SOL     OW20203   3.236   1.032   6.162 -0.3851  0.0159 -0.0089
 2715SOL    HW120204   3.312   0.978   6.199  0.5521  1.3983  0.1008
 2715SOL    HW220205   3.184   1.072   6.237  0.9488  2.0390 -0.1352
 2716SOL     OW20206   7.280   1.650   3.937  0.8119 -0.4179  0.1842
 2716SOL    HW120207   7.291   1.623   4.033  2.6677 -2.4018 -0.5442
 2716SOL    HW220208   7.242   1.742   3.933  3.9634  1.1007  2.8846
 2717SOL     OW20209   7.837   7.577   4.787 -0.0024  0.6626 -0.2013
 2717SOL    HW120210   7.824   7.655   4.848  0.9549  1.0595 -0.4941
 2717SOL    HW220211   7.775   7.504   4.813  0.1925  0.9381  1.0630
 2718SOL     OW20212   7.671   0.343   8.268  0.5696  0.0688  0.0127
 2718SOL    HW120213   7.613   0.322   8.190  0.0576 -1.0875  0.7068
 2718SOL    HW220214   7.698   0.259   8.314  0.5984  0.7581  1.2880
 2719SOL     OW20215   0.417   2.186   7.486 -0.1548 -0.0117 -0.2046
 2719SOL    HW120216   0.406   2.137   7.573  0.5467  0.8076  0.3472
 2719SOL    HW220217   0.512   2.183   7.458 -0.6673 -1.7994 -1.8679
 2720SOL     OW20218   6.707   2.299   9.968  0.0332  0.2098 -0.0534
 2720SOL    HW120219   6.694   2.285  10.066 -3.1363 -2.8871 -0.8342
 2720SOL    HW220220   6.714   2.397   9.950  0.7948  0.8289  3.2667
 2721SOL     OW20221   2.583   6.628   2.606  0.0557 -0.5773 -0.1105
 2721SOL    HW120222   2.533   6.557   2.557  1.5386 -1.0864 -0.9059
 2721SOL    HW220223   2.665   6.653   2.555 -0.7517  2.1617 -0.1671
 2722SOL     OW20224   3.377   8.577   1.166  0.8129  0.6283  0.1233
 2722SOL    HW120225   3.439   8.499   1.157  0.0175  0.1916 -1.8613
 2722SOL    HW220226   3.321   8.585   1.084  0.2163  2.7339  0.6915
 2723SOL     OW20227   6.127   9.561   7.446  1.0343  0.1364  0.8410
 2723SOL    HW120228   6.125   9.539   7.544  2.1650 -0.9264  0.6338
 2723SOL    HW220229   6.176   9.647   7.432 -1.1633  1.5250  1.4120
 2724SOL     OW20230   1.784   4.766  10.034  0.1626  0.2354  0.4968
 2724SOL    HW120231   1.861   4.790   9.975 -0.2480  1.3490  0.4105
 2724SOL    HW220232   1.811   4.691  10.095  0.7382 -0.6034 -0.7743
 2725SOL     OW20233   2.900   7.092  10.070  0.3355 -0.3384 -0.6112
 2725SOL    HW120234   2.901   7.107   9.971 -0.1899  0.5782 -0.4734
 2725SOL    HW220235   2.891   6.994  10.088 -2.0614 -0.3092 -1.4643
 2726SOL     OW20236   4.012   3.806   7.930  0.4731 -0.1422  0.7254
 2726SOL    HW120237   4.111   3.788   7.927  0.3137 -1.2802  1.9134
 2726SOL    HW220238   3.969   3.745   7.996 -1.5661 -2.0427 -2.2142
 2727SOL     OW20239   9.025   0.564   8.890 -0.2866 -0.3431  0.6988
 2727SOL    HW120240   9.021   0.563   8.790 -0.0515  2.1925  0.6371
 2727SOL    HW220241   9.119   0.543   8.919 -0.6647 -2.5287  0.4746
 2728SOL     OW20242   5.037   2.167   8.818 -0.3330  0.4934  0.1312
 2728SOL    HW120243   5.091   2.248   8.796  0.3611 -0.0900 -0.3418
 2728SOL    HW220244   5.012   2.120   8.734 -1.7014  0.8302  0.3422
 2729SOL     OW20245   2.631   6.925   0.957  0.4967  0.1268 -0.3262
 2729SOL    HW120246   2.610   6.985   1.034  0.6259  0.1019 -0.2727
 2729SOL    HW220247   2.588   6.836   0.971 -2.7313  1.3104 -2.0722
 2730SOL     OW20248   0.217   4.424   5.131 -0.2215  0.0114  0.2055
 2730SOL    HW120249   0.146   4.355   5.122 -0.8757  0.7373 -0.3184
 2730SOL    HW220250   0.197   4.481   5.211  0.3816 -0.4873  0.7081
 2731SOL     OW20251   3.698   5.847   9.983 -0.5520 -0.0411  0.2650
 2731SOL    HW120252   3.652   5.933  10.005 -0.6742  0.3783 -1.5582
 2731SOL    HW220253   3.723   5.800  10.068 -0.5147  1.7644  1.2716
 2732SOL     OW20254   7.677   6.781   3.864 -0.1776  0.3107  0.5963
 2732SOL    HW120255   7.641   6.739   3.781  0.2372  1.5609 -0.2144
 2732SOL    HW220256   7.727   6.712   3.917 -0.2211 -0.4170 -0.3002
 2733SOL     OW20257   3.388   8.533   2.041  0.6276  0.0041 -0.3374
 2733SOL    HW120258   3.460   8.547   2.109  1.0086  0.1191 -0.7604
 2733SOL    HW220259   3.299   8.530   2.086  0.6894  2.0806 -0.0359
 2734SOL     OW20260   9.056   9.610   4.094 -0.3213 -0.1845  0.2926
 2734SOL    HW120261   9.060   9.602   4.193  0.0244 -1.0190  0.2235
 2734SOL    HW220262   8.999   9.687   4.068 -2.1882 -1.2610  1.1176
 2735SOL     OW20263   6.400   8.884   5.567  0.1105  0.4590 -0.0632
 2735SOL    HW120264   6.404   8.933   5.654  2.1426 -0.3045  0.3013
 2735SOL    HW220265   6.379   8.949   5.494 -0.5389  1.2985  0.8466
 2736SOL     OW20266   4.563   5.209   9.512  0.1145  0.2340 -0.1385
 2736SOL    HW120267   4.518   5.122   9.536  2.3124 -0.5637  1.2737
 2736SOL    HW220268   4.494   5.275   9.482 -1.7649 -1.5458  0.1358
 2737SOL     OW20269   3.166   7.506   2.733 -0.0446 -0.1867  0.4821
 2737SOL    HW120270   3.125   7.515   2.823  1.7052  0.5013  1.2328
 2737SOL    HW220271   3.109   7.554   2.666 -1.0497 -0.2196  1.2931
 2738SOL     OW20272   2.790   0.112   0.835  0.2119 -0.0331 -0.7473
 2738SOL    HW120273   2.778   0.122   0.737 -5.0391  1.9686 -0.0606
 2738SOL    HW220274   2.715   0.058   0.873  0.9791  0.9988  2.4280
 2739SOL     OW20275   6.592   0.091   7.824 -0.0665  0.1689  0.1145
 2739SOL    HW120276   6.519   0.056   7.883 -0.2388  0.8732  0.3229
 2739SOL    HW220277   6.584   0.050   7.733 -2.0230  1.8535 -0.5043
 2740SOL     OW20278   6.924   1.528   5.654 -0.1075 -0.1279  0.1865
 2740SOL    HW120279   6.906   1.435   5.623 -2.1107  1.1151 -2.7199
 2740SOL    HW220280   7.014   1.557   5.624 -0.0631 -0.6432 -0.1796
 2741SOL     OW20281   1.896   2.744   9.373  0.1992 -0.8518 -0.1829
 2741SOL    HW120282   1.830   2.784   9.437  0.4603  0.0003 -0.4505
 2741SOL    HW220283   1.891   2.644   9.380 -0.9866 -0.8009 -0.0679
 2742SOL     OW20284   0.964   1.538   5.694  0.2545 -0.0712 -0.3833
 2742SOL    HW120285   1.057   1.523   5.728  1.1438  1.3709 -2.0627
 2742SOL    HW220286   0.927   1.452   5.658  0.1691 -1.0852  2.0303
 2743SOL     OW20287   3.497   3.478   8.321  0.2474  0.5450 -0.4044
 2743SOL    HW120288   3.559   3.442   8.392  0.0481 -2.3271 -1.6179
 2743SOL    HW220289   3.543   3.473   8.232 -0.9228  0.4035 -1.0076
 2744SOL     OW20290   4.362   3.851   0.320 -0.7273  0.1380  0.2676
 2744SOL    HW120291   4.363   3.812   0.412 -0.2194  2.4107  1.2694
 2744SOL    HW220292   4.401   3.943   0.323  1.4944 -0.6163 -2.6357
 2745SOL     OW20293   1.544   1.063   0.272 -0.4456 -0.7516  0.0118
 2745SOL    HW120294   1.643   1.070   0.265 -0.4141 -1.4029 -0.2266
 2745SOL    HW220295   1.503   1.084   0.182 -0.5182 -0.6357  0.0712
 2746SOL     OW20296   2.603   7.698   7.160 -0.0992  0.9655 -0.2247
 2746SOL    HW120297   2.665   7.626   7.193 -0.6345  0.1727 -0.9409
 2746SOL    HW220298   2.564   7.747   7.239  2.8071  2.6783  0.2389
 2747SOL     OW20299   8.951   3.481   2.395 -0.2892 -0.4712  0.1649
 2747SOL    HW120300   9.029   3.542   2.380  0.5381 -1.3564  0.8189
 2747SOL    HW220301   8.934   3.429   2.312  1.1559 -1.7799  0.6525
 2748SOL     OW20302   2.781   2.488   8.346  0.3017  0.5349  0.2219
 2748SOL    HW120303   2.802   2.547   8.423  0.0199  0.0630  0.6624
 2748SOL    HW220304   2.861   2.483   8.285  0.7164  0.4596  0.7700
 2749SOL     OW20305   4.758   4.232   9.715 -0.1790 -0.2174 -0.2411
 2749SOL    HW120306   4.704   4.258   9.635 -0.3382 -0.8145 -0.3297
 2749SOL    HW220307   4.832   4.171   9.687  0.2264  0.1827 -0.0424
 2750SOL     OW20308   2.840   4.279   1.430  0.0570 -0.2757 -0.1062
 2750SOL    HW120309   2.800   4.188   1.422  0.6423 -0.5038 -0.4775
 2750SOL    HW220310   2.893   4.285   1.514  0.0356 -0.2840 -0.0921
 2751SOL     OW20311   8.275   8.257   6.189  0.2356 -0.0249  0.4620
 2751SOL    HW120312   8.319   8.268   6.100  0.8911  0.9068  0.9009
 2751SOL    HW220313   8.267   8.159   6.210 -2.1600 -0.3526 -1.7076
 2752SOL     OW20314   8.032   6.236   3.147 -0.2021  0.2406 -0.4889
 2752SOL    HW120315   8.020   6.187   3.060  0.1240  0.2579 -0.5437
 2752SOL    HW220316   7.973   6.195   3.216 -0.5829  0.3286 -0.7586
 2753SOL     OW20317   9.068   3.912   6.426 -0.3023  0.3929 -0.7514
 2753SOL    HW120318   9.118   3.941   6.508 -0.9403 -1.0435  0.1612
 2753SOL    HW220319   9.119   3.941   6.345  0.5764  1.4265  0.1419
 2754SOL     OW20320   3.382   5.036   6.957 -0.2752 -0.7289  0.4661
 2754SOL    HW120321   3.305   5.080   7.002  0.6335 -1.5358  2.8818
 2754SOL    HW220322   3.389   4.940   6.987  0.5792 -1.1834 -1.1059
 2755SOL     OW20323   3.257   0.642   0.705 -0.3230 -0.6798  0.1146
 2755SOL    HW120324   3.304   0.587   0.773 -1.4590 -0.8602  0.7760
 2755SOL    HW220325   3.212   0.582   0.639 -2.7507 -0.6513  1.6407
 2756SOL     OW20326   7.231   3.721   8.535 -0.1123  0.7917 -0.7083
 2756SOL    HW120327   7.209   3.664   8.456 -2.1614 -0.6195  0.8346
 2756SOL    HW220328   7.148   3.763   8.571  0.4135 -0.2918  1.9523
 2757SOL     OW20329   2.184   2.740   9.530 -0.4617  0.1337 -0.5306
 2757SOL    HW120330   2.090   2.764   9.507 -0.9244  0.1920  1.3967
 2757SOL    HW220331   2.185   2.651   9.577  0.0943  1.5900  2.3046
 2758SOL     OW20332   9.891   2.709   8.786 -0.3748  0.2722  0.3820
 2758SOL    HW120333   9.962   2.639   8.782  0.1182  0.7698  0.3440
 2758SOL    HW220334   9.819   2.688   8.720  0.0075  0.0669  0.0337
 2759SOL     OW20335   9.348   5.716   0.307 -0.0801 -0.0363  0.3641
 2759SOL    HW120336   9.405   5.637   0.329  1.4051  1.5720  2.6229
 2759SOL    HW220337   9.380   5.757   0.222  1.2546 -0.0228  0.8453
 2760SOL     OW20338   8.826   2.466   4.202  0.4562 -0.1650 -0.0274
 2760SOL    HW120339   8.902   2.402   4.198 -0.3616 -1.2360  1.1115
 2760SOL    HW220340   8.758   2.442   4.132 -1.0314 -2.1281  2.0190
 2761SOL     OW20341   6.327   1.842   5.982 -0.7307 -0.0283  0.5026
 2761SOL    HW120342   6.303   1.916   5.919  1.6907 -0.0417 -0.4957
 2761SOL    HW220343   6.411   1.798   5.951 -0.4371 -1.1729  2.8132
 2762SOL     OW20344   4.275   7.342   4.105 -0.5234  0.2330  0.2809
 2762SOL    HW120345   4.344   7.295   4.050  0.1894  2.1057 -0.4479
 2762SOL    HW220346   4.306   7.346   4.200 -0.6811 -0.9172  0.3907
 2763SOL     OW20347   9.422   3.928   1.096  0.2636 -0.9942  0.7029
 2763SOL    HW120348   9.334   3.941   1.140 -0.5660  0.7187 -1.3808
 2763SOL    HW220349   9.469   4.016   1.088 -0.4352 -0.9115 -3.4650
 2764SOL     OW20350   0.547   7.007   3.401 -0.1346  0.0525  0.0937
 2764SOL    HW120351   0.520   7.103   3.412 -0.1279  0.0051  0.4964
 2764SOL    HW220352   0.479   6.960   3.344 -0.1422  0.2918 -0.0978
 2765SOL     OW20353   9.381   8.933   4.057  0.2743  0.3254  0.8388
 2765SOL    HW120354   9.313   8.863   4.033  1.5817 -0.6143 -0.1696
 2765SOL    HW220355   9.414   8.916   4.150 -1.8425  1.5971  1.8689
 2766SOL     OW20356   6.731   2.593   3.898 -0.4414 -0.0544 -0.0775
 2766SOL    HW120357   6.786   2.533   3.955 -0.4971  1.0359  1.1430
 2766SOL    HW220358   6.790   2.638   3.830 -0.4497 -1.6834 -1.1922
 2767SOL     OW20359   2.881   0.624   7.921 -0.0976 -0.4224 -0.3209
 2767SOL    HW120360   2.850   0.570   8.000  0.6309 -1.7496 -0.9243
 2767SOL    HW220361   2.931   0.704   7.953 -0.9015 -0.2650  0.5841
 2768SOL     OW20362   9.042   8.127   7.440 -0.2300  0.0274 -0.4137
 2768SOL    HW120363   8.962   8.164   7.486  0.1455  0.0615  0.2169
 2768SOL    HW220364   9.123   8.180   7.466  0.2053 -0.8260 -0.0174
 2769SOL     OW20365   8.795   2.610   7.384  0.7730 -0.1889  0.2862
 2769SOL    HW120366   8.829   2.522   7.416  1.4477  0.2970  0.9115
 2769SOL    HW220367   8.870   2.676   7.380  0.0181  0.7638  1.2408
 2770SOL     OW20368   0.544   5.090   4.534  0.3243 -0.1648 -0.1243
 2770SOL    HW120369   0.565   5.004   4.582 -0.2526 -0.8389 -1.0661
 2770SOL    HW220370   0.555   5.166   4.597  0.2367 -0.9860  0.9020
 2771SOL     OW20371   2.219   0.009   6.931 -0.0710 -0.2120  0.3324
 2771SOL    HW120372   2.226  -0.030   6.839  0.2086 -0.0793  0.2965
 2771SOL    HW220373   2.248   0.105   6.929  0.9875 -0.5056  0.7613
 2772SOL     OW20374   7.416   5.247   8.663  0.0443 -0.5561  0.1749
 2772SOL    HW120375   7.443   5.323   8.605 -0.0865 -1.5108 -1.1565
 2772SOL    HW220376   7.491   5.180   8.667  0.7038  0.2314  2.4251
 2773SOL     OW20377   3.651   4.831   7.343 -0.1796 -0.3039 -0.2640
 2773SOL    HW120378   3.701   4.867   7.264  0.0553 -1.5160 -0.6819
 2773SOL    HW220379   3.712   4.825   7.422 -0.7796  2.3115  0.4634
 2774SOL     OW20380   8.829   0.288   4.946 -0.0681 -0.5349  1.0038
 2774SOL    HW120381   8.885   0.359   4.903  0.1727 -1.4097 -0.1410
 2774SOL    HW220382   8.758   0.258   4.883  1.0716 -2.7161  0.6840
 2775SOL     OW20383   3.215   3.291   8.996  0.5057  0.6786  0.1074
 2775SOL    HW120384   3.228   3.383   9.033  1.9363  0.6006 -0.1509
 2775SOL    HW220385   3.201   3.227   9.072  1.5181  0.8115  0.4132
 2776SOL     OW20386   6.906   2.539   9.793  0.6095  0.1984  0.1137
 2776SOL    HW120387   6.904   2.609   9.722 -0.1481  0.9208  0.8235
 2776SOL    HW220388   6.851   2.570   9.871 -0.3082 -1.4795  0.1606
 2777SOL     OW20389   3.495   9.507   4.073 -0.6234  0.1932  0.6318
 2777SOL    HW120390   3.426   9.441   4.046  0.6116 -0.8848  0.0501
 2777SOL    HW220391   3.528   9.556   3.992 -1.0690  1.0855  0.9755
 2778SOL     OW20392   6.410   7.717   5.634 -0.6613  0.0216 -0.7445
 2778SOL    HW120393   6.492   7.680   5.677 -1.7501 -0.4587  0.9604
 2778SOL    HW220394   6.348   7.642   5.612 -1.2813  0.5180 -0.6804
 2779SOL     OW20395   0.521   6.824   9.488  0.1741  0.3149 -0.0645
 2779SOL    HW120396   0.612   6.837   9.527 -0.0083 -0.0015  0.4646
 2779SOL    HW220397   0.503   6.897   9.421  0.1649  1.3089  1.0104
 2780SOL     OW20398   8.179   8.916   9.085 -0.0939  0.0437 -0.0070
 2780SOL    HW120399   8.265   8.872   9.060  1.6089  1.8404  2.4175
 2780SOL    HW220400   8.155   8.890   9.178 -1.0891  1.2159  0.0655
 2781SOL     OW20401   0.087   3.738   6.965 -0.2639  0.2523  0.5106
 2781SOL    HW120402   0.139   3.721   6.881 -0.8444  0.5430  0.0957
 2781SOL    HW220403   0.139   3.801   7.024  0.1786 -0.0159  0.4083
 2782SOL     OW20404   0.370   8.906   3.989 -0.9683 -0.3023 -0.2048
 2782SOL    HW120405   0.319   8.971   3.933  1.2193  1.4126 -0.2486
 2782SOL    HW220406   0.432   8.853   3.932  0.3365  0.5592  0.3820
 2783SOL     OW20407   0.279   3.041   6.867 -0.4071 -0.0269  0.1191
 2783SOL    HW120408   0.227   2.956   6.869 -0.4732  0.0299  1.0285
 2783SOL    HW220409   0.356   3.034   6.931  1.8027 -0.8038 -2.5545
 2784SOL     OW20410   0.576   6.872   6.908 -0.3081 -0.4783  0.9401
 2784SOL    HW120411   0.491   6.922   6.896 -0.1893 -0.5052 -0.0620
 2784SOL    HW220412   0.646   6.934   6.946  0.2484  0.5370 -1.6295
 2785SOL     OW20413   7.931   2.891   1.162  0.2307 -0.1807 -0.0793
 2785SOL    HW120414   7.945   2.963   1.093  0.1301 -0.1697 -0.0883
 2785SOL    HW220415   7.986   2.811   1.138  0.2792 -0.1371 -0.1144
 2786SOL     OW20416   3.422   1.101   7.800  0.4900 -0.2582 -1.0342
 2786SOL    HW120417   3.397   1.145   7.887 -1.9241 -1.5102 -1.0328
 2786SOL    HW220418   3.436   1.171   7.730  2.3194  0.7599  0.3129
 2787SOL     OW20419   8.232   8.362   0.509 -0.3181  0.1839 -0.2694
 2787SOL    HW120420   8.313   8.420   0.512  0.9349 -1.5824  1.5155
 2787SOL    HW220421   8.240   8.297   0.434  0.9603 -1.4031  1.2080
 2788SOL     OW20422   2.030   5.929   0.898 -0.0606  0.3026 -0.4747
 2788SOL    HW120423   2.050   5.841   0.941  0.3743 -0.0625 -1.4011
 2788SOL    HW220424   1.932   5.946   0.901 -0.2785 -0.7474 -1.2914
 2789SOL     OW20425   4.294   5.863   2.722 -0.3660 -0.0161 -0.3204
 2789SOL    HW120426   4.283   5.790   2.789 -1.1679  0.0542 -0.3768
 2789SOL    HW220427   4.207   5.879   2.675  0.2759 -0.2993 -1.6205
 2790SOL     OW20428   7.303   6.103   3.199 -0.2586 -0.3592 -0.3667
 2790SOL    HW120429   7.354   6.043   3.261  0.2096 -0.4992 -0.8886
 2790SOL    HW220430   7.297   6.060   3.109  0.2786  0.4921 -0.8111
 2791SOL     OW20431   5.156   0.960   7.205  0.0239  0.3269  0.1213
 2791SOL    HW120432   5.155   1.060   7.212 -1.2127  0.3627 -0.5558
 2791SOL    HW220433   5.158   0.920   7.297  1.5817  0.9707  0.3832
 2792SOL     OW20434   3.790   8.639   1.597  0.1731 -0.0244  0.4289
 2792SOL    HW120435   3.801   8.559   1.655  1.5105 -1.9582 -2.3892
 2792SOL    HW220436   3.694   8.645   1.567 -0.3988  0.6748  2.3206
 2793SOL     OW20437   1.960   1.239   0.066 -0.3069 -0.3563 -0.0213
 2793SOL    HW120438   2.018   1.176   0.015  0.4072 -1.1901  1.8058
 2793SOL    HW220439   1.911   1.298   0.001  1.0390 -0.9788 -1.6457
 2794SOL     OW20440   1.890   7.977   7.692  0.0861 -0.2608 -0.3925
 2794SOL    HW120441   1.968   8.038   7.704 -1.3338  1.5178  0.0116
 2794SOL    HW220442   1.807   8.023   7.722 -1.1775 -2.0134 -1.1209
 2795SOL     OW20443   4.783   5.444   3.095 -0.1166  0.3646  0.2116
 2795SOL    HW120444   4.686   5.442   3.122  0.0121 -2.8581  0.7014
 2795SOL    HW220445   4.790   5.455   2.996 -1.1337 -1.8905 -0.1593
 2796SOL     OW20446   5.376   9.346   1.228  0.2036 -0.1747  0.1789
 2796SOL    HW120447   5.472   9.323   1.216  0.5077  1.4622 -0.6965
 2796SOL    HW220448   5.320   9.297   1.161  0.4737 -0.7766  0.3946
 2797SOL     OW20449   2.021   8.691   3.995  0.3319  0.3184  0.1937
 2797SOL    HW120450   2.105   8.740   4.017 -0.8413  2.5199 -0.0402
 2797SOL    HW220451   2.039   8.593   3.991  2.2769  0.5090  2.9253
 2798SOL     OW20452   5.523   9.531   7.576  0.1825 -0.0752 -0.0350
 2798SOL    HW120453   5.513   9.511   7.674  0.4211  0.9389  0.2118
 2798SOL    HW220454   5.439   9.574   7.543  0.2250 -0.1166 -0.1930
 2799SOL     OW20455   4.827   9.205   6.140  0.1971 -0.0764 -0.0446
 2799SOL    HW120456   4.817   9.148   6.058 -0.2029  0.2330 -0.2116
 2799SOL    HW220457   4.832   9.301   6.113 -2.5100  0.2362  0.4531
 2800SOL     OW20458   1.428   2.451   0.412  0.3136 -0.0726 -0.2102
 2800SOL    HW120459   1.526   2.455   0.432  0.4888  1.7070 -1.3307
 2800SOL    HW220460   1.377   2.448   0.498  1.2829  0.9393  0.4097
 2801SOL     OW20461   2.905   5.979   0.914  0.6446  0.4876  0.0828
 2801SOL    HW120462   2.900   6.075   0.889  0.1403  0.7134  1.0275
 2801SOL    HW220463   2.895   5.922   0.831 -2.6454  1.1805 -0.0846
 2802SOL     OW20464   2.361   5.671   8.926 -0.0749  0.3679 -0.2443
 2802SOL    HW120465   2.348   5.751   8.869 -1.1540  0.3897  0.0173
 2802SOL    HW220466   2.313   5.683   9.013  1.2600  0.1926  0.5311
 2803SOL     OW20467   9.368   5.798   3.400  0.1235  0.3617 -0.0429
 2803SOL    HW120468   9.392   5.702   3.388 -0.0891  0.5082 -1.7829
 2803SOL    HW220469   9.278   5.805   3.444  0.2012 -0.2287  0.2060
 2804SOL     OW20470   1.742   4.550   1.300  0.1606  0.3167 -0.6156
 2804SOL    HW120471   1.738   4.578   1.204  0.0702 -0.4214 -0.8311
 2804SOL    HW220472   1.811   4.604   1.347 -1.0170  1.8990 -0.6785
 2805SOL     OW20473   1.527   4.742   3.202  0.9973  0.2358 -0.3864
 2805SOL    HW120474   1.503   4.648   3.226  2.3804 -0.0261  0.0240
 2805SOL    HW220475   1.450   4.803   3.222  0.6517 -0.5820  0.8001
 2806SOL     OW20476   8.089   8.939   6.484 -0.3270  0.0080 -0.8659
 2806SOL    HW120477   8.132   8.916   6.571  1.6471  1.6240 -1.3847
 2806SOL    HW220478   7.994   8.968   6.500  0.2816  1.1184  0.8435
 2807SOL     OW20479   3.923   8.313   0.111  0.3555  0.2121 -0.3825
 2807SOL    HW120480   3.935   8.304   0.012  0.0694 -0.8656 -0.3242
 2807SOL    HW220481   3.825   8.315   0.133  0.4105 -0.6607 -0.0339
 2808SOL     OW20482   6.782   5.930   1.947  0.4878 -0.1218  0.4033
 2808SOL    HW120483   6.837   6.010   1.970  0.8768 -0.0409 -0.7574
 2808SOL    HW220484   6.809   5.896   1.856 -1.0519 -0.3628  0.0163
 2809SOL     OW20485   0.926   6.731   3.464 -0.1128  0.2683 -0.4420
 2809SOL    HW120486   0.941   6.799   3.392 -2.9893  1.6214  0.1694
 2809SOL    HW220487   0.994   6.659   3.456  0.9685  1.5174 -3.1649
 2810SOL     OW20488   9.385   6.597   7.137  0.5270 -0.5438  0.2020
 2810SOL    HW120489   9.418   6.534   7.208  1.8394  1.0489  1.0481
 2810SOL    HW220490   9.307   6.649   7.171  0.7717 -0.2137  0.2612
 2811SOL     OW20491   1.297   2.170   6.214  0.2340  0.1191 -0.0153
 2811SOL    HW120492   1.319   2.265   6.191 -0.7833 -0.3328 -3.1355
 2811SOL    HW220493   1.325   2.110   6.138  0.7286 -2.0686  1.8397
 2812SOL     OW20494   1.485   7.171   1.730  0.3121 -0.1703  0.2725
 2812SOL    HW120495   1.578   7.173   1.694  0.6609  1.6384  1.2290
 2812SOL    HW220496   1.486   7.133   1.823  0.0988 -0.1541  0.2812
 2813SOL     OW20497   7.224   2.944   1.286  0.1192  0.2348 -0.6423
 2813SOL    HW120498   7.296   3.003   1.251  1.8785 -1.5543 -0.1489
 2813SOL    HW220499   7.174   2.904   1.209  0.8615  0.0425 -1.0240
 2814SOL     OW20500   4.549   3.702   2.270  0.4474  0.4094  0.7097
 2814SOL    HW120501   4.486   3.758   2.217  2.0856  0.1935 -1.5308
 2814SOL    HW220502   4.623   3.669   2.211  1.9722 -0.3909  2.9831
 2815SOL     OW20503   3.088   9.395   2.940  0.3381 -0.0574 -0.9979
 2815SOL    HW120504   3.150   9.410   3.017  0.7804 -0.7812 -1.2133
 2815SOL    HW220505   3.090   9.474   2.879  1.3604 -0.2715 -1.2324
 2816SOL     OW20506   3.538   2.327   0.382  0.5965  0.0700 -0.6040
 2816SOL    HW120507   3.472   2.358   0.450  2.2946  1.7791  0.3256
 2816SOL    HW220508   3.566   2.233   0.402 -2.1964 -1.0365 -1.5696
 2817SOL     OW20509   4.823   0.222   1.343 -0.3017  0.0091  0.4368
 2817SOL    HW120510   4.873   0.160   1.282 -0.7700 -0.3897  0.4476
 2817SOL    HW220511   4.774   0.168   1.412  0.9311  0.5116  1.7199
 2818SOL     OW20512   8.471   8.241   6.383 -0.3787 -0.1382  0.2104
 2818SOL    HW120513   8.404   8.258   6.311  1.9457  0.4541 -1.8813
 2818SOL    HW220514   8.499   8.145   6.381 -0.3324 -0.1278  0.3526
 2819SOL     OW20515   1.931   3.967   1.927  0.0117  0.7330  0.0456
 2819SOL    HW120516   1.986   3.886   1.949  0.9751  1.1353 -0.8748
 2819SOL    HW220517   1.883   3.998   2.009  1.7188  0.8070  1.0319
 2820SOL     OW20518   7.346   8.981   6.272  0.0799 -0.4830  0.1507
 2820SOL    HW120519   7.382   9.032   6.350  0.7717 -0.3092 -0.2760
 2820SOL    HW220520   7.394   8.893   6.264 -0.4630 -0.7935  0.3319
 2821SOL     OW20521   1.177   4.071   5.547  0.0012 -0.1189 -0.3494
 2821SOL    HW120522   1.118   4.090   5.468 -0.9142  1.6785  0.7322
 2821SOL    HW220523   1.189   4.155   5.600  0.3992 -1.3703  1.5690
 2822SOL     OW20524   7.686   2.402   3.318  0.7899 -0.3252  0.1541
 2822SOL    HW120525   7.705   2.402   3.220 -0.8966 -0.2042 -0.1866
 2822SOL    HW220526   7.715   2.315   3.358 -2.2962 -2.0858 -1.2417
 2823SOL     OW20527   2.671   2.232   6.001 -0.0046  0.3260 -0.3780
 2823SOL    HW120528   2.736   2.304   5.979  1.6677 -1.4667 -1.4929
 2823SOL    HW220529   2.690   2.151   5.945 -1.9460 -0.9371  0.6948
 2824SOL     OW20530   0.756   7.203   8.931 -0.1207  0.0260  0.2355
 2824SOL    HW120531   0.703   7.126   8.895  2.0595 -0.3843 -2.2236
 2824SOL    HW220532   0.853   7.181   8.929  0.4057  2.0593  1.4972
 2825SOL     OW20533   9.979   9.102   5.756 -0.2083  0.0612  0.0161
 2825SOL    HW120534   9.927   9.135   5.834 -0.1470  1.3503 -0.4718
 2825SOL    HW220535  10.074   9.132   5.764 -0.2543  0.4048 -0.6717
 2826SOL     OW20536   4.498   1.895   0.663  0.0561 -0.8341  0.1618
 2826SOL    HW120537   4.543   1.984   0.668  1.9388 -1.8601  1.9494
 2826SOL    HW220538   4.562   1.823   0.690 -1.6342 -2.6880 -0.6095
 2827SOL     OW20539   1.965   8.492   8.287  0.0812 -0.7706  0.7213
 2827SOL    HW120540   1.970   8.510   8.189 -1.3843 -0.5040  0.6722
 2827SOL    HW220541   1.895   8.422   8.304  0.6388 -1.1381  1.5390
 2828SOL     OW20542   4.433   9.538   9.364  0.1996 -0.2769  0.2319
 2828SOL    HW120543   4.405   9.500   9.453  2.2596 -1.4563  0.3988
 2828SOL    HW220544   4.527   9.512   9.345 -0.4885 -0.7609 -2.7165
 2829SOL     OW20545   4.871   4.154   0.044 -0.2331  0.0291 -0.4798
 2829SOL    HW120546   4.952   4.187   0.093  1.2225 -1.6854 -1.6487
 2829SOL    HW220547   4.841   4.068   0.084 -0.4112 -0.2321 -1.1686
 2830SOL     OW20548   4.869   4.877   8.129 -0.2332 -0.3304 -0.5389
 2830SOL    HW120549   4.796   4.893   8.061 -0.2202 -0.5425 -0.6033
 2830SOL    HW220550   4.832   4.891   8.221  0.3898  2.4758 -0.6763
 2831SOL     OW20551   8.448   3.686   9.802  0.4750  0.0275  0.2637
 2831SOL    HW120552   8.525   3.722   9.749 -0.1026 -0.2835 -0.7968
 2831SOL    HW220553   8.371   3.666   9.741  0.1203 -1.2204  1.0916
 2832SOL     OW20554   6.937   2.743   4.831 -0.7369  0.7668  0.1946
 2832SOL    HW120555   7.030   2.745   4.868 -1.8784  2.1413  3.2153
 2832SOL    HW220556   6.940   2.749   4.731  2.3813  1.4290  0.2756
 2833SOL     OW20557   4.773   3.579   8.473 -0.3144  0.2931  0.7255
 2833SOL    HW120558   4.853   3.609   8.422 -0.9192  0.9619  0.1514
 2833SOL    HW220559   4.753   3.483   8.450 -0.0468  0.3143  0.3999
 2834SOL     OW20560   9.152   2.183   3.655 -0.2871 -0.5151  0.2555
 2834SOL    HW120561   9.165   2.085   3.672  1.3850 -0.6689 -1.6562
 2834SOL    HW220562   9.231   2.219   3.606 -1.8522  1.3228 -1.0100
 2835SOL     OW20563   6.980   2.058   0.635 -0.1543  0.5822  0.3224
 2835SOL    HW120564   6.998   2.083   0.539 -1.9146  0.4539 -0.0480
 2835SOL    HW220565   6.910   2.118   0.673  0.2550  0.3785  1.4270
 2836SOL     OW20566   3.911   5.193   1.302 -0.0231  0.0527  0.1448
 2836SOL    HW120567   3.986   5.217   1.240  1.0924  0.3260  1.5680
 2836SOL    HW220568   3.862   5.276   1.328 -3.0551 -0.4706 -3.4946
 2837SOL     OW20569   7.688   0.325   8.773  0.3758 -0.0195 -0.9461
 2837SOL    HW120570   7.674   0.228   8.793  2.2528  0.0507  0.8109
 2837SOL    HW220571   7.600   0.367   8.751 -1.1498 -1.1526  2.5913
 2838SOL     OW20572   4.286   1.481   8.809 -0.4873  0.0186  0.2897
 2838SOL    HW120573   4.255   1.569   8.844 -0.4230 -0.0548  0.5343
 2838SOL    HW220574   4.347   1.439   8.875 -0.4727 -0.1836  0.1489
 2839SOL     OW20575   0.929   9.034   6.420 -0.0054 -0.3470  0.1890
 2839SOL    HW120576   0.905   8.974   6.497  0.5371 -1.3527 -0.4124
 2839SOL    HW220577   0.989   8.985   6.357  0.0941  0.6939 -0.5430
 2840SOL     OW20578   6.442   7.905   4.884 -0.4550 -0.1529 -0.2025
 2840SOL    HW120579   6.527   7.955   4.873 -0.0073 -0.8855 -0.1287
 2840SOL    HW220580   6.365   7.963   4.858  0.1557  0.1119 -1.4128
 2841SOL     OW20581   6.096   9.685   5.714 -0.5604 -0.1832 -0.4370
 2841SOL    HW120582   6.152   9.602   5.716 -1.6569 -0.9381  2.9117
 2841SOL    HW220583   6.115   9.739   5.797 -1.4449  1.8549 -1.5295
 2842SOL     OW20584   6.238   7.675   3.133  0.1096  0.5441  0.3075
 2842SOL    HW120585   6.283   7.596   3.092 -0.9280  0.3892 -0.5811
 2842SOL    HW220586   6.275   7.759   3.094  0.2417  0.4475  0.2243
 2843SOL     OW20587   1.306   4.115   1.593 -0.1367  0.2940 -0.3253
 2843SOL    HW120588   1.391   4.120   1.646  0.9048  0.6561 -1.9780
 2843SOL    HW220589   1.287   4.205   1.553 -0.4419 -0.1799 -1.2490
 2844SOL     OW20590   1.039   3.841   8.996 -0.7939  0.7843  0.0962
 2844SOL    HW120591   1.063   3.763   8.939 -1.7225  0.9061 -0.4794
 2844SOL    HW220592   1.122   3.893   9.018 -0.0533 -0.8315  1.2081
 2845SOL     OW20593   4.926   4.184   6.850 -0.0609  0.3844 -0.5689
 2845SOL    HW120594   4.844   4.175   6.793  0.2092  0.1419 -0.9178
 2845SOL    HW220595   4.932   4.278   6.884 -1.4513 -0.0651  0.9362
 2846SOL     OW20596   1.305   5.947   6.675  0.2126 -0.3374 -0.0253
 2846SOL    HW120597   1.304   6.045   6.698 -2.0639 -0.6478  1.4201
 2846SOL    HW220598   1.398   5.919   6.654  1.4725  1.4278  2.8030
 2847SOL     OW20599   4.878   6.189   1.532  0.7294  0.1645 -0.0666
 2847SOL    HW120600   4.832   6.249   1.466  0.2145  2.0180  1.9207
 2847SOL    HW220601   4.969   6.224   1.551  1.4026 -1.1389 -0.7843
 2848SOL     OW20602   1.884   4.239   7.852  1.1561 -0.3268 -0.3306
 2848SOL    HW120603   1.980   4.224   7.876  1.0007  0.5789  0.9121
 2848SOL    HW220604   1.851   4.323   7.895 -1.5296 -3.0884  3.3329
 2849SOL     OW20605   8.113   8.270   6.621 -0.1136 -0.2025  0.1707
 2849SOL    HW120606   8.117   8.366   6.593  0.5686 -0.4485 -0.6107
 2849SOL    HW220607   8.056   8.261   6.703 -3.0785  0.4104 -1.7425
 2850SOL     OW20608   9.326   2.689  10.035  0.6328  0.5669 -0.6147
 2850SOL    HW120609   9.324   2.594  10.004 -0.3111 -0.0187  1.1494
 2850SOL    HW220610   9.272   2.745   9.973 -0.1550 -0.3556 -0.7927
 2851SOL     OW20611   2.010   8.170   3.005  0.8116  0.5596 -0.0681
 2851SOL    HW120612   2.001   8.235   2.930  0.7733  2.1153  1.2804
 2851SOL    HW220613   2.066   8.092   2.974  0.6405  1.0724 -1.7591
 2852SOL     OW20614   3.089   1.255   1.008 -0.0320 -0.1113  0.6052
 2852SOL    HW120615   2.992   1.261   0.987 -0.0312 -0.7079  0.4113
 2852SOL    HW220616   3.127   1.172   0.966  0.4874 -0.0518  0.9540
 2853SOL     OW20617   9.849   3.097   0.064 -0.2500  0.6202 -0.5517
 2853SOL    HW120618   9.898   3.164   0.120  0.4195 -1.4989  1.4640
 2853SOL    HW220619   9.752   3.096   0.090 -0.0285 -0.0332  0.2711
 2854SOL     OW20620   9.837   1.901   1.316 -0.4743 -0.5624  0.3664
 2854SOL    HW120621   9.810   1.860   1.403 -0.5144  1.6464  1.4319
 2854SOL    HW220622   9.937   1.902   1.310 -0.4054  0.9076  1.2507
 2855SOL     OW20623   9.881   7.974   2.346  0.0119 -0.2648  1.0892
 2855SOL    HW120624   9.823   7.899   2.380  0.1910 -1.5477 -1.3017
 2855SOL    HW220625   9.969   7.937   2.319  0.6684  1.1022  1.3570
 2856SOL     OW20626   3.413   4.444   4.367 -0.6640 -0.0775 -0.3425
 2856SOL    HW120627   3.349   4.452   4.444 -0.9470  0.4181 -0.6248
 2856SOL    HW220628   3.362   4.421   4.285 -0.4709  0.2673 -0.5594
 2857SOL     OW20629   7.262   5.885   2.474  0.1329 -0.7364 -0.4184
 2857SOL    HW120630   7.267   5.984   2.461 -1.7483 -0.6899 -0.8383
 2857SOL    HW220631   7.297   5.839   2.392 -0.3046 -0.4261 -0.7754
 2858SOL     OW20632   0.951   3.115   6.579  0.3827  0.1268 -0.0766
 2858SOL    HW120633   0.865   3.106   6.528  0.9476  0.6615 -1.1296
 2858SOL    HW220634   0.948   3.198   6.634 -0.4798 -0.7769  1.2613
 2859SOL     OW20635   0.348   3.941   2.074  0.2516  0.3269 -0.1768
 2859SOL    HW120636   0.266   3.944   2.132 -1.1556 -0.7378 -2.0408
 2859SOL    HW220637   0.324   3.970   1.982  2.1138  0.5231 -0.6123
 2860SOL     OW20638   9.421   3.980   0.246  0.0590 -0.2956 -0.3676
 2860SOL    HW120639   9.436   4.063   0.299  0.0183  0.9944 -2.3101
 2860SOL    HW220640   9.348   3.926   0.288 -0.5969  1.1519  0.3803
 2861SOL     OW20641   9.144   3.704   3.836 -0.1536  0.0599  0.1881
 2861SOL    HW120642   9.176   3.655   3.916  0.6898  2.4837  1.3845
 2861SOL    HW220643   9.119   3.798   3.861 -0.2152  0.7653 -2.3040
 2862SOL     OW20644   9.135   4.646   9.184 -0.3566  0.2752 -0.1492
 2862SOL    HW120645   9.130   4.645   9.284 -0.3358 -3.1549 -0.1073
 2862SOL    HW220646   9.222   4.687   9.155  0.0072  0.5150  1.2569
 2863SOL     OW20647   9.065   4.124   4.429  0.3738  0.4943 -0.2435
 2863SOL    HW120648   9.006   4.203   4.444 -1.1037 -0.7054  0.4789
 2863SOL    HW220649   9.157   4.154   4.406 -0.5090  2.4106 -1.3221
 2864SOL     OW20650   7.224   2.727   1.460  0.2090 -0.2244 -0.2249
 2864SOL    HW120651   7.235   2.651   1.396  1.0962 -0.0384 -0.3024
 2864SOL    HW220652   7.204   2.811   1.409  2.8115  0.3173 -0.4419
 2865SOL     OW20653   2.596   6.965   4.170  0.0986  0.2785 -0.6467
 2865SOL    HW120654   2.572   7.049   4.218  0.0708  0.2584 -0.6253
 2865SOL    HW220655   2.533   6.892   4.197 -0.1341  0.3560 -0.9769
 2866SOL     OW20656   0.418   9.901   0.122 -0.4005  0.0415 -0.5478
 2866SOL    HW120657   0.423   9.811   0.167 -2.7165 -0.1679 -0.6643
 2866SOL    HW220658   0.377   9.967   0.184 -0.2586  0.6348 -1.0780
 2867SOL     OW20659   0.544   0.844   9.404 -0.3169  0.4395 -0.1106
 2867SOL    HW120660   0.611   0.866   9.333  0.2380 -0.0004  0.2679
 2867SOL    HW220661   0.468   0.792   9.364 -0.2756  0.6637 -0.4815
 2868SOL     OW20662   6.947   2.994   0.786 -0.2472 -0.0633  0.2783
 2868SOL    HW120663   6.990   3.084   0.797  0.0475  0.2997 -3.4461
 2868SOL    HW220664   6.851   3.006   0.762 -0.2341 -0.7359 -0.1070
 2869SOL     OW20665   2.411   2.296   7.128  0.1886  0.2649  0.4886
 2869SOL    HW120666   2.335   2.232   7.140 -0.3204  0.4813 -1.3640
 2869SOL    HW220667   2.374   2.386   7.104  1.0008  0.5626  0.3613
 2870SOL     OW20668   3.181   2.042   2.580 -0.2221 -0.2267  0.1100
 2870SOL    HW120669   3.126   2.114   2.622  1.1134  0.2213  1.1579
 2870SOL    HW220670   3.160   2.036   2.483  0.3231  2.2747 -0.2219
 2871SOL     OW20671   4.953   8.349   3.893  0.5232  0.2373 -0.3757
 2871SOL    HW120672   4.889   8.422   3.917  1.7559  1.2797 -0.1985
 2871SOL    HW220673   5.046   8.383   3.901  1.1687 -1.8362  1.2210
 2872SOL     OW20674   3.554   4.432   3.219  0.5342 -0.2784  0.1206
 2872SOL    HW120675   3.479   4.367   3.234  1.0685 -0.5451  1.8050
 2872SOL    HW220676   3.642   4.386   3.236  0.9051  0.9464  1.6234
 2873SOL     OW20677   2.458   0.187   0.782 -0.0985 -0.4412 -0.4730
 2873SOL    HW120678   2.456   0.282   0.751 -2.6045 -0.6357 -0.9931
 2873SOL    HW220679   2.507   0.181   0.869  2.2088  0.9266 -1.6164
 2874SOL     OW20680   9.612   8.627   2.605  0.0712 -0.4452  0.3396
 2874SOL    HW120681   9.652   8.662   2.690  0.3871  2.4691 -0.9512
 2874SOL    HW220682   9.646   8.534   2.588  2.1637 -0.0142  1.9677
 2875SOL     OW20683   2.512   9.913   3.010 -0.1045  0.4353  0.2786
 2875SOL    HW120684   2.570   9.899   2.930  0.2313  0.2132  0.5538
 2875SOL    HW220685   2.554   9.982   3.070 -0.8899  1.3651 -0.2434
 2876SOL     OW20686   2.715   5.699   2.164 -0.2998  0.7408 -0.2717
 2876SOL    HW120687   2.757   5.735   2.247 -1.0796  1.3840 -0.1523
 2876SOL    HW220688   2.623   5.667   2.185 -0.6020  1.1698 -0.9553
 2877SOL     OW20689   4.614   6.453   9.346 -0.7237 -0.4121  0.3122
 2877SOL    HW120690   4.579   6.372   9.299  1.4705 -0.1700 -1.9003
 2877SOL    HW220691   4.708   6.436   9.375 -0.3184  1.2407  0.0348
 2878SOL     OW20692   7.428   7.526   5.774 -0.1978 -0.6009  0.7176
 2878SOL    HW120693   7.447   7.444   5.828  0.3836 -1.3703 -0.6205
 2878SOL    HW220694   7.513   7.562   5.737 -0.5976 -0.1500  0.2225
 2879SOL     OW20695   5.836   1.991   5.545 -0.5236 -0.2025 -0.0307
 2879SOL    HW120696   5.897   2.033   5.612  0.0469 -1.7137  0.4183
 2879SOL    HW220697   5.799   1.906   5.582 -0.5195 -0.8494 -1.4507
 2880SOL     OW20698   9.672   8.996   1.473 -0.3305 -0.3317  0.1085
 2880SOL    HW120699   9.646   8.899   1.463 -2.4612  0.2305 -0.0423
 2880SOL    HW220700   9.679   9.018   1.571  0.0050 -0.5921  0.1448
 2881SOL     OW20701   8.045   2.434   1.825  0.4820 -0.1919  0.5692
 2881SOL    HW120702   8.114   2.362   1.820  0.0837 -0.6009  0.8281
 2881SOL    HW220703   8.006   2.450   1.734 -0.0996 -0.9790  0.6723
 2882SOL     OW20704   3.851   0.110   7.724  0.5485  0.3050  0.2941
 2882SOL    HW120705   3.766   0.152   7.755 -0.2419 -0.6841 -0.5166
 2882SOL    HW220706   3.911   0.094   7.803 -0.7215 -0.5699  1.0986
 2883SOL     OW20707   3.029   5.739   3.164 -0.8918  0.9632 -0.1245
 2883SOL    HW120708   2.941   5.784   3.176 -0.8010  0.9942  0.4432
 2883SOL    HW220709   3.093   5.800   3.117 -0.2518  2.0681  2.1058
 2884SOL     OW20710   0.781   8.022   2.866  0.7093 -0.4356 -0.2434
 2884SOL    HW120711   0.877   8.048   2.876 -0.0301  1.3811  2.5926
 2884SOL    HW220712   0.722   8.100   2.887 -1.4204 -1.2601 -2.7975
 2885SOL     OW20713   4.172   1.877   0.845  0.1511  0.1893  0.5477
 2885SOL    HW120714   4.247   1.909   0.903  1.8233 -0.7574 -1.0560
 2885SOL    HW220715   4.201   1.878   0.750 -1.9193 -0.1321 -0.1067
 2886SOL     OW20716   1.803   5.862   6.155  0.3870 -0.2628 -0.1204
 2886SOL    HW120717   1.732   5.912   6.206  0.6733  0.9766 -0.9101
 2886SOL    HW220718   1.885   5.853   6.212 -1.0898 -3.6178  1.6248
 2887SOL     OW20719   3.883   8.835   8.250  0.3697 -0.1951 -0.4206
 2887SOL    HW120720   3.836   8.803   8.332  1.2125 -0.0847  0.1020
 2887SOL    HW220721   3.830   8.808   8.169  0.1572 -1.3647  0.0982
 2888SOL     OW20722   2.310   6.003   7.961 -0.1398 -0.4986  0.0204
 2888SOL    HW120723   2.281   6.025   7.868  1.2265  0.8245 -0.1099
 2888SOL    HW220724   2.395   5.949   7.958  0.8961  1.0727  0.5258
 2889SOL     OW20725   9.401   7.417   9.405  0.0950  0.0321 -0.3255
 2889SOL    HW120726   9.377   7.445   9.498 -0.0971  2.1694 -0.9936
 2889SOL    HW220727   9.459   7.336   9.409  0.4182  0.3339  1.6786
 2890SOL     OW20728   7.917   9.316   2.180  0.4355  0.2353 -0.0101
 2890SOL    HW120729   7.972   9.233   2.191 -1.0097 -0.9358 -1.3637
 2890SOL    HW220730   7.946   9.364   2.097 -0.4525 -0.3035 -0.6410
 2891SOL     OW20731   1.937   5.091   5.946 -0.4360 -0.0496  0.1020
 2891SOL    HW120732   1.958   5.134   6.034  0.6319 -1.5076  0.5799
 2891SOL    HW220733   1.991   5.008   5.936 -1.7369 -0.7627 -1.2334
 2892SOL     OW20734   5.701   9.225   8.234  0.1263 -0.1029 -0.5553
 2892SOL    HW120735   5.655   9.158   8.292  0.1504 -0.6776 -1.1933
 2892SOL    HW220736   5.730   9.181   8.149  2.1816  0.1511 -0.0136
 2893SOL     OW20737   1.686   1.803   2.940 -0.2244 -0.1709 -0.0728
 2893SOL    HW120738   1.698   1.899   2.961 -0.0012 -0.7591  2.6449
 2893SOL    HW220739   1.724   1.783   2.849 -1.0024  2.4196 -0.9915
 2894SOL     OW20740   1.381   1.400   4.625 -0.2070 -0.1734  0.1055
 2894SOL    HW120741   1.390   1.468   4.552  0.8003 -0.6783 -0.2583
 2894SOL    HW220742   1.365   1.310   4.585  1.0844 -0.5744  0.4652
 2895SOL     OW20743   7.201   3.474   9.333 -0.2371  0.6196  0.5348
 2895SOL    HW120744   7.166   3.384   9.307  1.3750  1.0559 -3.4518
 2895SOL    HW220745   7.142   3.546   9.295  0.5066  1.2731  0.6007
 2896SOL     OW20746   3.775   5.178   3.502  0.5579 -0.4627  1.0150
 2896SOL    HW120747   3.716   5.098   3.513 -0.2145 -0.0905 -0.4359
 2896SOL    HW220748   3.720   5.261   3.504  0.9862 -0.1246 -0.6113
 2897SOL     OW20749   3.617   2.229   5.730 -0.4819 -0.6291  0.1620
 2897SOL    HW120750   3.656   2.313   5.693  0.4049 -1.0482  0.1389
 2897SOL    HW220751   3.688   2.178   5.778 -0.8135 -1.8022 -0.5838
 2898SOL     OW20752   1.865   7.443   2.763 -0.2589  0.4691  0.2017
 2898SOL    HW120753   1.926   7.472   2.689 -0.7773  0.0906 -0.3748
 2898SOL    HW220754   1.777   7.489   2.752 -1.0669 -1.2504 -0.6751
 2899SOL     OW20755   9.101   7.268   6.114  0.4421  0.8219  0.0107
 2899SOL    HW120756   9.056   7.196   6.061 -2.8805  2.4098  0.5821
 2899SOL    HW220757   9.131   7.341   6.052  1.5857  0.1273 -0.2765
 2900SOL     OW20758   5.492   5.312   0.152  0.0205 -0.5886 -0.2023
 2900SOL    HW120759   5.431   5.363   0.091  1.3801  1.4908  0.0998
 2900SOL    HW220760   5.570   5.370   0.177  1.3645 -2.6591  0.6046
 2901SOL     OW20761   7.199   1.587   5.527  0.1454  0.8091 -0.4274
 2901SOL    HW120762   7.211   1.488   5.539 -1.3051  0.6286 -0.3753
 2901SOL    HW220763   7.271   1.622   5.467  1.3135 -0.0799  0.4260
 2902SOL     OW20764   1.475   5.433   4.256  0.1203 -0.1954 -0.9049
 2902SOL    HW120765   1.441   5.381   4.334  0.6603 -0.8310 -1.0839
 2902SOL    HW220766   1.526   5.371   4.195  0.3531  0.4475 -1.3627
 2903SOL     OW20767   6.186   5.373   0.105  0.2468  0.0308 -0.4685
 2903SOL    HW120768   6.183   5.408   0.012  0.2680  2.6873  0.5026
 2903SOL    HW220769   6.094   5.379   0.145  0.0177 -2.0508 -0.6361
 2904SOL     OW20770   4.450   8.457   6.920  0.8286 -0.0878  0.3651
 2904SOL    HW120771   4.371   8.414   6.877 -0.1598  1.8129  0.2118
 2904SOL    HW220772   4.509   8.387   6.961 -1.2996 -1.4601  1.1117
 2905SOL     OW20773   2.271   7.832   6.592  0.0029  0.2263  0.0368
 2905SOL    HW120774   2.199   7.763   6.589  0.1032  0.1323 -0.3701
 2905SOL    HW220775   2.348   7.799   6.647 -1.4767  1.5353  3.0042
 2906SOL     OW20776   9.755   5.310   3.451 -0.1451 -0.5251 -0.2584
 2906SOL    HW120777   9.756   5.318   3.551 -0.6009 -1.2361 -0.1865
 2906SOL    HW220778   9.847   5.290   3.418  0.4655  2.1060 -0.2086
 2907SOL     OW20779   8.540   5.262   7.617 -0.1349  0.4165  0.4667
 2907SOL    HW120780   8.626   5.313   7.618 -0.1261  0.4882 -1.7771
 2907SOL    HW220781   8.482   5.295   7.542 -1.8504 -0.0691  1.5474
 2908SOL     OW20782   9.667   7.667   0.155 -0.5345 -0.2577 -0.4504
 2908SOL    HW120783   9.710   7.749   0.193  2.0054 -2.1174  0.8457
 2908SOL    HW220784   9.586   7.644   0.210 -0.9439  1.0656 -0.4891
 2909SOL     OW20785   2.633   9.788   3.347 -0.2834  0.4554  0.1671
 2909SOL    HW120786   2.682   9.873   3.331  0.7409 -0.3664 -1.1051
 2909SOL    HW220787   2.564   9.803   3.418  0.4134  2.1330  0.5216
 2910SOL     OW20788   7.142   1.385   4.920  0.8140 -0.3177  0.4660
 2910SOL    HW120789   7.102   1.296   4.901  2.5179 -1.4169  1.8215
 2910SOL    HW220790   7.228   1.395   4.870  0.1381  0.9759 -0.4566
 2911SOL     OW20791   8.840   3.361   7.685 -0.1881  0.0775  0.4135
 2911SOL    HW120792   8.934   3.394   7.675 -0.3911  0.5923  0.1776
 2911SOL    HW220793   8.839   3.283   7.748  0.3902  0.0889  0.4460
 2912SOL     OW20794   6.362   5.915   9.029  0.8543 -0.4500 -0.8577
 2912SOL    HW120795   6.314   5.841   9.076 -2.3604  1.3099 -1.2253
 2912SOL    HW220796   6.368   5.895   8.932  1.4606 -0.9593 -0.7210
 2913SOL     OW20797   6.443   8.566   4.632 -0.1172  0.5511 -0.1545
 2913SOL    HW120798   6.490   8.519   4.557 -0.8802 -0.4467 -0.0240
 2913SOL    HW220799   6.510   8.607   4.693  0.5649 -0.1115 -0.4474
 2914SOL     OW20800   3.457   9.480   5.789  0.1730  0.0728 -0.0281
 2914SOL    HW120801   3.487   9.395   5.746 -1.2081  0.0567 -1.0028
 2914SOL    HW220802   3.523   9.553   5.770 -0.1348 -0.0667 -1.7396
 2915SOL     OW20803   4.988   8.981   2.555 -0.1994 -0.2450 -0.3035
 2915SOL    HW120804   4.971   8.885   2.579 -0.4777 -0.0256  0.3981
 2915SOL    HW220805   4.910   9.017   2.504 -0.4068 -0.1934  0.0442
 2916SOL     OW20806   1.504   5.111   4.018  0.0851  0.0501 -0.5326
 2916SOL    HW120807   1.464   5.034   3.969 -0.4836 -0.6295  0.9925
 2916SOL    HW220808   1.475   5.110   4.113  2.9400  0.1115  0.3870
 2917SOL     OW20809   8.363   7.961   1.806  0.1168 -0.0677  0.1890
 2917SOL    HW120810   8.429   7.907   1.754  0.6888 -0.0109  0.8491
 2917SOL    HW220811   8.373   7.941   1.903 -1.6160 -0.9160  0.2098
 2918SOL     OW20812   3.470   0.124   7.474  0.3952  1.1097 -0.1687
 2918SOL    HW120813   3.419   0.198   7.431  0.1502  0.2030 -1.4347
 2918SOL    HW220814   3.415   0.085   7.548  0.4434  2.0535  0.3752
 2919SOL     OW20815   2.045   6.591   3.221 -0.0320  0.0305 -0.2770
 2919SOL    HW120816   1.947   6.610   3.217 -0.1053  0.0889  1.5040
 2919SOL    HW220817   2.079   6.606   3.314  1.4225 -1.1581 -0.5849
 2920SOL     OW20818   7.699   2.873   1.713 -0.5715 -0.0034  0.1954
 2920SOL    HW120819   7.607   2.863   1.675 -0.9296 -0.7914  1.2250
 2920SOL    HW220820   7.697   2.849   1.810 -0.1162  3.8383  1.2727
 2921SOL     OW20821   5.777   4.353   2.422  0.6849 -0.1430  0.2518
 2921SOL    HW120822   5.701   4.419   2.419  0.3104 -0.5901 -0.2299
 2921SOL    HW220823   5.742   4.263   2.447  1.2222 -0.1269  1.0565
 2922SOL     OW20824   8.238   1.078   0.546  0.0956  0.1255  0.0770
 2922SOL    HW120825   8.240   1.177   0.555 -1.3744  0.1560  0.1907
 2922SOL    HW220826   8.143   1.046   0.551  0.5155 -1.2330 -0.4441
 2923SOL     OW20827   7.072   4.004   0.638 -0.5148  0.2050 -0.4764
 2923SOL    HW120828   6.988   3.952   0.653  0.2331 -0.8612  0.0800
 2923SOL    HW220829   7.112   3.979   0.550 -0.5934  0.4736 -0.5914
 2924SOL     OW20830   7.921   6.668   6.804  0.1475 -0.1729 -0.1545
 2924SOL    HW120831   7.979   6.748   6.787 -0.9707  0.5361 -0.6865
 2924SOL    HW220832   7.892   6.669   6.900  2.1280 -1.2850  0.4804
 2925SOL     OW20833   3.018   0.182   5.965  0.4259 -0.1569 -0.3639
 2925SOL    HW120834   2.929   0.227   5.969  1.4075  1.7776  0.3734
 2925SOL    HW220835   3.052   0.167   6.058  1.7280  0.8965 -0.6426
 2926SOL     OW20836   2.714   3.569   9.629  0.2934 -0.3246 -0.1801
 2926SOL    HW120837   2.638   3.521   9.584  0.4338 -1.4103  0.7195
 2926SOL    HW220838   2.744   3.645   9.572 -1.9842  0.5978 -0.2035
 2927SOL     OW20839   9.725   2.530   9.901 -0.3232  0.4961 -0.2288
 2927SOL    HW120840   9.740   2.470   9.980 -0.5203  1.8334  0.8534
 2927SOL    HW220841   9.814   2.564   9.868 -0.1349 -1.1262 -1.4573
 2928SOL     OW20842   3.209   2.839   5.024 -0.0166  0.0611  0.0538
 2928SOL    HW120843   3.152   2.869   5.101 -2.0675 -0.9493 -1.0036
 2928SOL    HW220844   3.299   2.813   5.057 -1.4726 -2.1694  2.4454
 2929SOL     OW20845   7.717   5.235   3.228 -0.5509 -0.1675 -0.1929
 2929SOL    HW120846   7.811   5.237   3.194 -0.0694 -0.5598  1.0672
 2929SOL    HW220847   7.711   5.171   3.304 -1.6906  0.3496  0.1653
 2930SOL     OW20848   3.352   4.663   3.844  0.2144 -0.0670 -0.2523
 2930SOL    HW120849   3.356   4.760   3.865  0.1935 -0.0094 -0.5097
 2930SOL    HW220850   3.443   4.622   3.853  0.1483 -0.1077  0.2491
 2931SOL     OW20851   8.560   1.052  10.040 -0.1752 -0.6210 -0.3507
 2931SOL    HW120852   8.551   1.105   9.955 -3.0874  0.7710  0.7823
 2931SOL    HW220853   8.601   1.110  10.111 -2.6629 -0.0875  0.6740
 2932SOL     OW20854   9.107   9.499   9.683 -0.0476  0.5570 -0.2309
 2932SOL    HW120855   9.204   9.494   9.658  0.6839  3.0841  1.7427
 2932SOL    HW220856   9.095   9.465   9.777 -0.9880  0.6195 -0.3265
 2933SOL     OW20857   0.095   1.751   5.564 -0.6774  0.0266  0.2902
 2933SOL    HW120858   0.132   1.726   5.475 -1.2274 -1.5269  0.4938
 2933SOL    HW220859   0.030   1.827   5.553  0.7187  1.1589 -0.3606
 2934SOL     OW20860   7.821   0.717   2.210  0.5834  0.1244  0.2051
 2934SOL    HW120861   7.787   0.648   2.146  1.2238  1.0613 -1.1614
 2934SOL    HW220862   7.845   0.674   2.297 -3.2109 -0.7419  0.9242
 2935SOL     OW20863   8.597   4.088   9.532 -0.5635  0.3838 -0.0399
 2935SOL    HW120864   8.555   3.998   9.531 -0.0903  0.1425  0.8756
 2935SOL    HW220865   8.549   4.149   9.469 -1.9276 -0.0473  0.5748
 2936SOL     OW20866   0.636   4.888   6.357 -0.0421 -0.2516 -0.4009
 2936SOL    HW120867   0.728   4.905   6.322  0.6220 -1.6719  0.6238
 2936SOL    HW220868   0.625   4.934   6.445 -0.2674 -0.1939 -0.4602
 2937SOL     OW20869   0.038   9.763   8.507  0.2238 -0.1020  0.3886
 2937SOL    HW120870  -0.044   9.761   8.565  0.1069 -0.0812  0.2247
 2937SOL    HW220871   0.053   9.673   8.467  0.3178 -0.1205  0.4661
 2938SOL     OW20872   8.903   3.771   6.263  0.4590  0.3918  0.4299
 2938SOL    HW120873   8.900   3.829   6.182 -1.2471  1.2023  1.0614
 2938SOL    HW220874   8.958   3.815   6.334  2.5673 -0.6422 -0.4848
 2939SOL     OW20875   2.730   4.423   9.298  0.0586  0.2750  0.2028
 2939SOL    HW120876   2.649   4.402   9.352  0.1129  0.6895  0.4476
 2939SOL    HW220877   2.767   4.338   9.258 -0.9610  0.1837 -0.5796
 2940SOL     OW20878   3.449   4.619   5.675  0.2486  0.2966 -0.3553
 2940SOL    HW120879   3.430   4.717   5.684  2.0915  0.6546 -0.2067
 2940SOL    HW220880   3.543   4.605   5.645 -0.5203 -1.4091 -2.0858
 2941SOL     OW20881   7.476   9.353   4.024 -0.2078  0.1602  0.4376
 2941SOL    HW120882   7.424   9.299   3.958 -1.4394  0.7361  0.9115
 2941SOL    HW220883   7.574   9.336   4.012 -0.5214 -1.2126 -0.2408
 2942SOL     OW20884   6.634   8.673   4.244  0.2270  0.4426  0.0220
 2942SOL    HW120885   6.671   8.615   4.172  0.9260  0.0785  0.6608
 2942SOL    HW220886   6.573   8.619   4.302 -1.4847  1.0975 -1.1614
 2943SOL     OW20887   0.480   1.834   9.636  0.1228 -0.6507 -0.1629
 2943SOL    HW120888   0.437   1.844   9.725 -1.0541 -0.0104 -0.7843
 2943SOL    HW220889   0.569   1.789   9.646  0.5339  0.4719  1.4643
 2944SOL     OW20890   3.700   5.173   8.982  0.2273  0.2326 -0.2834
 2944SOL    HW120891   3.607   5.141   8.997  0.4975 -0.2148  0.4732
 2944SOL    HW220892   3.762   5.125   9.044  0.6785  2.0612  0.7218
 2945SOL     OW20893   9.618   3.318   4.698  0.3343  0.2091  0.4556
 2945SOL    HW120894   9.616   3.407   4.653 -0.7527  0.4049  0.8803
 2945SOL    HW220895   9.645   3.329   4.794  0.4816  0.0467  0.4330
 2946SOL     OW20896   6.817   8.357   1.991 -0.7206  0.9319 -0.1014
 2946SOL    HW120897   6.724   8.337   2.024 -0.8978  2.2828  0.2450
 2946SOL    HW220898   6.813   8.433   1.926 -0.1998 -0.8281 -2.2454
 2947SOL     OW20899   8.055   0.192   6.803 -0.3744 -0.3758  0.3627
 2947SOL    HW120900   8.140   0.219   6.849  0.1830 -1.0872 -0.2185
 2947SOL    HW220901   8.005   0.128   6.860 -0.0831 -0.6281  0.3378
 2948SOL     OW20902   0.441   3.045   6.518 -0.3535 -0.6714 -0.1469
 2948SOL    HW120903   0.524   3.079   6.564 -1.2446  1.0004  0.2739
 2948SOL    HW220904   0.364   3.105   6.540 -1.7105 -2.2598 -0.4670
 2949SOL     OW20905   2.213   3.047   4.128 -0.4027 -0.8170  0.4125
 2949SOL    HW120906   2.214   3.077   4.032 -0.0892 -0.3081  0.5714
 2949SOL    HW220907   2.250   2.955   4.135 -0.9847 -1.0835 -0.0351
 2950SOL     OW20908   2.700   0.792   7.845  0.5759 -0.4325 -0.2020
 2950SOL    HW120909   2.695   0.869   7.910  1.8352  0.1976 -0.8297
 2950SOL    HW220910   2.771   0.729   7.875  1.2308 -0.0895 -1.0056
 2951SOL     OW20911   3.818   6.884   0.700  0.1950  0.0253 -0.2259
 2951SOL    HW120912   3.767   6.953   0.752  0.8662  0.8801 -0.6809
 2951SOL    HW220913   3.880   6.835   0.762  1.2562  1.2860 -0.2636
 2952SOL     OW20914   3.529   6.234   2.938  0.0678  0.2065  0.1457
 2952SOL    HW120915   3.553   6.195   2.849 -4.3340  0.2704 -1.1804
 2952SOL    HW220916   3.544   6.166   3.009  0.2140 -1.1071 -1.1116
 2953SOL     OW20917   2.784   6.344   7.306 -0.1721 -0.2300 -0.2842
 2953SOL    HW120918   2.740   6.427   7.341 -1.1235 -0.2120 -1.4943
 2953SOL    HW220919   2.719   6.268   7.309  0.0668 -0.4657 -1.0373
 2954SOL     OW20920   6.487   0.631   6.728 -0.1042 -0.2929  0.3578
 2954SOL    HW120921   6.493   0.678   6.640  1.1418 -0.9939  0.0520
 2954SOL    HW220922   6.574   0.586   6.748 -0.7112 -1.0098  1.4699
 2955SOL     OW20923   1.611   8.256   8.824 -0.0668  0.3300  0.0518
 2955SOL    HW120924   1.624   8.186   8.754  3.1471 -1.1084  1.9493
 2955SOL    HW220925   1.552   8.221   8.896 -1.1240  0.8036 -0.5729
 2956SOL     OW20926   6.075   3.039   9.435 -0.3330  0.1610  0.2878
 2956SOL    HW120927   6.026   3.122   9.460  0.4287  1.0898 -1.2849
 2956SOL    HW220928   6.142   3.017   9.506 -0.5428  0.8641  0.7019
 2957SOL     OW20929   1.016   4.475   9.942 -0.1314 -0.2623 -0.1498
 2957SOL    HW120930   1.030   4.507  10.035 -1.3032 -1.0368  0.3026
 2957SOL    HW220931   0.941   4.410   9.940  0.4920 -0.9702 -1.4841
 2958SOL     OW20932   1.742   7.235   8.310  0.4785 -0.1289  0.0850
 2958SOL    HW120933   1.767   7.155   8.364 -2.3151  0.2996  2.1177
 2958SOL    HW220934   1.711   7.205   8.220  0.2313 -1.2810  0.5358
 2959SOL     OW20935   4.676   6.463  10.034 -0.1300  0.3777 -0.5204
 2959SOL    HW120936   4.583   6.453   9.999 -0.2562  0.7507 -0.2918
 2959SOL    HW220937   4.740   6.425   9.968 -0.2893  2.0138 -1.6668
 2960SOL     OW20938   9.843   5.573   1.965 -0.1508 -0.5179  0.4467
 2960SOL    HW120939   9.831   5.528   1.876 -0.8189 -1.2714  0.9162
 2960SOL    HW220940   9.821   5.670   1.955 -0.7415 -0.7000 -0.0926
 2961SOL     OW20941   9.393   9.931   8.312  0.0096 -0.5748  0.6203
 2961SOL    HW120942   9.297   9.902   8.315 -0.3559  0.1711 -2.3710
 2961SOL    HW220943   9.397  10.030   8.294  1.3386 -0.8890 -0.9072
 2962SOL     OW20944   1.494   4.753   7.800  0.2743  0.0141 -0.2929
 2962SOL    HW120945   1.439   4.813   7.859  0.8924  1.8979 -1.5777
 2962SOL    HW220946   1.579   4.729   7.847 -0.2661 -0.4094  0.4883
 2963SOL     OW20947   0.309   4.034   1.839  0.5735 -0.3483  0.1807
 2963SOL    HW120948   0.364   4.047   1.757 -1.5391  0.3280 -1.1624
 2963SOL    HW220949   0.319   4.114   1.899 -0.1503  0.4674 -0.7814
 2964SOL     OW20950   0.794   3.599   6.173  0.0393  0.2358 -0.8089
 2964SOL    HW120951   0.753   3.643   6.093 -0.0431  2.2884  0.3226
 2964SOL    HW220952   0.726   3.590   6.245  0.3351 -0.7896 -0.6516
 2965SOL     OW20953   8.395   2.572   0.064  0.0565  0.1651  0.1830
 2965SOL    HW120954   8.443   2.624   0.134  0.3315  0.4932 -0.2507
 2965SOL    HW220955   8.398   2.475   0.087  0.8583  0.1943  0.1966
 2966SOL     OW20956   1.425   6.000   5.973  0.3670  0.4051  0.2303
 2966SOL    HW120957   1.507   6.022   5.920  0.7322 -0.0936  0.5875
 2966SOL    HW220958   1.427   6.050   6.060  0.4494  0.1376  0.3808
 2967SOL     OW20959   0.337   6.856   3.294  0.5266 -0.0135  0.1948
 2967SOL    HW120960   0.380   6.771   3.323 -0.5745 -0.2633  1.1245
 2967SOL    HW220961   0.263   6.837   3.230 -0.5910  0.1254  1.4217
 2968SOL     OW20962   9.452   9.050   1.056 -0.0587  0.7494  0.1105
 2968SOL    HW120963   9.449   8.964   1.106 -2.4763 -0.4974 -2.0885
 2968SOL    HW220964   9.361   9.073   1.023  1.1848  2.4081 -2.2914
 2969SOL     OW20965   1.049   1.862   1.564  0.6637  0.3610  0.5418
 2969SOL    HW120966   0.949   1.862   1.566  0.6148  0.7442 -0.8992
 2969SOL    HW220967   1.081   1.952   1.535  1.4024 -0.0025  0.2242
 2970SOL     OW20968   7.553   4.876   7.638 -0.2067  0.3659  0.3310
 2970SOL    HW120969   7.531   4.829   7.553 -1.0205  0.5523  0.4282
 2970SOL    HW220970   7.600   4.813   7.700 -2.2573 -0.6615  0.8867
 2971SOL     OW20971   8.158   5.169   5.953 -0.2603  0.2312 -0.6782
 2971SOL    HW120972   8.076   5.116   5.932 -0.4683  0.8202 -1.3923
 2971SOL    HW220973   8.231   5.107   5.982 -1.2080 -0.2059  0.8007
 2972SOL     OW20974   0.478   7.802   9.550  0.5890 -0.1864 -0.5658
 2972SOL    HW120975   0.567   7.846   9.533 -0.1278  1.8467  0.8392
 2972SOL    HW220976   0.408   7.845   9.493 -0.1570  0.6789  0.9710
 2973SOL     OW20977   0.199   4.353   2.289 -0.3064 -0.3156  0.1321
 2973SOL    HW120978   0.281   4.297   2.286 -0.6488 -0.7975 -0.2605
 2973SOL    HW220979   0.124   4.305   2.244 -0.5875  0.4819 -0.2554
 2974SOL     OW20980   4.414   1.528   5.746  0.0441 -0.1152  0.6321
 2974SOL    HW120981   4.440   1.602   5.684 -1.0252  0.6920  1.1393
 2974SOL    HW220982   4.315   1.519   5.748  0.0680 -0.2234  2.1082
 2975SOL     OW20983   6.561   3.440   9.429  0.1150 -0.3593 -0.1653
 2975SOL    HW120984   6.592   3.461   9.522  0.5983 -0.8315 -0.2155
 2975SOL    HW220985   6.486   3.375   9.433 -1.9445  1.9585  0.0302
 2976SOL     OW20986   0.405   1.284   2.512 -0.5925 -0.1290 -0.3835
 2976SOL    HW120987   0.352   1.235   2.581 -1.0156  0.2222 -0.4580
 2976SOL    HW220988   0.370   1.377   2.502  0.2139  0.1883 -0.2468
 2977SOL     OW20989   1.262   0.666   9.442 -0.4080  0.3527 -0.1463
 2977SOL    HW120990   1.335   0.653   9.509 -0.3526  0.2461 -0.2272
 2977SOL    HW220991   1.179   0.697   9.488 -0.2058  0.8308 -0.0943
 2978SOL     OW20992   1.926   0.996   4.244 -0.7013  0.0677 -0.4671
 2978SOL    HW120993   1.917   1.093   4.224 -1.3501 -0.0470 -0.7343
 2978SOL    HW220994   1.912   0.943   4.160 -0.3191 -0.2574 -0.3291
 2979SOL     OW20995   4.167   6.247   4.624 -0.1730  0.4852  0.0299
 2979SOL    HW120996   4.177   6.319   4.693  2.7595  1.1254 -1.0015
 2979SOL    HW220997   4.148   6.288   4.535  1.7114  0.0284 -0.6027
 2980SOL     OW20998   8.283   0.681   8.658 -0.3220  0.4448  0.2145
 2980SOL    HW120999   8.198   0.686   8.606 -1.3019 -0.6097  1.6779
 2980SOL    HW221000   8.284   0.598   8.714  0.8896  1.3121  1.5366
 2981SOL     OW21001   3.024   1.639   2.353  0.4494 -0.3536 -0.2709
 2981SOL    HW121002   3.120   1.613   2.362  1.2449  1.8865 -1.6733
 2981SOL    HW221003   2.995   1.685   2.437  0.5710 -1.0752  0.1768
 2982SOL     OW21004   8.819   9.084   7.426 -0.0527 -0.2538  0.3299
 2982SOL    HW121005   8.811   9.179   7.459  0.0358 -0.1014 -0.0886
 2982SOL    HW221006   8.735   9.035   7.448  0.4316 -0.4584  1.7749
 2983SOL     OW21007   1.852   9.739   5.968  0.4393 -0.5072 -0.1771
 2983SOL    HW121008   1.920   9.704   5.904 -0.2843 -1.1613 -0.6014
 2983SOL    HW221009   1.898   9.772   6.051  1.3149 -0.3529 -0.7212
 2984SOL     OW21010   8.806   1.405   4.300 -0.6042  0.2694  0.7291
 2984SOL    HW121011   8.811   1.407   4.201 -1.5213 -1.5728  0.6179
 2984SOL    HW221012   8.898   1.408   4.339 -0.0225 -2.7555 -0.3079
 2985SOL     OW21013   4.844   3.297   8.373  0.5726 -0.3709  0.1656
 2985SOL    HW121014   4.906   3.357   8.323 -0.8912 -0.7526 -2.1649
 2985SOL    HW221015   4.858   3.202   8.343 -0.6054 -0.5602  0.2206
 2986SOL     OW21016   5.642   3.811   9.673  0.4982  0.0277  0.2210
 2986SOL    HW121017   5.714   3.785   9.737  2.3785 -0.7514 -2.1515
 2986SOL    HW221018   5.592   3.729   9.645 -0.8905  0.4777  1.3193
 2987SOL     OW21019   1.981   6.598   0.845  0.4513 -0.7302 -0.3795
 2987SOL    HW121020   1.920   6.654   0.901  0.9503 -0.9559  0.3984
 2987SOL    HW221021   1.974   6.627   0.749 -0.3093 -0.2556 -0.1877
 2988SOL     OW21022   1.543   7.453   4.102  0.2523 -0.1354 -0.5307
 2988SOL    HW121023   1.577   7.413   4.017  2.0774  0.2776 -0.0042
 2988SOL    HW221024   1.618   7.499   4.151 -0.7254 -0.5465  1.4133
 2989SOL     OW21025   7.680   0.193   3.320 -0.4454 -0.2502  0.1697
 2989SOL    HW121026   7.621   0.201   3.401 -0.8968  1.2321 -0.2889
 2989SOL    HW221027   7.642   0.123   3.258 -0.0109 -1.5057  1.2938
 2990SOL     OW21028   8.570   2.845   5.209  0.1974 -0.2191  0.3862
 2990SOL    HW121029   8.582   2.813   5.115 -0.5646  0.5630  0.0212
 2990SOL    HW221030   8.558   2.766   5.269 -0.6467 -0.6768 -0.3661
 2991SOL     OW21031   2.261   4.178   6.092 -0.0205 -0.6016 -0.2163
 2991SOL    HW121032   2.210   4.264   6.090 -0.7920 -0.9679  2.2222
 2991SOL    HW221033   2.333   4.184   6.161  1.0001 -1.3496 -1.1920
 2992SOL     OW21034   5.013   2.008   1.350  0.2784  0.4324 -0.3483
 2992SOL    HW121035   4.964   1.967   1.426  1.1851  0.3047  0.1692
 2992SOL    HW221036   4.952   2.069   1.300  0.2384  2.1207  1.7116
 2993SOL     OW21037   6.664   2.852   0.252 -0.2145 -0.6303 -0.4932
 2993SOL    HW121038   6.647   2.903   0.168  0.2200 -1.4145 -1.0527
 2993SOL    HW221039   6.693   2.916   0.324  0.0941 -0.0611 -1.1224
 2994SOL     OW21040   2.061   6.468   4.510 -0.5427 -0.6018  0.1768
 2994SOL    HW121041   2.152   6.450   4.549 -0.0669 -0.9573 -1.0944
 2994SOL    HW221042   2.014   6.382   4.495 -1.1396 -0.4124  0.9157
 2995SOL     OW21043   1.154   4.607   6.173  0.0541 -0.0956  0.1835
 2995SOL    HW121044   1.157   4.651   6.263  0.6241  0.8130 -0.2732
 2995SOL    HW221045   1.225   4.646   6.115  0.7947 -1.8590 -0.1314
 2996SOL     OW21046   6.355   5.531   0.931 -0.1703  0.3831  1.1758
 2996SOL    HW121047   6.443   5.483   0.931 -0.7558 -0.7073  1.9793
 2996SOL    HW221048   6.330   5.556   1.024 -1.4156 -0.6414  1.1272
 2997SOL     OW21049   7.956   9.730   5.209 -0.5185  0.4795 -0.0808
 2997SOL    HW121050   8.005   9.817   5.201  1.3464 -0.4523  0.9055
 2997SOL    HW221051   7.945   9.707   5.305  2.3373 -2.1966 -0.3379
 2998SOL     OW21052   4.461   4.555   7.401  0.6125 -0.0217  0.3433
 2998SOL    HW121053   4.484   4.651   7.419  0.8133  0.3701 -1.8471
 2998SOL    HW221054   4.432   4.511   7.486 -0.8090  2.3478  1.1401
 2999SOL     OW21055   9.081   7.216   6.380  0.1661 -0.3397  0.1421
 2999SOL    HW121056   9.070   7.234   6.282 -1.2938 -1.3945  0.0802
 2999SOL    HW221057   9.010   7.264   6.431  1.5009  0.9771  0.7948
 3000SOL     OW21058   7.035   7.335   2.902 -0.3773  0.3046  0.0595
 3000SOL    HW121059   7.036   7.314   3.000 -0.3834 -1.2350 -0.2534
 3000SOL    HW221060   6.992   7.423   2.887 -0.5413  0.4669  1.4346
 3001SOL     OW21061   9.513   1.261   1.302  0.6495 -0.1201 -0.1506
 3001SOL    HW121062   9.433   1.236   1.357  0.9765 -1.5330 -0.2967
 3001SOL    HW221063   9.577   1.184   1.299  0.7253 -0.0017 -2.3607
 3002SOL     OW21064   0.813   7.674   3.823 -0.3505  0.0161  0.7449
 3002SOL    HW121065   0.870   7.736   3.877 -0.2298  1.5228 -1.0363
 3002SOL    HW221066   0.747   7.630   3.882  1.0751  0.1051  2.4409
 3003SOL     OW21067   9.916   5.826   3.911 -0.3198 -0.0138 -0.1511
 3003SOL    HW121068   9.970   5.910   3.905  0.0444 -0.2491 -0.1759
 3003SOL    HW221069   9.820   5.847   3.892  0.1552 -0.0138 -2.8186
 3004SOL     OW21070   1.588   2.159   9.990 -0.0642  0.5695  0.3743
 3004SOL    HW121071   1.676   2.114  10.004  0.7362  2.1614  0.4724
 3004SOL    HW221072   1.541   2.169  10.078 -1.1136 -1.7903  0.1236
 3005SOL     OW21073   7.297   8.113   1.448 -0.7450 -0.7316  0.3340
 3005SOL    HW121074   7.233   8.101   1.523 -0.5777  1.1216  0.7892
 3005SOL    HW221075   7.346   8.199   1.459  0.6917 -1.3710 -0.8534
 3006SOL     OW21076   3.265   9.146   6.474 -0.0431  0.2205 -0.5169
 3006SOL    HW121077   3.293   9.064   6.524 -1.4323  0.0720  0.0267
 3006SOL    HW221078   3.341   9.212   6.473  0.5218 -0.4031  0.4580
 3007SOL     OW21079   2.347   6.008   3.709  0.5834 -0.0106 -0.1003
 3007SOL    HW121080   2.329   6.013   3.807  1.2892 -2.2783  0.1718
 3007SOL    HW221081   2.414   6.078   3.684  0.2542  0.7082  0.9877
 3008SOL     OW21082   0.068   9.793   1.463 -0.0160 -0.6151  0.0811
 3008SOL    HW121083   0.039   9.872   1.516  0.6480 -0.8786  0.8506
 3008SOL    HW221084   0.136   9.741   1.514  0.2021 -1.2033 -0.7810
 3009SOL     OW21085   0.867   9.498   0.416  0.4060  0.3272 -0.0689
 3009SOL    HW121086   0.860   9.526   0.320  1.1304  0.5945 -0.0427
 3009SOL    HW221087   0.952   9.532   0.455  0.0045  0.4237  0.7421
 3010SOL     OW21088   7.272   2.405   3.092  0.0350 -0.0821  0.1903
 3010SOL    HW121089   7.277   2.357   3.180 -0.0669  2.1750  1.4817
 3010SOL    HW221090   7.205   2.479   3.099  0.5469  0.5729 -1.5725
 3011SOL     OW21091   8.782   1.370   4.018  0.1025  0.0652 -0.3158
 3011SOL    HW121092   8.781   1.459   3.973 -2.0910 -0.7540 -1.9927
 3011SOL    HW221093   8.812   1.300   3.953 -1.4852 -0.8944 -0.0582
 3012SOL     OW21094   3.396   5.703   8.733  0.1256 -0.1765 -0.7142
 3012SOL    HW121095   3.373   5.763   8.809 -1.2481  0.6796 -1.7853
 3012SOL    HW221096   3.405   5.609   8.767  1.0891  0.4263  0.7553
 3013SOL     OW21097   4.337   3.647   8.371 -0.3091  0.7396 -0.1062
 3013SOL    HW121098   4.407   3.682   8.434  1.7966  0.4012 -2.2019
 3013SOL    HW221099   4.365   3.557   8.337 -2.1415  0.2746 -0.4202
 3014SOL     OW21100   1.043   9.994   0.127  0.0349  0.4079  0.4192
 3014SOL    HW121101   1.086  10.008   0.037 -0.6473  0.9405  0.1642
 3014SOL    HW221102   1.079  10.061   0.192 -0.5674  1.0079  0.1449
 3015SOL     OW21103   3.616   1.285   7.003  0.0257  0.4185  0.2365
 3015SOL    HW121104   3.617   1.255   7.098 -1.9411 -1.4372 -0.2597
 3015SOL    HW221105   3.646   1.210   6.944 -1.5615  0.5513 -0.7915
 3016SOL     OW21106   9.823   8.533   6.937  0.7276  0.1007 -0.8162
 3016SOL    HW121107   9.794   8.511   6.844  0.4264  2.4297 -1.3048
 3016SOL    HW221108   9.742   8.539   6.996  0.7390  0.5930 -0.8480
 3017SOL     OW21109   2.494   6.294   7.891  0.0096  0.4113  0.0978
 3017SOL    HW121110   2.454   6.385   7.891  0.2356  0.5139  0.6553
 3017SOL    HW221111   2.451   6.238   7.963  0.8702  0.5348  0.7220
 3018SOL     OW21112   9.255   7.017   2.553  0.2943 -0.3153  0.2357
 3018SOL    HW121113   9.267   7.114   2.571  0.9787 -0.2240 -0.6872
 3018SOL    HW221114   9.182   6.981   2.612  0.2407  0.6836  0.7904
 3019SOL     OW21115   6.826   0.460   1.108 -0.3858  0.9197  0.1325
 3019SOL    HW121116   6.888   0.495   1.038 -0.7258 -0.5562 -0.9373
 3019SOL    HW221117   6.732   0.488   1.087 -0.1911  2.5888  1.3872
 3020SOL     OW21118   1.094   9.439   5.530 -0.1724  0.1168  0.1760
 3020SOL    HW121119   1.092   9.376   5.452 -0.9437  0.9903 -0.5336
 3020SOL    HW221120   1.112   9.388   5.614 -1.1991 -1.1065 -0.3281
 3021SOL     OW21121   5.911   7.091   4.190 -0.0044 -0.3009  0.2221
 3021SOL    HW121122   5.847   7.030   4.237  0.2615  0.9222  2.2017
 3021SOL    HW221123   6.005   7.060   4.205  0.0513 -0.2723 -0.0531
 3022SOL     OW21124   9.023   8.900   1.350 -0.3586 -0.3655 -0.3152
 3022SOL    HW121125   9.008   8.839   1.273 -0.8230  1.9303 -2.0829
 3022SOL    HW221126   9.112   8.945   1.341 -0.3687 -0.1514  0.5445
 3023SOL     OW21127   4.158   9.892   7.025 -0.5447  0.5825 -0.0330
 3023SOL    HW121128   4.249   9.861   6.998 -0.5380 -0.0204  0.6457
 3023SOL    HW221129   4.115   9.942   6.950  0.4414  1.0824 -0.2627
 3024SOL     OW21130   6.775   1.129   2.664 -0.3070  1.0296  0.4612
 3024SOL    HW121131   6.868   1.160   2.641  0.1155 -0.5057  0.0441
 3024SOL    HW221132   6.735   1.191   2.731  1.1428  1.5215  0.8873
 3025SOL     OW21133   9.317   2.025   1.065 -0.0712  0.0713 -0.0869
 3025SOL    HW121134   9.301   2.066   0.975  0.1189 -0.3378 -0.3048
 3025SOL    HW221135   9.353   1.933   1.054 -2.8253 -1.1048  0.3894
 3026SOL     OW21136   9.617   4.839   8.918 -0.8588  0.6683  0.4771
 3026SOL    HW121137   9.613   4.931   8.880 -1.5881  1.9852  3.6324
 3026SOL    HW221138   9.554   4.780   8.869  0.5572  1.4600 -2.4471
 3027SOL     OW21139   5.752   0.303   3.827  0.4800 -0.5242  0.1667
 3027SOL    HW121140   5.690   0.247   3.883  1.0133  1.3324  2.6822
 3027SOL    HW221141   5.841   0.258   3.820 -0.0388 -1.4715 -0.4622
 3028SOL     OW21142   0.564   5.672   6.678  0.2093 -0.3149 -0.2977
 3028SOL    HW121143   0.537   5.576   6.678 -0.1115 -0.2285 -1.0318
 3028SOL    HW221144   0.580   5.703   6.772 -0.5164 -0.8505  0.0031
 3029SOL     OW21145   9.628   9.593   6.649  0.3909  0.2466  0.2311
 3029SOL    HW121146   9.645   9.516   6.711  2.6929  0.5648  0.0250
 3029SOL    HW221147   9.657   9.678   6.692 -1.5322  0.9504  0.1878
 3030SOL     OW21148   6.534   1.601   6.318  0.5486 -0.0840 -0.1123
 3030SOL    HW121149   6.476   1.683   6.329  1.6828  0.4950  1.7071
 3030SOL    HW221150   6.574   1.601   6.226 -0.3309  0.8112 -0.5127
 3031SOL     OW21151   2.782   2.416   8.933 -0.7265 -0.1479 -0.8187
 3031SOL    HW121152   2.726   2.496   8.913 -0.8601 -0.2943 -1.0348
 3031SOL    HW221153   2.763   2.344   8.866 -1.0895 -0.6003 -0.2379
 3032SOL     OW21154   3.796   0.085   1.060  0.2620 -0.6376  0.0977
 3032SOL    HW121155   3.881   0.094   1.007 -0.1667 -1.0820 -0.6858
 3032SOL    HW221156   3.733   0.157   1.033  0.6800  0.1617  1.2459
 3033SOL     OW21157   8.538   2.729   6.598  0.3257  0.6774  0.4431
 3033SOL    HW121158   8.516   2.696   6.690 -2.5792 -0.5512 -0.6230
 3033SOL    HW221159   8.487   2.813   6.579  1.3176  1.2157  0.1374
 3034SOL     OW21160   4.781   2.630   5.825 -0.1366  0.2446  0.2307
 3034SOL    HW121161   4.838   2.639   5.907 -0.7415  3.1948  0.3630
 3034SOL    HW221162   4.832   2.660   5.745 -1.1056  1.9273  0.2151
 3035SOL     OW21163   7.603   7.483   6.481  0.0409  0.3217  0.3896
 3035SOL    HW121164   7.675   7.450   6.420 -1.2159 -1.3264 -0.2650
 3035SOL    HW221165   7.611   7.582   6.493  1.2558  0.4257 -1.1722
 3036SOL     OW21166   0.378   9.964   4.920  0.9064  0.3092  0.2188
 3036SOL    HW121167   0.319   9.894   4.881  0.0298 -0.0832  2.2158
 3036SOL    HW221168   0.358  10.052   4.878  0.7357 -0.2888 -0.9783
 3037SOL     OW21169   3.215   3.763   0.609  0.0865 -0.2616  0.1192
 3037SOL    HW121170   3.187   3.697   0.679  1.9483  0.4665  1.5953
 3037SOL    HW221171   3.315   3.769   0.607  0.0006  1.0174 -1.4139
 3038SOL     OW21172   7.599   4.989   9.833 -0.4795 -0.5479 -0.7531
 3038SOL    HW121173   7.499   4.992   9.835 -0.4662 -0.6864  1.0397
 3038SOL    HW221174   7.634   5.006   9.925  1.2806  3.3035 -2.0686
 3039SOL     OW21175   7.312   8.157   7.320  0.3357 -0.7040  0.3689
 3039SOL    HW121176   7.324   8.211   7.236  1.4207 -2.9917 -0.9927
 3039SOL    HW221177   7.331   8.215   7.400  3.0762  0.5148 -1.0842
 3040SOL     OW21178   8.134   8.188   2.262 -0.0877 -0.0113 -0.7514
 3040SOL    HW121179   8.153   8.158   2.169 -0.1252 -1.1243 -0.4031
 3040SOL    HW221180   8.166   8.119   2.327 -3.9093 -1.2996 -0.0656
 3041SOL     OW21181   4.004   3.854   0.067 -0.1670  0.4510 -0.1034
 3041SOL    HW121182   3.945   3.890   0.138 -1.1183 -1.2164 -0.0151
 3041SOL    HW221183   4.038   3.929   0.010 -1.2084  1.5657  0.7241
 3042SOL     OW21184   2.711   4.964   2.612  0.0572 -0.2204  0.6775
 3042SOL    HW121185   2.648   5.009   2.676 -1.1244  2.2214 -2.1186
 3042SOL    HW221186   2.786   5.026   2.590  0.2727 -0.9261 -0.5798
 3043SOL     OW21187   1.148   1.940   8.365 -0.3432 -0.0826 -0.3623
 3043SOL    HW121188   1.185   2.033   8.364  2.0984 -1.0425 -0.7555
 3043SOL    HW221189   1.151   1.904   8.458  1.3750 -0.8003 -0.6849
 3044SOL     OW21190   1.557   6.012   1.354 -0.0044  0.1277  0.8390
 3044SOL    HW121191   1.562   5.985   1.450  1.9036 -1.5417  0.3099
 3044SOL    HW221192   1.484   5.961   1.309  1.7969 -2.2128  0.4852
 3045SOL     OW21193   2.351   1.562   7.099  0.0986  0.3582 -0.1515
 3045SOL    HW121194   2.307   1.606   7.020 -0.0676 -0.0598 -0.2912
 3045SOL    HW221195   2.448   1.585   7.101 -0.3396  2.2505  0.8095
 3046SOL     OW21196   3.461   8.470   9.060  0.0965  0.0728 -0.2177
 3046SOL    HW121197   3.474   8.498   9.156  1.6263 -0.1406 -0.3463
 3046SOL    HW221198   3.456   8.370   9.056 -2.2649  0.1741 -0.1099
 3047SOL     OW21199   2.246   9.873   8.901 -0.1229  0.0024 -0.1020
 3047SOL    HW121200   2.268   9.789   8.851 -1.5145 -1.5528  1.8333
 3047SOL    HW221201   2.152   9.901   8.880 -0.3812 -0.1176  0.9002
 3048SOL     OW21202   0.049   6.385   5.280  0.4505  0.0092  0.2358
 3048SOL    HW121203   0.044   6.417   5.185  3.4466 -2.0232 -0.6915
 3048SOL    HW221204   0.090   6.294   5.283 -0.8761 -0.5622  3.4100
 3049SOL     OW21205   0.498   0.565  10.050  0.3743  0.3580  0.3822
 3049SOL    HW121206   0.406   0.591  10.019  1.0328  1.1291 -0.9583
 3049SOL    HW221207   0.509   0.466  10.041  0.5031  0.5518 -1.7533
 3050SOL     OW21208   1.721   4.429   2.600  0.1842  0.7077  0.4786
 3050SOL    HW121209   1.762   4.496   2.662 -1.4136  1.6859  0.5090
 3050SOL    HW221210   1.690   4.350   2.652  0.3732  0.7790  0.6989
 3051SOL     OW21211   4.649   2.204   0.888 -0.5923  0.9963  0.0248
 3051SOL    HW121212   4.725   2.229   0.948  0.0258  0.4878 -0.5487
 3051SOL    HW221213   4.647   2.265   0.809 -1.4140  1.6708  0.5509
 3052SOL     OW21214   8.748   3.267   8.583 -0.4618 -0.2477  0.2084
 3052SOL    HW121215   8.780   3.175   8.560  1.1939  0.5457 -0.7974
 3052SOL    HW221216   8.717   3.269   8.678 -1.3230 -2.0381 -0.0153
 3053SOL     OW21217   5.122   7.010   2.518 -0.8209 -0.3340 -0.2463
 3053SOL    HW121218   5.101   6.994   2.422 -0.5056  1.3133 -0.5948
 3053SOL    HW221219   5.069   7.088   2.551 -1.1810 -1.0909  1.0148
 3054SOL     OW21220   3.761   6.658   2.308 -0.4993  0.1570  0.3736
 3054SOL    HW121221   3.684   6.601   2.277 -1.6233  0.9873  1.6020
 3054SOL    HW221222   3.728   6.728   2.370  1.2592  0.5815  0.8642
 3055SOL     OW21223   3.529   6.535   2.232 -0.4711 -0.0794  0.0597
 3055SOL    HW121224   3.506   6.473   2.307  0.8266  0.3231  0.8050
 3055SOL    HW221225   3.477   6.509   2.151 -1.2166 -1.0809  0.8389
 3056SOL     OW21226   8.563   6.662   6.989 -0.4718  0.1422  0.0916
 3056SOL    HW121227   8.634   6.714   6.942  1.1287 -0.3189  1.9297
 3056SOL    HW221228   8.552   6.573   6.944 -0.2838  0.4482 -0.5582
 3057SOL     OW21229   6.301   0.804   2.559 -0.6245 -0.0482 -0.6070
 3057SOL    HW121230   6.239   0.780   2.484 -1.8939  1.7388 -0.1595
 3057SOL    HW221231   6.358   0.882   2.531 -1.4745  0.9726  0.4490
 3058SOL     OW21232   8.280   7.966   9.324  0.4174 -0.1656 -0.2026
 3058SOL    HW121233   8.345   7.893   9.345 -2.3583 -2.8219 -0.4058
 3058SOL    HW221234   8.250   7.958   9.229 -0.9366  0.3971  0.1640
 3059SOL     OW21235   2.082   0.315   6.860 -0.2806  0.3088 -0.0437
 3059SOL    HW121236   2.102   0.269   6.774 -2.8903 -1.6807  0.3667
 3059SOL    HW221237   2.159   0.303   6.923  0.1938 -1.2026 -0.9011
 3060SOL     OW21238   3.258   8.130   2.179  0.4265 -0.3809  0.0953
 3060SOL    HW121239   3.339   8.090   2.222  0.2548 -1.2319 -0.3579
 3060SOL    HW221240   3.282   8.165   2.089  0.5681  0.5190  0.4763
 3061SOL     OW21241   6.546   9.571   6.949 -0.5781  0.5060 -0.1647
 3061SOL    HW121242   6.464   9.539   6.902  0.2689 -0.6330 -0.9001
 3061SOL    HW221243   6.612   9.607   6.882  0.4032 -0.5941  0.1907
 3062SOL     OW21244   2.875   6.803   8.412  0.2455 -0.1388 -0.1846
 3062SOL    HW121245   2.867   6.902   8.409 -1.3181 -0.2194  0.9787
 3062SOL    HW221246   2.963   6.777   8.454  0.4044  0.7390  0.0192
 3063SOL     OW21247   1.722   9.195   9.757 -0.0587  0.2928  0.2819
 3063SOL    HW121248   1.757   9.170   9.847  1.7560  1.5462 -0.0580
 3063SOL    HW221249   1.635   9.242   9.767  0.3570  0.8323  1.4260
 3064SOL     OW21250   2.475   8.985   3.578 -0.3024  0.0731  0.4516
 3064SOL    HW121251   2.442   9.080   3.578  1.5581  0.7409  0.2784
 3064SOL    HW221252   2.499   8.958   3.485  0.6674 -0.0139  0.7154
 3065SOL     OW21253   5.111   2.678   9.827  0.1098  0.4622 -0.1076
 3065SOL    HW121254   5.174   2.746   9.866 -0.4468  1.4449 -0.9194
 3065SOL    HW221255   5.129   2.589   9.869  0.3336  1.2544  1.5221
 3066SOL     OW21256   8.557   4.461   8.387  0.1201 -0.1460 -0.0197
 3066SOL    HW121257   8.623   4.419   8.323 -0.0421 -0.2220 -0.1358
 3066SOL    HW221258   8.471   4.477   8.339 -0.2935 -1.0339  0.4383
 3067SOL     OW21259   2.563   3.787   0.312 -0.2576 -0.2515 -0.8029
 3067SOL    HW121260   2.499   3.793   0.389  0.0489 -0.7306 -0.5069
 3067SOL    HW221261   2.556   3.870   0.257  0.6226  0.7917  0.6217
 3068SOL     OW21262   4.345   7.598   0.794 -0.3526 -0.1655  0.5702
 3068SOL    HW121263   4.376   7.689   0.821 -0.4197 -0.1452  0.5784
 3068SOL    HW221264   4.269   7.606   0.730 -0.3945 -0.2160  0.6127
 3069SOL     OW21265   6.890   1.757   8.899 -0.5753 -0.4707 -0.0749
 3069SOL    HW121266   6.970   1.702   8.924 -0.8877 -0.8515  0.0836
 3069SOL    HW221267   6.873   1.825   8.970  0.2663  0.3358 -0.6260
 3070SOL     OW21268   5.570   9.378   4.706  0.1460 -0.3103  0.1554
 3070SOL    HW121269   5.501   9.438   4.748  0.5045 -0.2367  0.6475
 3070SOL    HW221270   5.620   9.429   4.636 -1.2126 -0.7610 -1.1564
 3071SOL     OW21271   6.955   8.376   4.101 -0.3445  0.8808  0.0727
 3071SOL    HW121272   6.914   8.411   4.185  2.8349  1.0171  1.6764
 3071SOL    HW221273   7.052   8.357   4.117 -0.0772 -0.8376 -3.0818
 3072SOL     OW21274   3.968   4.025   3.094  0.0656  0.2528  0.6727
 3072SOL    HW121275   3.884   4.052   3.047 -1.4221 -1.2269  2.4121
 3072SOL    HW221276   3.951   4.020   3.193  2.0443 -0.5887  0.9936
 3073SOL     OW21277   7.237   1.256   8.526 -0.2939 -0.5909 -0.4017
 3073SOL    HW121278   7.175   1.188   8.487  0.5746 -0.5371 -1.8928
 3073SOL    HW221279   7.220   1.263   8.625 -2.1936 -1.0549 -0.6693
 3074SOL     OW21280   0.659   1.050   5.907 -0.1849  0.5604 -0.1832
 3074SOL    HW121281   0.600   1.102   5.969 -0.0435 -0.1132  0.5227
 3074SOL    HW221282   0.632   1.069   5.812 -1.7029  0.0703  0.1308
 3075SOL     OW21283   1.653   9.158   4.284 -0.0322  0.5139  0.5730
 3075SOL    HW121284   1.574   9.148   4.345 -0.3281  0.0260  0.1055
 3075SOL    HW221285   1.700   9.244   4.305  1.0400 -0.5662  2.8716
 3076SOL     OW21286   4.828   5.899   9.832 -0.4403  0.2786 -0.1639
 3076SOL    HW121287   4.856   5.898   9.928  0.9277  2.8604 -0.4892
 3076SOL    HW221288   4.869   5.821   9.784 -1.0326 -0.9525  1.2859
 3077SOL     OW21289   6.199   3.395   0.206  0.1201  0.1010 -0.5671
 3077SOL    HW121290   6.165   3.370   0.116  1.1015 -0.0432 -0.8992
 3077SOL    HW221291   6.258   3.323   0.242  0.5469  0.6007 -0.2454
 3078SOL     OW21292   3.683   1.094   7.473 -0.2165 -0.4615  0.4228
 3078SOL    HW121293   3.735   1.159   7.529  0.5722  0.4026 -1.2999
 3078SOL    HW221294   3.744   1.022   7.441 -0.4118 -0.3193 -0.2776
 3079SOL     OW21295  -0.003   6.571  10.073 -0.2279 -1.1668  0.9456
 3079SOL    HW121296  -0.000   6.478  10.038  0.5723 -1.8179  2.6931
 3079SOL    HW221297   0.086   6.595  10.112 -1.6352 -1.2612  4.4267
 3080SOL     OW21298   4.475   9.895   6.944  0.6265  0.5247 -0.1859
 3080SOL    HW121299   4.487   9.945   6.859  0.0354 -0.7765 -1.0487
 3080SOL    HW221300   4.528   9.810   6.941  0.4485  0.3778  0.6634
 3081SOL     OW21301   0.348   1.468   5.195 -0.3309 -0.4230  0.3563
 3081SOL    HW121302   0.445   1.490   5.203 -0.3613 -0.2857  0.3502
 3081SOL    HW221303   0.296   1.551   5.174 -0.6465 -0.1892  1.9571
 3082SOL     OW21304   3.656   3.637   6.372  0.0278 -0.2051  0.3492
 3082SOL    HW121305   3.637   3.582   6.290 -1.6920  1.9189 -0.7238
 3082SOL    HW221306   3.733   3.699   6.354  0.4775 -0.6298  0.7886
 3083SOL     OW21307   9.189   2.969   6.350 -0.0913 -0.0052 -0.4061
 3083SOL    HW121308   9.141   2.940   6.267 -1.2424 -1.1624  0.6516
 3083SOL    HW221309   9.196   3.069   6.350 -1.4744  0.1112 -1.1559
 3084SOL     OW21310   4.379   6.961   0.490 -0.2549  0.5024 -0.0976
 3084SOL    HW121311   4.358   6.873   0.447  0.2466  1.0277 -1.4588
 3084SOL    HW221312   4.295   7.004   0.521 -0.5739 -0.1267 -0.0879
 3085SOL     OW21313   9.652   1.475   4.444 -0.7095 -0.4312  0.0256
 3085SOL    HW121314   9.625   1.570   4.451 -1.9278 -0.8190  0.6858
 3085SOL    HW221315   9.630   1.427   4.530  0.5481 -1.1359 -0.0280
 3086SOL     OW21316   0.674   2.645   7.230  0.1630  0.1245 -0.1599
 3086SOL    HW121317   0.636   2.734   7.253 -0.9523 -0.4798  0.3620
 3086SOL    HW221318   0.609   2.573   7.256  0.1366 -0.7288 -2.4654
 3087SOL     OW21319   9.064   3.453   2.041 -0.3762  0.4703  0.4818
 3087SOL    HW121320   9.104   3.486   1.956  0.4108  0.6008  0.8993
 3087SOL    HW221321   9.122   3.479   2.118 -2.1251  2.1524  1.2814
 3088SOL     OW21322   6.695   0.259   7.609  0.5707  0.1534  0.2717
 3088SOL    HW121323   6.619   0.213   7.654  2.6179 -1.9847  1.6642
 3088SOL    HW221324   6.667   0.289   7.518 -1.9789 -0.3950  0.8375
 3089SOL     OW21325   7.880   3.946   7.140  0.2404 -0.2512 -0.0295
 3089SOL    HW121326   7.963   3.925   7.088  0.6001  0.7947  0.1189
 3089SOL    HW221327   7.889   3.911   7.233  1.1661  1.2148  0.4534
 3090SOL     OW21328   7.667   9.359   7.085  0.3510  0.3547  0.3852
 3090SOL    HW121329   7.626   9.341   7.174  0.8635  0.6306  0.6842
 3090SOL    HW221330   7.611   9.318   7.013 -1.1166  1.7850  0.6755
 3091SOL     OW21331   3.365   5.789   2.386  0.5416 -0.2692 -0.1164
 3091SOL    HW121332   3.375   5.859   2.315 -2.1778 -0.6318 -0.9345
 3091SOL    HW221333   3.429   5.714   2.369 -0.5663 -0.7125 -2.6947
 3092SOL     OW21334   9.268   9.025   7.194  0.0297  0.0708 -0.0436
 3092SOL    HW121335   9.187   9.052   7.142 -1.3315 -0.3352  1.8096
 3092SOL    HW221336   9.305   9.105   7.241  0.6688  0.2342 -0.8057
 3093SOL     OW21337   7.180   2.626   8.239  0.5011 -0.0842 -0.0927
 3093SOL    HW121338   7.230   2.582   8.165 -0.5748 -0.0129 -0.8823
 3093SOL    HW221339   7.101   2.570   8.265 -0.2616  0.8471 -0.3665
 3094SOL     OW21340   5.631   9.120   1.995  0.1987 -0.7501  0.0725
 3094SOL    HW121341   5.576   9.062   1.936  1.3461 -2.9491  1.0993
 3094SOL    HW221342   5.586   9.209   2.006 -1.0454 -1.0385 -2.3971
 3095SOL     OW21343   3.485   6.031   7.664  0.1523 -0.3855  0.2690
 3095SOL    HW121344   3.435   6.059   7.746  2.6020  0.8269  1.3743
 3095SOL    HW221345   3.477   6.101   7.593 -1.8482 -1.3719 -0.5280
 3096SOL     OW21346   5.284   0.228   5.190  0.1948  0.0295  0.0470
 3096SOL    HW121347   5.193   0.268   5.175  0.2369  0.0794 -0.0750
 3096SOL    HW221348   5.280   0.165   5.267  0.4663  1.4371  1.2396
 3097SOL     OW21349   8.202   7.440   4.547 -0.2109  0.7003  0.6109
 3097SOL    HW121350   8.167   7.453   4.454 -2.1027 -0.4659  1.1262
 3097SOL    HW221351   8.240   7.348   4.557  1.3301  1.3197  0.5971
 3098SOL     OW21352   1.651   5.342   7.409  0.2797 -0.1765 -0.3409
 3098SOL    HW121353   1.637   5.306   7.316 -0.9200  0.6815 -0.5122
 3098SOL    HW221354   1.700   5.274   7.464  0.8681 -0.7551 -1.5615
 3099SOL     OW21355   1.788   4.593   5.403  0.1817 -0.4943  0.9687
 3099SOL    HW121356   1.710   4.532   5.394  0.4761 -0.8831  1.0370
 3099SOL    HW221357   1.771   4.677   5.350 -0.6094 -0.2404  1.6222
 3100SOL     OW21358   0.755   8.355   0.566  0.2345  0.3285 -0.1114
 3100SOL    HW121359   0.774   8.338   0.663  2.1926 -1.8099 -0.8167
 3100SOL    HW221360   0.779   8.274   0.513 -0.2689  1.6795 -2.4689
 3101SOL     OW21361   0.468   2.398   0.679  0.1777  0.2807  0.3515
 3101SOL    HW121362   0.445   2.378   0.584 -0.7221 -0.9736  0.8226
 3101SOL    HW221363   0.419   2.480   0.708  0.6757  0.8343 -0.3381
 3102SOL     OW21364   1.727   6.774   4.561 -0.1288 -0.2034  0.2859
 3102SOL    HW121365   1.724   6.864   4.606 -0.6792 -0.7281  1.3149
 3102SOL    HW221366   1.633   6.741   4.548  0.1342 -1.4593  1.5834
 3103SOL     OW21367   7.462   0.263   3.893  0.0034 -0.1520 -0.3757
 3103SOL    HW121368   7.544   0.311   3.862 -1.1714  1.1302 -1.5755
 3103SOL    HW221369   7.387   0.328   3.900 -0.5943 -1.0591  2.0309
 3104SOL     OW21370   1.080   7.423   2.730  0.2368 -0.0335  0.4355
 3104SOL    HW121371   1.139   7.486   2.680  0.0576 -0.2443 -0.0510
 3104SOL    HW221372   1.074   7.337   2.679 -2.1435  0.6933 -0.5817
 3105SOL     OW21373   2.482   0.394   3.228  0.4388  0.0675  0.2310
 3105SOL    HW121374   2.442   0.448   3.302  0.3214 -1.4403  1.2804
 3105SOL    HW221375   2.473   0.444   3.141  0.1485  1.6261  1.1505
 3106SOL     OW21376   1.018   3.140   1.710  0.6588 -0.4261  0.4599
 3106SOL    HW121377   1.006   3.091   1.797 -0.1399 -2.8206 -0.9649
 3106SOL    HW221378   1.116   3.157   1.695  0.6374  2.8273  3.2853
 3107SOL     OW21379   3.779   3.143   1.449  0.3894  0.2017 -0.0626
 3107SOL    HW121380   3.683   3.166   1.458  0.4431  0.6732 -0.6601
 3107SOL    HW221381   3.808   3.088   1.527  0.0416  1.4190  0.9308
 3108SOL     OW21382   9.275   4.158   2.000 -0.5506 -0.1425 -0.1436
 3108SOL    HW121383   9.277   4.251   1.965 -2.0470 -0.1721 -0.3208
 3108SOL    HW221384   9.209   4.151   2.075 -1.9897 -1.5067 -1.4930
 3109SOL     OW21385   4.854   5.085   1.929 -0.1153  0.6801 -0.7985
 3109SOL    HW121386   4.859   4.990   1.898  1.5319  0.2022  0.8673
 3109SOL    HW221387   4.800   5.089   2.014  0.9240  1.0217 -0.1399
 3110SOL     OW21388   2.574   6.773   0.579 -0.2512  0.5296  0.0686
 3110SOL    HW121389   2.510   6.833   0.627 -1.7689 -0.2383 -0.9355
 3110SOL    HW221390   2.615   6.709   0.644 -1.8349 -0.1120  0.4730
 3111SOL     OW21391   9.521   9.545   6.404 -0.3278 -0.1224 -0.1636
 3111SOL    HW121392   9.549   9.579   6.494 -1.0955 -0.9350  0.4030
 3111SOL    HW221393   9.577   9.466   6.380  0.2302  0.4171 -0.6400
 3112SOL     OW21394   8.980   5.254   8.602 -0.3123  0.3413 -0.3556
 3112SOL    HW121395   9.066   5.237   8.651 -0.7149  2.0053  0.9576
 3112SOL    HW221396   8.912   5.188   8.632  0.0979 -0.0884 -0.3534
 3113SOL     OW21397   5.243   5.072   7.228  0.4370  0.1142  0.1103
 3113SOL    HW121398   5.294   5.136   7.286 -0.9433  0.9416  0.4428
 3113SOL    HW221399   5.218   5.119   7.143 -1.2005  0.2546  0.6594
 3114SOL     OW21400   4.878   5.885   9.299  0.4351  0.3855 -0.0512
 3114SOL    HW121401   4.909   5.813   9.361 -0.5904 -0.8130 -0.9073
 3114SOL    HW221402   4.796   5.929   9.335  1.2611  1.3825  0.6431
 3115SOL     OW21403   2.823   9.933   6.823 -0.6353  0.4779 -0.2105
 3115SOL    HW121404   2.919   9.908   6.840 -0.6581  0.2511 -0.4186
 3115SOL    HW221405   2.777   9.945   6.911 -0.7300 -0.6321 -0.1049
 3116SOL     OW21406   1.207   4.500   9.456 -0.1781 -0.0255  0.6316
 3116SOL    HW121407   1.181   4.457   9.542  0.6854  0.6696  1.2533
 3116SOL    HW221408   1.156   4.584   9.444 -0.8879 -0.5329  0.0674
 3117SOL     OW21409   0.865   9.514   7.488 -0.0847  0.1438  0.0299
 3117SOL    HW121410   0.913   9.509   7.576  1.9064  0.4428 -1.0324
 3117SOL    HW221411   0.925   9.553   7.419 -0.9994 -1.8453 -1.9344
 3118SOL     OW21412   1.702   5.546   3.806  0.5560  0.1684  0.2334
 3118SOL    HW121413   1.707   5.640   3.772  0.9657  0.0092 -0.1423
 3118SOL    HW221414   1.722   5.545   3.904 -0.8247  0.6565  0.5420
 3119SOL     OW21415   2.852   2.327   6.916  0.6227 -0.3337 -0.9098
 3119SOL    HW121416   2.788   2.357   6.988  0.0220  2.4613 -2.5437
 3119SOL    HW221417   2.931   2.388   6.914  0.1802  0.2184 -3.2243
 3120SOL     OW21418   0.597   6.472   6.130  0.1647  0.4911  0.2717
 3120SOL    HW121419   0.689   6.448   6.100  0.4612  0.0487  1.5214
 3120SOL    HW221420   0.534   6.466   6.052  0.9492 -0.4427 -0.3008
 3121SOL     OW21421   0.155   0.961   8.577 -0.5192  0.2362 -0.3562
 3121SOL    HW121422   0.071   1.016   8.575  0.2229  1.3571 -1.2453
 3121SOL    HW221423   0.209   0.979   8.495  0.1605 -1.1874 -0.2423
 3122SOL     OW21424   3.570   4.026   2.799  0.4427  0.0069  0.3414
 3122SOL    HW121425   3.492   4.024   2.862  0.0805 -0.9232 -0.1362
 3122SOL    HW221426   3.545   3.983   2.713  0.7408  1.8377 -0.6895
 3123SOL     OW21427   2.584   7.969   4.326  0.1091  0.2457 -0.0090
 3123SOL    HW121428   2.585   8.005   4.233  0.5267  1.3543  0.4107
 3123SOL    HW221429   2.503   8.001   4.374 -0.1335 -0.3667 -0.0088
 3124SOL     OW21430   1.473   4.879   8.302 -0.1048 -0.3887  0.2720
 3124SOL    HW121431   1.403   4.943   8.270  0.2191 -0.5275 -0.7155
 3124SOL    HW221432   1.429   4.796   8.336 -0.3962 -0.7327 -0.9304
 3125SOL     OW21433   0.866   0.462   4.565 -0.3291 -0.0070  0.0968
 3125SOL    HW121434   0.817   0.549   4.576  0.6585  0.5594  0.0204
 3125SOL    HW221435   0.826   0.412   4.488 -0.7605  0.4705  0.0031
 3126SOL     OW21436   2.939   7.275   8.689  0.2465 -0.1090 -0.0973
 3126SOL    HW121437   2.918   7.222   8.607 -1.2362  1.8375 -1.0061
 3126SOL    HW221438   2.856   7.287   8.743  0.6074  1.1022  0.2003
 3127SOL     OW21439   8.515   7.383   3.054 -0.1639  0.3232 -0.5514
 3127SOL    HW121440   8.548   7.321   2.983  0.5119 -0.3877  0.3647
 3127SOL    HW221441   8.433   7.344   3.097  0.7967 -0.4112  0.6569
 3128SOL     OW21442   3.488   3.071   8.728  0.5450  0.0203 -0.2211
 3128SOL    HW121443   3.470   3.029   8.817  0.0853 -0.4166 -0.5235
 3128SOL    HW221444   3.421   3.039   8.661 -0.7062  2.3096 -0.1168
 3129SOL     OW21445   9.726   2.793   6.496 -0.5923  0.3663 -0.0815
 3129SOL    HW121446   9.634   2.832   6.490 -1.1920 -1.2407 -1.8821
 3129SOL    HW221447   9.791   2.865   6.520 -1.8826  2.1248 -1.7423
 3130SOL     OW21448   0.037   1.340   2.432  0.0379 -0.0655  0.0126
 3130SOL    HW121449   0.046   1.429   2.476  0.3353  0.3353 -0.8488
 3130SOL    HW221450   0.011   1.272   2.500  1.5382  0.3319  1.0198
 3131SOL     OW21451   8.154   7.551   3.061 -0.1028 -0.4694 -0.2236
 3131SOL    HW121452   8.157   7.460   3.102  1.0779  0.7766  2.5497
 3131SOL    HW221453   8.243   7.573   3.022  0.1317  0.1745  0.6614
 3132SOL     OW21454   7.036   5.013   0.920  0.1995 -0.5565 -0.8588
 3132SOL    HW121455   6.969   4.982   0.988  0.5241 -0.5169 -0.5213
 3132SOL    HW221456   6.989   5.065   0.849 -0.0566 -0.0747 -0.3451
 3133SOL     OW21457   8.613   7.784   3.268 -0.6915  0.2230  0.0998
 3133SOL    HW121458   8.600   7.752   3.361  1.8020 -0.7571  0.1395
 3133SOL    HW221459   8.701   7.831   3.260 -0.4515 -0.5036 -1.9535
 3134SOL     OW21460   1.382   9.491   5.060  0.2051 -0.1859  0.8077
 3134SOL    HW121461   1.420   9.459   5.147 -1.2377 -1.1850  1.0849
 3134SOL    HW221462   1.449   9.548   5.013  2.4947 -2.7723  0.7881
 3135SOL     OW21463   2.730   5.095   7.254 -0.0648  0.1946  0.2446
 3135SOL    HW121464   2.781   5.154   7.191  1.8215  0.8651  2.3580
 3135SOL    HW221465   2.657   5.148   7.298 -0.8392 -0.0602 -0.7085
 3136SOL     OW21466   2.879   4.685   2.159 -0.0948  0.0590  0.0617
 3136SOL    HW121467   2.857   4.746   2.083 -0.6421 -1.2457 -0.8389
 3136SOL    HW221468   2.909   4.739   2.237  1.9799  1.3393 -1.5746
 3137SOL     OW21469   2.786   4.804   9.630 -0.3076  0.4405  0.0233
 3137SOL    HW121470   2.827   4.715   9.646  1.6177  1.3642  0.3508
 3137SOL    HW221471   2.728   4.800   9.548  1.1329 -0.6876 -0.9677
 3138SOL     OW21472   1.869   9.482   8.889 -0.1913  0.3795  0.6971
 3138SOL    HW121473   1.893   9.409   8.826 -1.4894  1.1699 -0.7621
 3138SOL    HW221474   1.950   9.536   8.911  0.6071 -0.9683  1.1212
 3139SOL     OW21475   0.716   5.812   4.581  0.5463  0.3840  0.0471
 3139SOL    HW121476   0.642   5.870   4.616  0.6578  1.5079 -1.4926
 3139SOL    HW221477   0.740   5.743   4.649  0.0377  1.8223  1.7152
 3140SOL     OW21478   3.134   7.969   9.239  0.1587 -0.3274  0.0116
 3140SOL    HW121479   3.074   8.015   9.174 -0.8032  0.1288  1.1951
 3140SOL    HW221480   3.168   8.035   9.306 -0.6976 -1.1849  1.3244
 3141SOL     OW21481   1.568   8.639   1.990  1.0514 -0.1566  0.0083
 3141SOL    HW121482   1.539   8.558   2.041  1.8068 -0.9568 -0.8204
 3141SOL    HW221483   1.545   8.721   2.043 -0.2323 -0.8743  0.5958
 3142SOL     OW21484   8.617   3.559   7.426 -0.1716  0.0474  1.0634
 3142SOL    HW121485   8.642   3.616   7.505 -0.2294  0.6261  0.6700
 3142SOL    HW221486   8.664   3.593   7.345 -0.2187 -0.4664  0.8243
 3143SOL     OW21487   8.750   4.326   2.459  0.5292 -0.2389 -0.3699
 3143SOL    HW121488   8.756   4.227   2.447 -1.2324 -0.3482 -0.4613
 3143SOL    HW221489   8.713   4.346   2.549 -0.0633  0.3275 -0.7390
 3144SOL     OW21490   2.815   7.971   9.384  0.0310  0.6252 -0.0452
 3144SOL    HW121491   2.785   8.040   9.319 -0.7141 -0.3429 -0.7410
 3144SOL    HW221492   2.867   7.899   9.337 -0.8090 -0.2619  0.3561
 3145SOL     OW21493   7.118   1.271   9.833  0.9198  1.3042 -0.0009
 3145SOL    HW121494   7.148   1.346   9.892 -0.4240 -0.5815  3.2247
 3145SOL    HW221495   7.019   1.273   9.824  1.1117  1.5663 -2.2343
 3146SOL     OW21496   9.488   0.024   4.170 -1.0175 -0.3355 -0.2073
 3146SOL    HW121497   9.467   0.007   4.266 -0.4701 -0.5236 -0.1148
 3146SOL    HW221498   9.587   0.040   4.161 -0.7985 -2.0700 -0.9775
 3147SOL     OW21499   8.201   0.163   2.772  0.0248 -0.4668  0.5584
 3147SOL    HW121500   8.272   0.093   2.763 -0.4172 -0.5544 -2.7009
 3147SOL    HW221501   8.244   0.253   2.779  0.4910 -0.6406 -0.0372
 3148SOL     OW21502   9.718   1.816   1.067 -0.0586  0.6910 -0.0645
 3148SOL    HW121503   9.795   1.805   1.005 -1.0741  0.2467 -1.2585
 3148SOL    HW221504   9.752   1.837   1.159  1.5373 -1.0894 -0.2293
 3149SOL     OW21505   9.344   9.908   0.883  0.4456 -0.4012  0.6688
 3149SOL    HW121506   9.404   9.828   0.886  0.3316 -0.4733  1.1274
 3149SOL    HW221507   9.258   9.886   0.928  0.8498  0.3358  1.8282
 3150SOL     OW21508   9.026   9.969   2.256  0.0019 -0.1195 -0.0548
 3150SOL    HW121509   9.090   9.961   2.333  0.6258  1.4317 -0.3849
 3150SOL    HW221510   9.053   9.905   2.184  0.3807 -0.4444  0.3721
 3151SOL     OW21511   4.055   0.236   8.347 -0.0321  0.0327 -0.4248
 3151SOL    HW121512   4.061   0.137   8.340 -3.6089 -0.3268  0.5058
 3151SOL    HW221513   3.995   0.271   8.274 -1.3734  1.1148  1.1639
 3152SOL     OW21514   3.198   8.665   5.772  0.4877  0.7432  0.3498
 3152SOL    HW121515   3.250   8.737   5.725 -0.2344  0.7648 -0.4432
 3152SOL    HW221516   3.254   8.583   5.779  0.5033  0.6280 -0.8866
 3153SOL     OW21517   5.082   7.137   2.913  0.1675 -0.3473 -0.0002
 3153SOL    HW121518   5.132   7.220   2.889 -1.3006  0.7806  0.7369
 3153SOL    HW221519   5.147   7.064   2.934  1.4752  0.5234 -0.9434
 3154SOL     OW21520   9.143   7.029   4.072 -0.1862 -0.1639 -0.1097
 3154SOL    HW121521   9.110   7.068   3.987  0.9234  1.1457  0.0396
 3154SOL    HW221522   9.122   6.931   4.074 -2.0978  0.2036 -0.9329
 3155SOL     OW21523   3.440   5.707   8.187  0.0462  0.4871  0.1724
 3155SOL    HW121524   3.465   5.618   8.149 -0.4702  0.9057 -1.1597
 3155SOL    HW221525   3.481   5.780   8.133  0.2835  1.0762  1.1270
 3156SOL     OW21526   7.231   7.417   4.197  0.1386 -0.2081 -0.0459
 3156SOL    HW121527   7.247   7.444   4.102 -1.1391  0.8613  0.0365
 3156SOL    HW221528   7.224   7.317   4.202 -0.0144 -0.2604 -1.0953
 3157SOL     OW21529   9.826   7.059   5.141  0.0334 -0.1562 -0.3470
 3157SOL    HW121530   9.871   7.120   5.076  0.5581 -1.5350 -1.2985
 3157SOL    HW221531   9.859   7.078   5.233  3.0221 -1.4753 -1.0747
 3158SOL     OW21532   8.233   2.830   2.152 -0.2747  0.0377 -0.1333
 3158SOL    HW121533   8.266   2.899   2.088 -1.4682  0.3147 -0.4599
 3158SOL    HW221534   8.144   2.858   2.188  0.2357 -0.2824  1.3951
 3159SOL     OW21535   3.701   4.307   8.285 -0.5104  0.1610  0.1146
 3159SOL    HW121536   3.659   4.271   8.368  0.0487  0.7105  0.6453
 3159SOL    HW221537   3.723   4.403   8.298  2.1459 -0.4325  0.3611
 3160SOL     OW21538   5.428   1.519   0.478 -0.0034 -0.4266  0.1014
 3160SOL    HW121539   5.372   1.459   0.422 -0.4787 -0.2300  0.3641
 3160SOL    HW221540   5.519   1.479   0.489 -1.0488 -2.3017  2.3003
 3161SOL     OW21541   2.170   4.607   6.104  0.1667 -0.2817  0.1887
 3161SOL    HW121542   2.224   4.608   6.020 -0.8252  1.2287 -0.4617
 3161SOL    HW221543   2.108   4.529   6.103 -0.7276  0.4271 -1.0810
 3162SOL     OW21544   4.301   7.123   0.155  0.2917  0.1103  0.0771
 3162SOL    HW121545   4.375   7.171   0.203  1.3848  0.2168 -1.6515
 3162SOL    HW221546   4.308   7.142   0.057 -0.9595 -1.3236 -0.2994
 3163SOL     OW21547   2.008   8.170   0.527  0.3410 -0.1533 -0.0685
 3163SOL    HW121548   2.098   8.215   0.529  0.2228  0.1050 -0.6548
 3163SOL    HW221549   1.973   8.164   0.621  0.6828  0.3253  0.0953
 3164SOL     OW21550   3.488   8.001   5.742 -0.3314  0.2276 -0.2424
 3164SOL    HW121551   3.539   7.962   5.665  0.7841  3.7594 -1.4017
 3164SOL    HW221552   3.400   8.037   5.710 -1.1001 -0.7970  0.6840
 3165SOL     OW21553   1.375   2.814   9.934 -0.1453  0.0544 -0.1666
 3165SOL    HW121554   1.367   2.902   9.886  3.7752  1.2980  1.2237
 3165SOL    HW221555   1.421   2.748   9.875 -1.0135 -0.3553 -0.3828
 3166SOL     OW21556   4.272   1.098   8.664  0.0419  0.0815  0.6243
 3166SOL    HW121557   4.248   1.033   8.592 -0.7507  0.7666  0.2776
 3166SOL    HW221558   4.194   1.156   8.685  0.4995  0.3870  1.5106
 3167SOL     OW21559   7.373   1.029   6.338  0.4711 -0.0754 -0.5605
 3167SOL    HW121560   7.338   1.113   6.378 -1.0061 -1.5209  1.2863
 3167SOL    HW221561   7.469   1.041   6.312  0.7574  1.6352  1.2593
 3168SOL     OW21562   6.907   9.681   5.936  0.2784  0.5307 -0.1555
 3168SOL    HW121563   6.972   9.757   5.948 -0.8163  1.4661 -0.1211
 3168SOL    HW221564   6.871   9.681   5.843  1.6993 -1.1093 -0.7416
 3169SOL     OW21565   7.333   3.396   2.330  0.5575 -0.2321 -0.0042
 3169SOL    HW121566   7.243   3.373   2.294  0.9666 -0.2491 -1.0564
 3169SOL    HW221567   7.380   3.456   2.265  1.4384 -0.5086  0.3673
 3170SOL     OW21568   4.902   0.436   6.782 -0.1569  0.4409 -0.5233
 3170SOL    HW121569   4.948   0.438   6.693  0.2220  2.2118 -0.2960
 3170SOL    HW221570   4.808   0.404   6.770  0.1482 -0.1449 -1.4306
 3171SOL     OW21571   9.844   0.836   9.386  0.4190 -1.1817  0.2715
 3171SOL    HW121572   9.841   0.738   9.364  0.2646 -0.5616 -2.7590
 3171SOL    HW221573   9.915   0.880   9.330  0.8576  0.3655  2.0077
 3172SOL     OW21574   6.893   1.846   3.057  0.0744 -0.4875 -0.6325
 3172SOL    HW121575   6.842   1.930   3.072  2.8292  1.2863 -0.8700
 3172SOL    HW221576   6.926   1.843   2.962 -0.6867 -2.2425 -0.8675
 3173SOL     OW21577   1.992   7.820   0.678  0.1628 -0.1577 -0.1461
 3173SOL    HW121578   2.086   7.831   0.646 -0.7876  2.0836 -2.2646
 3173SOL    HW221579   1.931   7.882   0.629 -2.5060 -1.7492  0.9849
 3174SOL     OW21580   1.153   7.448   3.076  0.0844  0.3033  0.6665
 3174SOL    HW121581   1.074   7.412   3.027  0.3478 -1.1264  1.2784
 3174SOL    HW221582   1.135   7.543   3.102 -1.5489 -0.0892  1.0452
 3175SOL     OW21583   4.040   3.304   9.519  0.1892  0.0607  0.0163
 3175SOL    HW121584   4.094   3.238   9.570 -1.5483  0.7067  2.8288
 3175SOL    HW221585   3.943   3.291   9.540 -0.3925  1.7310 -1.4951
 3176SOL     OW21586   4.821   2.323   1.617  0.0688  0.2110  0.5382
 3176SOL    HW121587   4.913   2.319   1.657 -0.2677  0.4763  1.3532
 3176SOL    HW221588   4.782   2.231   1.616  0.0039  0.2313  1.0110
 3177SOL     OW21589   2.966   7.160   7.533  0.0663  0.0078 -0.4669
 3177SOL    HW121590   2.922   7.248   7.552  0.2259 -0.1723  0.7988
 3177SOL    HW221591   2.903   7.101   7.483  0.1436  1.0269 -1.7949
 3178SOL     OW21592   2.498   8.988   6.543 -0.0668 -0.2976  0.2449
 3178SOL    HW121593   2.549   9.066   6.580 -2.5896  2.1776 -1.2569
 3178SOL    HW221594   2.552   8.945   6.470  0.4432  1.4667 -0.4446
 3179SOL     OW21595   0.857   7.474   1.254  0.2122  0.3750 -0.6446
 3179SOL    HW121596   0.915   7.447   1.331  0.2179 -0.6966 -1.0173
 3179SOL    HW221597   0.914   7.520   1.185 -0.3572  4.4322  1.4389
 3180SOL     OW21598   7.057   8.980   8.187  0.3754  0.0738  0.1492
 3180SOL    HW121599   7.049   9.080   8.187 -0.4012  0.0266  1.3855
 3180SOL    HW221600   7.071   8.948   8.281 -1.2096 -1.1128 -0.0096
 3181SOL     OW21601   2.705   5.893   4.874  0.6076  0.1681  0.0093
 3181SOL    HW121602   2.656   5.972   4.910  0.0335 -0.7381  1.2616
 3181SOL    HW221603   2.655   5.856   4.795 -0.1446 -0.0874  0.5986
 3182SOL     OW21604   5.603   9.618   1.806 -0.1647  0.0477 -0.3529
 3182SOL    HW121605   5.534   9.553   1.838 -0.2233 -0.1487 -0.8782
 3182SOL    HW221606   5.560   9.688   1.749 -0.1160  0.6027  0.2841
 3183SOL     OW21607   8.719   9.044   5.412  0.2348 -0.1727  0.0062
 3183SOL    HW121608   8.651   9.108   5.449  0.7802 -0.2700  1.2201
 3183SOL    HW221609   8.698   8.952   5.445  0.3017 -0.3866 -0.5418
 3184SOL     OW21610   3.378   2.595   2.003  0.1222  0.1132 -0.1990
 3184SOL    HW121611   3.283   2.570   2.017 -0.2481  0.3478 -2.1680
 3184SOL    HW221612   3.435   2.553   2.074 -1.0260 -2.7670 -0.9300
 3185SOL     OW21613   7.360   4.305   8.293  0.3647 -0.1772  0.3088
 3185SOL    HW121614   7.299   4.340   8.222  2.1788  2.9844  0.2569
 3185SOL    HW221615   7.430   4.247   8.251  1.1751  1.3319 -0.4375
 3186SOL     OW21616   4.213   4.970  10.003  0.2709 -0.2705  0.1950
 3186SOL    HW121617   4.300   4.928  10.031  0.9378  0.4867 -0.7089
 3186SOL    HW221618   4.211   5.065  10.032 -1.1487 -0.8327  2.0463
 3187SOL     OW21619   2.712   9.254   0.394  0.6577  0.1448  0.2535
 3187SOL    HW121620   2.753   9.272   0.305  1.6773 -0.3419  0.6118
 3187SOL    HW221621   2.669   9.164   0.393 -0.8979  0.8742 -0.2879
 3188SOL     OW21622   8.084   5.369   0.675  0.1427 -0.1087 -0.2710
 3188SOL    HW121623   8.115   5.305   0.605 -0.2665  0.6345 -1.1358
 3188SOL    HW221624   8.160   5.427   0.703  0.9269 -1.9480  1.6336
 3189SOL     OW21625   2.927   1.592   9.843  0.3941  0.2422  0.1214
 3189SOL    HW121626   3.018   1.564   9.873  0.3434 -0.3090 -0.2449
 3189SOL    HW221627   2.917   1.575   9.745 -0.8110 -1.6342  0.5412
 3190SOL     OW21628   4.158   8.775   8.871  0.0147  0.0847  0.2266
 3190SOL    HW121629   4.193   8.811   8.784  0.6831 -0.6158  0.1922
 3190SOL    HW221630   4.182   8.838   8.944 -1.1846  1.0386 -0.1877
 3191SOL     OW21631   2.450   4.295   9.123 -0.0287 -0.1960 -0.3356
 3191SOL    HW121632   2.419   4.381   9.084 -1.1314 -0.3371  0.2282
 3191SOL    HW221633   2.386   4.264   9.193  0.8220 -1.0234  0.1010
 3192SOL     OW21634   7.086   4.380   1.542 -0.4576 -0.0259 -0.0719
 3192SOL    HW121635   7.183   4.357   1.554 -0.0932  1.8225  0.6695
 3192SOL    HW221636   7.031   4.297   1.548  1.2265 -1.3534 -2.2891
 3193SOL     OW21637   4.512   9.085   5.641  0.0927  0.3357  0.1736
 3193SOL    HW121638   4.433   9.041   5.599  0.1011 -0.2966  0.8027
 3193SOL    HW221639   4.508   9.073   5.740  1.0177  0.2237  0.2071
 3194SOL     OW21640   1.013   3.316   0.590 -0.2854 -0.4271 -0.0417
 3194SOL    HW121641   1.010   3.284   0.685  2.2542  0.3554  0.3407
 3194SOL    HW221642   1.035   3.239   0.530  0.4446 -0.4791  0.2810
 3195SOL     OW21643   8.267   1.570   4.947  0.0735 -0.3265 -0.0714
 3195SOL    HW121644   8.339   1.591   4.881  1.5646 -0.2295  1.5421
 3195SOL    HW221645   8.219   1.487   4.918  1.2511 -0.7642 -0.8346
 3196SOL     OW21646   7.612   5.696   6.428  0.4032 -0.3366  0.1165
 3196SOL    HW121647   7.660   5.704   6.516  0.4170  0.7927  0.0261
 3196SOL    HW221648   7.675   5.662   6.358  0.7128 -0.1277  0.2912
 3197SOL     OW21649   8.855   4.301   4.211  0.1889 -0.3154 -0.5910
 3197SOL    HW121650   8.880   4.383   4.264  0.2874 -0.2607 -0.7224
 3197SOL    HW221651   8.756   4.296   4.203  0.1505 -0.5764  0.0033
 3198SOL     OW21652   9.323   6.314   4.908  0.5352  0.2141  0.0639
 3198SOL    HW121653   9.312   6.229   4.858  0.3169 -0.9520  2.0442
 3198SOL    HW221654   9.409   6.312   4.960 -0.6753  0.0972  2.1404
 3199SOL     OW21655   6.492   2.613   5.067  0.2421 -0.8121 -0.3362
 3199SOL    HW121656   6.588   2.641   5.066  0.2595 -0.8871 -1.0251
 3199SOL    HW221657   6.436   2.686   5.028  0.1714 -1.2993 -1.1626
 3200SOL     OW21658   6.960   3.495   2.906  0.4655  0.0692  0.8751
 3200SOL    HW121659   6.902   3.494   2.988 -2.0500 -1.4419 -0.8421
 3200SOL    HW221660   6.902   3.499   2.825  2.9423  2.1162 -0.8422
 3201SOL     OW21661   8.934   8.850   9.724  0.6495 -0.1373 -0.6252
 3201SOL    HW121662   8.882   8.910   9.663  2.5338  2.0373 -0.1473
 3201SOL    HW221663   9.027   8.840   9.689  2.0661  1.9529  2.3794
 3202SOL     OW21664   0.187   2.921   0.032  0.3086 -0.9653 -0.4709
 3202SOL    HW121665   0.207   3.019   0.018  1.4177 -1.0800  0.2257
 3202SOL    HW221666   0.100   2.899  -0.010 -0.8332  0.7262  0.9095
 3203SOL     OW21667   9.847   5.807   5.175 -0.1232  0.2788  0.1734
 3203SOL    HW121668   9.792   5.772   5.250 -1.4450  1.5414 -0.1912
 3203SOL    HW221669   9.905   5.734   5.139  0.0560 -0.4924  1.9972
 3204SOL     OW21670   3.869   3.846   7.163  0.6029 -0.6460 -0.2801
 3204SOL    HW121671   3.770   3.855   7.160  0.6296  0.4393  1.4521
 3204SOL    HW221672   3.900   3.790   7.085 -1.4362 -1.8827 -0.2397
 3205SOL     OW21673   2.238   2.256   5.377  0.1944 -0.3282 -0.3025
 3205SOL    HW121674   2.287   2.275   5.462 -0.3022  0.1941 -0.1290
 3205SOL    HW221675   2.204   2.341   5.338  1.4208 -0.4311 -1.6531
 3206SOL     OW21676   2.712   2.875   3.705  0.1363 -0.4562 -0.1839
 3206SOL    HW121677   2.652   2.953   3.691  0.6842  0.2171  1.1755
 3206SOL    HW221678   2.677   2.818   3.779  0.8442 -0.3653  0.2323
 3207SOL     OW21679   2.225   0.173   2.881 -0.3165  0.0990  0.4526
 3207SOL    HW121680   2.171   0.160   2.964  0.2953  1.3850  1.0601
 3207SOL    HW221681   2.224   0.088   2.828  0.1523 -1.1016  2.2821
 3208SOL     OW21682   8.792   1.402   1.232 -0.1270  0.2094  0.2941
 3208SOL    HW121683   8.828   1.407   1.326  0.7242  0.9911 -0.0601
 3208SOL    HW221684   8.712   1.343   1.230 -0.7969  1.0437  1.7186
 3209SOL     OW21685   4.583   6.135   0.322 -0.8515 -0.5394 -0.0215
 3209SOL    HW121686   4.607   6.042   0.349 -1.7208 -0.7946 -0.1077
 3209SOL    HW221687   4.484   6.142   0.312 -0.7641  0.3154 -0.3227
 3210SOL     OW21688   5.881   4.091   9.055 -0.0514 -0.1329 -0.3785
 3210SOL    HW121689   5.881   4.180   9.100 -2.6405  0.0589 -0.6711
 3210SOL    HW221690   5.936   4.096   8.971 -1.0111  1.4956 -0.9362
 3211SOL     OW21691   4.130   4.306   2.405 -0.2350 -0.2121 -0.4692
 3211SOL    HW121692   4.049   4.252   2.381 -0.8750  0.5214  0.0257
 3211SOL    HW221693   4.165   4.352   2.324 -0.2439 -0.6217 -0.7076
 3212SOL     OW21694   6.952   5.452   8.904 -0.7480 -0.1879  0.0202
 3212SOL    HW121695   6.976   5.541   8.944  1.8179 -1.0225  0.4334
 3212SOL    HW221696   6.921   5.465   8.810 -1.6513  1.2624  0.4968
 3213SOL     OW21697   4.369   5.905   9.534  0.4330 -0.2188 -0.2517
 3213SOL    HW121698   4.331   5.932   9.623  1.6183 -1.1968  0.5642
 3213SOL    HW221699   4.317   5.828   9.498 -0.1612  0.2915 -0.4965
 3214SOL     OW21700   5.391   5.718   0.069 -0.3380  0.0751 -0.2795
 3214SOL    HW121701   5.443   5.787   0.019 -0.0134 -1.1451 -1.6921
 3214SOL    HW221702   5.304   5.757   0.099  0.1704  1.3126 -0.3898
 3215SOL     OW21703   1.619   2.417   2.871 -0.0978 -0.5152  0.1506
 3215SOL    HW121704   1.643   2.391   2.964 -0.5697  0.1970  0.4806
 3215SOL    HW221705   1.563   2.345   2.829  1.5818 -1.6259 -0.2013
 3216SOL     OW21706   9.656   3.123   6.359 -0.3893 -0.0343 -0.6563
 3216SOL    HW121707   9.737   3.083   6.316  1.0482  0.7516  1.2458
 3216SOL    HW221708   9.591   3.051   6.382  1.7527 -1.2561  1.8441
 3217SOL     OW21709   1.388   7.409   0.897  0.3918  0.1070 -0.4058
 3217SOL    HW121710   1.432   7.325   0.866  0.0168 -0.1646 -0.2054
 3217SOL    HW221711   1.403   7.481   0.830 -2.4700 -1.0907 -2.4715
 3218SOL     OW21712   3.012   4.300   4.507 -0.4801 -0.1583  0.2061
 3218SOL    HW121713   3.005   4.323   4.410  1.0380 -2.4092 -0.4864
 3218SOL    HW221714   2.926   4.258   4.537 -1.0814  0.8649 -0.0564
 3219SOL     OW21715   1.272   2.469   2.277  0.2182  0.0253 -0.6131
 3219SOL    HW121716   1.266   2.443   2.374 -0.7583  0.4292 -0.5494
 3219SOL    HW221717   1.361   2.511   2.259  0.8680 -1.1421 -0.1672
 3220SOL     OW21718   3.633   1.272   2.471 -0.3927  0.0212  0.1670
 3220SOL    HW121719   3.589   1.316   2.550  1.4151 -0.1733  1.3054
 3220SOL    HW221720   3.625   1.173   2.479 -1.3419  0.0294 -0.5753
 3221SOL     OW21721   7.015   1.125   6.613 -0.0657 -0.0321  0.0000
 3221SOL    HW121722   7.000   1.031   6.644  2.5437 -0.0601  1.2820
 3221SOL    HW221723   7.095   1.128   6.553 -0.7075  1.2388 -0.8191
 3222SOL     OW21724   8.074   9.998   6.582  0.3504  0.0414 -0.5750
 3222SOL    HW121725   8.118   9.985   6.671 -0.0995 -0.1602 -0.3783
 3222SOL    HW221726   8.085   9.915   6.527  0.6884  0.1915 -0.7368
 3223SOL     OW21727   0.526   4.687   2.244 -0.2839 -0.3032  0.1077
 3223SOL    HW121728   0.600   4.635   2.202 -0.7300  0.2306 -1.3875
 3223SOL    HW221729   0.490   4.638   2.323 -0.8294 -2.3541 -1.3846
 3224SOL     OW21730   6.294   9.548   4.331 -0.0181 -0.5254  0.1296
 3224SOL    HW121731   6.356   9.546   4.410  1.4961 -0.3939 -1.0422
 3224SOL    HW221732   6.300   9.462   4.281 -2.3296 -1.3083  1.1705
 3225SOL     OW21733   1.826   6.244   0.469  0.3228 -0.0088  0.1648
 3225SOL    HW121734   1.775   6.221   0.551  0.9327 -0.7903  0.3270
 3225SOL    HW221735   1.770   6.226   0.388  0.5722 -1.4738  0.3169
 3226SOL     OW21736   9.622   6.639   4.044 -0.2181 -0.0330  0.4388
 3226SOL    HW121737   9.650   6.733   4.066 -1.0608  0.1831  0.6200
 3226SOL    HW221738   9.685   6.600   3.977 -1.5875  1.7290 -1.9555
 3227SOL     OW21739   7.892   4.486   3.492 -0.2992 -0.0838 -0.0743
 3227SOL    HW121740   7.872   4.530   3.579 -2.6972  0.6278 -0.9475
 3227SOL    HW221741   7.990   4.465   3.487  1.0013  5.1447  0.4002
 3228SOL     OW21742   9.370   7.268   9.117 -0.4870 -0.1747  0.0392
 3228SOL    HW121743   9.437   7.243   9.187 -0.4319 -0.9053 -0.2743
 3228SOL    HW221744   9.334   7.359   9.137  0.3441  0.0830  0.4042
 3229SOL     OW21745   7.084   2.826   3.614 -0.4970  0.1653 -0.1432
 3229SOL    HW121746   7.170   2.866   3.645 -0.1340 -0.5222 -0.2550
 3229SOL    HW221747   7.073   2.844   3.516 -0.8049  0.8341  0.0138
 3230SOL     OW21748   1.058   0.191   6.434  0.0123 -0.5367  0.6653
 3230SOL    HW121749   1.155   0.199   6.408 -0.2219 -0.4389 -0.2008
 3230SOL    HW221750   1.016   0.281   6.432 -0.9297 -0.9752 -2.3290
 3231SOL     OW21751   2.400   4.756   2.610 -0.1319 -0.1492  0.1926
 3231SOL    HW121752   2.341   4.806   2.546  1.3273 -0.0105 -1.0683
 3231SOL    HW221753   2.493   4.752   2.574  0.0178 -2.8777  0.7748
 3232SOL     OW21754   3.883   3.916   4.396 -0.0295  0.1800 -0.1507
 3232SOL    HW121755   3.921   3.828   4.423 -1.1252 -0.2906 -0.1282
 3232SOL    HW221756   3.958   3.979   4.375  0.8222  0.1192  2.5327
 3233SOL     OW21757   0.571   5.015   5.217 -0.0123 -0.1677  0.0312
 3233SOL    HW121758   0.501   5.083   5.240  0.2323  0.4163 -0.9183
 3233SOL    HW221759   0.564   4.992   5.120  0.0736 -1.3155  0.2899
 3234SOL     OW21760   7.270   0.741   6.751  0.0680 -0.6415  0.1343
 3234SOL    HW121761   7.222   0.729   6.838  0.6924 -1.5337  0.3627
 3234SOL    HW221762   7.246   0.667   6.689 -1.7429  0.9258 -1.1147
 3235SOL     OW21763   1.735   4.374   5.957 -0.2062 -0.4288 -0.0041
 3235SOL    HW121764   1.650   4.367   6.008  0.8170  3.5951  2.4554
 3235SOL    HW221765   1.740   4.462   5.911  2.6062 -0.6011 -0.1507
 3236SOL     OW21766   5.404   9.441   5.018  0.2234 -0.0715 -1.3336
 3236SOL    HW121767   5.326   9.456   5.079  1.0559  0.1270 -0.3048
 3236SOL    HW221768   5.425   9.344   5.014  0.2414 -0.0729 -1.2089
 3237SOL     OW21769   5.079   0.593   5.690 -0.3917  0.1781 -0.8979
 3237SOL    HW121770   5.039   0.502   5.701  0.6575 -0.1747  0.0338
 3237SOL    HW221771   5.082   0.639   5.779 -0.9734  1.1544 -1.3710
 3238SOL     OW21772   2.693   8.148   7.574 -0.1664 -0.1053  0.0418
 3238SOL    HW121773   2.680   8.238   7.615  2.3587 -0.1156  0.9605
 3238SOL    HW221774   2.712   8.158   7.477 -1.4740  0.2266 -0.1929
 3239SOL     OW21775   9.312   0.735   6.643 -0.0271  0.2779 -0.0407
 3239SOL    HW121776   9.269   0.773   6.561 -1.3476 -1.2913 -0.0944
 3239SOL    HW221777   9.320   0.636   6.634  1.8419  0.3219  0.8122
 3240SOL     OW21778   9.353   3.166   0.460  0.3891  0.1313 -0.6137
 3240SOL    HW121779   9.396   3.229   0.525 -1.5019 -0.0571  0.8562
 3240SOL    HW221780   9.337   3.078   0.504  1.2249 -0.7761 -2.0736
 3241SOL     OW21781   0.326   2.433   3.150  0.2741  0.1399 -0.4548
 3241SOL    HW121782   0.249   2.371   3.139 -0.1196  0.6707 -0.7101
 3241SOL    HW221783   0.411   2.380   3.157 -0.1485 -0.4532  0.1761
 3242SOL     OW21784   5.544   1.262   8.918  0.2350 -0.5307 -0.2139
 3242SOL    HW121785   5.554   1.251   8.819 -1.1228 -3.1247 -0.0968
 3242SOL    HW221786   5.620   1.216   8.965  0.5813  0.2306 -0.0129
 3243SOL     OW21787   4.719   0.942   0.484 -0.1465 -0.1509 -0.0123
 3243SOL    HW121788   4.797   0.972   0.430  0.6840 -0.3728  1.0278
 3243SOL    HW221789   4.693   0.849   0.457  1.0821 -0.7511  0.8386
 3244SOL     OW21790   5.570   2.339   1.687  0.0081  0.2357 -0.5049
 3244SOL    HW121791   5.659   2.365   1.650 -0.0159  1.0503 -0.0007
 3244SOL    HW221792   5.503   2.333   1.613  0.3601  0.1452 -0.8127
 3245SOL     OW21793   1.012   6.010   6.860 -0.1531  0.1528  0.2058
 3245SOL    HW121794   1.001   5.945   6.784 -1.4692  1.1086 -0.4379
 3245SOL    HW221795   1.108   6.035   6.869  0.4725 -2.3549  0.8621
 3246SOL     OW21796   2.644   0.441   9.445  0.2592  0.0246  0.0802
 3246SOL    HW121797   2.592   0.489   9.516  0.5785 -0.4000  0.6087
 3246SOL    HW221798   2.736   0.478   9.440  0.9934 -1.5257  1.5489
 3247SOL     OW21799   9.860   8.187   8.193  0.0193  0.7188  0.2547
 3247SOL    HW121800   9.899   8.117   8.134 -0.1064  0.3678  0.5874
 3247SOL    HW221801   9.926   8.261   8.205  0.1788  0.6214 -0.0389
 3248SOL     OW21802   0.029   5.321   3.403 -0.4847 -0.7576 -0.7836
 3248SOL    HW121803   0.093   5.263   3.353 -1.5860 -1.5147 -1.3265
 3248SOL    HW221804   0.067   5.413   3.410  1.4267 -1.5813  0.3594
 3249SOL     OW21805   4.818   3.906   9.361  0.2701 -0.0144  0.8155
 3249SOL    HW121806   4.880   3.963   9.307 -0.5012  0.0164 -0.0533
 3249SOL    HW221807   4.724   3.918   9.328  0.2932 -3.0314 -0.5156
 3250SOL     OW21808   5.153   3.804   6.624  0.0148 -0.1858 -0.3637
 3250SOL    HW121809   5.056   3.782   6.632  0.1218 -0.5533 -0.0513
 3250SOL    HW221810   5.183   3.788   6.530 -0.6892  1.8400 -0.9423
 3251SOL     OW21811   3.768   1.732   5.932 -0.2019 -0.1944  0.1752
 3251SOL    HW121812   3.688   1.780   5.967 -0.9737 -1.4614  0.1882
 3251SOL    HW221813   3.741   1.672   5.857  0.9036  0.0788 -0.4528
 3252SOL     OW21814   8.986   6.316   8.658 -0.2601  0.4648 -0.0347
 3252SOL    HW121815   9.057   6.335   8.590 -0.1989  0.5315  0.0467
 3252SOL    HW221816   8.914   6.260   8.617  0.8767 -1.3991  0.4357
 3253SOL     OW21817   2.431   0.389   6.803  0.1476 -0.0282 -0.7290
 3253SOL    HW121818   2.353   0.379   6.866  0.0140 -1.2633 -1.0657
 3253SOL    HW221819   2.488   0.465   6.832 -0.1772 -0.2847  0.6173
 3254SOL     OW21820   2.171   0.552   8.385  0.5351  0.5304 -0.4870
 3254SOL    HW121821   2.222   0.633   8.354  0.5033  0.3115 -1.1179
 3254SOL    HW221822   2.222   0.469   8.362  0.7364  0.3811  0.4800
 3255SOL     OW21823   2.803   4.841   1.945 -0.7028 -0.5141  0.0847
 3255SOL    HW121824   2.778   4.933   1.974  1.9890  0.0149  0.7960
 3255SOL    HW221825   2.819   4.840   1.846 -0.0952 -0.0760  0.1806
 3256SOL     OW21826   0.557   2.025   1.829 -0.1385  0.3475  0.3714
 3256SOL    HW121827   0.599   2.044   1.740 -0.9424 -2.2953 -0.6324
 3256SOL    HW221828   0.466   1.985   1.814 -0.4222  0.2142  2.3976
 3257SOL     OW21829   4.285   9.501   2.145 -0.2992 -0.2053  0.3008
 3257SOL    HW121830   4.279   9.548   2.057  0.7740  0.0222  0.3394
 3257SOL    HW221831   4.369   9.446   2.147  1.2693  2.1368  2.3067
 3258SOL     OW21832   3.328   0.378   3.452 -0.0847  0.1972 -0.1573
 3258SOL    HW121833   3.310   0.283   3.426  2.4064 -0.4266  0.3213
 3258SOL    HW221834   3.255   0.410   3.512  0.4440 -2.3432  1.9769
 3259SOL     OW21835   1.442   1.674   8.575 -0.2419  0.3743 -0.7122
 3259SOL    HW121836   1.534   1.670   8.615  0.3300  0.7415 -1.9761
 3259SOL    HW221837   1.374   1.676   8.648  0.7975  1.2052  0.2404
 3260SOL     OW21838   1.949   8.472   7.373 -0.1755 -0.2770  0.6987
 3260SOL    HW121839   1.877   8.421   7.421 -0.3139  1.5152  2.4419
 3260SOL    HW221840   2.030   8.477   7.430 -0.2689  1.7151  0.6801
 3261SOL     OW21841   2.127   5.371   0.005 -0.0449  0.5790  0.3524
 3261SOL    HW121842   2.224   5.370   0.031  0.0449  1.5334  0.0853
 3261SOL    HW221843   2.090   5.463   0.019 -1.3601 -0.1844  2.1058
 3262SOL     OW21844   4.454   3.907   0.916  0.3163  0.3563 -1.0069
 3262SOL    HW121845   4.543   3.949   0.933  0.2633  1.3757 -3.0684
 3262SOL    HW221846   4.435   3.908   0.818 -1.7028 -0.4010 -0.6483
 3263SOL     OW21847   4.306   4.426   0.362 -0.3536 -0.1239  0.2981
 3263SOL    HW121848   4.354   4.372   0.294 -0.3619 -0.7973  0.8208
 3263SOL    HW221849   4.287   4.517   0.325 -4.9987 -2.0728 -2.6199
 3264SOL     OW21850   3.855   4.914   4.689  0.1961  0.4632 -0.3353
 3264SOL    HW121851   3.833   4.827   4.734 -0.6291  0.9726  0.2572
 3264SOL    HW221852   3.943   4.906   4.642  0.4895 -0.4459  0.3632
 3265SOL     OW21853   9.928   5.154   1.419  0.0353  0.2664 -0.3067
 3265SOL    HW121854   9.956   5.246   1.446  1.8145 -0.9020  2.0587
 3265SOL    HW221855   9.830   5.142   1.434 -0.4256  2.0874 -1.6902
 3266SOL     OW21856   2.333   6.396   8.501 -0.3187 -0.6563 -0.4382
 3266SOL    HW121857   2.353   6.355   8.590  0.2485 -0.6981 -0.5851
 3266SOL    HW221858   2.262   6.342   8.455 -1.2956 -0.1013  0.3828
 3267SOL     OW21859   3.624   9.840   1.580  0.0738  0.1730 -0.0711
 3267SOL    HW121860   3.673   9.795   1.505  1.3184  0.1231  0.7501
 3267SOL    HW221861   3.632   9.784   1.663 -0.2115  0.8552  0.4220
 3268SOL     OW21862   9.776   9.170   1.257  0.0880  0.3394 -0.4217
 3268SOL    HW121863   9.743   9.101   1.321  1.2379 -0.4975 -0.7250
 3268SOL    HW221864   9.864   9.205   1.288  0.0843  0.7822 -0.9133
 3269SOL     OW21865   6.044   9.169   6.141 -0.3383 -0.6858  0.1453
 3269SOL    HW121866   6.094   9.113   6.208  0.7945 -0.5481 -0.5799
 3269SOL    HW221867   5.950   9.135   6.134 -0.0523 -1.6249  0.7239
 3270SOL     OW21868   2.869   2.857   3.314 -0.2411  0.3010  0.0704
 3270SOL    HW121869   2.892   2.878   3.410  0.8747  0.7808 -0.2911
 3270SOL    HW221870   2.882   2.939   3.259  2.3105 -0.7925 -1.0482
 3271SOL     OW21871   1.092   6.319   9.289  0.0400 -0.9305  0.0411
 3271SOL    HW121872   1.093   6.253   9.364 -0.0152 -0.4208  0.4980
 3271SOL    HW221873   1.186   6.339   9.261  0.3136  1.6654  2.4899
 3272SOL     OW21874   7.141   3.288   2.191  0.4264  0.7102 -0.1907
 3272SOL    HW121875   7.117   3.202   2.236 -2.2233  2.0829  1.1283
 3272SOL    HW221876   7.081   3.303   2.113 -0.5201  2.3453  0.8294
 3273SOL     OW21877   3.598   6.787   5.725  0.1847  0.5060  0.3473
 3273SOL    HW121878   3.653   6.725   5.781  0.8234  0.5829 -0.1848
 3273SOL    HW221879   3.650   6.871   5.708  0.4844  0.0095 -1.3313
 3274SOL     OW21880   9.599   3.759   0.957 -0.0640  0.3361  0.3336
 3274SOL    HW121881   9.682   3.811   0.938  0.1527  0.1123  0.6478
 3274SOL    HW221882   9.534   3.817   1.007  0.0361  0.4126  0.3754
 3275SOL     OW21883   2.290   2.138   8.466 -0.2482 -0.4731 -0.0158
 3275SOL    HW121884   2.204   2.190   8.461 -1.2895 -2.2039 -0.3951
 3275SOL    HW221885   2.303   2.087   8.381  0.2995 -1.5475  0.7028
 3276SOL     OW21886   0.589   0.240   7.970  0.7616 -0.2401  0.1240
 3276SOL    HW121887   0.614   0.168   8.035  1.3534  0.1449  0.3398
 3276SOL    HW221888   0.667   0.302   7.959  0.7233 -0.3963 -1.0911
 3277SOL     OW21889   1.431   9.536   1.800  0.2864  0.3865 -0.5054
 3277SOL    HW121890   1.380   9.513   1.883 -2.1411  1.2715 -1.6925
 3277SOL    HW221891   1.473   9.453   1.763 -0.0905 -0.3261  0.6295
 3278SOL     OW21892   0.992   2.237   7.405  0.7372  0.3134 -0.0014
 3278SOL    HW121893   1.082   2.215   7.442  0.5520  0.8936  0.7942
 3278SOL    HW221894   0.964   2.328   7.435  0.2341  0.4657 -0.9086
 3279SOL     OW21895   3.909   4.938   5.376  0.2063 -0.3505 -0.6601
 3279SOL    HW121896   3.861   4.864   5.330 -1.1119  0.8450 -1.2626
 3279SOL    HW221897   3.870   5.026   5.346  0.5873  0.5072  1.3208
 3280SOL     OW21898   8.890   8.391   5.495 -0.0756  0.6003 -0.2072
 3280SOL    HW121899   8.982   8.352   5.496 -0.5087 -0.4185  1.3957
 3280SOL    HW221900   8.861   8.413   5.588 -2.2391 -1.0255 -0.4385
 3281SOL     OW21901   7.409   8.898   3.929  0.1125 -0.3655  0.7839
 3281SOL    HW121902   7.356   8.825   3.886  0.1394 -1.1113  2.0009
 3281SOL    HW221903   7.490   8.859   3.973 -0.6250  0.1833  2.6893
 3282SOL     OW21904   2.869   9.388   3.885 -0.1454  0.0683  0.3098
 3282SOL    HW121905   2.919   9.468   3.917  0.1811 -0.0883  0.1920
 3282SOL    HW221906   2.932   9.324   3.841 -0.7065  0.6673 -1.4080
 3283SOL     OW21907   9.170   3.453   6.374 -0.2692  0.0871 -0.2895
 3283SOL    HW121908   9.237   3.497   6.314 -1.1944  0.4452 -1.0788
 3283SOL    HW221909   9.168   3.355   6.354 -2.1028  0.5039 -2.4048
 3284SOL     OW21910   3.322   1.754   0.421 -0.1121  0.0778 -0.3590
 3284SOL    HW121911   3.271   1.730   0.504 -1.6592  1.7226 -0.8106
 3284SOL    HW221912   3.262   1.744   0.342  1.1839 -0.8899 -1.2386
 3285SOL     OW21913   6.239   8.545   2.642  0.4372 -0.2679  0.0193
 3285SOL    HW121914   6.315   8.517   2.701 -1.0300 -1.3680  1.4381
 3285SOL    HW221915   6.254   8.510   2.549  0.9961 -1.6934  0.6284
 3286SOL     OW21916   3.686   4.623   8.992  0.3134  0.0028 -0.0358
 3286SOL    HW121917   3.716   4.545   8.938  0.1263 -0.2701  0.2572
 3286SOL    HW221918   3.611   4.597   9.052 -0.2148  0.5786 -0.4325
 3287SOL     OW21919   5.126   9.191   5.277 -0.0454 -0.0483 -0.1628
 3287SOL    HW121920   5.038   9.167   5.236  0.3101 -0.4811 -0.6713
 3287SOL    HW221921   5.128   9.163   5.373 -1.6211  2.6889  0.7502
 3288SOL     OW21922   7.122   7.443   7.020  0.1489  0.2475  0.0508
 3288SOL    HW121923   7.121   7.540   7.045 -1.3478  0.3117 -0.2070
 3288SOL    HW221924   7.068   7.392   7.086 -1.0354 -0.0579 -1.1187
 3289SOL     OW21925   4.391   3.845   2.128  0.2226  0.2774  0.4176
 3289SOL    HW121926   4.456   3.884   2.064  0.1614 -0.1576  0.0828
 3289SOL    HW221927   4.304   3.894   2.122  0.1098  0.0127 -0.0801
 3290SOL     OW21928   1.490   6.193   9.385  0.1714 -0.2167 -0.5070
 3290SOL    HW121929   1.515   6.247   9.465 -1.1271 -1.9382  1.1072
 3290SOL    HW221930   1.568   6.136   9.358  0.2061 -0.5522  0.3048
 3291SOL     OW21931   9.775   1.035   3.993 -0.2263 -0.0943  0.4204
 3291SOL    HW121932   9.687   1.061   3.953  0.3106  1.5081  0.2401
 3291SOL    HW221933   9.796   0.940   3.969 -1.7242 -0.3747  0.1584
 3292SOL     OW21934   3.383   3.164   4.576 -0.5453  0.0378 -0.2268
 3292SOL    HW121935   3.464   3.105   4.570 -0.8905 -0.7742  2.4381
 3292SOL    HW221936   3.399   3.235   4.644 -0.4485  2.6526 -2.8427
 3293SOL     OW21937   3.642   2.132   7.256 -0.3603  0.0212 -0.1517
 3293SOL    HW121938   3.574   2.079   7.205  0.1780 -1.0573  0.2346
 3293SOL    HW221939   3.684   2.074   7.325  0.8252  0.7452 -0.2601
 3294SOL     OW21940   4.168   6.926   3.910 -0.1504  0.4172 -0.1366
 3294SOL    HW121941   4.110   6.991   3.959  0.6689  0.7192  0.4593
 3294SOL    HW221942   4.163   6.944   3.811 -0.8699  0.5986 -0.0644
 3295SOL     OW21943   5.975   4.368   1.913 -0.5219 -0.7392 -0.0013
 3295SOL    HW121944   5.949   4.345   2.006  0.3564  0.2737  0.5080
 3295SOL    HW221945   6.074   4.380   1.908 -0.5975 -0.4776 -0.9854
 3296SOL     OW21946   8.490   4.487   2.990 -0.0355  0.3680  0.1196
 3296SOL    HW121947   8.429   4.564   2.969 -0.4913  0.1186  0.5177
 3296SOL    HW221948   8.469   4.411   2.928  0.9013  0.8124 -0.7529
 3297SOL     OW21949   1.656   6.890   2.833 -0.5370  0.3826  0.7267
 3297SOL    HW121950   1.591   6.840   2.889  0.4135  0.9184  2.3344
 3297SOL    HW221951   1.613   6.973   2.798 -1.7036 -0.8637 -0.8646
 3298SOL     OW21952   2.494   5.773   1.245 -0.0174  0.0552  0.1487
 3298SOL    HW121953   2.452   5.740   1.330  0.3326 -2.2518 -0.5628
 3298SOL    HW221954   2.445   5.735   1.167  0.2945  1.3759 -0.6988
 3299SOL     OW21955   0.655   2.006   9.946  0.2713  0.3443 -0.3988
 3299SOL    HW121956   0.556   2.005   9.926  0.2920  0.3039 -0.5003
 3299SOL    HW221957   0.669   2.030  10.042  0.1260 -0.5840 -0.1456
 3300SOL     OW21958   2.648   6.807   5.004 -0.4873  0.4524 -0.5024
 3300SOL    HW121959   2.716   6.818   4.931 -0.1157 -2.1873 -0.6162
 3300SOL    HW221960   2.695   6.779   5.088 -1.1078  1.7696  0.2929
 3301SOL     OW21961   9.856   9.380   9.391 -0.0356 -0.1661 -0.0514
 3301SOL    HW121962   9.895   9.472   9.382  1.3011 -0.6276  0.8405
 3301SOL    HW221963   9.821   9.368   9.484 -0.2347 -0.5541 -0.1767
 3302SOL     OW21964   9.489   2.705   0.866 -0.2072  0.4198  0.2277
 3302SOL    HW121965   9.569   2.748   0.909 -0.4963 -0.7544  1.9741
 3302SOL    HW221966   9.427   2.776   0.832  1.3775  1.3423 -0.8100
 3303SOL     OW21967   5.952   0.737   6.374  0.0497  0.2720 -1.0715
 3303SOL    HW121968   5.898   0.818   6.397 -0.3901 -0.5080  0.7084
 3303SOL    HW221969   6.047   0.752   6.401  0.3736  0.9217 -2.5092
 3304SOL     OW21970   9.324   9.352   3.477  0.2305  0.6198 -0.1743
 3304SOL    HW121971   9.234   9.311   3.494  0.4896  0.7039  1.4901
 3304SOL    HW221972   9.369   9.303   3.403 -0.5678 -0.3963 -0.0133
 3305SOL     OW21973   9.147   9.129   8.683  0.0472 -0.7728  0.4229
 3305SOL    HW121974   9.098   9.043   8.670  0.3569 -0.7747 -0.8213
 3305SOL    HW221975   9.232   9.127   8.631 -1.4010  1.4497 -2.1736
 3306SOL     OW21976   8.604   4.819   1.227  0.2339 -0.0107  0.0526
 3306SOL    HW121977   8.560   4.792   1.313  2.5342 -1.0391  0.9632
 3306SOL    HW221978   8.589   4.917   1.211  0.3975  0.3619  2.0333
 3307SOL     OW21979   6.899   8.058   2.868  0.1927  0.2344 -0.8673
 3307SOL    HW121980   6.917   7.969   2.909  0.2871 -0.0094 -1.4386
 3307SOL    HW221981   6.986   8.103   2.848  0.1489  0.7401  0.0268
 3308SOL     OW21982   5.836   6.228   0.985 -0.0058  0.2049 -0.1951
 3308SOL    HW121983   5.829   6.247   1.083  0.1157  0.5247 -0.2477
 3308SOL    HW221984   5.794   6.139   0.965 -0.4204  0.3385  0.0780
 3309SOL     OW21985   4.605   6.577   4.150 -0.3042 -0.1680  0.1339
 3309SOL    HW121986   4.605   6.492   4.097  0.6300  0.1081 -0.3274
 3309SOL    HW221987   4.556   6.562   4.236 -1.2317 -0.8123 -0.4936
 3310SOL     OW21988   7.079   0.217   6.133 -0.1884 -0.3158  0.1124
 3310SOL    HW121989   7.117   0.248   6.046  0.1185  2.2896  1.1527
 3310SOL    HW221990   7.069   0.117   6.130  0.8925 -0.4027 -2.4650
 3311SOL     OW21991   3.949   9.708   8.147 -0.0662  0.3443  0.1128
 3311SOL    HW121992   3.862   9.671   8.178  1.3410 -0.9501  2.6845
 3311SOL    HW221993   3.982   9.776   8.213  1.5166 -0.1888 -0.1050
 3312SOL     OW21994   5.864   6.081   8.858  0.1820 -0.0246 -0.3954
 3312SOL    HW121995   5.940   6.146   8.862 -0.2812  0.5203 -0.2092
 3312SOL    HW221996   5.893   5.997   8.813  1.1587 -0.1936  0.5447
 3313SOL     OW21997   2.860   4.705   7.807 -0.1417  0.9869  0.3590
 3313SOL    HW121998   2.823   4.735   7.896  0.4218 -0.4420  1.0795
 3313SOL    HW221999   2.930   4.636   7.822 -1.3879 -0.6563 -1.2966
 3314SOL     OW22000   7.405   6.762   5.647  0.0914  0.1474 -0.0513
 3314SOL    HW122001   7.343   6.709   5.589 -0.8289  0.7379  0.3678
 3314SOL    HW222002   7.379   6.859   5.643  0.1057  0.2159  1.2231
 3315SOL     OW22003   4.785   7.924   4.065  1.0462  0.3436  0.3472
 3315SOL    HW122004   4.817   7.879   4.149  1.1619  0.5524  0.4158
 3315SOL    HW222005   4.703   7.878   4.031  0.7318  0.5415  0.8318
 3316SOL     OW22006   2.603   5.221   8.024 -0.4317 -0.4588 -0.7111
 3316SOL    HW122007   2.572   5.237   7.931 -0.8023 -1.0218 -0.6879
 3316SOL    HW222008   2.589   5.304   8.079  3.3310  1.1761 -2.0803
 3317SOL     OW22009   3.424   9.546   6.219  0.1166 -0.3193 -0.8203
 3317SOL    HW122010   3.367   9.538   6.301 -0.1494  0.6610 -0.9048
 3317SOL    HW222011   3.403   9.470   6.157 -0.2380 -0.6337 -0.3244
 3318SOL     OW22012   1.749   8.521   3.371  0.1287  0.0594  0.3090
 3318SOL    HW122013   1.779   8.607   3.330 -0.2506  0.4207  0.7825
 3318SOL    HW222014   1.774   8.445   3.312  0.9896  0.4514  0.1696
 3319SOL     OW22015   5.242   8.246   1.922  0.2826 -0.1545  0.0516
 3319SOL    HW122016   5.159   8.192   1.932 -1.1099  1.7831 -0.6212
 3319SOL    HW222017   5.267   8.285   2.010  0.5593 -0.8603  0.2845
 3320SOL     OW22018   7.409   3.583   1.914  0.1248  0.2238 -0.9126
 3320SOL    HW122019   7.482   3.538   1.862  0.2347  0.5663 -1.0551
 3320SOL    HW222020   7.333   3.603   1.852  0.4415  1.0450 -1.0381
 3321SOL     OW22021   7.305   7.046   3.528  0.0293 -0.1312 -0.2774
 3321SOL    HW122022   7.245   6.966   3.519 -0.8274  0.5745 -0.9623
 3321SOL    HW222023   7.383   7.036   3.466 -1.1535  0.5081 -1.9037
 3322SOL     OW22024   1.588   5.789   6.560  0.2030 -0.3533 -0.1869
 3322SOL    HW122025   1.672   5.814   6.511  1.0229 -1.9247  0.3714
 3322SOL    HW222026   1.606   5.709   6.617 -1.3833  0.0063  0.8423
 3323SOL     OW22027   9.024   5.049   6.188  0.0580 -0.7742 -0.1486
 3323SOL    HW122028   8.976   4.999   6.115  0.6784 -1.2280 -0.2528
 3323SOL    HW222029   8.985   5.025   6.276  0.2562 -1.3366 -0.2113
 3324SOL     OW22030   9.409   7.282   7.611 -0.7784 -0.6024 -0.5786
 3324SOL    HW122031   9.489   7.239   7.652  0.2480  1.0663 -0.7890
 3324SOL    HW222032   9.347   7.211   7.576  1.5564 -1.9060 -2.2174
 3325SOL     OW22033   6.810   5.490   1.096  0.0788 -0.4296 -0.4047
 3325SOL    HW122034   6.891   5.464   1.149 -0.1267 -1.7855 -0.7435
 3325SOL    HW222035   6.831   5.571   1.041  0.8118 -0.0270  0.4557
 3326SOL     OW22036   1.766   2.163   8.441 -0.0676 -0.2733  0.5037
 3326SOL    HW122037   1.816   2.119   8.366  0.8904 -0.3529  1.1826
 3326SOL    HW222038   1.668   2.147   8.429  0.1451 -1.1053 -0.2132
 3327SOL     OW22039   0.957   0.606   7.166  0.2819 -0.1579 -0.4782
 3327SOL    HW122040   0.970   0.606   7.265  0.3672 -0.1337 -0.4897
 3327SOL    HW222041   0.995   0.690   7.128  0.5183 -0.3053 -0.5674
 3328SOL     OW22042   3.769   8.727   2.099 -0.1196 -0.2477  0.1053
 3328SOL    HW122043   3.845   8.791   2.090  1.3165 -1.5501  2.3744
 3328SOL    HW222044   3.726   8.738   2.189 -0.2460 -2.0084  0.2851
 3329SOL     OW22045   0.154   5.817   3.258  0.2984  0.0897 -0.1686
 3329SOL    HW122046   0.109   5.900   3.292 -1.4749 -1.3287  1.0378
 3329SOL    HW222047   0.167   5.825   3.159  1.7070  2.5000  0.1690
 3330SOL     OW22048   4.244   3.189   0.459 -0.2420  0.1905 -0.2625
 3330SOL    HW122049   4.319   3.124   0.449 -1.2141 -1.1141  0.6660
 3330SOL    HW222050   4.160   3.148   0.423 -0.7155  1.2216 -0.3322
 3331SOL     OW22051   4.168   0.881   7.160  0.1664 -0.0554 -0.1334
 3331SOL    HW122052   4.208   0.872   7.251  1.0208  0.1822 -0.4805
 3331SOL    HW222053   4.219   0.949   7.108 -0.0410 -0.5145 -0.9491
 3332SOL     OW22054   2.044   5.464   7.862 -0.3500  0.1488  0.1848
 3332SOL    HW122055   2.085   5.532   7.924 -0.0359 -0.2057  0.3670
 3332SOL    HW222056   1.981   5.510   7.800 -0.6452  0.5113  0.7495
 3333SOL     OW22057   8.050   0.735   9.342 -0.0663 -0.4614  0.5441
 3333SOL    HW122058   8.063   0.787   9.258 -0.6285 -0.4833  0.4483
 3333SOL    HW222059   8.072   0.639   9.326  0.0566 -0.4243  0.4858
 3334SOL     OW22060   9.018   9.733   1.237  0.2494  0.6495 -0.0011
 3334SOL    HW122061   9.073   9.814   1.219 -0.0320  0.5698 -1.2847
 3334SOL    HW222062   8.976   9.701   1.152 -1.3407  0.3939  0.8536
 3335SOL     OW22063   3.680   5.296   6.875  0.5088  0.2616  0.0222
 3335SOL    HW122064   3.682   5.210   6.925  0.1689  0.8186  1.0073
 3335SOL    HW222065   3.588   5.316   6.843  0.8124 -0.3272 -1.2581
 3336SOL     OW22066   9.391   0.837   4.579  0.2932  0.2535 -0.5551
 3336SOL    HW122067   9.310   0.815   4.524  0.4060  0.0983 -0.6607
 3336SOL    HW222068   9.419   0.931   4.562 -0.8813  0.8568  0.7675
 3337SOL     OW22069   9.827   3.706   4.444 -0.3053  0.0013 -0.0688
 3337SOL    HW122070   9.767   3.717   4.365  0.1239  0.1949 -0.3706
 3337SOL    HW222071   9.896   3.778   4.443  1.2021 -1.4205 -0.8553
 3338SOL     OW22072   5.140   9.809   3.327 -0.1710 -0.4152  0.6171
 3338SOL    HW122073   5.074   9.845   3.260 -0.3232 -0.8703  0.5194
 3338SOL    HW222074   5.103   9.820   3.419 -0.8055 -1.5370  0.5038
 3339SOL     OW22075   8.665   0.339   4.272 -0.5503 -0.5242  0.2604
 3339SOL    HW122076   8.578   0.376   4.307 -0.9222 -1.8794  0.7810
 3339SOL    HW222077   8.647   0.275   4.198  0.0872  0.1222 -0.4608
 3340SOL     OW22078   7.009   9.895   5.725 -1.0624 -0.4679  0.3193
 3340SOL    HW122079   7.083   9.829   5.735 -0.3136  0.2376 -0.4170
 3340SOL    HW222080   6.924   9.847   5.701 -0.5809 -1.1877  0.0382
 3341SOL     OW22081   3.279   0.639   8.638  0.2604  0.4115  0.2491
 3341SOL    HW122082   3.327   0.636   8.726  0.4126 -0.9292  0.1341
 3341SOL    HW222083   3.337   0.598   8.567  0.5697  2.4318 -0.6944
 3342SOL     OW22084   0.752   3.117   9.030 -0.0416 -0.2476  0.4225
 3342SOL    HW122085   0.835   3.100   8.977 -0.3891  1.0112 -0.5407
 3342SOL    HW222086   0.748   3.053   9.107  1.7314 -0.4351  0.3829
 3343SOL     OW22087   9.136   4.386   5.662  0.4350  0.5370 -0.3509
 3343SOL    HW122088   9.204   4.406   5.733 -1.5481  1.9473  1.2272
 3343SOL    HW222089   9.114   4.471   5.614  0.6683 -0.1398 -1.6557
 3344SOL     OW22090   8.742   6.059   7.215 -0.6587  0.7059 -0.1059
 3344SOL    HW122091   8.759   6.157   7.226  0.1022  0.5330  0.2879
 3344SOL    HW222092   8.693   6.024   7.295 -0.8111  0.7351 -0.1860
 3345SOL     OW22093   3.117   4.588   7.906 -0.8316 -0.1791  0.0723
 3345SOL    HW122094   3.188   4.575   7.975 -0.2389  0.3318 -0.4324
 3345SOL    HW222095   3.160   4.602   7.817 -1.5372  1.4156 -0.0225
 3346SOL     OW22096   3.550   8.078   9.723  0.3138 -0.2788 -0.4602
 3346SOL    HW122097   3.551   8.150   9.793  1.4689  0.3876 -1.1317
 3346SOL    HW222098   3.471   8.020   9.736 -0.4210  0.8765  0.3575
 3347SOL     OW22099   2.340   7.963   8.546  0.4251  0.2565 -0.0701
 3347SOL    HW122100   2.242   7.982   8.542 -0.2174 -2.5218  1.2005
 3347SOL    HW222101   2.387   8.042   8.586 -1.7082  0.4479  2.2569
 3348SOL     OW22102   8.308   1.743   3.474  0.1951  0.1030  0.0742
 3348SOL    HW122103   8.306   1.742   3.375  0.8401  2.7655 -0.0101
 3348SOL    HW222104   8.216   1.757   3.510  0.1316  0.3415 -0.1862
 3349SOL     OW22105   1.528   1.520   5.396  0.0524  0.1430 -0.5250
 3349SOL    HW122106   1.528   1.420   5.406  0.9703 -0.1146 -2.8060
 3349SOL    HW222107   1.621   1.554   5.400 -0.2343  0.8780 -0.0389
 3350SOL     OW22108   5.132   9.118   8.711  0.0868  0.0755 -0.3054
 3350SOL    HW122109   5.125   9.189   8.641  0.6168  0.6451  0.2070
 3350SOL    HW222110   5.228   9.095   8.724 -0.1012 -0.9085 -0.6347
 3351SOL     OW22111   6.261   9.394   1.600  0.5813 -0.1639 -0.5444
 3351SOL    HW122112   6.316   9.464   1.553  0.4624  0.3178  0.0325
 3351SOL    HW222113   6.166   9.425   1.606  0.2202 -1.0226 -1.5943
 3352SOL     OW22114   3.284   2.005   3.248  0.1565  0.1268  0.6184
 3352SOL    HW122115   3.372   2.000   3.201  0.1573  2.1281  0.3831
 3352SOL    HW222116   3.296   2.043   3.339 -0.4403  0.2124  0.6634
 3353SOL     OW22117   1.715   8.143   5.276  0.1764  0.5004  0.1834
 3353SOL    HW122118   1.751   8.113   5.187  0.8803 -0.8112  0.8879
 3353SOL    HW222119   1.716   8.242   5.281  2.4690  0.5289 -0.3291
 3354SOL     OW22120   3.371   5.947   2.613 -0.6368 -0.2137 -0.6484
 3354SOL    HW122121   3.348   5.898   2.697  1.0212  0.9636  0.5314
 3354SOL    HW222122   3.376   5.883   2.537 -0.9126 -1.4926  0.4000
 3355SOL     OW22123   9.194   3.060   6.014  0.2462  0.5562  0.4552
 3355SOL    HW122124   9.138   3.139   5.989  0.3514  0.2547 -0.7340
 3355SOL    HW222125   9.136   2.987   6.049  0.0220  0.6814  0.3424
 3356SOL     OW22126   2.107   2.667   9.163 -0.5428 -0.3210  0.0115
 3356SOL    HW122127   2.069   2.612   9.238  2.3823 -0.0524  1.7358
 3356SOL    HW222128   2.083   2.763   9.176  1.0315 -0.0876  1.3495
 3357SOL     OW22129   9.336   4.187   4.387 -0.1284  0.4258 -0.1712
 3357SOL    HW122130   9.410   4.134   4.427 -1.4911 -0.4492  1.2422
 3357SOL    HW222131   9.335   4.176   4.288  1.7934  0.6817 -0.2259
 3358SOL     OW22132   1.824   0.559   5.372 -0.0755 -0.2571  0.8849
 3358SOL    HW122133   1.808   0.655   5.349  3.3823  0.7686  2.3469
 3358SOL    HW222134   1.851   0.508   5.290  1.4778  0.8499  0.6929
 3359SOL     OW22135   4.608   9.995   7.847  0.3235 -0.4350 -0.4840
 3359SOL    HW122136   4.667  10.066   7.808  0.5079 -0.7593 -0.7988
 3359SOL    HW222137   4.608  10.003   7.947  0.7158 -0.2880 -0.4945
 3360SOL     OW22138   8.737   5.241   1.414  0.3052 -0.8120  0.9930
 3360SOL    HW122139   8.723   5.335   1.381  0.7301 -0.5538  1.5435
 3360SOL    HW222140   8.808   5.197   1.358  1.0143 -0.3791  1.5328
 3361SOL     OW22141   4.155   0.092   6.482 -0.8047  0.4977  0.2275
 3361SOL    HW122142   4.153   0.028   6.405  0.4661  1.2208 -0.4250
 3361SOL    HW222143   4.069   0.143   6.485 -0.9163  0.3731 -0.6483
 3362SOL     OW22144   7.771   1.917   5.818 -0.0614 -0.3517 -0.2542
 3362SOL    HW122145   7.847   1.856   5.838  0.2706  0.1616  0.0705
 3362SOL    HW222146   7.777   1.998   5.876 -1.4533 -0.7925  0.5242
 3363SOL     OW22147   9.199   9.225   0.570  0.3781 -0.0039 -0.0953
 3363SOL    HW122148   9.295   9.214   0.596 -0.1684 -3.5087  0.8130
 3363SOL    HW222149   9.185   9.187   0.478 -0.2272 -0.0377  0.0100
 3364SOL     OW22150   5.463   7.472   3.176  0.6211  0.6535  0.4689
 3364SOL    HW122151   5.375   7.507   3.144  0.5148  0.1811  0.2485
 3364SOL    HW222152   5.521   7.451   3.097 -0.0163 -1.4985  0.5531
 3365SOL     OW22153   8.603   4.250   4.057 -0.1896 -0.1255  0.0497
 3365SOL    HW122154   8.673   4.298   4.006  0.1374  0.8384  1.3746
 3365SOL    HW222155   8.621   4.151   4.053  0.4427  0.0167 -0.7684
 3366SOL     OW22156   4.559   9.284   2.668  0.0338 -0.1891  0.0694
 3366SOL    HW122157   4.547   9.383   2.675  3.3978  0.1972  1.0611
 3366SOL    HW222158   4.539   9.254   2.575 -4.4948  0.8158  0.5700
 3367SOL     OW22159   0.387   5.932   1.269 -0.3813  0.0273  0.1958
 3367SOL    HW122160   0.366   6.025   1.239 -1.2414 -0.2959 -0.2110
 3367SOL    HW222161   0.485   5.915   1.259 -0.1136  1.1050  0.8862
 3368SOL     OW22162   4.529   1.082   0.281  0.0156  0.3596  0.4481
 3368SOL    HW122163   4.611   1.121   0.239  0.7331 -0.2890  1.2484
 3368SOL    HW222164   4.554   1.005   0.339 -1.2993 -0.6693 -0.3306
 3369SOL     OW22165   4.155   5.976   8.558  0.3388  0.2589 -0.3006
 3369SOL    HW122166   4.222   5.903   8.544 -1.5728 -1.8072  1.0705
 3369SOL    HW222167   4.134   6.020   8.471  2.4457  0.0461 -0.9382
 3370SOL     OW22168   8.542   5.374   0.443 -0.1114  0.1463  0.2398
 3370SOL    HW122169   8.567   5.467   0.468  1.6030 -0.1124 -0.4352
 3370SOL    HW222170   8.528   5.368   0.345 -0.2456 -0.2904  0.2841
 3371SOL     OW22171   0.409   5.566   4.029 -0.2356  0.5054  0.3844
 3371SOL    HW122172   0.491   5.515   4.004 -0.2931  0.9538 -0.7535
 3371SOL    HW222173   0.355   5.513   4.094  0.7704  0.0456  0.8540
 3372SOL     OW22174   2.196   9.265   2.180 -0.2505 -0.3190  0.4788
 3372SOL    HW122175   2.131   9.189   2.180 -1.3599  0.6117 -0.6749
 3372SOL    HW222176   2.252   9.262   2.097 -1.1541  0.8310 -0.1841
 3373SOL     OW22177   3.561  10.002   7.241 -0.0009  0.2838  0.2232
 3373SOL    HW122178   3.561   9.904   7.259  0.3111  0.1442 -0.4938
 3373SOL    HW222179   3.493  10.047   7.298 -0.2240 -0.3682  0.4715
 3374SOL     OW22180   7.659   8.660   7.162 -0.4949 -0.1811  0.2251
 3374SOL    HW122181   7.663   8.744   7.216  0.1988  0.7270 -1.1943
 3374SOL    HW222182   7.571   8.615   7.177 -1.2468  1.2783  0.3252
 3375SOL     OW22183   4.880   0.455   0.576 -0.2583  0.2658 -0.2977
 3375SOL    HW122184   4.930   0.541   0.580  1.0893 -0.4998 -0.4552
 3375SOL    HW222185   4.825   0.452   0.492 -0.2408  0.9300 -0.3349
 3376SOL     OW22186   6.557   0.937   4.470  0.3492  0.2985 -0.1081
 3376SOL    HW122187   6.630   0.869   4.476 -0.2694 -0.4541 -0.8436
 3376SOL    HW222188   6.474   0.892   4.436  0.0624  1.5317 -1.0524
 3377SOL     OW22189   7.390   9.613   1.524  0.2495  0.7748 -0.1699
 3377SOL    HW122190   7.354   9.631   1.432  1.6757  0.5711 -0.7817
 3377SOL    HW222191   7.319   9.630   1.592 -0.6019  1.6490 -1.2627
 3378SOL     OW22192   9.278   9.917   9.559 -0.1592 -0.1223 -0.3976
 3378SOL    HW122193   9.327  10.004   9.558  0.4013 -0.4428 -0.9501
 3378SOL    HW222194   9.240   9.900   9.468  2.1208 -1.8013 -1.0718
 3379SOL     OW22195   2.491   9.506   9.790 -0.0416  0.0122  0.0039
 3379SOL    HW122196   2.417   9.553   9.743 -1.3293 -3.0056 -1.1335
 3379SOL    HW222197   2.563   9.482   9.724 -0.4819 -1.6205  0.0900
 3380SOL     OW22198   3.910   2.817   7.875 -0.2205  0.7797  0.1092
 3380SOL    HW122199   3.898   2.718   7.881  0.3020  0.7793  1.2206
 3380SOL    HW222200   3.985   2.837   7.812  1.7002  0.3362  2.2007
 3381SOL     OW22201   2.132   5.128   6.486 -0.2604  0.3283  0.1658
 3381SOL    HW122202   2.166   5.103   6.396  0.1662  0.4666  0.2866
 3381SOL    HW222203   2.196   5.191   6.530 -0.1216 -0.2617  0.8334
 3382SOL     OW22204   4.024   4.089   7.896  0.0576  0.0695  0.3553
 3382SOL    HW122205   3.958   4.162   7.882  0.2412  0.0027 -0.8787
 3382SOL    HW222206   3.975   4.002   7.904 -0.1067  0.2220  1.0109
 3383SOL     OW22207   0.481   7.246  10.043  0.0432  0.2159 -0.1993
 3383SOL    HW122208   0.464   7.330   9.991 -0.8804 -0.1521 -0.5077
 3383SOL    HW222209   0.393   7.204  10.067  0.4640  0.4705  1.8245
 3384SOL     OW22210   2.817   0.852   0.741 -0.0837 -0.2379  0.0873
 3384SOL    HW122211   2.727   0.849   0.697 -0.4991  0.0165  0.9037
 3384SOL    HW222212   2.866   0.934   0.711 -0.5663  0.1983  0.4936
 3385SOL     OW22213   2.405   7.021   5.741  0.2079 -0.8845  0.0883
 3385SOL    HW122214   2.453   6.938   5.769  0.8332 -1.1842 -1.8091
 3385SOL    HW222215   2.338   6.999   5.670 -0.6026  0.0162  0.5590
 3386SOL     OW22216   1.128   2.425   3.457 -0.4037 -0.1026 -0.0125
 3386SOL    HW122217   1.219   2.451   3.488 -0.6511  0.8399 -0.0539
 3386SOL    HW222218   1.134   2.346   3.397  0.6326  1.3677 -1.8740
 3387SOL     OW22219   3.180   9.898   3.219  0.2438  0.6503  0.4502
 3387SOL    HW122220   3.197   9.859   3.129  0.3632  2.0441 -0.1549
 3387SOL    HW222221   3.082   9.900   3.237  0.2919 -0.7547  0.8727
 3388SOL     OW22222   5.709   1.530   5.671  0.2656  0.6258  0.0418
 3388SOL    HW122223   5.782   1.466   5.645 -0.0525  0.5241 -0.6031
 3388SOL    HW222224   5.681   1.512   5.765 -0.7737 -1.0951 -0.5808
 3389SOL     OW22225   7.312   5.851   5.430  0.0035 -0.0771 -0.0959
 3389SOL    HW122226   7.302   5.950   5.425 -1.9246 -0.1481  1.5699
 3389SOL    HW222227   7.327   5.823   5.525  1.2300 -1.3391 -0.6373
 3390SOL     OW22228   1.780   6.918   7.982 -0.2525 -0.1863  0.1894
 3390SOL    HW122229   1.868   6.951   7.949  0.0115  0.3797  1.4158
 3390SOL    HW222230   1.728   6.993   8.021 -0.4661 -0.8485  1.2147
 3391SOL     OW22231   1.825   6.116   2.106  0.2171 -0.0616  0.3928
 3391SOL    HW122232   1.884   6.194   2.124  0.5872 -0.4219  0.7770
 3391SOL    HW222233   1.742   6.122   2.163 -0.1721  0.5044 -0.2357
 3392SOL     OW22234   5.023   7.217   1.986 -0.3372 -0.4037 -0.0493
 3392SOL    HW122235   5.001   7.235   1.890  0.5069 -1.8021 -0.5201
 3392SOL    HW222236   5.118   7.244   2.004 -0.4291 -0.3410  0.3440
 3393SOL     OW22237   0.679   0.554   0.766  0.3493  0.2371  0.4277
 3393SOL    HW122238   0.684   0.561   0.666 -1.9725 -2.2334  0.0682
 3393SOL    HW222239   0.704   0.461   0.794  4.0326  1.7447  2.4735
 3394SOL     OW22240   9.628   1.644   3.547 -0.1749  0.3945  0.0450
 3394SOL    HW122241   9.727   1.629   3.550 -0.0725  1.3503  2.4837
 3394SOL    HW222242   9.608   1.741   3.563 -1.5627 -0.0149  0.9007
 3395SOL     OW22243   6.459   4.374   9.544 -0.2259  0.0226  0.3417
 3395SOL    HW122244   6.541   4.379   9.601  0.1179 -1.8211  0.0335
 3395SOL    HW222245   6.478   4.415   9.455  0.7680 -1.5205 -0.1719
 3396SOL     OW22246   2.353   9.224   2.694  0.0367 -0.7036  0.0128
 3396SOL    HW122247   2.344   9.216   2.595 -1.2647  0.8051 -0.0223
 3396SOL    HW222248   2.268   9.263   2.732  0.5222 -1.2391  1.7125
 3397SOL     OW22249   0.583   2.592   5.981  1.0278 -0.4542 -0.3177
 3397SOL    HW122250   0.592   2.497   6.010  3.4483 -0.2284 -0.2178
 3397SOL    HW222251   0.590   2.598   5.882  0.0717 -0.4508 -0.3903
 3398SOL     OW22252   8.251   0.374   5.613 -0.1678 -0.1896 -0.1370
 3398SOL    HW122253   8.223   0.433   5.537 -1.0228 -0.1199  0.2200
 3398SOL    HW222254   8.284   0.287   5.578  1.5935  0.6797 -0.6983
 3399SOL     OW22255   1.359   8.999  -0.003  0.0410 -0.0470  0.3340
 3399SOL    HW122256   1.341   8.935   0.071  0.5359  0.7290  1.1290
 3399SOL    HW222257   1.444   9.048   0.015  0.0211  0.3424 -0.6107
 3400SOL     OW22258   1.095   9.085   5.662 -0.0073 -0.3442 -0.4863
 3400SOL    HW122259   1.110   9.081   5.761 -1.5454  0.1385 -0.2210
 3400SOL    HW222260   1.049   9.000   5.633 -0.5474 -0.0169 -0.5981
 3401SOL     OW22261   0.743   9.562   4.530 -0.3727  0.0065 -0.4737
 3401SOL    HW122262   0.757   9.659   4.511 -1.5925 -0.0400 -1.6692
 3401SOL    HW222263   0.763   9.509   4.448  1.4860 -0.8893  0.5206
 3402SOL     OW22264   7.921   9.368   2.476  0.1957 -0.0207  0.2844
 3402SOL    HW122265   7.912   9.358   2.377  0.1826 -1.5341  0.4336
 3402SOL    HW222266   8.016   9.388   2.500  0.2035  0.3201 -0.0352
 3403SOL     OW22267   9.151   3.168   7.909 -0.4990 -0.4199 -0.2336
 3403SOL    HW122268   9.097   3.251   7.921  0.2056  0.0850 -0.5223
 3403SOL    HW222269   9.186   3.138   7.998  0.2561  0.2844 -0.2841
 3404SOL     OW22270   0.036   9.461   4.429 -0.0770  0.2584  0.6301
 3404SOL    HW122271   0.052   9.546   4.478 -0.1009 -0.2496  1.5359
 3404SOL    HW222272  -0.021   9.400   4.486 -2.1207  0.5876 -0.9880
 3405SOL     OW22273   8.633   6.439   9.380  0.9597  0.1826  0.3590
 3405SOL    HW122274   8.553   6.400   9.426  0.7082 -0.8029 -0.9032
 3405SOL    HW222275   8.685   6.366   9.336  2.9667  0.7150  1.7537
 3406SOL     OW22276   3.108   1.477   8.920  0.7210 -0.1621 -0.4661
 3406SOL    HW122277   3.051   1.533   8.860  0.9473 -0.0869 -0.6133
 3406SOL    HW222278   3.082   1.493   9.015  0.5199 -0.1038 -0.5307
 3407SOL     OW22279   7.071   1.398   7.842  0.0976 -0.1464 -0.5004
 3407SOL    HW122280   7.118   1.390   7.755  0.1976 -0.8742 -0.3901
 3407SOL    HW222281   7.138   1.405   7.916  0.0158  0.3466 -0.4731
 3408SOL     OW22282   2.903   9.372   3.227 -0.2281 -0.5619 -0.4792
 3408SOL    HW122283   2.874   9.453   3.279  1.4663 -1.0698  1.3120
 3408SOL    HW222284   2.922   9.399   3.133  0.3725  1.1698  0.1097
 3409SOL     OW22285   9.442   3.647   3.920 -0.1972  0.3031 -0.8657
 3409SOL    HW122286   9.526   3.595   3.937  0.0496  0.8000 -0.5718
 3409SOL    HW222287   9.405   3.621   3.831 -0.0428 -0.3366 -0.7485
 3410SOL     OW22288   4.065   8.948   3.287 -0.6276 -0.6285  0.3277
 3410SOL    HW122289   4.143   8.973   3.344  1.8693 -0.9020 -2.8444
 3410SOL    HW222290   4.030   8.859   3.317  1.3740 -1.3120  0.7162
 3411SOL     OW22291   2.041   1.158   7.305  0.1979  0.0299 -0.5489
 3411SOL    HW122292   2.113   1.211   7.260  0.8690  0.2125  0.7177
 3411SOL    HW222293   2.067   1.061   7.303 -0.5918 -0.1745 -2.0457
 3412SOL     OW22294   4.365   5.057   1.210 -0.0438 -0.4663  0.1040
 3412SOL    HW122295   4.420   5.009   1.142  0.5440  0.4009 -0.0365
 3412SOL    HW222296   4.424   5.096   1.280 -0.5397 -0.2066  0.3862
 3413SOL     OW22297   4.368   5.442   4.429  0.0085 -0.3578 -0.5392
 3413SOL    HW122298   4.453   5.426   4.379 -0.8071 -2.2390 -1.3911
 3413SOL    HW222299   4.372   5.394   4.517 -0.3879 -0.9575 -0.8409
 3414SOL     OW22300   1.936   2.764   8.045 -0.6292 -0.3459 -0.3734
 3414SOL    HW122301   1.865   2.693   8.042  0.5172 -1.4658 -1.3317
 3414SOL    HW222302   1.917   2.833   7.975  0.0658 -1.4813 -1.7117
 3415SOL     OW22303   4.338   3.785   7.071  0.7500 -0.5405  0.1963
 3415SOL    HW122304   4.421   3.739   7.101  0.9969 -0.0491  0.2564
 3415SOL    HW222305   4.352   3.884   7.070 -0.2881 -0.3486  1.6403
 3416SOL     OW22306   5.582   9.817   3.368  0.6217 -0.5720 -0.6875
 3416SOL    HW122307   5.559   9.875   3.291  0.4018 -2.1238 -1.8167
 3416SOL    HW222308   5.552   9.861   3.453  1.5999  1.5242 -1.3915
 3417SOL     OW22309   8.198   5.503   7.481  0.2136 -0.5735  0.1524
 3417SOL    HW122310   8.193   5.506   7.381 -0.3441 -4.8365 -0.0335
 3417SOL    HW222311   8.280   5.552   7.512  0.4034  0.7836 -2.3434
 3418SOL     OW22312   8.643   7.617   3.030  0.0552  0.0108  0.2052
 3418SOL    HW122313   8.648   7.658   3.120 -0.3484 -0.8836  0.6404
 3418SOL    HW222314   8.573   7.545   3.029  0.9162 -0.8459 -0.4546
 3419SOL     OW22315   0.728   1.083   6.668 -0.3237 -0.0461  0.3130
 3419SOL    HW122316   0.722   1.177   6.636  1.3504  0.8140  2.4113
 3419SOL    HW222317   0.658   1.068   6.739  0.0272 -0.0927  0.6498
 3420SOL     OW22318   4.046   7.236   8.996  0.0979 -0.3087 -0.2842
 3420SOL    HW122319   4.059   7.323   8.949 -0.9698 -0.0062 -0.0469
 3420SOL    HW222320   3.972   7.185   8.951  1.3618 -1.5212 -1.0123
 3421SOL     OW22321   5.393   2.560   7.885  0.0930  0.3262 -0.3695
 3421SOL    HW122322   5.451   2.488   7.847 -0.7278 -0.2571 -0.5401
 3421SOL    HW222323   5.362   2.620   7.811 -1.0461 -0.4769 -0.5578
 3422SOL     OW22324   8.980   7.301   3.974  0.3126  0.3562  0.2664
 3422SOL    HW122325   9.017   7.233   3.911  0.9535  1.2248 -0.3043
 3422SOL    HW222326   9.032   7.298   4.060 -1.0173 -1.3193  1.0515
 3423SOL     OW22327   9.067   2.913   9.976 -0.7066 -0.2547  0.7176
 3423SOL    HW122328   8.967   2.916   9.970 -0.8404  2.2600  3.2244
 3423SOL    HW222329   9.102   3.005   9.996  2.0131 -1.3559  1.2209
 3424SOL     OW22330   1.721   9.654   3.991 -0.2289 -0.0015 -0.5675
 3424SOL    HW122331   1.783   9.583   4.024 -0.7654  1.1781  3.2509
 3424SOL    HW222332   1.632   9.612   3.968 -0.4668 -0.6606  1.4214
 3425SOL     OW22333   1.234   0.463   4.963  0.5448 -0.1670 -0.0209
 3425SOL    HW122334   1.153   0.407   4.943  0.7663  0.1022 -1.7847
 3425SOL    HW222335   1.307   0.440   4.899  1.9008 -0.4633  1.6261
 3426SOL     OW22336   2.478   8.839   5.821 -0.5527 -0.0936  0.1381
 3426SOL    HW122337   2.516   8.864   5.732 -2.1105  0.6415 -0.3334
 3426SOL    HW222338   2.485   8.917   5.883 -3.0603  0.7479 -0.5581
 3427SOL     OW22339   6.047   9.364   4.436  0.1307  0.3102  0.3137
 3427SOL    HW122340   6.130   9.401   4.396  1.5093 -1.4797  1.4604
 3427SOL    HW222341   6.045   9.384   4.534 -0.6570  0.0819  0.3501
 3428SOL     OW22342   0.636   4.954   2.722 -0.6321 -0.3556  0.0562
 3428SOL    HW122343   0.658   5.048   2.696 -1.1829 -0.1684  0.2593
 3428SOL    HW222344   0.703   4.922   2.790 -1.2137  0.3544  0.9799
 3429SOL     OW22345   6.781   0.787   4.452 -0.1877  0.2854 -0.4169
 3429SOL    HW122346   6.770   0.706   4.396  0.3476  0.1047 -0.2553
 3429SOL    HW222347   6.863   0.837   4.424 -0.0305  0.2997  0.0710
 3430SOL     OW22348   7.598   1.640   4.639 -0.5688 -0.4041  0.4719
 3430SOL    HW122349   7.509   1.679   4.664  0.0762  0.2620  1.7888
 3430SOL    HW222350   7.586   1.543   4.617 -1.6248 -0.3149  0.5933
 3431SOL     OW22351   5.374   9.835   6.775  0.2554 -0.1620 -0.6519
 3431SOL    HW122352   5.296   9.783   6.809  0.3776 -0.9409 -1.5378
 3431SOL    HW222353   5.431   9.864   6.852 -1.1187  0.7782  0.0312
 3432SOL     OW22354   5.082   2.761   8.285 -0.5548  0.0622  0.1156
 3432SOL    HW122355   5.101   2.687   8.349 -1.0645  0.3835  0.6399
 3432SOL    HW222356   5.162   2.821   8.279 -0.3311 -0.2385  0.0830
 3433SOL     OW22357   5.470   0.972   7.526  0.3272 -0.3159  0.4588
 3433SOL    HW122358   5.519   0.920   7.456 -0.2838 -0.6516  0.2721
 3433SOL    HW222359   5.375   0.984   7.497  0.5159  1.1052  0.3966
 3434SOL     OW22360   4.500   9.704   6.242  0.1311 -0.2066  0.1753
 3434SOL    HW122361   4.599   9.698   6.237  0.0604 -0.1238 -1.3077
 3434SOL    HW222362   4.474   9.746   6.330  1.3790 -0.5299  0.7054
 3435SOL     OW22363   7.995   1.072   1.346  0.0134 -0.3400 -0.1093
 3435SOL    HW122364   8.013   1.113   1.256 -0.3845  0.1252  0.0158
 3435SOL    HW222365   8.016   0.975   1.343  0.9926 -0.1213 -0.4070
 3436SOL     OW22366   3.100   2.460   2.097  0.5922 -0.0182 -0.1385
 3436SOL    HW122367   3.074   2.556   2.087 -1.7809 -0.3676  2.1002
 3436SOL    HW222368   3.066   2.426   2.185  1.0773 -3.0223 -1.0747
 3437SOL     OW22369   1.337   2.404   7.541  0.4146 -0.3933  0.1265
 3437SOL    HW122370   1.309   2.310   7.556  3.5810 -1.1791  1.6363
 3437SOL    HW222371   1.417   2.406   7.481  0.2087  1.3327 -0.1249
 3438SOL     OW22372   8.100   0.678   2.885  0.3023  0.5932 -0.5078
 3438SOL    HW122373   8.146   0.748   2.831 -0.4895  1.7643  0.3354
 3438SOL    HW222374   8.026   0.638   2.831  0.6519  0.5071 -0.9305
 3439SOL     OW22375   7.904   8.605   6.175  0.0859  0.1256 -0.0785
 3439SOL    HW122376   7.939   8.526   6.126  1.8855  1.1991 -0.5709
 3439SOL    HW222377   7.980   8.666   6.199 -1.2835  1.8323  0.0359
 3440SOL     OW22378   1.233   3.673   7.262  0.9219  0.0731  0.1333
 3440SOL    HW122379   1.302   3.602   7.272  0.4700 -0.7492 -2.2226
 3440SOL    HW222380   1.273   3.752   7.216 -0.6402 -2.1488 -5.5571
 3441SOL     OW22381   3.416   2.464   6.369  0.0522  0.0913  0.8387
 3441SOL    HW122382   3.488   2.513   6.417  0.0407 -1.1608  2.1763
 3441SOL    HW222383   3.356   2.419   6.436 -1.1561 -0.0063 -0.2938
 3442SOL     OW22384   4.454   9.157   4.913  0.1821  0.0995 -0.3441
 3442SOL    HW122385   4.513   9.077   4.919 -1.4091 -1.1218 -0.4990
 3442SOL    HW222386   4.371   9.133   4.862 -1.1744  1.3018  1.2347
 3443SOL     OW22387   2.606   5.029   3.980 -0.1046  0.4430 -0.0997
 3443SOL    HW122388   2.554   5.044   3.896  1.5706 -0.0314 -1.2308
 3443SOL    HW222389   2.690   5.084   3.978 -0.3100  0.8512  1.5132
 3444SOL     OW22390   0.473   7.879   0.043  0.4238 -0.1574  0.0796
 3444SOL    HW122391   0.571   7.875   0.062  0.6166  0.3529 -0.8117
 3444SOL    HW222392   0.456   7.862  -0.054 -0.5551 -2.4769  0.6116
 3445SOL     OW22393   0.010   6.417   7.731 -0.1459  0.0917  0.0656
 3445SOL    HW122394   0.013   6.330   7.781 -1.5177  0.6497  1.1521
 3445SOL    HW222395   0.103   6.452   7.720  0.3849 -1.2743  0.0147
 3446SOL     OW22396   2.729   0.791   3.128 -0.4274  0.0910 -0.2557
 3446SOL    HW122397   2.660   0.831   3.189 -0.2097 -0.8361  0.6134
 3446SOL    HW222398   2.786   0.864   3.091  1.7869  0.4602  3.5536
 3447SOL     OW22399   4.272   6.507   7.968 -0.0989 -0.1028  0.1990
 3447SOL    HW122400   4.250   6.410   7.976 -0.8102 -0.1505 -2.0195
 3447SOL    HW222401   4.204   6.552   7.910 -0.7516  2.0799  2.5535
 3448SOL     OW22402   9.790   5.374   1.493  0.2090  0.0138  0.2593
 3448SOL    HW122403   9.784   5.410   1.400  1.6803 -0.6274 -0.0959
 3448SOL    HW222404   9.733   5.292   1.501  1.5450 -1.0155 -0.6109
 3449SOL     OW22405   6.024   9.810   4.646 -0.0756  0.1943 -0.0699
 3449SOL    HW122406   5.949   9.768   4.698 -0.1982  0.8341  0.2744
 3449SOL    HW222407   5.989   9.840   4.558 -0.2806  0.7053  0.1839
 3450SOL     OW22408   3.368   9.350   1.029  0.1987  0.2938  0.7975
 3450SOL    HW122409   3.378   9.395   1.118 -0.5124  1.2999  0.3860
 3450SOL    HW222410   3.415   9.404   0.959 -2.2023  1.4176 -0.0021
 3451SOL     OW22411   2.871   8.096   4.269  0.6065 -0.4267 -0.1434
 3451SOL    HW122412   2.800   8.026   4.262  0.9996 -0.9423  0.9533
 3451SOL    HW222413   2.849   8.171   4.207 -1.4556 -0.1078  0.9089
 3452SOL     OW22414   1.356   5.286   6.622  0.4590 -0.2045  0.1908
 3452SOL    HW122415   1.371   5.301   6.525 -0.2278 -1.2923 -0.0945
 3452SOL    HW222416   1.258   5.292   6.643  0.6087  0.1226  0.8298
 3453SOL     OW22417   8.826   5.267   8.289 -0.1177 -0.1434  0.1594
 3453SOL    HW122418   8.874   5.346   8.326 -0.0872  0.2482 -0.7060
 3453SOL    HW222419   8.890   5.210   8.237 -0.8540  1.0792 -2.1155
 3454SOL     OW22420   2.173   5.902   0.653 -0.6756  0.1602 -0.4397
 3454SOL    HW122421   2.137   5.903   0.747  1.8112  0.6885  0.5460
 3454SOL    HW222422   2.132   5.826   0.603 -0.7612 -1.2123  1.6178
 3455SOL     OW22423   2.225   3.297   1.753  0.9637 -0.0398 -0.0887
 3455SOL    HW122424   2.215   3.215   1.697  0.3301  1.2279 -1.8452
 3455SOL    HW222425   2.151   3.300   1.821 -0.4313  0.2793 -1.5829
 3456SOL     OW22426   0.398   5.151   2.480 -0.8513  0.2326  0.1848
 3456SOL    HW122427   0.412   5.184   2.573 -1.9921 -2.3831  1.3308
 3456SOL    HW222428   0.481   5.104   2.449 -0.3604  1.3732 -0.2535
 3457SOL     OW22429   8.346   9.801   0.996  0.2688 -0.2774 -0.1856
 3457SOL    HW122430   8.346   9.874   1.064 -3.1949 -0.2778 -0.0793
 3457SOL    HW222431   8.406   9.826   0.920 -0.9952  2.7950 -0.2471
 3458SOL     OW22432   3.512   5.736   6.653 -0.3312  0.0507  0.2466
 3458SOL    HW122433   3.502   5.663   6.586 -3.1115  1.6623 -1.1713
 3458SOL    HW222434   3.436   5.733   6.718  0.3215  0.8082  1.0594
 3459SOL     OW22435   1.230   5.484   3.912 -0.6698  0.1956 -0.2544
 3459SOL    HW122436   1.308   5.428   3.886  0.0122  1.6446 -1.4536
 3459SOL    HW222437   1.146   5.433   3.899 -0.0806 -0.4745 -1.5843
 3460SOL     OW22438   4.361   0.584   3.975  0.2489 -0.5185 -1.1441
 3460SOL    HW122439   4.336   0.497   4.019 -0.8377 -0.6598 -2.0285
 3460SOL    HW222440   4.319   0.659   4.025  1.7943 -0.4291  0.0663
 3461SOL     OW22441   9.834   6.278   6.869 -0.0745 -0.3393 -1.2699
 3461SOL    HW122442   9.752   6.336   6.862 -0.5299 -0.9386 -0.9539
 3461SOL    HW222443   9.916   6.334   6.860 -0.4889  0.5317  0.2901
 3462SOL     OW22444   4.035   8.882   1.047  0.5335  0.7473  0.1153
 3462SOL    HW122445   4.100   8.951   1.014  2.9376 -1.0706  0.8261
 3462SOL    HW222446   4.012   8.901   1.143  1.1029  0.6482  0.2759
 3463SOL     OW22447   4.026   3.557   6.145 -0.5739 -0.7872 -0.5750
 3463SOL    HW122448   4.124   3.552   6.163 -0.8948 -0.5706  1.3613
 3463SOL    HW222449   4.010   3.592   6.052  1.1476  1.1190 -0.1683
 3464SOL     OW22450   3.622   2.045   6.396 -0.2182  0.2486  0.2025
 3464SOL    HW122451   3.604   2.015   6.489 -1.7664  0.3002 -0.0733
 3464SOL    HW222452   3.559   1.999   6.333 -0.3032  1.4654 -0.6184
 3465SOL     OW22453   9.469   0.738   2.918 -0.0276 -0.5265  0.3118
 3465SOL    HW122454   9.530   0.806   2.878  0.0340 -0.6033  0.2720
 3465SOL    HW222455   9.375   0.771   2.915  0.0280 -0.3533  0.4891
 3466SOL     OW22456   3.363   0.985   7.484 -0.5702 -0.0204  0.4345
 3466SOL    HW122457   3.332   0.989   7.579 -0.1675 -3.4172  0.7845
 3466SOL    HW222458   3.459   0.956   7.481  0.0098  1.9374 -0.9615
 3467SOL     OW22459   3.218   4.213   0.601  0.3449 -0.0828 -0.3462
 3467SOL    HW122460   3.127   4.251   0.619 -0.0797 -1.4378  0.4715
 3467SOL    HW222461   3.220   4.173   0.509 -0.2468 -1.0435  0.0489
 3468SOL     OW22462   0.226   9.421   3.484  0.0034  0.5584 -0.3482
 3468SOL    HW122463   0.151   9.480   3.513 -0.3210  0.0659 -0.1757
 3468SOL    HW222464   0.295   9.417   3.556 -1.0808 -1.1407  0.6422
 3469SOL     OW22465   2.013   9.690   7.928  0.4314  0.2452  0.3140
 3469SOL    HW122466   2.030   9.713   8.024  1.8522 -0.5806  0.2595
 3469SOL    HW222467   2.069   9.748   7.870  0.0252  0.3205 -0.0035
 3470SOL     OW22468   0.320   9.947   7.308 -0.3507  0.0813  0.0018
 3470SOL    HW122469   0.403   9.952   7.364 -1.3532  2.2557  1.3526
 3470SOL    HW222470   0.344   9.920   7.215  1.6209 -1.3096  0.8795
 3471SOL     OW22471   0.321   2.837   5.726 -0.1485 -0.6903  0.3540
 3471SOL    HW122472   0.386   2.764   5.750 -0.1771 -0.9373 -0.3067
 3471SOL    HW222473   0.371   2.922   5.710 -0.0387 -0.7477  0.3911
 3472SOL     OW22474   7.528   0.019   8.582  0.0474  0.1673 -0.3506
 3472SOL    HW122475   7.452  -0.046   8.576 -0.0459  0.1950  0.4297
 3472SOL    HW222476   7.538   0.049   8.677  1.2632 -0.1041 -0.3943
 3473SOL     OW22477   3.647   3.062   2.562 -0.1454  0.4480 -0.7560
 3473SOL    HW122478   3.734   3.109   2.548 -0.6031  2.0412  1.6520
 3473SOL    HW222479   3.599   3.055   2.474  1.1097  2.1347 -1.6039
 3474SOL     OW22480   9.912   2.616   7.007 -0.3014 -0.1717 -0.0573
 3474SOL    HW122481   9.843   2.684   6.983 -0.2338  0.2230  0.8694
 3474SOL    HW222482   9.904   2.591   7.103 -0.5547 -1.7431 -0.4648
 3475SOL     OW22483   6.257   7.403   4.162 -0.1425 -0.0608 -0.3006
 3475SOL    HW122484   6.350   7.410   4.125  0.0413 -1.3634 -0.1052
 3475SOL    HW222485   6.219   7.494   4.173  1.2365  0.5049 -0.0813
 3476SOL     OW22486   7.847   0.730   8.109  0.5700 -0.2503 -0.3417
 3476SOL    HW122487   7.890   0.644   8.081 -1.6673 -2.1626  1.8135
 3476SOL    HW222488   7.760   0.740   8.060  0.0030 -0.0800  0.7001
 3477SOL     OW22489   6.802   8.470   5.618 -0.3975 -0.0091  0.2326
 3477SOL    HW122490   6.733   8.542   5.608 -0.6693 -0.1342  1.2136
 3477SOL    HW222491   6.758   8.384   5.643 -0.1668 -0.7311 -1.7144
 3478SOL     OW22492   6.039   9.950   6.816  0.3670 -0.1367  0.8501
 3478SOL    HW122493   5.939   9.953   6.812  0.4263  0.2751 -0.2989
 3478SOL    HW222494   6.076   9.924   6.727  1.2734 -0.9021  1.4256
 3479SOL     OW22495   3.649   5.073  10.058 -0.5414  0.2511 -0.5293
 3479SOL    HW122496   3.747   5.056  10.048 -0.7959 -0.9690 -1.1017
 3479SOL    HW222497   3.623   5.063  10.154  0.1268  1.9501 -0.1546
 3480SOL     OW22498   1.493   6.580   3.165 -0.2924  0.0492 -0.2973
 3480SOL    HW122499   1.480   6.490   3.123  0.0193 -0.0586 -0.1629
 3480SOL    HW222500   1.501   6.569   3.264  1.6869  0.0179 -0.4447
 3481SOL     OW22501   0.697   3.758   7.523  0.1555 -0.1804  0.4513
 3481SOL    HW122502   0.660   3.805   7.604  2.3672 -0.8369  1.8849
 3481SOL    HW222503   0.702   3.660   7.541 -1.3466 -0.6007 -1.3113
 3482SOL     OW22504   5.153   4.965   8.906 -0.6201  0.1117 -0.7224
 3482SOL    HW122505   5.161   4.873   8.869 -1.1108 -0.2685  0.1094
 3482SOL    HW222506   5.182   5.031   8.837  1.3132 -0.7418 -0.7462
 3483SOL     OW22507   0.228   6.564   3.523  0.3542 -0.2695  0.1299
 3483SOL    HW122508   0.240   6.521   3.433  0.5772  1.8557 -0.8892
 3483SOL    HW222509   0.314   6.563   3.572  0.2511 -1.3723  0.3018
 3484SOL     OW22510   7.726   9.725   3.354 -0.2603  0.3947  0.3781
 3484SOL    HW122511   7.709   9.808   3.301  0.6458  1.1959  1.3083
 3484SOL    HW222512   7.668   9.652   3.321  0.9732  0.5861 -2.3723
 3485SOL     OW22513   2.462   2.220   4.242 -0.1476  0.4223  0.0054
 3485SOL    HW122514   2.460   2.155   4.167 -3.0852  2.3433 -1.6850
 3485SOL    HW222515   2.537   2.285   4.228  1.3421 -1.1468  0.5028
 3486SOL     OW22516   7.149   5.893   9.698  0.1090  0.4224  0.0583
 3486SOL    HW122517   7.119   5.818   9.758  2.8088 -0.0897  0.8476
 3486SOL    HW222518   7.133   5.868   9.603 -1.7187  0.0881  0.4463
 3487SOL     OW22519   9.496   7.793   3.019 -0.2210  0.0660 -0.2192
 3487SOL    HW122520   9.503   7.817   2.922 -1.6515 -2.6549 -1.0471
 3487SOL    HW222521   9.580   7.746   3.047  0.1338  0.7275 -0.1500
 3488SOL     OW22522   9.974   0.194   9.328 -0.5381 -0.4208  0.1471
 3488SOL    HW122523   9.895   0.169   9.271 -0.5428  1.2388 -0.5991
 3488SOL    HW222524  10.000   0.289   9.310 -0.0605 -0.0874  2.3718
 3489SOL     OW22525   7.329   6.139   8.976 -0.2636  0.2574 -0.3764
 3489SOL    HW122526   7.339   6.220   9.034 -2.3761  1.9142 -2.2854
 3489SOL    HW222527   7.406   6.135   8.912 -1.5212  2.2745 -2.0709
 3490SOL     OW22528   3.573   5.494   4.379 -0.0955  0.3102  0.0647
 3490SOL    HW122529   3.566   5.408   4.429 -1.0390  0.0974 -0.4299
 3490SOL    HW222530   3.603   5.566   4.441 -0.7159 -0.0697  0.8047
 3491SOL     OW22531   8.115   2.589   2.404  0.7809  0.3203 -0.3977
 3491SOL    HW122532   8.120   2.527   2.325 -0.7398  0.2641 -0.4521
 3491SOL    HW222533   8.199   2.580   2.458  1.0207 -1.0284 -0.9629
 3492SOL     OW22534   7.339   9.553   5.545 -0.1924 -0.1494 -0.2967
 3492SOL    HW122535   7.413   9.618   5.562 -0.1586 -0.6683  1.7154
 3492SOL    HW222536   7.257   9.602   5.517 -1.4273  1.3266  5.1645
 3493SOL     OW22537   4.240   5.254   1.627 -0.8140  0.3499 -0.0217
 3493SOL    HW122538   4.333   5.219   1.614 -0.4706  1.8896 -1.9362
 3493SOL    HW222539   4.176   5.195   1.577 -0.8023 -0.3539  0.7845
 3494SOL     OW22540   0.130   3.820   6.185 -0.2933  0.1887 -0.2472
 3494SOL    HW122541   0.178   3.747   6.234 -0.9768  0.1139  0.3257
 3494SOL    HW222542   0.166   3.828   6.093  1.0446  0.3619  0.2837
 3495SOL     OW22543   0.872   9.345   9.099  0.0312  0.0572  0.4341
 3495SOL    HW122544   0.841   9.284   9.172 -1.5733  0.9068  0.4772
 3495SOL    HW222545   0.905   9.431   9.138 -0.0394  0.1880  0.2108
 3496SOL     OW22546   0.078   9.717   8.118  0.1785  0.0434 -0.0276
 3496SOL    HW122547   0.146   9.733   8.189  0.5647 -0.6904 -0.2306
 3496SOL    HW222548   0.124   9.713   8.029  0.1992 -2.9360  0.0808
 3497SOL     OW22549   0.785   8.833   2.961 -0.2544  1.0679  0.2349
 3497SOL    HW122550   0.699   8.783   2.958 -0.1207  0.7139  1.6920
 3497SOL    HW222551   0.807   8.869   2.870 -1.4021  0.2675 -0.3630
 3498SOL     OW22552   2.821   0.900   0.266  0.1040  0.1335  0.1408
 3498SOL    HW122553   2.812   0.946   0.177  0.3842  1.3031  0.7024
 3498SOL    HW222554   2.846   0.805   0.252 -0.6829  0.0928 -1.0621
 3499SOL     OW22555   7.188   8.008   1.987 -0.4378  0.1580 -0.2752
 3499SOL    HW122556   7.253   7.999   1.912 -0.8625 -1.1998 -0.4878
 3499SOL    HW222557   7.113   7.944   1.974 -0.9481  0.5030  0.8783
 3500SOL     OW22558   9.707   4.177   0.822 -0.1310 -0.4081 -0.6683
 3500SOL    HW122559   9.721   4.269   0.786  0.8833  0.2467  1.3047
 3500SOL    HW222560   9.662   4.182   0.912 -0.2059 -1.8323 -0.6095
 3501SOL     OW22561   4.677   2.857   7.838 -0.8202 -0.1362 -0.5991
 3501SOL    HW122562   4.582   2.883   7.855 -0.8579  0.2164 -1.3652
 3501SOL    HW222563   4.680   2.780   7.775 -0.6148 -0.4903 -0.1617
 3502SOL     OW22564   3.582   6.099   6.168  0.1908  0.1308  0.0232
 3502SOL    HW122565   3.572   6.004   6.197 -0.8010  0.0632 -0.5272
 3502SOL    HW222566   3.604   6.156   6.246 -1.6543 -0.1684  0.7835
 3503SOL     OW22567   3.423   9.745   1.215  0.4506  0.0172  0.5536
 3503SOL    HW122568   3.328   9.730   1.244  1.3240 -0.3553  3.4330
 3503SOL    HW222569   3.426   9.813   1.142 -2.0173  0.1661  0.5505
 3504SOL     OW22570   4.309   9.123   6.860  0.4928 -0.1023  0.1075
 3504SOL    HW122571   4.368   9.199   6.831  0.9712 -0.2673  0.6341
 3504SOL    HW222572   4.321   9.108   6.958  0.1737 -0.6659  0.0609
 3505SOL     OW22573   1.881   7.041   0.124 -0.0282 -0.7027  0.0262
 3505SOL    HW122574   1.811   7.110   0.109  1.3498  1.3084  2.4370
 3505SOL    HW222575   1.940   7.034   0.043 -1.1941 -0.2840 -0.8614
 3506SOL     OW22576   0.358   9.465   1.683 -0.9105 -0.5066 -0.1314
 3506SOL    HW122577   0.269   9.477   1.726 -1.7504 -1.2812 -1.5911
 3506SOL    HW222578   0.345   9.450   1.585  1.0131  2.9833 -1.0057
 3507SOL     OW22579   2.326   8.282   1.202  0.3464 -0.2481 -0.3795
 3507SOL    HW122580   2.349   8.379   1.203  1.3345 -0.4789 -0.5201
 3507SOL    HW222581   2.257   8.265   1.131 -1.7104  0.7535  1.3274
 3508SOL     OW22582   1.353   0.946   8.573  0.0818  0.2557 -0.1809
 3508SOL    HW122583   1.339   0.992   8.660 -0.6438  1.8367 -1.1087
 3508SOL    HW222584   1.428   0.990   8.523  0.5463 -0.6855 -0.3325
 3509SOL     OW22585   1.267   2.420   0.624 -0.3850  0.3854 -0.7561
 3509SOL    HW122586   1.204   2.497   0.624  0.0374  0.7407  0.4233
 3509SOL    HW222587   1.309   2.411   0.714 -0.1613 -1.0101 -0.9882
 3510SOL     OW22588   6.744   3.807   2.306  0.4588  0.3236 -0.1994
 3510SOL    HW122589   6.703   3.862   2.233  1.0459  0.9721 -0.0503
 3510SOL    HW222590   6.827   3.762   2.271 -1.5468 -2.7956 -1.1655
 3511SOL     OW22591   4.320   3.839   1.128 -0.3041  1.0008 -0.0854
 3511SOL    HW122592   4.376   3.853   1.046 -0.2960 -0.2260 -0.3048
 3511SOL    HW222593   4.231   3.881   1.116 -0.8928 -0.5636 -1.3929
 3512SOL     OW22594   9.326   1.047   3.184  0.2942  0.3866 -0.0237
 3512SOL    HW122595   9.400   1.073   3.122 -0.0746 -0.5812 -0.8723
 3512SOL    HW222596   9.335   1.099   3.269  2.2074 -0.0213  0.0538
 3513SOL     OW22597   2.470   7.996   8.942 -0.5990  0.5522 -0.3672
 3513SOL    HW122598   2.465   7.903   8.979  0.6943  0.3922 -0.5703
 3513SOL    HW222599   2.484   8.061   9.017  2.0607  0.2229 -0.5310
 3514SOL     OW22600   1.448   2.686   0.659 -0.2852  0.2060  0.2377
 3514SOL    HW122601   1.494   2.601   0.686  0.7076  0.0739 -1.7976
 3514SOL    HW222602   1.498   2.764   0.698  0.0132 -0.0574  0.3878
 3515SOL     OW22603   4.174   2.339   3.902  0.2314  0.2030  0.4843
 3515SOL    HW122604   4.087   2.318   3.858  0.7810  0.7368 -0.8606
 3515SOL    HW222605   4.209   2.256   3.946 -0.3143 -0.3351 -0.0848
 3516SOL     OW22606   9.453   0.769   9.806 -0.3522 -0.2190  0.3271
 3516SOL    HW122607   9.544   0.727   9.809  0.2193  1.0515  1.6040
 3516SOL    HW222608   9.445   0.825   9.724  0.3061  0.2860  0.6063
 3517SOL     OW22609   2.381   8.481   2.411 -0.2291  0.0792 -0.0412
 3517SOL    HW122610   2.287   8.486   2.444 -0.3691  0.7979 -0.5282
 3517SOL    HW222611   2.419   8.391   2.430 -1.9715 -1.1963 -2.3042
 3518SOL     OW22612   9.425   5.057   9.760 -0.1266  0.3760 -0.1440
 3518SOL    HW122613   9.338   5.046   9.809 -0.8152  0.5811 -1.2938
 3518SOL    HW222614   9.409   5.047   9.662  1.2786 -0.2784 -0.3210
 3519SOL     OW22615   1.520   7.059   9.024  0.0538  0.1667  0.0642
 3519SOL    HW122616   1.586   6.987   9.002  0.3705  0.7533 -0.9340
 3519SOL    HW222617   1.564   7.149   9.018 -0.1412  0.4245  2.0244
 3520SOL     OW22618   1.616   5.319   8.735 -0.0089 -0.0056 -0.4458
 3520SOL    HW122619   1.617   5.303   8.833 -0.5350  0.4371 -0.3676
 3520SOL    HW222620   1.706   5.297   8.696  0.3103  0.1862  0.1861
 3521SOL     OW22621   1.781   2.291   9.454  0.1825 -0.2705  0.3000
 3521SOL    HW122622   1.690   2.326   9.434  0.0100 -0.7529  0.2437
 3521SOL    HW222623   1.778   2.191   9.463  0.8132 -0.3479 -0.3056
 3522SOL     OW22624   2.016   4.304   1.050 -0.1392 -0.5360 -0.3532
 3522SOL    HW122625   1.956   4.299   1.130  0.5708 -1.4555  0.1400
 3522SOL    HW222626   2.110   4.322   1.081  0.1016 -0.6692 -0.9982
 3523SOL     OW22627   7.066   6.349   6.226  0.3290  0.1235  0.0762
 3523SOL    HW122628   7.089   6.435   6.180  1.0917 -0.2665 -0.2945
 3523SOL    HW222629   7.131   6.333   6.300  0.8377 -0.6492 -0.5292
 3524SOL     OW22630   0.191   6.547   9.659 -0.7111 -0.3329  0.0165
 3524SOL    HW122631   0.155   6.475   9.600  0.2465 -0.8924  0.1054
 3524SOL    HW222632   0.283   6.572   9.630  0.0030 -1.0187  1.5846
 3525SOL     OW22633   9.228   2.783   7.625 -0.5523  0.1834 -0.4882
 3525SOL    HW122634   9.228   2.711   7.556 -0.8631 -2.2862  1.9871
 3525SOL    HW222635   9.139   2.785   7.671 -0.2094  1.5124  0.1580
 3526SOL     OW22636   8.842   8.316   3.213  0.0779  0.2295 -0.1645
 3526SOL    HW122637   8.861   8.274   3.124 -2.1931  1.7839 -1.4304
 3526SOL    HW222638   8.883   8.407   3.217 -0.7543  0.6096 -0.0809
 3527SOL     OW22639   4.670   9.317   1.407  0.3337 -0.1727  0.1511
 3527SOL    HW122640   4.594   9.354   1.461 -0.4616 -0.0095 -1.0578
 3527SOL    HW222641   4.634   9.277   1.323  1.6495  0.4838 -0.7371
 3528SOL     OW22642   9.033   3.801   0.040 -0.3139 -1.0264 -0.0337
 3528SOL    HW122643   8.945   3.838   0.070  1.1404  1.8095  0.9756
 3528SOL    HW222644   9.053   3.835  -0.052  1.9663  2.6166  1.6802
 3529SOL     OW22645   3.268   0.833   3.759  0.1780  0.3099  0.0903
 3529SOL    HW122646   3.276   0.895   3.680  2.0541  1.8149  1.4064
 3529SOL    HW222647   3.334   0.759   3.750  1.7091  1.5105  1.1021
 3530SOL     OW22648   0.472   8.974   4.251 -0.0145 -0.1098  0.8605
 3530SOL    HW122649   0.549   9.037   4.239 -1.2482  1.1620 -0.4669
 3530SOL    HW222650   0.430   8.955   4.163 -1.9248  0.0963  1.7036
 3531SOL     OW22651   1.408   7.734   6.201 -0.1505 -0.0853  0.1693
 3531SOL    HW122652   1.353   7.677   6.264 -1.2322  1.4118  0.6267
 3531SOL    HW222653   1.483   7.680   6.164 -2.4480 -2.4718 -1.1487
 3532SOL     OW22654   3.561   6.487   6.360 -0.1632 -0.2753 -0.1974
 3532SOL    HW122655   3.568   6.491   6.460 -3.7620  0.5296  0.1076
 3532SOL    HW222656   3.562   6.392   6.330 -0.7405 -0.5865  0.7599
 3533SOL     OW22657   8.728   1.355   6.525 -0.0510  0.0306 -0.3894
 3533SOL    HW122658   8.690   1.360   6.433 -2.6162  0.4901  0.6549
 3533SOL    HW222659   8.787   1.434   6.541  0.9817 -0.4174 -1.8554
 3534SOL     OW22660   2.943   6.261   4.396  0.4401 -0.2957  0.8435
 3534SOL    HW122661   2.884   6.216   4.328 -0.2563  1.1522  0.4858
 3534SOL    HW222662   3.038   6.253   4.366 -0.0045  2.0241 -1.3347
 3535SOL     OW22663   8.240   8.844   3.803 -0.0570  0.2793 -0.2425
 3535SOL    HW122664   8.261   8.919   3.865  0.4469  0.8349 -1.0768
 3535SOL    HW222665   8.298   8.766   3.824  1.4795  1.1191 -1.2375
 3536SOL     OW22666   5.893   5.312   9.875 -0.0501 -0.3507  0.2300
 3536SOL    HW122667   5.945   5.306   9.790  1.7831  1.4579  1.1985
 3536SOL    HW222668   5.933   5.251   9.943 -0.6349 -0.7061  0.2612
 3537SOL     OW22669   2.627   1.225   0.006  0.2138 -0.0016  0.0319
 3537SOL    HW122670   2.658   1.130   0.002 -0.3552 -0.1928  0.0541
 3537SOL    HW222671   2.550   1.237  -0.057 -0.0323  0.3254  0.3971
 3538SOL     OW22672   0.076   0.006   1.030  0.0661 -0.3151 -0.2478
 3538SOL    HW122673   0.124  -0.016   1.115  1.7138  2.3787 -0.4121
 3538SOL    HW222674   0.034   0.096   1.038 -3.0218 -1.6316 -0.9877
 3539SOL     OW22675   7.055   2.540   8.963 -0.2476  0.5251 -0.4822
 3539SOL    HW122676   7.154   2.528   8.955 -0.1725 -0.0705  1.1173
 3539SOL    HW222677   7.024   2.607   8.897  1.3947  1.5049 -0.2754
 3540SOL     OW22678   2.916   8.974   8.767 -0.1291 -0.2740 -0.0503
 3540SOL    HW122679   2.830   8.999   8.723 -0.3047  1.5842  1.2871
 3540SOL    HW222680   2.971   9.056   8.781  1.8169 -1.4198 -0.7399
 3541SOL     OW22681   1.427   0.783   4.967  0.5456 -0.4861  0.4164
 3541SOL    HW122682   1.345   0.726   4.969  1.4681 -1.9398 -1.7529
 3541SOL    HW222683   1.467   0.786   5.059 -0.2333 -2.2881  0.8344
 3542SOL     OW22684   8.664   0.368   8.063 -0.3790  0.2344  0.2758
 3542SOL    HW122685   8.718   0.291   8.097  1.0681  0.8869 -0.4937
 3542SOL    HW222686   8.588   0.385   8.125 -0.7305 -1.8102  0.4628
 3543SOL     OW22687   9.554   6.343   1.372  0.5472 -0.4966  0.1541
 3543SOL    HW122688   9.516   6.404   1.443 -0.2098 -1.5075  0.6284
 3543SOL    HW222689   9.573   6.253   1.411 -1.4628 -1.5945 -1.2844
 3544SOL     OW22690   0.080   6.743   6.465 -0.1219  0.5600  0.1142
 3544SOL    HW122691   0.165   6.751   6.413 -1.0256  1.6613 -1.2213
 3544SOL    HW222692   0.005   6.720   6.403 -0.7717 -0.6947  1.3222
 3545SOL     OW22693   8.548   3.592   0.437  0.6255 -0.3167  0.4980
 3545SOL    HW122694   8.513   3.499   0.438  0.9509 -0.4402  0.2022
 3545SOL    HW222695   8.615   3.603   0.364 -1.3632  0.8590 -1.2246
 3546SOL     OW22696   8.098   1.388   0.630  0.5200  0.5093 -0.3602
 3546SOL    HW122697   8.073   1.482   0.605 -1.6521  0.0461 -0.1019
 3546SOL    HW222698   8.161   1.390   0.708  1.5423  1.7688 -1.2012
 3547SOL     OW22699   0.058   5.075   9.487  0.4990 -0.3918 -0.5176
 3547SOL    HW122700   0.157   5.085   9.482  0.4927  0.0916  0.2415
 3547SOL    HW222701   0.029   5.081   9.582 -0.4489  1.2534 -0.8901
 3548SOL     OW22702   2.522   8.784   8.177  0.4322  0.1630  0.1945
 3548SOL    HW122703   2.604   8.841   8.184 -0.2325  1.1511  0.0974
 3548SOL    HW222704   2.509   8.757   8.082  1.0384 -0.6000  0.3209
 3549SOL     OW22705   4.695   9.661   1.889  0.1231  0.4387 -0.3645
 3549SOL    HW122706   4.617   9.613   1.850  0.3968 -0.5746  0.2911
 3549SOL    HW222707   4.756   9.692   1.816 -0.4460  0.4539 -0.8312
 3550SOL     OW22708   2.267   7.440   1.645 -0.6751  0.1601 -0.3176
 3550SOL    HW122709   2.196   7.419   1.713 -0.3672  2.1936  0.6628
 3550SOL    HW222710   2.351   7.466   1.692  0.1948 -0.5045 -1.4921
 3551SOL     OW22711   6.467   7.448   5.802 -0.7554 -0.1343  0.0440
 3551SOL    HW122712   6.503   7.530   5.846 -0.4295 -0.6801  0.8264
 3551SOL    HW222713   6.533   7.412   5.737 -1.0336  0.4010 -0.5437
 3552SOL     OW22714   1.241   0.748   1.372 -0.0867  0.1791 -0.1433
 3552SOL    HW122715   1.303   0.688   1.423 -2.1897 -0.5686  1.6289
 3552SOL    HW222716   1.159   0.697   1.348 -0.5562  1.4947 -1.3948
 3553SOL     OW22717   0.160   7.584   4.634 -0.2186 -0.3372 -0.4070
 3553SOL    HW122718   0.234   7.608   4.697 -0.8656  1.5802 -0.3410
 3553SOL    HW222719   0.080   7.556   4.687 -0.8878  1.6475 -0.3443
 3554SOL     OW22720   6.869   8.262   3.864  0.7202 -0.1738 -0.0109
 3554SOL    HW122721   6.884   8.340   3.803 -1.0405 -0.0030 -0.2452
 3554SOL    HW222722   6.879   8.292   3.959 -2.4543  0.9717  0.0211
 3555SOL     OW22723   9.415   1.508   8.723  0.2219  0.0714 -0.7625
 3555SOL    HW122724   9.452   1.553   8.805 -1.0937  0.2014 -0.2127
 3555SOL    HW222725   9.332   1.458   8.748  0.6277 -1.1154 -1.7449
 3556SOL     OW22726   4.671   3.702   8.965 -0.1093  0.0712  0.1557
 3556SOL    HW122727   4.630   3.613   8.942 -2.0016  0.8217  0.5348
 3556SOL    HW222728   4.608   3.754   9.022  1.7355  0.9585  1.4332
 3557SOL     OW22729   6.052   7.525   5.334 -0.3909 -0.2184 -0.1224
 3557SOL    HW122730   6.039   7.473   5.249 -1.5439 -0.8846  0.4512
 3557SOL    HW222731   5.963   7.544   5.375  0.1863 -0.4426  1.2652
 3558SOL     OW22732   7.286   4.893   8.259  0.2705 -0.4735 -0.0519
 3558SOL    HW122733   7.213   4.952   8.292 -1.0922 -1.7237 -0.7424
 3558SOL    HW222734   7.355   4.947   8.212 -0.9151  0.5857 -0.6031
 3559SOL     OW22735   1.964   8.299   0.800  0.2430  0.5547  0.0213
 3559SOL    HW122736   1.927   8.215   0.839  0.6422  0.3438 -0.0617
 3559SOL    HW222737   2.056   8.283   0.766  1.5934  1.8424  2.9377
 3560SOL     OW22738   8.944   7.072   5.974  0.6645 -0.2363 -0.3575
 3560SOL    HW122739   8.874   7.064   6.045 -0.3875  0.1472 -1.3442
 3560SOL    HW222740   8.906   7.118   5.894  1.2218 -2.4567 -1.9650
 3561SOL     OW22741   0.878   9.234   7.512 -0.2911  0.5197  0.3827
 3561SOL    HW122742   0.789   9.213   7.553 -1.2779  3.3077 -0.2195
 3561SOL    HW222743   0.872   9.321   7.463  2.6823  0.5669  0.0333
 3562SOL     OW22744   3.280   9.121   4.517 -0.4492 -0.1937  0.0594
 3562SOL    HW122745   3.345   9.049   4.489 -0.8573 -0.5721  0.0792
 3562SOL    HW222746   3.307   9.208   4.476 -1.6441 -0.9446 -2.4197
 3563SOL     OW22747   5.774   0.995   5.458  0.2999 -0.0163  0.0497
 3563SOL    HW122748   5.870   1.016   5.473  0.2398  0.3191 -0.0223
 3563SOL    HW222749   5.722   1.011   5.542  0.4159 -0.8474  0.2763
 3564SOL     OW22750   9.763   6.022   4.672  0.4058  0.2525  0.8955
 3564SOL    HW122751   9.755   5.948   4.738 -0.4227  0.2095  0.7434
 3564SOL    HW222752   9.707   6.099   4.701  0.7118  0.5555  0.6858
 3565SOL     OW22753   5.269   2.328   0.828 -0.2189  0.5901  0.0105
 3565SOL    HW122754   5.304   2.382   0.905  1.4656  0.3326 -0.5380
 3565SOL    HW222755   5.189   2.276   0.857  1.2491 -0.6243  2.0189
 3566SOL     OW22756   4.932   9.852   7.466 -0.0427 -0.1820  0.0813
 3566SOL    HW122757   5.029   9.844   7.491  0.4219  1.2153 -1.2083
 3566SOL    HW222758   4.884   9.768   7.491  1.6804 -1.2291 -0.0570
 3567SOL     OW22759   1.819   2.932   6.271  0.2996  0.5701  0.7047
 3567SOL    HW122760   1.805   2.857   6.336 -0.6887 -0.2344 -0.4017
 3567SOL    HW222761   1.801   3.019   6.317  0.3086  0.0621  1.6962
 3568SOL     OW22762   7.141   7.696   6.153 -0.2356  0.2197  0.0345
 3568SOL    HW122763   7.067   7.703   6.220 -0.6345  0.3040 -0.4126
 3568SOL    HW222764   7.124   7.618   6.093  0.4489 -0.2378  0.4231
 3569SOL     OW22765   0.415   9.564   5.215 -0.0816 -0.0378  0.5064
 3569SOL    HW122766   0.451   9.567   5.122  1.9264 -0.2621  1.2475
 3569SOL    HW222767   0.485   9.597   5.279  0.1651 -3.8379  2.3702
 3570SOL     OW22768   6.733   2.752   0.700 -0.1583  0.1078  0.1468
 3570SOL    HW122769   6.763   2.830   0.647 -1.0264  0.7167  0.5377
 3570SOL    HW222770   6.761   2.763   0.796 -0.3784 -0.0020  0.2261
 3571SOL     OW22771   2.817   3.186   5.356  0.0138 -0.3642  0.6901
 3571SOL    HW122772   2.811   3.105   5.298 -1.3136 -0.3569  0.7983
 3571SOL    HW222773   2.736   3.243   5.342  2.4512  2.6388 -1.8385
 3572SOL     OW22774   9.827   2.058   0.391 -0.0232  0.0509 -0.7230
 3572SOL    HW122775   9.787   1.967   0.381  0.5498 -0.6478  2.5701
 3572SOL    HW222776   9.770   2.126   0.346 -2.1864 -1.5585 -0.4653
 3573SOL     OW22777   6.395   0.778   4.870 -0.1900  0.5102  1.3160
 3573SOL    HW122778   6.454   0.853   4.902 -1.7374  2.1905  0.3083
 3573SOL    HW222779   6.328   0.814   4.805 -0.4342 -1.9222  0.1838
 3574SOL     OW22780   8.512   1.203   3.723 -0.1370 -0.5526  0.4849
 3574SOL    HW122781   8.481   1.162   3.809 -0.7751  1.0215  1.0254
 3574SOL    HW222782   8.558   1.289   3.742  1.9341 -1.3880 -0.5718
 3575SOL     OW22783   4.660   0.618   2.415  0.2449  0.2401 -0.2247
 3575SOL    HW122784   4.651   0.687   2.343  0.7085  0.9667  0.4098
 3575SOL    HW222785   4.589   0.633   2.484  1.2185  0.9403  0.6249
 3576SOL     OW22786   2.495   1.740   2.020 -0.0320 -0.2770  0.4520
 3576SOL    HW122787   2.555   1.735   2.100 -0.7108  1.5358  1.0799
 3576SOL    HW222788   2.474   1.835   1.999  0.4229 -0.6865 -2.1165
 3577SOL     OW22789   3.562   7.195   0.498  0.0163 -0.7141  0.1876
 3577SOL    HW122790   3.473   7.190   0.453 -0.1397  2.8229 -0.0579
 3577SOL    HW222791   3.557   7.258   0.575  2.7476  1.0083 -0.9639
 3578SOL     OW22792   0.228   3.448   9.289 -0.1215 -0.3875  0.4142
 3578SOL    HW122793   0.208   3.407   9.378  0.3326  0.1071  0.7476
 3578SOL    HW222794   0.151   3.433   9.227 -0.0000 -1.6635  0.5568
 3579SOL     OW22795   9.430   6.571   0.376 -0.1672  0.3115 -0.2967
 3579SOL    HW122796   9.438   6.551   0.474  1.7908 -1.9293 -0.8777
 3579SOL    HW222797   9.434   6.670   0.362  2.5043  0.5236  1.6484
 3580SOL     OW22798   9.015   3.894   0.449  0.8603  0.6837 -0.3780
 3580SOL    HW122799   9.066   3.980   0.455 -0.7150  1.6592 -0.5450
 3580SOL    HW222800   8.924   3.912   0.411  0.0666 -0.8798  0.7221
 3581SOL     OW22801   0.522   9.734   2.859 -0.0683 -0.2576 -0.7162
 3581SOL    HW122802   0.590   9.776   2.799  1.1966 -2.2778 -0.7234
 3581SOL    HW222803   0.535   9.635   2.861  0.0661 -0.2284  3.0829
 3582SOL     OW22804   9.008   5.389   4.707  0.0287  0.9532 -0.7414
 3582SOL    HW122805   9.008   5.370   4.609 -0.1742  0.8645 -0.7252
 3582SOL    HW222806   8.914   5.386   4.741  0.2417 -0.5145 -0.2596
 3583SOL     OW22807   4.148   2.039   9.100 -0.2188 -0.2427 -1.0906
 3583SOL    HW122808   4.206   1.960   9.079 -0.1246 -0.1252 -1.2711
 3583SOL    HW222809   4.192   2.122   9.068 -0.4283 -0.1387 -1.1115
 3584SOL     OW22810   4.518   1.415   6.098 -0.7227 -0.1375 -0.5034
 3584SOL    HW122811   4.528   1.470   6.015 -1.7434 -0.0706 -0.5888
 3584SOL    HW222812   4.437   1.445   6.149  1.0686  1.2547  1.6355
 3585SOL     OW22813   7.878   6.634   6.119 -0.2974  0.1594 -0.0834
 3585SOL    HW122814   7.860   6.576   6.198 -0.5971  0.1731 -0.1414
 3585SOL    HW222815   7.833   6.722   6.131 -0.0522  0.2892 -0.1112
 3586SOL     OW22816   4.666   4.179   8.929 -0.2526 -0.0331 -0.3691
 3586SOL    HW122817   4.698   4.244   8.999 -0.1345 -0.9823  0.4717
 3586SOL    HW222818   4.622   4.101   8.973  0.2083 -0.8533 -1.3340
 3587SOL     OW22819   1.882   4.819   8.129  0.2022 -0.2247  0.4750
 3587SOL    HW122820   1.979   4.839   8.112 -0.2442  2.2075  0.6642
 3587SOL    HW222821   1.870   4.795   8.226  0.5307 -0.0537  0.5605
 3588SOL     OW22822   8.684   8.070   2.151 -0.4214  0.6041 -0.2312
 3588SOL    HW122823   8.726   7.989   2.111 -4.0342 -1.0283 -0.9338
 3588SOL    HW222824   8.674   8.141   2.081  0.8500  0.8926 -0.1289
 3589SOL     OW22825   1.832   3.337   8.555  0.0831  0.1724  0.1275
 3589SOL    HW122826   1.843   3.426   8.509  1.0585  0.0342  0.0935
 3589SOL    HW222827   1.820   3.352   8.653  1.0973  0.3000  0.2371
 3590SOL     OW22828   0.764   5.615   4.086 -0.5774  0.0899 -0.1628
 3590SOL    HW122829   0.857   5.604   4.052 -0.7464  0.1571 -0.6450
 3590SOL    HW222830   0.701   5.566   4.026 -0.8923  0.3302 -0.0274
 3591SOL     OW22831   3.564   8.530   9.938 -0.0534 -0.3294 -0.3878
 3591SOL    HW122832   3.548   8.551   9.842 -1.8617 -0.1130 -0.0647
 3591SOL    HW222833   3.662   8.531   9.957  0.2211  1.9376 -1.7148
 3592SOL     OW22834   3.479   5.542   6.445  0.2201 -0.1937  0.2458
 3592SOL    HW122835   3.526   5.455   6.458  0.4892 -0.3191 -1.4671
 3592SOL    HW222836   3.392   5.527   6.398 -0.1974  0.3598  0.8299
 3593SOL     OW22837   2.865   1.219   8.624  0.3803 -0.4875  0.0792
 3593SOL    HW122838   2.781   1.272   8.611 -0.2227 -1.5776 -0.5727
 3593SOL    HW222839   2.939   1.259   8.571 -0.4177 -1.0950 -1.5093
 3594SOL     OW22840   8.768   9.952   0.523 -0.4659 -0.1660 -0.0288
 3594SOL    HW122841   8.824   9.999   0.455  0.9609 -0.3826  0.9802
 3594SOL    HW222842   8.673   9.982   0.514 -0.0282  0.9386 -1.1214
 3595SOL     OW22843   2.147   8.762   0.328  0.6496  0.1053  0.3818
 3595SOL    HW122844   2.109   8.723   0.412 -0.4001  0.1946 -0.0359
 3595SOL    HW222845   2.140   8.862   0.332 -0.0703  0.0798 -0.1075
 3596SOL     OW22846   0.439   6.793   5.540 -0.2078  0.2547  0.1086
 3596SOL    HW122847   0.388   6.829   5.618 -0.8702  0.9875 -0.6451
 3596SOL    HW222848   0.375   6.761   5.471  0.3790 -0.9005  0.0977
 3597SOL     OW22849   7.011   9.963   1.260  0.5831 -0.6409 -0.0335
 3597SOL    HW122850   7.106   9.930   1.262  0.6316 -0.4707  0.5478
 3597SOL    HW222851   7.004  10.039   1.195  0.7248 -1.0269 -0.5007
 3598SOL     OW22852   1.752   7.463   3.907  0.2604  0.5728 -0.0618
 3598SOL    HW122853   1.789   7.507   3.825 -0.1950  0.8527 -0.1193
 3598SOL    HW222854   1.824   7.451   3.974  1.0158 -1.1773 -1.1461
 3599SOL     OW22855   7.246   3.085   4.018 -0.3340 -0.0409 -0.0487
 3599SOL    HW122856   7.161   3.127   4.051  0.8690  1.9966  0.5807
 3599SOL    HW222857   7.277   3.134   3.936  1.1221  0.3692  0.7232
 3600SOL     OW22858   3.506   1.583   7.445  0.8896  0.1411  0.5314
 3600SOL    HW122859   3.426   1.543   7.491  1.6228  0.0564  1.7420
 3600SOL    HW222860   3.507   1.682   7.462  1.2661  0.0809  0.8559
 3601SOL     OW22861   4.167   6.857   0.185  0.0772  0.3531 -0.1443
 3601SOL    HW122862   4.221   6.795   0.128  1.0169 -0.1069  1.2181
 3601SOL    HW222863   4.220   6.940   0.202 -1.8198  2.3032 -3.3424
 3602SOL     OW22864   3.087   9.801   7.250  0.3044  0.1116  0.5620
 3602SOL    HW122865   3.167   9.849   7.214  1.2816 -2.2378 -0.4778
 3602SOL    HW222866   3.114   9.747   7.330 -0.6634  0.8344  1.3876
 3603SOL     OW22867   7.577   7.664   8.036 -0.2227 -0.2494 -0.0928
 3603SOL    HW122868   7.484   7.629   8.025  0.0405 -0.9484 -0.0869
 3603SOL    HW222869   7.581   7.758   8.003 -0.3098 -1.0945 -2.5556
 3604SOL     OW22870   2.077   8.101   7.216 -0.0170  0.0903 -0.0900
 3604SOL    HW122871   2.008   8.036   7.185  0.1014  0.4933 -1.2177
 3604SOL    HW222872   2.046   8.194   7.196 -0.0891  0.3829  1.3124
 3605SOL     OW22873   5.135   0.792   6.259  0.2264 -0.1147 -0.5258
 3605SOL    HW122874   5.087   0.797   6.347 -0.2581 -1.8448 -0.6832
 3605SOL    HW222875   5.182   0.879   6.242 -0.2140  0.4659  1.1298
 3606SOL     OW22876   9.928   4.226   6.813 -0.1605  0.3605  0.2417
 3606SOL    HW122877   9.930   4.237   6.912 -2.0477  1.1597  0.2060
 3606SOL    HW222878   9.914   4.129   6.791 -0.9875  0.3518  0.7807
 3607SOL     OW22879   6.167   5.993   0.648 -0.1107 -0.1346 -0.3771
 3607SOL    HW122880   6.082   6.046   0.651  0.8257  1.4398 -1.0713
 3607SOL    HW222881   6.214   6.010   0.561  0.7562 -1.2786 -0.1527
 3608SOL     OW22882   3.566   5.306   4.191 -0.4057  0.1979 -0.0193
 3608SOL    HW122883   3.654   5.306   4.142  0.3922 -0.9907  1.3678
 3608SOL    HW222884   3.563   5.382   4.256  0.9848 -1.6525  2.2878
 3609SOL     OW22885   6.806   8.948   3.990  0.0114 -1.0209  0.2841
 3609SOL    HW122886   6.865   8.931   4.068 -0.2974 -2.3408  0.2492
 3609SOL    HW222887   6.725   9.000   4.019  1.6899  1.7900  0.1226
 3610SOL     OW22888   7.011   0.187   8.847  0.2955  0.4675  0.4207
 3610SOL    HW122889   7.020   0.228   8.938 -0.5592  0.1495  0.6543
 3610SOL    HW222890   6.989   0.259   8.781  1.3971  0.7721  0.3756
 3611SOL     OW22891   7.854   4.645   9.445 -0.5330  0.1466 -0.5054
 3611SOL    HW122892   7.884   4.569   9.502 -0.4097  0.3460 -0.3010
 3611SOL    HW222893   7.815   4.717   9.503  1.8672  1.4304 -0.4168
 3612SOL     OW22894   4.053   4.465   7.035 -0.4589  0.6332 -0.0939
 3612SOL    HW122895   4.026   4.380   7.079 -1.3258 -0.1740 -2.1198
 3612SOL    HW222896   4.086   4.446   6.943 -2.1733  2.6164 -1.1729
 3613SOL     OW22897   2.915   4.708   5.299  0.2665 -0.5057  0.4936
 3613SOL    HW122898   2.889   4.688   5.393  0.2254 -1.8655  0.2070
 3613SOL    HW222899   3.014   4.719   5.293  0.1331  1.0128  0.9414
 3614SOL     OW22900   0.572   1.145   3.841 -0.0948 -0.4278  0.1721
 3614SOL    HW122901   0.546   1.050   3.822  2.7921 -1.0758 -0.8403
 3614SOL    HW222902   0.656   1.146   3.895 -1.4184  1.5778  2.2957
 3615SOL     OW22903   4.119   8.268   5.525  0.2907  0.3299  0.9098
 3615SOL    HW122904   4.023   8.244   5.514  0.4745 -0.1946  0.4570
 3615SOL    HW222905   4.172   8.232   5.449  0.8867  0.4125  1.2793
 3616SOL     OW22906   8.587   3.391   4.835 -0.3217  1.0000 -0.0853
 3616SOL    HW122907   8.518   3.427   4.898  0.3972 -0.3225  1.4715
 3616SOL    HW222908   8.633   3.467   4.790 -2.0615  1.9208 -0.3460
 3617SOL     OW22909   7.332   8.884   5.515  0.2239 -0.0929 -0.2061
 3617SOL    HW122910   7.309   8.864   5.610  0.6608  0.7553  0.0868
 3617SOL    HW222911   7.261   8.942   5.475  0.2937 -0.0340 -0.2454
 3618SOL     OW22912   5.369   6.174   9.045  0.4815  0.1981 -0.3966
 3618SOL    HW122913   5.430   6.183   8.966 -0.4691  0.5574 -1.0998
 3618SOL    HW222914   5.278   6.147   9.013  0.5654 -1.5079  0.7519
 3619SOL     OW22915   2.731   5.453   7.182 -0.3742 -0.9069 -0.4756
 3619SOL    HW122916   2.806   5.447   7.249 -0.6806 -0.2502 -0.0692
 3619SOL    HW222917   2.646   5.473   7.230 -0.3944  0.7648 -1.1736
 3620SOL     OW22918   2.238   5.843   9.747  0.2514 -0.4559  0.4969
 3620SOL    HW122919   2.251   5.750   9.781  0.8874 -0.7599 -0.5497
 3620SOL    HW222920   2.273   5.908   9.814 -3.0045 -0.7993  2.6551
 3621SOL     OW22921   6.635   1.644   1.862 -0.2696  0.0060  0.1102
 3621SOL    HW122922   6.573   1.645   1.941  0.3577 -0.6193  0.6219
 3621SOL    HW222923   6.582   1.641   1.778 -0.9490 -2.7288  0.5979
 3622SOL     OW22924   8.030   0.906   3.203  0.1475 -0.1518 -0.2130
 3622SOL    HW122925   7.937   0.872   3.189 -0.0105  0.1764  0.0439
 3622SOL    HW222926   8.033   0.965   3.284  0.7020 -0.6475  0.1395
 3623SOL     OW22927   3.876   9.361   6.674 -1.1287 -0.1470  0.2241
 3623SOL    HW122928   3.952   9.297   6.683 -0.6109  0.3087 -0.7925
 3623SOL    HW222929   3.791   9.318   6.704 -0.2711 -0.2374  2.6348
 3624SOL     OW22930   1.128   5.022   3.860  0.1245  0.1397  0.2610
 3624SOL    HW122931   1.208   4.988   3.810 -1.4665 -1.9162 -0.9735
 3624SOL    HW222932   1.142   5.007   3.958  0.6340 -1.6455 -0.0550
 3625SOL     OW22933   6.733   3.717   8.293  0.1625 -0.2593  0.4706
 3625SOL    HW122934   6.663   3.774   8.335 -1.4097 -1.3833 -0.5670
 3625SOL    HW222935   6.820   3.765   8.294 -1.0057  1.9183  0.1441
 3626SOL     OW22936   0.131   0.934   1.372 -0.1661 -0.0588 -0.3708
 3626SOL    HW122937   0.061   0.997   1.339  1.1168  0.2647 -2.6029
 3626SOL    HW222938   0.135   0.853   1.313  0.4776 -0.6572  0.4742
 3627SOL     OW22939   6.352   4.903   2.614 -0.2703  0.1014  0.3848
 3627SOL    HW122940   6.386   4.809   2.618  0.2680  0.3410  1.7113
 3627SOL    HW222941   6.429   4.966   2.603 -0.7062  0.3369 -1.4449
 3628SOL     OW22942   3.117   0.643   6.595  0.8371  0.4557  0.5243
 3628SOL    HW122943   3.019   0.641   6.574  0.4542 -1.9159  2.3582
 3628SOL    HW222944   3.169   0.615   6.514 -0.0215  1.2285 -0.3063
 3629SOL     OW22945   2.165   7.469   4.743 -0.2341 -0.3284  0.3780
 3629SOL    HW122946   2.142   7.373   4.729  0.9620 -0.7657  1.3076
 3629SOL    HW222947   2.231   7.498   4.673 -2.1464  0.4187 -1.1731
 3630SOL     OW22948   1.412   8.626   1.245  0.5824  0.0080 -0.0687
 3630SOL    HW122949   1.414   8.618   1.146 -1.6302  2.8548 -0.4074
 3630SOL    HW222950   1.504   8.617   1.281  1.6329  0.4906 -2.5404
 3631SOL     OW22951   9.931   8.648   5.029  0.2622 -0.0435 -0.0573
 3631SOL    HW122952   9.978   8.568   5.065 -1.1987 -0.4214  1.0528
 3631SOL    HW222953   9.855   8.619   4.971 -1.2259  0.4651  1.5658
 3632SOL     OW22954   2.329   2.121   8.746 -0.0954 -0.1131 -0.4344
 3632SOL    HW122955   2.419   2.083   8.766 -0.1685 -0.0280  0.0798
 3632SOL    HW222956   2.329   2.163   8.656  0.6460  0.7010 -0.0596
 3633SOL     OW22957   3.769   8.501   0.502 -0.8354  0.1055  0.0621
 3633SOL    HW122958   3.748   8.492   0.405  0.4356  0.6252 -0.2669
 3633SOL    HW222959   3.855   8.456   0.522 -1.3958 -0.5392  1.0774
 3634SOL     OW22960   4.501   3.011   0.430 -0.0795 -0.2747  0.6129
 3634SOL    HW122961   4.510   2.969   0.520 -0.5309 -0.9926  0.3259
 3634SOL    HW222962   4.592   3.031   0.393  0.1144 -0.3152  1.0692
 3635SOL     OW22963   1.915   1.721   7.203 -0.2845  0.0310 -0.4689
 3635SOL    HW122964   2.014   1.714   7.188 -0.2305 -1.6433  0.5530
 3635SOL    HW222965   1.867   1.716   7.116  0.5513  1.4663 -1.0336
 3636SOL     OW22966   8.754   1.058   7.306  0.6679 -0.5843 -0.3580
 3636SOL    HW122967   8.697   0.988   7.262 -1.1728  0.8776 -0.3585
 3636SOL    HW222968   8.752   1.045   7.405 -0.6992  0.2071 -0.2707
 3637SOL     OW22969   9.600   0.728   5.355 -0.0135  0.8777  0.5415
 3637SOL    HW122970   9.620   0.814   5.308  1.1778  0.4281  0.2351
 3637SOL    HW222971   9.684   0.690   5.393 -0.5250 -0.2271  0.5698
 3638SOL     OW22972   7.951   2.388   8.250  0.2548 -0.0606  0.2143
 3638SOL    HW122973   7.896   2.387   8.167  0.0063 -0.5783  0.3834
 3638SOL    HW222974   7.900   2.432   8.324  0.4528  0.3458  0.1117
 3639SOL     OW22975   8.870   3.597   1.262 -0.6102  0.3930  0.4222
 3639SOL    HW122976   8.773   3.573   1.270 -0.9176  1.6724  0.7449
 3639SOL    HW222977   8.910   3.602   1.354  0.0747 -1.3488  0.2231
 3640SOL     OW22978   5.155   2.031   6.080 -0.0803 -0.3862 -0.7752
 3640SOL    HW122979   5.199   2.121   6.078 -0.3923 -0.1911  0.4685
 3640SOL    HW222980   5.180   1.979   5.998  0.8304  0.4867 -1.0538
 3641SOL     OW22981   4.137   3.038   8.782 -0.6104  0.4139 -0.1142
 3641SOL    HW122982   4.223   3.063   8.738  0.2048 -0.1522  1.1220
 3641SOL    HW222983   4.152   3.027   8.881 -1.6799 -1.5811 -0.1600
 3642SOL     OW22984   8.125   6.416   7.479 -0.8604  0.2518 -0.0761
 3642SOL    HW122985   8.046   6.477   7.480 -0.8530  0.2455  0.8653
 3642SOL    HW222986   8.165   6.410   7.570  0.8596  1.0659 -0.7520
 3643SOL     OW22987   9.720   3.178   2.617 -0.5943 -0.2291  0.8462
 3643SOL    HW122988   9.721   3.078   2.624 -0.2148 -0.1349  2.1475
 3643SOL    HW222989   9.798   3.216   2.666  0.0717  0.6414 -0.8647
 3644SOL     OW22990   7.327   3.199   8.802 -0.0428 -0.3374  0.1987
 3644SOL    HW122991   7.408   3.149   8.833  0.8732  0.3577 -1.0245
 3644SOL    HW222992   7.316   3.282   8.855 -0.2299 -0.6670  0.6796
 3645SOL     OW22993   8.263   6.727   1.171 -0.3772  0.1290 -0.4744
 3645SOL    HW122994   8.284   6.665   1.096  1.7708  1.5480 -1.0938
 3645SOL    HW222995   8.307   6.694   1.255 -1.9328 -0.9101 -0.0521
 3646SOL     OW22996   0.883   7.016   7.322 -0.7259 -0.3695  0.0006
 3646SOL    HW122997   0.810   6.970   7.272  0.2294  0.6770 -2.4652
 3646SOL    HW222998   0.928   6.952   7.384 -0.7808 -2.2179 -1.8155
 3647SOL     OW22999   2.599   1.891   9.961 -0.0384  0.2639 -0.2675
 3647SOL    HW123000   2.692   1.870   9.930 -0.8401 -1.8262 -1.3957
 3647SOL    HW223001   2.536   1.879   9.884 -1.3556  0.6774  0.7441
 3648SOL     OW23002   0.743   8.112   9.561 -0.5663 -0.3984 -0.7169
 3648SOL    HW123003   0.813   8.060   9.610 -0.5304 -0.0105 -0.3533
 3648SOL    HW223004   0.783   8.149   9.477  0.2791  1.5723  0.5042
 3649SOL     OW23005   5.410   3.919   9.175 -0.3101 -0.2451 -0.1073
 3649SOL    HW123006   5.384   3.894   9.081  0.2922 -0.8733 -0.1144
 3649SOL    HW223007   5.501   3.960   9.174 -0.5262  0.2452  0.1434
 3650SOL     OW23008   4.288   1.501   6.248  0.2112 -0.0460  0.6074
 3650SOL    HW123009   4.282   1.513   6.347  0.4248  2.3573  0.3512
 3650SOL    HW223010   4.203   1.461   6.214  0.0569 -0.6813  1.7084
 3651SOL     OW23011   3.920   0.138   4.239 -0.5798 -0.5286 -0.1590
 3651SOL    HW123012   4.001   0.105   4.189  0.1485  0.8167  0.0822
 3651SOL    HW223013   3.847   0.158   4.173  0.4794  1.5247 -0.7528
 3652SOL     OW23014   1.835   4.932   2.245  0.5597  0.1929 -0.1593
 3652SOL    HW123015   1.835   4.881   2.331  1.4168 -1.0396 -0.8778
 3652SOL    HW223016   1.756   4.993   2.243 -1.1501 -1.9609  0.2081
 3653SOL     OW23017   2.095   4.747   2.323  0.0040 -0.0279  0.0206
 3653SOL    HW123018   2.145   4.660   2.332  1.1505  0.7881  1.7540
 3653SOL    HW223019   1.997   4.729   2.325  0.2238 -1.3527 -0.3687
 3654SOL     OW23020   6.110   2.945   0.725  0.5650  0.0813  0.0479
 3654SOL    HW123021   6.093   3.010   0.799  2.5974 -0.6783  1.2392
 3654SOL    HW223022   6.094   2.990   0.637  0.9560  1.8878  0.8726
 3655SOL     OW23023   4.285   9.175   3.663  0.6656  0.9881  0.2394
 3655SOL    HW123024   4.190   9.191   3.689  0.6079  0.7791  0.1538
 3655SOL    HW223025   4.344   9.238   3.714  0.6581 -0.2682  1.8308
 3656SOL     OW23026   8.607   2.662   1.369  0.7208 -0.0979  0.5628
 3656SOL    HW123027   8.590   2.748   1.416  1.8492 -0.1473  1.0986
 3656SOL    HW223028   8.524   2.632   1.322  0.6599  1.9026 -0.6720
 3657SOL     OW23029   1.027   5.616   4.254  0.3300 -0.1830  0.4425
 3657SOL    HW123030   1.023   5.636   4.156 -2.2060  0.1736  0.5690
 3657SOL    HW223031   0.999   5.697   4.306  2.4380 -0.1214  1.5129
 3658SOL     OW23032   7.815   0.692   0.346  0.6883  0.0182  0.9247
 3658SOL    HW123033   7.887   0.710   0.413  1.0432  0.2121  0.4906
 3658SOL    HW223034   7.764   0.611   0.373  1.8200 -0.8092  0.6114
 3659SOL     OW23035   3.045   1.385   4.377 -0.1975  0.4798 -1.2547
 3659SOL    HW123036   3.061   1.477   4.413 -1.8568 -0.8369  3.1560
 3659SOL    HW223037   2.949   1.375   4.351  0.2810  0.3844 -3.0620
 3660SOL     OW23038   7.872   1.263   0.486 -0.7888 -0.3988 -0.0522
 3660SOL    HW123039   7.913   1.219   0.407 -0.2601 -0.1665  0.0902
 3660SOL    HW223040   7.944   1.305   0.542 -1.2682  0.4941 -0.1018
 3661SOL     OW23041   4.164   2.235   8.685 -0.4451 -0.2175 -0.0821
 3661SOL    HW123042   4.247   2.263   8.637 -0.0212 -0.0394  0.7600
 3661SOL    HW223043   4.088   2.294   8.657  0.3609  1.5865  1.4154
 3662SOL     OW23044   2.915   0.458   1.228  0.5236 -0.3242 -0.1670
 3662SOL    HW123045   2.951   0.536   1.178 -0.3715 -0.4626 -1.0197
 3662SOL    HW223046   2.924   0.475   1.327 -0.9146  1.4419 -0.3196
 3663SOL     OW23047   7.200   0.483   2.607  0.2080 -0.3874 -0.2330
 3663SOL    HW123048   7.296   0.494   2.580  0.0230  0.3909 -0.6044
 3663SOL    HW223049   7.194   0.461   2.704  0.8647 -2.7165 -0.6845
 3664SOL     OW23050   7.234   4.398   9.108 -0.3715 -0.4290 -0.0344
 3664SOL    HW123051   7.220   4.488   9.066  1.2552  0.6192  1.6291
 3664SOL    HW223052   7.322   4.395   9.154 -0.2811 -2.9887 -0.2647
 3665SOL     OW23053   2.774   5.051   9.235 -0.1093 -0.2917  0.2641
 3665SOL    HW123054   2.728   5.043   9.147 -2.8474 -1.3768  1.7299
 3665SOL    HW223055   2.836   5.129   9.233  0.9450 -1.1106 -3.0415
 3666SOL     OW23056   7.625   5.304   9.269  0.3435 -0.0604 -0.4551
 3666SOL    HW123057   7.536   5.259   9.266 -0.0024  0.5737  0.0795
 3666SOL    HW223058   7.650   5.321   9.364  0.8128  0.1983 -0.6228
 3667SOL     OW23059   4.074   6.935   2.018 -0.5508  0.4414  1.1330
 3667SOL    HW123060   3.998   6.904   1.960  1.3936 -1.0090 -0.6945
 3667SOL    HW223061   4.121   7.011   1.972  0.3334  0.0115  1.3322
 3668SOL     OW23062   9.162   9.357   5.825  0.2758 -0.3693 -0.7179
 3668SOL    HW123063   9.181   9.275   5.771  1.5401 -0.2711 -0.4295
 3668SOL    HW223064   9.110   9.332   5.907  0.5838 -0.8812 -0.6734
 3669SOL     OW23065   3.277   9.690   4.332  0.5630 -0.4345  0.1798
 3669SOL    HW123066   3.212   9.625   4.292 -0.3039  0.1238  0.6533
 3669SOL    HW223067   3.318   9.650   4.414  1.6134 -1.2008 -0.7099
 3670SOL     OW23068   3.397   9.554   2.837 -0.5894 -0.0014  0.3982
 3670SOL    HW123069   3.411   9.466   2.883 -2.4509  0.0228  1.0447
 3670SOL    HW223070   3.316   9.549   2.779 -0.2790  1.0703 -0.1391
 3671SOL     OW23071   7.499   7.827   8.536 -0.1065  0.3916  0.5581
 3671SOL    HW123072   7.439   7.753   8.506 -0.2632  0.5489  0.4809
 3671SOL    HW223073   7.586   7.821   8.487 -0.2077  0.4011  0.3753
 3672SOL     OW23074   8.437   6.911   5.172 -0.8565  0.2437 -0.0593
 3672SOL    HW123075   8.455   6.863   5.258 -0.7914 -0.8603 -0.6701
 3672SOL    HW223076   8.356   6.968   5.182  0.2935  1.6965  1.3348
 3673SOL     OW23077   3.677   2.994  10.058  0.2451 -0.3654 -0.5151
 3673SOL    HW123078   3.614   2.993   9.981  0.5057  1.5207 -0.7748
 3673SOL    HW223079   3.652   2.921  10.122 -0.7337 -1.1509 -1.7550
 3674SOL     OW23080   0.034   5.235   1.898  0.0819 -0.3487 -0.0437
 3674SOL    HW123081   0.090   5.314   1.924  0.3269 -0.1374 -1.1893
 3674SOL    HW223082   0.091   5.153   1.894  0.4593 -0.0025 -1.9024
 3675SOL     OW23083   0.343   0.561   5.101  0.4642 -0.3307 -0.1646
 3675SOL    HW123084   0.309   0.541   5.193 -0.8596 -2.0213 -1.0057
 3675SOL    HW223085   0.268   0.598   5.046  1.0206 -0.2072 -0.8373
 3676SOL     OW23086   9.784   7.318   3.248 -0.2992  0.0965  0.6320
 3676SOL    HW123087   9.813   7.290   3.156 -1.2927  0.3049  0.2509
 3676SOL    HW223088   9.686   7.339   3.247 -0.6199 -1.1970  2.0403
 3677SOL     OW23089   8.059   7.197   0.873  0.0621  0.4782  0.3452
 3677SOL    HW123090   8.017   7.223   0.960 -0.8637  2.8925 -0.7726
 3677SOL    HW223091   8.158   7.187   0.886  0.0553  1.7351  1.4897
 3678SOL     OW23092   3.830   2.149   8.784  0.3562 -0.2525  0.4351
 3678SOL    HW123093   3.776   2.171   8.865 -0.3742  0.3023 -0.1993
 3678SOL    HW223094   3.856   2.233   8.737  1.1155 -0.5528  0.3032
 3679SOL     OW23095   6.788   2.510   5.303  0.2030 -0.3026 -0.2063
 3679SOL    HW123096   6.747   2.418   5.301 -1.4642  0.3455  2.0614
 3679SOL    HW223097   6.719   2.577   5.277  1.0260  0.4598 -0.4445
 3680SOL     OW23098   8.306   8.069   3.705 -0.0202 -0.0014  0.0699
 3680SOL    HW123099   8.368   8.044   3.630 -0.8188 -1.2910 -0.1758
 3680SOL    HW223100   8.224   8.112   3.667  1.1171  2.6215  0.4572
 3681SOL     OW23101   3.687   3.571   2.057 -0.2894  0.3671 -0.2727
 3681SOL    HW123102   3.746   3.495   2.031 -1.3223 -0.0679 -1.4163
 3681SOL    HW223103   3.672   3.570   2.156 -1.3349 -1.7126 -0.4224
 3682SOL     OW23104   8.727   6.148   8.189  0.0656 -0.3871  0.4785
 3682SOL    HW123105   8.825   6.134   8.197  0.2757  1.1252  0.6315
 3682SOL    HW223106   8.708   6.215   8.117 -0.9045 -1.2252 -0.0691
 3683SOL     OW23107   3.699   7.648   5.815 -0.4352  0.2042  0.1203
 3683SOL    HW123108   3.741   7.565   5.780  0.2617  0.7995 -0.4643
 3683SOL    HW223109   3.688   7.641   5.914 -1.2633 -0.9698 -0.0375
 3684SOL     OW23110   4.021   3.052   0.345  0.0881 -0.2287 -0.0007
 3684SOL    HW123111   4.020   3.036   0.247  0.5754 -0.4631  0.0298
 3684SOL    HW223112   3.940   3.104   0.372 -0.2176 -0.4644 -0.4730
 3685SOL     OW23113   9.056   3.438   7.959 -0.1799  0.0886 -0.2911
 3685SOL    HW123114   8.958   3.455   7.947 -0.1074 -0.1444 -1.2855
 3685SOL    HW223115   9.089   3.488   8.039 -0.7041  1.7841 -1.1025
 3686SOL     OW23116   9.579   6.335   2.305  0.2302 -0.4764 -0.2640
 3686SOL    HW123117   9.605   6.240   2.285  0.0430 -0.2374 -1.7416
 3686SOL    HW223118   9.661   6.391   2.311  0.3048 -0.6033 -0.1038
 3687SOL     OW23119   9.721   6.302   2.709  0.0323  0.6155 -0.0813
 3687SOL    HW123120   9.692   6.208   2.725 -1.4309  1.2030  0.9033
 3687SOL    HW223121   9.642   6.357   2.682  0.6277  1.8131  0.5406
 3688SOL     OW23122   2.249   5.743   2.434 -0.1200  0.2525 -0.0085
 3688SOL    HW123123   2.342   5.745   2.470 -0.7202 -0.0676  1.5901
 3688SOL    HW223124   2.197   5.670   2.479 -1.2914  0.7355 -0.5533
 3689SOL     OW23125   8.604   7.775   1.136 -0.1356 -0.0667  0.1251
 3689SOL    HW123126   8.568   7.868   1.125  1.6222  0.8427  1.6336
 3689SOL    HW223127   8.533   7.709   1.116 -1.9038  1.6305  0.6300
 3690SOL     OW23128   1.356   2.587   3.729 -0.1059  0.2586 -0.5635
 3690SOL    HW123129   1.290   2.662   3.739  0.8926  1.2041 -1.0028
 3690SOL    HW223130   1.417   2.585   3.808 -0.4905 -0.4623 -0.2774
 3691SOL     OW23131   9.716   9.665   6.241 -0.2192  0.2646 -0.6400
 3691SOL    HW123132   9.632   9.636   6.286  0.8573 -1.5341  0.2617
 3691SOL    HW223133   9.753   9.588   6.188  0.8426  1.0490 -1.0404
 3692SOL     OW23134   9.651   7.893   5.275 -0.2772  0.5103 -0.2029
 3692SOL    HW123135   9.595   7.811   5.265  1.9641 -0.9624 -1.0474
 3692SOL    HW223136   9.727   7.875   5.337  0.2796  1.9225 -0.4460
 3693SOL     OW23137   4.087   8.279   3.340 -0.1941  0.1507 -0.1324
 3693SOL    HW123138   4.125   8.280   3.248  1.3675 -0.7748  0.4812
 3693SOL    HW223139   4.014   8.211   3.346 -1.1454  1.0788 -0.9975
 3694SOL     OW23140   2.255   7.993   6.955 -1.1444  0.3730  0.1600
 3694SOL    HW123141   2.220   8.003   7.048 -0.7651 -0.1529  0.3604
 3694SOL    HW223142   2.354   7.985   6.957 -1.1639  0.0023 -0.2626
 3695SOL     OW23143   9.045   0.909   8.495 -0.2568 -0.0604 -0.2008
 3695SOL    HW123144   9.131   0.859   8.480 -0.6643 -0.1826 -2.2264
 3695SOL    HW223145   8.973   0.867   8.441 -0.8507  2.0827 -1.1066
 3696SOL     OW23146   3.442   9.091   9.040 -0.2526 -0.1733 -0.0962
 3696SOL    HW123147   3.402   9.157   9.104 -1.1804 -1.2576  0.4636
 3696SOL    HW223148   3.435   8.999   9.079 -0.4119 -0.7967 -1.5652
 3697SOL     OW23149   4.018   1.517   7.495  0.5149 -0.7451  0.3413
 3697SOL    HW123150   4.054   1.425   7.508 -1.9916 -1.9312 -0.8715
 3697SOL    HW223151   4.067   1.563   7.421  1.0938 -1.4755  0.2785
 3698SOL     OW23152   5.613   2.428   8.349  0.0652 -0.0675 -0.4519
 3698SOL    HW123153   5.682   2.468   8.289  1.4239 -0.4580  0.8004
 3698SOL    HW223154   5.526   2.474   8.336  0.8549  1.2408 -1.2038
 3699SOL     OW23155   9.070   5.646   8.635 -0.2894 -0.2886 -0.4075
 3699SOL    HW123156   9.075   5.694   8.548  1.7493  0.3884  0.0648
 3699SOL    HW223157   9.075   5.713   8.710  3.1440 -1.1905  0.2618
 3700SOL     OW23158   9.806   4.092   9.521 -0.0305  0.4133  0.4025
 3700SOL    HW123159   9.763   4.120   9.435 -0.1619 -1.5585 -0.1992
 3700SOL    HW223160   9.904   4.079   9.507 -0.0082  0.3629  0.6065
 3701SOL     OW23161   7.451   5.867   6.234  0.4811 -0.1623 -0.4913
 3701SOL    HW123162   7.411   5.939   6.291  0.8849 -0.2802 -0.0519
 3701SOL    HW223163   7.496   5.799   6.293 -0.3602 -1.0562 -0.8826
 3702SOL     OW23164   3.580   4.311   4.696  0.0067 -0.7655  0.5161
 3702SOL    HW123165   3.677   4.321   4.674 -0.4493  1.5631 -0.5073
 3702SOL    HW223166   3.545   4.228   4.652  1.1375 -0.7413 -0.4782
 3703SOL     OW23167   0.906   5.972   7.280 -0.2490  0.1799 -0.3637
 3703SOL    HW123168   0.966   6.025   7.339  0.9133  0.3366 -1.6519
 3703SOL    HW223169   0.923   5.997   7.185 -0.4854 -1.6707 -0.9072
 3704SOL     OW23170   4.022   7.371   4.184 -0.3566 -0.0351  0.2777
 3704SOL    HW123171   4.114   7.361   4.146 -1.2713 -3.3655 -1.2389
 3704SOL    HW223172   4.020   7.339   4.279 -0.1498 -0.9764 -0.0286
 3705SOL     OW23173   6.478   0.495   4.176  0.1417 -0.0956 -0.4826
 3705SOL    HW123174   6.379   0.489   4.184  0.3221 -0.1419  2.0224
 3705SOL    HW223175   6.505   0.588   4.152 -0.4490  0.1663 -0.1179
 3706SOL     OW23176   0.932   4.068   2.999  0.1452 -0.3680 -0.1110
 3706SOL    HW123177   1.007   4.074   3.065  0.0626 -0.5773  0.0030
 3706SOL    HW223178   0.856   4.127   3.028  0.5576  0.4207 -0.6143
 3707SOL     OW23179   2.352   8.358   4.879  0.3504 -0.1504  0.2639
 3707SOL    HW123180   2.443   8.379   4.914  0.1976 -0.4332  0.8380
 3707SOL    HW223181   2.360   8.301   4.798  0.6690 -0.5827  0.6006
 3708SOL     OW23182   8.999   2.385   7.494 -0.0259 -0.3885  0.5439
 3708SOL    HW123183   9.093   2.366   7.523  0.1533 -0.7116 -0.2446
 3708SOL    HW223184   8.937   2.372   7.572  0.4943 -0.9230  0.8703
 3709SOL     OW23185   0.807   8.264   8.311  0.2169 -0.0484  0.8442
 3709SOL    HW123186   0.905   8.282   8.317  0.4147 -0.6262 -0.5031
 3709SOL    HW223187   0.783   8.246   8.216 -1.0834 -0.5898  1.2755
 3710SOL     OW23188   0.056   1.582   2.574  0.6950  0.3635  0.2685
 3710SOL    HW123189   0.068   1.674   2.537 -2.7160  0.4099 -0.9114
 3710SOL    HW223190   0.002   1.586   2.658  0.0221 -0.5987 -0.1042
 3711SOL     OW23191   6.908   0.337   3.718 -0.0926  0.1163 -0.1363
 3711SOL    HW123192   6.903   0.431   3.750 -4.1408 -0.3186  0.8789
 3711SOL    HW223193   6.885   0.334   3.621 -0.9549  0.1213  0.0580
 3712SOL     OW23194   1.372   0.189   3.499  0.3401  0.1159  0.0288
 3712SOL    HW123195   1.372   0.253   3.423 -1.5470  1.7798  1.3673
 3712SOL    HW223196   1.394   0.238   3.584  1.4241 -1.5047  0.7008
 3713SOL     OW23197   1.735   9.436   3.310 -0.1520 -0.3041  0.2289
 3713SOL    HW123198   1.656   9.401   3.360 -0.7706  0.6157 -0.1078
 3713SOL    HW223199   1.805   9.466   3.376 -1.5847  2.3498  0.6171
 3714SOL     OW23200   6.682   1.745   4.547  0.2781 -0.2475  0.1378
 3714SOL    HW123201   6.773   1.787   4.549 -0.4964  1.5892 -1.4243
 3714SOL    HW223202   6.683   1.664   4.489  0.7043  0.3527 -0.7058
 3715SOL     OW23203   9.823   2.392   2.954 -0.2294  0.1547  0.1689
 3715SOL    HW123204   9.732   2.434   2.947 -0.2318  0.0415 -0.4677
 3715SOL    HW223205   9.845   2.378   3.051 -0.8034  0.3720  0.3354
 3716SOL     OW23206   8.443   7.372   0.715  0.3710 -0.0659 -0.0970
 3716SOL    HW123207   8.402   7.310   0.782  0.6861  0.0418  0.1989
 3716SOL    HW223208   8.542   7.373   0.727  0.6800 -1.7813 -2.0316
 3717SOL     OW23209   3.121   4.296   1.005 -0.5535 -0.1616  0.2632
 3717SOL    HW123210   3.203   4.241   1.020  0.2355  1.6016  2.9630
 3717SOL    HW223211   3.041   4.237   0.999  0.2667 -1.6480  2.9906
 3718SOL     OW23212   1.660   8.120   7.345 -0.3262 -0.1100  0.0063
 3718SOL    HW123213   1.574   8.163   7.371  0.1645  0.7489  0.2632
 3718SOL    HW223214   1.678   8.139   7.248  1.0611  2.3804  0.6963
 3719SOL     OW23215   1.801   6.548   1.562 -0.3860 -0.4694  0.0477
 3719SOL    HW123216   1.764   6.629   1.607 -1.3803 -0.7989 -0.1609
 3719SOL    HW223217   1.777   6.550   1.465  0.7967 -0.3142 -0.2436
 3720SOL     OW23218   3.336   7.433   0.234  0.3112 -0.2546 -0.3422
 3720SOL    HW123219   3.429   7.456   0.203  0.0412 -0.3324 -1.2292
 3720SOL    HW223220   3.332   7.336   0.256  0.7603 -0.0056  0.8794
 3721SOL     OW23221   2.562   8.119   5.184  0.2195  0.1257  0.8427
 3721SOL    HW123222   2.520   8.038   5.225  0.0088  0.6248  1.6254
 3721SOL    HW223223   2.504   8.199   5.201 -0.2954  0.2140 -1.1533
 3722SOL     OW23224   2.494   7.765   3.952  0.6362 -0.1528 -0.2657
 3722SOL    HW123225   2.570   7.774   3.887 -0.0515 -1.7080 -1.3149
 3722SOL    HW223226   2.415   7.816   3.918 -0.2337 -2.2717 -1.4698
 3723SOL     OW23227   4.689   9.709   7.806  0.5381 -0.3539  0.2062
 3723SOL    HW123228   4.603   9.661   7.827  0.5919 -1.2310 -1.4741
 3723SOL    HW223229   4.677   9.807   7.821 -1.4697 -0.1836 -2.0945
 3724SOL     OW23230   9.277   5.326   6.836 -0.1289  0.0857  0.3076
 3724SOL    HW123231   9.320   5.394   6.778  0.9675 -0.1230  0.8702
 3724SOL    HW223232   9.259   5.243   6.783 -0.8498  0.5706 -0.2041
 3725SOL     OW23233   9.292   6.109   3.255  0.3883  0.3724  0.4389
 3725SOL    HW123234   9.370   6.049   3.239  1.5120  1.6727  0.9677
 3725SOL    HW223235   9.319   6.204   3.238 -0.3636  1.0820  3.0689
 3726SOL     OW23236   0.527   6.142   9.632  0.1477  0.0723  0.1191
 3726SOL    HW123237   0.472   6.142   9.716 -1.7762 -1.2796 -1.1144
 3726SOL    HW223238   0.624   6.134   9.656 -0.0302  3.6070  2.3820
 3727SOL     OW23239   3.324   5.211   1.896  0.1696 -0.5020 -0.7655
 3727SOL    HW123240   3.324   5.210   1.796  0.3493  2.0188 -0.8209
 3727SOL    HW223241   3.267   5.286   1.929  1.1381 -0.5138  1.0011
 3728SOL     OW23242   7.933   1.786   8.457  0.3228 -0.5208  0.5371
 3728SOL    HW123243   7.990   1.785   8.540  2.3574 -2.2684 -0.8309
 3728SOL    HW223244   7.841   1.755   8.480  1.4117 -2.9861  1.8342
 3729SOL     OW23245   1.782   4.414   3.278  0.1165 -0.3183 -1.0176
 3729SOL    HW123246   1.763   4.366   3.364  0.1403 -0.7942 -1.2730
 3729SOL    HW223247   1.706   4.399   3.215 -0.3432  0.8279 -0.7432
 3730SOL     OW23248   7.217   1.962   0.177 -0.2140  0.0930 -0.2264
 3730SOL    HW123249   7.283   1.971   0.103  0.0265 -0.8967 -0.1422
 3730SOL    HW223250   7.199   1.865   0.193 -1.4857  0.3453 -0.0755
 3731SOL     OW23251   5.596   9.697   5.824 -0.1106  0.3425 -0.7661
 3731SOL    HW123252   5.530   9.746   5.881  0.2756  0.8298 -0.7380
 3731SOL    HW223253   5.624   9.755   5.748 -1.8758 -0.9021 -2.3988
 3732SOL     OW23254   8.553   9.023   7.112 -0.1175  0.1940 -0.3854
 3732SOL    HW123255   8.480   8.955   7.109 -0.6523  0.8327 -2.0122
 3732SOL    HW223256   8.558   9.062   7.204 -1.0215 -0.7168  0.0543
 3733SOL     OW23257   8.642   5.882   9.252  0.0425  0.1494 -0.4701
 3733SOL    HW123258   8.680   5.918   9.167 -1.8150 -0.4244 -1.5617
 3733SOL    HW223259   8.546   5.858   9.239 -0.5395  0.9175  2.0455
 3734SOL     OW23260   0.114   7.379   5.131 -0.6714  0.4575  0.0586
 3734SOL    HW123261   0.202   7.370   5.084 -0.2654  1.2563  0.6614
 3734SOL    HW223262   0.113   7.463   5.184 -2.5595  1.5081 -1.5715
 3735SOL     OW23263   3.823   4.941   1.247 -0.8708  0.0521 -0.2806
 3735SOL    HW123264   3.843   5.030   1.287  0.2922 -0.3335  0.0087
 3735SOL    HW223265   3.880   4.926   1.167  0.5758 -1.3730  0.9917
 3736SOL     OW23266   0.022   9.266   1.092 -0.0291 -0.0788 -0.4431
 3736SOL    HW123267  -0.029   9.322   1.026  0.1665  0.9210  0.2469
 3736SOL    HW223268   0.011   9.169   1.068 -0.4015  0.2396 -1.6260
 3737SOL     OW23269   9.027   6.779   4.158 -0.5692 -0.0469  0.4420
 3737SOL    HW123270   9.059   6.813   4.246  0.7392 -1.3069  0.4745
 3737SOL    HW223271   9.077   6.695   4.134 -4.8136 -2.8901  1.1263
 3738SOL     OW23272   0.288   4.304   3.203  0.2740  0.0397  0.1956
 3738SOL    HW123273   0.365   4.252   3.240  0.1652  0.0735  0.4725
 3738SOL    HW223274   0.303   4.401   3.221 -0.7626 -0.1054  2.0009
 3739SOL     OW23275   6.512   1.580   0.883 -0.0386  0.7856 -0.2255
 3739SOL    HW123276   6.571   1.637   0.941  0.6548  1.7933 -1.8887
 3739SOL    HW223277   6.512   1.615   0.790 -2.0754 -0.1295 -0.6073
 3740SOL     OW23278   0.571   9.747   0.437 -0.3510  1.0735 -0.1516
 3740SOL    HW123279   0.518   9.786   0.512 -0.1862  1.1038 -0.0507
 3740SOL    HW223280   0.659   9.794   0.429  0.3288 -0.0262  0.7050
 3741SOL     OW23281   1.275   6.578   7.246 -0.0794  0.2028  0.1199
 3741SOL    HW123282   1.358   6.623   7.213 -0.1101  1.8753  2.2042
 3741SOL    HW223283   1.198   6.641   7.239 -0.8039 -0.7017 -0.0949
 3742SOL     OW23284   7.286   9.110   2.349  0.4117 -0.0626  0.1732
 3742SOL    HW123285   7.315   9.196   2.308  0.5526 -0.0822  0.2316
 3742SOL    HW223286   7.294   9.116   2.449  0.3793 -0.1274  0.1801
 3743SOL     OW23287   3.274   7.651   8.314 -0.4807 -0.4084 -0.5988
 3743SOL    HW123288   3.291   7.661   8.216  0.1008 -0.9189 -0.5519
 3743SOL    HW223289   3.302   7.560   8.344  1.3853  0.4883  0.4598
 3744SOL     OW23290   1.478   2.432   4.236 -0.5005 -0.4232 -0.0804
 3744SOL    HW123291   1.464   2.418   4.334  1.4293 -3.7486 -0.1956
 3744SOL    HW223292   1.544   2.506   4.222 -1.7522  0.9350  1.0722
 3745SOL     OW23293   0.362   0.599   7.656 -0.1527  0.1345  0.1298
 3745SOL    HW123294   0.397   0.508   7.682  0.0521 -0.3957 -1.9001
 3745SOL    HW223295   0.264   0.603   7.675  0.1000  0.0185  1.5746
 3746SOL     OW23296   5.465   8.517   2.468  0.6530 -0.1150 -0.0431
 3746SOL    HW123297   5.447   8.469   2.554  0.3351 -0.4776 -0.3079
 3746SOL    HW223298   5.549   8.482   2.427  0.8285  0.0903  0.1413
 3747SOL     OW23299   5.506   0.989   4.211  0.1019  0.1993 -0.1170
 3747SOL    HW123300   5.463   0.902   4.188  1.1492 -0.0372 -1.2437
 3747SOL    HW223301   5.463   1.063   4.159  0.7700  0.0198 -0.9341
 3748SOL     OW23302   6.272   9.199   7.985  0.0591  0.5222  0.3409
 3748SOL    HW123303   6.316   9.288   7.995  0.1767  0.6271 -0.9476
 3748SOL    HW223304   6.243   9.165   8.074  0.6732  1.5141  0.9234
 3749SOL     OW23305   3.755   3.402   6.699  0.1561 -0.0129 -0.7088
 3749SOL    HW123306   3.734   3.499   6.690  1.9300  0.5427  0.7665
 3749SOL    HW223307   3.699   3.349   6.635  0.6341  2.1543 -2.9933
 3750SOL     OW23308   7.153   3.158   8.368 -0.2550  0.2499 -0.0287
 3750SOL    HW123309   7.071   3.142   8.314 -0.4634  1.6661 -0.1508
 3750SOL    HW223310   7.148   3.106   8.453 -0.6252 -0.7709 -0.6665
 3751SOL     OW23311   5.684   4.300   0.342  0.1182  0.1449 -0.4537
 3751SOL    HW123312   5.670   4.210   0.384  0.5433  0.3630  0.1668
 3751SOL    HW223313   5.681   4.371   0.413 -1.9187  0.7957 -1.1714
 3752SOL     OW23314   2.051   5.355   4.920 -0.1722 -0.3913  0.1512
 3752SOL    HW123315   1.996   5.292   4.865  0.7381 -2.1183  1.1848
 3752SOL    HW223316   2.001   5.440   4.933 -1.1423 -0.6411 -1.8426
 3753SOL     OW23317   3.094   9.219   0.676 -0.2704 -0.4532 -0.5283
 3753SOL    HW123318   3.183   9.235   0.634  0.3138 -2.8378 -0.2173
 3753SOL    HW223319   3.106   9.194   0.772 -1.3856  0.7514 -0.0467
 3754SOL     OW23320   9.913   0.987   0.928 -0.8683  0.3253 -0.1805
 3754SOL    HW123321   9.946   1.074   0.965 -3.2410  0.1059  2.5706
 3754SOL    HW223322   9.817   0.996   0.901 -0.9631 -1.2728 -0.4405
 3755SOL     OW23323   9.571   2.250   0.983  0.3754  1.1770 -0.4524
 3755SOL    HW123324   9.670   2.257   0.971  0.3892  2.7471  0.4034
 3755SOL    HW223325   9.547   2.271   1.078 -0.6615 -0.5693 -0.3039
 3756SOL     OW23326   3.596   8.207   2.493  0.1032 -0.3695 -0.9844
 3756SOL    HW123327   3.693   8.186   2.507  0.1873  0.1394 -0.7978
 3756SOL    HW223328   3.547   8.198   2.580 -0.2932 -2.0588 -1.3618
 3757SOL     OW23329   5.316   0.366   3.569  0.1582 -0.2002  0.1833
 3757SOL    HW123330   5.328   0.273   3.533  0.2090 -0.0910 -0.0778
 3757SOL    HW223331   5.221   0.379   3.597  0.1304 -0.2997  0.1361
 3758SOL     OW23332   2.050   9.341   0.182 -0.1608 -0.5295 -0.5947
 3758SOL    HW123333   2.146   9.357   0.156 -0.1185 -0.1819 -0.2435
 3758SOL    HW223334   2.038   9.245   0.206  0.5363 -0.2321  1.0876
 3759SOL     OW23335   0.799   8.200   3.267  0.0486 -0.1602  0.0064
 3759SOL    HW123336   0.802   8.102   3.251  0.0271 -0.1545 -0.0298
 3759SOL    HW223337   0.871   8.226   3.331  0.6759 -0.0538 -0.7392
 3760SOL     OW23338   0.575   2.570   0.148 -0.6102 -0.1754  0.2788
 3760SOL    HW123339   0.656   2.524   0.111 -1.1054 -0.9349  0.1112
 3760SOL    HW223340   0.542   2.638   0.082 -0.0826  0.1685  0.3691
 3761SOL     OW23341   0.738   2.177   6.162 -0.4858  0.1167 -0.0905
 3761SOL    HW123342   0.699   2.235   6.091 -0.4347 -1.5798 -1.5390
 3761SOL    HW223343   0.837   2.173   6.151 -0.3860  0.5217  0.6085
 3762SOL     OW23344   2.884   4.834   1.396 -0.5357  0.2916  0.2797
 3762SOL    HW123345   2.963   4.796   1.348 -1.4811 -0.4540 -0.7052
 3762SOL    HW223346   2.814   4.861   1.330 -0.1694  3.1879  0.9844
 3763SOL     OW23347   4.797   9.743   5.149 -0.3864 -0.0323  0.5547
 3763SOL    HW123348   4.724   9.805   5.179  0.3884  0.7938  0.7602
 3763SOL    HW223349   4.834   9.774   5.062  1.5314  1.1251  1.7337
 3764SOL     OW23350   0.200   8.023   7.137  0.3128  0.0599 -0.1097
 3764SOL    HW123351   0.155   8.048   7.223  0.6020 -1.4361  0.4945
 3764SOL    HW223352   0.293   8.057   7.136  1.0580 -1.8629  1.1722
 3765SOL     OW23353   7.353   6.663   6.646  0.1496  0.3005 -0.0780
 3765SOL    HW123354   7.394   6.684   6.557  1.5431  0.5009  0.5992
 3765SOL    HW223355   7.261   6.702   6.650  1.8219  4.4682  0.3102
 3766SOL     OW23356   0.624   8.254   3.063  0.4498  0.1810 -0.5320
 3766SOL    HW123357   0.692   8.227   3.131 -1.3775 -0.5698  1.0487
 3766SOL    HW223358   0.592   8.347   3.081  1.4191  0.7330 -1.5911
 3767SOL     OW23359   5.536   4.944   0.494 -0.6746 -0.2420 -0.0144
 3767SOL    HW123360   5.595   4.869   0.526  0.7112  0.5006 -0.7737
 3767SOL    HW223361   5.488   4.914   0.412  0.1875 -0.1747 -0.5530
 3768SOL     OW23362   9.365   8.061   2.943  0.0178 -0.0930 -0.2221
 3768SOL    HW123363   9.417   8.050   3.028  0.9195  0.9743 -0.6144
 3768SOL    HW223364   9.305   8.140   2.952  1.3003  1.0188 -1.1287
 3769SOL     OW23365   2.264   9.344   8.100 -0.1558  0.9658 -0.4842
 3769SOL    HW123366   2.198   9.326   8.026 -1.1040 -0.8057  0.7455
 3769SOL    HW223367   2.218   9.337   8.188  1.3053  1.5308  0.3377
 3770SOL     OW23368   9.748   3.667   5.575 -0.3095 -0.4422 -0.2947
 3770SOL    HW123369   9.693   3.614   5.511 -0.3354  0.1928 -0.8047
 3770SOL    HW223370   9.841   3.676   5.540  0.0279 -1.2282  0.4055
 3771SOL     OW23371   3.069   4.533   9.931 -0.1855 -0.0322 -0.3825
 3771SOL    HW123372   3.032   4.495  10.015  0.4381 -2.3706 -1.1175
 3771SOL    HW223373   3.013   4.504   9.853  0.5589  0.1962 -1.0154
 3772SOL     OW23374   2.562   7.559   8.269  0.0350 -0.2977  0.1997
 3772SOL    HW123375   2.582   7.657   8.263  0.3659 -0.3663  0.1207
 3772SOL    HW223376   2.630   7.509   8.215 -0.2251 -0.5595  0.1174
 3773SOL     OW23377   4.130   9.862   9.205  0.2340  0.1328 -0.4445
 3773SOL    HW123378   4.098   9.792   9.143 -2.1884  0.4985  0.3340
 3773SOL    HW223379   4.148   9.947   9.154 -1.0366  0.2192 -0.7632
 3774SOL     OW23380   0.443   9.145   1.532 -0.9122 -0.4583 -0.4281
 3774SOL    HW123381   0.506   9.136   1.455 -0.6964  2.1227 -0.6047
 3774SOL    HW223382   0.376   9.216   1.512 -0.2664  0.9240  2.1389
 3775SOL     OW23383   9.632   2.854   4.200 -0.0321  1.0948 -0.2511
 3775SOL    HW123384   9.591   2.904   4.277 -0.6844  1.5076 -0.8588
 3775SOL    HW223385   9.617   2.756   4.212  0.4697  1.1051  0.4956
 3776SOL     OW23386   7.768   1.254   3.863  1.0184  0.5242 -0.4665
 3776SOL    HW123387   7.724   1.210   3.785 -0.1703 -0.3985  0.6836
 3776SOL    HW223388   7.841   1.196   3.899 -1.8744 -1.5926  2.3048
 3777SOL     OW23389   1.811   8.084   9.047 -0.3646  0.8103  0.4487
 3777SOL    HW123390   1.889   8.111   9.104  0.6217 -0.6643 -0.1626
 3777SOL    HW223391   1.825   8.117   8.954  0.0097 -0.2974  0.1084
 3778SOL     OW23392   2.313   9.233   1.923 -0.0516  0.6083 -0.0163
 3778SOL    HW123393   2.257   9.296   1.870 -2.2526 -1.8187 -0.6690
 3778SOL    HW223394   2.332   9.150   1.869 -0.2996 -0.8702  2.0923
 3779SOL     OW23395   4.104   9.754   1.953 -0.4854 -0.2612  0.3886
 3779SOL    HW123396   4.086   9.660   1.924 -1.7693 -0.3472  1.4140
 3779SOL    HW223397   4.068   9.768   2.045 -0.1398  1.1891  0.3166
 3780SOL     OW23398   1.189   0.937  10.072  0.6306 -0.0609  0.3406
 3780SOL    HW123399   1.232   0.866  10.127 -1.6427 -2.6269 -1.0619
 3780SOL    HW223400   1.095   0.911  10.052 -0.0018  3.0009 -0.8945
 3781SOL     OW23401   7.959   8.403   7.667  0.1282 -0.0930  0.0236
 3781SOL    HW123402   8.058   8.413   7.657  0.2806  1.3693  2.6339
 3781SOL    HW223403   7.939   8.314   7.708  0.3846 -0.2025 -0.0837
 3782SOL     OW23404   6.824   3.962   2.518  0.2707 -0.5036  0.1541
 3782SOL    HW123405   6.820   4.058   2.489 -0.3863 -0.1470  1.3850
 3782SOL    HW223406   6.796   3.904   2.442  0.1609  0.3130 -0.4460
 3783SOL     OW23407   5.471   2.093   7.267  0.3974  0.1707 -0.0250
 3783SOL    HW123408   5.556   2.049   7.238  2.1453  2.3069  1.6409
 3783SOL    HW223409   5.456   2.076   7.364 -0.0912  1.3088  0.1106
 3784SOL     OW23410   4.407   8.089   1.281 -0.2128  0.2090 -0.2549
 3784SOL    HW123411   4.443   8.177   1.250  0.4745 -0.4286 -1.2729
 3784SOL    HW223412   4.456   8.061   1.364 -0.1414  0.5829 -0.1691
 3785SOL     OW23413   1.821   5.754   8.312 -0.0105  0.4143 -0.2662
 3785SOL    HW123414   1.815   5.715   8.220 -1.9513 -2.3607  0.9573
 3785SOL    HW223415   1.738   5.808   8.331  0.7194  1.5965 -0.3859
 3786SOL     OW23416   5.150   5.605   1.430 -0.5646 -0.4911  0.2286
 3786SOL    HW123417   5.171   5.631   1.335 -0.5413 -1.3341 -0.0007
 3786SOL    HW223418   5.202   5.664   1.492  0.2558 -0.6402 -0.3009
 3787SOL     OW23419   2.001   9.671   1.770 -0.2354  0.8790  0.4648
 3787SOL    HW123420   2.029   9.628   1.856  0.4474  0.5082  0.0589
 3787SOL    HW223421   1.902   9.680   1.768 -0.1622  2.1517  1.8925
 3788SOL     OW23422   7.725   7.489   7.065  0.3368 -0.2195 -0.0271
 3788SOL    HW123423   7.691   7.430   7.139  2.1202  1.2493  2.0620
 3788SOL    HW223424   7.742   7.581   7.102  1.7148  0.4138 -2.1863
 3789SOL     OW23425   9.335   7.493   1.620  0.5661  0.3563 -0.0349
 3789SOL    HW123426   9.355   7.483   1.522 -1.5347  2.1974 -0.6949
 3789SOL    HW223427   9.387   7.570   1.657  0.3454  0.4840  0.0056
 3790SOL     OW23428   8.296   1.341   2.515  0.1052 -0.2939  0.6377
 3790SOL    HW123429   8.282   1.348   2.416 -0.4582 -0.0012  0.7366
 3790SOL    HW223430   8.371   1.277   2.533 -0.2293 -0.8658  0.0499
 3791SOL     OW23431   6.964   1.688   0.395 -0.2694  0.4755 -0.3334
 3791SOL    HW123432   6.873   1.679   0.353 -0.7498 -1.0715  0.9763
 3791SOL    HW223433   6.955   1.726   0.487  0.2986 -0.6046  0.1787
 3792SOL     OW23434   3.073   0.388   3.252 -0.3204  0.6701  0.7200
 3792SOL    HW123435   3.147   0.414   3.189  0.3806 -2.6159  0.0874
 3792SOL    HW223436   3.103   0.310   3.308 -3.4468 -1.1124  0.0543
 3793SOL     OW23437   9.785   7.029   4.379 -0.5867  0.0510  0.1041
 3793SOL    HW123438   9.866   6.981   4.345 -0.6325  0.3434 -0.4360
 3793SOL    HW223439   9.811   7.090   4.453  0.1265  1.9161 -1.6189
 3794SOL     OW23440   6.420   0.257   5.231 -0.0367  0.0557 -0.5792
 3794SOL    HW123441   6.400   0.252   5.329 -1.4609  1.1468 -0.7838
 3794SOL    HW223442   6.335   0.242   5.179  0.5452  0.3040 -1.6193
 3795SOL     OW23443   4.268   7.053   2.752  0.1483 -0.2557 -0.0302
 3795SOL    HW123444   4.287   7.123   2.683  1.3189  1.0029  1.5425
 3795SOL    HW223445   4.351   6.998   2.768 -0.3473 -1.0618 -0.1939
 3796SOL     OW23446   2.576   7.920   6.535 -0.4168 -0.3908  0.2659
 3796SOL    HW123447   2.526   7.875   6.461  0.1718  0.8279 -0.8848
 3796SOL    HW223448   2.578   7.860   6.615 -1.0689 -1.7126 -0.6929
 3797SOL     OW23449   1.070   3.276   9.236 -0.8814  0.8213  1.3598
 3797SOL    HW123450   1.138   3.348   9.248  2.0010 -1.5278 -0.4451
 3797SOL    HW223451   1.033   3.280   9.144  0.0154 -0.6107  0.9317
 3798SOL     OW23452   6.045   9.394   5.559 -0.2073 -0.1469  0.2491
 3798SOL    HW123453   5.977   9.361   5.624  0.1315 -0.7325  0.3084
 3798SOL    HW223454   6.025   9.489   5.536  0.0936  0.2966  1.7687
 3799SOL     OW23455   1.892   8.484   4.616 -0.6871 -0.1457 -0.7899
 3799SOL    HW123456   1.805   8.524   4.644  0.0814  1.8825 -1.2170
 3799SOL    HW223457   1.967   8.542   4.649  0.4778 -1.5856 -0.8781
 3800SOL     OW23458   3.233   3.903   6.178 -0.2623  0.1196 -0.3836
 3800SOL    HW123459   3.214   3.822   6.122 -0.4218  0.6831 -1.1697
 3800SOL    HW223460   3.329   3.905   6.205 -0.1504 -0.0853 -0.7703
 3801SOL     OW23461   2.781   2.290   0.943  0.2886 -0.1948 -0.0145
 3801SOL    HW123462   2.745   2.265   0.854  0.7921 -0.3625 -0.1715
 3801SOL    HW223463   2.706   2.297   1.009 -0.0700 -0.1597 -0.4263
 3802SOL     OW23464   5.334   7.452   6.135 -0.3561  0.4008 -0.8327
 3802SOL    HW123465   5.246   7.487   6.103 -0.9104 -1.7973 -1.7723
 3802SOL    HW223466   5.405   7.473   6.068 -0.3884  1.1034 -0.6488
 3803SOL     OW23467   0.196   2.289   6.304 -0.0367 -0.5612 -0.1978
 3803SOL    HW123468   0.214   2.190   6.308  0.8245 -0.4043 -0.0153
 3803SOL    HW223469   0.100   2.306   6.326 -0.3667 -1.4111 -0.9209
 3804SOL     OW23470   6.780   1.109   0.311 -0.1715  0.3639 -0.4322
 3804SOL    HW123471   6.713   1.096   0.238 -1.5917 -1.4651  1.1506
 3804SOL    HW223472   6.867   1.137   0.272 -1.0134 -0.1958 -2.7803
 3805SOL     OW23473   3.521   8.795   2.865  0.3739  0.0808 -0.1557
 3805SOL    HW123474   3.596   8.731   2.843  0.9608  0.2939  1.1576
 3805SOL    HW223475   3.485   8.773   2.955 -1.2619 -0.1043 -0.8489
 3806SOL     OW23476   2.667   9.097   0.836  0.2335  0.1655  0.2683
 3806SOL    HW123477   2.735   9.160   0.876  0.1662  0.1194  0.4577
 3806SOL    HW223478   2.596   9.150   0.789  0.0716  0.2444  0.5939
 3807SOL     OW23479   3.627   9.395   0.669 -0.3543  0.1345 -0.1539
 3807SOL    HW123480   3.718   9.437   0.663 -0.6468  0.7530 -0.2816
 3807SOL    HW223481   3.637   9.298   0.691  0.2363  0.7683  2.5631
 3808SOL     OW23482   7.164   5.189   7.857  0.4033 -0.5475 -0.0418
 3808SOL    HW123483   7.253   5.152   7.833  0.9249  0.3391  0.4782
 3808SOL    HW223484   7.170   5.289   7.865 -0.5651 -0.5019  0.2670
 3809SOL     OW23485   1.353   2.997   3.248 -0.3975  0.0729 -0.0927
 3809SOL    HW123486   1.335   2.901   3.226  1.6310 -0.1340 -0.8930
 3809SOL    HW223487   1.358   3.050   3.164  1.7393  0.2862  0.1449
 3810SOL     OW23488   0.595   2.858   2.365  0.1499 -0.2903  0.2520
 3810SOL    HW123489   0.577   2.853   2.267  0.1981  0.8681  0.1720
 3810SOL    HW223490   0.556   2.943   2.402  0.7247 -0.3861  1.1008
 3811SOL     OW23491   8.946   0.330   8.169 -0.0629  0.0572  0.1356
 3811SOL    HW123492   8.988   0.332   8.078 -1.3801 -0.4170 -0.4851
 3811SOL    HW223493   8.925   0.236   8.194  0.0611  0.2101  0.8367
 3812SOL     OW23494   2.948   5.968   2.205  0.1458  0.3308 -0.5563
 3812SOL    HW123495   2.998   5.900   2.258  0.4779  0.7245 -0.3539
 3812SOL    HW223496   2.872   6.003   2.259  0.1276  0.3006 -0.5628
 3813SOL     OW23497   8.738   4.339   9.170 -0.3720  1.4282  0.1406
 3813SOL    HW123498   8.834   4.349   9.196 -0.1876 -1.7790  0.8602
 3813SOL    HW223499   8.707   4.246   9.189 -3.2035  1.9542 -1.5314
 3814SOL     OW23500   7.572   1.040   4.285  0.2363 -0.0203 -0.2352
 3814SOL    HW123501   7.671   1.030   4.278  0.1425 -1.3790  0.2183
 3814SOL    HW223502   7.547   1.056   4.380 -0.1067 -1.3734 -0.0864
 3815SOL     OW23503   1.155   6.453   1.862 -0.2795 -0.4089  0.3792
 3815SOL    HW123504   1.093   6.376   1.878 -0.5815  0.0413  1.4264
 3815SOL    HW223505   1.227   6.425   1.799 -1.1588 -1.1451 -0.3148
 3816SOL     OW23506   7.281   1.459   5.798  0.2912  0.6331  0.8250
 3816SOL    HW123507   7.305   1.381   5.855  1.7361 -0.0950 -0.7562
 3816SOL    HW223508   7.362   1.492   5.750 -1.3365 -0.3667 -2.7611
 3817SOL     OW23509   8.809   9.346   5.357 -0.1815  0.2092  0.1754
 3817SOL    HW123510   8.799   9.316   5.262 -0.6895  0.5030  0.1305
 3817SOL    HW223511   8.822   9.266   5.416  1.2544  0.1108 -0.2694
 3818SOL     OW23512   2.077   4.846   5.961 -0.3451 -0.3133 -0.2722
 3818SOL    HW123513   2.033   4.856   6.050  1.4981 -0.1556  0.6536
 3818SOL    HW223514   2.126   4.759   5.958  0.9558  0.4059 -0.4979
 3819SOL     OW23515   4.612   9.448   7.558 -0.3077  0.2471  0.0680
 3819SOL    HW123516   4.564   9.534   7.543 -0.3642  0.1974 -0.0408
 3819SOL    HW223517   4.595   9.415   7.651 -1.9040 -0.6575 -0.5363
 3820SOL     OW23518   9.040   8.997   8.232 -1.2440  0.1127 -0.3778
 3820SOL    HW123519   9.048   8.905   8.270 -0.9276  0.4472  0.3808
 3820SOL    HW223520   9.053   8.994   8.133  0.3000 -0.4400 -0.1646
 3821SOL     OW23521   1.461   6.665   4.611  0.1571  0.3854  0.1830
 3821SOL    HW123522   1.472   6.715   4.697  0.5043  0.5182  0.0595
 3821SOL    HW223523   1.463   6.566   4.630  1.2143  0.4087  0.2059
 3822SOL     OW23524   0.937   7.860   3.967  0.2981  0.8285  0.6764
 3822SOL    HW123525   0.882   7.864   4.050  0.7360 -0.8492  1.0424
 3822SOL    HW223526   1.033   7.847   3.990  0.2473 -1.0643 -0.1228
 3823SOL     OW23527   2.081   9.674   7.067 -0.3226 -0.4174 -0.6548
 3823SOL    HW123528   2.152   9.742   7.048 -0.9543  0.2286 -0.7486
 3823SOL    HW223529   2.123   9.587   7.093  0.4946  0.0045 -0.5631
 3824SOL     OW23530   7.908   6.625   1.496 -0.5135 -0.3566 -0.3418
 3824SOL    HW123531   7.810   6.605   1.498 -0.2315 -1.7286  0.5162
 3824SOL    HW223532   7.923   6.722   1.516 -1.5337 -0.7482  2.5409
 3825SOL     OW23533   8.906   7.414   9.668  0.2234 -0.5069 -0.1575
 3825SOL    HW123534   8.947   7.324   9.681  4.3811  1.3044  0.1320
 3825SOL    HW223535   8.923   7.445   9.575 -1.0071  0.1180 -0.1897
 3826SOL     OW23536   2.634   3.179   4.092 -0.3119 -0.1423 -0.0189
 3826SOL    HW123537   2.668   3.086   4.096  2.3860  0.8316  0.4669
 3826SOL    HW223538   2.709   3.242   4.070 -2.2145  1.8394 -1.0919
 3827SOL     OW23539   9.641   6.453  10.075  0.0808  0.1930 -0.2845
 3827SOL    HW123540   9.597   6.381  10.129 -0.0735 -0.0451 -0.7248
 3827SOL    HW223541   9.721   6.416  10.028  0.9508  0.7042  0.7681
 3828SOL     OW23542   2.402   0.589   4.222  0.5002 -0.6222 -0.2903
 3828SOL    HW123543   2.497   0.604   4.196  0.5885 -1.7534 -0.6404
 3828SOL    HW223544   2.342   0.619   4.148  0.5404  0.8347  0.2500
 3829SOL     OW23545   4.860   7.497   1.261 -0.5213  0.7135  0.4901
 3829SOL    HW123546   4.771   7.487   1.306 -0.2232  0.7189  1.0762
 3829SOL    HW223547   4.897   7.407   1.240 -1.7133  0.7117 -1.8361
 3830SOL     OW23548   0.357   7.381   9.704 -0.7029  0.1102  0.0358
 3830SOL    HW123549   0.324   7.286   9.698  0.0471 -0.1771  0.3910
 3830SOL    HW223550   0.379   7.414   9.612  1.0387 -0.7891  0.1140
 3831SOL     OW23551   8.340   9.255   1.564  0.2268  0.5084  0.1989
 3831SOL    HW123552   8.400   9.308   1.505  0.0181  0.8150  0.2590
 3831SOL    HW223553   8.286   9.191   1.510 -0.2521  1.0666  0.0109
 3832SOL     OW23554   9.585   0.358   0.144 -0.5453  0.2067  0.0519
 3832SOL    HW123555   9.518   0.418   0.098 -1.0729  0.7417  1.4861
 3832SOL    HW223556   9.667   0.411   0.166 -0.4714  0.0674  0.1123
 3833SOL     OW23557   3.086   9.228   7.307 -0.1931 -0.2372  0.6645
 3833SOL    HW123558   3.165   9.270   7.354  1.0587 -0.1595 -1.4528
 3833SOL    HW223559   3.061   9.285   7.228 -1.5409 -0.9668  0.5684
 3834SOL     OW23560   3.890   3.744   9.459  0.3323 -0.2374  0.4461
 3834SOL    HW123561   3.868   3.649   9.440 -1.0011  0.4310 -1.5369
 3834SOL    HW223562   3.989   3.754   9.471  0.6660 -1.5963 -1.0516
 3835SOL     OW23563   1.035   0.645   2.165  0.6301 -0.2891  0.3804
 3835SOL    HW123564   0.965   0.715   2.149  1.0497  0.9349  3.3904
 3835SOL    HW223565   1.101   0.645   2.090 -1.7668 -0.4507 -1.7769
 3836SOL     OW23566   2.502   5.131   4.518  0.1229  0.2436  0.1335
 3836SOL    HW123567   2.564   5.120   4.596 -0.3628 -0.2231  0.4641
 3836SOL    HW223568   2.517   5.056   4.453  1.5700  1.4639 -0.9605
 3837SOL     OW23569   2.187   8.489   7.561 -0.1435  0.0422 -0.1638
 3837SOL    HW123570   2.215   8.537   7.644 -0.9859 -2.8210  1.8320
 3837SOL    HW223571   2.261   8.430   7.529 -0.9565 -1.3226  0.4369
 3838SOL     OW23572   0.191   8.292   8.480  0.7430  0.7534  0.2361
 3838SOL    HW123573   0.235   8.336   8.559  2.6815 -0.1791 -0.3081
 3838SOL    HW223574   0.256   8.233   8.434 -2.3630 -4.5430  2.2220
 3839SOL     OW23575   2.491   6.982   5.185 -0.5349  0.0299 -0.0852
 3839SOL    HW123576   2.392   6.992   5.170 -0.2590  1.1962 -1.1949
 3839SOL    HW223577   2.532   6.937   5.106  0.1540  1.5534 -0.6033
 3840SOL     OW23578   8.996   6.402   2.087 -0.1188 -0.6063 -0.0970
 3840SOL    HW123579   9.027   6.379   2.179 -0.0374 -1.7547 -0.3947
 3840SOL    HW223580   9.028   6.493   2.062  0.3208 -0.5112  0.8026
 3841SOL     OW23581   2.657   2.618   3.566 -0.1830  0.5477 -0.3698
 3841SOL    HW123582   2.653   2.718   3.569 -2.2263  0.5067 -0.5741
 3841SOL    HW223583   2.734   2.588   3.510  2.3984  1.9694  2.3023
 3842SOL     OW23584   9.149   0.723   4.927  0.4998 -0.1184 -0.1315
 3842SOL    HW123585   9.205   0.805   4.938  1.5205 -0.6719 -1.0814
 3842SOL    HW223586   9.207   0.642   4.936 -0.5655 -0.7473  1.1810
 3843SOL     OW23587   7.181   6.767   6.370 -0.0056 -0.1574 -0.0225
 3843SOL    HW123588   7.152   6.744   6.463  0.3544 -0.0135  0.1243
 3843SOL    HW223589   7.279   6.785   6.368 -0.1703  0.7801 -0.2502
 3844SOL     OW23590   1.531   3.210   5.316  0.5053 -0.0145 -0.0872
 3844SOL    HW123591   1.588   3.143   5.268 -0.5565 -0.3180 -0.9264
 3844SOL    HW223592   1.503   3.172   5.404  0.0170 -0.6189 -0.5027
 3845SOL     OW23593   0.692   7.307   2.283 -0.2049  0.2832  0.1793
 3845SOL    HW123594   0.772   7.361   2.311  0.9123  0.3354 -2.8751
 3845SOL    HW223595   0.619   7.369   2.254 -0.5586  0.1875  0.8429
 3846SOL     OW23596   3.420   2.313   9.801  0.2247 -0.3113 -0.0309
 3846SOL    HW123597   3.336   2.308   9.854 -0.5195  0.4606 -1.1104
 3846SOL    HW223598   3.403   2.278   9.709  0.8277  0.7744 -0.5605
 3847SOL     OW23599   9.988   0.017   6.165 -0.1870 -0.6288 -0.1413
 3847SOL    HW123600   9.969  -0.017   6.073 -0.2096  0.6540 -0.6194
 3847SOL    HW223601   9.967  -0.054   6.232 -1.0789 -1.2453 -1.0594
 3848SOL     OW23602   0.202   7.050   9.740  0.1325  0.6536 -0.3790
 3848SOL    HW123603   0.166   6.958   9.756  0.3746  0.1774 -2.3958
 3848SOL    HW223604   0.297   7.055   9.770 -0.3625  0.7439  1.2376
 3849SOL     OW23605   4.589   1.120   5.514  0.5427 -0.5345  0.5865
 3849SOL    HW123606   4.555   1.052   5.578  0.3945 -1.0395 -0.0219
 3849SOL    HW223607   4.512   1.162   5.466  0.6868 -0.5749  0.3188
 3850SOL     OW23608   1.928   1.717   8.112  0.5813  0.2650  0.3781
 3850SOL    HW123609   1.891   1.809   8.101 -0.8021 -0.1777  1.2741
 3850SOL    HW223610   1.853   1.652   8.130  1.4290 -1.1751 -1.0603
 3851SOL     OW23611   7.755   1.148   1.560 -0.6373 -0.5791 -0.5505
 3851SOL    HW123612   7.822   1.119   1.492 -0.6103 -1.5762 -0.1031
 3851SOL    HW223613   7.802   1.192   1.637 -0.6675  0.5342 -1.1524
 3852SOL     OW23614   0.366   5.341   2.258 -0.4584  0.3499  0.2958
 3852SOL    HW123615   0.405   5.260   2.302 -0.8142  0.7057  1.2752
 3852SOL    HW223616   0.367   5.328   2.159  0.5240 -0.3755  0.3930
 3853SOL     OW23617   8.644   6.927   1.122  0.4983 -0.2377 -0.0351
 3853SOL    HW123618   8.605   6.888   1.039  0.9392  0.0492 -0.3809
 3853SOL    HW223619   8.629   6.865   1.199  0.3594 -0.6405 -0.3890
 3854SOL     OW23620   4.056   4.098   4.986 -0.3103 -0.1360  0.0007
 3854SOL    HW123621   4.045   4.017   4.929 -1.2575 -1.1533  1.5767
 3854SOL    HW223622   4.027   4.077   5.079  1.0991  1.5155  0.8444
 3855SOL     OW23623   1.033   6.331   2.555  0.0088 -0.6134  0.2748
 3855SOL    HW123624   1.023   6.238   2.521 -0.5121 -0.6401  0.4954
 3855SOL    HW223625   0.974   6.393   2.502 -0.9061 -0.6782  1.2023
 3856SOL     OW23626   6.875   9.551   5.391 -0.0062  0.5613  0.0568
 3856SOL    HW123627   6.902   9.456   5.406  1.2089  0.9753  0.5744
 3856SOL    HW223628   6.837   9.561   5.300 -1.3464 -0.6879  0.4669
 3857SOL     OW23629   7.413   1.176   4.080  0.1145  0.5272  0.1880
 3857SOL    HW123630   7.437   1.115   4.156 -0.4572  0.0748  0.0127
 3857SOL    HW223631   7.469   1.258   4.084 -0.6479  1.0063  1.7337
 3858SOL     OW23632   3.607   5.212   1.934  0.5066 -0.4942 -0.3854
 3858SOL    HW123633   3.641   5.304   1.914  0.6215 -0.7570 -1.4369
 3858SOL    HW223634   3.514   5.203   1.896  1.5232 -1.6848 -2.7046
 3859SOL     OW23635   5.167   8.786   3.076 -0.2896  0.3633  0.6102
 3859SOL    HW123636   5.142   8.869   3.126  1.1978  1.4386 -0.4199
 3859SOL    HW223637   5.127   8.789   2.985  0.1342  0.1395  0.4185
 3860SOL     OW23638   4.017   1.193   1.064  1.0232 -0.1789  0.6253
 3860SOL    HW123639   3.989   1.118   1.004  1.4443  1.1729 -1.3356
 3860SOL    HW223640   3.936   1.237   1.103  0.6745 -0.2027 -0.0617
 3861SOL     OW23641   2.834   8.542   6.992 -0.0311 -0.9596  0.1375
 3861SOL    HW123642   2.786   8.622   7.028 -0.6649 -0.3285 -2.0709
 3861SOL    HW223643   2.858   8.481   7.068 -1.1640  0.4330  1.6451
 3862SOL     OW23644   3.208   3.066   6.158 -0.3530  0.4784  0.1080
 3862SOL    HW123645   3.224   3.085   6.255 -0.3056  1.9652 -0.1753
 3862SOL    HW223646   3.259   2.985   6.131 -0.2665  0.1228  1.2987
 3863SOL     OW23647   3.364   1.101   0.811 -0.1710 -0.0514 -0.2622
 3863SOL    HW123648   3.461   1.085   0.792 -0.0715  0.1977  0.0447
 3863SOL    HW223649   3.311   1.085   0.728  0.0967 -0.5119 -0.3495
 3864SOL     OW23650   7.098   5.600   8.584  0.2274  0.4235  0.1468
 3864SOL    HW123651   7.102   5.552   8.496  0.3625 -0.8674  0.8354
 3864SOL    HW223652   7.189   5.636   8.606  0.4196 -0.0781  0.1928
 3865SOL     OW23653   3.916   2.726   4.994  0.1949 -0.3631  0.8904
 3865SOL    HW123654   3.923   2.688   4.901 -0.1971 -1.1056  1.1617
 3865SOL    HW223655   3.897   2.824   4.987 -1.0830 -0.6396  0.1640
 3866SOL     OW23656   8.850   9.426   0.779  0.2057  0.4787  0.0608
 3866SOL    HW123657   8.758   9.461   0.796 -0.2613 -0.7276  0.0718
 3866SOL    HW223658   8.904   9.495   0.730  0.4595  2.6396  3.2228
 3867SOL     OW23659   8.916   4.921   9.033  0.0756 -0.4873 -0.2243
 3867SOL    HW123660   8.925   4.858   8.956  0.7287 -0.5671 -0.0907
 3867SOL    HW223661   8.836   4.897   9.087  1.2208 -2.2382  0.7525
 3868SOL     OW23662   9.423   5.130   2.596 -0.0237  0.0314 -0.2392
 3868SOL    HW123663   9.522   5.115   2.590 -0.2638 -2.4120  1.1827
 3868SOL    HW223664   9.377   5.075   2.527 -0.5594 -1.1141  1.0140
 3869SOL     OW23665   0.212   4.790   5.124  0.1969  0.1016 -0.0143
 3869SOL    HW123666   0.288   4.726   5.119  0.4923  0.3874  0.6630
 3869SOL    HW223667   0.170   4.785   5.215 -1.2975 -0.8483 -0.7358
 3870SOL     OW23668   8.075   2.083   7.797 -0.5059  0.0265  0.0108
 3870SOL    HW123669   8.135   2.159   7.822  0.1499 -0.3733 -0.3462
 3870SOL    HW223670   8.044   2.035   7.879 -0.4506  0.3163  0.1999
 3871SOL     OW23671   7.300   6.649   2.840  0.3845 -0.3565  0.4275
 3871SOL    HW123672   7.348   6.592   2.906 -1.2340 -1.6812  0.4891
 3871SOL    HW223673   7.339   6.741   2.841  1.5311 -0.8375  1.9425
 3872SOL     OW23674   1.243   7.934   7.471  0.1642  0.4710 -0.1377
 3872SOL    HW123675   1.305   7.919   7.549 -1.6154 -1.2906  1.0015
 3872SOL    HW223676   1.149   7.944   7.505 -0.6641 -0.4584 -2.0674
 3873SOL     OW23677   7.584   2.575   8.875 -0.2517  0.2077 -0.1091
 3873SOL    HW123678   7.642   2.645   8.834  0.1969  0.1253  0.3781
 3873SOL    HW223679   7.639   2.494   8.894 -0.3014  0.5108  1.3254
 3874SOL     OW23680   6.371   0.514   2.617 -0.0524 -0.0427  0.8291
 3874SOL    HW123681   6.322   0.586   2.568  1.7432  0.5973 -0.0626
 3874SOL    HW223682   6.354   0.524   2.715 -1.8701  0.0282  0.5207
 3875SOL     OW23683   8.220   7.991   4.842 -0.3308  0.2542  0.0385
 3875SOL    HW123684   8.122   7.978   4.862 -0.3534  2.2376  1.4062
 3875SOL    HW223685   8.230   8.034   4.752 -0.8273  1.5054  0.5604
 3876SOL     OW23686   4.020   0.909   1.946  0.3831 -0.1272 -0.4616
 3876SOL    HW123687   4.096   0.883   1.886 -0.0788  0.0647 -1.1297
 3876SOL    HW223688   4.054   0.971   2.017  0.6763  0.6725 -1.2932
 3877SOL     OW23689   8.725   6.796   2.737 -0.1398  0.1965 -0.2986
 3877SOL    HW123690   8.663   6.783   2.814 -0.4014  0.2400 -0.4984
 3877SOL    HW223691   8.819   6.799   2.769 -0.2322 -0.0074 -0.0066
 3878SOL     OW23692   1.817   4.023   2.177  0.5702  0.0220  0.2673
 3878SOL    HW123693   1.770   4.111   2.179  2.6258  1.1401  0.4841
 3878SOL    HW223694   1.750   3.949   2.180 -1.3481  1.5525 -2.9962
 3879SOL     OW23695   0.982   1.656   6.596 -0.2308  0.9266  0.3058
 3879SOL    HW123696   0.957   1.567   6.633  0.0490 -0.1980 -2.1203
 3879SOL    HW223697   1.079   1.673   6.615 -0.6935  1.4787  2.2356
 3880SOL     OW23698   2.111   0.380   8.084 -0.3135  0.5063 -0.6053
 3880SOL    HW123699   2.199   0.398   8.127 -1.1122 -0.6273  1.5560
 3880SOL    HW223700   2.120   0.303   8.020  0.2349  0.3441 -0.3338
 3881SOL     OW23701   1.998   9.852   8.538  0.4149  0.4644  0.9815
 3881SOL    HW123702   2.075   9.900   8.496 -0.4525  0.2028 -0.9853
 3881SOL    HW223703   1.994   9.758   8.503 -0.1379  0.1396  1.9133
 3882SOL     OW23704   6.220   6.313  10.046  0.0736  0.1123 -0.0787
 3882SOL    HW123705   6.128   6.285  10.020 -0.2717  1.2474 -0.0998
 3882SOL    HW223706   6.275   6.328   9.964  0.1439 -0.1276 -0.0750
 3883SOL     OW23707   4.686   9.893   3.883  0.2036 -0.4223 -0.0760
 3883SOL    HW123708   4.724   9.985   3.881  1.3129 -0.8986 -3.0077
 3883SOL    HW223709   4.588   9.896   3.863  0.2496  0.1156 -0.2032
 3884SOL     OW23710   1.236   5.006   1.419  0.0114  0.0433 -0.4003
 3884SOL    HW123711   1.278   5.029   1.507 -0.3196 -0.9766  0.0328
 3884SOL    HW223712   1.286   4.931   1.377 -0.6196 -0.3483 -0.4631
 3885SOL     OW23713   8.524   4.516   5.955  0.1583  0.1344  0.4608
 3885SOL    HW123714   8.481   4.471   6.033 -0.0415 -1.9269 -0.7992
 3885SOL    HW223715   8.454   4.551   5.893  0.2165 -2.4245 -1.1341
 3886SOL     OW23716   0.920   4.633   4.762 -0.2905  0.0474 -0.2267
 3886SOL    HW123717   0.827   4.634   4.801 -0.5706 -0.2629 -0.8805
 3886SOL    HW223718   0.916   4.599   4.668  0.5219 -0.1960 -0.1727
 3887SOL     OW23719   5.589   8.137   2.200 -0.3492 -0.6291  0.0860
 3887SOL    HW123720   5.529   8.197   2.146  0.7458 -0.2032 -0.6789
 3887SOL    HW223721   5.565   8.145   2.297 -1.5705 -0.5139 -0.2175
 3888SOL     OW23722   7.401   7.877   3.846 -0.2004  0.1794 -0.6063
 3888SOL    HW123723   7.330   7.910   3.784  0.2712  1.3168 -0.5533
 3888SOL    HW223724   7.385   7.781   3.868 -1.9704  0.5473 -0.2480
 3889SOL     OW23725   0.368   7.189   0.420  0.1463 -0.2347 -0.0534
 3889SOL    HW123726   0.345   7.282   0.448 -0.0355  0.3069 -1.9355
 3889SOL    HW223727   0.465   7.172   0.437  0.0244  0.0256  0.9780
 3890SOL     OW23728   5.541   7.764   3.016 -0.5662 -0.4328 -0.1327
 3890SOL    HW123729   5.455   7.789   3.061 -0.1648 -0.4061  0.6115
 3890SOL    HW223730   5.520   7.719   2.928 -1.3450 -0.8209  0.2430
 3891SOL     OW23731   8.927   4.535   0.530 -0.5111  0.3790  0.6016
 3891SOL    HW123732   8.928   4.630   0.563 -0.4964  0.0543  1.5436
 3891SOL    HW223733   8.834   4.510   0.503 -0.6180  0.4768  0.8791
 3892SOL     OW23734   2.023   7.378   7.485 -0.0627  0.0386 -0.5971
 3892SOL    HW123735   2.110   7.352   7.442  0.3686  0.5088 -0.0109
 3892SOL    HW223736   1.947   7.347   7.427  0.4530 -1.9990 -0.2127
 3893SOL     OW23737   3.143   2.392   9.502 -0.5624 -0.1963 -0.9027
 3893SOL    HW123738   3.233   2.349   9.492  0.8899  2.6733 -0.6050
 3893SOL    HW223739   3.072   2.325   9.479  1.5798 -2.7655 -0.3371
 3894SOL     OW23740   8.770   2.849   9.173 -0.0076  0.0835 -0.4928
 3894SOL    HW123741   8.673   2.842   9.150 -0.0868 -0.0751 -0.1082
 3894SOL    HW223742   8.780   2.874   9.269  0.2922  3.0271 -1.2461
 3895SOL     OW23743   9.545   3.001   4.399  0.2948 -0.3496 -0.7289
 3895SOL    HW123744   9.445   3.002   4.408  0.2935 -0.1964 -0.7530
 3895SOL    HW223745   9.585   2.974   4.487  0.3163  2.1065  0.0543
 3896SOL     OW23746   8.382   1.841   7.238  0.0922  0.3808 -0.3594
 3896SOL    HW123747   8.364   1.915   7.172 -0.7193  2.1997  1.8162
 3896SOL    HW223748   8.475   1.849   7.272 -0.5755  1.5798  1.2553
 3897SOL     OW23749   3.639   4.386   7.686 -0.0469  0.2782 -0.2502
 3897SOL    HW123750   3.692   4.321   7.631  1.0435  1.6794 -0.8699
 3897SOL    HW223751   3.549   4.346   7.707  0.5395 -1.3523 -0.7655
 3898SOL     OW23752   2.178   8.141   3.241  0.3031 -0.0410  0.2557
 3898SOL    HW123753   2.147   8.165   3.149  0.3562  0.0744  0.2676
 3898SOL    HW223754   2.120   8.187   3.309  1.1529  1.0241  0.2768
 3899SOL     OW23755   5.923   9.861   6.460  0.3222 -0.1665 -0.5739
 3899SOL    HW123756   5.857   9.816   6.520  1.0224 -1.9872 -1.1486
 3899SOL    HW223757   6.014   9.824   6.475  0.5691 -0.4233 -2.5002
 3900SOL     OW23758   4.123   8.739   9.428 -0.1257 -0.5222  0.6552
 3900SOL    HW123759   4.089   8.757   9.336 -0.2938  1.2795  1.0562
 3900SOL    HW223760   4.221   8.762   9.433 -0.4134  0.5878  1.2559
 3901SOL     OW23761   0.018   3.996   1.265  0.0246 -0.1175 -0.1279
 3901SOL    HW123762  -0.011   3.908   1.303 -0.4836  0.1354  0.0752
 3901SOL    HW223763  -0.060   4.059   1.263  0.3596  0.2922 -0.3773
 3902SOL     OW23764   0.258   8.157   5.717 -0.0196 -0.4161 -0.2265
 3902SOL    HW123765   0.324   8.096   5.674  1.6310 -0.7301  2.6287
 3902SOL    HW223766   0.170   8.111   5.725  0.3438 -1.2457 -0.9279
 3903SOL     OW23767   9.301   4.820   0.916 -0.3299  0.1867 -0.2147
 3903SOL    HW123768   9.272   4.770   0.997  0.4745  1.3181  0.7781
 3903SOL    HW223769   9.270   4.771   0.834  0.8648 -2.1756  0.7201
 3904SOL     OW23770   5.563   3.241   0.040 -0.2325 -0.1162 -0.2818
 3904SOL    HW123771   5.587   3.292  -0.042 -0.6980 -0.0450 -0.3739
 3904SOL    HW223772   5.637   3.176   0.062 -0.2505 -0.3594 -0.9346
 3905SOL     OW23773   6.964   7.040   6.649  0.0479  0.3012  0.0595
 3905SOL    HW123774   7.040   7.101   6.671 -0.6808  1.2054  0.1412
 3905SOL    HW223775   6.886   7.062   6.708  0.2880 -1.7863  1.1758
 3906SOL     OW23776   3.509   9.929   6.961  0.0356 -0.0961 -0.0180
 3906SOL    HW123777   3.512   9.978   7.048  1.0944  2.4681 -1.4349
 3906SOL    HW223778   3.592   9.875   6.950  0.2734  0.2237  0.2056
 3907SOL     OW23779   3.326   5.263   2.291  0.2575  0.0197 -0.0312
 3907SOL    HW123780   3.334   5.165   2.271  0.6827 -0.0927  0.6852
 3907SOL    HW223781   3.408   5.310   2.260  0.1446  0.1245 -0.1774
 3908SOL     OW23782   5.646   4.484   0.541  0.1867  0.0091 -0.1954
 3908SOL    HW123783   5.640   4.433   0.626 -1.4404  0.2807 -0.1323
 3908SOL    HW223784   5.697   4.569   0.557  0.7432 -0.4132  0.2726
 3909SOL     OW23785   3.616   2.552   6.521  0.3510  0.2445  0.1725
 3909SOL    HW123786   3.643   2.456   6.516  0.4706  0.2202  1.1393
 3909SOL    HW223787   3.621   2.583   6.616  0.4532  1.2510 -0.1569
 3910SOL     OW23788   7.497   8.333   4.315  0.1608 -0.7829  0.1351
 3910SOL    HW123789   7.425   8.287   4.263 -0.6190  0.4317  0.1196
 3910SOL    HW223790   7.499   8.297   4.408 -1.3287  0.0656  0.5114
 3911SOL     OW23791   5.878   9.241   1.279 -0.4048 -0.4775 -0.4449
 3911SOL    HW123792   5.953   9.305   1.292 -0.1880 -0.7162 -0.5119
 3911SOL    HW223793   5.837   9.218   1.367 -1.4508  0.9084 -0.5493
 3912SOL     OW23794   2.319   1.009   7.706 -0.4864  0.5739 -0.3916
 3912SOL    HW123795   2.293   0.917   7.735  1.4048 -0.2280 -1.1320
 3912SOL    HW223796   2.405   1.005   7.656 -1.5047  2.5035 -2.3615
 3913SOL     OW23797   1.041   0.293   0.516 -0.5327  0.0715 -0.7150
 3913SOL    HW123798   1.090   0.251   0.439 -1.1682 -0.2019 -0.9683
 3913SOL    HW223799   1.034   0.392   0.500  0.6995  0.2535 -0.2571
 3914SOL     OW23800   0.193   6.045   9.454  0.3537 -0.0706  0.0445
 3914SOL    HW123801   0.293   6.052   9.456  0.3638  1.1451 -2.3663
 3914SOL    HW223802   0.166   5.978   9.385 -0.4903 -1.2693  1.5128
 3915SOL     OW23803   9.609   9.179   8.008  0.0672  0.3995 -0.2713
 3915SOL    HW123804   9.556   9.118   7.948 -0.9156 -0.4445  1.4263
 3915SOL    HW223805   9.593   9.274   7.980 -0.6691  0.0393 -1.1122
 3916SOL     OW23806   9.756   4.793   8.491  0.0469  0.3389 -0.4989
 3916SOL    HW123807   9.851   4.763   8.487 -0.6465 -2.1912  0.6839
 3916SOL    HW223808   9.720   4.803   8.398  0.1197 -3.3802 -0.9899
 3917SOL     OW23809   0.207   4.898   3.028 -0.1464  0.2925  0.3173
 3917SOL    HW123810   0.130   4.856   2.979  0.2044 -0.2693  0.2432
 3917SOL    HW223811   0.175   4.935   3.116 -0.2751 -0.9905  0.8202
 3918SOL     OW23812   9.709   5.968   8.776  0.3712  0.0508  0.8449
 3918SOL    HW123813   9.733   5.951   8.680 -0.9114 -1.1252  0.7288
 3918SOL    HW223814   9.792   5.972   8.831  1.0282 -0.6836 -0.0863
 3919SOL     OW23815   8.456   6.716   2.398 -0.3072 -0.0619 -0.3214
 3919SOL    HW123816   8.551   6.686   2.386 -0.4839 -0.5685 -0.5026
 3919SOL    HW223817   8.400   6.676   2.325 -0.5524  0.7282 -0.5626
 3920SOL     OW23818   3.781   6.542   1.637  0.3256 -0.5743  0.3681
 3920SOL    HW123819   3.715   6.501   1.700  0.4284 -0.7022  0.3932
 3920SOL    HW223820   3.839   6.606   1.687  0.4638 -0.7411  0.4197
 3921SOL     OW23821   4.052   8.217   8.328  0.3591  0.0953  0.4093
 3921SOL    HW123822   4.090   8.128   8.355  0.9392  0.5011  0.9352
 3921SOL    HW223823   4.070   8.284   8.399 -0.7456  0.4569  0.3415
 3922SOL     OW23824   1.138   6.318   4.456  0.0862 -0.8146  0.2803
 3922SOL    HW123825   1.086   6.402   4.471 -0.3388 -0.8404 -0.9908
 3922SOL    HW223826   1.097   6.243   4.508 -1.2492 -0.8761 -0.8563
 3923SOL     OW23827   2.400   2.272   2.049 -0.0760 -0.0575  0.0350
 3923SOL    HW123828   2.401   2.232   2.141 -0.0613 -0.8913 -0.3207
 3923SOL    HW223829   2.360   2.363   2.053  2.3930  1.0136  1.3058
 3924SOL     OW23830   2.600   6.326   3.075 -0.3363 -0.3979  0.2549
 3924SOL    HW123831   2.560   6.298   3.162  1.3130  0.5851  1.3571
 3924SOL    HW223832   2.681   6.270   3.056  0.0240  0.2177 -0.0348
 3925SOL     OW23833   2.001   6.834   2.335  0.1117  0.3131 -0.0656
 3925SOL    HW123834   1.977   6.902   2.405 -0.2225  0.1123  0.0137
 3925SOL    HW223835   2.097   6.808   2.346  0.5330  1.5572 -0.7590
 3926SOL     OW23836   0.681   7.631   2.438  0.0220  0.5285  0.1155
 3926SOL    HW123837   0.664   7.692   2.515  0.9414 -0.4147  1.0786
 3926SOL    HW223838   0.616   7.554   2.442  1.1150 -0.3720  0.8855
 3927SOL     OW23839   3.673   4.148   1.579  0.3239 -0.0994 -0.1351
 3927SOL    HW123840   3.624   4.138   1.492  0.7052  0.4561 -0.4135
 3927SOL    HW223841   3.771   4.132   1.564  0.2893 -0.8070  0.3450
 3928SOL     OW23842   9.420   4.676   9.198  0.2342 -0.5809 -0.3074
 3928SOL    HW123843   9.495   4.732   9.235 -0.2514  0.0073 -0.2128
 3928SOL    HW223844   9.394   4.607   9.266 -0.5608  0.4089  0.4018
 3929SOL     OW23845   9.348   6.815   4.273 -0.2483 -0.2456 -0.4688
 3929SOL    HW123846   9.393   6.742   4.324  0.1627 -0.3066 -0.9103
 3929SOL    HW223847   9.294   6.871   4.335 -0.0957 -0.5755 -0.0350
 3930SOL     OW23848   9.148   6.036   1.019  0.0905  0.0165  0.7023
 3930SOL    HW123849   9.180   6.053   1.112  0.5763  0.9291  0.3709
 3930SOL    HW223850   9.188   6.103   0.957 -1.6172  0.5170  0.1166
 3931SOL     OW23851   9.123   8.353   8.218 -0.2797  0.1215  0.1131
 3931SOL    HW123852   9.134   8.254   8.216 -0.3958  0.0136  2.8766
 3931SOL    HW223853   9.026   8.376   8.228 -0.1571  0.4630  0.5897
 3932SOL     OW23854   4.650   8.300   1.643 -0.0468  0.2080 -0.0614
 3932SOL    HW123855   4.632   8.352   1.559 -0.1364  1.5629  0.7853
 3932SOL    HW223856   4.592   8.335   1.716 -1.4557 -2.2998  0.0878
 3933SOL     OW23857   5.935   5.426   0.193 -0.0103  0.5115  0.0419
 3933SOL    HW123858   5.872   5.367   0.143  0.7199  0.3590 -0.7073
 3933SOL    HW223859   5.907   5.522   0.181 -0.1366  0.4418 -0.2203
 3934SOL     OW23860   1.590   5.494   6.671 -0.2948 -0.0598 -0.2178
 3934SOL    HW123861   1.531   5.470   6.594  1.1141 -1.2069 -0.9603
 3934SOL    HW223862   1.544   5.472   6.757 -1.7639  0.9660 -0.7311
 3935SOL     OW23863   2.932   5.508   1.583  0.1843 -0.8287 -0.0779
 3935SOL    HW123864   2.925   5.608   1.588  0.1529 -0.7929 -0.7268
 3935SOL    HW223865   3.020   5.484   1.542  0.7041 -1.0983  1.1822
 3936SOL     OW23866   3.562   8.380   6.735 -0.5574  0.3124  0.3911
 3936SOL    HW123867   3.552   8.473   6.770 -0.0742  0.2021  0.8294
 3936SOL    HW223868   3.658   8.365   6.709 -0.5595 -0.1879  0.6799
 3937SOL     OW23869   6.372  -0.001   8.326 -0.1573 -0.5797 -0.0355
 3937SOL    HW123870   6.385   0.085   8.278  0.5324 -0.2997  0.6375
 3937SOL    HW223871   6.275  -0.026   8.325 -0.9047  1.8909  2.5517
 3938SOL     OW23872   3.854   5.394   0.888  0.5433 -0.7754  0.3456
 3938SOL    HW123873   3.816   5.302   0.901  2.0599 -1.4190  0.3114
 3938SOL    HW223874   3.868   5.437   0.978  1.3988 -1.2293  0.4314
 3939SOL     OW23875   9.579   3.089   5.829 -0.3228 -0.7944 -0.3448
 3939SOL    HW123876   9.519   3.055   5.902  1.2598  1.0139  1.8815
 3939SOL    HW223877   9.627   3.012   5.788  1.4738 -1.5966  3.0445
 3940SOL     OW23878   2.461   8.798   4.494 -0.1720 -0.0652 -0.2732
 3940SOL    HW123879   2.490   8.715   4.542 -1.2242 -0.3208 -0.0528
 3940SOL    HW223880   2.412   8.858   4.558 -0.8093 -0.0068 -0.8077
 3941SOL     OW23881   2.106   2.304   3.721  0.5087  0.2007  0.1129
 3941SOL    HW123882   2.029   2.367   3.711  0.3301 -0.3088 -1.9425
 3941SOL    HW223883   2.166   2.311   3.642  1.7448 -0.5280  0.9663
 3942SOL     OW23884   7.737   0.805   6.902  0.0294 -0.0538 -0.8116
 3942SOL    HW123885   7.771   0.826   6.994  0.4858 -0.3022 -0.9205
 3942SOL    HW223886   7.638   0.815   6.900  0.0929  0.6729 -0.4802
 3943SOL     OW23887   6.687   4.251   2.091 -0.4661 -0.0059 -0.0086
 3943SOL    HW123888   6.786   4.247   2.077 -0.3740 -0.4521  0.7532
 3943SOL    HW223889   6.653   4.340   2.060  0.0113 -0.2421 -1.2518
 3944SOL     OW23890   7.627   9.287   4.433  0.2205 -0.5920  0.2518
 3944SOL    HW123891   7.653   9.374   4.390  0.4222  0.1300  1.8082
 3944SOL    HW223892   7.528   9.281   4.437  0.2062 -0.4187  0.1806
 3945SOL     OW23893   9.098   9.131   9.486  0.2020 -0.1019 -0.2117
 3945SOL    HW123894   9.096   9.229   9.468  2.6311 -0.1415 -0.8979
 3945SOL    HW223895   9.046   9.082   9.416  2.4753  0.4056 -2.3385
 3946SOL     OW23896   8.847   2.531   5.039  0.2307 -0.3692 -0.1253
 3946SOL    HW123897   8.915   2.570   4.977 -0.6481  1.6529  0.1395
 3946SOL    HW223898   8.758   2.528   4.994  0.2981 -2.2575 -0.1873
 3947SOL     OW23899   0.524   0.045   3.575  0.3704 -0.2306 -0.6075
 3947SOL    HW123900   0.506   0.017   3.670  1.0542  0.1597 -0.3612
 3947SOL    HW223901   0.438   0.045   3.524  0.0053 -0.5114 -0.0059
 3948SOL     OW23902   9.557   7.631   5.362  0.0034 -0.2166 -0.3960
 3948SOL    HW123903   9.647   7.586   5.359 -0.1618 -0.5781  0.0978
 3948SOL    HW223904   9.485   7.562   5.369 -0.2486  0.1222  0.4216
 3949SOL     OW23905   6.205   0.811   6.417 -0.0718 -0.3047  0.2057
 3949SOL    HW123906   6.246   0.838   6.504  1.3286  2.7905 -1.3276
 3949SOL    HW223907   6.277   0.805   6.347 -1.4152 -0.9207 -1.1491
 3950SOL     OW23908   9.635   7.624   6.933 -0.6792  0.1767  0.0557
 3950SOL    HW123909   9.639   7.531   6.971 -0.6033  0.3691  0.5264
 3950SOL    HW223910   9.594   7.621   6.842  0.9931 -0.5728 -0.7117
 3951SOL     OW23911   0.301   7.750   3.632 -0.0585 -0.1195  0.2178
 3951SOL    HW123912   0.374   7.742   3.700  0.7390  0.9839 -0.4805
 3951SOL    HW223913   0.338   7.733   3.541 -0.6369  0.5633 -0.1535
 3952SOL     OW23914   0.508   7.636   6.966  0.5521  0.3221  0.2906
 3952SOL    HW123915   0.558   7.719   6.939  0.3541  0.1616 -0.5856
 3952SOL    HW223916   0.412   7.659   6.981  0.5927  0.3438  0.5131
 3953SOL     OW23917   1.177   9.142   7.343 -0.2333  0.4000 -0.1558
 3953SOL    HW123918   1.184   9.143   7.443  0.9901  0.9937 -0.2358
 3953SOL    HW223919   1.114   9.213   7.314 -0.5865  0.2331  0.1951
 3954SOL     OW23920   2.705   8.137   5.778  0.8000  0.1851 -0.2984
 3954SOL    HW123921   2.755   8.144   5.692  0.8864 -0.1267 -0.2721
 3954SOL    HW223922   2.626   8.077   5.766  1.3538 -0.6247  0.0950
 3955SOL     OW23923   0.880   1.454   3.677 -0.4239  0.1904  0.3032
 3955SOL    HW123924   0.787   1.418   3.667 -0.2765 -0.3440  0.8265
 3955SOL    HW223925   0.943   1.379   3.697 -0.0493  0.6889  1.0042
 3956SOL     OW23926   6.731   3.239   3.003 -0.6237  0.7729  0.3497
 3956SOL    HW123927   6.743   3.330   3.042 -2.3768  0.7314  1.0444
 3956SOL    HW223928   6.642   3.202   3.031 -0.8480 -0.2861 -1.6620
 3957SOL     OW23929   4.169   1.161   6.540  0.6830  0.4601  0.2303
 3957SOL    HW123930   4.225   1.158   6.457 -1.3444 -0.8154 -1.1163
 3957SOL    HW223931   4.107   1.239   6.536 -0.8290 -0.7586 -0.4010
 3958SOL     OW23932   6.219   2.506   2.147  0.3711  0.2657  0.2938
 3958SOL    HW123933   6.168   2.463   2.221  0.1325 -0.7875 -0.4652
 3958SOL    HW223934   6.317   2.495   2.164  0.3169 -1.0756 -0.1494
 3959SOL     OW23935   3.509   9.034   5.354 -0.1819  0.2172 -0.1780
 3959SOL    HW123936   3.607   9.029   5.336 -0.2594 -0.9382 -0.2746
 3959SOL    HW223937   3.466   9.093   5.285  0.5365  1.3121  0.2895
 3960SOL     OW23938   9.251   2.859   4.614  0.3971 -0.2912 -0.0479
 3960SOL    HW123939   9.309   2.814   4.682 -0.2284 -1.5744 -0.3304
 3960SOL    HW223940   9.156   2.828   4.625  0.3758 -0.9191 -1.8159
 3961SOL     OW23941   1.690   7.131   3.973  0.3858  0.3124  0.5174
 3961SOL    HW123942   1.665   7.213   3.921  0.6919  0.2516  0.2696
 3961SOL    HW223943   1.621   7.060   3.959  0.8022  0.0682 -0.3357
 3962SOL     OW23944   1.984   7.956   1.645  0.1978 -0.2664 -0.2336
 3962SOL    HW123945   1.971   8.053   1.624  0.4523  0.3774  2.4005
 3962SOL    HW223946   2.046   7.915   1.578  0.8395  1.6186 -0.8053
 3963SOL     OW23947   5.102   0.335   3.218  0.0609 -0.2003 -0.5695
 3963SOL    HW123948   5.124   0.312   3.313 -3.4921  1.6382  0.8012
 3963SOL    HW223949   5.028   0.276   3.185 -1.4158  1.7039 -0.8011
 3964SOL     OW23950   6.123   0.301   3.342  0.0622  0.1360  0.1853
 3964SOL    HW123951   6.109   0.393   3.305  0.7465  0.0375 -0.3258
 3964SOL    HW223952   6.218   0.290   3.371 -0.4054  0.1178  1.7441
 3965SOL     OW23953   9.277   1.071   7.191 -0.2104  0.4023  1.0582
 3965SOL    HW123954   9.354   1.009   7.182 -1.8307 -1.9403  2.6469
 3965SOL    HW223955   9.245   1.098   7.100  0.8163 -0.7297  0.3482
 3966SOL     OW23956   9.400   2.220   0.197 -0.2013 -0.2026 -0.2216
 3966SOL    HW123957   9.309   2.229   0.156  0.3081 -0.8291 -1.5263
 3966SOL    HW223958   9.418   2.125   0.218  0.3330 -0.1404 -0.3976
 3967SOL     OW23959   0.721   5.233   6.625 -0.3825  0.3027  0.2145
 3967SOL    HW123960   0.802   5.223   6.567 -0.1240 -0.3606  0.6859
 3967SOL    HW223961   0.748   5.266   6.715 -1.0576  3.8606 -0.8164
 3968SOL     OW23962   8.706   9.989   9.401  0.3351  0.5645  0.5234
 3968SOL    HW123963   8.624   9.961   9.451  1.4271 -2.2884  0.8262
 3968SOL    HW223964   8.772  10.028   9.465  0.1983  0.4850  0.7120
 3969SOL     OW23965   9.318   9.320   8.126 -0.0185  0.4071  0.3432
 3969SOL    HW123966   9.290   9.282   8.038 -0.5666  1.3304  0.1068
 3969SOL    HW223967   9.288   9.260   8.199  2.1243 -1.3742 -0.1681
 3970SOL     OW23968   1.297   1.082   6.927  0.0719  0.2668  0.0880
 3970SOL    HW123969   1.335   1.031   7.005 -1.6225  0.0132  0.7553
 3970SOL    HW223970   1.208   1.044   6.903  0.8992 -0.1361 -2.4699
 3971SOL     OW23971   1.187   4.276   8.926  0.1133 -0.5689  0.1253
 3971SOL    HW123972   1.157   4.316   9.012 -1.2177  2.0435 -1.4929
 3971SOL    HW223973   1.107   4.250   8.872  0.9158 -1.2423 -0.7537
 3972SOL     OW23974   3.403   6.442   1.982  0.3506 -0.9676 -1.1481
 3972SOL    HW123975   3.485   6.431   1.924  0.7751  0.2436 -0.7918
 3972SOL    HW223976   3.321   6.428   1.926  0.7639 -0.1679 -1.9856
 3973SOL     OW23977   8.109   0.800   8.916  0.5682 -0.2814  0.1628
 3973SOL    HW123978   8.090   0.702   8.910 -1.4156 -0.0355  1.9372
 3973SOL    HW223979   8.182   0.815   8.984  0.4957 -0.4969  0.2901
 3974SOL     OW23980   8.986   5.667   3.310 -0.0325  0.1277  0.0507
 3974SOL    HW123981   9.050   5.744   3.304 -0.0724  0.2343  0.9904
 3974SOL    HW223982   8.956   5.656   3.405  0.4525 -1.4284  0.0354
 3975SOL     OW23983   5.721   2.274   8.955  0.2986 -0.4083 -0.2475
 3975SOL    HW123984   5.646   2.314   8.903 -0.1424  0.2664  0.8701
 3975SOL    HW223985   5.770   2.207   8.899 -1.2732 -1.0094 -0.9117
 3976SOL     OW23986   7.701   8.495   4.586  0.1087  0.5976  0.2184
 3976SOL    HW123987   7.672   8.445   4.668 -1.6764  0.5029 -0.4427
 3976SOL    HW223988   7.710   8.592   4.608 -0.7574  0.6320  0.4253
 3977SOL     OW23989   3.168   8.222   2.424  0.0147 -0.6220 -0.1375
 3977SOL    HW123990   3.196   8.181   2.337 -0.9993  1.2624 -1.3807
 3977SOL    HW223991   3.193   8.319   2.424  0.9217 -0.8274  2.1020
 3978SOL     OW23992   4.092   1.299   8.718 -0.1309 -0.2059  0.5807
 3978SOL    HW123993   4.026   1.285   8.792 -0.2972  1.6540  0.7970
 3978SOL    HW223994   4.153   1.374   8.741 -0.0705  0.2859 -1.0969
 3979SOL     OW23995   7.986   6.209   6.511 -0.3077  1.0858 -0.2639
 3979SOL    HW123996   8.004   6.304   6.536 -0.0523  0.6947  1.0623
 3979SOL    HW223997   7.887   6.192   6.512 -0.2139  0.4683  2.8292
 3980SOL     OW23998   4.236   2.936   6.048 -0.1636 -0.0209 -0.0851
 3980SOL    HW123999   4.270   2.886   5.968 -0.1553  1.7475 -1.2257
 3980SOL    HW224000   4.138   2.953   6.037 -0.2291 -0.0753  0.4305
 3981SOL     OW24001   3.964   5.533   8.188 -0.1632  0.2452  0.1708
 3981SOL    HW124002   4.010   5.493   8.267 -1.2040 -0.0266  0.6469
 3981SOL    HW224003   4.007   5.620   8.165  0.5921 -0.0147  0.6003
 3982SOL     OW24004   2.980   3.176  10.077 -0.3493 -0.1537 -0.2150
 3982SOL    HW124005   2.939   3.151   9.989 -2.5600  1.1112  0.4057
 3982SOL    HW224006   2.973   3.275  10.089  4.1073  0.2982 -0.6133
 3983SOL     OW24007   3.690   2.808   3.543 -0.0267  0.2708  0.3505
 3983SOL    HW124008   3.673   2.881   3.609  1.9813  2.4168 -1.4250
 3983SOL    HW224009   3.637   2.824   3.460 -0.5132 -0.9782  0.4030
 3984SOL     OW24010   0.042   9.578   3.633 -0.2355 -0.7506  0.1128
 3984SOL    HW124011  -0.055   9.593   3.615 -0.3455 -1.1867  0.3270
 3984SOL    HW224012   0.058   9.573   3.731  0.1871  0.4706  0.1050
 3985SOL     OW24013   5.780   9.731   2.001  0.8049  0.3421  0.3792
 3985SOL    HW124014   5.806   9.641   2.037  0.6884  0.2119  0.1420
 3985SOL    HW224015   5.737   9.719   1.911  0.3678  0.5985  0.5554
 3986SOL     OW24016   2.331   3.521   1.620 -0.3031  0.4120  0.0472
 3986SOL    HW124017   2.389   3.485   1.546  0.7891  1.5478  0.3247
 3986SOL    HW224018   2.284   3.445   1.665 -1.1702 -0.2861 -1.9530
 3987SOL     OW24019   0.183   7.450   1.715 -0.0585 -0.0119  0.4289
 3987SOL    HW124020   0.152   7.444   1.810  1.3239  1.4683  0.9755
 3987SOL    HW224021   0.220   7.361   1.687 -2.0298 -0.9447  0.7145
 3988SOL     OW24022   6.404   9.924   2.498 -0.0890  0.0372  0.4159
 3988SOL    HW124023   6.401  10.020   2.469  0.7296 -0.3279 -0.9370
 3988SOL    HW224024   6.488   9.908   2.550 -0.1304  0.0135  0.4755
 3989SOL     OW24025   1.344   3.775   7.755  0.1725 -0.2852  0.0558
 3989SOL    HW124026   1.246   3.793   7.747  0.1424 -0.4717 -0.0010
 3989SOL    HW224027   1.376   3.728   7.673 -0.1874 -2.4434  1.1180
 3990SOL     OW24028   9.943   9.982   0.262  0.0017 -0.3295 -0.0127
 3990SOL    HW124029   9.982   9.990   0.170  1.2149  1.2140  0.6265
 3990SOL    HW224030   9.964  10.064   0.315 -1.2731 -0.9085  1.4433
 3991SOL     OW24031   6.396   6.205   0.778  0.1811  0.1329  0.2187
 3991SOL    HW124032   6.462   6.164   0.715 -0.6004  0.6372 -0.9397
 3991SOL    HW224033   6.399   6.305   0.769 -1.5992  0.1084 -0.7218
 3992SOL     OW24034   1.546   3.746   0.711  0.3693 -0.9927  0.3047
 3992SOL    HW124035   1.500   3.696   0.785  1.6199 -2.9792 -0.2302
 3992SOL    HW224036   1.481   3.765   0.638 -0.3676 -0.8812  0.9826
 3993SOL     OW24037   8.849   2.325   9.617  0.1470  0.2406  0.5328
 3993SOL    HW124038   8.791   2.363   9.545 -0.7726  0.7215  1.5064
 3993SOL    HW224039   8.944   2.351   9.601 -0.1541  0.9901 -0.0822
 3994SOL     OW24040   3.400   0.643   4.607  0.7584  0.5237 -0.1095
 3994SOL    HW124041   3.400   0.613   4.703  0.8947  1.8825  0.3314
 3994SOL    HW224042   3.477   0.705   4.592 -2.0627  4.3278  0.2363
 3995SOL     OW24043   5.930   7.666   3.255 -0.3991  0.4347 -0.0053
 3995SOL    HW124044   5.960   7.751   3.297  0.2725  0.0342  0.3355
 3995SOL    HW224045   5.986   7.646   3.175  1.0531 -0.9079  1.2970
 3996SOL     OW24046   5.304   2.715   7.690 -0.1157  0.3985  0.2277
 3996SOL    HW124047   5.226   2.775   7.706 -1.3266 -1.1431  0.1943
 3996SOL    HW224048   5.366   2.758   7.625 -0.2250  2.2483  1.3000
 3997SOL     OW24049   8.089   5.840   6.684 -0.5869 -0.0507  0.1731
 3997SOL    HW124050   8.056   5.782   6.609 -1.0674  1.0437 -0.4654
 3997SOL    HW224051   8.011   5.885   6.728 -0.1924  0.2854  0.5324
 3998SOL     OW24052   1.442   9.931   3.468  0.2871 -0.2210  0.4906
 3998SOL    HW124053   1.377   9.871   3.421  2.0423  0.4669 -3.0177
 3998SOL    HW224054   1.401  10.021   3.480 -0.8811 -0.9468  2.0723
 3999SOL     OW24055   3.957   8.513   9.465 -0.0899 -0.0965  0.0164
 3999SOL    HW124056   3.946   8.452   9.386  0.6778  0.0530 -0.2098
 3999SOL    HW224057   4.002   8.597   9.436  0.7100 -0.2797  0.7291
 4000SOL     OW24058   3.029   8.234   6.086 -0.4193  0.2481  0.1033
 4000SOL    HW124059   3.106   8.298   6.093 -0.9620  1.2739 -2.8438
 4000SOL    HW224060   3.052   8.150   6.135  2.5560  0.5582 -0.6687
 4001SOL     OW24061   5.694   9.464   3.854 -0.5536  0.1557 -0.0271
 4001SOL    HW124062   5.644   9.384   3.823  1.0041 -0.0752 -2.0753
 4001SOL    HW224063   5.749   9.441   3.934 -1.2646 -0.4276  0.2887
 4002SOL     OW24064   1.800   3.505   2.740  0.2599 -0.1305 -0.4432
 4002SOL    HW124065   1.882   3.549   2.777  0.0894  0.2437 -0.5158
 4002SOL    HW224066   1.804   3.507   2.640 -0.6614  1.4119 -0.4558
 4003SOL     OW24067   0.960   8.398   1.279 -0.3651 -0.0479 -0.4393
 4003SOL    HW124068   0.918   8.318   1.322 -1.8868  1.4985  1.0254
 4003SOL    HW224069   0.898   8.434   1.209  0.0531  0.2484 -0.6593
 4004SOL     OW24070   0.786   3.274   5.590 -0.0156  0.2901 -0.0302
 4004SOL    HW124071   0.691   3.301   5.606  0.3585  2.0045 -0.5107
 4004SOL    HW224072   0.811   3.201   5.652 -1.4207  0.3545  0.6355
 4005SOL     OW24073   7.131   2.102   0.875  0.2165  0.5061  0.0528
 4005SOL    HW124074   7.115   2.072   0.781  0.6986  0.4714 -0.0215
 4005SOL    HW224075   7.054   2.074   0.933  0.7622 -1.1338  0.0395
 4006SOL     OW24076   3.592   8.546   8.234 -0.1894 -0.1029 -0.6012
 4006SOL    HW124077   3.692   8.546   8.231 -0.1032 -0.6736  1.3397
 4006SOL    HW224078   3.556   8.572   8.145  1.6888  0.0065 -1.3569
 4007SOL     OW24079   3.748   3.475   1.229  0.1262 -0.3395 -0.1948
 4007SOL    HW124080   3.817   3.404   1.241 -0.2640 -0.5210  0.9836
 4007SOL    HW224081   3.664   3.450   1.278 -0.1375  0.7562 -0.0678
 4008SOL     OW24082   4.937   9.360   3.559 -0.5699 -0.4848  0.8342
 4008SOL    HW124083   4.837   9.372   3.554 -0.7451 -1.6958  1.3800
 4008SOL    HW224084   4.973   9.345   3.468 -0.9202 -0.2729  0.6588
 4009SOL     OW24085   9.263   1.731   6.522 -0.0452 -0.1252 -0.3009
 4009SOL    HW124086   9.257   1.662   6.594 -1.6129  1.4118  1.1092
 4009SOL    HW224087   9.171   1.752   6.488  0.3011  1.8317 -0.1111
 4010SOL     OW24088   3.482   8.360   5.075 -0.5953  0.4626  0.0545
 4010SOL    HW124089   3.400   8.417   5.083 -0.0900  1.3485 -0.9027
 4010SOL    HW224090   3.487   8.323   4.982 -0.3206 -0.2122  0.3396
 4011SOL     OW24091   1.858   3.444   6.760  0.1162 -0.2791 -0.4740
 4011SOL    HW124092   1.837   3.481   6.851  0.7188  0.4612 -0.6322
 4011SOL    HW224093   1.912   3.361   6.770 -0.3780 -0.5666 -0.1423
 4012SOL     OW24094   9.889   8.393   1.657 -0.2711  0.0738 -0.5000
 4012SOL    HW124095   9.923   8.321   1.717 -1.9367 -1.5009 -1.3794
 4012SOL    HW224096   9.889   8.480   1.705 -0.0811 -0.8760  1.2437
 4013SOL     OW24097   9.850   1.831   5.706 -0.0301  0.7298 -0.0310
 4013SOL    HW124098   9.802   1.918   5.717 -0.4756  0.2921  1.7172
 4013SOL    HW224099   9.787   1.756   5.728  0.7266  0.0266 -0.2490
 4014SOL     OW24100   0.061   6.752   3.619 -0.0024  0.3486  0.0678
 4014SOL    HW124101   0.110   6.671   3.587 -0.5249 -0.1249  0.4611
 4014SOL    HW224102   0.090   6.831   3.566 -0.9575 -0.4514 -1.6865
 4015SOL     OW24103   1.800   1.534   5.397  0.5579  0.9132 -0.4251
 4015SOL    HW124104   1.806   1.440   5.365  0.4233  1.1018 -1.0004
 4015SOL    HW224105   1.891   1.565   5.426  0.2157 -0.1545  1.9394
 4016SOL     OW24106   3.270   5.678   9.566 -0.3382  0.2489  0.8907
 4016SOL    HW124107   3.343   5.620   9.529 -0.8011 -1.4028  2.4661
 4016SOL    HW224108   3.297   5.774   9.560  0.4263 -0.1024 -1.8175
 4017SOL     OW24109   3.816   9.619   0.713  0.2836 -0.3067  0.6617
 4017SOL    HW124110   3.890   9.669   0.758  1.1181 -0.5585 -0.4289
 4017SOL    HW224111   3.854   9.548   0.655 -0.6877  1.5590 -2.3428
 4018SOL     OW24112   9.719   9.167   9.265 -0.6262 -0.1961  0.0220
 4018SOL    HW124113   9.629   9.202   9.238 -0.7372 -1.6191 -1.5740
 4018SOL    HW224114   9.770   9.240   9.311 -1.5658  1.4771 -1.4801
 4019SOL     OW24115   8.426   8.633   4.228 -0.3715  0.0923  0.1396
 4019SOL    HW124116   8.493   8.588   4.168  1.4666  1.1368  1.3260
 4019SOL    HW224117   8.336   8.593   4.215  0.8768 -2.7405 -0.0889
 4020SOL     OW24118   8.044   2.517   5.603  0.4056 -1.0742  0.0974
 4020SOL    HW124119   8.004   2.566   5.526 -1.2066 -0.6677  1.1529
 4020SOL    HW224120   8.081   2.430   5.573  1.2009 -0.2277 -1.3996
 4021SOL     OW24121   2.105   6.075   6.969 -0.2317  0.0841  0.4210
 4021SOL    HW124122   2.182   6.022   7.004 -0.5364 -1.0753 -0.6189
 4021SOL    HW224123   2.020   6.043   7.012  0.0544  2.6343  2.9846
 4022SOL     OW24124   7.662   0.250   2.300  0.1954 -0.6511  0.0623
 4022SOL    HW124125   7.741   0.190   2.307 -0.9242 -2.2216 -0.5150
 4022SOL    HW224126   7.579   0.201   2.327 -0.5236  1.1282  1.1921
 4023SOL     OW24127   0.040   9.528   9.886 -0.3225  0.0047 -0.3055
 4023SOL    HW124128   0.129   9.494   9.854  0.0298  0.3993  0.2558
 4023SOL    HW224129  -0.022   9.451   9.900  0.6779 -0.4839  1.6133
 4024SOL     OW24130   5.849   3.871   0.143 -0.1449 -0.1139 -0.1060
 4024SOL    HW124131   5.843   3.876   0.243  0.4193 -0.6909 -0.0425
 4024SOL    HW224132   5.777   3.929   0.103  0.4520  1.1654  0.6287
 4025SOL     OW24133   3.384   8.799   6.334  1.0171 -0.0134  0.2867
 4025SOL    HW124134   3.358   8.703   6.339  1.0356 -0.1553 -1.7824
 4025SOL    HW224135   3.327   8.853   6.396  1.5620 -1.4592  2.0707
 4026SOL     OW24136   1.574   4.400   5.324  0.5502  0.0697 -0.0542
 4026SOL    HW124137   1.581   4.381   5.422  2.2522 -2.9500 -0.6780
 4026SOL    HW224138   1.517   4.330   5.281 -0.9491  1.8964 -1.1197
 4027SOL     OW24139   6.743   6.238   9.436 -0.4287  0.2396  0.0451
 4027SOL    HW124140   6.738   6.141   9.411 -0.9410  0.5439 -1.0856
 4027SOL    HW224141   6.759   6.293   9.354 -3.3661  1.3774  0.1558
 4028SOL     OW24142   0.099   2.740   6.524 -0.4435  0.9502 -0.7307
 4028SOL    HW124143   0.077   2.670   6.457  1.8090 -0.9383  0.4366
 4028SOL    HW224144   0.045   2.725   6.607  0.5892  0.1131 -0.1996
 4029SOL     OW24145   9.838   9.729   8.664 -0.1005  0.0140  0.2461
 4029SOL    HW124146   9.820   9.810   8.720  0.7324  1.5039 -1.5887
 4029SOL    HW224147   9.767   9.661   8.679 -2.2029  2.0943 -0.0498
 4030SOL     OW24148   4.369   3.080   8.653  0.2950 -0.5733 -0.3878
 4030SOL    HW124149   4.452   3.119   8.693 -0.0852 -1.3107  1.1606
 4030SOL    HW224150   4.385   2.985   8.627  0.1366 -0.5107 -0.7158
 4031SOL     OW24151   1.907   2.288   9.691 -0.3179  0.1355  0.1325
 4031SOL    HW124152   1.882   2.193   9.709  0.7804 -0.2015 -0.0894
 4031SOL    HW224153   1.867   2.317   9.604 -0.0405 -0.3545 -0.1574
 4032SOL     OW24154   3.128   8.166   5.337  0.3572 -0.1100 -0.1290
 4032SOL    HW124155   3.042   8.195   5.379 -0.0107 -0.2974 -0.7485
 4032SOL    HW224156   3.195   8.240   5.343 -0.2403  0.4930 -0.7567
 4033SOL     OW24157   1.079   7.610   5.248  0.4656 -0.4887 -0.5980
 4033SOL    HW124158   1.092   7.705   5.221 -1.0302 -0.5433 -1.5314
 4033SOL    HW224159   1.079   7.604   5.348 -2.6546  0.9983 -0.4317
 4034SOL     OW24160   7.297   9.176   7.807  0.5372 -0.5238  0.1723
 4034SOL    HW124161   7.307   9.112   7.732 -0.3725 -0.8143  0.2890
 4034SOL    HW224162   7.333   9.136   7.891  1.3821 -0.2731 -0.0703
 4035SOL     OW24163   4.221   4.623   0.972 -0.3099  0.1390  0.0226
 4035SOL    HW124164   4.250   4.658   1.061  0.6525  1.0382 -0.6203
 4035SOL    HW224165   4.274   4.542   0.949 -0.7791 -0.2780  0.4043
 4036SOL     OW24166   1.644   3.927   3.179  0.5309  0.2405  0.3427
 4036SOL    HW124167   1.590   3.934   3.263  0.8027 -0.3826  0.5744
 4036SOL    HW224168   1.587   3.953   3.101 -0.8207 -2.5038  0.3429
 4037SOL     OW24169   0.138   8.876   8.493 -0.3987  0.8111  0.3601
 4037SOL    HW124170   0.122   8.875   8.395  0.6663 -1.8838  0.1762
 4037SOL    HW224171   0.211   8.941   8.514 -0.7626  1.5417 -0.5744
 4038SOL     OW24172   1.222   7.037   2.634  0.1185 -0.1626  0.2655
 4038SOL    HW124173   1.197   6.962   2.573 -1.9595  0.1658  0.6469
 4038SOL    HW224174   1.249   7.000   2.723  1.3833 -0.5565 -0.2761
 4039SOL     OW24175   2.922   6.614   6.983 -0.4652 -0.2597  0.4849
 4039SOL    HW124176   2.939   6.654   7.073  0.6569 -0.9791  0.6033
 4039SOL    HW224177   2.827   6.585   6.976 -0.6869  0.2778  1.2498
 4040SOL     OW24178   3.005   4.595   6.126 -0.0699 -0.4256  0.0713
 4040SOL    HW124179   2.922   4.648   6.145  0.3771 -0.5720  2.6226
 4040SOL    HW224180   3.006   4.513   6.184  3.0142  0.8285  1.9225
 4041SOL     OW24181   2.235   9.413   5.918  0.1007  0.2553 -0.1307
 4041SOL    HW124182   2.281   9.491   5.876  2.7373  0.3416  2.7663
 4041SOL    HW224183   2.215   9.433   6.014 -0.3491 -2.1337  0.3087
 4042SOL     OW24184   2.009   7.702   1.265  0.1187 -0.3415 -0.2582
 4042SOL    HW124185   1.982   7.791   1.302  1.5517  0.5081 -1.2452
 4042SOL    HW224186   2.021   7.638   1.341 -0.5828  0.3837  0.4884
 4043SOL     OW24187   9.778   7.926   0.222 -0.1161  0.1337  0.1055
 4043SOL    HW124188   9.846   7.863   0.186  0.7010  0.2372  1.4545
 4043SOL    HW224189   9.762   7.999   0.155 -1.7994 -1.9876 -1.9136
 4044SOL     OW24190   8.676   6.966   7.674  0.1653  0.9303  0.7924
 4044SOL    HW124191   8.605   7.036   7.671  0.8601  1.6102 -0.1963
 4044SOL    HW224192   8.765   7.009   7.659  0.3916 -0.4839 -2.2635
 4045SOL     OW24193   4.374   9.363   8.326  0.1173 -0.7617  0.2075
 4045SOL    HW124194   4.368   9.280   8.271 -0.0398 -1.3224  1.0585
 4045SOL    HW224195   4.444   9.351   8.397 -1.4879 -1.0291  1.7886
 4046SOL     OW24196   0.135   0.927   3.757 -0.5909  0.2097  0.1313
 4046SOL    HW124197   0.216   0.951   3.703 -0.0910 -0.4465  0.5841
 4046SOL    HW224198   0.100   1.009   3.803 -0.1394  0.4767  0.0043
 4047SOL     OW24199   9.287   3.078   8.498  0.5641 -0.6767 -0.3386
 4047SOL    HW124200   9.212   3.024   8.459 -0.5412 -1.4500  2.6951
 4047SOL    HW224201   9.250   3.162   8.538  0.9377 -2.1338  3.2029
 4048SOL     OW24202   9.483   8.870   6.588  0.4747 -0.5223  0.0275
 4048SOL    HW124203   9.570   8.915   6.609  0.8272 -1.5745  0.8919
 4048SOL    HW224204   9.409   8.918   6.636  0.4713  0.8118 -1.2889
 4049SOL     OW24205   8.183   5.993   5.120  0.3699  0.2014  0.4996
 4049SOL    HW124206   8.091   6.027   5.102 -0.3627 -0.6294  2.5305
 4049SOL    HW224207   8.183   5.893   5.118  1.1771  0.1960  0.6993
 4050SOL     OW24208   2.714   5.329   5.534  0.2692 -0.1709 -0.1806
 4050SOL    HW124209   2.676   5.401   5.476  0.5823  0.3670  0.2797
 4050SOL    HW224210   2.654   5.313   5.612  0.4631 -0.0407 -0.0034
 4051SOL     OW24211   7.052   3.260   0.850 -0.4110  0.0774 -0.0495
 4051SOL    HW124212   6.989   3.298   0.918 -0.0027  0.5643  0.0583
 4051SOL    HW224213   7.097   3.334   0.801 -1.3014 -0.2586 -1.4217
 4052SOL     OW24214   5.492   1.686  10.030  0.6417 -0.2054  0.9610
 4052SOL    HW124215   5.551   1.606  10.014  0.4836 -0.3561  1.1272
 4052SOL    HW224216   5.447   1.677  10.119 -1.5021 -1.2751 -0.1888
 4053SOL     OW24217   9.608   8.523   1.047  0.3975 -0.4071 -0.1948
 4053SOL    HW124218   9.540   8.477   0.990  0.1714 -1.2450  0.7555
 4053SOL    HW224219   9.678   8.457   1.075 -0.9017 -0.6085  2.6759
 4054SOL     OW24220   3.312   9.620   0.762  0.0295  0.4356  0.6237
 4054SOL    HW124221   3.257   9.685   0.816 -0.9168 -0.4174  0.7002
 4054SOL    HW224222   3.252   9.572   0.697  0.6888 -0.5340  0.7299
 4055SOL     OW24223   4.158   9.246   5.254 -0.0564 -0.4704  0.2853
 4055SOL    HW124224   4.121   9.230   5.345  0.0043  0.5639  0.5044
 4055SOL    HW224225   4.254   9.275   5.261 -0.0877 -0.2643 -0.0896
 4056SOL     OW24226   4.522   2.944   6.558  0.3061  0.0348 -0.3582
 4056SOL    HW124227   4.523   2.846   6.577  1.7356 -0.2210 -1.6864
 4056SOL    HW224228   4.482   2.960   6.467  0.3207  0.6618 -0.2573
 4057SOL     OW24229   9.065   2.726   7.975 -0.1334  0.2807 -0.2513
 4057SOL    HW124230   9.070   2.814   7.927  1.4240  1.7093  2.4516
 4057SOL    HW224231   9.109   2.655   7.919 -1.0872  1.2467 -2.2965
 4058SOL     OW24232   0.187   3.595   8.323 -0.0208 -0.5250 -0.5067
 4058SOL    HW124233   0.135   3.558   8.246  1.2447  1.5273 -2.4033
 4058SOL    HW224234   0.262   3.532   8.347 -2.1523 -2.5852  1.0343
 4059SOL     OW24235   8.923   0.130   7.780  0.1422 -0.0748 -0.7444
 4059SOL    HW124236   8.971   0.205   7.824  0.7418 -1.7429  1.5446
 4059SOL    HW224237   8.988   0.070   7.734 -0.2107  0.1909 -1.5926
 4060SOL     OW24238   2.311   1.062   9.667 -0.1074  0.0264  0.7798
 4060SOL    HW124239   2.311   1.026   9.573  1.0567  0.3815  0.6411
 4060SOL    HW224240   2.217   1.068   9.700 -0.5531  0.3108 -0.5220
 4061SOL     OW24241   7.075   1.417   4.563 -0.4717  0.2009  0.3883
 4061SOL    HW124242   7.085   1.323   4.531 -0.8462  0.2259  0.1939
 4061SOL    HW224243   6.978   1.441   4.568 -0.3576  1.2550 -1.6171
 4062SOL     OW24244   0.696   9.634   9.934  0.3013 -0.4834 -0.5208
 4062SOL    HW124245   0.690   9.701  10.008 -2.6610  0.7046 -1.7543
 4062SOL    HW224246   0.762   9.666   9.866  1.2643 -0.4169  0.4246
 4063SOL     OW24247   0.716   1.740   5.395 -0.1226 -0.1909  0.2573
 4063SOL    HW124248   0.695   1.646   5.370 -0.5663  0.2175 -0.9334
 4063SOL    HW224249   0.811   1.746   5.426  0.4055 -0.7524 -1.1929
 4064SOL     OW24250   5.417   8.324   3.256 -0.1766  0.2023 -0.1117
 4064SOL    HW124251   5.393   8.333   3.353  2.1537 -1.2835  0.6436
 4064SOL    HW224252   5.469   8.405   3.228 -1.4509  0.9620 -0.3368
 4065SOL     OW24253   5.931   3.340   8.893 -0.9261 -0.6365  0.0788
 4065SOL    HW124254   5.968   3.350   8.801  2.5124 -1.0051  1.3595
 4065SOL    HW224255   5.887   3.251   8.901 -0.4932 -0.9536 -0.9498
 4066SOL     OW24256   3.702   4.370   5.903  0.4947  0.1754 -0.8294
 4066SOL    HW124257   3.755   4.287   5.920  2.1522  0.8933 -2.3306
 4066SOL    HW224258   3.648   4.358   5.820 -3.6633 -1.4417  1.9331
 4067SOL     OW24259   7.495   0.943   0.999  0.0369 -0.0938 -0.1142
 4067SOL    HW124260   7.508   1.011   1.071  0.7722  1.4421 -1.6413
 4067SOL    HW224261   7.581   0.895   0.983  0.1234  0.2139 -0.5863
 4068SOL     OW24262   7.201   6.016   7.093  0.1884 -0.2164 -0.0973
 4068SOL    HW124263   7.123   5.962   7.063 -0.7513  0.8974  0.3044
 4068SOL    HW224264   7.227   6.081   7.022 -0.1816  0.4204  0.3466
 4069SOL     OW24265   0.615   2.628   6.510  0.1777 -0.0593  0.2472
 4069SOL    HW124266   0.629   2.539   6.554  0.8400 -0.3465 -0.5355
 4069SOL    HW224267   0.557   2.685   6.569  0.0720 -0.8605  0.9372
 4070SOL     OW24268   1.564   9.953   5.625  0.7437 -0.3543  0.3979
 4070SOL    HW124269   1.501   9.883   5.658  0.3956 -0.7505 -1.0926
 4070SOL    HW224270   1.513  10.031   5.591  1.1060  0.1461  0.9939
 4071SOL     OW24271   3.871   6.482   0.523 -0.3447 -0.2055 -0.8513
 4071SOL    HW124272   3.834   6.441   0.607  1.1778 -0.5124 -0.3039
 4071SOL    HW224273   3.971   6.471   0.522 -0.2383  0.7403 -2.2038
 4072SOL     OW24274   2.710   9.943   7.077  0.0814 -0.3501  0.0236
 4072SOL    HW124275   2.661   9.864   7.116 -2.2259  0.3179 -1.3968
 4072SOL    HW224276   2.799   9.953   7.122 -0.1652 -2.9370  1.1649
 4073SOL     OW24277   2.078   3.637   1.720 -0.2258 -0.2006 -0.1498
 4073SOL    HW124278   2.163   3.623   1.670  1.3018  2.4746  1.5771
 4073SOL    HW224279   2.093   3.621   1.817 -1.2858  1.6901  0.3633
 4074SOL     OW24280   0.337   2.098   5.462 -0.0047  0.6113  0.3193
 4074SOL    HW124281   0.244   2.085   5.428  0.6674  1.2606 -1.7993
 4074SOL    HW224282   0.348   2.191   5.498 -0.5003  0.1546  1.6968
 4075SOL     OW24283   0.637   9.029   8.319  0.7668  0.4282  0.3313
 4075SOL    HW124284   0.705   9.019   8.391  0.4790 -0.7166  0.4602
 4075SOL    HW224285   0.549   8.993   8.351 -0.1396  2.7305  0.4921
 4076SOL     OW24286   9.374   5.002   5.164  0.0177 -0.1997 -0.0449
 4076SOL    HW124287   9.450   4.955   5.208 -1.3751 -2.0266  0.4988
 4076SOL    HW224288   9.392   5.008   5.066  0.3117 -1.7895 -0.1155
 4077SOL     OW24289   0.172   7.091   1.916 -0.2497 -0.1448 -0.3278
 4077SOL    HW124290   0.134   7.181   1.891 -0.8556  0.1492  1.5634
 4077SOL    HW224291   0.175   7.032   1.835 -0.3544  1.3913 -1.4794
 4078SOL     OW24292   0.215   4.476   7.641 -0.0231  0.2118 -0.4462
 4078SOL    HW124293   0.229   4.379   7.623  2.2161  0.7584 -2.0125
 4078SOL    HW224294   0.214   4.526   7.554  2.9342  2.0233  0.4506
 4079SOL     OW24295   1.868   3.415   3.140 -0.0988 -0.3390  0.1621
 4079SOL    HW124296   1.864   3.462   3.228 -1.1658  2.4076 -1.2950
 4079SOL    HW224297   1.775   3.395   3.109  0.1768  0.4602 -1.2237
 4080SOL     OW24298   0.637   6.437   2.289 -0.0596  0.0016 -0.2883
 4080SOL    HW124299   0.729   6.453   2.326 -0.7146  1.1895  0.8497
 4080SOL    HW224300   0.640   6.444   2.190  0.8023  1.5351 -0.1756
 4081SOL     OW24301   9.249   2.173   6.576 -0.9077 -0.0624  0.4851
 4081SOL    HW124302   9.348   2.188   6.574 -0.7212 -1.3123 -1.5790
 4081SOL    HW224303   9.220   2.148   6.668  0.6482  0.6199  1.1752
 4082SOL     OW24304   9.299   2.321   5.991 -0.5251 -0.3371  0.4730
 4082SOL    HW124305   9.363   2.397   6.001 -0.5699 -0.1892 -0.3641
 4082SOL    HW224306   9.260   2.322   5.899 -1.0374 -0.9711  0.6808
 4083SOL     OW24307   2.837   7.924   6.660 -1.0078  0.1162  0.0004
 4083SOL    HW124308   2.776   7.979   6.603 -1.8370 -0.8476 -0.0515
 4083SOL    HW224309   2.923   7.907   6.611 -0.2133  2.4482  0.5255
 4084SOL     OW24310   6.417   7.653   2.857  0.7032  0.8602 -0.1472
 4084SOL    HW124311   6.460   7.677   2.944  0.6953 -2.2617  0.7468
 4084SOL    HW224312   6.486   7.616   2.795 -0.3870 -2.9333  0.8315
 4085SOL     OW24313   0.064   1.480   1.069 -0.9019 -0.6710  0.0151
 4085SOL    HW124314   0.112   1.484   0.982 -1.7433  1.0736 -0.3885
 4085SOL    HW224315   0.130   1.474   1.144 -0.1677 -1.6689 -0.6943
 4086SOL     OW24316   2.752   4.307   1.153  0.5023 -0.1947  0.2353
 4086SOL    HW124317   2.808   4.297   1.236  0.5881 -0.5440  0.1384
 4086SOL    HW224318   2.674   4.245   1.159  0.0456  0.4024  0.4352
 4087SOL     OW24319   3.087   1.928   4.271 -0.2932 -0.2432  0.3092
 4087SOL    HW124320   3.013   1.986   4.240  0.5624 -0.5571 -2.4216
 4087SOL    HW224321   3.164   1.933   4.207  1.2814 -1.4685  2.0080
 4088SOL     OW24322   6.382   3.306   1.346  0.2681  0.2057  0.4354
 4088SOL    HW124323   6.403   3.381   1.408 -1.4681  0.8687  0.2513
 4088SOL    HW224324   6.292   3.268   1.368  0.4948 -0.8707 -0.4065
 4089SOL     OW24325   1.739   4.483   1.969 -0.0355 -0.1581  0.3946
 4089SOL    HW124326   1.726   4.537   1.886 -1.9801  0.3737  1.0238
 4089SOL    HW224327   1.728   4.541   2.049  1.2855 -0.7907  1.0593
 4090SOL     OW24328   7.759   7.867   2.162  0.3711  0.0187  0.4876
 4090SOL    HW124329   7.857   7.873   2.140  0.7399 -0.3060  1.9900
 4090SOL    HW224330   7.718   7.958   2.160  0.8262  0.2231  0.4189
 4091SOL     OW24331   9.451   1.660   4.905 -0.1280  0.5156  0.1215
 4091SOL    HW124332   9.521   1.660   4.834  0.1724  1.5562  0.4056
 4091SOL    HW224333   9.362   1.643   4.864  0.2356 -0.3558 -0.3044
 4092SOL     OW24334   7.355   3.390   9.835 -0.2442  0.0130 -0.2370
 4092SOL    HW124335   7.290   3.369   9.762 -3.9090  0.3615  2.7770
 4092SOL    HW224336   7.403   3.307   9.863 -1.3615 -0.7913 -0.6856
 4093SOL     OW24337   7.976   9.832   2.161 -0.3015 -0.5058  0.2170
 4093SOL    HW124338   7.934   9.862   2.075 -1.5005 -0.4970  0.7978
 4093SOL    HW224339   7.915   9.768   2.207  1.0819 -1.8332  0.2526
 4094SOL     OW24340   6.864   5.129   0.383  0.1306  0.0688  0.4759
 4094SOL    HW124341   6.821   5.214   0.352 -1.3197 -1.0728 -0.7154
 4094SOL    HW224342   6.802   5.082   0.447  0.0135 -1.1044 -0.4860
 4095SOL     OW24343   6.752   3.370   0.636 -0.1287  0.2091 -0.1218
 4095SOL    HW124344   6.669   3.422   0.655  0.3089 -0.1933  3.0898
 4095SOL    HW224345   6.831   3.430   0.636  0.2295 -0.2124  2.4047
 4096SOL     OW24346   4.262   0.679   9.179 -0.3583  0.0086  0.0835
 4096SOL    HW124347   4.341   0.618   9.176 -0.0071  0.5639 -2.8731
 4096SOL    HW224348   4.178   0.624   9.182  0.0506 -0.5783  1.3850
 4097SOL     OW24349   8.457   8.694   1.647 -0.8523 -0.2131 -0.5113
 4097SOL    HW124350   8.424   8.786   1.668 -0.4516  0.4498 -2.7439
 4097SOL    HW224351   8.391   8.627   1.681 -1.3045  0.8800  0.8320
 4098SOL     OW24352   0.764   8.511   6.305 -0.0464  0.0972 -0.4117
 4098SOL    HW124353   0.780   8.610   6.313 -0.4860  0.0155  1.9336
 4098SOL    HW224354   0.684   8.486   6.360 -0.4103 -1.4666 -1.6179
 4099SOL     OW24355   1.409   6.556   6.246 -0.3691  0.3543  0.9269
 4099SOL    HW124356   1.386   6.475   6.192  1.1731 -0.2295  1.1134
 4099SOL    HW224357   1.508   6.573   6.240 -0.5317  1.6277  1.7042
 4100SOL     OW24358   2.209   9.823   1.366 -0.6868 -0.2805  0.1537
 4100SOL    HW124359   2.175   9.749   1.424 -0.5187 -1.2092 -0.9124
 4100SOL    HW224360   2.240   9.785   1.279  0.8794  0.8421  0.2035
 4101SOL     OW24361   3.507   2.678   4.382  0.1289 -0.4390  0.2323
 4101SOL    HW124362   3.493   2.626   4.298 -1.7543  1.0427 -0.4335
 4101SOL    HW224363   3.601   2.669   4.412  1.0043 -0.5356 -2.3777
 4102SOL     OW24364   2.989   7.260   7.175 -0.7036 -0.2798 -0.4463
 4102SOL    HW124365   2.971   7.165   7.148 -0.0661 -0.3951 -0.4669
 4102SOL    HW224366   2.959   7.274   7.269 -0.0283 -0.7339 -0.1580
 4103SOL     OW24367   9.405   4.033   5.670  0.0060 -0.2292 -0.4446
 4103SOL    HW124368   9.390   4.082   5.756  0.5955 -2.6552  1.0931
 4103SOL    HW224369   9.481   3.969   5.681 -0.3326 -1.0451 -2.5760
 4104SOL     OW24370   3.409   4.458   1.042 -0.1812 -0.2565 -0.6249
 4104SOL    HW124371   3.324   4.486   0.996 -1.7663 -0.6671  1.9698
 4104SOL    HW224372   3.390   4.439   1.138  2.2974 -3.2042 -0.6625
 4105SOL     OW24373   4.798   5.542   7.433  0.1277  0.3140  0.1727
 4105SOL    HW124374   4.845   5.508   7.352 -1.4929 -1.4764 -0.0591
 4105SOL    HW224375   4.826   5.489   7.513  2.6791  2.9000  1.0529
 4106SOL     OW24376   9.169   4.201   7.797 -0.0609  0.1559 -0.4199
 4106SOL    HW124377   9.166   4.179   7.699  1.1798  0.9946 -0.6530
 4106SOL    HW224378   9.235   4.275   7.812 -1.3939  1.1170  0.8443
 4107SOL     OW24379   2.681   8.560   9.837  0.2474 -0.2261 -0.3442
 4107SOL    HW124380   2.733   8.511   9.767 -0.2126 -0.1838 -0.7166
 4107SOL    HW224381   2.739   8.574   9.917  0.6023 -0.7655 -0.5011
 4108SOL     OW24382   8.103   7.525   5.073 -0.7265 -0.0130  0.1942
 4108SOL    HW124383   8.082   7.470   4.992 -2.2607  1.8021 -0.6963
 4108SOL    HW224384   8.072   7.477   5.155 -0.7311 -1.1091 -0.4406
 4109SOL     OW24385   7.817   5.869   7.529 -0.5580  0.2839 -0.4738
 4109SOL    HW124386   7.843   5.964   7.507 -1.7966  0.3985 -1.5228
 4109SOL    HW224387   7.885   5.829   7.590  1.2989  1.0471 -1.9864
 4110SOL     OW24388   8.705   1.307   5.708 -0.3014  0.1518  0.0527
 4110SOL    HW124389   8.681   1.253   5.628  0.3404  0.6831 -0.5127
 4110SOL    HW224390   8.648   1.281   5.785 -1.5924  0.3100 -0.8392
 4111SOL     OW24391   0.995   6.330   2.213  0.4081 -0.2585  0.0063
 4111SOL    HW124392   0.947   6.279   2.283 -0.3973  0.8995  0.3070
 4111SOL    HW224393   0.978   6.289   2.123 -0.2378 -0.5083  0.2448
 4112SOL     OW24394   0.137   8.407   9.924  0.1503  0.1516 -0.2181
 4112SOL    HW124395   0.207   8.465   9.883  0.1852  0.6546  0.5446
 4112SOL    HW224396   0.152   8.312   9.896 -0.0271  0.5310 -1.6205
 4113SOL     OW24397   3.480   7.983   1.319  0.4929 -0.6677 -0.3415
 4113SOL    HW124398   3.418   7.916   1.359  0.1432 -0.1424  0.0163
 4113SOL    HW224399   3.519   7.948   1.234  2.3450 -2.3930  1.1780
 4114SOL     OW24400   1.739   5.422   5.643  0.3791 -0.2073  0.0697
 4114SOL    HW124401   1.697   5.353   5.583  0.7803 -2.7693  2.6279
 4114SOL    HW224402   1.823   5.384   5.682  1.2416  2.2205  0.6225
 4115SOL     OW24403   3.870   4.586   0.399 -0.7111  0.7178  0.0291
 4115SOL    HW124404   3.928   4.586   0.481  0.1453 -0.8785 -0.5540
 4115SOL    HW224405   3.815   4.503   0.398  0.7549 -0.2623 -2.0207
 4116SOL     OW24406   4.229   9.968   4.760 -0.2473  0.2870  0.7515
 4116SOL    HW124407   4.327   9.987   4.756 -0.1007 -0.8178 -2.0824
 4116SOL    HW224408   4.209   9.913   4.841  1.5506  0.1363  1.1088
 4117SOL     OW24409   9.016   5.702  10.073 -0.1524 -0.1725 -0.1344
 4117SOL    HW124410   9.066   5.783  10.102 -0.3250 -0.5184  1.1670
 4117SOL    HW224411   9.022   5.693   9.974  1.6963  0.2292 -0.0771
 4118SOL     OW24412   0.898   6.765   1.649 -0.3380  0.8009  1.2075
 4118SOL    HW124413   0.940   6.841   1.599 -0.3639  0.5940  0.8719
 4118SOL    HW224414   0.822   6.800   1.703 -0.9694  0.8573  0.2892
 4119SOL     OW24415   1.657   9.030   2.111 -0.7477  0.3607  0.2087
 4119SOL    HW124416   1.661   9.075   2.022  0.4070  0.9480  0.5534
 4119SOL    HW224417   1.646   9.099   2.183  0.0036  0.0146  0.6548
 4120SOL     OW24418   0.340   1.547   2.618 -0.0587 -0.1620  0.1349
 4120SOL    HW124419   0.360   1.564   2.521 -1.9191  1.1676 -0.0478
 4120SOL    HW224420   0.242   1.555   2.634 -0.1570 -3.4847  1.5614
 4121SOL     OW24421   7.759   2.921   8.910 -0.0874  0.0131  0.3105
 4121SOL    HW124422   7.710   3.006   8.896 -1.2003 -0.3655  1.7843
 4121SOL    HW224423   7.772   2.906   9.008  1.4100 -0.7701  0.0042
 4122SOL     OW24424   2.261   1.704   4.539 -0.7548  0.5356  0.4078
 4122SOL    HW124425   2.199   1.781   4.525 -0.3509  0.3506 -2.9074
 4122SOL    HW224426   2.282   1.662   4.450  1.1817 -1.7049  1.8630
 4123SOL     OW24427   7.402   5.226   6.802  0.5294  0.0496 -0.0558
 4123SOL    HW124428   7.399   5.319   6.767 -0.3976  1.0733  2.6006
 4123SOL    HW224429   7.312   5.200   6.836  0.5353 -2.2029 -1.6712
 4124SOL     OW24430   5.176   0.222   8.303  0.1244 -0.3118  0.0401
 4124SOL    HW124431   5.222   0.245   8.388 -0.7902 -1.8317  0.9685
 4124SOL    HW224432   5.205   0.131   8.272  0.5264  0.2647 -1.3305
 4125SOL     OW24433   7.467   8.844   1.649 -0.5708 -0.4915  0.2584
 4125SOL    HW124434   7.462   8.811   1.555 -0.7008 -0.4791  0.2600
 4125SOL    HW224435   7.521   8.781   1.704  0.5641  0.1659 -0.1048
 4126SOL     OW24436   8.943   3.173   7.161  0.3852 -0.5405  0.2137
 4126SOL    HW124437   8.853   3.209   7.187  1.1171 -0.0194  2.1315
 4126SOL    HW224438   8.943   3.073   7.171 -0.4929 -0.7209 -1.4610
 4127SOL     OW24439   0.096   0.526   6.967 -0.0421  0.2979  0.3485
 4127SOL    HW124440   0.113   0.437   6.923  2.4636  0.6342  0.5405
 4127SOL    HW224441   0.126   0.599   6.906 -1.5721  1.0020  0.4275
 4128SOL     OW24442   9.774   7.853   6.846 -0.3717 -0.4755 -0.1204
 4128SOL    HW124443   9.725   7.780   6.894  1.6187 -1.7226  0.0803
 4128SOL    HW224444   9.826   7.907   6.912  0.7475 -0.9188 -0.6290
 4129SOL     OW24445   9.861   8.335   5.795 -0.0156  0.1248 -0.2213
 4129SOL    HW124446   9.770   8.342   5.755  0.1240 -2.7069 -1.1395
 4129SOL    HW224447   9.873   8.243   5.834  2.1647  0.7340  0.5906
 4130SOL     OW24448   5.228   0.194   6.935  0.0833  0.6290 -0.0076
 4130SOL    HW124449   5.181   0.280   6.919 -2.0429 -0.5701 -0.4643
 4130SOL    HW224450   5.246   0.149   6.847  1.0706  0.5578  0.2290
 4131SOL     OW24451   8.483   2.497   1.833 -0.3000 -0.1002  0.4711
 4131SOL    HW124452   8.482   2.597   1.826 -1.6733 -0.0578  1.1000
 4131SOL    HW224453   8.463   2.457   1.744  0.7853  0.1835  0.1025
 4132SOL     OW24454   4.968   2.365   5.698 -0.9753  0.0721  0.3813
 4132SOL    HW124455   5.045   2.304   5.682 -1.7801 -0.9940  0.4896
 4132SOL    HW224456   4.883   2.314   5.689 -1.5946  0.4871  3.3729
 4133SOL     OW24457   2.243   7.627   0.141  0.7865 -0.0915  0.0256
 4133SOL    HW124458   2.340   7.640   0.121  0.7728 -1.7706 -1.2058
 4133SOL    HW224459   2.232   7.606   0.238  1.5952  0.6279  0.2797
 4134SOL     OW24460   4.896   2.838   0.815  0.4871 -0.0267  0.0958
 4134SOL    HW124461   4.865   2.755   0.768 -0.0623  0.0740  0.2808
 4134SOL    HW224462   4.905   2.821   0.913  0.4232  0.1170  0.1279
 4135SOL     OW24463   0.314   6.077   3.057  0.4143 -0.1935 -0.4060
 4135SOL    HW124464   0.347   6.100   2.965  1.5285  0.0966  0.0514
 4135SOL    HW224465   0.392   6.069   3.118 -0.4169  1.2397  0.8826
 4136SOL     OW24466   0.886   8.010   6.129  0.0989  0.1242 -0.1287
 4136SOL    HW124467   0.864   8.106   6.148  1.0266  0.2594  0.2938
 4136SOL    HW224468   0.957   7.979   6.193  0.4000 -0.5934 -0.8019
 4137SOL     OW24469   3.817   8.284   3.012 -0.0367 -0.1945 -0.3761
 4137SOL    HW124470   3.787   8.379   3.023 -0.0162 -0.2784  0.3897
 4137SOL    HW224471   3.917   8.280   3.017 -0.0863 -0.3841  0.5835
 4138SOL     OW24472   9.544   1.503   7.744  0.1816 -0.4745 -0.4558
 4138SOL    HW124473   9.577   1.448   7.821 -0.6617 -0.2463  0.0716
 4138SOL    HW224474   9.476   1.568   7.777  0.4810  0.2445 -1.2409
 4139SOL     OW24475   8.298   5.550   9.245 -0.1313  0.0628  0.3601
 4139SOL    HW124476   8.368   5.480   9.230 -0.0857 -0.2805  2.0506
 4139SOL    HW224477   8.211   5.518   9.207  0.1521 -0.4320  0.1151
 4140SOL     OW24478   4.957   0.291   1.621  0.3797 -0.3986 -0.1243
 4140SOL    HW124479   5.001   0.226   1.559 -1.5386  0.0206 -1.9641
 4140SOL    HW224480   4.911   0.362   1.568  0.6634  1.3012  1.8336
 4141SOL     OW24481   6.692   5.338   6.937  0.3028 -0.0351 -0.4576
 4141SOL    HW124482   6.718   5.341   6.840  0.6898  0.7397 -0.3304
 4141SOL    HW224483   6.593   5.329   6.945  0.3637 -1.3296 -0.9335
 4142SOL     OW24484   0.138   4.225   1.616 -0.2082 -0.3676 -0.5923
 4142SOL    HW124485   0.198   4.155   1.577  0.5318 -0.1346  0.0852
 4142SOL    HW224486   0.093   4.276   1.543  2.3055  1.0583 -1.2236
 4143SOL     OW24487   4.197   2.546   6.682 -0.2168 -0.3798 -0.1955
 4143SOL    HW124488   4.161   2.606   6.753  1.0847 -0.3420  0.4501
 4143SOL    HW224489   4.276   2.590   6.638 -0.7714 -0.5715 -1.3896
 4144SOL     OW24490   3.931   1.908   4.776 -0.1302 -0.3042  0.3812
 4144SOL    HW124491   3.843   1.865   4.795 -0.7507  1.2762  1.1664
 4144SOL    HW224492   3.955   1.970   4.851  1.0967  0.1431 -0.3630
 4145SOL     OW24493   2.084   9.100   6.791 -0.3178 -0.2238  0.1538
 4145SOL    HW124494   2.014   9.117   6.860 -1.2212 -1.0483 -0.5529
 4145SOL    HW224495   2.105   9.002   6.787  0.1696 -0.1075 -0.3087
 4146SOL     OW24496   0.951   5.145   9.743 -0.1318 -0.3102 -0.4866
 4146SOL    HW124497   0.863   5.110   9.777 -0.1130  0.1967  0.0989
 4146SOL    HW224498   1.001   5.186   9.819 -0.0736  0.8378 -1.1365
 4147SOL     OW24499   8.255   7.129   5.693  0.7798  0.2774  0.4541
 4147SOL    HW124500   8.286   7.216   5.654  0.3747 -0.1960 -0.9750
 4147SOL    HW224501   8.318   7.100   5.765  1.0814  1.6026  0.7435
 4148SOL     OW24502   3.092   1.686   4.000  0.5671 -0.2341  0.0804
 4148SOL    HW124503   3.126   1.599   4.034  0.5129  0.1653  1.1724
 4148SOL    HW224504   3.139   1.709   3.914 -0.8700 -2.3097 -1.3152
 4149SOL     OW24505   0.194   4.538   8.840  0.3781 -0.6268 -0.5587
 4149SOL    HW124506   0.165   4.545   8.935  0.2524 -1.9145 -0.4936
 4149SOL    HW224507   0.237   4.624   8.812  0.4572 -0.2547  0.6649
 4150SOL     OW24508   4.371   7.871   3.875  0.2448 -0.0845  0.0021
 4150SOL    HW124509   4.446   7.931   3.845 -1.4926  0.6518 -3.0365
 4150SOL    HW224510   4.404   7.776   3.878  1.9097  0.4902  1.0018
 4151SOL     OW24511   9.302   7.349   6.754 -0.0985 -0.4508  0.1595
 4151SOL    HW124512   9.279   7.391   6.842  0.9150 -1.2192  0.8042
 4151SOL    HW224513   9.312   7.250   6.766 -0.2746 -0.5990 -0.8911
 4152SOL     OW24514   3.457   4.406   7.357  0.3367 -0.1673  0.5131
 4152SOL    HW124515   3.547   4.426   7.394  0.1519  1.4978  0.0823
 4152SOL    HW224516   3.465   4.387   7.259  0.1214  0.7018  0.3279
 4153SOL     OW24517   5.195   2.206   5.662  0.2382  0.1860 -0.3429
 4153SOL    HW124518   5.259   2.280   5.683  1.1672 -0.2841 -1.4648
 4153SOL    HW224519   5.240   2.118   5.675 -1.2299 -0.2502  2.1559
 4154SOL     OW24520   6.743   2.092   2.621 -0.4988  0.6379  0.3079
 4154SOL    HW124521   6.660   2.132   2.660 -0.5287 -0.6760  1.6709
 4154SOL    HW224522   6.745   1.993   2.641  1.4717  0.6850  0.4888
 4155SOL     OW24523   7.254   9.202   7.242 -0.3256  0.5005  0.2426
 4155SOL    HW124524   7.341   9.156   7.261 -0.2426  0.1467 -0.9417
 4155SOL    HW224525   7.187   9.134   7.211 -0.1943  1.1696 -1.5467
 4156SOL     OW24526   2.840   4.325   5.739 -0.1596  0.1483 -0.0194
 4156SOL    HW124527   2.911   4.385   5.776  0.5815 -1.9832  2.2280
 4156SOL    HW224528   2.876   4.275   5.661  1.1376 -1.4701  1.5576
 4157SOL     OW24529   8.778   4.139   0.262 -0.0622  0.2847  0.1369
 4157SOL    HW124530   8.868   4.180   0.250  0.3712 -1.0290 -1.3083
 4157SOL    HW224531   8.775   4.091   0.350  1.1264 -0.8285 -0.4172
 4158SOL     OW24532   9.753   4.713   2.180 -0.0530  0.0980  0.4664
 4158SOL    HW124533   9.849   4.690   2.166  0.0081  1.1795 -0.9332
 4158SOL    HW224534   9.702   4.629   2.199  1.0876 -0.5239  0.8455
 4159SOL     OW24535   6.057   8.690   5.794 -0.2716  0.5156 -0.2715
 4159SOL    HW124536   6.053   8.611   5.734 -0.4277  0.1705  0.1953
 4159SOL    HW224537   6.142   8.688   5.847 -0.1542  0.7963 -0.4458
 4160SOL     OW24538   4.394   6.093   3.587  0.0540 -0.9149 -1.5950
 4160SOL    HW124539   4.490   6.080   3.562  0.4429  0.3583 -0.7972
 4160SOL    HW224540   4.365   6.185   3.562 -0.0120 -0.1757  1.0560
 4161SOL     OW24541   3.616   9.543   3.045  0.2249  0.0896  0.4061
 4161SOL    HW124542   3.528   9.554   2.999  0.5159  0.0362 -0.1687
 4161SOL    HW224543   3.680   9.612   3.011  0.3979  0.1445  0.8395
 4162SOL     OW24544   1.704   6.763   2.290  0.4008  0.5553  0.0440
 4162SOL    HW124545   1.670   6.768   2.384  1.4120 -3.2297  0.6975
 4162SOL    HW224546   1.794   6.806   2.286  0.7504 -0.0553  1.0396
 4163SOL     OW24547   5.212   2.862   6.626 -0.4353  0.3323 -0.2477
 4163SOL    HW124548   5.219   2.823   6.533  0.6428 -0.8721  0.3194
 4163SOL    HW224549   5.301   2.898   6.653 -0.9654  1.4666 -0.0077
 4164SOL     OW24550   0.732   2.216   3.797  0.2062 -0.4639  0.3594
 4164SOL    HW124551   0.797   2.242   3.870  0.2506 -0.3270  0.2705
 4164SOL    HW224552   0.744   2.276   3.719  0.1583 -0.6135  0.2372
 4165SOL     OW24553   3.515   5.027   1.557 -0.4261  0.1002 -0.2848
 4165SOL    HW124554   3.586   5.098   1.557 -1.3074  0.9837 -0.5479
 4165SOL    HW224555   3.541   4.954   1.620  1.1438 -0.0021 -1.0245
 4166SOL     OW24556   7.269   7.993   6.083 -0.3992 -0.5141 -0.0751
 4166SOL    HW124557   7.290   8.057   6.008  1.1432 -1.2691 -0.3043
 4166SOL    HW224558   7.194   7.933   6.055 -0.3118 -0.3140 -0.7503
 4167SOL     OW24559   9.791   0.786   1.301  0.4515 -0.2779 -0.3675
 4167SOL    HW124560   9.731   0.759   1.226  0.3474 -1.3592  0.0958
 4167SOL    HW224561   9.885   0.759   1.280  0.4595 -0.3618 -0.2195
 4168SOL     OW24562   7.246   0.246   7.525 -0.0577  0.2127 -0.3645
 4168SOL    HW124563   7.318   0.182   7.555 -0.9488 -1.4564 -1.6875
 4168SOL    HW224564   7.228   0.232   7.428 -2.0195  0.7806 -0.0919
 4169SOL     OW24565   9.973   1.357   2.166 -0.0599  0.0963  0.1481
 4169SOL    HW124566   9.989   1.346   2.264 -1.0422 -0.2437  0.2771
 4169SOL    HW224567  10.054   1.329   2.116  1.2702  2.3611  0.9597
 4170SOL     OW24568   4.167   5.922   1.598 -0.0153 -1.0067  0.2290
 4170SOL    HW124569   4.077   5.904   1.640  1.3311 -1.4459  3.0564
 4170SOL    HW224570   4.196   5.842   1.547 -0.7837 -1.2272  0.1215
 4171SOL     OW24571   6.408   0.245   8.157  0.6324 -0.3879 -0.3235
 4171SOL    HW124572   6.398   0.343   8.173 -0.5128 -0.7222  1.1428
 4171SOL    HW224573   6.490   0.228   8.102 -0.5798  1.5869 -2.8660
 4172SOL     OW24574   9.917   2.667   4.173  0.0467  0.2485 -0.0221
 4172SOL    HW124575   9.929   2.730   4.096 -0.3912 -0.6071 -0.7923
 4172SOL    HW224576   9.820   2.654   4.190  0.1402  0.6166  0.8398
 4173SOL     OW24577   9.649   8.303   3.666 -0.1507  0.4366  0.3111
 4173SOL    HW124578   9.705   8.258   3.597 -1.3034 -0.9301  0.2271
 4173SOL    HW224579   9.663   8.258   3.755  1.4785  2.3145  1.0205
 4174SOL     OW24580   4.471   7.619   4.030 -0.3928 -0.2306 -0.0920
 4174SOL    HW124581   4.407   7.637   4.105  0.2386  3.1232 -0.3065
 4174SOL    HW224582   4.553   7.575   4.067 -1.2500 -1.1863  0.7237
 4175SOL     OW24583   4.267   0.489   2.408  0.2139 -0.2741  0.5852
 4175SOL    HW124584   4.175   0.484   2.447  0.2077  2.1444  0.9609
 4175SOL    HW224585   4.264   0.458   2.313 -1.0069 -0.2109  0.5905
 4176SOL     OW24586   6.603   2.653   2.401 -0.0897 -0.6965  0.0416
 4176SOL    HW124587   6.629   2.564   2.438 -1.2644 -0.6255  1.0656
 4176SOL    HW224588   6.684   2.712   2.397  0.6490 -1.7395 -0.4443
 4177SOL     OW24589   1.861   2.001   0.364 -0.6132 -0.3117  0.1288
 4177SOL    HW124590   1.940   1.993   0.425 -2.7095  1.0946  3.1791
 4177SOL    HW224591   1.814   1.913   0.358  1.1605 -1.1734 -1.7579
 4178SOL     OW24592   3.564   9.165   4.825  0.4414 -0.1376 -0.3080
 4178SOL    HW124593   3.629   9.237   4.850  0.4694  0.9252 -3.3015
 4178SOL    HW224594   3.516   9.190   4.742 -0.3289 -3.1116 -0.8264
 4179SOL     OW24595   3.847   3.900   8.779 -0.3047 -0.2093 -0.2571
 4179SOL    HW124596   3.878   3.813   8.816  2.3706 -0.4291 -2.7623
 4179SOL    HW224597   3.837   3.967   8.852 -1.6932 -2.3879  1.5991
 4180SOL     OW24598   7.912   7.694   1.921  0.2808  0.1731  0.1295
 4180SOL    HW124599   7.965   7.617   1.884 -0.1873 -0.5902  1.0232
 4180SOL    HW224600   7.851   7.661   1.993 -0.8460  1.1807 -0.3419
 4181SOL     OW24601   2.740   1.998   5.873  0.0419  0.1553 -0.3099
 4181SOL    HW124602   2.747   1.947   5.959  2.2341 -1.5493 -1.4337
 4181SOL    HW224603   2.694   1.941   5.805  0.0765  0.7296 -0.8142
 4182SOL     OW24604   9.974   2.869   1.300  0.3497  0.4213  0.1645
 4182SOL    HW124605   9.910   2.836   1.369  1.0614 -0.4914  0.3987
 4182SOL    HW224606  10.035   2.936   1.340 -0.2130  1.0190  0.0334
 4183SOL     OW24607   5.753   5.488  10.008  0.1548 -0.1358  0.3395
 4183SOL    HW124608   5.653   5.491  10.004  0.0548 -0.2600  2.3443
 4183SOL    HW224609   5.786   5.409   9.955 -0.7198  0.5060 -1.2080
 4184SOL     OW24610   2.791   5.077   7.860  0.4824 -0.1989  0.5642
 4184SOL    HW124611   2.711   5.134   7.882 -0.6939 -1.1028 -1.1770
 4184SOL    HW224612   2.776   4.984   7.894 -0.5537 -1.1296 -2.2136
 4185SOL     OW24613   7.621   9.816   6.767  0.1783  0.5244  0.1288
 4185SOL    HW124614   7.625   9.843   6.863  0.0743  0.1763  0.2340
 4185SOL    HW224615   7.594   9.719   6.761 -1.2642  0.9315 -0.2853
 4186SOL     OW24616   3.125   3.688   4.340 -0.2149 -0.3015  0.0879
 4186SOL    HW124617   3.142   3.629   4.419  0.6181 -0.3033 -0.0930
 4186SOL    HW224618   3.170   3.649   4.259 -1.2718 -0.4338 -0.4472
 4187SOL     OW24619   3.720   5.391   6.148 -0.1139 -0.3099 -0.4069
 4187SOL    HW124620   3.787   5.463   6.169 -1.1382  0.1717  1.3423
 4187SOL    HW224621   3.751   5.340   6.068  1.3103  1.2174 -0.8832
 4188SOL     OW24622   1.412   2.161   9.364  0.0831  0.2547 -0.3583
 4188SOL    HW124623   1.505   2.196   9.378  1.1197 -2.2295 -0.6449
 4188SOL    HW224624   1.414   2.061   9.369 -2.1735  0.0505 -2.7752
 4189SOL     OW24625   3.492   8.672   6.062 -0.1785  0.3547  0.0322
 4189SOL    HW124626   3.448   8.721   6.137  0.1550  1.9251 -0.7805
 4189SOL    HW224627   3.466   8.575   6.066 -0.6012  0.5287  1.8294
 4190SOL     OW24628   5.196   1.964   7.324  0.2560 -0.8013  0.4901
 4190SOL    HW124629   5.272   1.948   7.388  1.0821 -0.5208 -0.4110
 4190SOL    HW224630   5.224   1.937   7.232 -0.4512  0.1004  0.0081
 4191SOL     OW24631   9.838   4.795   1.488  0.3663  0.3880  0.8007
 4191SOL    HW124632   9.923   4.742   1.488  0.3708  0.3951  0.4041
 4191SOL    HW224633   9.771   4.751   1.429 -0.0125  0.2161  1.3510
 4192SOL     OW24634   0.915   9.868   2.374 -0.1899 -0.4628 -0.2629
 4192SOL    HW124635   0.827   9.823   2.389 -1.2322  1.1223 -1.4108
 4192SOL    HW224636   0.943   9.855   2.279  1.0329 -1.3149  0.2042
 4193SOL     OW24637   3.136   2.079   1.717  0.0785  0.1608  0.3108
 4193SOL    HW124638   3.232   2.058   1.735  0.7723  1.9852 -1.1087
 4193SOL    HW224639   3.119   2.177   1.732 -1.6515 -0.1880  0.8548
 4194SOL     OW24640   2.181   0.377   9.943  0.3458  0.4521  0.5712
 4194SOL    HW124641   2.170   0.313  10.020 -0.3911  0.4261  0.4525
 4194SOL    HW224642   2.254   0.442   9.964  0.6122  0.0238  1.0052
 4195SOL     OW24643   2.566   6.772   6.886 -0.1956  0.2756 -0.6860
 4195SOL    HW124644   2.627   6.833   6.835  1.0604  0.0806  0.5656
 4195SOL    HW224645   2.619   6.699   6.929 -1.4390 -0.5068 -0.4418
 4196SOL     OW24646   2.477   6.311   4.760 -0.2198 -0.0840 -0.0594
 4196SOL    HW124647   2.518   6.221   4.779 -0.4745 -0.1291  0.2745
 4196SOL    HW224648   2.390   6.319   4.808  0.1356  0.6091  0.4726
 4197SOL     OW24649   4.148   5.494   9.300 -0.1912 -0.0968 -0.0188
 4197SOL    HW124650   4.078   5.497   9.371 -0.7689  1.1352 -0.6175
 4197SOL    HW224651   4.106   5.467   9.213  0.1481  0.2487 -0.2917
 4198SOL     OW24652   5.398   6.366   9.220  0.8939  1.2259  0.4087
 4198SOL    HW124653   5.420   6.333   9.312 -1.9969  0.9193  1.0521
 4198SOL    HW224654   5.386   6.289   9.158  4.6261  1.4744 -0.7403
 4199SOL     OW24655   8.718   5.644   0.090  1.1962 -0.3318 -0.0183
 4199SOL    HW124656   8.790   5.672   0.026  0.8721 -0.8816 -0.6333
 4199SOL    HW224657   8.731   5.691   0.178  1.8366  0.1781 -0.3792
 4200SOL     OW24658   6.695   2.818   2.948 -0.1268 -0.3178  0.6254
 4200SOL    HW124659   6.667   2.722   2.950 -3.9494  0.6846 -0.1923
 4200SOL    HW224660   6.765   2.831   2.878 -1.3485 -2.0754 -0.9684
 4201SOL     OW24661   3.578   4.066   6.112  0.1704 -0.0901 -0.1052
 4201SOL    HW124662   3.578   4.159   6.074 -3.0430  0.0473  0.0929
 4201SOL    HW224663   3.587   4.000   6.038 -0.1046  0.3172 -0.5078
 4202SOL     OW24664   4.262   9.686   0.360  0.8479 -0.3237 -0.1550
 4202SOL    HW124665   4.178   9.709   0.409  1.4024  0.2984  0.5268
 4202SOL    HW224666   4.331   9.653   0.425  1.5967  0.5164 -0.4956
 4203SOL     OW24667   9.481   8.332   7.189  0.6781 -0.0054 -0.0444
 4203SOL    HW124668   9.438   8.391   7.256 -0.8721 -0.2059 -0.8417
 4203SOL    HW224669   9.571   8.304   7.221  0.0936  0.1834  1.7809
 4204SOL     OW24670   1.191   2.234   6.874 -0.0611  0.5092 -0.0312
 4204SOL    HW124671   1.199   2.264   6.778 -0.8137  0.2731 -0.1726
 4204SOL    HW224672   1.187   2.314   6.933  1.8797  0.6540 -0.0610
 4205SOL     OW24673   1.581   5.043   5.780 -0.2077  0.1943 -0.1429
 4205SOL    HW124674   1.557   5.041   5.683 -0.0560  0.3727 -0.1836
 4205SOL    HW224675   1.657   5.106   5.795 -0.0509 -0.0396  0.0525
 4206SOL     OW24676   9.288   1.682   1.549  0.4679 -0.1142  0.1200
 4206SOL    HW124677   9.210   1.701   1.489  0.5595 -0.1441 -0.0086
 4206SOL    HW224678   9.309   1.763   1.604  0.8437  0.1520 -0.4091
 4207SOL     OW24679   2.355   0.584   4.669  0.4746 -0.3577 -0.6075
 4207SOL    HW124680   2.290   0.559   4.741 -1.9253 -1.3444 -3.0696
 4207SOL    HW224681   2.389   0.676   4.686 -0.5987 -0.3007  1.3887
 4208SOL     OW24682   9.534   9.300   2.674 -0.5718  0.2045  0.4309
 4208SOL    HW124683   9.547   9.325   2.578  0.5159 -1.6744  0.0759
 4208SOL    HW224684   9.446   9.254   2.684  0.1174 -1.2315 -0.0076
 4209SOL     OW24685   1.126   0.446   4.646  0.2088  0.2682 -0.4981
 4209SOL    HW124686   1.110   0.408   4.738  1.6241  0.3419 -0.2099
 4209SOL    HW224687   1.039   0.477   4.608 -0.3594  0.5343  0.9542
 4210SOL     OW24688   0.255   7.424   3.405 -0.1291  0.0362 -0.4119
 4210SOL    HW124689   0.170   7.371   3.413  0.3210 -0.6286  0.0259
 4210SOL    HW224690   0.333   7.364   3.421  0.3694  0.9888  0.7678
 4211SOL     OW24691   1.782   2.738   0.590 -0.1543  0.6349 -0.1287
 4211SOL    HW124692   1.860   2.783   0.547 -0.1574 -1.0560 -2.0256
 4211SOL    HW224693   1.711   2.722   0.521 -0.4163 -1.6515  0.6154
 4212SOL     OW24694   2.608   6.829   5.460 -0.6877  0.8770 -0.0525
 4212SOL    HW124695   2.620   6.851   5.557 -0.3826 -0.4376  0.2056
 4212SOL    HW224696   2.633   6.910   5.406 -0.3319  1.4509  0.9299
 4213SOL     OW24697   0.307   7.779   6.385 -0.6165 -0.1005 -0.7813
 4213SOL    HW124698   0.221   7.816   6.352 -1.1444  0.4508  1.1271
 4213SOL    HW224699   0.383   7.831   6.346 -1.1425 -0.3809 -2.2172
 4214SOL     OW24700   4.363   6.680   4.516 -0.1052 -0.2238 -0.2020
 4214SOL    HW124701   4.437   6.630   4.471 -2.1070 -1.8795 -1.7488
 4214SOL    HW224702   4.282   6.679   4.457 -1.7254  0.5276  1.9613
 4215SOL     OW24703   0.610   3.717   4.924  0.4140  0.0705  0.0942
 4215SOL    HW124704   0.514   3.743   4.918  0.2534 -0.3459  0.8159
 4215SOL    HW224705   0.618   3.622   4.954  1.0069 -0.7669 -2.5678
 4216SOL     OW24706   4.740   8.326   3.699  0.0951 -0.0404  0.0526
 4216SOL    HW124707   4.773   8.397   3.637 -2.8500  1.4663  0.1178
 4216SOL    HW224708   4.793   8.328   3.784  0.4526  1.6343 -0.1999
 4217SOL     OW24709   0.068   5.904   7.023  0.8550  0.0642  0.5268
 4217SOL    HW124710   0.067   5.835   7.096  2.9006 -0.1019  0.4090
 4217SOL    HW224711  -0.026   5.920   6.992  0.3228 -2.7060  0.5269
 4218SOL     OW24712   5.516   9.942   4.566 -0.0528 -0.0718 -0.2906
 4218SOL    HW124713   5.572   9.882   4.508  0.5160 -0.3796  0.5590
 4218SOL    HW224714   5.563   9.957   4.653 -0.8891  0.3971  0.0868
 4219SOL     OW24715   8.151   8.665   9.514  0.2016 -0.1229  0.0139
 4219SOL    HW124716   8.130   8.695   9.607 -0.2489 -1.1679  0.2546
 4219SOL    HW224717   8.120   8.571   9.501 -3.8661  1.4670 -2.6125
 4220SOL     OW24718   1.591   0.947   7.670  0.0258  0.0651 -0.1323
 4220SOL    HW124719   1.600   0.959   7.769  2.0771 -1.8914 -0.0373
 4220SOL    HW224720   1.515   0.885   7.650 -0.9967  1.1987  0.1250
 4221SOL     OW24721   1.867   9.220   1.941  0.0552  0.2285 -0.1915
 4221SOL    HW124722   1.929   9.260   1.873  0.6244  0.6990  0.5882
 4221SOL    HW224723   1.775   9.217   1.904  0.2007  1.2816 -0.6779
 4222SOL     OW24724   1.589   0.500   1.539 -0.1550 -0.1891  0.2337
 4222SOL    HW124725   1.520   0.557   1.583 -0.5598 -0.1758 -0.4073
 4222SOL    HW224726   1.674   0.505   1.591 -0.7559 -0.5520  1.2797
 4223SOL     OW24727   0.701   1.390   8.321 -0.3431 -0.2321 -0.2110
 4223SOL    HW124728   0.751   1.305   8.304 -0.6033 -0.6255  0.9114
 4223SOL    HW224729   0.608   1.368   8.352 -0.5481  0.4660 -0.3293
 4224SOL     OW24730   2.797   0.951   9.045  0.2332  0.0280  0.4506
 4224SOL    HW124731   2.885   0.905   9.052  0.0716 -0.5961 -1.5045
 4224SOL    HW224732   2.809   1.040   9.001 -0.3153 -0.6338 -1.0382
 4225SOL     OW24733   6.536   1.338   9.985  0.6723  0.2372  1.3348
 4225SOL    HW124734   6.521   1.418  10.042  0.8015  0.7668  0.6326
 4225SOL    HW224735   6.628   1.341   9.946  0.8725 -0.5278  1.7428
 4226SOL     OW24736   9.626   6.941   2.844 -0.5221  0.2395  0.0869
 4226SOL    HW124737   9.528   6.925   2.828 -0.3210  0.0266 -0.9908
 4226SOL    HW224738   9.679   6.872   2.795  0.1985  1.0555 -0.2928
 4227SOL     OW24739   9.946   9.893   7.006 -0.4613  0.0259 -0.3320
 4227SOL    HW124740  10.041   9.867   6.987 -0.2803  1.1576 -1.0165
 4227SOL    HW224741   9.914   9.957   6.936 -1.6722 -0.1982  0.0045
 4228SOL     OW24742   9.306   6.395   1.520 -0.1511  0.3235 -0.3991
 4228SOL    HW124743   9.304   6.372   1.423 -2.1308  0.9598 -0.5257
 4228SOL    HW224744   9.310   6.311   1.574  0.6325 -0.0430 -1.0148
 4229SOL     OW24745   9.111   5.380   1.634  0.2700 -0.0016 -0.0842
 4229SOL    HW124746   9.121   5.390   1.733  0.5667 -2.7469  0.1958
 4229SOL    HW224747   9.068   5.292   1.613  1.4902 -0.0871 -2.4360
 4230SOL     OW24748   3.182   7.920   8.678 -0.1269 -0.4795 -0.1322
 4230SOL    HW124749   3.194   7.948   8.773 -0.2468  1.2617 -0.6166
 4230SOL    HW224750   3.271   7.899   8.638 -0.3240 -4.3862  1.2709
 4231SOL     OW24751   1.452   8.896   9.814 -0.3084  0.1403 -0.5524
 4231SOL    HW124752   1.410   8.958   9.748  0.7077  0.9781 -0.4331
 4231SOL    HW224753   1.406   8.906   9.902 -1.2066 -0.4700 -0.9454
 4232SOL     OW24754   3.330   4.466   0.582 -0.5400 -0.3871 -0.6489
 4232SOL    HW124755   3.335   4.515   0.495 -2.0777 -1.0187 -1.1071
 4232SOL    HW224756   3.306   4.370   0.566 -1.5408 -0.3443  0.5203
 4233SOL     OW24757   1.652   3.261   2.181  0.0764 -0.2492  0.0798
 4233SOL    HW124758   1.739   3.246   2.229  0.0748 -0.3944  0.0375
 4233SOL    HW224759   1.658   3.223   2.089  0.7890  1.8424 -0.7617
 4234SOL     OW24760   8.560   9.793   9.661 -0.5105  0.1500  0.4085
 4234SOL    HW124761   8.480   9.738   9.684  0.4325 -1.2529  0.4241
 4234SOL    HW224762   8.535   9.863   9.594 -1.7828 -0.1376  0.5762
 4235SOL     OW24763   5.037   8.493   4.732 -0.0079  0.2076  0.0995
 4235SOL    HW124764   5.136   8.500   4.720 -0.0222  1.0402  0.4588
 4235SOL    HW224765   4.993   8.577   4.700 -0.5824 -0.0686  0.1470
 4236SOL     OW24766   8.163   3.884   9.627 -0.5569  0.3390 -0.2238
 4236SOL    HW124767   8.169   3.786   9.648 -1.1946  0.4186  0.3113
 4236SOL    HW224768   8.205   3.900   9.537  0.0053 -0.3467 -0.0941
 4237SOL     OW24769   3.117   7.159   4.772  0.2042 -0.1036  0.2703
 4237SOL    HW124770   3.046   7.198   4.832 -0.0647  0.2370 -0.2648
 4237SOL    HW224771   3.127   7.062   4.791 -0.3229 -0.1284  0.4351
 4238SOL     OW24772   9.863   7.962   8.044  0.3613  0.1328  0.8270
 4238SOL    HW124773   9.918   7.892   8.089  0.1135 -0.4300  0.2671
 4238SOL    HW224774   9.767   7.936   8.046  0.3647  0.0119 -0.1721
 4239SOL     OW24775   6.292   2.020   2.959 -0.7008  0.6385 -0.7271
 4239SOL    HW124776   6.260   2.057   3.046  0.1494  0.3079 -0.2667
 4239SOL    HW224777   6.313   1.923   2.971  0.4478  0.8460 -1.0218
 4240SOL     OW24778   9.713   8.248   7.373 -0.6815 -0.1858 -0.0201
 4240SOL    HW124779   9.749   8.155   7.374 -2.8740 -1.1089 -1.4886
 4240SOL    HW224780   9.785   8.312   7.349  0.6571 -1.6284  0.1057
 4241SOL     OW24781   4.328   0.588   2.779  0.2535  0.1546  0.1378
 4241SOL    HW124782   4.231   0.561   2.781  0.7350 -1.5503  2.7516
 4241SOL    HW224783   4.358   0.597   2.684 -1.5648 -2.6416 -0.7618
 4242SOL     OW24784   2.338   1.920   3.628  0.0218 -0.0646  0.5911
 4242SOL    HW124785   2.414   1.860   3.604  2.0347  0.9127  4.2447
 4242SOL    HW224786   2.280   1.874   3.697 -1.5212  0.0668 -0.5847
 4243SOL     OW24787   0.950   0.572   2.613  0.4646 -0.3049  0.3782
 4243SOL    HW124788   0.951   0.566   2.513  0.5433  0.4588  0.3334
 4243SOL    HW224789   0.951   0.479   2.651  0.7949 -0.5947 -0.3223
 4244SOL     OW24790   1.542   2.825   8.690  0.5709  0.0180 -0.4690
 4244SOL    HW124791   1.466   2.771   8.653  0.3619  0.2811 -0.4245
 4244SOL    HW224792   1.517   2.922   8.690 -0.1252 -0.1247  1.9926
 4245SOL     OW24793   3.871   0.001   6.348  0.1934  0.1694 -0.2286
 4245SOL    HW124794   3.887   0.096   6.375  0.9952 -0.3864  1.2987
 4245SOL    HW224795   3.958  -0.041   6.321  0.3047 -0.9469  1.8034
 4246SOL     OW24796   7.600   3.741   3.238  0.7150 -0.1243 -0.2789
 4246SOL    HW124797   7.577   3.756   3.142  0.0427 -0.7396 -0.2204
 4246SOL    HW224798   7.678   3.679   3.244  0.1788 -0.8275 -0.4213
 4247SOL     OW24799   9.394   8.782   2.060 -0.7512 -0.5991  0.4071
 4247SOL    HW124800   9.377   8.740   1.971  0.3961 -0.9661  0.3435
 4247SOL    HW224801   9.437   8.871   2.046  0.1435 -0.9933  0.5930
 4248SOL     OW24802   3.732   7.837   2.968 -0.2303 -0.2857  0.2254
 4248SOL    HW124803   3.725   7.919   2.911  0.5406 -0.4507 -0.1196
 4248SOL    HW224804   3.643   7.817   3.009 -0.8377 -0.2391 -1.0295
 4249SOL     OW24805   0.745   8.393   3.909 -0.3930 -0.7963  0.4503
 4249SOL    HW124806   0.762   8.468   3.973 -2.6997 -0.8658  1.2039
 4249SOL    HW224807   0.829   8.341   3.895  2.1406  3.7692 -2.5972
 4250SOL     OW24808   4.701   9.999   8.620 -0.1145 -0.2609  0.0428
 4250SOL    HW124809   4.670   9.950   8.538 -1.1330 -1.9376  1.3997
 4250SOL    HW224810   4.764   9.941   8.671  0.2355  0.6426  0.6344
 4251SOL     OW24811   7.879   9.520   7.459 -0.6220 -0.1229 -0.4943
 4251SOL    HW124812   7.897   9.610   7.499 -0.3805 -0.2565 -0.2986
 4251SOL    HW224813   7.829   9.464   7.525 -1.4759  0.1366 -0.9185
 4252SOL     OW24814   6.268   2.582   0.571 -0.2502  0.3136  0.2347
 4252SOL    HW124815   6.173   2.554   0.585 -0.4577  1.7610  1.8601
 4252SOL    HW224816   6.278   2.621   0.480 -1.0826 -0.3755 -0.1616
 4253SOL     OW24817   5.169   5.829   8.484 -0.1397 -0.2204  0.4513
 4253SOL    HW124818   5.196   5.843   8.579 -0.4392 -0.8962  0.6378
 4253SOL    HW224819   5.229   5.760   8.442  0.3972  0.5380 -0.0385
 4254SOL     OW24820   7.418   3.329   0.731 -0.0976  0.0774  0.4981
 4254SOL    HW124821   7.385   3.282   0.649 -1.3133 -0.8816  1.5258
 4254SOL    HW224822   7.495   3.279   0.770  0.8028  0.8002 -0.3122
 4255SOL     OW24823   7.271   5.354   1.116  0.5216 -0.0079 -0.3970
 4255SOL    HW124824   7.279   5.324   1.211  0.8657 -0.5803 -0.6031
 4255SOL    HW224825   7.271   5.274   1.056  0.2614  0.3498 -0.8767
 4256SOL     OW24826   2.296   7.413   1.084 -0.1820  0.2496  0.0142
 4256SOL    HW124827   2.203   7.421   1.048  0.4671  1.3153 -1.4835
 4256SOL    HW224828   2.302   7.464   1.170 -0.7711  0.9544 -0.3492
 4257SOL     OW24829   4.321   6.442   2.957 -0.1484  0.0151  0.1055
 4257SOL    HW124830   4.350   6.390   3.037  2.6685  1.8510  0.3626
 4257SOL    HW224831   4.286   6.531   2.986 -0.7307  0.0127 -0.5816
 4258SOL     OW24832   0.390   6.732   6.058 -0.6379 -0.1250  0.1178
 4258SOL    HW124833   0.366   6.694   6.147 -3.2064 -0.4660 -0.6706
 4258SOL    HW224834   0.434   6.821   6.071 -0.1496 -0.5836  1.7432
 4259SOL     OW24835   1.483   2.218   1.710 -0.3616  0.3813 -0.1289
 4259SOL    HW124836   1.578   2.189   1.695 -0.2756  0.7190 -0.2521
 4259SOL    HW224837   1.482   2.294   1.775 -0.7793 -1.4535  2.0671
 4260SOL     OW24838   6.457   7.279   3.690  0.4256  0.0752  0.0309
 4260SOL    HW124839   6.406   7.249   3.770  0.6374 -1.7944 -0.5104
 4260SOL    HW224840   6.395   7.318   3.623  0.0542  0.2132  0.4536
 4261SOL     OW24841   4.192   3.294   8.027  0.2125 -0.2696  0.1182
 4261SOL    HW124842   4.288   3.315   8.010  0.2933  0.1046  0.9794
 4261SOL    HW224843   4.153   3.365   8.086 -0.9696  0.3309 -1.3518
 4262SOL     OW24844   7.761   0.928   9.898  0.2102 -0.5237 -0.5836
 4262SOL    HW124845   7.824   0.854   9.924  0.6105 -0.2846 -0.8640
 4262SOL    HW224846   7.753   0.992   9.974  1.8577  0.4994 -1.2608
 4263SOL     OW24847   2.682   9.434   4.695  0.2212 -0.2118  0.5842
 4263SOL    HW124848   2.650   9.456   4.603 -0.5239 -0.1329  0.8590
 4263SOL    HW224849   2.778   9.405   4.691  0.1122 -0.4630 -0.2474
 4264SOL     OW24850   0.913   1.929   4.391  0.5125 -0.0147  0.0526
 4264SOL    HW124851   0.852   1.975   4.456 -0.7597  0.2716 -1.3144
 4264SOL    HW224852   0.884   1.834   4.380 -0.5117  0.4613 -1.5653
 4265SOL     OW24853   5.172   6.144   9.456  0.5989 -0.9392 -0.0925
 4265SOL    HW124854   5.268   6.169   9.465  0.6045 -0.5400 -1.1370
 4265SOL    HW224855   5.157   6.104   9.365 -0.6557  1.0641 -0.8103
 4266SOL     OW24856   1.787   4.547   7.258 -0.0098  0.4015  0.4079
 4266SOL    HW124857   1.745   4.505   7.338 -0.9291 -0.1834 -0.3720
 4266SOL    HW224858   1.720   4.605   7.212  0.7301  1.3143  0.4684
 4267SOL     OW24859   1.651   5.801   0.586  0.5310  0.0152  0.3795
 4267SOL    HW124860   1.594   5.775   0.509  0.6399  0.8148  0.0294
 4267SOL    HW224861   1.627   5.745   0.666 -1.3657  0.9689  0.5047
 4268SOL     OW24862   1.566   3.821   8.097 -0.3015  0.3401  0.0768
 4268SOL    HW124863   1.502   3.876   8.043 -0.4040  0.0500 -0.0978
 4268SOL    HW224864   1.659   3.856   8.086 -0.5466  1.3317  1.0519
 4269SOL     OW24865   5.146   6.947   2.245 -0.1547  0.0582 -0.2144
 4269SOL    HW124866   5.226   7.007   2.244  0.8982 -1.2978  1.3020
 4269SOL    HW224867   5.175   6.852   2.256 -1.9417 -0.5194 -0.3151
 4270SOL     OW24868   4.110   0.729   1.264  0.2867  0.3383  0.0781
 4270SOL    HW124869   4.192   0.674   1.250 -0.1898 -0.1819 -0.6971
 4270SOL    HW224870   4.081   0.721   1.360  1.5836  1.1647  0.5525
 4271SOL     OW24871   5.870   9.353   6.735  0.0582  0.5170 -0.6012
 4271SOL    HW124872   5.874   9.361   6.835  0.3846  1.1571 -0.6615
 4271SOL    HW224873   5.786   9.308   6.708 -0.1218  0.5198 -0.0424
 4272SOL     OW24874   5.046   2.646   4.834  0.6701  0.4779 -0.2218
 4272SOL    HW124875   5.073   2.586   4.758  0.1805  0.9824 -0.8043
 4272SOL    HW224876   4.979   2.598   4.891  1.8808 -0.3208  0.5392
 4273SOL     OW24877   0.879   9.339   2.540  0.2276  0.1694 -0.3520
 4273SOL    HW124878   0.954   9.284   2.578 -0.5173 -1.2353 -0.8710
 4273SOL    HW224879   0.901   9.366   2.446  0.8376  1.2397  0.0957
 4274SOL     OW24880   7.645   5.911   2.713 -0.1930  0.6470  0.3062
 4274SOL    HW124881   7.702   5.990   2.689 -2.6951  2.8226  1.1723
 4274SOL    HW224882   7.685   5.862   2.790 -0.4793  3.3990  2.2965
 4275SOL     OW24883   4.640   3.459   1.317  0.4780 -0.2699  0.3150
 4275SOL    HW124884   4.568   3.519   1.282  0.9794  0.7748  1.0838
 4275SOL    HW224885   4.699   3.430   1.241  1.2658  1.5961  0.2047
 4276SOL     OW24886   5.612   8.922   6.868 -0.3863  0.7842 -0.1656
 4276SOL    HW124887   5.594   8.828   6.841  0.4290  0.8366 -0.8972
 4276SOL    HW224888   5.525   8.966   6.894 -0.7806 -0.1212  0.0603
 4277SOL     OW24889   6.250   1.997   3.411  0.1063  0.1629 -0.3574
 4277SOL    HW124890   6.287   1.904   3.420 -0.4068 -0.1436 -1.3539
 4277SOL    HW224891   6.212   2.026   3.498  0.9523 -0.2668  0.1672
 4278SOL     OW24892   2.258   4.397   7.674  0.0177 -0.6936  0.2975
 4278SOL    HW124893   2.264   4.304   7.709  0.5483 -0.4334  0.9021
 4278SOL    HW224894   2.199   4.399   7.592  1.1073 -1.7689 -0.5183
 4279SOL     OW24895   0.369   6.026   8.806 -0.5095  0.1999 -0.6166
 4279SOL    HW124896   0.331   5.999   8.718  0.8845 -0.4100 -1.0494
 4279SOL    HW224897   0.307   6.091   8.851 -2.1717 -0.9913 -1.1500
 4280SOL     OW24898   1.273   1.856   0.564 -0.1112 -0.0635  0.2747
 4280SOL    HW124899   1.184   1.823   0.594  0.4209  0.2162  2.2734
 4280SOL    HW224900   1.324   1.782   0.521 -0.9785 -0.4305 -0.1257
 4281SOL     OW24901   9.404   8.984   3.755  0.0884  0.1499 -0.3684
 4281SOL    HW124902   9.345   8.992   3.675  0.1154  1.5721 -0.2567
 4281SOL    HW224903   9.348   8.966   3.836  0.0946 -1.7057 -0.7510
 4282SOL     OW24904   1.419   4.626   0.083 -0.0560  0.0186  0.2225
 4282SOL    HW124905   1.378   4.701   0.032  0.2743  0.1046  0.0870
 4282SOL    HW224906   1.352   4.590   0.148 -0.2504  0.3535  0.2077
 4283SOL     OW24907   3.153   2.330   0.311 -0.3616  0.3115 -0.1236
 4283SOL    HW124908   3.181   2.342   0.216 -1.0235  2.1054 -0.1094
 4283SOL    HW224909   3.082   2.260   0.316 -0.8555  0.7297 -1.0512
 4284SOL     OW24910   0.222   5.753   6.838  0.0808 -0.4619  0.6439
 4284SOL    HW124911   0.280   5.781   6.761 -0.5686 -0.1704  0.2538
 4284SOL    HW224912   0.190   5.834   6.887  0.5195 -0.6503  1.2400
 4285SOL     OW24913   4.872   0.522   3.210 -0.4923  0.3220  0.5422
 4285SOL    HW124914   4.853   0.582   3.288 -0.4201  1.9689 -0.6979
 4285SOL    HW224915   4.944   0.457   3.235  0.1029  1.3648  1.5931
 4286SOL     OW24916   1.502   5.502   8.178  0.1921 -0.0136 -0.1140
 4286SOL    HW124917   1.463   5.585   8.220 -0.2449 -0.8878  1.2332
 4286SOL    HW224918   1.435   5.463   8.115  0.5710  0.9026 -1.0978
 4287SOL     OW24919   2.038   2.800   3.555  0.5329 -0.4348 -0.0820
 4287SOL    HW124920   2.007   2.876   3.612 -0.7422 -0.4766 -0.7004
 4287SOL    HW224921   2.057   2.720   3.612  0.6481 -0.0454  0.4273
 4288SOL     OW24922   3.842   9.451   7.731  0.5409  0.3192  0.1574
 4288SOL    HW124923   3.772   9.463   7.661  0.8100 -0.6839 -0.2914
 4288SOL    HW224924   3.916   9.517   7.715  0.1800  0.7023  0.0396
 4289SOL     OW24925   7.900   1.929   0.532 -0.0956 -0.5389  0.0164
 4289SOL    HW124926   7.904   1.832   0.508 -3.6077 -1.0094  1.0826
 4289SOL    HW224927   7.925   1.941   0.628  1.5082 -0.2202 -0.4311
 4290SOL     OW24928   0.741   5.607   2.063 -0.1369  0.3721 -0.0827
 4290SOL    HW124929   0.682   5.637   1.988 -0.2138 -0.3648 -0.3170
 4290SOL    HW224930   0.740   5.508   2.069 -0.4586  0.4407  1.1644
 4291SOL     OW24931   2.292   3.179   8.094 -0.0088 -0.8136  0.1523
 4291SOL    HW124932   2.354   3.256   8.089  0.3441 -1.1259 -0.3129
 4291SOL    HW224933   2.339   3.096   8.064 -0.8898 -0.8971 -1.0430
 4292SOL     OW24934   8.691   9.466   9.776  0.2333 -0.0730 -0.2010
 4292SOL    HW124935   8.650   9.515   9.852  1.1281  0.5584 -0.1169
 4292SOL    HW224936   8.745   9.530   9.720  0.1310 -0.6568 -0.9789
 4293SOL     OW24937   1.090   4.479   1.193 -0.2578 -0.1435 -0.1234
 4293SOL    HW124938   1.140   4.548   1.244  0.2156 -0.1276 -0.5965
 4293SOL    HW224939   1.154   4.407   1.163 -0.3102  0.4166 -1.6335
 4294SOL     OW24940   8.573   6.055   0.478 -0.0447  0.5030 -0.3334
 4294SOL    HW124941   8.513   6.090   0.550 -0.0876 -0.3983  0.0711
 4294SOL    HW224942   8.660   6.026   0.518 -0.6816 -1.5458 -0.3891
 4295SOL     OW24943   8.286   7.541   2.039  0.2249  0.1399  0.8720
 4295SOL    HW124944   8.219   7.551   1.965 -0.2218  3.5465  1.6330
 4295SOL    HW224945   8.377   7.561   2.005  0.6455 -2.7075  0.2536
 4296SOL     OW24946   9.719   3.842   7.256 -0.0108  0.5556 -0.3545
 4296SOL    HW124947   9.778   3.797   7.324  0.2821  0.6248 -0.5632
 4296SOL    HW224948   9.645   3.889   7.303 -0.3093 -0.1307 -0.1315
 4297SOL     OW24949   7.239   1.468   3.186 -0.1647  0.4430 -0.6606
 4297SOL    HW124950   7.189   1.550   3.213 -0.2002  0.0469  0.5350
 4297SOL    HW224951   7.303   1.490   3.112 -0.6465  1.3953 -0.7988
 4298SOL     OW24952   8.281   6.336   2.646  0.3350 -0.5866  0.1548
 4298SOL    HW124953   8.204   6.399   2.656 -0.3206 -1.1626 -1.1375
 4298SOL    HW224954   8.343   6.346   2.723 -1.7193 -1.0546  1.9205
 4299SOL     OW24955   3.575   6.678   6.868 -0.7119  0.4261 -0.2370
 4299SOL    HW124956   3.556   6.610   6.939 -0.2689 -0.4916 -0.9852
 4299SOL    HW224957   3.648   6.738   6.898  1.3982 -1.6799 -1.0010
 4300SOL     OW24958   0.246   3.265   3.537  0.1570 -0.0376 -0.1342
 4300SOL    HW124959   0.326   3.231   3.487  1.1688  0.8775  0.8366
 4300SOL    HW224960   0.276   3.319   3.615 -1.4221 -0.2650  0.6541
 4301SOL     OW24961   7.553   4.878   3.856  0.0657 -0.0110  0.0882
 4301SOL    HW124962   7.573   4.917   3.946  1.1305 -1.2625  0.4010
 4301SOL    HW224963   7.535   4.781   3.865  1.8029 -0.4839 -1.2313
 4302SOL     OW24964   9.075   4.541   9.816 -0.1450  0.0076 -0.2020
 4302SOL    HW124965   9.129   4.539   9.731  0.8446  0.3635  0.4067
 4302SOL    HW224966   9.039   4.633   9.830 -1.2367 -0.3192 -0.7977
 4303SOL     OW24967   9.365   2.636   1.429 -0.3986  0.2451  0.1210
 4303SOL    HW124968   9.425   2.604   1.502 -0.6595  2.9174  1.5572
 4303SOL    HW224969   9.287   2.684   1.468  0.0065  2.6906 -1.9127
 4304SOL     OW24970   4.515   0.721   0.398  0.1001  0.2033  0.2448
 4304SOL    HW124971   4.470   0.733   0.309  0.6454  0.2884 -0.0176
 4304SOL    HW224972   4.467   0.776   0.467  1.3726  2.3525 -0.5500
 4305SOL     OW24973   8.123   1.027   2.954 -0.1442  0.4159 -0.2579
 4305SOL    HW124974   8.051   0.964   2.986  1.0657  0.2384  2.2769
 4305SOL    HW224975   8.112   1.115   2.999  0.9602  0.5171 -0.1707
 4306SOL     OW24976   3.050   4.484   1.304 -0.3091  0.0904  0.4224
 4306SOL    HW124977   3.072   4.441   1.216 -0.4530  1.0491 -0.0900
 4306SOL    HW224978   3.011   4.415   1.366 -0.8435 -0.4523 -0.4983
 4307SOL     OW24979   9.452   9.196   0.655  0.0758  0.1862 -0.1019
 4307SOL    HW124980   9.522   9.132   0.687 -0.3376  0.0987  0.6413
 4307SOL    HW224981   9.492   9.287   0.645  0.3342  0.1039  0.1666
 4308SOL     OW24982   9.868   8.838   2.103  0.3550  0.1033 -0.3212
 4308SOL    HW124983   9.822   8.913   2.151  1.0575 -0.0187  0.5466
 4308SOL    HW224984   9.810   8.757   2.105 -0.2496  0.5091 -0.9462
 4309SOL     OW24985   0.676   0.115   1.931 -0.2369 -0.0632  0.0833
 4309SOL    HW124986   0.765   0.157   1.949 -1.4609  2.4655  0.4069
 4309SOL    HW224987   0.606   0.186   1.927 -2.4214 -2.1133  0.9087
 4310SOL     OW24988   4.076   1.810   5.675  0.2796 -0.6273  0.1453
 4310SOL    HW124989   4.104   1.740   5.609 -0.1456 -0.2569 -0.4275
 4310SOL    HW224990   4.156   1.862   5.704  0.3909 -0.4273 -0.5016
 4311SOL     OW24991   8.159   7.005   9.017  0.4095 -0.0657  0.1832
 4311SOL    HW124992   8.244   7.052   9.038  1.1060 -1.4921  0.6159
 4311SOL    HW224993   8.160   6.913   9.056 -1.4206 -0.0377  0.3773
 4312SOL     OW24994   5.124   6.100   0.782  0.6593  0.1140 -0.4129
 4312SOL    HW124995   5.138   6.176   0.845 -0.1187 -0.5785  0.6264
 4312SOL    HW224996   5.167   6.120   0.695  2.2295  0.8641  0.5149
 4313SOL     OW24997   0.322   8.845   7.348  0.7409  0.0295 -0.4590
 4313SOL    HW124998   0.314   8.752   7.383 -0.3440  0.2537 -0.0868
 4313SOL    HW224999   0.306   8.910   7.422 -1.3765  0.5045 -1.2893
 4314SOL     OW25000   6.818   0.385   8.443 -0.3271 -0.1083  1.0663
 4314SOL    HW125001   6.752   0.313   8.464  0.1235 -0.6860  0.4892
 4314SOL    HW225002   6.835   0.388   8.345  1.2422 -0.5930  1.3183
 4315SOL     OW25003   1.984   3.899   1.003  0.4886 -0.1862 -0.6060
 4315SOL    HW125004   1.889   3.929   1.005 -0.3676 -2.8295  1.2664
 4315SOL    HW225005   2.029   3.921   1.089  1.1743 -0.2041 -0.9495
 4316SOL     OW25006   8.513   1.131   2.764  0.1237 -0.0562 -0.1055
 4316SOL    HW125007   8.522   1.207   2.700 -0.3923 -0.2725 -0.4388
 4316SOL    HW225008   8.471   1.164   2.848 -0.7995 -0.1254 -0.5359
 4317SOL     OW25009   2.925   9.963   5.032 -0.2638 -0.6324  0.0744
 4317SOL    HW125010   2.851   9.964   4.965 -0.8063  2.4049  0.6497
 4317SOL    HW225011   2.933  10.053   5.075  2.6542 -1.3896  1.2735
 4318SOL     OW25012   2.405   6.317   5.305 -0.5684  0.2130  0.2267
 4318SOL    HW125013   2.505   6.323   5.309 -0.5617  0.1504  0.1478
 4318SOL    HW225014   2.366   6.384   5.368 -0.4859  0.6995 -0.2353
 4319SOL     OW25015   6.968   8.625   4.340  0.2578  0.2040 -0.3056
 4319SOL    HW125016   6.962   8.640   4.241 -1.4691  1.2676 -0.0694
 4319SOL    HW225017   6.907   8.551   4.366  0.8512 -0.1983 -0.0566
 4320SOL     OW25018   5.636   4.332   8.305 -0.1663  0.2309 -0.1895
 4320SOL    HW125019   5.591   4.264   8.363  1.4043  0.7637  1.7409
 4320SOL    HW225020   5.637   4.301   8.210 -3.8554 -0.1341 -0.1649
 4321SOL     OW25021   1.818   1.459  10.058 -0.1605 -0.2449 -0.1586
 4321SOL    HW125022   1.837   1.553  10.088  0.0813 -0.3460  0.0065
 4321SOL    HW225023   1.721   1.439  10.068 -0.1078 -0.2179  0.3804
 4322SOL     OW25024   4.700   5.663   4.561 -0.0394  0.1529 -0.2884
 4322SOL    HW125025   4.606   5.698   4.567 -0.7980 -1.8710  0.1315
 4322SOL    HW225026   4.737   5.651   4.653  0.9552  1.7247 -0.4673
 4323SOL     OW25027   1.588   5.081   0.908  0.6342 -0.7674  0.5611
 4323SOL    HW125028   1.625   5.047   0.821  2.7667  1.2510  0.6355
 4323SOL    HW225029   1.589   5.007   0.976  1.6360 -1.5961 -0.3372
 4324SOL     OW25030   3.349   6.963   3.178 -0.4080  0.1163 -0.1411
 4324SOL    HW125031   3.445   6.991   3.172 -0.1782 -0.6465 -0.0683
 4324SOL    HW225032   3.338   6.873   3.135 -0.5940 -0.9739  2.1040
 4325SOL     OW25033   7.730   4.569   2.593 -0.4918  0.3150 -0.0102
 4325SOL    HW125034   7.762   4.644   2.649  0.7438  0.0993 -0.4164
 4325SOL    HW225035   7.804   4.502   2.581 -0.3614  0.9052 -2.7987
 4326SOL     OW25036   0.823   0.086   0.476  0.0929  0.4050  0.3418
 4326SOL    HW125037   0.905   0.135   0.506 -0.2742  1.2281  0.0118
 4326SOL    HW225038   0.743   0.143   0.495 -0.2923  0.1444 -0.5260
 4327SOL     OW25039   8.903   3.452   9.277 -0.0879  0.0492  0.1531
 4327SOL    HW125040   9.000   3.474   9.264 -0.2917  0.8879 -0.0129
 4327SOL    HW225041   8.882   3.364   9.233  0.6023 -0.1530  0.2264
 4328SOL     OW25042   6.040   9.735   1.609  0.2410 -1.0809  0.4411
 4328SOL    HW125043   5.954   9.698   1.643 -0.3686 -0.2491 -0.1964
 4328SOL    HW225044   6.065   9.817   1.662 -0.0837 -0.4998 -0.2930
 4329SOL     OW25045   7.973   8.981   4.339  0.2479 -0.5988 -0.0645
 4329SOL    HW125046   8.042   8.920   4.377  1.2911 -0.2894 -1.4180
 4329SOL    HW225047   7.922   8.934   4.267 -0.1218 -0.4205  0.0766
 4330SOL     OW25048   9.805   0.543   9.365  0.4032  0.7073 -0.6148
 4330SOL    HW125049   9.760   0.485   9.297  1.7485  1.2537 -1.9955
 4330SOL    HW225050   9.898   0.510   9.380  1.3509  2.7629 -1.7666
 4331SOL     OW25051   4.872   5.312   0.027  0.0667 -0.5166  0.4004
 4331SOL    HW125052   4.943   5.337   0.094 -0.0864  1.0933 -0.0299
 4331SOL    HW225053   4.886   5.365  -0.057 -1.7343 -0.0766  0.3730
 4332SOL     OW25054   0.858   5.745   3.441 -0.3690 -0.2166  0.1165
 4332SOL    HW125055   0.861   5.721   3.344 -2.0034 -1.1729  0.2854
 4332SOL    HW225056   0.908   5.831   3.455  1.9147 -1.2925 -1.1628
 4333SOL     OW25057   6.519   0.985   5.723  0.3347  0.1395 -1.0304
 4333SOL    HW125058   6.424   0.971   5.698 -0.6719  0.5999  2.2375
 4333SOL    HW225059   6.533   1.080   5.750  1.4922 -0.1305 -0.6334
 4334SOL     OW25060   3.657   9.465   6.301  0.0072  0.3313 -0.1731
 4334SOL    HW125061   3.708   9.419   6.228  1.2560  0.7237  0.4372
 4334SOL    HW225062   3.568   9.495   6.266  1.0750  1.5773 -1.8818
 4335SOL     OW25063   0.873   0.048   3.990  0.1227 -0.1144  0.3350
 4335SOL    HW125064   0.934   0.062   4.068  2.0171 -0.1413 -1.0900
 4335SOL    HW225065   0.872   0.131   3.933  0.7161 -0.9510 -0.9230
 4336SOL     OW25066   0.241   7.242   0.975 -0.2989  0.3703 -0.5730
 4336SOL    HW125067   0.338   7.263   0.966 -0.2047  0.0007 -0.4107
 4336SOL    HW225068   0.229   7.149   1.011 -0.6941  0.8772  0.6448
 4337SOL     OW25069   7.391   5.248   2.425  0.5033  0.3155 -0.3188
 4337SOL    HW125070   7.352   5.287   2.342 -0.3372  0.2708  0.0407
 4337SOL    HW225071   7.445   5.167   2.401 -0.1774 -0.0156 -0.7753
 4338SOL     OW25072   5.414   8.712   6.983  0.0143 -0.0584  0.3934
 4338SOL    HW125073   5.502   8.715   6.936  0.2238  1.6218  0.8540
 4338SOL    HW225074   5.430   8.714   7.082 -0.4981 -1.0704  0.4950
 4339SOL     OW25075   0.323   0.604   7.376 -0.3194  0.1905  0.1408
 4339SOL    HW125076   0.254   0.539   7.345  1.1913 -2.2546  1.7525
 4339SOL    HW225077   0.349   0.583   7.470  0.8237  2.6341  0.4147
 4340SOL     OW25078   9.089   0.306   1.816 -0.3762 -0.1073  0.0880
 4340SOL    HW125079   9.101   0.402   1.839  1.4923 -0.2862 -0.0373
 4340SOL    HW225080   9.127   0.249   1.888  0.7562 -0.7080 -0.9525
 4341SOL     OW25081   1.109   1.726   1.810 -0.9639  0.0315  0.3930
 4341SOL    HW125082   1.067   1.777   1.735  0.1706  0.6171  0.1568
 4341SOL    HW225083   1.198   1.691   1.782 -0.2429  0.7909  1.6530
 4342SOL     OW25084   6.214   2.607   2.963 -0.2589  0.3890  0.1953
 4342SOL    HW125085   6.242   2.691   2.916 -1.7038  0.4542 -0.5638
 4342SOL    HW225086   6.171   2.631   3.050  1.6644  0.3048  1.1910
 4343SOL     OW25087   4.185   2.716   7.958 -0.5812 -0.4628 -0.0245
 4343SOL    HW125088   4.160   2.741   7.864 -1.1807 -2.5318 -0.4303
 4343SOL    HW225089   4.114   2.658   7.997 -0.1657  0.1049  1.6124
 4344SOL     OW25090   4.445   4.638   2.357 -0.1646  0.1862 -0.4086
 4344SOL    HW125091   4.383   4.717   2.356 -1.8949 -1.1391 -1.1092
 4344SOL    HW225092   4.423   4.580   2.435  0.2332 -0.2690 -0.6343
 4345SOL     OW25093   4.780   9.329   5.303  0.0845  0.3545  0.0321
 4345SOL    HW125094   4.741   9.295   5.389 -1.5435 -0.1798 -0.8935
 4345SOL    HW225095   4.810   9.251   5.248  0.2646  0.6444 -0.2809
 4346SOL     OW25096   2.468   3.445   6.762 -0.0019 -0.6687 -0.1146
 4346SOL    HW125097   2.378   3.480   6.736  0.6073 -0.1192 -1.5167
 4346SOL    HW225098   2.500   3.381   6.693  1.2465  0.1080 -0.2773
 4347SOL     OW25099   8.215   6.375   7.726 -0.3323  0.1193 -0.7176
 4347SOL    HW125100   8.133   6.357   7.780 -0.5413  1.4788 -0.5629
 4347SOL    HW225101   8.287   6.312   7.754 -1.3784 -1.2066 -0.9880
 4348SOL     OW25102   7.928   2.687   5.423  0.0095 -0.0458 -0.1873
 4348SOL    HW125103   7.985   2.746   5.366 -0.4657  0.5198 -0.0882
 4348SOL    HW225104   7.861   2.639   5.366 -0.2186  0.2319 -0.1558
 4349SOL     OW25105   9.880   5.254   0.086  0.6638  0.1755  0.4666
 4349SOL    HW125106   9.976   5.228   0.077  0.2581 -0.2985 -3.4013
 4349SOL    HW225107   9.871   5.352   0.069  0.1681 -0.2977 -2.2814
 4350SOL     OW25108   3.183   0.427   7.802  0.5518  0.1798 -0.1182
 4350SOL    HW125109   3.144   0.519   7.804 -0.8754 -0.4254  0.1829
 4350SOL    HW225110   3.125   0.367   7.747  1.0546 -0.7261  0.3272
 4351SOL     OW25111   0.598   1.697   6.388  0.7551 -0.3006  0.0504
 4351SOL    HW125112   0.612   1.646   6.473  1.6603  0.0322  0.1068
 4351SOL    HW225113   0.650   1.782   6.391  2.7996 -1.4390 -1.8343
 4352SOL     OW25114   2.304   7.888   7.549 -0.5025  0.1894  0.1917
 4352SOL    HW125115   2.337   7.980   7.567  0.8979 -0.5540  1.5683
 4352SOL    HW225116   2.205   7.884   7.566 -0.5853  1.4413  0.0475
 4353SOL     OW25117   9.663   5.696   4.732 -0.6936  0.1863 -0.4621
 4353SOL    HW125118   9.621   5.628   4.793 -2.9407  0.8030 -1.3005
 4353SOL    HW225119   9.685   5.652   4.645 -2.6929  0.6316 -1.2202
 4354SOL     OW25120   9.389   9.783   2.184  0.0504 -0.8759 -0.3767
 4354SOL    HW125121   9.362   9.857   2.123 -1.9434 -0.6681  0.6985
 4354SOL    HW225122   9.315   9.765   2.249  0.2696 -4.1997 -0.9589
 4355SOL     OW25123   6.606   1.755   9.498 -0.2027 -0.1434  0.1615
 4355SOL    HW125124   6.525   1.701   9.476 -0.5932  0.1891  0.7941
 4355SOL    HW225125   6.584   1.824   9.567  0.6799 -0.2467  0.5650
 4356SOL     OW25126   2.506   6.158   0.074 -0.1260  0.1189 -0.2147
 4356SOL    HW125127   2.575   6.222   0.041 -0.8096  1.2888  0.5794
 4356SOL    HW225128   2.517   6.146   0.173 -2.4534  2.1069  0.3399
 4357SOL     OW25129   5.504   9.348   2.097 -0.3865  0.3244 -0.4432
 4357SOL    HW125130   5.522   9.349   2.196 -1.4978 -0.1833 -0.2257
 4357SOL    HW225131   5.428   9.409   2.077  0.0341  0.6545 -1.0323
 4358SOL     OW25132   9.158   5.722   3.576 -0.2344  0.7477  0.1757
 4358SOL    HW125133   9.165   5.693   3.671 -0.2461  1.7460  0.4794
 4358SOL    HW225134   9.070   5.767   3.561  0.8712  3.0534  0.3674
 4359SOL     OW25135   8.846   3.331   2.186 -0.1775  0.0074 -0.6035
 4359SOL    HW125136   8.907   3.348   2.109  0.3775 -1.9336 -0.6001
 4359SOL    HW225137   8.754   3.312   2.152 -0.6628  2.2473 -0.6343
 4360SOL     OW25138   2.620   9.316   7.329  0.6898  0.6299 -0.4246
 4360SOL    HW125139   2.606   9.279   7.237 -0.3715 -0.2134  0.0609
 4360SOL    HW225140   2.650   9.242   7.390 -2.4306  0.2768  0.7893
 4361SOL     OW25141   3.413   7.777   1.933 -0.6940  0.3979  0.2007
 4361SOL    HW125142   3.457   7.838   1.867 -0.0259  0.9285  1.1235
 4361SOL    HW225143   3.450   7.684   1.922  0.4868  0.7768  0.7665
 4362SOL     OW25144   1.755   7.441   0.915  0.0402  0.2051 -0.5539
 4362SOL    HW125145   1.729   7.346   0.933 -0.0863  0.5178  0.9759
 4362SOL    HW225146   1.697   7.478   0.843 -1.0340 -0.3762 -0.0061
 4363SOL     OW25147   3.805   7.124   2.253  0.0402  0.6952 -0.1427
 4363SOL    HW125148   3.889   7.077   2.276  0.4089  0.7195 -1.3874
 4363SOL    HW225149   3.793   7.125   2.154 -0.7813  1.7993 -0.0480
 4364SOL     OW25150   8.371   0.862   4.303 -0.5854 -0.4217  0.4896
 4364SOL    HW125151   8.349   0.916   4.385  0.5901  0.4657  0.2426
 4364SOL    HW225152   8.467   0.836   4.306 -1.1236 -2.4788  0.5582
 4365SOL     OW25153   0.314   5.734   3.472 -0.1373  0.0751  0.5861
 4365SOL    HW125154   0.259   5.771   3.547  2.2717  0.4428  2.2325
 4365SOL    HW225155   0.259   5.732   3.388 -2.5293  0.7204  2.0817
 4366SOL     OW25156   3.036   5.304   4.629  0.5372 -0.0244  0.3204
 4366SOL    HW125157   2.966   5.265   4.568  1.9021 -3.2463  0.6865
 4366SOL    HW225158   3.049   5.401   4.607 -2.0185 -0.0496 -1.6335
 4367SOL     OW25159   0.785   6.255   6.361 -0.3652 -0.1380 -0.2358
 4367SOL    HW125160   0.779   6.333   6.299 -1.8763  0.1475  0.2505
 4367SOL    HW225161   0.750   6.173   6.317 -0.6287 -0.1221 -0.0548
 4368SOL     OW25162   8.062   2.800   5.224  0.4827  0.0646  0.6110
 4368SOL    HW125163   8.012   2.850   5.154 -0.4161  0.0749  1.2453
 4368SOL    HW225164   8.149   2.847   5.243  0.6425  0.1646 -0.3401
 4369SOL     OW25165   2.808   6.086   8.257  0.4991 -0.0047  0.4651
 4369SOL    HW125166   2.815   6.179   8.293 -1.0862  0.6949 -0.9348
 4369SOL    HW225167   2.715   6.052   8.272  0.3103 -0.3511 -1.3250
 4370SOL     OW25168   4.028   3.122   3.671  0.1968 -0.6601 -0.1693
 4370SOL    HW125169   4.053   3.181   3.594 -1.6158  0.8357  0.3377
 4370SOL    HW225170   3.928   3.115   3.675  0.2944 -0.9312  1.9155
 4371SOL     OW25171   2.264   0.762   1.791  0.2838 -0.5516  0.0049
 4371SOL    HW125172   2.166   0.778   1.786  0.8400  2.6691 -2.3724
 4371SOL    HW225173   2.292   0.756   1.887 -2.0065  0.0316  0.7438
 4372SOL     OW25174   4.778   9.690   4.751 -0.1442 -0.0362 -0.1513
 4372SOL    HW125175   4.830   9.742   4.818  0.5131  0.8488 -1.3374
 4372SOL    HW225176   4.732   9.613   4.796 -0.2851  0.9629  1.4229
 4373SOL     OW25177   1.620   8.334   3.862 -0.2961  0.4614 -0.2062
 4373SOL    HW125178   1.575   8.254   3.821  0.3936  0.2565 -0.5777
 4373SOL    HW225179   1.622   8.409   3.796  2.3245 -0.4175 -1.1881
 4374SOL     OW25180   8.047   8.390   7.083  0.3403  0.6163 -0.4427
 4374SOL    HW125181   8.102   8.324   7.133 -1.0731  0.6032  1.1326
 4374SOL    HW225182   8.105   8.464   7.050  1.7918 -0.9495 -1.4749
 4375SOL     OW25183   8.374   1.109   6.508 -0.3194 -0.0849 -0.8296
 4375SOL    HW125184   8.369   1.209   6.507  1.5354  0.0343 -1.0741
 4375SOL    HW225185   8.306   1.072   6.571 -0.1989  1.4019  0.1926
 4376SOL     OW25186   7.453   0.705   1.229  0.3455 -0.4090 -0.2269
 4376SOL    HW125187   7.361   0.682   1.260 -0.2922  0.1438 -1.6604
 4376SOL    HW225188   7.503   0.749   1.304 -0.2399 -1.5209  0.8368
 4377SOL     OW25189   5.238   9.104   4.264 -0.3049 -0.1436  0.0006
 4377SOL    HW125190   5.182   9.028   4.231 -0.5532 -0.4708  1.1280
 4377SOL    HW225191   5.197   9.142   4.347  0.4496  0.4599  0.1097
 4378SOL     OW25192   5.355   9.604   2.889 -0.1835 -1.0177 -0.2199
 4378SOL    HW125193   5.400   9.536   2.948 -1.6982 -1.5976  0.2949
 4378SOL    HW225194   5.355   9.693   2.935 -0.2856 -1.1981  0.1296
 4379SOL     OW25195   0.093   9.288   1.760  0.7350 -0.5966 -0.6203
 4379SOL    HW125196   0.054   9.379   1.748 -0.8568 -1.0597  0.8332
 4379SOL    HW225197   0.134   9.281   1.852 -0.0770 -1.6544 -0.3251
 4380SOL     OW25198   2.158   4.957   8.907  0.5535 -0.3605  0.0475
 4380SOL    HW125199   2.243   5.001   8.936  0.8246 -0.2805 -0.8640
 4380SOL    HW225200   2.168   4.857   8.911  0.7356 -0.3507 -0.2046
 4381SOL     OW25201   0.753   4.374   0.806 -0.0127  0.0117  0.2353
 4381SOL    HW125202   0.843   4.351   0.845 -0.3756 -0.4145  0.8197
 4381SOL    HW225203   0.741   4.325   0.720  0.5494  0.5006 -0.1241
 4382SOL     OW25204   4.335   8.497   2.119 -0.5677  0.1365 -0.2310
 4382SOL    HW125205   4.250   8.493   2.172 -1.3378 -0.4355 -1.4876
 4382SOL    HW225206   4.387   8.578   2.145 -1.3556  0.3289  0.7609
 4383SOL     OW25207   0.133   9.871   0.798 -0.1058  0.4864  0.0030
 4383SOL    HW125208   0.146   9.773   0.813 -0.3448  0.2258 -1.3965
 4383SOL    HW225209   0.122   9.918   0.886  1.5983 -0.5121  0.7612
 4384SOL     OW25210   0.696   5.362   5.604 -0.7423 -0.3019  0.3979
 4384SOL    HW125211   0.761   5.377   5.678 -0.6194  0.5129  0.1288
 4384SOL    HW225212   0.722   5.416   5.524 -2.9378  1.7660  1.0028
 4385SOL     OW25213   7.742   1.291   0.744  0.0684 -0.4148  0.5054
 4385SOL    HW125214   7.744   1.207   0.797 -0.6155  0.8242  2.5311
 4385SOL    HW225215   7.797   1.279   0.661 -0.4642 -3.0139  0.4703
 4386SOL     OW25216   6.006   8.930   4.604  0.0175 -0.1115 -0.2265
 4386SOL    HW125217   6.045   8.843   4.572 -1.7746 -1.0855  0.1647
 4386SOL    HW225218   6.000   8.993   4.527  1.4219 -0.2882 -0.4969
 4387SOL     OW25219   2.226   9.332   4.380  0.2047  0.0338  0.5900
 4387SOL    HW125220   2.245   9.421   4.339  0.1871  1.0619  2.7832
 4387SOL    HW225221   2.310   9.277   4.378  0.3715  0.3078 -0.2334
 4388SOL     OW25222   0.995   9.457   3.164  0.1875 -0.5271 -0.2853
 4388SOL    HW125223   1.070   9.519   3.139  0.7956 -1.2571 -0.3116
 4388SOL    HW225224   0.913   9.481   3.111  0.8633 -0.7330 -1.4555
 4389SOL     OW25225   0.146   8.846   3.657 -0.1044 -0.3890 -0.0359
 4389SOL    HW125226   0.080   8.772   3.643 -1.5523  0.9295 -0.2588
 4389SOL    HW225227   0.120   8.900   3.737  0.7951  0.0431 -0.0284
 4390SOL     OW25228   4.147   3.378   7.598 -0.3133 -0.1982  0.3163
 4390SOL    HW125229   4.138   3.367   7.499  2.0758  0.1815  0.0127
 4390SOL    HW225230   4.093   3.456   7.629  0.1881  0.6705 -0.9595
 4391SOL     OW25231   3.621   4.824   5.312  0.0138 -0.5538  0.0244
 4391SOL    HW125232   3.598   4.920   5.331  0.4049 -0.4967  0.2154
 4391SOL    HW225233   3.589   4.800   5.220  0.8771  0.0824 -0.4503
 4392SOL     OW25234   0.730   7.749   5.245  0.2471  0.3092  0.0457
 4392SOL    HW125235   0.811   7.726   5.190 -0.8153 -0.4924 -1.1917
 4392SOL    HW225236   0.665   7.673   5.242  0.1665  0.2337  2.4237
 4393SOL     OW25237   7.464   3.999   8.626  0.2218  0.3362  0.1292
 4393SOL    HW125238   7.552   3.950   8.622 -0.0494 -0.1574  0.2043
 4393SOL    HW225239   7.414   3.970   8.708 -0.2751  0.1767 -0.2323
 4394SOL     OW25240   9.102   2.237   8.832 -0.0946 -0.3402  0.2153
 4394SOL    HW125241   9.183   2.254   8.777  0.1901 -0.9332  0.4545
 4394SOL    HW225242   9.035   2.186   8.779 -0.4674  0.4884 -0.1124
 4395SOL     OW25243   2.235   8.124   5.005 -0.5680 -0.6274 -0.2210
 4395SOL    HW125244   2.287   8.169   4.932 -2.1282 -0.2992 -1.1621
 4395SOL    HW225245   2.145   8.096   4.969 -0.6535 -2.0889  1.0833
 4396SOL     OW25246   9.335   9.584   0.632 -0.3233  0.5374 -0.0548
 4396SOL    HW125247   9.429   9.552   0.617 -0.6121 -0.4202  0.1366
 4396SOL    HW225248   9.289   9.522   0.697 -1.6771 -0.0918 -1.5759
 4397SOL     OW25249   7.179   1.662   4.554  0.2604  0.0729  0.0336
 4397SOL    HW125250   7.163   1.715   4.471 -2.2645  1.2527  1.2284
 4397SOL    HW225251   7.159   1.565   4.536 -0.9501  0.4231 -0.5632
 4398SOL     OW25252   1.241   3.241   0.270 -0.2825 -0.7943 -0.1839
 4398SOL    HW125253   1.333   3.276   0.288 -0.2923 -1.4605  1.2390
 4398SOL    HW225254   1.179   3.317   0.250  0.3390 -0.2596 -0.0846
 4399SOL     OW25255   0.861   6.332   9.540  0.4633 -0.1270 -0.2928
 4399SOL    HW125256   0.772   6.348   9.498 -0.5934 -2.4948  0.9645
 4399SOL    HW225257   0.923   6.291   9.473  0.9819  2.4549 -1.4649
 4400SOL     OW25258   0.089   6.597   0.761  0.9743  0.4161  0.2933
 4400SOL    HW125259   0.015   6.570   0.822  0.9020  1.3942  0.6340
 4400SOL    HW225260   0.052   6.622   0.672  1.0372 -0.5339 -0.0121
 4401SOL     OW25261   9.114   0.785   7.327  0.0594 -0.5261 -0.7789
 4401SOL    HW125262   9.173   0.865   7.338 -1.4946  0.4270  0.8915
 4401SOL    HW225263   9.052   0.799   7.249 -0.3442 -0.0113 -0.3675
 4402SOL     OW25264   8.573   1.176   3.262  0.1160  0.2614  0.0333
 4402SOL    HW125265   8.557   1.135   3.352 -0.8114  0.2440 -0.1332
 4402SOL    HW225266   8.625   1.112   3.205 -3.5080 -1.8030 -1.0898
 4403SOL     OW25267   6.005   3.758   1.316  0.5319  0.1488  0.3716
 4403SOL    HW125268   6.011   3.829   1.247  0.0593  1.6410  1.8404
 4403SOL    HW225269   6.053   3.787   1.399 -0.5797 -0.7842  1.3605
 4404SOL     OW25270  -0.001   2.904   8.025  0.8462 -0.0940  0.1976
 4404SOL    HW125271   0.076   2.841   8.041  0.5333 -0.4360  0.3558
 4404SOL    HW225272   0.035   2.996   8.011  1.3505 -0.4045 -0.6222
 4405SOL     OW25273   9.111   6.860   4.513  1.1037  0.2074  0.1323
 4405SOL    HW125274   9.130   6.939   4.455 -0.0502 -0.5467 -1.3141
 4405SOL    HW225275   9.016   6.862   4.543  1.2722 -0.2356  0.7103
 4406SOL     OW25276   3.036   9.500   5.258  0.1916 -0.6005  0.3261
 4406SOL    HW125277   2.944   9.514   5.221 -0.2808 -0.7790  1.4100
 4406SOL    HW225278   3.072   9.587   5.293  0.8181 -0.3398 -0.9301
 4407SOL     OW25279   3.127   5.047   4.604  0.6253  0.4448 -0.9959
 4407SOL    HW125280   3.049   4.987   4.620  1.5913 -0.4475  0.5030
 4407SOL    HW225281   3.100   5.142   4.619  0.3728 -0.0340  1.6609
 4408SOL     OW25282   6.409   8.473   5.760 -0.6362 -0.1767  0.5778
 4408SOL    HW125283   6.496   8.468   5.809 -0.9028 -0.6850  1.0052
 4408SOL    HW225284   6.343   8.523   5.815 -1.3444 -1.9337  1.3680
 4409SOL     OW25285   5.903   4.139   8.383 -0.1271 -0.3048  0.5329
 4409SOL    HW125286   5.882   4.225   8.336 -0.2685 -0.2472  0.6984
 4409SOL    HW225287   5.957   4.160   8.465 -1.0786 -0.2782  1.1518
 4410SOL     OW25288   1.334   9.489   6.644  1.1942  0.2593  0.3359
 4410SOL    HW125289   1.250   9.539   6.664  1.3108  0.7063 -0.2783
 4410SOL    HW225290   1.314   9.413   6.582  0.8719 -0.9885  1.9336
 4411SOL     OW25291   3.647   0.563   3.021 -0.0046  0.0796  0.5791
 4411SOL    HW125292   3.711   0.555   2.945 -0.3737  0.5172  0.2177
 4411SOL    HW225293   3.623   0.472   3.054 -0.1953 -0.1300 -0.1277
 4412SOL     OW25294   2.575   1.248   1.482 -0.1547 -0.7121 -0.1129
 4412SOL    HW125295   2.594   1.182   1.555  1.6387 -0.1220 -0.0077
 4412SOL    HW225296   2.661   1.281   1.445 -1.0461  0.7408 -0.9215
 4413SOL     OW25297   8.323   8.853   8.613 -0.1508  0.0846 -0.2906
 4413SOL    HW125298   8.315   8.906   8.528  0.0076 -0.4015 -0.6091
 4413SOL    HW225299   8.412   8.869   8.654 -0.5967  1.1022  0.3119
 4414SOL     OW25300   8.591   1.894   8.668 -0.4922 -0.1909 -0.0646
 4414SOL    HW125301   8.660   1.939   8.611  1.2404 -1.2762  1.1056
 4414SOL    HW225302   8.590   1.796   8.647 -1.3209 -0.2598  0.2948
 4415SOL     OW25303   1.756   1.809   0.938  0.1514  0.5256 -0.4323
 4415SOL    HW125304   1.822   1.880   0.965 -0.0711  0.6790 -0.2944
 4415SOL    HW225305   1.665   1.835   0.969  0.4020 -0.8989  1.6242
 4416SOL     OW25306   5.370   2.701   8.672 -0.2616  0.2735 -0.0289
 4416SOL    HW125307   5.447   2.652   8.631 -0.0911  1.5686 -1.3237
 4416SOL    HW225308   5.405   2.768   8.738 -0.3443  0.1539  0.1366
 4417SOL     OW25309   3.077   2.966   2.886  0.4401 -0.6273  0.9242
 4417SOL    HW125310   3.109   3.018   2.807 -3.4181  0.9695  0.3212
 4417SOL    HW225311   3.097   2.869   2.872 -0.5630 -0.4325 -2.2204
 4418SOL     OW25312   4.078   0.221   8.847  0.4958 -0.8845  0.0715
 4418SOL    HW125313   4.167   0.198   8.809 -0.1696 -2.0340 -0.8445
 4418SOL    HW225314   4.065   0.172   8.934 -0.0236 -2.2917 -0.7796
 4419SOL     OW25315   2.919   8.012   4.846  0.0130  0.2293 -0.8845
 4419SOL    HW125316   2.959   7.943   4.906 -0.6309  0.0051 -0.7053
 4419SOL    HW225317   2.990   8.054   4.791  0.9844  2.1027  1.7069
 4420SOL     OW25318   2.908   9.595   9.112 -0.2944  0.2504  0.4360
 4420SOL    HW125319   2.865   9.644   9.189 -2.5348 -0.0463 -0.5831
 4420SOL    HW225320   2.975   9.530   9.148 -1.6940 -0.2728  2.1991
 4421SOL     OW25321   6.311   2.696   1.380 -0.1700  0.3731  0.0181
 4421SOL    HW125322   6.394   2.741   1.347 -1.3918  2.1809 -0.6768
 4421SOL    HW225323   6.257   2.663   1.302  0.2411 -1.4788  0.4897
 4422SOL     OW25324   8.832   8.500   9.669  0.6000  0.1822 -0.2033
 4422SOL    HW125325   8.761   8.518   9.601  0.9636 -2.1600 -1.2522
 4422SOL    HW225326   8.790   8.471   9.755  0.1854  1.8188  0.1439
 4423SOL     OW25327   3.678   1.286   2.192  0.2271 -0.2013  0.1114
 4423SOL    HW125328   3.714   1.374   2.161 -0.5766 -0.6374 -2.2160
 4423SOL    HW225329   3.651   1.293   2.288  2.9259  1.2026  0.7992
 4424SOL     OW25330   6.975   9.084   3.373  0.1243  0.1391  0.0262
 4424SOL    HW125331   7.066   9.044   3.357  0.4908  0.4855  1.1649
 4424SOL    HW225332   6.978   9.140   3.456 -0.3098  2.8001 -1.7215
 4425SOL     OW25333   0.494   4.366   1.568 -0.4498 -0.5976 -0.4216
 4425SOL    HW125334   0.574   4.385   1.625 -0.2872  0.3374 -0.9556
 4425SOL    HW225335   0.412   4.364   1.625 -0.6324  2.8017 -0.4596
 4426SOL     OW25336   8.718   6.781   6.804  0.4276  0.4027 -1.0111
 4426SOL    HW125337   8.737   6.707   6.739  0.0478 -0.7284  0.1560
 4426SOL    HW225338   8.800   6.802   6.856  0.8248  1.5391 -2.0610
 4427SOL     OW25339   4.261   6.771   9.440 -1.2791 -0.5843  0.1314
 4427SOL    HW125340   4.317   6.717   9.377 -0.9459 -0.6224  0.4596
 4427SOL    HW225341   4.318   6.841   9.484 -1.4709 -0.6766  0.5249
 4428SOL     OW25342   2.243   6.404   4.872 -0.1813  0.3238 -0.0696
 4428SOL    HW125343   2.292   6.491   4.861 -1.8140  1.1108 -1.2828
 4428SOL    HW225344   2.198   6.403   4.961  0.2382  0.5022  0.1484
 4429SOL     OW25345   8.728   4.135   4.871  0.1319 -0.3211 -0.2150
 4429SOL    HW125346   8.658   4.140   4.800 -2.4068  0.1575  2.2242
 4429SOL    HW225347   8.726   4.044   4.912  0.2806 -0.0048  0.4940
 4430SOL     OW25348   0.112   6.945   3.442  0.5001  0.5266 -0.1913
 4430SOL    HW125349   0.043   6.943   3.369 -0.6952 -0.6557  0.9463
 4430SOL    HW225350   0.201   6.923   3.403 -0.3374 -1.4077 -1.0805
 4431SOL     OW25351   6.303   4.955   0.977  0.2116 -0.4940  0.0029
 4431SOL    HW125352   6.268   5.043   1.007  1.4130  0.3150 -0.9047
 4431SOL    HW225353   6.230   4.902   0.935 -0.8393 -0.5139  1.8278
 4432SOL     OW25354   8.387   7.786   8.571 -0.4551  0.0099  0.1190
 4432SOL    HW125355   8.402   7.883   8.550 -0.4623  0.2292  1.0962
 4432SOL    HW225356   8.472   7.746   8.603 -0.1810 -0.5892 -1.3109
 4433SOL     OW25357   9.801   1.818   7.365 -0.0497 -0.2641 -0.4822
 4433SOL    HW125358   9.897   1.799   7.344 -0.0593 -0.1478 -0.6264
 4433SOL    HW225359   9.757   1.858   7.285  0.0185  0.5609 -0.1069
 4434SOL     OW25360   6.050   5.714   7.999  0.8229  0.0772 -1.2412
 4434SOL    HW125361   6.065   5.723   8.097 -1.7498  0.0887 -0.8262
 4434SOL    HW225362   6.124   5.760   7.950  2.2713 -0.1531  0.6633
 4435SOL     OW25363   3.262   0.404   3.046 -0.0022  0.1842 -0.5141
 4435SOL    HW125364   3.265   0.501   3.024  3.0410 -0.0179 -1.1737
 4435SOL    HW225365   3.354   0.366   3.043 -1.3187 -3.1113 -1.9570
 4436SOL     OW25366   1.021   1.265   3.815  0.6946  0.1690 -0.1060
 4436SOL    HW125367   1.079   1.343   3.839  0.2419  0.7621 -0.9492
 4436SOL    HW225368   0.945   1.258   3.880  1.1315 -0.0021  0.3926
 4437SOL     OW25369   3.319   6.691   6.718 -0.0590 -0.0950 -0.1000
 4437SOL    HW125370   3.412   6.685   6.757 -0.6076 -0.1629  1.2384
 4437SOL    HW225371   3.257   6.634   6.772 -1.1130  0.8622 -0.2807
 4438SOL     OW25372   8.466   3.687   6.780 -0.1580 -0.2577 -0.5092
 4438SOL    HW125373   8.431   3.612   6.835  1.3406 -1.5095 -1.2352
 4438SOL    HW225374   8.563   3.672   6.761 -0.3902  0.7008 -2.5770
 4439SOL     OW25375   8.801   1.613   3.874 -0.0154  0.2863  0.2379
 4439SOL    HW125376   8.751   1.638   3.791  0.3939  0.7322  0.1253
 4439SOL    HW225377   8.899   1.606   3.854  0.2653  1.7402  0.9680
 4440SOL     OW25378   5.127   6.787   9.049  0.0107 -0.1890 -0.0087
 4440SOL    HW125379   5.167   6.865   9.001 -0.3103 -0.8637 -1.3944
 4440SOL    HW225380   5.163   6.702   9.011  0.1379 -0.7354  1.2931
 4441SOL     OW25381   8.769   4.899   6.643 -0.6553 -0.1329 -0.1046
 4441SOL    HW125382   8.849   4.929   6.695 -0.0242 -1.3573 -0.3430
 4441SOL    HW225383   8.691   4.958   6.663 -0.2926 -0.3004  1.8649
 4442SOL     OW25384   8.030   4.200   4.472 -0.5078  0.0123 -0.1001
 4442SOL    HW125385   8.016   4.104   4.448 -3.1323  0.4623 -0.4789
 4442SOL    HW225386   7.967   4.257   4.421  0.5455  1.9059  0.6440
 4443SOL     OW25387   0.059   1.159   0.037 -0.3848 -0.2328  0.0554
 4443SOL    HW125388   0.049   1.241  -0.019  2.3011  0.0955  0.0129
 4443SOL    HW225389   0.019   1.081  -0.011  0.0113  0.4324 -1.3827
 4444SOL     OW25390   8.531   9.751   6.649  0.0209  0.1162  0.1567
 4444SOL    HW125391   8.477   9.702   6.717  0.3121 -1.2827 -0.6235
 4444SOL    HW225392   8.471   9.784   6.576 -0.0329  0.1560  0.2165
 4445SOL     OW25393   3.185   9.056   7.106  0.2367 -0.1640 -0.4555
 4445SOL    HW125394   3.123   9.096   7.174 -0.7290 -0.1946 -1.2963
 4445SOL    HW225395   3.170   8.957   7.102 -0.2149 -0.0682 -1.2134
 4446SOL     OW25396   6.114   8.478   2.204 -0.2596  0.0473 -0.4071
 4446SOL    HW125397   6.183   8.465   2.276 -0.1039 -1.3647 -0.7942
 4446SOL    HW225398   6.160   8.496   2.117 -0.3875 -0.2572 -0.5390
 4447SOL     OW25399   8.235   7.847   8.331  0.0735  0.3628 -0.6259
 4447SOL    HW125400   8.292   7.815   8.407 -0.7940 -0.8316 -0.4632
 4447SOL    HW225401   8.288   7.910   8.274  0.4125  2.1383  1.5506
 4448SOL     OW25402   2.620   8.387   3.215  0.5558  0.0943 -0.2910
 4448SOL    HW125403   2.561   8.323   3.165 -0.2791  0.2236  0.4974
 4448SOL    HW225404   2.693   8.419   3.156 -0.3445  0.1497 -1.3925
 4449SOL     OW25405   0.855   2.672   5.259 -0.1554 -0.0339 -0.1810
 4449SOL    HW125406   0.853   2.737   5.335 -0.5891 -0.1358 -0.1021
 4449SOL    HW225407   0.816   2.715   5.178  2.9037  1.0394 -1.1237
 4450SOL     OW25408   7.171   3.904   3.618  0.7018  0.2513  0.1756
 4450SOL    HW125409   7.168   3.846   3.536 -0.1397  0.5508 -0.0138
 4450SOL    HW225410   7.227   3.984   3.599 -0.2010  0.7571 -0.4126
 4451SOL     OW25411   9.337   4.534   7.552 -0.6984 -0.1603  0.1105
 4451SOL    HW125412   9.351   4.492   7.462 -3.2804 -0.6162 -0.1449
 4451SOL    HW225413   9.353   4.632   7.546 -2.3795  0.0561 -1.2641
 4452SOL     OW25414   8.428   3.298   3.248  0.1117  0.6555 -0.3542
 4452SOL    HW125415   8.499   3.231   3.226  0.0396  0.3274  0.3815
 4452SOL    HW225416   8.384   3.329   3.164  0.2030 -0.1626 -0.7104
 4453SOL     OW25417   1.668   9.033   6.547  0.1519  0.4538  0.3056
 4453SOL    HW125418   1.692   9.128   6.525  0.3793  0.4345  0.4731
 4453SOL    HW225419   1.752   8.980   6.562 -0.0169  0.9630  3.3538
 4454SOL     OW25420   7.136   0.833   4.749 -0.0383  0.1446 -0.3446
 4454SOL    HW125421   7.059   0.895   4.764 -0.2522 -0.1306 -0.3144
 4454SOL    HW225422   7.103   0.746   4.712  0.1156 -0.4573  0.9112
 4455SOL     OW25423   6.230   8.820   7.512  0.0190 -0.1262  0.6039
 4455SOL    HW125424   6.190   8.910   7.533  2.2879  0.7085  1.4400
 4455SOL    HW225425   6.159   8.762   7.472 -1.1921  2.4591 -1.2212
 4456SOL     OW25426   0.955   7.909   1.292  0.2669  0.4265 -0.3156
 4456SOL    HW125427   1.029   7.963   1.252  0.7884  1.8238  2.4104
 4456SOL    HW225428   0.990   7.854   1.367 -1.2493  0.2451  0.2782
 4457SOL     OW25429   8.348   5.114   4.877 -0.3663 -0.1523  0.6520
 4457SOL    HW125430   8.411   5.081   4.807 -1.7867 -0.3579 -0.5673
 4457SOL    HW225431   8.269   5.052   4.883 -0.2424 -0.1706  2.4893
 4458SOL     OW25432   7.480   1.093   2.101 -0.3803  0.1654  0.3102
 4458SOL    HW125433   7.547   1.134   2.040 -0.2644 -2.0318 -1.1165
 4458SOL    HW225434   7.528   1.044   2.174 -0.4423  0.0270  0.2592
 4459SOL     OW25435   0.307   0.156   2.949  0.3571 -0.1078 -0.0323
 4459SOL    HW125436   0.232   0.106   2.991  1.2793  0.8699  2.8490
 4459SOL    HW225437   0.277   0.248   2.926  0.2873 -0.1590 -0.1484
 4460SOL     OW25438   8.887   6.315   1.846  0.2222  0.4594  0.2317
 4460SOL    HW125439   8.927   6.346   1.932  0.7411  0.9749 -0.1845
 4460SOL    HW225440   8.788   6.328   1.849  0.2782  0.8340  0.6090
 4461SOL     OW25441   4.679   9.051   0.556  0.3064  0.0787  0.0405
 4461SOL    HW125442   4.776   9.056   0.581 -0.0514  0.8034  1.3425
 4461SOL    HW225443   4.670   9.050   0.456  1.6160  0.9212 -0.0972
 4462SOL     OW25444   0.167   6.761   1.596  0.4216  0.2637 -0.4476
 4462SOL    HW125445   0.173   6.743   1.498 -2.7319 -0.8936 -0.4825
 4462SOL    HW225446   0.196   6.680   1.647 -2.0698 -0.7358 -0.5198
 4463SOL     OW25447   9.987   6.768   8.644  0.2295  0.2172 -0.1431
 4463SOL    HW125448   9.924   6.773   8.722  0.3565  0.5400 -0.0597
 4463SOL    HW225449  10.044   6.850   8.642 -0.1679  0.4860 -0.9105
 4464SOL     OW25450   7.549   4.486   2.414 -0.2455  0.1651 -0.7910
 4464SOL    HW125451   7.458   4.515   2.444  0.6309  1.2129  0.9459
 4464SOL    HW225452   7.611   4.484   2.492  0.7519 -2.5351 -1.5833
 4465SOL     OW25453   4.546   0.707   2.140 -0.0026 -0.1055 -0.6016
 4465SOL    HW125454   4.548   0.616   2.099 -0.2296 -0.1369 -0.5411
 4465SOL    HW225455   4.628   0.757   2.112  0.6039 -0.6668  0.1607
 4466SOL     OW25456   1.898   0.450   6.185 -0.4612 -0.3182  0.4166
 4466SOL    HW125457   1.975   0.486   6.132  1.1997 -1.8558  1.6809
 4466SOL    HW225458   1.921   0.453   6.282 -2.2139 -0.3746  0.8508
 4467SOL     OW25459   9.449   2.103   6.295  0.4447  0.2045 -0.6216
 4467SOL    HW125460   9.434   2.185   6.350  0.8446 -0.0181 -0.1796
 4467SOL    HW225461   9.367   2.083   6.241 -0.2466 -0.0366  0.4994
 4468SOL     OW25462   0.697   1.062   2.571  0.0607  0.0995 -0.6517
 4468SOL    HW125463   0.612   1.054   2.624 -0.3700  0.6968 -1.2354
 4468SOL    HW225464   0.696   1.149   2.522  1.3745  0.4612 -0.0372
 4469SOL     OW25465   0.373   2.981   7.948  0.4166  0.5370  0.3834
 4469SOL    HW125466   0.282   3.024   7.955 -0.4062 -1.2327  0.7512
 4469SOL    HW225467   0.432   3.019   8.018 -0.4000  0.8194  0.9316
 4470SOL     OW25468   1.097   0.012   4.229  0.3927 -0.1927 -0.3647
 4470SOL    HW125469   1.144  -0.071   4.200  0.5808 -0.4630  0.6820
 4470SOL    HW225470   1.030  -0.011   4.301 -1.8106  0.0823 -2.2600
 4471SOL     OW25471   9.269   3.539   7.827 -0.1288  0.0446 -0.3205
 4471SOL    HW125472   9.234   3.573   7.740  0.3645  1.7240  0.1186
 4471SOL    HW225473   9.193   3.509   7.884 -0.5951  0.6204 -0.6283
 4472SOL     OW25474   2.555   3.028   5.657  0.2870 -0.0233 -0.4476
 4472SOL    HW125475   2.521   3.118   5.633 -1.4447 -0.8714 -1.2422
 4472SOL    HW225476   2.634   3.037   5.718 -0.7140  1.9923  0.5867
 4473SOL     OW25477   7.068   1.419   8.763  0.4748 -0.2354 -0.9379
 4473SOL    HW125478   7.067   1.489   8.834  2.7828  0.2505 -1.3332
 4473SOL    HW225479   7.036   1.332   8.801 -0.8059  0.6230 -0.0086
 4474SOL     OW25480   8.091   8.506   1.652  0.3039 -0.0660  0.5601
 4474SOL    HW125481   8.020   8.556   1.702 -0.9031 -0.1896 -1.0140
 4474SOL    HW225482   8.162   8.477   1.717 -1.7010 -1.0512  2.4074
 4475SOL     OW25483   2.631   8.406   2.030  0.1229  0.0522 -0.0208
 4475SOL    HW125484   2.619   8.396   1.931 -0.7978 -1.3304  0.2352
 4475SOL    HW225485   2.674   8.495   2.048  0.3231  0.3152 -1.6576
 4476SOL     OW25486   2.566   5.700   8.243 -0.1312  0.2848 -0.4699
 4476SOL    HW125487   2.665   5.711   8.247 -0.1687  0.2574  0.9419
 4476SOL    HW225488   2.528   5.706   8.336 -1.2507 -1.6101 -0.7782
 4477SOL     OW25489   2.319   3.905   9.968 -0.6320  0.0824  0.0475
 4477SOL    HW125490   2.411   3.880   9.999  0.1165  1.1126 -1.3459
 4477SOL    HW225491   2.255   3.894  10.045  0.3576 -2.1587  0.6057
 4478SOL     OW25492   0.202   8.732   5.669  0.4040  0.2651 -0.3313
 4478SOL    HW125493   0.106   8.710   5.651  0.5111  1.5826 -2.7081
 4478SOL    HW225494   0.227   8.700   5.760 -1.7799 -1.6998 -0.3803
 4479SOL     OW25495   7.300   2.619   8.511 -0.1227  0.1476 -0.1471
 4479SOL    HW125496   7.386   2.664   8.536 -1.2514  1.8972  0.6606
 4479SOL    HW225497   7.271   2.651   8.421 -0.5477  0.4678  0.1052
 4480SOL     OW25498   9.246   5.888   1.546  0.0709 -0.3378  0.2234
 4480SOL    HW125499   9.329   5.884   1.490  0.1218 -0.6925  0.3247
 4480SOL    HW225500   9.171   5.843   1.497 -0.4154  1.2193 -0.4786
 4481SOL     OW25501   2.780   3.996   7.232 -0.3319 -0.2279  0.3867
 4481SOL    HW125502   2.745   3.968   7.322  0.1332 -0.0090  0.6345
 4481SOL    HW225503   2.847   4.068   7.244  0.7763 -1.1805 -0.0508
 4482SOL     OW25504   9.956   4.690   5.511 -0.4277  0.3875  0.2077
 4482SOL    HW125505   9.884   4.679   5.443  0.1266  0.7120 -0.4344
 4482SOL    HW225506   9.969   4.787   5.530  0.4299  0.3788 -0.3162
 4483SOL     OW25507   8.312   7.493   6.609  0.2300  0.1113  0.2747
 4483SOL    HW125508   8.403   7.476   6.648 -0.2847 -1.3286  0.8603
 4483SOL    HW225509   8.243   7.486   6.681 -0.6869 -2.0201 -0.7738
 4484SOL     OW25510   0.525   8.870   6.702 -0.5609  0.0925  0.4184
 4484SOL    HW125511   0.465   8.885   6.781 -2.2430 -2.1644 -0.3949
 4484SOL    HW225512   0.528   8.773   6.680  4.3168 -0.0182  1.0945
 4485SOL     OW25513   9.982   6.183   7.872  0.2761 -0.5756  0.1460
 4485SOL    HW125514  10.051   6.155   7.805 -2.0914 -2.9989 -1.4360
 4485SOL    HW225515   9.972   6.111   7.941 -0.1820  0.0619  0.7523
 4486SOL     OW25516   7.163   6.013   8.803 -0.2807 -0.9422 -0.3814
 4486SOL    HW125517   7.229   6.037   8.874  0.6018 -0.9909 -1.1854
 4486SOL    HW225518   7.157   6.087   8.736 -1.1463 -0.8778 -0.2444
 4487SOL     OW25519   3.577   0.829   9.959 -0.0305 -0.0175  0.0632
 4487SOL    HW125520   3.671   0.848   9.987  0.5165 -0.8550 -1.1714
 4487SOL    HW225521   3.534   0.768  10.025 -0.2361  1.5883  1.4642
 4488SOL     OW25522   3.733   7.646   1.934 -0.0780 -0.1654 -0.2532
 4488SOL    HW125523   3.828   7.662   1.908  0.2073 -0.2238  0.7070
 4488SOL    HW225524   3.708   7.711   2.007 -1.1505  0.6621 -1.3404
 4489SOL     OW25525   2.351   0.710   2.038 -0.0497  0.1886 -0.1399
 4489SOL    HW125526   2.433   0.656   2.055  0.7520  0.4555 -2.8456
 4489SOL    HW225527   2.273   0.668   2.083  1.6634  0.3565  3.1390
 4490SOL     OW25528   1.896   5.222   6.420 -0.3058 -0.2494  0.1596
 4490SOL    HW125529   1.986   5.211   6.460  0.5616  1.5887 -1.2109
 4490SOL    HW225530   1.834   5.152   6.456  0.9806  0.0324  2.9987
 4491SOL     OW25531   9.312   1.908   8.058 -0.1173  0.1876 -0.0786
 4491SOL    HW125532   9.365   1.903   7.973 -0.1187  0.8523 -0.1190
 4491SOL    HW225533   9.259   1.993   8.060  1.1170  0.9358  1.3156
 4492SOL     OW25534   1.104   6.540   9.650  0.1727  0.2827  0.9387
 4492SOL    HW125535   1.055   6.617   9.688  0.2408  0.9780 -0.3479
 4492SOL    HW225536   1.040   6.480   9.601  0.6578  1.4935 -1.2335
 4493SOL     OW25537   0.992   0.096   5.406  0.2737 -0.1383 -0.0074
 4493SOL    HW125538   0.991   0.191   5.374 -1.4717  0.0870  0.6760
 4493SOL    HW225539   1.055   0.043   5.349  2.4647  1.7332  0.5815
 4494SOL     OW25540   4.214   0.460   0.483  0.5762 -0.5313  1.0650
 4494SOL    HW125541   4.255   0.500   0.565  1.5814  1.0781 -0.1947
 4494SOL    HW225542   4.229   0.361   0.484  0.3811 -0.5734  2.9184
 4495SOL     OW25543   4.295   7.682   0.056 -0.3078  0.0621 -0.2153
 4495SOL    HW125544   4.220   7.637   0.007  0.6685 -1.2689 -0.4854
 4495SOL    HW225545   4.353   7.731  -0.009  0.9824 -1.6962 -0.4130
 4496SOL     OW25546   9.862   2.267   8.410 -0.0748  0.0130 -0.1320
 4496SOL    HW125547   9.900   2.293   8.321  0.0591 -0.8786 -0.3346
 4496SOL    HW225548   9.763   2.282   8.410 -0.1061 -0.1975 -0.5034
 4497SOL     OW25549   7.565   7.832   4.554 -0.2975 -0.4302  0.0437
 4497SOL    HW125550   7.479   7.826   4.604  0.4836  0.0121  1.4631
 4497SOL    HW225551   7.552   7.889   4.472 -1.3574 -0.4065  0.2216
 4498SOL     OW25552   6.070   0.017   5.654 -0.3599  0.1189  0.3300
 4498SOL    HW125553   5.972   0.021   5.631  0.4197 -0.9860 -3.5714
 4498SOL    HW225554   6.088  -0.065   5.709 -1.5380  0.0756  0.6770
 4499SOL     OW25555   1.018   1.054   0.790  0.2717  0.1629 -0.0959
 4499SOL    HW125556   1.091   1.100   0.839  0.1547 -0.0301  0.2573
 4499SOL    HW225557   1.041   1.048   0.693 -0.8772  3.3833 -0.6276
 4500SOL     OW25558   4.484   3.594   1.932  0.2799  0.3420 -0.5114
 4500SOL    HW125559   4.388   3.569   1.915  0.2652  1.1893 -1.6646
 4500SOL    HW225560   4.521   3.643   1.853  2.1767 -1.4410 -0.7683
 4501SOL     OW25561   5.958   0.289   4.921  0.0975 -0.9242 -0.1717
 4501SOL    HW125562   5.949   0.239   4.836  1.1042 -1.7357  0.1776
 4501SOL    HW225563   6.010   0.373   4.905 -0.1579 -0.8205 -0.4528
 4502SOL     OW25564   1.717   3.686   1.331  0.6427 -0.5020  0.2745
 4502SOL    HW125565   1.791   3.647   1.387 -0.3394 -0.3374  1.7118
 4502SOL    HW225566   1.664   3.751   1.386 -1.0614 -1.2104 -0.4972
 4503SOL     OW25567   8.335   8.923   1.433 -0.2849 -0.1641  0.4107
 4503SOL    HW125568   8.262   8.878   1.484 -0.2130 -0.9928 -0.2042
 4503SOL    HW225569   8.385   8.855   1.379  0.7697  0.4334  0.6178
 4504SOL     OW25570   0.483   3.431   9.189  0.3799  0.8273 -0.0750
 4504SOL    HW125571   0.536   3.513   9.210  0.6684  0.0523  2.3295
 4504SOL    HW225572   0.387   3.447   9.210  0.4324  0.5649  0.3682
 4505SOL     OW25573   4.027   5.112   3.966 -0.1729 -0.1473  0.1805
 4505SOL    HW125574   3.998   5.017   3.976  1.4556 -0.5487  1.2737
 4505SOL    HW225575   4.110   5.128   4.020 -0.3551  1.8663 -0.0802
 4506SOL     OW25576   9.675   2.789   5.300 -0.0893 -0.1874 -0.2698
 4506SOL    HW125577   9.733   2.731   5.242  0.9759  1.5438 -0.9685
 4506SOL    HW225578   9.722   2.875   5.319 -1.5177  0.3336  1.0269
 4507SOL     OW25579   2.849   1.300   5.913  0.1117  0.1240  0.1952
 4507SOL    HW125580   2.827   1.380   5.856  0.4593  0.3703  0.4094
 4507SOL    HW225581   2.915   1.243   5.865  2.1250  1.4720  1.2899
 4508SOL     OW25582   9.724   4.830   3.134 -0.8489  0.0984 -0.2326
 4508SOL    HW125583   9.624   4.829   3.133 -0.8559  0.5123  0.0324
 4508SOL    HW225584   9.757   4.925   3.134 -0.4614 -0.0329 -0.0338
 4509SOL     OW25585   9.805   7.694   2.079  0.2235  0.3978 -0.1136
 4509SOL    HW125586   9.733   7.735   2.134  0.3077  2.1990 -1.2927
 4509SOL    HW225587   9.767   7.620   2.024 -0.4307  0.4000  0.3360
 4510SOL     OW25588   6.876   0.441   5.899  0.4292  0.1689 -0.4436
 4510SOL    HW125589   6.916   0.522   5.942  1.5044 -0.8593  0.4992
 4510SOL    HW225590   6.883   0.450   5.800 -0.2103  1.6088 -0.3767
 4511SOL     OW25591   7.190   1.728   1.862 -0.4502  0.4077 -0.1422
 4511SOL    HW125592   7.190   1.668   1.942 -0.5995  0.4088 -0.1406
 4511SOL    HW225593   7.195   1.674   1.779 -0.4598  0.3978 -0.1364
 4512SOL     OW25594   5.201   7.389   2.355  0.0039  0.0443 -0.2582
 4512SOL    HW125595   5.176   7.396   2.259  0.9947  0.8144 -0.4682
 4512SOL    HW225596   5.272   7.319   2.366  1.9510  1.9283 -0.5149
 4513SOL     OW25597   0.446   3.320   5.065  0.0047 -0.6681  0.2630
 4513SOL    HW125598   0.396   3.238   5.093 -1.1562  0.6515  2.1552
 4513SOL    HW225599   0.389   3.401   5.079  1.9527  0.6876  0.6162
 4514SOL     OW25600   8.934   7.388   2.096 -0.5935 -0.0385  0.2817
 4514SOL    HW125601   8.894   7.443   2.023 -3.2654 -0.9067  1.0285
 4514SOL    HW225602   9.021   7.349   2.064 -0.6900  1.2573 -1.6800
 4515SOL     OW25603   2.683   5.083   2.024  0.6084  0.0218 -0.2659
 4515SOL    HW125604   2.721   5.169   1.989  0.3556  0.3878  0.3489
 4515SOL    HW225605   2.615   5.049   1.960  0.9793  0.0831 -0.6988
 4516SOL     OW25606   9.081   0.287   6.664  0.3284 -0.4740 -0.0239
 4516SOL    HW125607   9.006   0.267   6.728 -0.7604  1.0929 -0.7830
 4516SOL    HW225608   9.140   0.207   6.657 -0.7544 -1.4246  1.2908
 4517SOL     OW25609   9.351   8.451   3.535 -0.1696  0.3374 -0.2405
 4517SOL    HW125610   9.394   8.535   3.567 -0.2991  0.6084 -0.7602
 4517SOL    HW225611   9.421   8.381   3.519  0.1156  0.8441 -1.2867
 4518SOL     OW25612   0.923   6.812   7.024  0.1676 -0.1961 -0.3009
 4518SOL    HW125613   0.874   6.899   7.031  0.5999  0.0010  0.3667
 4518SOL    HW225614   0.929   6.785   6.928  0.7567  0.9488 -0.6080
 4519SOL     OW25615   5.378   1.964   9.920 -0.1597 -0.5573  0.5397
 4519SOL    HW125616   5.409   1.869   9.909  0.4331 -0.1683 -1.2924
 4519SOL    HW225617   5.279   1.965   9.933 -0.6893 -1.2566 -2.9063
 4520SOL     OW25618   5.092   0.978   8.861  0.1796  0.1393 -0.5252
 4520SOL    HW125619   5.043   0.981   8.774 -0.2833 -0.2424 -0.2766
 4520SOL    HW225620   5.060   1.052   8.920 -0.1662 -0.1734 -0.3233
 4521SOL     OW25621   9.184   8.703   4.309  0.2222 -0.0746 -0.3575
 4521SOL    HW125622   9.197   8.619   4.361 -0.0354  0.1465  0.0586
 4521SOL    HW225623   9.131   8.683   4.226 -0.5494 -0.1699  0.1579
 4522SOL     OW25624   8.394   8.820   0.519 -0.4920 -0.8012 -0.4643
 4522SOL    HW125625   8.377   8.847   0.424  0.6457 -0.9371 -0.7081
 4522SOL    HW225626   8.338   8.877   0.580  0.4047  0.7624 -1.0855
 4523SOL     OW25627   5.643   9.864   5.607 -0.0702 -0.1476 -0.1507
 4523SOL    HW125628   5.686   9.953   5.623 -1.2499  0.3738  0.1926
 4523SOL    HW225629   5.680   9.823   5.524  0.6551  0.5550 -0.1737
 4524SOL     OW25630   3.613   6.951   7.703  0.2610 -0.0808  0.0041
 4524SOL    HW125631   3.669   7.028   7.671 -0.5249  0.1197 -0.9285
 4524SOL    HW225632   3.669   6.890   7.758  1.2202  0.4990 -0.3116
 4525SOL     OW25633   9.532   8.123   5.342 -0.1037  0.4101  0.4991
 4525SOL    HW125634   9.436   8.106   5.323  0.3445  1.1712 -2.8213
 4525SOL    HW225635   9.587   8.050   5.302  0.7915  0.8261  0.9500
 4526SOL     OW25636   6.577   1.452   5.189  0.0627 -0.3167 -0.3216
 4526SOL    HW125637   6.592   1.393   5.268 -0.4468 -1.3072 -0.9382
 4526SOL    HW225638   6.489   1.429   5.147 -0.7434  1.7659  0.1708
 4527SOL     OW25639   1.009   2.995   1.185 -0.1571  0.1747  0.1947
 4527SOL    HW125640   1.089   3.042   1.223 -0.1872  0.8276 -0.5465
 4527SOL    HW225641   0.994   3.025   1.091 -0.3463 -1.1194 -0.1934
 4528SOL     OW25642   8.533   5.019   6.627  0.2023 -0.0362  0.6168
 4528SOL    HW125643   8.470   4.941   6.620 -0.0133  0.1967 -0.1342
 4528SOL    HW225644   8.491   5.091   6.682 -0.1654  0.0912  0.1747
 4529SOL     OW25645   3.420   4.714   7.556  0.4960  0.4924 -0.2095
 4529SOL    HW125646   3.436   4.809   7.526 -1.5014  1.1678  0.7332
 4529SOL    HW225647   3.458   4.701   7.647  0.2319  0.5781 -0.0856
 4530SOL     OW25648   9.638   0.591   6.550  0.1961 -0.0067  0.3355
 4530SOL    HW125649   9.651   0.630   6.641 -0.2890 -1.8363  1.2121
 4530SOL    HW225650   9.587   0.506   6.557  0.9984 -0.6753 -1.5454
 4531SOL     OW25651   6.453   8.333   5.370  0.2614  0.1725  0.4976
 4531SOL    HW125652   6.482   8.255   5.316  1.1286  0.7236  0.1555
 4531SOL    HW225653   6.445   8.306   5.466 -1.6212 -0.8923  0.0718
 4532SOL     OW25654   8.132   1.648   0.091 -0.3595 -0.0689 -1.0979
 4532SOL    HW125655   8.182   1.599   0.163  0.1811 -1.3946 -2.3580
 4532SOL    HW225656   8.038   1.664   0.122 -0.3952 -1.4192 -0.4361
 4533SOL     OW25657   3.403   9.024   5.960 -0.3981  0.0074  0.1911
 4533SOL    HW125658   3.338   9.078   6.013 -1.0327 -0.5530 -0.0108
 4533SOL    HW225659   3.354   8.975   5.888  0.2210 -0.5892  0.1774
 4534SOL     OW25660   7.324   7.084   7.283  0.1021  0.0955 -0.1716
 4534SOL    HW125661   7.375   7.088   7.369 -0.9720  1.3557  0.4173
 4534SOL    HW225662   7.227   7.071   7.302 -0.1662  0.5467 -1.1880
 4535SOL     OW25663   1.205   4.310   5.697 -0.3826  0.1503  0.2442
 4535SOL    HW125664   1.189   4.408   5.711 -1.3498 -0.3208  2.7162
 4535SOL    HW225665   1.281   4.280   5.756 -0.4186 -0.6759 -0.1260
 4536SOL     OW25666   5.429   1.414   9.673 -0.2819 -0.1702 -0.0072
 4536SOL    HW125667   5.346   1.364   9.645  0.1715 -0.2411 -1.2634
 4536SOL    HW225668   5.413   1.512   9.663  0.7800 -0.2675 -3.2179
 4537SOL     OW25669   0.431   2.652   1.749 -0.0151  0.1714 -0.0943
 4537SOL    HW125670   0.415   2.708   1.830  0.1555 -0.2568  0.2319
 4537SOL    HW225671   0.522   2.674   1.711 -0.0888  0.3597 -0.1638
 4538SOL     OW25672   6.891   0.297   8.163  0.2066  0.3305  0.2235
 4538SOL    HW125673   6.888   0.256   8.072 -1.5940  1.3546 -0.2022
 4538SOL    HW225674   6.941   0.383   8.159 -0.2805  0.6136  0.0807
 4539SOL     OW25675   4.576   3.200   8.172  0.2334  0.0327 -0.6521
 4539SOL    HW125676   4.608   3.259   8.098  1.7711  0.7718  0.5850
 4539SOL    HW225677   4.650   3.142   8.203  0.0082  0.7683  1.2994
 4540SOL     OW25678   3.821   1.194   0.543 -0.1962 -0.1176  0.1532
 4540SOL    HW125679   3.807   1.095   0.533 -0.0764 -0.1666  0.4794
 4540SOL    HW225680   3.917   1.216   0.524  0.2680 -0.3390  2.1354
 4541SOL     OW25681   1.782   5.869   8.859  0.2534  0.5734 -0.2521
 4541SOL    HW125682   1.788   5.786   8.914 -1.1077 -0.2184 -1.2716
 4541SOL    HW225683   1.755   5.946   8.918 -1.2631 -0.2736  0.1919
 4542SOL     OW25684   3.696   7.084   6.038 -0.6733 -0.3825 -0.7133
 4542SOL    HW125685   3.618   7.044   5.990 -1.5157 -0.2718  0.5252
 4542SOL    HW225686   3.728   7.019   6.108 -1.1187  0.4915  0.3166
 4543SOL     OW25687   7.838   7.248   8.350 -0.1935 -0.1155  0.8995
 4543SOL    HW125688   7.765   7.249   8.418 -0.6986  0.0068  0.3606
 4543SOL    HW225689   7.908   7.181   8.376 -1.2653 -1.3633  0.6044
 4544SOL     OW25690   0.885   9.883   5.793 -0.3295  0.2189 -0.1754
 4544SOL    HW125691   0.955   9.812   5.802 -2.2513 -1.6598  0.4095
 4544SOL    HW225692   0.839   9.874   5.705 -0.6237  0.6988 -0.0724
 4545SOL     OW25693   8.188   9.936   7.494 -0.6578 -0.6263 -0.2350
 4545SOL    HW125694   8.115   9.934   7.425  0.0377  0.1018 -1.0052
 4545SOL    HW225695   8.240  10.021   7.485 -0.0846 -0.8767  0.6940
 4546SOL     OW25696   0.813   5.958   3.112 -0.1182 -0.5152 -0.2980
 4546SOL    HW125697   0.861   5.973   3.199  0.9935  0.4550 -1.0422
 4546SOL    HW225698   0.731   5.904   3.127  0.0249 -0.2942  1.3686
 4547SOL     OW25699   1.984   6.433  10.055 -0.0773  0.3338  0.3725
 4547SOL    HW125700   2.021   6.519  10.090  1.6543 -0.5022  0.6668
 4547SOL    HW225701   1.915   6.452   9.985 -0.3902  1.9560  1.1043
 4548SOL     OW25702   4.109   2.823   3.143 -0.5308  0.0933 -0.1538
 4548SOL    HW125703   4.039   2.754   3.122 -0.2604  0.2921 -1.8165
 4548SOL    HW225704   4.136   2.868   3.058  2.8312 -1.1591  0.1856
 4549SOL     OW25705   5.386   0.682   3.306  0.3687 -0.8587 -0.5985
 4549SOL    HW125706   5.323   0.629   3.248 -0.7584  0.7719 -0.9040
 4549SOL    HW225707   5.434   0.749   3.249  1.0365 -0.8584 -0.0392
 4550SOL     OW25708   8.471   0.888   7.766  0.0001  0.2290 -0.1687
 4550SOL    HW125709   8.509   0.889   7.858 -0.4200  1.2748  0.0042
 4550SOL    HW225710   8.413   0.969   7.753  1.5443  1.0829 -1.9721
 4551SOL     OW25711   1.118   5.084   4.931  0.3753  0.3447  0.0566
 4551SOL    HW125712   1.074   5.108   4.844 -0.9008 -1.0740  0.2918
 4551SOL    HW225713   1.061   5.018   4.980  2.5369 -1.1601  0.6151
 4552SOL     OW25714   9.324   7.548   4.008 -0.4125  0.3700  0.4037
 4552SOL    HW125715   9.296   7.491   4.085  0.0853 -1.7792 -0.9896
 4552SOL    HW225716   9.368   7.631   4.043 -1.7682  0.2575  2.4537
 4553SOL     OW25717   9.137   0.945   3.694 -0.0617  0.9247  0.3016
 4553SOL    HW125718   9.194   0.872   3.656 -0.5407 -0.3661  1.9702
 4553SOL    HW225719   9.083   0.987   3.622 -1.3386 -1.7897 -0.4101
 4554SOL     OW25720   6.645   1.218   8.160  0.5412 -0.4207  0.2974
 4554SOL    HW125721   6.693   1.284   8.102  0.4551 -1.1420 -0.6004
 4554SOL    HW225722   6.633   1.257   8.251  0.5867  0.7626 -0.1925
 4555SOL     OW25723   8.614   5.817   3.682  0.4110  0.1525 -0.2166
 4555SOL    HW125724   8.652   5.812   3.774  0.9396 -0.0839 -0.4421
 4555SOL    HW225725   8.603   5.912   3.655 -0.1158  0.2184  0.2433
 4556SOL     OW25726   8.472   2.791   0.788 -0.4035  0.6203  0.1985
 4556SOL    HW125727   8.533   2.862   0.753 -0.8724  0.2729 -1.3686
 4556SOL    HW225728   8.518   2.740   0.861  1.4882 -0.1368 -1.4660
 4557SOL     OW25729   9.328   9.707   6.254 -0.4196 -0.9092  0.0557
 4557SOL    HW125730   9.240   9.661   6.265 -0.6910 -0.5504 -0.5701
 4557SOL    HW225731   9.397   9.662   6.311 -1.1764 -0.7176  1.1220
 4558SOL     OW25732   1.387   8.496   0.172 -0.3498 -0.0552 -0.0457
 4558SOL    HW125733   1.296   8.516   0.210 -0.4904  0.9146 -0.8900
 4558SOL    HW225734   1.399   8.396   0.166 -1.6154 -0.1816 -0.5590
 4559SOL     OW25735   0.280   8.289   2.658 -0.4656  0.7332 -0.6230
 4559SOL    HW125736   0.198   8.262   2.606  0.0996  0.1555 -1.2221
 4559SOL    HW225737   0.278   8.245   2.748 -1.7510  2.2182  0.0954
 4560SOL     OW25738   3.869   7.417   9.211 -0.4349 -0.2220  0.4034
 4560SOL    HW125739   3.960   7.379   9.191  0.4934  2.3446 -0.4394
 4560SOL    HW225740   3.829   7.453   9.126 -1.4107  0.3941  1.1195
 4561SOL     OW25741   2.206   1.668   5.951  0.2219  0.6546  0.2018
 4561SOL    HW125742   2.196   1.707   6.043 -1.5425  0.6625  0.0267
 4561SOL    HW225743   2.192   1.569   5.956 -2.0152  0.9212 -0.3625
 4562SOL     OW25744   2.693   3.291   0.110  0.5303 -0.0948 -0.2345
 4562SOL    HW125745   2.599   3.322   0.124  0.3047 -0.9374  0.1853
 4562SOL    HW225746   2.750   3.368   0.085 -0.1467  0.5390  0.1433
 4563SOL     OW25747   8.436   0.266   1.255  0.8693 -0.2925  0.4266
 4563SOL    HW125748   8.493   0.275   1.174 -0.1484 -1.0456 -0.3854
 4563SOL    HW225749   8.420   0.169   1.275  1.2863 -0.1221  1.6533
 4564SOL     OW25750   9.877   5.375   6.304  0.1300 -0.7253  0.0782
 4564SOL    HW125751   9.882   5.349   6.400  1.6640 -1.8866 -0.2905
 4564SOL    HW225752   9.969   5.381   6.266 -0.4063  0.7661 -1.0632
 4565SOL     OW25753   8.340   4.144   2.597 -0.5162  0.6065 -0.4231
 4565SOL    HW125754   8.405   4.174   2.526 -1.1714  1.5528 -0.6313
 4565SOL    HW225755   8.251   4.126   2.555 -0.6643  0.2919  0.0230
 4566SOL     OW25756   3.649   3.172   2.013  0.6620 -0.4535  0.0067
 4566SOL    HW125757   3.722   3.236   2.038  0.0007  0.0180  0.7724
 4566SOL    HW225758   3.565   3.224   1.993  0.4237 -1.0149 -0.4674
 4567SOL     OW25759   8.443   5.635   7.844 -0.1587  0.5372  0.1636
 4567SOL    HW125760   8.349   5.662   7.867 -0.2451  0.1222  0.3245
 4567SOL    HW225761   8.507   5.705   7.873 -0.2894  0.1216  1.4761
 4568SOL     OW25762   2.792   9.087   5.484 -0.5120  0.1914  0.6514
 4568SOL    HW125763   2.851   9.161   5.451  0.1742  0.2710  2.0066
 4568SOL    HW225764   2.848   9.006   5.502 -1.3437 -0.8579 -1.3723
 4569SOL     OW25765   9.552   8.592   0.616  0.2484  0.1667 -0.3000
 4569SOL    HW125766   9.546   8.666   0.684  0.7743  0.6883 -0.8168
 4569SOL    HW225767   9.463   8.577   0.575 -0.3592 -0.9863  1.3752
 4570SOL     OW25768   3.943   4.989   5.865  0.1419 -0.5567 -0.1030
 4570SOL    HW125769   3.924   4.931   5.786  1.5630 -0.8468 -0.2334
 4570SOL    HW225770   3.923   4.939   5.949 -0.9216 -0.4047 -0.2500
 4571SOL     OW25771   9.320   4.118   3.776 -0.3260  0.4965 -0.3578
 4571SOL    HW125772   9.411   4.085   3.749  0.9427  2.8612  0.9106
 4571SOL    HW225773   9.286   4.181   3.707 -0.0719  1.2483  0.1998
 4572SOL     OW25774   9.189   5.471   3.462 -0.1702  0.1087  0.0638
 4572SOL    HW125775   9.188   5.401   3.534 -1.4262 -0.8895 -0.9027
 4572SOL    HW225776   9.171   5.561   3.502  1.0047 -0.1637  1.2530
 4573SOL     OW25777   7.963   1.930   0.808 -0.0229  0.0249  0.0353
 4573SOL    HW125778   7.902   2.004   0.837 -0.0931 -0.8090  2.1022
 4573SOL    HW225779   8.054   1.946   0.846  0.3407 -0.1851 -0.7455
 4574SOL     OW25780   8.906   1.053   3.477 -0.0707  0.5328 -0.4315
 4574SOL    HW125781   8.908   0.977   3.412 -1.7607  1.1243 -1.2240
 4574SOL    HW225782   8.811   1.067   3.508  0.8249 -0.4123  2.9974
 4575SOL     OW25783   6.546   3.259   0.081 -0.0794  0.0047 -0.3952
 4575SOL    HW125784   6.485   3.229   0.155  1.9823 -0.0046  1.3558
 4575SOL    HW225785   6.521   3.351   0.052 -0.5439  0.2634  0.7692
 4576SOL     OW25786   1.609   6.927   0.677  0.1655  0.4349  0.7301
 4576SOL    HW125787   1.681   6.996   0.664  0.3038  0.0903 -0.3565
 4576SOL    HW225788   1.651   6.837   0.685 -0.1039  0.3146  0.7947
 4577SOL     OW25789   3.462   3.525   0.612  0.0506 -0.1247 -0.7013
 4577SOL    HW125790   3.399   3.515   0.535 -1.9070  0.6223  0.7722
 4577SOL    HW225791   3.425   3.479   0.692  0.9417  1.0910  0.4420
 4578SOL     OW25792   7.578   8.399   6.485 -0.7429 -0.0301  0.2877
 4578SOL    HW125793   7.491   8.442   6.463 -1.4567 -0.6766  1.8180
 4578SOL    HW225794   7.575   8.360   6.577  1.8160  1.6737  1.1598
 4579SOL     OW25795   0.120   0.414   1.941  0.2963 -0.1004  0.5313
 4579SOL    HW125796   0.178   0.437   2.020  1.6909  0.8254 -0.7207
 4579SOL    HW225797   0.174   0.424   1.857 -2.0578  2.1459 -0.7860
 4580SOL     OW25798   0.568   0.729   9.655  0.2726 -0.0161 -0.3739
 4580SOL    HW125799   0.581   0.763   9.562 -1.3724 -0.2466 -0.7163
 4580SOL    HW225800   0.470   0.722   9.673  0.5704 -2.2641  0.5206
 4581SOL     OW25801   8.340   4.560   8.257  0.0501 -0.3097  0.0565
 4581SOL    HW125802   8.369   4.538   8.164  1.5063  0.8631  0.2295
 4581SOL    HW225803   8.270   4.494   8.286  1.3526 -2.1787 -0.9632
 4582SOL     OW25804   5.966   7.693   4.910 -0.4985 -0.0511  1.0352
 4582SOL    HW125805   6.025   7.721   4.986  0.2582  0.1403  0.3813
 4582SOL    HW225806   6.022   7.666   4.832 -1.2442 -1.6102  1.0121
 4583SOL     OW25807   3.042   8.670   4.820 -0.0489 -0.1957  0.5803
 4583SOL    HW125808   2.978   8.670   4.743  0.3413 -1.1549  0.2556
 4583SOL    HW225809   3.032   8.756   4.870 -1.7737 -0.4395  0.6928
 4584SOL     OW25810   3.451   6.845   0.414 -0.0543  0.4811 -0.0376
 4584SOL    HW125811   3.533   6.878   0.460 -1.8769  3.3660  1.3128
 4584SOL    HW225812   3.392   6.799   0.481 -1.2203  1.7644 -0.1664
 4585SOL     OW25813   2.664   4.112   9.131 -0.0079  0.0773 -0.6937
 4585SOL    HW125814   2.750   4.163   9.133  0.4716 -0.7506  0.5890
 4585SOL    HW225815   2.587   4.176   9.126  0.6342  0.8640 -0.6183
 4586SOL     OW25816   2.301   6.281   0.637 -0.4803 -0.7413 -0.7999
 4586SOL    HW125817   2.284   6.368   0.591  0.0195 -1.0146 -1.5175
 4586SOL    HW225818   2.214   6.239   0.662 -0.6954  1.3750  2.2653
 4587SOL     OW25819   5.670   4.317   8.023  0.2727 -0.4579 -0.1051
 4587SOL    HW125820   5.622   4.255   7.961  0.5163 -1.5418  0.7753
 4587SOL    HW225821   5.762   4.334   7.989  0.2991 -0.7998 -0.2048
 4588SOL     OW25822   9.318   8.395   1.789 -0.0863  0.2012  0.3356
 4588SOL    HW125823   9.282   8.327   1.854  0.1931 -1.6553 -1.3917
 4588SOL    HW225824   9.417   8.404   1.802  0.1282 -0.8845 -0.4316
 4589SOL     OW25825   0.550   9.903   1.785  0.0153 -0.0969 -0.6126
 4589SOL    HW125826   0.502   9.962   1.720 -0.1916 -1.1264 -1.4158
 4589SOL    HW225827   0.609   9.959   1.844 -1.8251  1.1443  0.1074
 4590SOL     OW25828   7.649   3.356   2.512 -0.1655 -0.0252  0.3795
 4590SOL    HW125829   7.705   3.297   2.455  0.2380 -0.8932  1.6645
 4590SOL    HW225830   7.557   3.317   2.519 -0.1702  0.0018  0.4589
 4591SOL     OW25831   1.608   7.530   2.749  0.2665 -0.1198 -0.3648
 4591SOL    HW125832   1.592   7.525   2.848  0.3634  1.1617 -0.2796
 4591SOL    HW225833   1.537   7.477   2.701 -0.2994 -0.0075  0.3396
 4592SOL     OW25834   0.548   7.938   5.297  0.9714 -0.4524 -0.1865
 4592SOL    HW125835   0.615   7.864   5.286 -0.0037 -1.3136 -0.3689
 4592SOL    HW225836   0.467   7.917   5.243  0.6600  0.7248 -0.1727
 4593SOL     OW25837   4.268   8.338   6.757  0.0495 -0.2725  0.3548
 4593SOL    HW125838   4.334   8.380   6.695 -1.5244  1.4739 -0.2020
 4593SOL    HW225839   4.217   8.267   6.710  0.2256 -0.3146  0.2312
 4594SOL     OW25840   8.908   6.848   8.431  0.1799  0.2080  0.2256
 4594SOL    HW125841   8.958   6.875   8.514 -0.5502  0.2657  0.6464
 4594SOL    HW225842   8.953   6.889   8.351 -1.2303  3.2003  0.8788
 4595SOL     OW25843   9.665   9.163   7.290 -0.4741 -0.1636  0.4336
 4595SOL    HW125844   9.675   9.117   7.202 -1.4374 -0.8098  0.6498
 4595SOL    HW225845   9.678   9.097   7.364 -0.4904  0.2020  0.7606
 4596SOL     OW25846   3.520   5.826   6.236  0.2375 -0.7706  0.1339
 4596SOL    HW125847   3.488   5.886   6.309  1.7367 -0.4849  0.5660
 4596SOL    HW225848   3.559   5.743   6.275 -0.0706 -1.1692 -0.3899
 4597SOL     OW25849   8.448   1.782   9.437  0.3391  0.0767 -0.0514
 4597SOL    HW125850   8.415   1.692   9.407  0.5203  0.0434 -0.1506
 4597SOL    HW225851   8.427   1.849   9.366  1.3672 -0.1235 -0.5482
 4598SOL     OW25852   9.077   4.880   4.037 -0.0523  0.5700  0.3270
 4598SOL    HW125853   9.070   4.979   4.021  1.1607  0.5489 -0.3773
 4598SOL    HW225854   9.042   4.859   4.128  2.8574  2.1140  1.8654
 4599SOL     OW25855   2.282   1.233   1.890 -0.0833  0.3272 -0.8565
 4599SOL    HW125856   2.195   1.186   1.903 -1.0038  1.9870 -0.8207
 4599SOL    HW225857   2.266   1.332   1.883  1.9338  0.7857  0.4782
 4600SOL     OW25858   2.563   5.418   4.176  0.2236 -0.0814 -0.6478
 4600SOL    HW125859   2.524   5.453   4.091 -0.4049 -2.3305 -1.3253
 4600SOL    HW225860   2.661   5.437   4.177  0.0195  1.0925 -1.2737
 4601SOL     OW25861   9.048   0.745   0.446  0.4195  0.3817  0.1708
 4601SOL    HW125862   9.143   0.721   0.467  0.1577 -0.4661  0.4137
 4601SOL    HW225863   9.036   0.844   0.455  1.7498  0.7409 -1.7973
 4602SOL     OW25864   7.919   3.633   5.006  0.5564 -0.4588  0.0628
 4602SOL    HW125865   8.000   3.642   5.063 -0.2125 -2.9278  1.6024
 4602SOL    HW225866   7.920   3.544   4.960 -0.6866 -0.0047 -0.8753
 4603SOL     OW25867   4.552   4.807   8.831  0.3906 -0.3315  0.3702
 4603SOL    HW125868   4.605   4.870   8.774 -0.2607 -1.7066 -1.8597
 4603SOL    HW225869   4.615   4.745   8.879  0.9299  0.3058  0.4879
 4604SOL     OW25870   2.989   3.991   6.862 -0.0442 -0.1927 -0.2734
 4604SOL    HW125871   2.985   3.937   6.778 -0.1743  0.4833 -0.7092
 4604SOL    HW225872   3.078   4.035   6.869  0.0511 -0.4394  0.0647
 4605SOL     OW25873   1.072   9.903   0.496  0.2138  0.3687 -0.0955
 4605SOL    HW125874   0.973   9.908   0.493  0.1156 -0.6922  0.9342
 4605SOL    HW225875   1.107   9.971   0.561  0.0857 -0.0156  0.3751
 4606SOL     OW25876   4.388   6.612   3.955 -0.3246  0.4548 -0.3477
 4606SOL    HW125877   4.476   6.660   3.956 -0.0754 -0.0124  0.1240
 4606SOL    HW225878   4.344   6.625   3.866 -0.2677  1.5729 -0.2176
 4607SOL     OW25879   8.693   7.029   8.439  0.5240  0.0729 -0.2962
 4607SOL    HW125880   8.756   6.952   8.455  0.1601 -0.4478 -1.3335
 4607SOL    HW225881   8.605   6.994   8.409  0.3291  0.9064 -0.6918
 4608SOL     OW25882   0.834   4.788   1.030 -0.5192  0.1932 -0.1589
 4608SOL    HW125883   0.759   4.855   1.024  0.0025  0.5917 -2.9461
 4608SOL    HW225884   0.846   4.760   1.125 -1.6309  3.0616  0.8801
 4609SOL     OW25885   3.157   8.577   4.291 -0.0351  0.5648  0.1601
 4609SOL    HW125886   3.216   8.499   4.316 -0.7213  0.2838  0.9132
 4609SOL    HW225887   3.133   8.570   4.194 -0.0199 -0.1204  0.2005
 4610SOL     OW25888   1.703   9.651   6.292 -0.6834 -0.3238 -0.2736
 4610SOL    HW125889   1.703   9.744   6.256  0.3123  0.2857  1.2247
 4610SOL    HW225890   1.780   9.640   6.355 -0.7483 -2.1911 -0.4946
 4611SOL     OW25891   5.523   2.597   4.730  0.3106  0.3905  0.1872
 4611SOL    HW125892   5.562   2.504   4.726 -0.7545 -0.0168 -0.7330
 4611SOL    HW225893   5.555   2.649   4.651  0.2294  0.5488  0.2603
 4612SOL     OW25894   2.915   4.060   4.775 -0.0009  0.2374 -0.5145
 4612SOL    HW125895   2.937   4.110   4.859  2.9403 -0.3011 -0.8987
 4612SOL    HW225896   2.862   4.119   4.715 -1.0918  1.0571  1.1978
 4613SOL     OW25897   9.305   5.999   7.187 -0.0101  0.4530 -0.1491
 4613SOL    HW125898   9.242   5.943   7.132  0.3682 -1.6549  1.5200
 4613SOL    HW225899   9.254   6.045   7.260  0.0480  0.4490 -0.1059
 4614SOL     OW25900   8.877   3.212   9.148 -0.5885  0.1248  0.0418
 4614SOL    HW125901   8.860   3.251   9.057  2.5344  2.0799  0.2223
 4614SOL    HW225902   8.969   3.173   9.150 -0.1846  1.1791  2.7306
 4615SOL     OW25903   0.486   6.428   9.358  0.0717  0.0523 -0.0500
 4615SOL    HW125904   0.546   6.375   9.298 -2.9771 -3.0084 -0.4982
 4615SOL    HW225905   0.468   6.517   9.316  1.7751 -0.1796 -1.3503
 4616SOL     OW25906   6.701   0.853   2.652  0.5116  0.0679  0.5887
 4616SOL    HW125907   6.746   0.936   2.687 -0.8520  0.6810  0.9061
 4616SOL    HW225908   6.615   0.878   2.609  1.1228 -0.9558 -1.2555
 4617SOL     OW25909   4.332   3.518   1.479 -0.3539 -0.0605 -0.3143
 4617SOL    HW125910   4.344   3.605   1.526  0.3794 -0.0307 -0.5539
 4617SOL    HW225911   4.362   3.526   1.384 -0.1595 -0.6100 -0.3043
 4618SOL     OW25912   8.814   8.355   2.874 -0.2232  0.3926 -0.4944
 4618SOL    HW125913   8.787   8.339   2.779 -0.2208  0.8072 -0.5657
 4618SOL    HW225914   8.750   8.418   2.917 -0.5839 -0.2832 -0.0327
 4619SOL     OW25915   2.048   6.619   8.325 -0.0422  0.2405 -0.3378
 4619SOL    HW125916   2.102   6.653   8.248 -1.9787 -0.8879 -2.2466
 4619SOL    HW225917   2.048   6.687   8.398  1.1401  1.7050 -1.6693
 4620SOL     OW25918   2.825   4.772   1.674 -0.6236  0.2662 -0.4968
 4620SOL    HW125919   2.872   4.787   1.587  0.5007  1.0982  0.2419
 4620SOL    HW225920   2.882   4.715   1.733 -1.1438  0.1584 -0.0973
 4621SOL     OW25921   2.853   0.110   1.945 -0.7492  0.0265 -0.7581
 4621SOL    HW125922   2.861   0.048   2.023  0.9788 -0.1095 -1.0086
 4621SOL    HW225923   2.897   0.069   1.865 -2.0448  0.3856 -1.6678
 4622SOL     OW25924   4.759   0.268   4.036  0.0843 -0.4528 -0.3829
 4622SOL    HW125925   4.828   0.212   4.082  0.1424  1.3629  1.8078
 4622SOL    HW225926   4.668   0.242   4.069 -0.0545 -0.6520 -0.9109
 4623SOL     OW25927   6.882   4.784   1.272  0.2199 -0.0597  0.5838
 4623SOL    HW125928   6.884   4.881   1.247 -2.3243 -0.3816 -1.0195
 4623SOL    HW225929   6.975   4.749   1.278  1.1076  0.9077 -5.1236
 4624SOL     OW25930   9.794   8.077   5.109  0.4343  0.4872 -0.4402
 4624SOL    HW125931   9.744   8.025   5.177 -1.2537 -0.6603 -2.4919
 4624SOL    HW225932   9.751   8.166   5.095 -0.5447 -0.1561 -1.5799
 4625SOL     OW25933   8.637   8.202   9.393  0.3431 -0.1427  0.0646
 4625SOL    HW125934   8.703   8.242   9.457  0.7806 -1.3559  0.3734
 4625SOL    HW225935   8.552   8.255   9.396  0.8168  0.6002  0.6675
 4626SOL     OW25936   1.486   9.959   3.790 -0.3935  0.2613 -0.2029
 4626SOL    HW125937   1.439   9.999   3.711 -0.9654 -1.1604 -0.5899
 4626SOL    HW225938   1.528   9.872   3.764  0.8487  0.6027  0.6351
 4627SOL     OW25939   9.832   7.706   8.500 -0.3259 -0.4914  0.0338
 4627SOL    HW125940   9.916   7.705   8.445 -0.7669  0.4620 -0.6626
 4627SOL    HW225941   9.831   7.789   8.557 -0.8866 -0.4004 -0.1083
 4628SOL     OW25942   9.975   4.531   2.940 -0.6156  0.0139  0.3788
 4628SOL    HW125943  10.015   4.581   2.864  1.9867  1.8277  2.8638
 4628SOL    HW225944   9.996   4.433   2.930  0.8094  0.4018 -0.5201
 4629SOL     OW25945   2.944   5.831   1.748 -0.0978  0.4830  0.1367
 4629SOL    HW125946   2.934   5.805   1.844  0.1610 -2.0859 -0.4880
 4629SOL    HW225947   2.878   5.780   1.693  1.4976 -0.0116 -1.3471
 4630SOL     OW25948   5.236   9.565   3.415  0.6491 -0.0078 -0.6189
 4630SOL    HW125949   5.332   9.582   3.435  0.6284  0.9782 -1.3080
 4630SOL    HW225950   5.196   9.646   3.373 -1.3231  0.7379  2.5878
 4631SOL     OW25951   6.102   0.349   7.079 -0.0685  0.5129 -0.0910
 4631SOL    HW125952   6.044   0.334   6.999  0.0533  0.1135 -0.1094
 4631SOL    HW225953   6.067   0.296   7.156  0.4596 -0.0005 -0.1961
 4632SOL     OW25954   2.654   9.562   3.857  0.0267 -0.8684  0.1012
 4632SOL    HW125955   2.736   9.505   3.865 -0.3892 -1.6044 -0.7780
 4632SOL    HW225956   2.614   9.575   3.947  1.6676  0.3305  0.6753
 4633SOL     OW25957   5.713   4.046   2.456 -0.0881 -0.0409 -0.4998
 4633SOL    HW125958   5.740   4.029   2.551  1.1624  0.5548 -0.7393
 4633SOL    HW225959   5.634   3.989   2.433  0.1037 -0.7850  0.6513
 4634SOL     OW25960   1.659   9.961   8.898  0.1239  0.5722  0.0458
 4634SOL    HW125961   1.613   9.873   8.886  3.1765 -1.2762  1.5336
 4634SOL    HW225962   1.689   9.971   8.992 -1.0863  3.7214  0.1650
 4635SOL     OW25963   7.711   0.697   4.536  0.7825  0.0527  0.7778
 4635SOL    HW125964   7.691   0.604   4.502 -0.0212  0.4828  0.0435
 4635SOL    HW225965   7.625   0.744   4.556  1.2239  0.1301  2.5838
 4636SOL     OW25966   0.412   2.233   3.489 -0.4176  0.7760 -0.0846
 4636SOL    HW125967   0.411   2.331   3.510 -1.3918  0.1997  2.8352
 4636SOL    HW225968   0.318   2.199   3.490 -0.0828 -0.1684 -1.1801
 4637SOL     OW25969   0.398   9.851   2.008 -0.0826 -0.7529 -0.0397
 4637SOL    HW125970   0.460   9.866   2.085 -1.5832  0.3333  1.0102
 4637SOL    HW225971   0.424   9.910   1.932  0.4445 -0.6247  0.2392
 4638SOL     OW25972   1.817   4.732   8.872 -0.2532  0.0948 -0.5034
 4638SOL    HW125973   1.850   4.788   8.948 -0.9167 -0.8107  0.4689
 4638SOL    HW225974   1.871   4.648   8.868  0.0809  0.3437 -1.3313
 4639SOL     OW25975   5.765   5.148   8.511 -0.4648  0.2228 -0.1381
 4639SOL    HW125976   5.835   5.079   8.493 -1.2836 -0.3306 -1.2306
 4639SOL    HW225977   5.763   5.214   8.436 -1.2059  0.1616 -0.1720
 4640SOL     OW25978   9.901   8.294   1.387 -0.1481 -0.1586 -0.0572
 4640SOL    HW125979   9.864   8.204   1.406  0.1788 -0.2397  0.2164
 4640SOL    HW225980   9.885   8.354   1.466  1.3414 -0.5369  0.5512
 4641SOL     OW25981   3.950   2.982   2.666 -0.0214  0.4698 -0.5118
 4641SOL    HW125982   4.040   2.948   2.641 -0.6168 -1.4363 -0.0972
 4641SOL    HW225983   3.933   3.069   2.619  1.7072  0.4624 -1.1807
 4642SOL     OW25984   1.208   8.351   7.722 -0.0679 -0.5626  0.2624
 4642SOL    HW125985   1.207   8.451   7.734  0.5782 -0.4359 -0.6878
 4642SOL    HW225986   1.164   8.308   7.801  1.7899  0.3525  1.8524
 4643SOL     OW25987   8.891   3.251   9.490 -0.1247 -0.3120  0.2656
 4643SOL    HW125988   8.896   3.332   9.432  0.6586  0.0475  0.8270
 4643SOL    HW225989   8.842   3.179   9.442  0.4636  0.0052 -0.8332
 4644SOL     OW25990   8.024   1.652   7.009 -0.0884 -0.2099  0.4700
 4644SOL    HW125991   8.110   1.662   6.959 -0.1094  0.5880  0.6001
 4644SOL    HW225992   7.972   1.577   6.970  0.7885 -0.8809  0.5571
 4645SOL     OW25993   2.086   9.829   5.808  0.0045 -0.1005  0.7170
 4645SOL    HW125994   2.105   9.883   5.890 -1.8006  0.9448  0.4641
 4645SOL    HW225995   2.146   9.860   5.734  0.3805  0.1778  1.1296
 4646SOL     OW25996   8.902   8.790   2.393  0.6873 -0.5760 -0.0201
 4646SOL    HW125997   8.881   8.776   2.296 -0.4785  1.5204 -0.0973
 4646SOL    HW225998   8.822   8.764   2.447  0.1941  1.1746  0.1366
 4647SOL     OW25999   4.147   9.842  10.072 -0.0735 -0.1521 -0.4242
 4647SOL    HW126000   4.180   9.855   9.978 -4.0807  1.4137 -1.7196
 4647SOL    HW226001   4.108   9.928  10.105  0.3135 -0.9908  2.2977
 4648SOL     OW26002   6.264   5.410   7.582 -0.7023 -0.3729  0.0004
 4648SOL    HW126003   6.244   5.316   7.554  2.0357 -1.3210  1.0045
 4648SOL    HW226004   6.299   5.461   7.504 -3.4092  0.2029 -0.8548
 4649SOL     OW26005   3.575   5.733   4.193 -0.3848  0.0741 -0.2181
 4649SOL    HW126006   3.561   5.647   4.242  0.3274  0.4242  0.6040
 4649SOL    HW226007   3.510   5.802   4.227 -0.2594  0.1596 -0.1524
 4650SOL     OW26008   2.644   9.753   3.678 -0.3379  0.8546  0.2546
 4650SOL    HW126009   2.638   9.679   3.744  0.4786  0.8408  0.3101
 4650SOL    HW226010   2.731   9.749   3.629 -0.3270  1.7142  0.1829
 4651SOL     OW26011   8.607   8.621   8.634  0.6668 -0.2973  0.0800
 4651SOL    HW126012   8.649   8.600   8.545 -0.8705 -0.2315 -0.6802
 4651SOL    HW226013   8.507   8.616   8.626  0.4245  1.7661  1.2603
 4652SOL     OW26014   8.915   3.189   1.879  0.0368  0.0164  0.4263
 4652SOL    HW126015   8.947   3.135   1.801 -0.2617 -0.3235  0.5379
 4652SOL    HW226016   8.913   3.286   1.854  0.2102 -0.0620  0.1029
 4653SOL     OW26017   5.328   8.373   4.736 -0.9295 -0.5928 -0.0605
 4653SOL    HW126018   5.360   8.291   4.688 -0.2778 -1.9177  2.5455
 4653SOL    HW226019   5.407   8.431   4.758 -0.9580 -1.0203  1.2228
 4654SOL     OW26020   1.999   8.678   5.254  0.0061  0.5537 -0.3118
 4654SOL    HW126021   1.914   8.696   5.206  0.5134 -0.6012 -1.6704
 4654SOL    HW226022   1.980   8.666   5.352 -1.3867  0.2524 -0.6057
 4655SOL     OW26023   0.254   6.947   8.530  0.0913 -0.5369 -0.7707
 4655SOL    HW126024   0.312   6.974   8.453 -0.5038  0.1632 -0.9728
 4655SOL    HW226025   0.185   7.017   8.546  1.1038  0.0318  1.3262
 4656SOL     OW26026   7.247   9.649   4.561 -0.1991 -0.1416  0.3402
 4656SOL    HW126027   7.335   9.658   4.513  0.4280  0.4408  1.5687
 4656SOL    HW226028   7.202   9.565   4.532  0.5424 -0.2054 -0.6682
 4657SOL     OW26029   2.565   4.081   7.106  0.0833 -0.1703  0.1350
 4657SOL    HW126030   2.548   4.156   7.169  1.5376 -0.8154  1.3301
 4657SOL    HW226031   2.645   4.029   7.137 -0.1022 -1.4092 -1.4031
 4658SOL     OW26032   3.502   7.603   6.070 -0.7409  0.4229 -0.0337
 4658SOL    HW126033   3.536   7.694   6.047 -1.0812  0.9140  1.3436
 4658SOL    HW226034   3.427   7.579   6.008 -0.7420  1.1369 -0.3181
 4659SOL     OW26035   7.724   4.135   8.847 -0.2115  0.8132  0.0877
 4659SOL    HW126036   7.723   4.178   8.757  1.2321  0.6004 -0.0457
 4659SOL    HW226037   7.662   4.057   8.848 -0.0387  0.6651 -0.7961
 4660SOL     OW26038   9.528   3.239   2.203 -0.1020  0.0079 -0.0283
 4660SOL    HW126039   9.431   3.243   2.180 -0.3961  1.9174  1.4745
 4660SOL    HW226040   9.550   3.148   2.238 -1.6391 -0.0132  0.9186
 4661SOL     OW26041   0.729   0.224   5.441 -0.2190  0.3663  0.8313
 4661SOL    HW126042   0.813   0.258   5.400 -0.2894 -0.4468 -0.0191
 4661SOL    HW226043   0.655   0.289   5.426 -0.3905 -0.2146 -0.9315
 4662SOL     OW26044   0.596   0.289   1.607  0.2580 -0.3184  0.0952
 4662SOL    HW126045   0.503   0.255   1.619 -0.5835  2.3566  1.6843
 4662SOL    HW226046   0.637   0.306   1.697  0.5675  2.8887 -0.5758
 4663SOL     OW26047   1.020   0.863   6.176 -0.1436  0.1029 -0.0763
 4663SOL    HW126048   1.005   0.800   6.100  2.2096 -0.8262  0.1930
 4663SOL    HW226049   0.949   0.851   6.245 -0.2879 -1.5470 -0.5037
 4664SOL     OW26050   6.462   1.020   2.451 -0.4777  0.3481 -0.2649
 4664SOL    HW126051   6.419   0.989   2.366 -1.2785 -0.0677  0.2872
 4664SOL    HW226052   6.554   1.055   2.431  0.3724 -2.1750 -0.9612
 4665SOL     OW26053   1.229   9.118   9.395  0.2035  0.1361 -0.1198
 4665SOL    HW126054   1.260   9.088   9.305  0.6344  0.0514  0.0577
 4665SOL    HW226055   1.158   9.188   9.384  0.0812 -0.0485 -0.5254
 4666SOL     OW26056   8.764   9.850   6.751  0.2063 -0.0574  0.8464
 4666SOL    HW126057   8.673   9.828   6.718  1.4110 -1.3667 -1.7708
 4666SOL    HW226058   8.793   9.782   6.818 -0.2128 -0.3810  0.7012
 4667SOL     OW26059   4.254   3.099   2.714  0.0729 -0.1394 -0.5756
 4667SOL    HW126060   4.249   3.019   2.654 -2.6131  1.5715 -2.7551
 4667SOL    HW226061   4.347   3.135   2.714  0.2712 -0.5690 -3.1977
 4668SOL     OW26062   0.373   7.469   6.158  0.3589 -0.4942 -0.0500
 4668SOL    HW126063   0.392   7.376   6.129 -0.8397 -0.3503 -1.3732
 4668SOL    HW226064   0.460   7.519   6.169  0.9015 -0.6755 -3.0808
 4669SOL     OW26065   8.615   0.555   8.854 -0.2665  0.1432 -0.4360
 4669SOL    HW126066   8.667   0.596   8.929 -2.0534 -1.5106  1.7651
 4669SOL    HW226067   8.610   0.620   8.778  0.4686  2.3783  1.3676
 4670SOL     OW26068   1.604   2.367   9.818  0.1343 -0.1260  0.0580
 4670SOL    HW126069   1.703   2.385   9.817  0.6881 -3.0050 -0.7259
 4670SOL    HW226070   1.585   2.286   9.873 -1.5880 -0.7604 -1.4135
 4671SOL     OW26071   0.520   8.487   0.558  0.4223  0.6209 -0.4734
 4671SOL    HW126072   0.512   8.554   0.632  1.8356 -0.6086  0.8268
 4671SOL    HW226073   0.605   8.437   0.568  0.8065  0.6687 -3.1687
 4672SOL     OW26074   3.639   8.344   8.722 -0.0266  0.9753 -0.0629
 4672SOL    HW126075   3.557   8.389   8.686 -0.0199  1.0999  0.0762
 4672SOL    HW226076   3.675   8.281   8.654 -0.5745  0.4851  0.0979
 4673SOL     OW26077   9.490   3.976  10.070 -0.1413 -0.0162  0.2913
 4673SOL    HW126078   9.578   4.025  10.062 -0.3729  0.3282 -0.2062
 4673SOL    HW226079   9.462   3.974  10.165  0.4959 -0.2800  0.4803
 4674SOL     OW26080   1.070   3.594   6.088 -0.2058  0.0380  0.0394
 4674SOL    HW126081   1.073   3.560   5.994 -0.5501 -1.0132  0.4005
 4674SOL    HW226082   0.992   3.554   6.136  0.3882  0.0013  0.9880
 4675SOL     OW26083   1.738   2.815   1.456  0.1629 -0.3150  0.0159
 4675SOL    HW126084   1.744   2.867   1.371 -0.5768  0.5909  0.5068
 4675SOL    HW226085   1.820   2.833   1.511 -0.7763  1.5563  0.8522
 4676SOL     OW26086   2.134   2.601   3.086  0.8676  0.3001  0.3569
 4676SOL    HW126087   2.111   2.697   3.068  1.7218  0.5413  0.5018
 4676SOL    HW226088   2.124   2.583   3.184  0.7069  0.2506  0.3299
 4677SOL     OW26089   2.885   6.234   0.447  0.6810 -0.5254 -0.2244
 4677SOL    HW126090   2.933   6.232   0.359  0.3912  0.7938 -0.4280
 4677SOL    HW226091   2.909   6.317   0.496 -2.2861  0.7646 -0.8570
 4678SOL     OW26092   3.827   5.870   8.849 -0.2795 -0.3951 -0.3803
 4678SOL    HW126093   3.834   5.782   8.800  1.2842 -0.2013 -0.5340
 4678SOL    HW226094   3.746   5.919   8.817 -1.2513 -1.8436 -0.1936
 4679SOL     OW26095   8.144   2.296   4.158  0.4304 -1.1544 -0.0343
 4679SOL    HW126096   8.138   2.203   4.120 -0.6117 -0.2643 -2.1461
 4679SOL    HW226097   8.062   2.316   4.211  1.4323 -2.0344  1.8957
 4680SOL     OW26098   9.487   3.329   0.061  0.0022 -0.1501 -0.5685
 4680SOL    HW126099   9.390   3.351   0.076  0.1232  0.5608 -0.7927
 4680SOL    HW226100   9.513   3.253   0.120 -0.2208  0.8361  0.8407
 4681SOL     OW26101   2.762   2.314   2.453  0.1301  0.3110 -0.2156
 4681SOL    HW126102   2.787   2.375   2.529 -0.7235 -0.7723  0.9506
 4681SOL    HW226103   2.677   2.346   2.411  0.8887  1.2281 -1.0959
 4682SOL     OW26104   8.789   7.756   5.077 -0.1776  0.0686 -0.2170
 4682SOL    HW126105   8.794   7.664   5.037 -0.5767 -0.2853  0.5265
 4682SOL    HW226106   8.879   7.798   5.077  0.5591 -1.4330  2.0053
 4683SOL     OW26107   0.624   5.806   3.704 -0.6960  0.5375  0.4362
 4683SOL    HW126108   0.614   5.844   3.612  0.2956  0.0385  0.1156
 4683SOL    HW226109   0.536   5.768   3.734 -0.8299 -0.0154 -0.6283
 4684SOL     OW26110   8.074   7.632   9.432  0.4454 -0.2028  0.6633
 4684SOL    HW126111   8.088   7.721   9.476 -0.2971 -0.7968  2.1184
 4684SOL    HW226112   8.135   7.564   9.472  0.3876 -0.5589  0.1551
 4685SOL     OW26113   2.689   3.382   7.955 -0.1832  0.0834 -0.2389
 4685SOL    HW126114   2.772   3.397   8.009  1.4925  0.9407 -2.9333
 4685SOL    HW226115   2.670   3.284   7.949 -0.1679 -0.0386  1.5602
 4686SOL     OW26116   1.267   1.943   6.484 -0.2190 -0.4647 -0.0205
 4686SOL    HW126117   1.246   1.888   6.404 -1.5208 -0.1496  0.0813
 4686SOL    HW226118   1.220   2.032   6.477  1.4029  0.4227  0.0642
 4687SOL     OW26119   5.713   0.195   1.475 -0.4373 -0.0177  0.6913
 4687SOL    HW126120   5.617   0.171   1.483 -1.0035  2.1088  0.5412
 4687SOL    HW226121   5.724   0.294   1.485  1.5966 -0.0920 -0.4647
 4688SOL     OW26122   3.527   4.792   1.749 -0.8990 -0.2860 -0.2738
 4688SOL    HW126123   3.574   4.762   1.831 -0.7960  1.3732  0.2983
 4688SOL    HW226124   3.515   4.715   1.687 -0.0964 -1.3408  0.8630
 4689SOL     OW26125   9.389   3.576   6.258 -0.2730 -0.7345  0.1118
 4689SOL    HW126126   9.467   3.514   6.246  0.5118  0.2730 -0.0609
 4689SOL    HW226127   9.351   3.599   6.169 -0.8083 -1.2637  0.1989
 4690SOL     OW26128   6.298   9.085   4.479  0.0917  0.3186 -0.3554
 4690SOL    HW126129   6.209   9.071   4.523  0.1495 -1.2693 -0.7109
 4690SOL    HW226130   6.369   9.039   4.531  0.5497  0.6164 -0.7036
 4691SOL     OW26131   1.542   5.065   0.266  0.2659  0.0287  0.5556
 4691SOL    HW126132   1.470   5.071   0.197  0.0461  1.1119  0.8685
 4691SOL    HW226133   1.624   5.025   0.226  0.0022  0.2614 -0.2246
 4692SOL     OW26134   9.325   3.177   4.908  0.2276 -0.0785 -0.3237
 4692SOL    HW126135   9.287   3.243   4.973  2.6565  0.1495  0.9106
 4692SOL    HW226136   9.287   3.194   4.818 -1.5699  0.9871  0.6012
 4693SOL     OW26137   6.322   4.368   0.543 -0.0220  0.4029 -0.1619
 4693SOL    HW126138   6.300   4.442   0.607  2.0397  0.6092  0.3370
 4693SOL    HW226139   6.299   4.280   0.586 -1.5550  0.6839 -0.3742
 4694SOL     OW26140   0.745   0.856   9.084 -0.0323 -0.2376  0.8214
 4694SOL    HW126141   0.795   0.935   9.120  0.2311  0.6248 -1.3218
 4694SOL    HW226142   0.668   0.889   9.028  1.5860 -1.4026 -2.2087
 4695SOL     OW26143   3.397   5.407   0.519  0.2110  0.1367  0.4220
 4695SOL    HW126144   3.372   5.374   0.427  2.5829  0.9215 -0.5441
 4695SOL    HW226145   3.315   5.442   0.565 -0.7730  1.0549 -1.9358
 4696SOL     OW26146   3.315   4.423   9.840  0.0121  0.7558  0.3359
 4696SOL    HW126147   3.354   4.332   9.852  2.3373  1.2334 -2.8695
 4696SOL    HW226148   3.220   4.424   9.872  0.0580 -2.6772  0.6928
 4697SOL     OW26149   4.028   3.911   4.794  0.3069 -0.0899 -0.1815
 4697SOL    HW126150   3.947   3.946   4.747  0.4922  0.9297  0.2584
 4697SOL    HW226151   4.089   3.867   4.728  0.2441  0.7375 -0.7862
 4698SOL     OW26152   4.233   9.394   0.563 -0.3689 -0.1320  0.2178
 4698SOL    HW126153   4.244   9.295   0.560 -0.1904 -0.0739 -1.6404
 4698SOL    HW226154   4.315   9.435   0.604 -0.3702 -0.7222  0.8318
 4699SOL     OW26155   8.619   5.620   0.882  1.2999  0.7518 -0.0626
 4699SOL    HW126156   8.694   5.554   0.880  0.1528 -0.5811  0.5828
 4699SOL    HW226157   8.642   5.693   0.947  2.4759  0.9024 -0.6251
 4700SOL     OW26158   8.663   7.331   1.560  0.0643  0.3667 -0.3779
 4700SOL    HW126159   8.578   7.368   1.522 -0.4545 -0.2930  0.1263
 4700SOL    HW226160   8.688   7.384   1.642 -0.3596 -0.0187  0.0034
 4701SOL     OW26161   2.229   4.315   6.899 -0.2624 -0.3612 -0.0191
 4701SOL    HW126162   2.146   4.316   6.842 -0.1836  0.5321 -0.1254
 4701SOL    HW226163   2.302   4.265   6.851  0.1687  1.4024 -1.2306
 4702SOL     OW26164   6.131   0.327   5.361  0.5410 -0.7823 -0.3116
 4702SOL    HW126165   6.170   0.348   5.272  1.5885 -2.2701 -0.2295
 4702SOL    HW226166   6.117   0.228   5.369 -0.5381 -0.5552  0.7716
 4703SOL     OW26167   2.637   6.551   7.368 -0.8739 -0.4299 -0.0811
 4703SOL    HW126168   2.657   6.536   7.465 -1.9745 -1.9000 -0.0535
 4703SOL    HW226169   2.545   6.588   7.358 -0.2392  1.0671 -0.4984
 4704SOL     OW26170   8.278   9.032   7.868 -0.1234 -0.7240 -0.2919
 4704SOL    HW126171   8.256   8.936   7.847 -0.3215 -0.5538 -0.8774
 4704SOL    HW226172   8.335   9.070   7.795  1.5612 -0.9544  0.8807
 4705SOL     OW26173   2.350   4.656   6.821  0.5836  0.0820  0.6962
 4705SOL    HW126174   2.413   4.728   6.850  1.6879 -0.5988  0.0093
 4705SOL    HW226175   2.376   4.570   6.864 -0.2325 -0.0956  0.8540
 4706SOL     OW26176   8.822   6.217   6.286  0.6091 -0.3578 -0.3530
 4706SOL    HW126177   8.851   6.251   6.197 -0.0897  0.2857 -0.3407
 4706SOL    HW226178   8.724   6.232   6.298  0.5049 -1.3500  0.1209
 4707SOL     OW26179   8.633   1.153   7.879  0.8047 -0.6320  0.4846
 4707SOL    HW126180   8.584   1.139   7.965 -0.7229  0.0363 -0.2668
 4707SOL    HW226181   8.593   1.095   7.808  0.8809  0.1784 -0.2194
 4708SOL     OW26182   3.047   8.024   5.873  0.0232  0.5137 -0.5124
 4708SOL    HW126183   3.008   7.932   5.882  0.5524  0.2663 -0.6795
 4708SOL    HW226184   3.047   8.069   5.963 -0.5373  0.4764 -0.4912
 4709SOL     OW26185   9.286   1.816   0.754 -0.3478 -0.1802 -0.3742
 4709SOL    HW126186   9.333   1.796   0.668  0.5479  1.7461 -0.3581
 4709SOL    HW226187   9.352   1.853   0.820 -1.3616 -0.0950  0.6068
 4710SOL     OW26188   4.982   4.443   0.144 -0.3026 -0.2845 -0.1587
 4710SOL    HW126189   5.007   4.424   0.049 -1.2248  0.8808 -0.6517
 4710SOL    HW226190   5.064   4.445   0.201  0.7283  2.7169 -1.6043
 4711SOL     OW26191   3.930   9.305   2.310  0.6297  0.3636 -0.1693
 4711SOL    HW126192   3.864   9.319   2.384 -0.5379  2.1226 -1.5068
 4711SOL    HW226193   4.022   9.299   2.349 -0.2074 -1.6072  1.6752
 4712SOL     OW26194   1.320   3.532   8.316  0.2411  0.2210  0.4909
 4712SOL    HW126195   1.400   3.546   8.259 -1.5410  0.2631 -2.1034
 4712SOL    HW226196   1.273   3.619   8.331 -0.9000 -0.2059 -0.4806
 4713SOL     OW26197   8.883   6.021   5.718  0.3215  0.3726  0.1745
 4713SOL    HW126198   8.916   5.945   5.662 -2.6594 -1.9085  1.3636
 4713SOL    HW226199   8.789   6.042   5.694 -0.0193  1.3692  2.2429
 4714SOL     OW26200   2.951   7.516   9.001  0.4659 -0.5061 -1.3264
 4714SOL    HW126201   2.876   7.579   8.983  0.1799 -0.8229 -1.2426
 4714SOL    HW226202   3.034   7.550   8.956  0.5665  0.4792 -0.4181
 4715SOL     OW26203   4.842   2.360   5.986 -0.4898 -0.0593  0.0325
 4715SOL    HW126204   4.896   2.342   6.068  0.4735  0.9698 -0.3576
 4715SOL    HW226205   4.902   2.389   5.912 -1.4319 -0.2571 -0.8201
 4716SOL     OW26206   1.886   6.472   2.820  0.4325 -0.1035 -0.3102
 4716SOL    HW126207   1.914   6.508   2.731 -1.4827  2.1989 -0.0492
 4716SOL    HW226208   1.966   6.458   2.878  1.6231 -0.8126 -2.0928
 4717SOL     OW26209   0.737   5.006   1.217  0.4181 -0.0122  0.6571
 4717SOL    HW126210   0.680   4.995   1.298 -0.1100 -2.1171  0.0247
 4717SOL    HW226211   0.832   4.984   1.238  0.2174 -0.9194  0.6180
 4718SOL     OW26212   7.979   2.292   2.390  0.8566  0.0871 -0.3091
 4718SOL    HW126213   8.053   2.312   2.326  1.9788 -1.6541  0.4184
 4718SOL    HW226214   7.893   2.280   2.340  1.4673  0.0873 -1.3526
 4719SOL     OW26215   7.939   7.904   7.408 -0.1748 -0.7898  0.0771
 4719SOL    HW126216   7.987   7.875   7.490  1.3554 -0.1912 -0.5935
 4719SOL    HW226217   7.874   7.976   7.432  1.3862  0.4990  0.5344
 4720SOL     OW26218   6.664   1.365   4.278 -0.2135 -0.6169  0.7772
 4720SOL    HW126219   6.678   1.438   4.211  0.7342 -2.9714 -1.7369
 4720SOL    HW226220   6.568   1.339   4.279 -0.5062  0.4891  1.4955
 4721SOL     OW26221   7.570   2.536   5.615 -0.4747  0.3283 -0.0627
 4721SOL    HW126222   7.614   2.626   5.618  1.4561 -0.5774 -0.8453
 4721SOL    HW226223   7.604   2.479   5.690 -2.3195  0.4972  0.9490
 4722SOL     OW26224   8.553   3.135   5.234 -0.3780  0.0773  0.0380
 4722SOL    HW126225   8.557   3.035   5.232  1.3959  0.1459 -0.3907
 4722SOL    HW226226   8.644   3.173   5.220 -0.8636  1.7531  1.2069
 4723SOL     OW26227   4.295   4.860   4.849  0.3587  0.0096 -0.0722
 4723SOL    HW126228   4.353   4.941   4.844  0.2832  0.0285 -0.8484
 4723SOL    HW226229   4.221   4.875   4.914  0.2205  0.6512 -0.3665
 4724SOL     OW26230   7.975   5.027   4.625  0.2652 -0.2149  0.3324
 4724SOL    HW126231   8.002   4.940   4.665  0.3714  0.8561  2.6923
 4724SOL    HW226232   8.021   5.102   4.674 -0.4215  1.2034 -1.1365
 4725SOL     OW26233   5.728   4.762   0.584 -0.0679 -0.3154 -0.5867
 4725SOL    HW126234   5.790   4.740   0.509  0.8504  0.1437  0.0306
 4725SOL    HW226235   5.781   4.783   0.666 -0.9992  1.5917 -0.4623
 4726SOL     OW26236   8.167   4.404   8.424 -0.3421  0.2617  0.2343
 4726SOL    HW126237   8.152   4.348   8.343 -2.3999  0.5282  0.4167
 4726SOL    HW226238   8.079   4.432   8.462  0.6228  1.0709  1.9137
 4727SOL     OW26239   1.282   4.652   8.311 -0.2069  0.0003  0.3552
 4727SOL    HW126240   1.319   4.585   8.246 -0.4751 -1.4201  1.6467
 4727SOL    HW226241   1.308   4.627   8.404 -2.3185  0.3670  1.0770
 4728SOL     OW26242   3.184   1.088   1.798  0.5348  0.2602  0.7889
 4728SOL    HW126243   3.256   1.045   1.743  0.1695 -0.0467  0.5421
 4728SOL    HW226244   3.199   1.068   1.895  0.7679  0.1750  0.7340
 4729SOL     OW26245   7.178   0.299   3.862 -0.1409  0.2159 -0.2037
 4729SOL    HW126246   7.106   0.340   3.807  0.9504  0.1451 -1.6982
 4729SOL    HW226247   7.152   0.205   3.888 -0.1483 -0.1712 -1.5973
 4730SOL     OW26248   1.501   2.917   4.982  0.1027  0.2498 -0.3611
 4730SOL    HW126249   1.421   2.965   4.944  0.0822  1.2615  0.9423
 4730SOL    HW226250   1.523   2.839   4.923 -2.9863 -1.1760  0.2776
 4731SOL     OW26251   1.974   6.346   6.564 -0.2997 -0.8067  0.3600
 4731SOL    HW126252   1.877   6.344   6.540 -0.1819  0.7961 -0.3028
 4731SOL    HW226253   1.991   6.422   6.628  0.1695 -2.3276  2.0879
 4732SOL     OW26254   0.446   2.819   4.400  0.0022  0.1542  0.3732
 4732SOL    HW126255   0.355   2.792   4.368 -0.4219  1.4103  0.5154
 4732SOL    HW226256   0.515   2.765   4.352 -0.8862 -2.3316  1.7487
 4733SOL     OW26257   5.780   2.759   5.701 -0.1917 -0.0024 -0.2028
 4733SOL    HW126258   5.766   2.856   5.716  0.5273  0.4176 -2.1217
 4733SOL    HW226259   5.702   2.721   5.652  1.0356  0.3323 -2.4516
 4734SOL     OW26260   0.738   6.034   0.070  0.1173  0.7673  0.4044
 4734SOL    HW126261   0.798   6.103   0.029 -0.1380  0.2537 -0.8437
 4734SOL    HW226262   0.694   6.073   0.152  0.6996  1.7653  0.2548
 4735SOL     OW26263   5.661   4.084   9.386  0.1641 -0.2162  0.3908
 4735SOL    HW126264   5.723   4.035   9.448  0.6620 -0.9358 -0.6700
 4735SOL    HW226265   5.665   4.043   9.295 -0.8147  0.6302 -0.0421
 4736SOL     OW26266   1.372   7.787   2.665  0.2237  0.1330 -0.6857
 4736SOL    HW126267   1.329   7.701   2.637  3.3321 -1.7146 -0.0810
 4736SOL    HW226268   1.346   7.808   2.760 -0.2684 -0.3206 -0.7181
 4737SOL     OW26269   6.630   1.172   4.610  0.4071 -0.1813  0.0765
 4737SOL    HW126270   6.600   1.092   4.559 -0.6629 -0.3648  0.9777
 4737SOL    HW226271   6.726   1.161   4.636 -0.0178 -1.6518  1.0929
 4738SOL     OW26272   6.246   3.081   8.196 -0.8569 -0.1028 -0.7129
 4738SOL    HW126273   6.282   3.171   8.171  0.4386 -0.9329 -1.9039
 4738SOL    HW226274   6.290   3.011   8.140 -0.5710 -1.6651  1.4151
 4739SOL     OW26275   4.330   2.165   7.515  0.1932  0.1158  0.4168
 4739SOL    HW126276   4.356   2.154   7.611  2.3810  1.2000 -0.0251
 4739SOL    HW226277   4.337   2.077   7.468  2.5066  0.2637  0.4592
 4740SOL     OW26278   5.815   8.760   7.058  0.2187  0.2025  0.0601
 4740SOL    HW126279   5.858   8.707   6.985  0.2811  0.1636  0.1254
 4740SOL    HW226280   5.773   8.841   7.018 -2.1947 -1.2481 -0.4104
 4741SOL     OW26281   3.297   5.483   5.382  0.1540 -0.3824  0.4948
 4741SOL    HW126282   3.243   5.525   5.454  0.6570 -0.2636  0.7991
 4741SOL    HW226283   3.361   5.550   5.344 -0.3772 -0.3328 -0.3242
 4742SOL     OW26284   9.542   3.706   9.315 -0.4838  0.1410 -0.6335
 4742SOL    HW126285   9.523   3.666   9.405 -1.2297  0.7072 -0.5327
 4742SOL    HW226286   9.641   3.713   9.302 -0.3685 -0.1033  0.0731
 4743SOL     OW26287   8.107   8.831   3.564  0.1874 -0.8250 -0.1096
 4743SOL    HW126288   8.023   8.789   3.598  0.4239 -0.4033  1.0194
 4743SOL    HW226289   8.166   8.856   3.641 -0.3556  2.4571 -0.6767
 4744SOL     OW26290   4.210   3.250   2.380  0.4320 -0.1943 -0.1301
 4744SOL    HW126291   4.260   3.315   2.322 -0.2028 -0.0597 -0.5229
 4744SOL    HW226292   4.195   3.291   2.470  1.1607 -0.2932  0.0459
 4745SOL     OW26293   5.929   0.594   4.337  1.0135 -0.5656 -0.6444
 4745SOL    HW126294   5.889   0.680   4.305  1.7472  0.1893  0.4259
 4745SOL    HW226295   5.900   0.520   4.278 -1.1517  0.1172 -0.4790
 4746SOL     OW26296   1.288   4.088   2.297 -0.0732  0.0337  0.1005
 4746SOL    HW126297   1.356   4.021   2.328 -0.4930 -1.3529 -1.9253
 4746SOL    HW226298   1.255   4.140   2.376 -0.0069 -2.3931  1.7817
 4747SOL     OW26299   4.406   9.707   7.274  0.2317 -0.1133 -0.4463
 4747SOL    HW126300   4.499   9.707   7.311 -0.5842 -1.2793  1.7059
 4747SOL    HW226301   4.389   9.621   7.226 -0.1010 -0.3727  0.1332
 4748SOL     OW26302   1.114   6.587   5.019  0.6791  0.2030 -0.2597
 4748SOL    HW126303   1.068   6.611   5.104  1.0171  1.0068 -0.3014
 4748SOL    HW226304   1.156   6.668   4.980 -0.6584  0.1185 -1.9263
 4749SOL     OW26305   2.105   5.118   2.863  0.1353 -0.0915  0.2856
 4749SOL    HW126306   2.073   5.194   2.919 -1.9844 -0.9000  0.2054
 4749SOL    HW226307   2.048   5.037   2.879  0.7642 -0.9333 -1.5003
 4750SOL     OW26308   3.389   5.844   1.973 -0.0245 -0.2399  0.4242
 4750SOL    HW126309   3.418   5.913   1.907 -0.7413 -0.3235  0.0252
 4750SOL    HW226310   3.375   5.887   2.062  3.2161 -0.5136  1.1262
 4751SOL     OW26311   6.072   4.209   8.886 -0.7273 -0.1826 -0.3543
 4751SOL    HW126312   6.059   4.273   8.961 -1.1164  1.3598 -1.7084
 4751SOL    HW226313   6.137   4.138   8.913 -0.9203  0.3081  1.4395
 4752SOL     OW26314   1.626   1.948   6.853  0.5228 -0.0472 -0.0985
 4752SOL    HW126315   1.601   1.947   6.756 -0.2464  1.6432  0.0506
 4752SOL    HW226316   1.543   1.944   6.909  0.8283  1.1772  0.4595
 4753SOL     OW26317   7.530   1.907   9.594 -0.4015  0.6664 -0.1294
 4753SOL    HW126318   7.467   1.974   9.554 -1.8148 -0.3952  0.2709
 4753SOL    HW226319   7.534   1.920   9.693 -1.7618 -0.7129  0.1214
 4754SOL     OW26320   4.627   2.230   0.604 -0.3497  0.0972 -0.1209
 4754SOL    HW126321   4.674   2.149   0.570  1.7624  0.7475  1.1762
 4754SOL    HW226322   4.644   2.307   0.543 -0.7134  0.0635 -0.2704
 4755SOL     OW26323   0.568   3.976   7.245 -0.0359  0.5725 -0.0139
 4755SOL    HW126324   0.627   3.997   7.168  0.1725 -1.7701 -0.5186
 4755SOL    HW226325   0.614   3.912   7.306 -0.7508  1.3235  1.3574
 4756SOL     OW26326   3.150   5.408   7.263  0.1499 -0.1026 -0.1650
 4756SOL    HW126327   3.128   5.423   7.359  0.5589  0.5132 -0.1638
 4756SOL    HW226328   3.176   5.495   7.220  2.1570 -0.7247 -0.2763
 4757SOL     OW26329   2.808   5.692   0.518  0.0968  0.1780  0.7125
 4757SOL    HW126330   2.719   5.726   0.547 -0.1681  0.4198 -0.3952
 4757SOL    HW226331   2.846   5.751   0.447  0.5877 -0.6141  0.3041
 4758SOL     OW26332   9.233   2.412  10.014  0.3085  0.2106 -0.1735
 4758SOL    HW126333   9.136   2.404   9.992 -0.2282  0.6083  1.8966
 4758SOL    HW226334   9.248   2.382  10.109  2.1885  0.2199 -0.4536
 4759SOL     OW26335   4.073   2.285   1.112 -0.8029 -0.6196 -0.2524
 4759SOL    HW126336   4.014   2.365   1.121 -0.4049 -0.5248  1.8112
 4759SOL    HW226337   4.068   2.230   1.195 -0.2409 -2.1858 -1.2215
 4760SOL     OW26338   1.262   5.543   8.463  0.1037 -0.3145  0.1098
 4760SOL    HW126339   1.242   5.480   8.388 -1.6427 -0.2914  0.5253
 4760SOL    HW226340   1.330   5.610   8.433  0.8642 -1.4770 -0.8135
 4761SOL     OW26341   0.907   0.996   2.724 -0.0019  0.6074  0.1833
 4761SOL    HW126342   0.985   0.970   2.667  0.1124  2.3516 -0.4884
 4761SOL    HW226343   0.826   1.007   2.667 -0.0130  1.8265  0.4260
 4762SOL     OW26344   9.428   1.107   4.477 -0.2585 -0.4231  0.5139
 4762SOL    HW126345   9.363   1.122   4.402  0.0291  0.1966  0.3901
 4762SOL    HW226346   9.520   1.129   4.446 -0.2188  0.4042  1.2376
 4763SOL     OW26347   5.205   9.164   7.911 -0.7627  0.0428  0.1870
 4763SOL    HW126348   5.140   9.154   7.836  0.8266  0.6074 -1.3081
 4763SOL    HW226349   5.247   9.075   7.931 -0.1030  0.1791 -0.5978
 4764SOL     OW26350   2.096   2.538   3.338  0.4315  0.5736  0.0935
 4764SOL    HW126351   2.124   2.455   3.386 -0.3598 -1.0520 -2.1609
 4764SOL    HW226352   1.998   2.552   3.351  0.2242  0.1501 -0.9985
 4765SOL     OW26353   5.887   2.062   1.265  0.1005 -0.7164  0.2444
 4765SOL    HW126354   5.895   2.094   1.359 -1.7872  1.8370 -0.3910
 4765SOL    HW226355   5.975   2.071   1.218  0.2162  1.2648  0.8119
 4766SOL     OW26356   7.849   1.775   9.780  0.3541  0.1356  0.0710
 4766SOL    HW126357   7.936   1.732   9.804 -0.0199 -0.7033 -0.0697
 4766SOL    HW226358   7.808   1.727   9.703  1.1229  2.2736 -1.7094
 4767SOL     OW26359   4.618   5.700   7.719  0.1078  0.1423 -0.2187
 4767SOL    HW126360   4.710   5.664   7.737 -0.4679 -0.8439  0.8302
 4767SOL    HW226361   4.612   5.793   7.755  0.4464 -0.0859  0.4406
 4768SOL     OW26362   5.997   9.586   7.177 -0.0416 -0.3791 -0.1105
 4768SOL    HW126363   5.955   9.668   7.137 -0.1014  0.1154  0.9640
 4768SOL    HW226364   6.020   9.603   7.272 -0.7666 -1.8712  0.3500
 4769SOL     OW26365   5.672   9.699   6.437  0.1869 -0.2365  0.0513
 4769SOL    HW126366   5.733   9.700   6.358  1.5802 -1.0154  1.0954
 4769SOL    HW226367   5.656   9.604   6.465 -0.7963  0.0099  0.3401
 4770SOL     OW26368   1.159   2.638   2.730 -0.4037  0.0808 -0.1101
 4770SOL    HW126369   1.243   2.632   2.783  1.6519 -0.5411 -3.2861
 4770SOL    HW226370   1.145   2.732   2.700 -0.6395  0.1122  0.0958
 4771SOL     OW26371   0.713   6.502   9.102  0.2520 -0.2276 -0.3201
 4771SOL    HW126372   0.690   6.406   9.117 -0.8911 -0.0118 -0.6819
 4771SOL    HW226373   0.661   6.537   9.024 -1.1177  1.3250  1.2585
 4772SOL     OW26374   2.445   4.677   6.538 -0.7553 -0.4623  1.0196
 4772SOL    HW126375   2.539   4.652   6.561 -0.6871 -0.8848  0.3223
 4772SOL    HW226376   2.393   4.693   6.622  0.4049  1.5573  1.3709
 4773SOL     OW26377   9.916   7.435   2.222  0.1557 -0.0722  0.4434
 4773SOL    HW126378   9.870   7.502   2.164  0.7532 -0.3866 -0.3928
 4773SOL    HW226379   9.982   7.481   2.280 -0.0505  0.1729  0.4839
 4774SOL     OW26380   8.290   4.313   7.040 -0.0499 -0.1535 -0.3360
 4774SOL    HW126381   8.300   4.228   6.988  2.1100 -0.2992  0.2504
 4774SOL    HW226382   8.254   4.292   7.131  0.5258 -0.4436 -0.1744
 4775SOL     OW26383   0.452   0.845   1.074 -0.2242 -0.4499 -0.2464
 4775SOL    HW126384   0.514   0.774   1.038  0.3795  0.5682 -1.2526
 4775SOL    HW226385   0.358   0.821   1.051  0.0717 -0.3499 -1.6218
 4776SOL     OW26386   8.669   1.402   3.411  0.2076  0.1076 -0.0165
 4776SOL    HW126387   8.674   1.487   3.358  1.8239  1.2355  1.8727
 4776SOL    HW226388   8.655   1.325   3.349  0.5053  1.5540 -1.9359
 4777SOL     OW26389   9.852   2.634   2.624  0.0861 -0.4162  0.0937
 4777SOL    HW126390   9.862   2.598   2.716 -0.0923  0.2270  0.3661
 4777SOL    HW226391   9.937   2.679   2.596  0.7891 -2.2352 -0.7717
 4778SOL     OW26392   6.197   0.154   7.777 -0.2696 -0.5580 -0.1736
 4778SOL    HW126393   6.108   0.117   7.805  0.9989 -2.7510  1.1081
 4778SOL    HW226394   6.189   0.197   7.688 -2.1137 -2.8167 -1.1518
 4779SOL     OW26395   7.583   5.543   0.728  0.6498  0.0510 -0.5784
 4779SOL    HW126396   7.554   5.632   0.693 -0.5062 -0.5699 -1.2233
 4779SOL    HW226397   7.539   5.527   0.816  0.3405 -0.1779 -0.7769
 4780SOL     OW26398   7.578   4.259   0.492 -0.7883 -0.4039  0.6553
 4780SOL    HW126399   7.502   4.288   0.434 -1.1590  0.4612  1.5527
 4780SOL    HW226400   7.571   4.162   0.512 -0.0208 -0.9803 -1.6877
 4781SOL     OW26401   3.339   3.926   6.553  0.0705 -0.0639 -0.3483
 4781SOL    HW126402   3.368   3.905   6.460 -2.0886 -3.0506 -0.4230
 4781SOL    HW226403   3.333   3.842   6.606 -1.9284  1.1965  1.5217
 4782SOL     OW26404   0.339   1.133   3.688 -0.6506  0.0157  0.1979
 4782SOL    HW126405   0.416   1.164   3.743 -0.4661  1.9484 -1.1352
 4782SOL    HW226406   0.358   1.147   3.591 -2.5268  0.1901 -0.1734
 4783SOL     OW26407   9.326   7.519   7.706  0.1217  0.3031 -0.1756
 4783SOL    HW126408   9.407   7.559   7.749  0.2568 -0.7281  0.5184
 4783SOL    HW226409   9.351   7.436   7.657 -0.0567  1.3548 -2.1274
 4784SOL     OW26410   0.497   1.186   4.245  0.0981 -0.5688 -0.6953
 4784SOL    HW126411   0.508   1.243   4.326 -0.3278 -1.3139 -0.1097
 4784SOL    HW226412   0.587   1.157   4.212  0.2897  0.0311 -0.7012
 4785SOL     OW26413   7.325   3.421   1.007 -0.0004 -0.2540  0.0989
 4785SOL    HW126414   7.256   3.349   1.005 -1.1433  0.8402 -1.3333
 4785SOL    HW226415   7.407   3.390   0.958 -0.7201 -0.3790 -1.0623
 4786SOL     OW26416   4.642   5.840   8.499 -0.2034 -0.0640 -0.7779
 4786SOL    HW126417   4.742   5.847   8.502 -0.1820 -0.1662 -1.1639
 4786SOL    HW226418   4.608   5.881   8.414 -0.4906 -0.0308 -0.6493
 4787SOL     OW26419   7.034   6.633   1.992 -0.0178 -0.7459 -0.4109
 4787SOL    HW126420   6.981   6.568   2.045  0.8428 -0.9447  0.1932
 4787SOL    HW226421   6.971   6.696   1.946 -0.7867 -1.0434  0.2197
 4788SOL     OW26422   0.235   8.335   6.586 -0.3505  0.2154 -0.0663
 4788SOL    HW126423   0.214   8.406   6.518 -0.6327 -0.1371 -0.3539
 4788SOL    HW226424   0.276   8.257   6.539 -1.5219 -0.4600  0.0089
 4789SOL     OW26425   6.237   2.077   4.209 -0.4172  0.0882  0.1330
 4789SOL    HW126426   6.164   2.011   4.227 -0.6472  0.7584  1.6316
 4789SOL    HW226427   6.198   2.167   4.190 -0.0609 -0.0017 -1.1195
 4790SOL     OW26428   2.142   8.841   5.559 -0.3219 -0.3333 -0.3149
 4790SOL    HW126429   2.184   8.826   5.470 -3.0735 -3.0553 -1.2645
 4790SOL    HW226430   2.046   8.865   5.547 -0.2438  1.2196  1.8945
 4791SOL     OW26431   8.901   0.368   0.980  0.0717 -0.3062 -0.4214
 4791SOL    HW126432   8.989   0.325   1.003 -0.5652 -0.5317  1.7615
 4791SOL    HW226433   8.828   0.323   1.032 -1.2083  0.5475 -1.4491
 4792SOL     OW26434   8.760   3.997   8.288 -0.3852  1.0918  0.3410
 4792SOL    HW126435   8.698   3.929   8.250 -2.3859  2.1477  1.6225
 4792SOL    HW226436   8.798   4.053   8.214  1.4641 -1.5170 -0.7403
 4793SOL     OW26437   0.299   3.540   1.341  0.2089  0.4989  0.1202
 4793SOL    HW126438   0.299   3.473   1.267  1.2198  0.4038  0.2038
 4793SOL    HW226439   0.327   3.497   1.426  0.1311  0.8619  0.3341
 4794SOL     OW26440   0.013   7.597   7.845 -0.8571  0.2406 -0.4038
 4794SOL    HW126441  -0.048   7.519   7.857 -0.9467  0.3388 -0.2218
 4794SOL    HW226442   0.031   7.610   7.747 -0.0294 -0.6317 -0.3812
 4795SOL     OW26443   0.472   8.359   7.867 -0.1281  0.4497 -0.3036
 4795SOL    HW126444   0.406   8.429   7.891 -0.3601 -0.3968  1.5903
 4795SOL    HW226445   0.429   8.291   7.807 -0.6108  0.5566 -0.0695
 4796SOL     OW26446   9.666   5.093   5.466 -0.0440  0.4747 -0.0381
 4796SOL    HW126447   9.725   5.164   5.505  4.1539 -0.7213 -3.8268
 4796SOL    HW226448   9.661   5.104   5.367 -1.2955 -3.0958 -0.4351
 4797SOL     OW26449   2.435   9.575   6.183  0.0134  0.2902 -0.4125
 4797SOL    HW126450   2.487   9.621   6.255  0.5976 -0.8206 -0.1106
 4797SOL    HW226451   2.475   9.595   6.094  1.0152 -0.6307 -0.1740
 4798SOL     OW26452   5.384   3.024   8.520  0.3388 -0.1747  0.0916
 4798SOL    HW126453   5.323   3.061   8.590  0.7617 -0.9843  0.9071
 4798SOL    HW226454   5.330   2.977   8.450 -0.0666  0.3693  0.0362
 4799SOL     OW26455   9.116   8.945   2.003 -0.3728  0.5692 -0.6705
 4799SOL    HW126456   9.206   8.905   1.989 -0.6689 -0.8686  1.2857
 4799SOL    HW226457   9.118   9.006   2.082 -1.9443 -2.5958  1.9930
 4800SOL     OW26458   7.304   8.368   2.935 -0.2806  0.0760  0.0740
 4800SOL    HW126459   7.360   8.421   2.871 -1.5948  0.3374 -0.8796
 4800SOL    HW226460   7.307   8.410   3.026  0.2998  0.6185 -0.1951
 4801SOL     OW26461   2.527   1.351   8.280  0.1134 -0.0694  0.6061
 4801SOL    HW126462   2.438   1.305   8.278 -0.4679  1.0679  0.1010
 4801SOL    HW226463   2.520   1.441   8.237  0.9703  0.9829  2.6090
 4802SOL     OW26464   9.002   8.055   7.938 -0.1906 -0.7848 -0.5848
 4802SOL    HW126465   9.038   8.065   8.031 -1.6077  0.2141 -0.1261
 4802SOL    HW226466   9.000   7.958   7.914  0.7768 -1.0039  0.1818
 4803SOL     OW26467   9.827   8.995   0.094  0.0276 -0.1470  0.0401
 4803SOL    HW126468   9.741   9.038   0.120  1.6329  3.4333 -0.3434
 4803SOL    HW226469   9.860   9.033   0.008  1.8970 -1.6084  0.0638
 4804SOL     OW26470   5.788   9.411   4.406  0.0749 -0.2165 -0.4804
 4804SOL    HW126471   5.886   9.393   4.399  0.3721  1.5605 -1.2005
 4804SOL    HW226472   5.743   9.384   4.321 -0.1000 -1.1839 -0.0888
 4805SOL     OW26473   6.717   9.858   3.187 -0.6612 -0.2846 -0.2312
 4805SOL    HW126474   6.638   9.804   3.218 -0.6057 -0.9778 -1.2556
 4805SOL    HW226475   6.769   9.804   3.121 -1.1712  1.4203 -2.0474
 4806SOL     OW26476   5.193   1.918   6.353  0.0404  0.1776 -0.2355
 4806SOL    HW126477   5.175   1.964   6.266 -3.6811 -0.4834  0.1250
 4806SOL    HW226478   5.198   1.986   6.427 -0.1297  0.4570 -0.4819
 4807SOL     OW26479   1.072   1.913   2.062 -0.3212 -0.1928 -0.0776
 4807SOL    HW126480   1.096   1.824   2.025  2.4774  0.3976  0.1783
 4807SOL    HW226481   1.013   1.962   1.998 -0.5115 -1.5819 -0.9665
 4808SOL     OW26482   0.223   9.195   5.704  0.5707  0.1745 -0.5910
 4808SOL    HW126483   0.281   9.214   5.783  1.8681  1.5664 -1.8511
 4808SOL    HW226484   0.231   9.269   5.638 -0.5260 -0.9572 -2.0274
 4809SOL     OW26485   2.359   6.083   9.929 -0.0183 -0.3850  0.6043
 4809SOL    HW126486   2.299   6.156   9.897  0.8773 -0.0472 -0.3234
 4809SOL    HW226487   2.396   6.107  10.019  0.2560  0.3069  0.3118
 4810SOL     OW26488   2.561   0.155   4.590 -0.6922  0.0176 -0.1740
 4810SOL    HW126489   2.577   0.066   4.547 -0.0922 -0.1031  0.2780
 4810SOL    HW226490   2.481   0.199   4.549  0.3091  0.2400 -1.9228
 4811SOL     OW26491   0.518   0.391   7.242  0.0034 -0.0119  0.0160
 4811SOL    HW126492   0.509   0.382   7.341  0.1052 -0.2720 -0.0004
 4811SOL    HW226493   0.444   0.450   7.208 -0.3797 -0.4048  0.1683
 4812SOL     OW26494   3.449   2.604   9.323 -0.3023  0.4083  0.3548
 4812SOL    HW126495   3.351   2.594   9.305 -0.5192  0.5146  1.4878
 4812SOL    HW226496   3.499   2.593   9.237 -1.2185 -0.7437 -0.0448
 4813SOL     OW26497   8.737   0.293   8.882 -0.3127 -0.0425 -0.6311
 4813SOL    HW126498   8.797   0.288   8.962 -1.0831 -0.5498 -0.0835
 4813SOL    HW226499   8.679   0.374   8.888 -1.2749 -0.7648 -0.0276
 4814SOL     OW26500   2.364   1.947   6.767 -0.0549  0.2611 -0.2132
 4814SOL    HW126501   2.444   1.953   6.707  1.9186 -0.7961  2.2055
 4814SOL    HW226502   2.364   2.025   6.829  0.8081 -1.2121  1.7269
 4815SOL     OW26503   9.684   9.710   4.691 -0.1525 -0.4749 -0.0421
 4815SOL    HW126504   9.724   9.619   4.687  0.1436 -0.3486  0.0319
 4815SOL    HW226505   9.737   9.767   4.753  1.0224  0.4355 -1.8484
 4816SOL     OW26506   0.604   0.245   0.498 -0.4295  0.0031 -0.1748
 4816SOL    HW126507   0.666   0.322   0.485 -0.4032  0.2830  1.5244
 4816SOL    HW226508   0.509   0.278   0.498 -0.4304 -0.0032  0.3170
 4817SOL     OW26509   9.778   2.867   7.319 -0.2465 -0.4021  0.1653
 4817SOL    HW126510   9.840   2.861   7.397 -0.6733 -0.4011  0.5034
 4817SOL    HW226511   9.804   2.945   7.262  0.6265 -0.9340 -0.1852
 4818SOL     OW26512   3.968   2.754   3.628 -0.0206 -0.0299 -0.3402
 4818SOL    HW126513   3.975   2.816   3.706  0.8160  0.3291 -0.6932
 4818SOL    HW226514   3.884   2.774   3.577 -0.2743  0.1199  0.1304
 4819SOL     OW26515   7.978   9.650   1.249 -0.3851  0.1461  0.0488
 4819SOL    HW126516   7.891   9.696   1.231 -0.4347  0.9535  2.1050
 4819SOL    HW226517   7.961   9.558   1.284 -0.3855 -0.0973 -0.5922
 4820SOL     OW26518   3.573   2.702   4.034  0.2580  0.5157 -0.4952
 4820SOL    HW126519   3.524   2.633   4.086  0.8692  0.3365 -0.1525
 4820SOL    HW226520   3.662   2.666   4.006  0.8661  1.4073  0.2791
 4821SOL     OW26521   6.480   6.228   1.894  0.6299 -0.0831 -0.2598
 4821SOL    HW126522   6.505   6.154   1.957 -0.7748  0.1665  0.6074
 4821SOL    HW226523   6.384   6.217   1.866  0.5831  1.0842 -0.5713
 4822SOL     OW26524   1.616   4.663   9.828 -0.0401  0.3826  0.1498
 4822SOL    HW126525   1.674   4.716   9.890 -0.3654 -0.9533  1.6087
 4822SOL    HW226526   1.586   4.580   9.873 -3.7398  1.3896 -0.2856
 4823SOL     OW26527   3.362   9.350   4.382 -0.1252  0.1613  0.0178
 4823SOL    HW126528   3.387   9.410   4.458  1.8475  0.7499 -1.0454
 4823SOL    HW226529   3.325   9.404   4.307  0.6247 -0.0623 -0.5218
 4824SOL     OW26530   1.486   8.411   2.116 -0.2161 -0.5460 -0.8243
 4824SOL    HW126531   1.477   8.324   2.067  0.4944 -0.9139 -0.3026
 4824SOL    HW226532   1.513   8.394   2.210 -0.9438  0.1998 -0.4739
 4825SOL     OW26533   3.996   9.777   0.447 -0.1929  0.1707  0.2213
 4825SOL    HW126534   3.986   9.874   0.468 -1.1550  0.1968 -0.3537
 4825SOL    HW226535   3.965   9.759   0.354  0.4729 -0.6037  0.1438
 4826SOL     OW26536   5.676   3.955   9.136 -0.9120  0.0080 -0.1272
 4826SOL    HW126537   5.761   3.999   9.108 -0.1238 -2.0041 -0.9605
 4826SOL    HW226538   5.665   3.868   9.087 -2.3324 -0.8406  1.6269
 4827SOL     OW26539   3.675   6.304   7.640 -0.2916 -0.0313 -0.0008
 4827SOL    HW126540   3.740   6.230   7.621 -0.1573  0.4498 -1.4863
 4827SOL    HW226541   3.593   6.292   7.584 -0.3229  0.8740 -0.1618
 4828SOL     OW26542   0.363   6.793   7.922 -1.0332  0.1586 -0.1047
 4828SOL    HW126543   0.295   6.752   7.861  0.4717 -1.1451 -0.9856
 4828SOL    HW226544   0.455   6.774   7.885 -0.1732  1.1104  1.5084
 4829SOL     OW26545   9.772   1.482   4.183 -0.2966 -0.3356  0.2268
 4829SOL    HW126546   9.867   1.513   4.180 -0.1019 -0.8712  0.8259
 4829SOL    HW226547   9.740   1.482   4.278 -1.0992  0.4486 -0.0325
 4830SOL     OW26548   1.973   6.228   1.192 -0.4260 -0.1679 -0.3211
 4830SOL    HW126549   2.053   6.175   1.162  0.8782  1.5964 -0.0529
 4830SOL    HW226550   1.910   6.168   1.241  1.0117 -1.4672 -0.0166
 4831SOL     OW26551   8.730   4.061   3.059  0.4970  0.0322 -0.0722
 4831SOL    HW126552   8.733   4.124   3.136  0.9561 -0.0331 -0.0299
 4831SOL    HW226553   8.642   4.014   3.056  0.4965  0.0070  0.4369
 4832SOL     OW26554   9.758   7.263   0.413  0.2096 -0.2745  0.0596
 4832SOL    HW126555   9.736   7.348   0.462  0.2939  0.0489 -0.4627
 4832SOL    HW226556   9.853   7.238   0.430  0.2772 -0.0889 -0.0465
 4833SOL     OW26557   6.711   9.179   7.039 -0.0183  0.1413  0.2531
 4833SOL    HW126558   6.623   9.160   6.996  1.3150 -1.0594 -2.0310
 4833SOL    HW226559   6.776   9.108   7.014  1.8728  1.5264  1.1348
 4834SOL     OW26560   4.582   9.215   1.875  0.1032 -0.0710  0.1445
 4834SOL    HW126561   4.664   9.183   1.921  0.3215 -0.9797 -0.8534
 4834SOL    HW226562   4.517   9.250   1.943  1.2121  0.4343  0.9515
 4835SOL     OW26563   9.796   3.067   1.548  0.3572 -0.0976  0.2444
 4835SOL    HW126564   9.826   3.067   1.643 -1.8779  1.4032  0.9786
 4835SOL    HW226565   9.750   2.981   1.527  0.8931 -0.4472  0.4946
 4836SOL     OW26566   3.326   2.356   2.643  0.4815 -0.3347 -0.0890
 4836SOL    HW126567   3.345   2.418   2.567  0.0395 -0.0154  0.0601
 4836SOL    HW226568   3.234   2.317   2.632 -0.0953  0.6850  0.9438
 4837SOL     OW26569   1.171   7.590   0.013  0.1225 -0.8428 -0.3567
 4837SOL    HW126570   1.127   7.522   0.072  0.5051 -2.2293 -1.6336
 4837SOL    HW226571   1.270   7.580   0.020  0.1996  0.2734  0.2183
 4838SOL     OW26572   9.299   9.437   3.051 -0.2061 -0.6844  0.2890
 4838SOL    HW126573   9.250   9.352   3.068 -1.4602  0.2663  1.5381
 4838SOL    HW226574   9.273   9.505   3.120  1.0751  0.5871 -0.4546
 4839SOL     OW26575   4.216   4.930   7.979  0.3535 -0.0320  0.0999
 4839SOL    HW126576   4.226   4.831   7.965 -0.8570  0.0064 -1.1595
 4839SOL    HW226577   4.293   4.977   7.937  0.6311 -0.4044  0.1850
 4840SOL     OW26578   2.304   2.825   1.834  0.0802  0.4332 -0.1497
 4840SOL    HW126579   2.296   2.732   1.798 -0.7643 -0.2845  1.8109
 4840SOL    HW226580   2.349   2.883   1.766  1.1500 -1.5300 -1.1876
 4841SOL     OW26581   9.634   3.891   5.722 -0.2462 -0.6235 -0.3339
 4841SOL    HW126582   9.639   3.888   5.822 -2.3385 -0.0787 -0.1967
 4841SOL    HW226583   9.658   3.801   5.684  2.9261 -0.1880  0.5120
 4842SOL     OW26584   2.096   2.717   7.702  0.2729 -0.1434  0.6464
 4842SOL    HW126585   2.045   2.790   7.747  1.7264  1.4981 -0.3081
 4842SOL    HW226586   2.098   2.734   7.604  1.9981 -0.5935  0.5929
 4843SOL     OW26587   2.434   1.034   5.797  0.1183  0.0566 -0.1222
 4843SOL    HW126588   2.369   1.091   5.745  1.3566  0.5064 -1.1940
 4843SOL    HW226589   2.424   1.054   5.895  0.1690  1.7347 -0.4413
 4844SOL     OW26590   7.811   5.533   9.671 -0.4279 -0.3492  0.4810
 4844SOL    HW126591   7.729   5.476   9.667 -0.3830 -0.3689 -0.1258
 4844SOL    HW226592   7.793   5.621   9.629 -0.3295 -0.1160  0.9236
 4845SOL     OW26593   2.898   2.251   3.414 -0.1803  0.1796 -0.3763
 4845SOL    HW126594   2.886   2.350   3.409  0.1669  0.1760 -1.6055
 4845SOL    HW226595   2.964   2.228   3.485  0.1812  0.8655 -0.4906
 4846SOL     OW26596   0.760   7.810   0.409  0.2533  0.2799 -0.3144
 4846SOL    HW126597   0.776   7.792   0.506 -0.1601 -1.1554 -0.5027
 4846SOL    HW226598   0.666   7.841   0.396  0.4964  1.0902 -0.1879
 4847SOL     OW26599   7.753   6.593   5.361 -0.3184  0.1608 -0.3167
 4847SOL    HW126600   7.764   6.572   5.264 -1.0807 -1.4703 -0.0633
 4847SOL    HW226601   7.811   6.532   5.416 -0.5794  0.4574  0.2982
 4848SOL     OW26602   9.689   0.173   0.362  0.5797 -0.5643  0.4271
 4848SOL    HW126603   9.726   0.234   0.432  1.2406 -0.7387  0.2347
 4848SOL    HW226604   9.678   0.224   0.277  0.1656 -0.4565  0.5451
 4849SOL     OW26605   3.233   9.768   2.219  0.2405  0.4166 -0.2693
 4849SOL    HW126606   3.268   9.856   2.185 -1.2051  1.0214 -0.2190
 4849SOL    HW226607   3.137   9.758   2.193 -0.3476  0.0093  1.9677
 4850SOL     OW26608   8.185   0.685   2.453 -0.4107 -0.1521 -0.2452
 4850SOL    HW126609   8.164   0.757   2.519  0.3889  0.7611 -0.9668
 4850SOL    HW226610   8.109   0.620   2.449 -1.1361  0.6407  0.4278
 4851SOL     OW26611   0.640   0.885   0.576  0.0736  0.2331  0.4693
 4851SOL    HW126612   0.630   0.944   0.496  0.7789 -0.8038 -0.3958
 4851SOL    HW226613   0.563   0.899   0.637 -0.6233  0.8307 -0.5302
 4852SOL     OW26614   3.979   6.131   1.332 -0.2211 -0.2408  0.2637
 4852SOL    HW126615   3.924   6.190   1.273 -0.6573 -0.2468  0.6705
 4852SOL    HW226616   3.967   6.158   1.427  2.6762  1.6427  0.1783
 4853SOL     OW26617   4.753   9.914   9.423 -0.4758 -0.1064 -0.1431
 4853SOL    HW126618   4.846   9.876   9.428 -0.8344 -1.0296 -0.3847
 4853SOL    HW226619   4.730   9.931   9.328  0.6808  3.2584  0.1322
 4854SOL     OW26620   0.286   7.650   1.999  0.4464 -1.0057 -0.6673
 4854SOL    HW126621   0.260   7.690   1.911  1.2372 -1.5394 -1.1554
 4854SOL    HW226622   0.343   7.714   2.050 -0.3258 -0.5460 -0.3758
 4855SOL     OW26623   2.326   1.292   9.526  0.3265 -0.2950  0.5604
 4855SOL    HW126624   2.382   1.260   9.451 -0.5431 -0.3811 -0.0623
 4855SOL    HW226625   2.327   1.225   9.600  1.4994 -0.0282  0.7962
 4856SOL     OW26626   0.270   9.003   0.509  0.0519  0.0425 -0.0810
 4856SOL    HW126627   0.207   8.928   0.488 -2.1494  0.5573  4.2096
 4856SOL    HW226628   0.322   8.980   0.592  4.0811  0.5721 -2.3149
 4857SOL     OW26629   0.342   1.872   9.027 -0.1853  0.2796  0.0133
 4857SOL    HW126630   0.347   1.792   9.087  0.6323  0.9359  0.8415
 4857SOL    HW226631   0.415   1.936   9.051 -0.3694  0.9374 -1.1349
 4858SOL     OW26632   9.790   8.190   2.832  0.4953 -0.1517 -0.3386
 4858SOL    HW126633   9.775   8.144   2.919  0.6281  0.1541 -0.1530
 4858SOL    HW226634   9.710   8.245   2.809  1.1092  1.0693  0.3963
 4859SOL     OW26635   3.015   9.275   5.771 -0.4676  0.5722  0.1315
 4859SOL    HW126636   3.095   9.262   5.713 -0.7711 -1.0632  0.0587
 4859SOL    HW226637   2.939   9.308   5.715 -0.4929 -0.0997 -0.2384
 4860SOL     OW26638   3.964   1.446   9.665 -0.4052 -0.2386  0.4962
 4860SOL    HW126639   3.891   1.435   9.732 -1.8355 -0.1706 -1.0302
 4860SOL    HW226640   3.951   1.381   9.590  1.6242 -0.8543  0.6492
 4861SOL     OW26641   0.756   6.574   1.498  0.0058  0.1433 -0.7765
 4861SOL    HW126642   0.801   6.495   1.540  0.7357  1.5667  1.1656
 4861SOL    HW226643   0.798   6.658   1.531 -1.2674  1.3833 -2.2454
 4862SOL     OW26644   1.102   9.339   4.683 -0.6529 -0.1190 -0.2364
 4862SOL    HW126645   1.074   9.411   4.619 -1.7163 -0.8761 -0.6263
 4862SOL    HW226646   1.027   9.321   4.747 -0.0418 -0.2197  0.4466
 4863SOL     OW26647   2.376   9.147   1.130  0.6688 -0.2431  0.1457
 4863SOL    HW126648   2.458   9.194   1.098 -0.5224  0.5638 -1.8237
 4863SOL    HW226649   2.367   9.059   1.084  1.3352 -1.1102  1.6503
 4864SOL     OW26650   0.830   0.854   6.376 -0.2595  0.0837 -0.2339
 4864SOL    HW126651   0.875   0.849   6.465  0.4681  0.4369 -0.5693
 4864SOL    HW226652   0.777   0.938   6.370  0.0181  0.2566 -0.2795
 4865SOL     OW26653   0.783   2.824   1.057  0.5024  0.2912  0.2373
 4865SOL    HW126654   0.692   2.782   1.056  0.7172 -0.1743  0.1066
 4865SOL    HW226655   0.800   2.868   0.969  0.5264  0.1015  0.1445
 4866SOL     OW26656   6.409   4.283   0.283 -0.6777  0.5717 -0.9789
 4866SOL    HW126657   6.314   4.255   0.272 -0.5401 -0.4436  0.3147
 4866SOL    HW226658   6.430   4.292   0.380  0.0585  2.5445 -1.2787
 4867SOL     OW26659   3.372   3.908   8.707  0.3350 -1.3183 -0.4151
 4867SOL    HW126660   3.318   3.932   8.626  0.2658 -1.0678 -0.2921
 4867SOL    HW226661   3.464   3.946   8.698  0.1220 -0.7260 -0.0647
 4868SOL     OW26662   1.538   0.397   5.697  0.5566  0.2920  0.2832
 4868SOL    HW126663   1.502   0.324   5.639 -0.9197 -0.1675  1.7485
 4868SOL    HW226664   1.523   0.374   5.793  2.5702  1.2551  0.8456
 4869SOL     OW26665   4.898   9.553   4.343 -0.1655 -0.1560  0.4492
 4869SOL    HW126666   4.987   9.507   4.345 -0.5466 -1.1287 -2.6615
 4869SOL    HW226667   4.907   9.643   4.300 -0.6944 -0.2797  0.0711
 4870SOL     OW26668   9.474   2.910   8.634 -0.3056 -0.1854 -0.3400
 4870SOL    HW126669   9.561   2.956   8.620 -0.9565  1.2920  0.3628
 4870SOL    HW226670   9.399   2.970   8.607 -1.1040 -1.5917 -1.3211
 4871SOL     OW26671   3.123   6.823   0.052  0.2412  0.6056 -0.1095
 4871SOL    HW126672   3.042   6.828   0.111  1.0027  0.0906  0.9818
 4871SOL    HW226673   3.163   6.915   0.044 -0.1762  0.7762 -0.2721
 4872SOL     OW26674   4.910   1.928   0.239 -0.4513 -0.5122  0.2345
 4872SOL    HW126675   4.912   1.996   0.312 -0.0029 -0.3723  0.0950
 4872SOL    HW226676   4.983   1.948   0.173 -0.8902 -0.6049 -0.2784
 4873SOL     OW26677   8.780   9.393   9.468 -0.0808 -0.3191 -0.4369
 4873SOL    HW126678   8.788   9.479   9.518  0.9734 -1.1127  0.7853
 4873SOL    HW226679   8.871   9.357   9.448 -0.5001 -0.6921 -1.7791
 4874SOL     OW26680   9.327   8.721   2.308 -0.5055  0.3278 -1.1527
 4874SOL    HW126681   9.421   8.742   2.334 -0.5906 -0.2056 -0.3765
 4874SOL    HW226682   9.309   8.755   2.216  0.4150  0.5152 -1.2677
 4875SOL     OW26683   7.582   0.643   7.542  0.1741  0.0782 -0.0549
 4875SOL    HW126684   7.672   0.602   7.555 -0.3087  0.2973  5.4707
 4875SOL    HW226685   7.520   0.576   7.502  2.7663  0.0780 -4.3869
 4876SOL     OW26686   4.153   7.776   4.545 -0.0349  0.2281 -0.8797
 4876SOL    HW126687   4.183   7.871   4.545  3.2350 -0.7562 -0.7699
 4876SOL    HW226688   4.134   7.747   4.451  1.4678  0.2605 -1.2043
 4877SOL     OW26689   9.276   0.333   7.230 -0.3504  0.0934  0.9036
 4877SOL    HW126690   9.187   0.367   7.201 -0.1790 -0.2772 -0.0545
 4877SOL    HW226691   9.316   0.278   7.158  0.4883 -0.0672  1.4846
 4878SOL     OW26692   9.922   8.837   5.712 -0.1607  0.3365 -0.0236
 4878SOL    HW126693   9.983   8.912   5.736  0.7898 -0.4708  0.1487
 4878SOL    HW226694   9.909   8.778   5.792  0.9917 -0.9697 -0.7711
 4879SOL     OW26695   8.463   4.214   7.263 -0.0310  0.1109 -0.4579
 4879SOL    HW126696   8.388   4.252   7.317 -0.1655 -2.1115  0.9807
 4879SOL    HW226697   8.550   4.242   7.302 -0.1202 -0.2909  0.0207
 4880SOL     OW26698   7.633   1.429   8.778  0.3775 -0.4524  0.3390
 4880SOL    HW126699   7.552   1.434   8.836 -0.8847 -0.9867 -1.3549
 4880SOL    HW226700   7.714   1.452   8.833 -1.1340  2.3030  1.5356
 4881SOL     OW26701   0.525   4.687   1.656  0.0954  0.1213  0.0792
 4881SOL    HW126702   0.545   4.775   1.698 -2.3943  1.1667 -0.8451
 4881SOL    HW226703   0.602   4.660   1.598  1.5072  0.9447  1.5169
 4882SOL     OW26704   3.268   3.608   8.165  0.1065  0.3405 -0.1078
 4882SOL    HW126705   3.269   3.591   8.066 -1.7241  1.4989 -0.3537
 4882SOL    HW226706   3.213   3.538   8.211 -1.1621  1.2277 -0.2350
 4883SOL     OW26707   2.711   3.484   3.897 -0.2263 -0.0983  0.5905
 4883SOL    HW126708   2.799   3.513   3.935 -0.7315  1.9203  0.2679
 4883SOL    HW226709   2.725   3.454   3.802  0.1874 -0.2152  0.6863
 4884SOL     OW26710   2.403   0.501   2.626  0.2920 -0.1611  0.3895
 4884SOL    HW126711   2.361   0.411   2.612  1.1807 -0.7998  1.6702
 4884SOL    HW226712   2.488   0.490   2.677  1.6432  1.1893 -1.5233
 4885SOL     OW26713   8.325   2.498   0.860  0.5241 -0.4253 -0.2530
 4885SOL    HW126714   8.340   2.591   0.825  1.7469  0.0138  1.3655
 4885SOL    HW226715   8.408   2.444   0.846  0.9647 -0.2937  1.7833
 4886SOL     OW26716   4.116   4.846   2.738  0.6754 -0.5374 -0.2118
 4886SOL    HW126717   4.154   4.924   2.688 -2.2809  1.2687  0.2634
 4886SOL    HW226718   4.135   4.857   2.836  1.4282 -1.1204 -0.2889
 4887SOL     OW26719   3.751   3.030   3.172  0.0980 -0.5535  0.6036
 4887SOL    HW126720   3.769   3.011   3.075 -2.0290  2.4501 -0.4782
 4887SOL    HW226721   3.835   3.061   3.216  0.3720  1.5701 -1.2812
 4888SOL     OW26722   5.436   4.943   1.257  0.0674 -0.0333  0.4857
 4888SOL    HW126723   5.419   4.957   1.159 -1.1366 -0.6833  0.5958
 4888SOL    HW226724   5.397   5.019   1.309 -0.6777 -0.4769  0.5786
 4889SOL     OW26725   7.228   0.310   3.452 -0.6552 -0.3089  0.0557
 4889SOL    HW126726   7.294   0.298   3.378  3.9195  1.5225  3.5854
 4889SOL    HW226727   7.213   0.223   3.498  0.0816 -0.5830 -0.2119
 4890SOL     OW26728   1.500   0.930   6.423  0.1849  0.1957 -0.0666
 4890SOL    HW126729   1.474   0.943   6.518  2.1034  2.7182  0.1382
 4890SOL    HW226730   1.589   0.886   6.418  0.7370  1.3622 -0.6765
 4891SOL     OW26731   1.845   5.832   0.420  0.6434 -0.5000  0.3160
 4891SOL    HW126732   1.785   5.822   0.500  2.0627  1.3629  1.6504
 4891SOL    HW226733   1.940   5.837   0.450  1.2002  0.1796 -1.4968
 4892SOL     OW26734   1.898   6.034   7.188 -0.5628 -0.0765  0.3838
 4892SOL    HW126735   1.875   6.001   7.280  0.9859 -1.2672  0.3652
 4892SOL    HW226736   1.843   5.986   7.120 -1.2314  0.3278  0.6353
 4893SOL     OW26737   5.727   1.277   7.950 -0.2153 -0.1401 -0.0520
 4893SOL    HW126738   5.716   1.311   7.856 -2.4033  1.5375  0.7715
 4893SOL    HW226739   5.648   1.222   7.974  0.4537 -0.7578  0.7418
 4894SOL     OW26740   4.951   7.251   4.510 -0.5173 -0.0456  0.8624
 4894SOL    HW126741   4.944   7.156   4.477  2.1328  0.3198 -0.8792
 4894SOL    HW226742   4.860   7.293   4.508 -1.6596 -2.4017  1.2153
 4895SOL     OW26743   6.065   9.874   7.552  0.1822  0.5438  0.3810
 4895SOL    HW126744   6.009   9.906   7.476  1.7816  0.1008 -1.0374
 4895SOL    HW226745   6.162   9.892   7.532  0.7626 -1.1170  1.5580
 4896SOL     OW26746   5.642   2.222   9.600 -0.9069 -0.2434 -0.3265
 4896SOL    HW126747   5.667   2.309   9.559 -2.9780  0.5533  0.0509
 4896SOL    HW226748   5.543   2.208   9.593 -0.8822 -1.6115  1.4492
 4897SOL     OW26749   8.584   4.681   6.165  0.1629 -0.0447 -0.0985
 4897SOL    HW126750   8.631   4.608   6.214 -0.4710 -0.8863 -0.7253
 4897SOL    HW226751   8.592   4.665   6.066 -0.7379  0.2489 -0.2245
 4898SOL     OW26752   1.521   1.230   8.272 -0.3491 -0.4522 -0.5884
 4898SOL    HW126753   1.473   1.294   8.331 -3.1245 -0.6521 -2.5208
 4898SOL    HW226754   1.599   1.276   8.230  0.5916  0.1991  1.7621
 4899SOL     OW26755   8.910   3.873   3.086  0.1738 -0.0307  0.2635
 4899SOL    HW126756   8.835   3.938   3.070  0.3235  0.0620 -0.0721
 4899SOL    HW226757   8.873   3.783   3.106 -0.0237 -0.0467 -0.1775
 4900SOL     OW26758   2.806   5.443   4.939  0.3197  0.2352 -0.4658
 4900SOL    HW126759   2.862   5.367   4.970  0.2254  0.5434  0.5071
 4900SOL    HW226760   2.852   5.491   4.864  0.8517 -0.1545 -0.3914
 4901SOL     OW26761   8.018   9.130   4.970 -0.4444 -0.6980 -0.4707
 4901SOL    HW126762   7.957   9.135   5.049 -0.0188  0.7982 -0.2207
 4901SOL    HW226763   8.072   9.214   4.964  0.9712 -1.6250 -1.1889
 4902SOL     OW26764   3.448   5.501   7.547  0.1803  0.6728 -0.1517
 4902SOL    HW126765   3.367   5.483   7.602 -0.1866 -0.0253 -0.9133
 4902SOL    HW226766   3.472   5.598   7.553  0.4515  0.5086  1.6422
 4903SOL     OW26767   4.983   2.781   9.604 -0.8074  1.0246  0.5041
 4903SOL    HW126768   4.883   2.789   9.602 -1.1156 -2.3790 -1.2799
 4903SOL    HW226769   5.010   2.732   9.687 -0.9033 -0.4540 -0.3035
 4904SOL     OW26770   6.545   3.437   2.499 -0.4502  0.0376 -0.4713
 4904SOL    HW126771   6.520   3.534   2.491  0.9859  0.3347 -1.6256
 4904SOL    HW226772   6.518   3.403   2.589 -0.7676  1.5719  0.0391
 4905SOL     OW26773   1.496   1.834   1.023 -0.3986 -0.6123  0.1038
 4905SOL    HW126774   1.440   1.897   1.076 -0.3471  0.9636 -1.6769
 4905SOL    HW226775   1.441   1.794   0.949  0.0092 -1.3854  0.2132
 4906SOL     OW26776   3.886   4.364   6.694  0.1087  0.1498  0.2956
 4906SOL    HW126777   3.934   4.431   6.639  2.5797  0.7594  3.0679
 4906SOL    HW226778   3.812   4.409   6.744 -2.8723 -0.6093 -3.2230
 4907SOL     OW26779   6.001   2.009   9.570 -0.4561  0.5749 -0.3778
 4907SOL    HW126780   6.001   2.100   9.527  1.1446  0.1878 -1.2137
 4907SOL    HW226781   5.994   1.939   9.499 -1.9613  0.0197  0.2872
 4908SOL     OW26782   2.983   2.219   4.020 -0.2783  0.1490 -0.4715
 4908SOL    HW126783   2.948   2.167   4.098  0.6499  0.1496 -0.0571
 4908SOL    HW226784   3.050   2.286   4.051  0.0802  0.1617 -1.2633
 4909SOL     OW26785   7.476   0.907   7.629 -0.1976  0.1780 -0.5580
 4909SOL    HW126786   7.398   0.869   7.678 -0.1508  0.5442 -0.2033
 4909SOL    HW226787   7.542   0.834   7.610  0.8290  0.4108  1.8694
 4910SOL     OW26788   3.842   4.583   9.865 -0.0100  0.0021  0.1714
 4910SOL    HW126789   3.904   4.649   9.908 -2.3974  1.9897  0.7035
 4910SOL    HW226790   3.765   4.565   9.926 -0.8542 -1.0433 -1.1722
 4911SOL     OW26791   5.406   3.808   7.663  0.5444 -0.2217  0.6344
 4911SOL    HW126792   5.395   3.768   7.572 -1.0474 -4.0466  2.4181
 4911SOL    HW226793   5.494   3.856   7.668  1.2059 -1.0050 -2.4916
 4912SOL     OW26794   7.242   3.562   9.595  0.0737 -0.2020 -0.3219
 4912SOL    HW126795   7.235   3.528   9.501 -0.8449 -1.5855  0.2345
 4912SOL    HW226796   7.330   3.608   9.607  1.4203 -2.4800 -1.0843
 4913SOL     OW26797   7.662   9.384   2.120  0.0510  0.1049 -0.7366
 4913SOL    HW126798   7.659   9.419   2.026 -0.8338 -1.3735 -1.2857
 4913SOL    HW226799   7.749   9.337   2.135 -0.4056 -0.9639 -1.3327
 4914SOL     OW26800   8.067   6.817   4.596  0.1183 -0.3032  0.0736
 4914SOL    HW126801   8.147   6.776   4.552  1.2080  0.6985  1.0715
 4914SOL    HW226802   8.081   6.821   4.695 -0.4360  1.3999  0.1047
 4915SOL     OW26803   8.922   8.433   9.042  0.6545 -0.1161 -0.4431
 4915SOL    HW126804   8.889   8.339   9.037  1.9397 -0.6054  0.0212
 4915SOL    HW226805   9.022   8.433   9.050  0.5700  1.2473  0.7674
 4916SOL     OW26806   9.500   0.156   9.318  0.2256  0.3113 -1.0600
 4916SOL    HW126807   9.468   0.070   9.279  0.4686 -0.3895  0.2206
 4916SOL    HW226808   9.458   0.169   9.408  1.2483  0.8457 -0.6493
 4917SOL     OW26809   1.818   8.492   1.442 -0.7791 -0.6179 -0.0690
 4917SOL    HW126810   1.900   8.439   1.419 -1.4773 -1.9944  0.5274
 4917SOL    HW226811   1.830   8.537   1.530 -0.1094  0.3726 -0.6651
 4918SOL     OW26812   0.237   0.418   2.946  0.4120 -0.3633 -0.0145
 4918SOL    HW126813   0.207   0.510   2.922 -1.1102 -1.3157 -1.9453
 4918SOL    HW226814   0.178   0.380   3.017  0.5420 -0.1354  0.2131
 4919SOL     OW26815   3.076   9.105   1.219 -0.3338  0.1867  0.2709
 4919SOL    HW126816   3.050   9.034   1.284 -1.8900 -1.0627 -1.6645
 4919SOL    HW226817   3.156   9.075   1.167 -1.3505 -0.4215 -0.9582
 4920SOL     OW26818   2.996   2.437   5.022 -0.5339  0.2345  0.0531
 4920SOL    HW126819   2.940   2.515   4.993 -1.2861 -0.2025  0.3216
 4920SOL    HW226820   2.945   2.383   5.090  0.4097  0.1195  0.6779
 4921SOL     OW26821   6.848   2.190   8.620 -0.0439 -0.2026 -0.0872
 4921SOL    HW126822   6.790   2.123   8.665 -1.1949 -0.5032 -1.9502
 4921SOL    HW226823   6.831   2.188   8.521  2.1589  0.6580 -0.5140
 4922SOL     OW26824   7.486   1.659   9.164 -0.1696 -0.3217  0.5554
 4922SOL    HW126825   7.569   1.712   9.183  1.3877 -1.7707 -1.9342
 4922SOL    HW226826   7.490   1.572   9.213 -1.1839  0.4107  1.9944
 4923SOL     OW26827   3.714   4.400   2.006  0.5139  0.3933 -0.1878
 4923SOL    HW126828   3.705   4.414   1.908 -2.0032 -1.4297 -0.2518
 4923SOL    HW226829   3.640   4.446   2.054 -0.3900 -1.7426  0.5443
 4924SOL     OW26830   5.820   4.903   1.854 -0.4082  0.0281 -0.4239
 4924SOL    HW126831   5.813   5.003   1.851 -1.9317 -0.0464  0.2214
 4924SOL    HW226832   5.759   4.868   1.925  0.5807 -1.3256 -0.2334
 4925SOL     OW26833   3.388   5.038   5.513  0.5033  0.1519 -0.3319
 4925SOL    HW126834   3.440   4.999   5.589  1.1748  0.1288 -0.8043
 4925SOL    HW226835   3.348   5.125   5.542  1.3002  0.4640 -0.1553
 4926SOL     OW26836   0.641   1.470   5.950 -0.1567  0.4706  0.0943
 4926SOL    HW126837   0.606   1.504   5.863 -0.2305  0.9969  0.3276
 4926SOL    HW226838   0.736   1.501   5.962  0.0600 -0.1160 -0.0798
 4927SOL     OW26839   3.304   7.399   8.407 -0.6987  0.1242 -0.1250
 4927SOL    HW126840   3.268   7.352   8.327 -2.5744 -1.5863  1.6622
 4927SOL    HW226841   3.228   7.433   8.463  0.5252 -0.3433  1.8615
 4928SOL     OW26842   2.016   3.661   9.017  0.0596 -0.5244  0.0965
 4928SOL    HW126843   1.945   3.728   8.998  1.5678  1.5014  1.3613
 4928SOL    HW226844   2.008   3.629   9.111  0.4605 -0.7302  0.0641
 4929SOL     OW26845   1.042   5.632   1.030  0.2421  0.0173 -0.5423
 4929SOL    HW126846   1.071   5.683   1.111 -0.2748 -3.8570  2.2623
 4929SOL    HW226847   0.969   5.682   0.984  0.2088  2.1172  1.6656
 4930SOL     OW26848   4.542   0.062   3.023  0.1191 -0.8542 -0.4401
 4930SOL    HW126849   4.481   0.025   3.093 -1.4272  0.5139 -1.0099
 4930SOL    HW226850   4.579   0.150   3.054  0.7092 -1.0236 -0.6642
 4931SOL     OW26851   9.576   1.981   0.088  0.1396 -0.5141  0.2414
 4931SOL    HW126852   9.484   1.966   0.051  0.5281  1.0200 -1.4098
 4931SOL    HW226853   9.621   1.893   0.102 -1.2211 -1.2383  0.1371
 4932SOL     OW26854   0.963   7.450   9.506 -0.4739 -0.3438 -0.5284
 4932SOL    HW126855   0.980   7.364   9.554  1.1081  0.8797  1.1987
 4932SOL    HW226856   0.878   7.443   9.454 -1.0073 -2.5271  0.5589
 4933SOL     OW26857   0.152   6.979   4.597 -0.1501 -0.1557  0.0408
 4933SOL    HW126858   0.229   6.915   4.589 -0.3573 -0.4282  0.2103
 4933SOL    HW226859   0.076   6.947   4.541 -0.8586 -0.9613  1.4232
 4934SOL     OW26860   1.599   9.367   2.599  0.5942 -0.3062 -0.1348
 4934SOL    HW126861   1.661   9.349   2.676  1.1497  0.1304 -0.4756
 4934SOL    HW226862   1.649   9.357   2.513 -0.0111 -0.7269 -0.4415
 4935SOL     OW26863   6.941   1.557   9.977 -0.4683  0.0968  0.2278
 4935SOL    HW126864   6.991   1.607   9.907 -1.2414  0.4105 -0.1071
 4935SOL    HW226865   7.005   1.522  10.046  0.2029  0.4818 -0.1996
 4936SOL     OW26866   6.636   8.697   5.608  0.1037  0.4689  0.6313
 4936SOL    HW126867   6.709   8.737   5.665  0.3274 -2.1302  2.2327
 4936SOL    HW226868   6.547   8.730   5.639  0.1907 -1.2888  2.8580
 4937SOL     OW26869   3.479   8.035   2.310 -0.3114 -0.2899 -0.2846
 4937SOL    HW126870   3.537   7.956   2.295 -1.2320 -1.5793  2.6191
 4937SOL    HW226871   3.519   8.094   2.380 -1.6512 -0.3214  0.5251
 4938SOL     OW26872   7.794   3.200   2.346 -0.0610  0.1472 -0.9316
 4938SOL    HW126873   7.730   3.127   2.319  0.7192 -0.3366 -1.4783
 4938SOL    HW226874   7.820   3.252   2.265 -0.5476  0.9800 -0.5509
 4939SOL     OW26875   4.726   4.373   9.144 -0.3853  0.8136 -0.1648
 4939SOL    HW126876   4.634   4.392   9.178 -0.1924  2.4203 -0.5077
 4939SOL    HW226877   4.792   4.425   9.198  0.1462  1.2838 -1.2685
 4940SOL     OW26878   7.230   5.822   4.237  0.3589  0.3099 -0.0290
 4940SOL    HW126879   7.205   5.742   4.291 -2.0441  0.5638 -0.7165
 4940SOL    HW226880   7.228   5.798   4.140  0.7391  0.9156 -0.1905
 4941SOL     OW26881   3.972   4.852   1.013  0.0993  0.0105 -0.4963
 4941SOL    HW126882   4.015   4.762   1.007 -1.9189 -0.9274 -1.3700
 4941SOL    HW226883   3.975   4.896   0.923 -1.1671 -0.2594 -0.6732
 4942SOL     OW26884   2.512   7.969   8.096 -0.0656 -0.7817  0.1949
 4942SOL    HW126885   2.545   7.941   8.005  0.0379 -0.4369  0.1245
 4942SOL    HW226886   2.559   7.916   8.166 -0.0339 -0.9411  0.0529
 4943SOL     OW26887   2.890   7.850   5.526 -0.4190 -0.5154 -0.1934
 4943SOL    HW126888   2.986   7.853   5.498 -0.6162 -0.0718 -0.8460
 4943SOL    HW226889   2.837   7.802   5.456 -0.9122  0.5384 -0.5510
 4944SOL     OW26890   7.270   3.214   9.616 -0.3800 -0.0088  0.1653
 4944SOL    HW126891   7.174   3.241   9.610  0.3154  2.2327 -1.7821
 4944SOL    HW226892   7.290   3.144   9.548 -0.4602  0.1599 -0.0323
 4945SOL     OW26893   3.507   9.452   8.833 -0.0813  0.9672  0.4096
 4945SOL    HW126894   3.600   9.477   8.807  0.7518  0.0605  2.4234
 4945SOL    HW226895   3.478   9.507   8.911 -0.9743  0.7779  0.2126
 4946SOL     OW26896   1.598   9.420   6.268  0.5224  0.1355 -0.3343
 4946SOL    HW126897   1.645   9.504   6.294 -0.7071  1.4739 -2.2431
 4946SOL    HW226898   1.526   9.401   6.334 -0.4813  1.7162 -0.9198
 4947SOL     OW26899   1.974   8.887   8.645  0.6483  0.2868 -0.4193
 4947SOL    HW126900   2.052   8.943   8.675  1.0214  0.2241 -1.2532
 4947SOL    HW226901   1.951   8.822   8.717  0.8367  0.8641  0.1695
 4948SOL     OW26902   9.554   2.891   7.729 -0.2412 -0.0569  0.1508
 4948SOL    HW126903   9.527   2.859   7.638  1.4861 -1.0678 -0.0336
 4948SOL    HW226904   9.650   2.867   7.745 -0.2140  1.0948  1.8075
 4949SOL     OW26905   2.311   2.010   5.714  0.2117  0.0626 -0.0733
 4949SOL    HW126906   2.215   2.001   5.739  0.2625  1.0014  0.5064
 4949SOL    HW226907   2.352   1.920   5.704 -1.0218 -0.3456 -1.4647
 4950SOL     OW26908   0.109   7.965   6.562  0.5819  0.2285  0.1343
 4950SOL    HW126909   0.189   8.023   6.552  0.4289  0.3494 -0.4003
 4950SOL    HW226910   0.072   7.942   6.471  0.4054 -0.3685  0.3505
 4951SOL     OW26911   6.265   9.191   1.868 -0.4872 -0.5150 -0.2321
 4951SOL    HW126912   6.219   9.108   1.839 -0.7794 -0.5600  0.3561
 4951SOL    HW226913   6.353   9.198   1.822 -1.1064 -0.3945 -1.4196
 4952SOL     OW26914   3.748   3.847   1.787  0.3706 -0.2367  0.6924
 4952SOL    HW126915   3.653   3.829   1.810  0.8474 -0.8050  2.3343
 4952SOL    HW226916   3.785   3.916   1.849  1.4237 -1.0707  1.0101
 4953SOL     OW26917   7.466   2.913   1.590  0.1771  0.0911  0.5207
 4953SOL    HW126918   7.389   2.850   1.580  0.2454  0.1430 -0.3562
 4953SOL    HW226919   7.433   2.999   1.629 -0.3790  0.4500 -0.7309
 4954SOL     OW26920   7.313   7.255   6.110  0.3219 -0.0265 -0.0688
 4954SOL    HW126921   7.329   7.157   6.102  2.6468  0.0648  2.8436
 4954SOL    HW226922   7.392   7.305   6.075  0.7613  0.7110  1.9152
 4955SOL     OW26923   0.038   0.540   1.533  0.3786  0.2044 -0.9358
 4955SOL    HW126924  -0.048   0.514   1.579  0.1673  2.0861 -0.2108
 4955SOL    HW226925   0.101   0.462   1.534 -2.2904 -2.1216 -3.8958
 4956SOL     OW26926   3.138   8.139   7.714 -0.6641 -0.0376  0.2804
 4956SOL    HW126927   3.215   8.132   7.778 -0.7024 -0.1115  0.3181
 4956SOL    HW226928   3.143   8.065   7.647 -0.2302  0.4503 -0.2366
 4957SOL     OW26929   0.559   7.999   7.024  0.1829  0.0208  0.5126
 4957SOL    HW126930   0.512   8.069   7.079  0.0346 -0.7702  1.4136
 4957SOL    HW226931   0.507   7.983   6.940 -0.0514  0.6250  0.5332
 4958SOL     OW26932   2.423   7.274   8.960  0.2302 -0.9119  1.0841
 4958SOL    HW126933   2.342   7.235   9.004 -0.7751  0.0218  0.1014
 4958SOL    HW226934   2.408   7.276   8.861  0.1469  2.2216  1.1355
 4959SOL     OW26935   1.788   5.908   7.411 -0.3129  0.4097  0.6524
 4959SOL    HW126936   1.840   5.825   7.433 -1.4379  0.2328  2.7653
 4959SOL    HW226937   1.695   5.882   7.384 -0.5053  0.9504  0.8014
 4960SOL     OW26938   8.996   8.820   7.296 -0.5350 -0.3063  0.3171
 4960SOL    HW126939   9.090   8.787   7.308 -0.4093  0.1985  0.7292
 4960SOL    HW226940   8.997   8.912   7.256 -0.8147  0.1945  1.4355
 4961SOL     OW26941   1.851   3.253   9.897 -0.4858 -0.3041  0.0098
 4961SOL    HW126942   1.827   3.188   9.969 -0.0507 -0.2619  0.2001
 4961SOL    HW226943   1.919   3.211   9.837 -0.0191  0.0634  0.2792
 4962SOL     OW26944   1.451   2.452   0.134 -0.1506 -0.4009 -0.3040
 4962SOL    HW126945   1.438   2.445   0.233 -0.3773 -0.7329 -0.3567
 4962SOL    HW226946   1.544   2.423   0.111 -0.0340 -0.1403 -0.1693
 4963SOL     OW26947   4.103   0.888   6.235  0.1537 -0.0486 -0.1005
 4963SOL    HW126948   4.073   0.889   6.330  0.2536  0.2371 -0.0714
 4963SOL    HW226949   4.191   0.840   6.229 -0.1517 -0.6028 -0.1391
 4964SOL     OW26950   2.319   6.599   6.557  0.2537  0.1020  0.2226
 4964SOL    HW126951   2.328   6.548   6.642 -0.3760  0.1988  0.3512
 4964SOL    HW226952   2.277   6.541   6.488 -0.2447  0.3721  0.2991
 4965SOL     OW26953   7.285   1.627   8.410  0.2447  0.0441 -0.2704
 4965SOL    HW126954   7.287   1.710   8.466 -0.6744 -0.0980 -0.0270
 4965SOL    HW226955   7.201   1.576   8.428  0.5736 -0.6880 -0.7882
 4966SOL     OW26956   8.003   6.175   0.855 -0.0645  0.7135  0.1857
 4966SOL    HW126957   7.905   6.159   0.846  0.0915 -1.1237  1.3886
 4966SOL    HW226958   8.021   6.273   0.866 -1.9391  0.8798  2.0322
 4967SOL     OW26959   2.438   3.032   3.258 -0.0384 -0.1689  0.0641
 4967SOL    HW126960   2.356   3.077   3.221 -1.8640 -1.4729  2.3583
 4967SOL    HW226961   2.477   2.972   3.188 -0.5587  1.1113 -1.3409
 4968SOL     OW26962   5.482   4.178   8.461 -0.5424 -0.0992 -0.0268
 4968SOL    HW126963   5.425   4.186   8.543  1.2314  1.4806  1.0912
 4968SOL    HW226964   5.554   4.110   8.477 -0.1465  0.2710 -0.2193
 4969SOL     OW26965   1.662   9.975   2.910 -0.1378  0.1598 -0.1647
 4969SOL    HW126966   1.578   9.935   2.874 -0.4010  0.2345  0.3674
 4969SOL    HW226967   1.652  10.075   2.912  0.3956  0.2400 -1.1856
 4970SOL     OW26968   5.865   8.233   3.906 -0.7261  0.5873  0.1059
 4970SOL    HW126969   5.789   8.174   3.876  0.0659  0.0007 -0.7926
 4970SOL    HW226970   5.891   8.208   3.999 -0.3316 -0.5777 -0.3019
 4971SOL     OW26971   9.260   6.743   6.723  0.0401  0.2167  0.1252
 4971SOL    HW126972   9.244   6.781   6.632  1.1757  0.0974 -0.1265
 4971SOL    HW226973   9.230   6.648   6.726  2.3532 -0.5707 -0.8831
 4972SOL     OW26974   1.159   2.774   3.600  0.3441 -0.3495  0.4101
 4972SOL    HW126975   1.083   2.777   3.535  0.3723  2.3149  0.4696
 4972SOL    HW226976   1.238   2.732   3.557 -0.3964 -0.8735 -0.4540
 4973SOL     OW26977   2.183   1.463   3.984  0.1802 -0.5219 -0.1186
 4973SOL    HW126978   2.109   1.452   4.050 -1.7440  0.6218 -2.0130
 4973SOL    HW226979   2.166   1.406   3.904  1.7716 -0.8538 -0.2438
 4974SOL     OW26980   4.782   2.326   9.611 -0.0102  0.0351 -0.2537
 4974SOL    HW126981   4.849   2.282   9.670  0.7116 -1.0093 -1.8135
 4974SOL    HW226982   4.825   2.348   9.523 -1.2220  1.0245 -0.6075
 4975SOL     OW26983   2.997   0.014   1.732  0.3013 -0.0421 -0.4246
 4975SOL    HW126984   3.080   0.068   1.745  1.4722 -1.5746 -1.2884
 4975SOL    HW226985   3.005  -0.039   1.647 -0.8894 -1.3777  0.2765
 4976SOL     OW26986   2.144   0.903   7.252  0.7563  0.1335  0.1817
 4976SOL    HW126987   2.095   0.823   7.287 -0.5472  0.6821 -0.3821
 4976SOL    HW226988   2.236   0.905   7.291  0.2174 -0.7069  1.5238
 4977SOL     OW26989   8.738   1.677   2.688 -0.4544 -0.1109 -0.0037
 4977SOL    HW126990   8.682   1.710   2.764  1.8573  1.0853  1.2377
 4977SOL    HW226991   8.762   1.581   2.704  1.3660  0.5862  1.6471
 4978SOL     OW26992   4.330   8.017   5.842 -0.2720  0.0666 -0.4380
 4978SOL    HW126993   4.279   8.103   5.833 -0.2619  0.1736  0.4701
 4978SOL    HW226994   4.318   7.962   5.759  2.0529  2.1690 -2.2029
 4979SOL     OW26995   4.922   8.928   6.578 -0.1028 -0.0891 -0.3086
 4979SOL    HW126996   4.893   8.904   6.671 -0.0866  2.2916  0.3276
 4979SOL    HW226997   5.018   8.956   6.579  0.6263 -2.3759 -1.4811
 4980SOL     OW26998   9.701   1.335   5.731 -0.0269  0.4632 -0.5449
 4980SOL    HW126999   9.665   1.429   5.730 -1.3047 -0.0110  0.3075
 4980SOL    HW227000   9.667   1.285   5.652  1.0021  0.8400 -1.2323
 4981SOL     OW27001   1.129   3.305   5.741  0.1094 -0.0518  0.2803
 4981SOL    HW127002   1.177   3.275   5.824  0.6170  0.2597  0.0990
 4981SOL    HW227003   1.104   3.401   5.750  2.7937  0.8270 -1.1347
 4982SOL     OW27004   8.674   3.294   8.868  0.1007  0.3378 -0.5577
 4982SOL    HW127005   8.643   3.387   8.885  1.2541  0.5957  0.2256
 4982SOL    HW227006   8.629   3.232   8.932  0.0624  0.4952 -0.4316
 4983SOL     OW27007   8.325   1.522   8.464 -0.0853 -0.5745 -0.1887
 4983SOL    HW127008   8.313   1.583   8.386  1.8062 -1.2843 -1.0517
 4983SOL    HW227009   8.407   1.467   8.452  0.5644 -0.3042  2.5536
 4984SOL     OW27010   0.204   9.088   8.857  0.2123  0.1365  0.0642
 4984SOL    HW127011   0.141   9.022   8.898 -0.3067  0.8943  0.5004
 4984SOL    HW227012   0.286   9.097   8.915 -0.1536  0.5920  0.5193
 4985SOL     OW27013   0.969   7.501   8.997  0.4032  0.8510  0.4638
 4985SOL    HW127014   1.057   7.543   8.977  0.4766  1.2165  1.5168
 4985SOL    HW227015   0.979   7.437   9.073  0.1062 -0.4096 -0.5472
 4986SOL     OW27016   0.635   5.118   1.680 -0.1579 -0.1636  1.0378
 4986SOL    HW127017   0.704   5.189   1.665 -0.9534  0.2413 -0.8017
 4986SOL    HW227018   0.547   5.149   1.644 -0.7859 -1.6000  1.3154
 4987SOL     OW27019   8.344   4.087   4.198 -0.3583  0.2141  0.2048
 4987SOL    HW127020   8.419   4.061   4.137 -0.3410  1.1854 -0.1816
 4987SOL    HW227021   8.259   4.089   4.146 -0.5614 -0.3043  0.5161
 4988SOL     OW27022   4.137   8.451   9.102 -0.7466 -0.1571 -0.0532
 4988SOL    HW127023   4.060   8.505   9.139 -2.2437 -1.2204 -1.5584
 4988SOL    HW227024   4.180   8.401   9.176 -3.1486 -1.5554  0.4581
 4989SOL     OW27025   8.724   9.697   3.681  0.7744 -0.0202 -0.0402
 4989SOL    HW127026   8.677   9.772   3.727 -0.0293 -0.6909  0.2495
 4989SOL    HW227027   8.775   9.643   3.748  0.1166 -0.6200 -0.0092
 4990SOL     OW27028   8.781   2.953   4.950 -0.3498  0.6791  0.3093
 4990SOL    HW127029   8.824   2.971   4.861  2.3468  0.7111  1.5444
 4990SOL    HW227030   8.708   2.886   4.940 -0.9263  1.6191 -2.1147
 4991SOL     OW27031   3.623   9.640   1.771  0.7924 -0.3356  0.2067
 4991SOL    HW127032   3.543   9.615   1.716  0.7077 -1.3209  0.7614
 4991SOL    HW227033   3.595   9.700   1.845  0.6209 -0.3795  0.1787
 4992SOL     OW27034   0.392   0.335   0.294 -0.4204 -0.4506  0.4994
 4992SOL    HW127035   0.400   0.237   0.272 -1.0588 -0.0007 -1.8174
 4992SOL    HW227036   0.483   0.377   0.291 -0.4157 -0.5256 -0.7651
 4993SOL     OW27037   1.113   3.426   3.867 -0.2771 -0.0490 -0.1122
 4993SOL    HW127038   1.192   3.374   3.899 -0.7534 -0.3149  0.6415
 4993SOL    HW227039   1.065   3.465   3.945  0.0868  1.5475 -0.6680
 4994SOL     OW27040   6.519   3.525   0.605  0.3068  0.2446  0.2535
 4994SOL    HW127041   6.451   3.454   0.591  1.1053 -0.3608 -0.6334
 4994SOL    HW227042   6.512   3.592   0.531 -0.3169  0.9918  0.9812
 4995SOL     OW27043   0.218   2.880   8.692 -0.6509  0.0137  0.0925
 4995SOL    HW127044   0.200   2.901   8.788 -2.9881 -1.2228 -0.0463
 4995SOL    HW227045   0.193   2.785   8.674  0.6149 -0.0261 -1.5530
 4996SOL     OW27046   4.238   4.036   8.082 -0.2919 -0.7988 -0.6152
 4996SOL    HW127047   4.315   4.010   8.024  0.1029  0.0234 -0.4724
 4996SOL    HW227048   4.157   4.051   8.026  1.0276  3.7618 -1.4640
 4997SOL     OW27049   1.150   7.134   1.348  0.1003  0.4567 -0.2398
 4997SOL    HW127050   1.068   7.077   1.351  0.5200 -0.1571 -0.3957
 4997SOL    HW227051   1.169   7.159   1.253  0.3073  0.2855 -0.2440
 4998SOL     OW27052   2.060   3.010   9.517  0.2784 -0.0017  0.1962
 4998SOL    HW127053   1.987   2.978   9.576 -1.4783 -1.1329 -2.4940
 4998SOL    HW227054   2.101   3.093   9.555 -2.1562  0.4350  1.9130
 4999SOL     OW27055   3.708   5.095   3.092 -0.3250 -0.0087  0.3281
 4999SOL    HW127056   3.745   5.045   3.013 -0.9369 -1.2895  0.8367
 4999SOL    HW227057   3.679   5.030   3.162 -1.4781  1.0585  0.8639
 5000SOL     OW27058   8.543   2.030   0.654 -0.2748  0.0403  0.0387
 5000SOL    HW127059   8.622   1.969   0.662  0.5244  1.0480 -0.1355
 5000SOL    HW227060   8.486   2.020   0.735  0.3448 -0.2446  0.4475
 5001SOL     OW27061   1.330   4.036   2.705 -0.0534  0.0432 -0.1927
 5001SOL    HW127062   1.231   4.043   2.719 -0.3028  0.5253 -2.0033
 5001SOL    HW227063   1.354   3.940   2.691  0.1764 -0.4213  3.0535
 5002SOL     OW27064   8.909   4.103   1.982 -0.0276  0.6972  0.2093
 5002SOL    HW127065   8.958   4.157   1.914 -1.7564  2.7217  0.4794
 5002SOL    HW227066   8.812   4.100   1.958  0.2156 -3.6317 -0.5962
 5003SOL     OW27067   9.546   3.908   9.657 -0.1720 -0.6469  0.6180
 5003SOL    HW127068   9.475   3.888   9.724  0.0422 -2.0173  0.4501
 5003SOL    HW227069   9.548   3.836   9.588 -0.2260  0.6210 -0.7289
 5004SOL     OW27070   3.515   0.543   1.701 -0.3288  0.7776  0.2252
 5004SOL    HW127071   3.503   0.594   1.616 -1.1180 -0.9132 -0.7055
 5004SOL    HW227072   3.458   0.582   1.773 -3.2282 -0.5686 -1.2731
 5005SOL     OW27073   3.951   9.216   7.990 -0.0353 -0.5946 -0.2225
 5005SOL    HW127074   3.944   9.156   8.070 -0.3058  1.7562  1.5848
 5005SOL    HW227075   3.896   9.299   8.006  3.2089  1.8254 -1.0703
 5006SOL     OW27076   1.972   5.667   5.800  0.4097  0.2594 -0.3663
 5006SOL    HW127077   1.923   5.642   5.883  0.0029  0.4724 -0.5411
 5006SOL    HW227078   1.912   5.653   5.721  0.6850  0.3641 -0.5929
 5007SOL     OW27079   3.776   6.339   3.651 -0.1768  0.3031 -0.3304
 5007SOL    HW127080   3.765   6.397   3.570 -1.8489  0.6451  0.1236
 5007SOL    HW227081   3.699   6.275   3.657  0.6931 -0.7089  0.1986
 5008SOL     OW27082   1.808   5.175   1.265  0.3235 -0.0508 -0.1661
 5008SOL    HW127083   1.751   5.189   1.184 -0.4954  0.1713  0.4305
 5008SOL    HW227084   1.877   5.246   1.271  0.9028 -0.5311 -1.0983
 5009SOL     OW27085   9.053   1.068   4.462 -0.1293 -0.1339 -0.5500
 5009SOL    HW127086   9.037   0.998   4.531  2.4757  0.6118  0.8669
 5009SOL    HW227087   9.116   1.034   4.393  3.1531  1.5234  1.4831
 5010SOL     OW27088   1.569   3.395   6.256  0.2129 -0.3191 -0.1739
 5010SOL    HW127089   1.600   3.350   6.173  0.2641  2.6900 -1.8492
 5010SOL    HW227090   1.469   3.396   6.258  0.1841  1.3966 -1.2659
 5011SOL     OW27091   2.506   7.932   3.647  0.1105  0.1443  0.1593
 5011SOL    HW127092   2.586   7.924   3.588  0.0012  1.7463 -0.2326
 5011SOL    HW227093   2.426   7.956   3.592 -0.2031  0.6160  0.8032
 5012SOL     OW27094   5.757   8.810   7.540  1.0594  0.3494 -0.1221
 5012SOL    HW127095   5.702   8.737   7.580  2.0628 -0.0625  0.5526
 5012SOL    HW227096   5.716   8.899   7.561  0.6938  0.0526  0.4179
 5013SOL     OW27097   0.085   3.910   5.182 -0.5780 -0.2230  0.5052
 5013SOL    HW127098  -0.011   3.939   5.183 -0.7757 -0.8402 -0.0869
 5013SOL    HW227099   0.133   3.957   5.108 -0.6642 -0.6431  0.1761
 5014SOL     OW27100   2.493   2.498   2.709  0.3811  0.4912 -0.1800
 5014SOL    HW127101   2.471   2.513   2.806 -0.6035  1.3489 -0.5299
 5014SOL    HW227102   2.475   2.582   2.658  2.4502  0.5622 -0.8517
 5015SOL     OW27103   3.793   2.269   0.146  0.5206 -0.2233 -0.4431
 5015SOL    HW127104   3.845   2.297   0.065  2.4996 -1.4284  0.3693
 5015SOL    HW227105   3.806   2.336   0.219 -0.0431  0.0845 -0.6220
 5016SOL     OW27106   8.770   7.374   5.953  0.0853 -0.2279  0.1245
 5016SOL    HW127107   8.686   7.338   5.994 -0.2278  0.6551  0.2818
 5016SOL    HW227108   8.805   7.310   5.885 -1.7295  0.2132 -1.2599
 5017SOL     OW27109   9.019   9.279   6.885  0.2805 -0.3097 -0.2983
 5017SOL    HW127110   9.016   9.360   6.944  2.1664  0.8597 -1.7522
 5017SOL    HW227111   9.113   9.248   6.875 -0.1530 -1.2484 -1.6800
 5018SOL     OW27112   3.051   7.344   1.641  0.2311  0.4131  0.0974
 5018SOL    HW127113   3.092   7.358   1.731 -0.2216 -0.0572  0.3804
 5018SOL    HW227114   3.059   7.248   1.614  0.9109  0.6697 -0.6380
 5019SOL     OW27115   1.234   0.950   8.857 -0.1013  0.4103 -0.2886
 5019SOL    HW127116   1.191   1.040   8.857 -0.5961  0.1738 -0.0967
 5019SOL    HW227117   1.170   0.882   8.894 -0.2067 -0.2382 -1.6104
 5020SOL     OW27118   4.933   7.150   1.430 -0.1838  0.2470 -0.0464
 5020SOL    HW127119   4.912   7.245   1.406  1.6793  1.3634  2.4495
 5020SOL    HW227120   5.028   7.130   1.405 -0.0204 -0.3734  1.0408
 5021SOL     OW27121   8.324   7.655   4.794  0.0484  0.3546 -0.0636
 5021SOL    HW127122   8.366   7.665   4.884 -1.5555  1.5531  0.5859
 5021SOL    HW227123   8.246   7.593   4.800  1.1024 -1.0901 -1.0488
 5022SOL     OW27124   7.411   3.722   8.739 -0.0534  0.5747  0.4420
 5022SOL    HW127125   7.350   3.695   8.814  0.6696 -2.1718  0.0959
 5022SOL    HW227126   7.358   3.730   8.655 -0.2587  0.1569  0.5300
 5023SOL     OW27127   1.376   4.709   6.004  0.0355  0.0661  0.1394
 5023SOL    HW127128   1.406   4.805   6.007 -0.5921  0.3050 -0.7737
 5023SOL    HW227129   1.379   4.677   5.909 -1.3801 -0.2827  0.1944
 5024SOL     OW27130   0.396   2.188   2.143  0.0942  0.4235  0.8544
 5024SOL    HW127131   0.481   2.141   2.122  0.4372  0.9167  1.1332
 5024SOL    HW227132   0.319   2.134   2.110  0.5200  0.0283  0.5062
 5025SOL     OW27133   4.657   2.313   8.470 -0.1810 -0.0180 -0.1845
 5025SOL    HW127134   4.658   2.223   8.514  0.1296  0.1033  0.0613
 5025SOL    HW227135   4.706   2.379   8.528 -0.5055  0.3348 -0.3056
 5026SOL     OW27136   1.041   9.331   6.161  0.0832 -0.3077 -0.1630
 5026SOL    HW127137   1.013   9.380   6.078  1.1297  0.2841 -0.1679
 5026SOL    HW227138   0.959   9.303   6.212 -0.6011 -1.7970 -2.0219
 5027SOL     OW27139   1.753   0.830   0.173  0.4002 -0.2832  0.5450
 5027SOL    HW127140   1.785   0.919   0.204 -0.3151  0.2704 -0.3014
 5027SOL    HW227141   1.741   0.770   0.252 -1.0736  1.0054  1.3156
 5028SOL     OW27142   2.199   5.143   3.484 -0.1410 -0.2762  0.7038
 5028SOL    HW127143   2.194   5.237   3.520  2.6907  0.7361 -1.3830
 5028SOL    HW227144   2.216   5.080   3.560  1.8636  1.3693  1.6811
 5029SOL     OW27145   7.434   9.676   6.427 -0.7540 -0.1736  0.0728
 5029SOL    HW127146   7.406   9.754   6.370  1.1290 -0.1393 -0.8224
 5029SOL    HW227147   7.496   9.618   6.375 -0.0239 -0.8322  1.6696
 5030SOL     OW27148   0.078   3.892   4.347 -0.1277  0.3721  0.0073
 5030SOL    HW127149   0.061   3.795   4.364  0.6310  0.0154 -1.2421
 5030SOL    HW227150   0.009   3.927   4.283  0.6986  0.2047 -0.9779
 5031SOL     OW27151   7.105   5.461   8.312  0.0371  0.0511 -0.4391
 5031SOL    HW127152   7.117   5.365   8.286 -2.0292 -0.0683 -1.0464
 5031SOL    HW227153   7.037   5.504   8.253 -0.5006  1.3544  1.0767
 5032SOL     OW27154   9.029   5.140   8.162 -0.0960 -0.3549  0.3995
 5032SOL    HW127155   9.003   5.111   8.069  1.5324  1.5191 -0.6879
 5032SOL    HW227156   9.060   5.061   8.214  2.0177 -1.0022 -1.7321
 5033SOL     OW27157   9.812   5.830   1.434 -0.6203  0.0513  0.4844
 5033SOL    HW127158   9.829   5.784   1.521 -0.0959  1.2700  1.0295
 5033SOL    HW227159   9.895   5.827   1.378 -0.8259 -0.3531  0.1978
 5034SOL     OW27160   9.555   3.191   7.145  0.6787 -0.0430  0.5184
 5034SOL    HW127161   9.532   3.169   7.240 -1.6182 -0.0105  0.0140
 5034SOL    HW227162   9.561   3.290   7.134  0.5542 -0.0307  0.5564
 5035SOL     OW27163   9.657   1.935   6.703 -0.0749  0.0863 -0.4609
 5035SOL    HW127164   9.587   1.947   6.632  0.1621 -0.0927 -0.7287
 5035SOL    HW227165   9.612   1.919   6.791 -0.3737 -0.4025 -0.6972
 5036SOL     OW27166   7.966   5.374   8.151 -0.0321 -0.1401  0.8834
 5036SOL    HW127167   8.008   5.284   8.146 -1.0681 -0.6206  0.7898
 5036SOL    HW227168   7.867   5.365   8.159 -0.0960  0.9740  1.5332
 5037SOL     OW27169   3.135   2.801   9.973 -0.0027 -0.1673  0.1055
 5037SOL    HW127170   3.186   2.716   9.961  1.0563  0.4559  0.0401
 5037SOL    HW227171   3.173   2.852  10.051  0.4954  1.0322 -0.9014
 5038SOL     OW27172   5.778   5.784   9.426 -0.1473 -0.5831  0.9823
 5038SOL    HW127173   5.739   5.695   9.448 -1.0294  0.0039  1.8639
 5038SOL    HW227174   5.704   5.846   9.397  0.0435  0.6884  3.1157
 5039SOL     OW27175   0.913   7.919   9.710 -0.7170  0.2156  1.0606
 5039SOL    HW127176   0.926   7.830   9.667 -0.7010  0.7527 -0.0579
 5039SOL    HW227177   0.832   7.917   9.768 -0.5778 -0.5920  1.2332
 5040SOL     OW27178   1.000   7.205   2.590 -0.4902 -0.2939  0.3258
 5040SOL    HW127179   0.942   7.182   2.511  0.1676  2.1581 -0.8985
 5040SOL    HW227180   1.088   7.158   2.581  0.0726  0.9822 -1.1067
 5041SOL     OW27181   3.828   0.895   7.318 -0.0078 -0.1643 -0.3501
 5041SOL    HW127182   3.864   0.890   7.225 -0.6771  0.9084 -0.6816
 5041SOL    HW227183   3.777   0.812   7.339  0.5524 -0.6200 -0.7550
 5042SOL     OW27184   9.956   4.375   6.582  0.0668 -0.3282  0.5519
 5042SOL    HW127185  10.043   4.366   6.535  0.2554  0.4653  0.7418
 5042SOL    HW227186   9.962   4.332   6.672  1.0741  1.9343  1.6060
 5043SOL     OW27187   9.820   0.190   9.045  0.6064 -0.1408  0.6313
 5043SOL    HW127188   9.877   0.110   9.028 -0.0738 -0.1651 -1.6457
 5043SOL    HW227189   9.847   0.263   8.982 -1.7909 -0.1096 -0.3799
 5044SOL     OW27190   0.911   2.227   5.472 -0.3260 -0.2710 -0.0430
 5044SOL    HW127191   0.984   2.217   5.404 -0.6316  1.8308 -0.7456
 5044SOL    HW227192   0.908   2.322   5.503 -1.8612 -0.6421  1.0181
 5045SOL     OW27193   2.558   7.247   3.015 -0.8316 -0.3180  0.4805
 5045SOL    HW127194   2.650   7.207   3.021 -0.7219 -0.2654 -0.6318
 5045SOL    HW227195   2.564   7.335   2.967 -1.3164  0.1808  1.3394
 5046SOL     OW27196   7.187   1.294   2.345 -0.2177 -0.0597 -0.1968
 5046SOL    HW127197   7.235   1.249   2.421 -0.2967  1.8660  1.0298
 5046SOL    HW227198   7.253   1.320   2.275  0.0601 -0.5413 -0.1164
 5047SOL     OW27199   5.959   5.420   1.738 -0.1919  0.0189 -0.1045
 5047SOL    HW127200   6.012   5.438   1.656  2.7072  1.5030  2.0202
 5047SOL    HW227201   5.950   5.321   1.752  1.6987 -0.2503 -0.7158
 5048SOL     OW27202   8.397   0.238   5.913 -0.1833 -0.1313  0.1724
 5048SOL    HW127203   8.350   0.309   5.860  0.5223  1.3157  1.4218
 5048SOL    HW227204   8.476   0.204   5.861 -0.4022  0.1527 -0.3506
 5049SOL     OW27205   1.501   7.656   3.812 -0.4136  0.3053  0.0618
 5049SOL    HW127206   1.496   7.564   3.776  0.6343  0.7285 -1.1847
 5049SOL    HW227207   1.589   7.670   3.858 -0.2444  0.9239 -0.4400
 5050SOL     OW27208   4.952   6.480   2.123  0.4711  0.3510  0.5113
 5050SOL    HW127209   4.994   6.561   2.163  0.3203  1.6229 -1.7836
 5050SOL    HW227210   4.852   6.487   2.129  0.4718  0.1000  0.7866
 5051SOL     OW27211   2.850   7.681   4.095  0.3076 -0.0326  0.4151
 5051SOL    HW127212   2.812   7.695   4.187  0.6232 -1.6449  0.8187
 5051SOL    HW227213   2.796   7.733   4.029  0.1653  1.2677  1.5255
 5052SOL     OW27214   7.212   1.364   7.609  0.2959  0.3638 -0.1135
 5052SOL    HW127215   7.129   1.374   7.553  0.5529 -0.2943 -0.6205
 5052SOL    HW227216   7.267   1.289   7.574  1.5096  1.3032 -0.2738
 5053SOL     OW27217   9.315   0.921   5.145  0.2675 -0.1589 -0.1951
 5053SOL    HW127218   9.378   0.915   5.067  0.4213 -1.0226 -0.0101
 5053SOL    HW227219   9.327   0.840   5.204 -0.3341  0.1485  0.3534
 5054SOL     OW27220   4.268   8.136   9.745 -0.4355 -0.0782 -0.3695
 5054SOL    HW127221   4.214   8.195   9.684 -0.3583 -0.1042 -0.4646
 5054SOL    HW227222   4.206   8.080   9.800 -0.5063  0.0111 -0.3594
 5055SOL     OW27223   1.302   0.352   8.678 -0.4270 -1.0592 -0.4433
 5055SOL    HW127224   1.321   0.273   8.736 -1.4033 -1.1119 -0.1895
 5055SOL    HW227225   1.326   0.330   8.583 -2.3996 -2.3235 -0.6813
 5056SOL     OW27226   8.681   8.020   5.219 -0.8155 -0.8976  0.8094
 5056SOL    HW127227   8.738   8.101   5.204  0.2888 -1.9675 -0.9438
 5056SOL    HW227228   8.668   7.972   5.132 -1.4096 -2.6338  1.8388
 5057SOL     OW27229   4.981   9.652   3.921 -0.0117  0.9741  0.1561
 5057SOL    HW127230   4.922   9.583   3.878  0.0315  0.7475  0.4550
 5057SOL    HW227231   5.077   9.626   3.909 -0.0157  0.4658  1.0997
 5058SOL     OW27232   0.844   3.514   7.943 -0.3498 -0.0033 -0.6325
 5058SOL    HW127233   0.758   3.464   7.931 -0.4655 -0.2849  1.3167
 5058SOL    HW227234   0.900   3.501   7.861 -1.7363 -0.6263 -1.5198
 5059SOL     OW27235   1.908   2.556   9.745 -0.2320  0.2350 -0.0137
 5059SOL    HW127236   1.819   2.577   9.704 -0.7636 -0.2459  0.8701
 5059SOL    HW227237   1.933   2.462   9.723  0.0938  0.3864 -0.3063
 5060SOL     OW27238   9.660   6.190   6.240  0.5564  0.0304  0.1071
 5060SOL    HW127239   9.721   6.136   6.182 -0.8635 -1.6691  0.1517
 5060SOL    HW227240   9.574   6.207   6.191  0.6703  1.5562  0.4161
 5061SOL     OW27241   5.253   3.827   1.749 -0.6421 -0.7962 -0.0663
 5061SOL    HW127242   5.281   3.851   1.842  0.5629 -1.7351 -0.1769
 5061SOL    HW227243   5.227   3.909   1.700  0.5841 -0.0671  0.4905
 5062SOL     OW27244   2.221   4.869   2.043 -0.4523  0.0424  0.5642
 5062SOL    HW127245   2.184   4.776   2.045 -2.0020  0.6298 -0.3032
 5062SOL    HW227246   2.149   4.934   2.067  0.1233  1.1717 -0.7287
 5063SOL     OW27247   8.394   5.737   4.599  0.4412  0.1412  0.1990
 5063SOL    HW127248   8.354   5.742   4.691 -0.4967  1.1440 -0.2512
 5063SOL    HW227249   8.363   5.653   4.555 -0.4561  0.4619  0.1972
 5064SOL     OW27250   1.948   7.227   8.728  0.0517 -1.2241 -0.2445
 5064SOL    HW127251   1.890   7.166   8.674 -0.3052 -1.3762  0.3081
 5064SOL    HW227252   1.918   7.227   8.823  0.0468 -0.1791 -0.2378
 5065SOL     OW27253   0.222   2.427   9.779 -0.0233  0.3885 -0.2215
 5065SOL    HW127254   0.178   2.390   9.862 -0.2119  1.4580  0.1647
 5065SOL    HW227255   0.270   2.511   9.802  2.6411 -0.9879 -0.5386
 5066SOL     OW27256   2.512   5.596   4.653 -0.2947  0.0690  0.4166
 5066SOL    HW127257   2.538   5.543   4.573  0.9378  0.6158  0.4438
 5066SOL    HW227258   2.509   5.537   4.733 -1.7857 -0.5342 -0.0628
 5067SOL     OW27259   0.434   2.797   7.746 -0.1468  0.2696 -0.8885
 5067SOL    HW127260   0.525   2.811   7.706  0.5282 -1.0821  0.1513
 5067SOL    HW227261   0.419   2.865   7.818  1.5696 -1.8185  1.4998
 5068SOL     OW27262   9.537   9.716   8.199 -0.6001 -0.1933  0.5065
 5068SOL    HW127263   9.618   9.744   8.147  0.7399 -0.9026  2.1600
 5068SOL    HW227264   9.494   9.798   8.239  1.1669 -0.0683  2.2515
 5069SOL     OW27265   8.841   0.052   8.658 -0.0027 -0.1752  0.3785
 5069SOL    HW127266   8.835   0.036   8.757  1.1928 -0.5252  0.3998
 5069SOL    HW227267   8.925   0.102   8.638 -1.1569  1.5534 -0.2697
 5070SOL     OW27268   4.512   4.832   2.802  0.6493  0.5886 -0.6503
 5070SOL    HW127269   4.606   4.834   2.835  0.3488 -1.3912  0.4535
 5070SOL    HW227270   4.509   4.855   2.705  2.3661 -0.0056 -0.8497
 5071SOL     OW27271   9.817   6.026   3.396 -0.2958 -0.1120  0.0482
 5071SOL    HW127272   9.899   6.063   3.440  1.3565 -1.7940 -1.5494
 5071SOL    HW227273   9.779   5.953   3.453  0.4636 -0.6667 -0.1474
 5072SOL     OW27274   5.406   7.718   4.555 -0.8389  0.4520 -0.1141
 5072SOL    HW127275   5.442   7.713   4.461 -0.6716 -0.2845 -0.0175
 5072SOL    HW227276   5.410   7.627   4.596  1.9177  1.3149  1.6584
 5073SOL     OW27277   0.664   0.695   5.638 -0.4626 -0.1847 -0.0760
 5073SOL    HW127278   0.656   0.604   5.679 -0.1495  0.2395  0.9599
 5073SOL    HW227279   0.757   0.730   5.651 -0.7062  0.4735 -0.0449
 5074SOL     OW27280   2.637   0.769   4.337 -0.3450  0.0111 -0.4184
 5074SOL    HW127281   2.620   0.766   4.436  0.1315  0.8189 -0.3100
 5074SOL    HW227282   2.703   0.699   4.312 -1.4368 -1.0574 -0.3633
 5075SOL     OW27283   1.506   3.144   4.034 -0.6271 -0.6638  0.3284
 5075SOL    HW127284   1.603   3.159   4.017 -0.8591 -0.2611 -0.7185
 5075SOL    HW227285   1.479   3.055   3.999 -1.1544  0.2576 -1.6780
 5076SOL     OW27286   8.774   4.522   2.996  0.1715  0.3528 -0.6573
 5076SOL    HW127287   8.804   4.437   3.038  0.3308  0.9780  0.5150
 5076SOL    HW227288   8.675   4.521   2.983 -0.1661  1.0439  1.7783
 5077SOL     OW27289   4.322   0.721   6.146 -0.0906 -0.0162  0.4639
 5077SOL    HW127290   4.341   0.626   6.170  1.8901  0.4362  0.7227
 5077SOL    HW227291   4.407   0.774   6.146 -1.0180  1.5226 -0.7547
 5078SOL     OW27292   4.041   4.372   4.923  0.2505 -0.1255 -0.3998
 5078SOL    HW127293   4.049   4.320   5.007 -1.1407 -1.6054 -1.1478
 5078SOL    HW227294   3.971   4.330   4.864  1.4112  0.6891 -2.4115
 5079SOL     OW27295   4.360   3.737   4.859 -0.2072 -0.0115 -0.7709
 5079SOL    HW127296   4.318   3.783   4.780 -0.7150  0.9043  0.0176
 5079SOL    HW227297   4.446   3.782   4.881 -0.9977  0.9956  0.3816
 5080SOL     OW27298   5.553   5.504   1.000  0.1250 -0.5178 -0.3441
 5080SOL    HW127299   5.552   5.410   1.034 -3.7199 -0.3964  0.0066
 5080SOL    HW227300   5.533   5.505   0.902  0.6024 -0.0812 -0.4392
 5081SOL     OW27301   5.594   4.548   7.674  0.2603  0.3030  0.1843
 5081SOL    HW127302   5.514   4.501   7.711  0.6206  0.1266  0.7536
 5081SOL    HW227303   5.575   4.577   7.581 -0.9398  1.4307  0.7671
 5082SOL     OW27304   2.809   8.672  10.059 -0.3356  0.3493 -0.3627
 5082SOL    HW127305   2.719   8.657  10.099  0.2200 -0.2830  0.6641
 5082SOL    HW227306   2.826   8.770  10.050 -1.0768  0.4719 -0.4560
 5083SOL     OW27307   7.075   6.989   3.067  0.7436  0.0517 -0.3344
 5083SOL    HW127308   7.159   6.942   3.095  0.0823 -1.3114 -0.5888
 5083SOL    HW227309   7.068   7.077   3.114  1.9026 -0.1943  0.3126
 5084SOL     OW27310   2.539   4.317   9.519  0.3053  0.1176 -0.4030
 5084SOL    HW127311   2.505   4.408   9.544 -0.5685 -0.4389  0.4744
 5084SOL    HW227312   2.611   4.290   9.583  1.2508  0.5884 -1.2484
 5085SOL     OW27313   2.293   0.167   1.919  0.1996  0.3585 -0.0133
 5085SOL    HW127314   2.201   0.205   1.922 -0.8315 -1.8321 -2.2310
 5085SOL    HW227315   2.320   0.150   1.824  1.7878 -1.5549  0.7324
 5086SOL     OW27316   7.791   0.255   3.648  0.4383 -0.1665  0.7492
 5086SOL    HW127317   7.797   0.339   3.595 -1.1862  1.0136  2.4199
 5086SOL    HW227318   7.695   0.227   3.657  0.8002 -1.1045  1.8917
 5087SOL     OW27319   3.196   0.092   9.665  0.2077  0.3855  0.5314
 5087SOL    HW127320   3.213   0.073   9.568 -0.4881 -0.5634  0.5885
 5087SOL    HW227321   3.099   0.112   9.678  0.3832  0.9574  0.9648
 5088SOL     OW27322   9.278   1.090   4.246  0.2393 -0.1478  0.1882
 5088SOL    HW127323   9.211   1.131   4.184  1.1630  0.1905 -0.6032
 5088SOL    HW227324   9.299   0.997   4.214  2.0915  0.6973 -1.0767
 5089SOL     OW27325   5.396   8.494   7.402 -0.2710 -1.0223  0.2492
 5089SOL    HW127326   5.325   8.431   7.432 -0.4462 -0.7064  0.5118
 5089SOL    HW227327   5.357   8.565   7.344 -0.3261 -0.3805  1.0515
 5090SOL     OW27328   4.962   0.657   7.753  0.2833 -0.1379  0.3207
 5090SOL    HW127329   5.026   0.590   7.716 -0.7393  0.0970 -1.9183
 5090SOL    HW227330   4.870   0.639   7.717 -0.5570  0.6844  2.0161
 5091SOL     OW27331   5.956   8.655   2.373 -0.0611 -0.0759  0.4744
 5091SOL    HW127332   5.999   8.604   2.299  1.5903  0.2146  1.1998
 5091SOL    HW227333   5.903   8.593   2.431 -1.0005 -0.3703 -0.6767
 5092SOL     OW27334   1.301   0.366   2.975  0.1269  0.4405 -0.3109
 5092SOL    HW127335   1.248   0.437   2.930  0.7857  1.9626  1.2900
 5092SOL    HW227336   1.399   0.388   2.968  0.3315 -0.2757  0.2509
 5093SOL     OW27337   9.125   9.457   9.962  0.7526 -0.2078  0.4116
 5093SOL    HW127338   9.200   9.418  10.016 -0.1754 -0.5093  1.4886
 5093SOL    HW227339   9.043   9.402   9.975  0.2447  0.3416 -0.4841
 5094SOL     OW27340   1.457   1.668   7.100  0.0019 -0.7785  0.2736
 5094SOL    HW127341   1.554   1.648   7.089  0.0476  0.2863 -1.4851
 5094SOL    HW227342   1.445   1.766   7.119 -0.7986 -0.6679 -0.7676
 5095SOL     OW27343   0.605   2.893   7.298  0.4057  0.1051  0.1711
 5095SOL    HW127344   0.534   2.960   7.320  0.2202 -0.1198  0.2548
 5095SOL    HW227345   0.694   2.939   7.296  0.1837  0.5087 -0.5628
 5096SOL     OW27346   1.789   1.735   7.431 -0.0937  1.3621  0.1220
 5096SOL    HW127347   1.847   1.740   7.350 -0.2432  1.4416  0.0201
 5096SOL    HW227348   1.816   1.656   7.486 -2.4466 -0.9583 -1.9155
 5097SOL     OW27349   3.670   5.723   4.498  0.3383  0.2482  0.3675
 5097SOL    HW127350   3.700   5.803   4.447  0.9910 -0.7734 -0.8894
 5097SOL    HW227351   3.703   5.729   4.593  1.3794  0.8831 -0.0335
 5098SOL     OW27352   6.976   3.115   7.927 -0.2128  0.3418  0.2531
 5098SOL    HW127353   7.048   3.184   7.926 -0.3566  0.5177  1.2163
 5098SOL    HW227354   6.965   3.075   7.836 -1.4590  2.9888 -0.8004
 5099SOL     OW27355   3.089   3.588   8.705 -0.1976  0.2454  0.7192
 5099SOL    HW127356   3.106   3.620   8.611 -1.0321 -1.5662 -0.0771
 5099SOL    HW227357   3.174   3.557   8.745  0.3742  2.0917  0.9986
 5100SOL     OW27358   0.908   1.765   8.432 -0.0579 -0.2089 -0.3078
 5100SOL    HW127359   0.912   1.763   8.332 -0.6359 -2.3041 -0.3249
 5100SOL    HW227360   0.812   1.772   8.461  0.0599 -0.2792  0.0996
 5101SOL     OW27361   4.160   2.158   5.284  0.8887  0.1377  0.0467
 5101SOL    HW127362   4.178   2.061   5.295 -0.2560 -0.0691  0.2339
 5101SOL    HW227363   4.103   2.190   5.360  0.5369  0.7534 -0.4718
 5102SOL     OW27364   8.518   0.921   6.926  0.4677  0.2353  0.1331
 5102SOL    HW127365   8.489   0.855   6.857  0.5324  1.1038 -0.7263
 5102SOL    HW227366   8.541   1.008   6.883  0.4690  0.8056  1.2470
 5103SOL     OW27367   8.608   9.395   3.200 -0.0526 -0.0259  0.1003
 5103SOL    HW127368   8.618   9.495   3.204  0.0516 -0.0681  1.1371
 5103SOL    HW227369   8.511   9.371   3.199 -0.1174  0.0413  1.9246
 5104SOL     OW27370   8.365   5.818   9.252 -0.2144 -0.0590 -0.7280
 5104SOL    HW127371   8.271   5.849   9.240 -1.0976 -1.1731  2.5897
 5104SOL    HW227372   8.365   5.720   9.271  1.5583  0.0176 -0.2230
 5105SOL     OW27373   3.256   7.122   0.804  0.3795  0.3975  0.2397
 5105SOL    HW127374   3.243   7.203   0.747  0.4305 -0.1237 -0.5312
 5105SOL    HW227375   3.276   7.149   0.898  0.0142  1.2683  0.0665
 5106SOL     OW27376   2.144   5.042   6.222 -0.2247 -0.0720  0.5253
 5106SOL    HW127377   2.095   5.127   6.203 -0.6832 -0.9338 -2.4680
 5106SOL    HW227378   2.078   4.968   6.234  0.2357 -0.9985 -2.2622
 5107SOL     OW27379   3.301   1.993   7.463  0.0847  0.4518  0.2738
 5107SOL    HW127380   3.237   1.942   7.406  1.1017 -0.6405  0.0931
 5107SOL    HW227381   3.384   2.015   7.410  1.1113 -0.7237  1.3558
 5108SOL     OW27382   5.121   8.550   3.203  0.4702  0.0523 -0.9679
 5108SOL    HW127383   5.129   8.643   3.167  0.7892 -0.4538 -2.2509
 5108SOL    HW227384   5.180   8.489   3.150 -0.7008 -1.1039 -0.9714
 5109SOL     OW27385   5.397   1.234   7.124  0.7515 -0.0076  0.2676
 5109SOL    HW127386   5.494   1.209   7.130  0.3778 -1.7768 -1.0003
 5109SOL    HW227387   5.381   1.283   7.038  0.2894 -0.7013 -0.0359
 5110SOL     OW27388   3.247   8.556   6.288 -0.7510 -0.2263 -0.4001
 5110SOL    HW127389   3.166   8.519   6.332 -1.1512 -0.8578 -1.6364
 5110SOL    HW227390   3.263   8.508   6.201  1.3469 -0.6090  0.1596
 5111SOL     OW27391   8.817   4.665   6.469  0.0024  0.3226 -0.1750
 5111SOL    HW127392   8.771   4.735   6.523 -1.0188 -0.0208 -0.5759
 5111SOL    HW227393   8.915   4.666   6.489 -0.5224 -0.7252  2.7074
 5112SOL     OW27394   8.751   6.548   1.107 -0.1345  0.2676 -0.3179
 5112SOL    HW127395   8.791   6.460   1.130 -1.5627  0.2349  2.1640
 5112SOL    HW227396   8.798   6.621   1.156 -1.3936  0.4930  0.5685
 5113SOL     OW27397   7.035   5.702   2.461  0.3309  0.5586 -0.1329
 5113SOL    HW127398   6.958   5.743   2.413 -0.7496 -1.7956 -0.4747
 5113SOL    HW227399   7.107   5.770   2.473 -0.6131  1.9951 -2.3674
 5114SOL     OW27400   9.190   9.742   7.946  0.8351 -0.0635 -0.0886
 5114SOL    HW127401   9.239   9.686   8.013  1.1747  0.7636  0.3585
 5114SOL    HW227402   9.192   9.838   7.974  0.4095  0.2058 -0.9444
 5115SOL     OW27403   5.001   3.594   4.916 -0.1283  0.2993  0.4234
 5115SOL    HW127404   4.947   3.672   4.949 -0.0794  0.4178  0.2232
 5115SOL    HW227405   4.969   3.568   4.825 -0.7611 -0.5024  0.8751
 5116SOL     OW27406   0.917   5.229   6.068  1.1256  0.7491 -0.4273
 5116SOL    HW127407   0.931   5.291   5.991  0.9938 -0.5163 -1.4790
 5116SOL    HW227408   0.819   5.221   6.087  1.0991  0.3415 -0.7284
 5117SOL     OW27409   6.758   9.872   4.685 -0.1976  0.3505 -0.0119
 5117SOL    HW127410   6.696   9.950   4.686  0.0732  0.5688 -0.2137
 5117SOL    HW227411   6.845   9.898   4.728 -0.6208 -0.2652  1.2369
 5118SOL     OW27412   4.402   5.041   1.796 -0.6496  0.0189 -0.1397
 5118SOL    HW127413   4.355   4.957   1.823 -0.3600 -0.0565  0.1300
 5118SOL    HW227414   4.417   5.040   1.697 -2.0477  0.4688 -0.3784
 5119SOL     OW27415   0.553   7.858   0.708  0.0670 -0.0391 -0.1449
 5119SOL    HW127416   0.505   7.935   0.751  0.1263 -0.7735  1.2573
 5119SOL    HW227417   0.517   7.772   0.744  1.4157 -0.6329 -0.1881
 5120SOL     OW27418   0.574   9.199   1.789  0.2372 -0.8873  0.6094
 5120SOL    HW127419   0.582   9.104   1.818  0.1429 -0.6449  1.4205
 5120SOL    HW227420   0.533   9.202   1.697  1.3674 -1.6756  0.0657
 5121SOL     OW27421   4.072   6.907   1.073  0.5401 -0.4941 -0.5707
 5121SOL    HW127422   4.171   6.918   1.061  0.8109 -0.0560  1.6782
 5121SOL    HW227423   4.026   6.993   1.052  0.6700 -0.6357 -1.4219
 5122SOL     OW27424   3.282   3.734   3.142 -0.1221  0.1649 -0.5284
 5122SOL    HW127425   3.295   3.817   3.196 -2.6421  0.9286 -0.9979
 5122SOL    HW227426   3.277   3.655   3.202  0.8902  0.5212  0.0361
 5123SOL     OW27427   7.400   3.633   2.183  0.3650 -0.4504 -0.2001
 5123SOL    HW127428   7.481   3.677   2.221 -0.4856  0.3878  0.6635
 5123SOL    HW227429   7.416   3.612   2.086  2.6670 -2.9082  0.6509
 5124SOL     OW27430   8.514   0.681   4.711 -0.1944  0.2967  0.1583
 5124SOL    HW127431   8.537   0.674   4.614 -2.5453  0.7093 -0.4636
 5124SOL    HW227432   8.453   0.758   4.725 -0.4769 -0.2111  1.8711
 5125SOL     OW27433   9.310   9.980   6.137  0.0529 -0.3452 -0.1198
 5125SOL    HW127434   9.310   9.884   6.166  1.3454 -0.1308  0.6171
 5125SOL    HW227435   9.366  10.034   6.200 -1.4129  1.0663  0.0066
 5126SOL     OW27436   3.887   2.546   9.068  0.2926  0.3921  0.3688
 5126SOL    HW127437   3.938   2.469   9.106 -0.4856 -1.1304 -1.5750
 5126SOL    HW227438   3.951   2.615   9.036  1.2209 -1.3788 -1.7979
 5127SOL     OW27439   0.269   9.787   2.766  0.1907  0.3751  0.3174
 5127SOL    HW127440   0.362   9.789   2.802  0.1476 -1.9861  0.5849
 5127SOL    HW227441   0.210   9.847   2.821  1.0589  0.1183  1.5409
 5128SOL     OW27442   1.141   8.075   9.180  0.4197 -0.0551  0.4200
 5128SOL    HW127443   1.156   7.978   9.163 -0.2026 -0.2779  1.1283
 5128SOL    HW227444   1.184   8.101   9.266 -0.2788  0.0716  0.7356
 5129SOL     OW27445   6.551   9.836   8.160 -0.1485  0.2372 -0.2933
 5129SOL    HW127446   6.531   9.846   8.257  0.9467  2.4358 -0.2547
 5129SOL    HW227447   6.519   9.917   8.110 -0.1100 -0.5658 -1.6635
 5130SOL     OW27448   9.388   5.313   0.984 -0.1117  0.1294  0.0890
 5130SOL    HW127449   9.388   5.223   0.940  1.5864  0.1545 -0.0050
 5130SOL    HW227450   9.442   5.309   1.068  3.0007  1.8556 -1.7057
 5131SOL     OW27451   2.330   9.949   4.603  0.6092 -0.5512 -0.0212
 5131SOL    HW127452   2.384   9.864   4.605  1.3094 -0.1203 -0.4810
 5131SOL    HW227453   2.332   9.992   4.694  1.3796 -0.3286 -0.1414
 5132SOL     OW27454   1.986   8.388   7.793  0.7560 -0.2211 -0.5491
 5132SOL    HW127455   2.006   8.291   7.782 -3.7778 -1.2088 -1.2139
 5132SOL    HW227456   1.963   8.428   7.704 -3.6142 -0.1801  0.4827
 5133SOL     OW27457   5.545   0.270   6.304 -0.1684  0.4651  0.1690
 5133SOL    HW127458   5.505   0.268   6.213  0.0514 -1.5530  0.1085
 5133SOL    HW227459   5.489   0.214   6.366 -0.0634  1.4608  1.1736
 5134SOL     OW27460   2.856   7.008   1.327 -0.2692 -0.3720  0.1833
 5134SOL    HW127461   2.853   7.053   1.416 -0.3328  0.5056 -0.2581
 5134SOL    HW227462   2.947   7.021   1.286 -0.5410  0.0354 -0.2932
 5135SOL     OW27463   4.465   9.976   7.219 -0.3967  0.0927 -0.1518
 5135SOL    HW127464   4.497   9.943   7.130  0.6689  1.7711 -0.4172
 5135SOL    HW227465   4.411   9.905   7.264  0.9002 -1.5765 -1.1865
 5136SOL     OW27466   2.243   2.095   3.004  0.4346 -0.4958  0.5126
 5136SOL    HW127467   2.281   2.002   3.007  1.2204 -0.1415  2.0401
 5136SOL    HW227468   2.271   2.145   3.086 -0.7255  0.8109  0.1249
 5137SOL     OW27469   4.705   6.382   0.985  0.0776  0.2416  0.5813
 5137SOL    HW127470   4.722   6.288   1.014  2.7181  0.8670  1.1502
 5137SOL    HW227471   4.723   6.444   1.061  0.9774  1.4187 -0.5785
 5138SOL     OW27472   4.526   8.486   1.474 -0.4343 -0.5204 -0.1803
 5138SOL    HW127473   4.431   8.460   1.494 -0.7215  0.2210 -0.5568
 5138SOL    HW227474   4.527   8.553   1.400  0.2417  0.9592  1.1468
 5139SOL     OW27475   1.666   5.616   0.011  0.7123  0.3954  0.2823
 5139SOL    HW127476   1.731   5.625   0.086  2.1865 -1.7745 -0.6991
 5139SOL    HW227477   1.592   5.554   0.038  0.4684  0.7335  0.4118
 5140SOL     OW27478   9.165   3.936   5.095  0.6648  0.0006  0.2689
 5140SOL    HW127479   9.114   3.957   5.012 -0.5704 -2.4658  0.3827
 5140SOL    HW227480   9.159   4.014   5.158 -4.0960 -0.6440  0.7984
 5141SOL     OW27481   9.714   9.052   6.469 -0.4242  0.8779 -0.5682
 5141SOL    HW127482   9.700   9.146   6.438 -1.2694  0.6639 -0.8575
 5141SOL    HW227483   9.651   8.992   6.420  2.0510 -0.2505 -2.4312
 5142SOL     OW27484   6.174   4.196   8.208 -0.1247 -0.6899 -0.2930
 5142SOL    HW127485   6.115   4.269   8.242  0.4522  0.1173 -0.9999
 5142SOL    HW227486   6.118   4.121   8.173 -0.7193 -0.4705  0.1825
 5143SOL     OW27487   8.760   1.925   2.939 -0.1300 -0.2681 -0.0535
 5143SOL    HW127488   8.823   1.867   2.991 -1.0325 -1.7901 -0.6241
 5143SOL    HW227489   8.812   1.979   2.872  0.8897  0.7761  1.5522
 5144SOL     OW27490   7.453   1.204   5.481  0.2624  0.4296  0.2088
 5144SOL    HW127491   7.368   1.256   5.477 -0.7073 -1.1769 -0.6246
 5144SOL    HW227492   7.517   1.249   5.544 -1.3747  1.3879  1.2219
 5145SOL     OW27493   3.284   2.388   3.357 -0.4023  0.1669 -0.0650
 5145SOL    HW127494   3.263   2.372   3.454 -0.8275 -1.3794 -0.3977
 5145SOL    HW227495   3.372   2.435   3.350  0.1275 -0.6104  1.0523
 5146SOL     OW27496   4.084   2.985   0.630  0.2821  0.8800 -0.4398
 5146SOL    HW127497   4.099   2.917   0.558  0.0464  0.8510 -0.4623
 5146SOL    HW227498   4.172   3.025   0.657  0.3885  0.7734 -0.6271
 5147SOL     OW27499   3.360   6.514   5.449 -0.3931  0.0462 -0.2143
 5147SOL    HW127500   3.401   6.599   5.416 -1.0610  0.0573 -1.0318
 5147SOL    HW227501   3.429   6.460   5.497  0.4228  0.3322 -1.0614
 5148SOL     OW27502   2.298   1.676   1.028 -0.6095  0.0111 -0.1955
 5148SOL    HW127503   2.317   1.727   0.944  1.3314 -1.6632 -0.8060
 5148SOL    HW227504   2.378   1.676   1.086 -1.8242  0.8332  1.5153
 5149SOL     OW27505   8.097   4.460   9.330 -0.2977  0.0458 -0.0295
 5149SOL    HW127506   8.188   4.434   9.362 -0.6472 -0.7494  0.3431
 5149SOL    HW227507   8.071   4.548   9.370  0.0865  0.0069  0.3052
 5150SOL     OW27508   1.364   5.341   1.232  0.1984 -0.5191  0.1070
 5150SOL    HW127509   1.287   5.386   1.187  0.2433 -1.6095 -1.0808
 5150SOL    HW227510   1.397   5.398   1.307 -1.9206 -0.1503  0.7852
 5151SOL     OW27511   2.962   8.891   5.596 -0.2855  0.6086  0.7425
 5151SOL    HW127512   2.983   8.893   5.693 -1.2711  0.5923  0.9634
 5151SOL    HW227513   3.047   8.889   5.543  0.2378 -0.4504  1.6180
 5152SOL     OW27514   6.180   3.397   9.282 -0.6417 -0.5629  0.9351
 5152SOL    HW127515   6.154   3.341   9.203  0.6957  0.4326 -0.2348
 5152SOL    HW227516   6.260   3.357   9.327  0.0232  0.1295  0.3815
 5153SOL     OW27517   1.904   0.272   4.263 -0.1208 -0.0315 -0.1524
 5153SOL    HW127518   1.965   0.197   4.236  0.5443  0.4388  0.0268
 5153SOL    HW227519   1.934   0.308   4.352 -0.5302  0.3521 -0.1683
 5154SOL     OW27520   4.229   5.508   0.076 -0.8636  0.0195  0.1778
 5154SOL    HW127521   4.154   5.515   0.142 -1.1415 -2.8741  0.2345
 5154SOL    HW227522   4.313   5.482   0.124 -0.2575  1.2599 -0.1752
 5155SOL     OW27523   7.762   8.528   5.713  0.5200 -0.4164  0.3651
 5155SOL    HW127524   7.730   8.622   5.727  2.8100  0.3147  0.8498
 5155SOL    HW227525   7.834   8.527   5.644 -0.6696 -2.0786 -0.8961
 5156SOL     OW27526   1.594   9.527   6.676 -0.4685  0.3779 -0.2729
 5156SOL    HW127527   1.660   9.460   6.710 -0.0298  1.8497  1.7848
 5156SOL    HW227528   1.503   9.485   6.674 -0.4038  0.0551  2.1299
 5157SOL     OW27529   5.602   8.766   2.166  0.5584 -0.8719 -0.2851
 5157SOL    HW127530   5.540   8.756   2.244 -0.4883  0.8058 -0.8609
 5157SOL    HW227531   5.556   8.734   2.083  0.3188  0.6812 -0.7689
 5158SOL     OW27532   3.086   5.779   2.374 -0.3602 -0.0751 -0.8106
 5158SOL    HW127533   3.073   5.680   2.366  1.0449 -0.4119  0.8398
 5158SOL    HW227534   3.182   5.801   2.355 -0.3608  0.8064  0.1938
 5159SOL     OW27535   0.805   0.648   4.276 -0.7747 -0.0205 -0.1684
 5159SOL    HW127536   0.822   0.694   4.189 -0.5773  0.1297 -0.0485
 5159SOL    HW227537   0.786   0.716   4.347  0.0111 -0.0977  0.1205
 5160SOL     OW27538   7.533   9.526   6.210  0.2023  0.0101 -0.4695
 5160SOL    HW127539   7.462   9.537   6.141  1.4883  0.3735 -1.7482
 5160SOL    HW227540   7.558   9.429   6.219  1.5945  0.1917 -2.1255
 5161SOL     OW27541   3.451   8.586   7.993  0.1835  0.0609 -0.4069
 5161SOL    HW127542   3.417   8.588   7.899  0.2207  0.9305 -0.4088
 5161SOL    HW227543   3.373   8.582   8.056  0.1900 -2.9277 -0.5011
 5162SOL     OW27544   9.682   7.522   5.899  0.7194 -0.7931  0.0439
 5162SOL    HW127545   9.675   7.520   5.999  0.4256  0.3055  0.0548
 5162SOL    HW227546   9.778   7.531   5.872  0.7531 -0.5526  0.2416
 5163SOL     OW27547   0.511   2.443   3.749  0.5062 -0.6876 -0.0706
 5163SOL    HW127548   0.532   2.351   3.782  0.6342 -0.7427 -0.3012
 5163SOL    HW227549   0.427   2.439   3.695 -0.5382 -0.3284  1.5002
 5164SOL     OW27550   3.976   2.511   3.484  0.7131 -0.0117 -0.4417
 5164SOL    HW127551   3.979   2.451   3.564 -1.0779  0.8481  0.3096
 5164SOL    HW227552   4.016   2.600   3.509  1.4738 -0.2029 -0.9485
 5165SOL     OW27553   2.808   5.465   6.093 -0.0824 -0.0050 -0.0966
 5165SOL    HW127554   2.749   5.546   6.086 -0.8171 -0.5706 -0.5269
 5165SOL    HW227555   2.767   5.400   6.156  0.5633  0.0018  0.3270
 5166SOL     OW27556   5.318   1.389   5.281  0.1598  0.0212  0.3025
 5166SOL    HW127557   5.364   1.438   5.355  0.5341 -1.3564  0.9949
 5166SOL    HW227558   5.381   1.325   5.238 -0.2931  0.2170 -0.6618
 5167SOL     OW27559   0.959   6.090   4.974 -0.1775 -0.6621 -0.1822
 5167SOL    HW127560   0.990   5.996   4.970  1.9453  0.0459 -1.2317
 5167SOL    HW227561   0.968   6.132   4.884  1.3314  1.2651  0.8244
 5168SOL     OW27562   4.078   4.347   7.687 -0.4303 -0.3668 -0.2477
 5168SOL    HW127563   4.123   4.365   7.775  0.0356 -1.7948 -0.1743
 5168SOL    HW227564   4.147   4.324   7.618 -0.6834  2.0426 -1.3456
 5169SOL     OW27565   7.323   2.940   3.669 -0.2097 -0.1751  0.0380
 5169SOL    HW127566   7.401   2.975   3.720 -1.0723  0.2441  1.0817
 5169SOL    HW227567   7.266   3.016   3.637 -1.1828 -0.5459  0.8729
 5170SOL     OW27568   1.505   8.738   7.906 -0.9531  0.0728 -0.3590
 5170SOL    HW127569   1.583   8.741   7.844  0.1145  0.0684  0.9768
 5170SOL    HW227570   1.455   8.825   7.900  0.5862  1.0433  0.6042
 5171SOL     OW27571   4.243   3.798   6.069  0.0260  0.0879 -0.0477
 5171SOL    HW127572   4.330   3.847   6.077  0.6964 -0.9333 -0.9321
 5171SOL    HW227573   4.247   3.713   6.121 -0.0563 -0.4835 -0.9595
 5172SOL     OW27574   6.499   0.794   7.397 -0.5931  0.1421  0.0106
 5172SOL    HW127575   6.581   0.742   7.373  0.5084  2.1678 -0.7511
 5172SOL    HW227576   6.421   0.759   7.347  0.3798  0.0380 -1.4551
 5173SOL     OW27577   1.442   7.897   7.723  0.4088 -0.5091  0.1630
 5173SOL    HW127578   1.496   7.813   7.716  1.5585  0.1452  1.0541
 5173SOL    HW227579   1.503   7.974   7.740 -0.7435  0.3477  0.4149
 5174SOL     OW27580   3.369   1.022   9.578  0.4750 -0.0599  0.4959
 5174SOL    HW127581   3.356   0.965   9.497 -0.1349  0.1761  0.4274
 5174SOL    HW227582   3.349   1.117   9.555  1.3923  0.1708  0.6315
 5175SOL     OW27583   1.971   8.022   9.302  0.5050  0.1766 -0.4040
 5175SOL    HW127584   2.042   7.951   9.311  1.4380  0.6963 -3.1898
 5175SOL    HW227585   1.881   7.978   9.304  0.9573 -0.7515  0.7499
 5176SOL     OW27586   2.174   5.825   3.365  0.2589 -0.7567  0.2976
 5176SOL    HW127587   2.111   5.888   3.409  0.0862 -1.2551  0.7682
 5176SOL    HW227588   2.127   5.777   3.291  0.5375  0.0495 -0.4092
 5177SOL     OW27589   0.285   6.356   6.706 -0.5798  0.1764 -0.0468
 5177SOL    HW127590   0.316   6.268   6.669  2.1768  1.5416 -1.1056
 5177SOL    HW227591   0.347   6.429   6.676 -0.7767  1.9975  3.7088
 5178SOL     OW27592   3.721   2.317   6.484 -0.1709 -0.4597 -0.1453
 5178SOL    HW127593   3.703   2.221   6.465  1.3764 -0.8493  0.2748
 5178SOL    HW227594   3.813   2.327   6.521 -0.4573  1.1419  0.1857
 5179SOL     OW27595   1.335   3.291   5.984 -0.2230  0.2888  0.3523
 5179SOL    HW127596   1.308   3.316   6.077  0.0026  1.3809  0.1379
 5179SOL    HW227597   1.387   3.205   5.985 -0.3483  0.2257  1.2141
 5180SOL     OW27598   5.246   3.060   7.371  0.3778 -0.5634  0.0328
 5180SOL    HW127599   5.228   3.005   7.290 -0.7330 -0.5631  0.2669
 5180SOL    HW227600   5.311   3.013   7.431 -0.7317 -1.7334  0.3372
 5181SOL     OW27601   2.336   9.583   0.715 -0.5318  0.2977  0.3493
 5181SOL    HW127602   2.298   9.500   0.756  1.8193 -1.4987 -0.9580
 5181SOL    HW227603   2.310   9.587   0.618  2.0530 -0.6843 -0.4285
 5182SOL     OW27604   2.187   1.426   8.935  0.3822  0.0594 -0.2156
 5182SOL    HW127605   2.196   1.521   8.904  0.7109 -0.2742 -1.1602
 5182SOL    HW227606   2.095   1.394   8.917  0.7340 -0.3170 -1.3978
 5183SOL     OW27607   2.174   6.250   7.815 -0.3718  0.0079 -0.3196
 5183SOL    HW127608   2.186   6.339   7.860 -0.9156 -0.4123  0.6869
 5183SOL    HW227609   2.210   6.254   7.722  1.5701  0.6652  0.4358
 5184SOL     OW27610   6.812   7.960   4.225 -0.1799  0.2163  0.4290
 5184SOL    HW127611   6.896   7.914   4.196  0.7937  1.6513  0.9229
 5184SOL    HW227612   6.813   7.970   4.325 -0.6440  0.8043  0.3707
 5185SOL     OW27613   2.270   7.823   1.798 -0.1278 -0.2951  0.3801
 5185SOL    HW127614   2.262   7.797   1.701 -1.2625 -2.1756  0.9399
 5185SOL    HW227615   2.365   7.814   1.827  0.3062  0.7195 -0.6636
 5186SOL     OW27616   9.098   7.719   9.155  0.2204 -0.4888  0.0938
 5186SOL    HW127617   9.160   7.643   9.174  0.5249 -0.0452  0.8966
 5186SOL    HW227618   9.004   7.692   9.174  0.1383 -1.2093 -1.2541
 5187SOL     OW27619   3.235   9.156   7.627 -0.5638 -0.4807 -0.6926
 5187SOL    HW127620   3.291   9.116   7.554 -0.3008  0.2400 -0.8923
 5187SOL    HW227621   3.209   9.249   7.601 -0.9515 -0.4310 -0.1192
 5188SOL     OW27622   9.418   9.383   9.992  0.0493 -0.4025 -0.6077
 5188SOL    HW127623   9.343   9.319   9.975  0.1371 -1.0509  1.3175
 5188SOL    HW227624   9.424   9.401  10.090  2.1487 -0.0378 -0.7931
 5189SOL     OW27625   4.073   5.780   0.363 -0.0676 -0.2906  0.0274
 5189SOL    HW127626   4.170   5.761   0.376  0.6152  0.5492 -3.4447
 5189SOL    HW227627   4.024   5.693   0.351  0.5418 -0.6101 -0.1790
 5190SOL     OW27628   8.978   6.709   9.697 -0.5463 -0.5055  0.2059
 5190SOL    HW127629   9.022   6.781   9.643 -0.7477  0.2821  1.0726
 5190SOL    HW227630   8.905   6.667   9.644 -0.1274 -0.3744 -0.4718
 5191SOL     OW27631   8.452   8.819   2.626  0.1582  0.3112  0.5134
 5191SOL    HW127632   8.449   8.872   2.711 -1.4231 -1.5455  1.6564
 5191SOL    HW227633   8.360   8.787   2.603  0.7755 -0.2891 -1.2136
 5192SOL     OW27634   0.905   6.760   7.446  0.2071  0.4240 -0.1210
 5192SOL    HW127635   0.894   6.698   7.368  0.4330  0.7320 -0.3978
 5192SOL    HW227636   0.984   6.731   7.501 -0.4423 -0.2794  0.4540
 5193SOL     OW27637   2.179   3.195   8.929  0.1425 -0.0821  0.1960
 5193SOL    HW127638   2.139   3.283   8.904 -0.0535  0.0406  0.9351
 5193SOL    HW227639   2.115   3.121   8.905  0.0585  0.0155  0.1211
 5194SOL     OW27640   8.747   8.223   7.515 -0.1541 -0.2425 -0.1099
 5194SOL    HW127641   8.775   8.209   7.610  1.4915 -0.3389 -0.5936
 5194SOL    HW227642   8.721   8.135   7.475  2.6765 -0.8358 -0.8080
 5195SOL     OW27643   6.750   4.819   0.866 -0.6920 -0.5172 -0.1518
 5195SOL    HW127644   6.755   4.752   0.940 -1.0300 -2.1777 -1.5889
 5195SOL    HW227645   6.833   4.815   0.811 -1.4647 -1.0296 -1.3045
 5196SOL     OW27646   7.341   4.340   1.600 -0.2206  0.6152  0.0102
 5196SOL    HW127647   7.327   4.408   1.672  1.7398  1.0924 -0.0270
 5196SOL    HW227648   7.375   4.255   1.641  0.1363  0.6280 -0.2550
 5197SOL     OW27649   7.199   3.660   8.226 -0.1301 -0.3011  0.5386
 5197SOL    HW127650   7.172   3.574   8.271  0.2825 -1.7362 -1.8827
 5197SOL    HW227651   7.141   3.675   8.146  1.0894  0.6681 -0.1762
 5198SOL     OW27652   0.821   9.941   7.300 -0.0024  0.1746  0.2871
 5198SOL    HW127653   0.777   9.862   7.257 -3.5127  1.0225  2.1303
 5198SOL    HW227654   0.827  10.016   7.234 -0.9135 -0.1222 -0.1404
 5199SOL     OW27655   5.102   4.190   9.773  0.1298  0.5042  0.0293
 5199SOL    HW127656   5.109   4.171   9.675 -0.3662  0.1309  0.0610
 5199SOL    HW227657   5.101   4.289   9.788 -0.1576  0.5657 -0.3747
 5200SOL     OW27658   3.551   4.834   0.857  0.7230 -0.5920 -0.0108
 5200SOL    HW127659   3.560   4.737   0.834  0.7272 -0.1658 -1.8972
 5200SOL    HW227660   3.468   4.848   0.910  0.4179 -1.5585 -0.2270
 5201SOL     OW27661   8.877   0.869   9.531 -0.7749 -0.2229  0.5962
 5201SOL    HW127662   8.942   0.892   9.603 -2.3765  0.8406  1.7485
 5201SOL    HW227663   8.803   0.937   9.531 -2.4617 -2.0278  0.0584
 5202SOL     OW27664   0.665   1.165   4.541 -0.1692  0.4166  0.3651
 5202SOL    HW127665   0.575   1.206   4.558 -1.1014 -1.5460  0.3347
 5202SOL    HW227666   0.699   1.125   4.625  0.8183  1.4140  0.4408
 5203SOL     OW27667   8.451   5.358   4.641  0.6332  0.1042  0.1976
 5203SOL    HW127668   8.395   5.398   4.714 -0.3155  0.9914 -0.9870
 5203SOL    HW227669   8.481   5.267   4.668  0.3543  0.4451  1.7210
 5204SOL     OW27670   7.233   0.499   8.149 -0.5293 -0.1652 -0.2026
 5204SOL    HW127671   7.311   0.451   8.108 -0.5753 -1.9024  1.7131
 5204SOL    HW227672   7.153   0.490   8.089 -0.4053 -2.0852 -0.1024
 5205SOL     OW27673   4.004   9.668   9.046 -0.1166  0.2283 -0.0173
 5205SOL    HW127674   4.037   9.592   8.991  0.5159  1.3427 -1.2138
 5205SOL    HW227675   3.907   9.657   9.064 -0.5717  0.3285 -2.2307
 5206SOL     OW27676   3.128   2.610   9.672  0.3989 -0.1524  0.2145
 5206SOL    HW127677   3.203   2.617   9.737  1.1064 -1.7863 -0.4038
 5206SOL    HW227678   3.151   2.544   9.601  0.2054  2.6228 -2.5232
 5207SOL     OW27679   4.755   2.170   7.275  0.0158  0.2146 -0.0843
 5207SOL    HW127680   4.768   2.220   7.189  0.0782  1.6112  0.7327
 5207SOL    HW227681   4.839   2.174   7.329 -0.6171  0.8793  0.8454
 5208SOL     OW27682   3.444   6.079   1.851 -0.2186  0.2941 -0.3548
 5208SOL    HW127683   3.486   6.122   1.931  0.2306 -0.3478 -0.2430
 5208SOL    HW227684   3.376   6.141   1.812 -0.9960  0.3260  0.9851
 5209SOL     OW27685   6.094   2.484   5.080  0.0440  0.0522 -0.5286
 5209SOL    HW127686   6.097   2.574   5.036 -1.3740  0.2052 -0.3354
 5209SOL    HW227687   6.104   2.412   5.012  1.0402  0.3466 -0.7012
 5210SOL     OW27688   4.802   7.818   4.314  0.0472  0.4765  0.2968
 5210SOL    HW127689   4.789   7.730   4.267  0.5614 -0.2241  1.4580
 5210SOL    HW227690   4.879   7.811   4.376 -0.1122  1.6651  0.6285
 5211SOL     OW27691   7.792   7.767   6.307  0.2600  0.0745  0.0322
 5211SOL    HW127692   7.708   7.760   6.362 -0.3149 -1.4339 -1.0076
 5211SOL    HW227693   7.774   7.822   6.226  0.6221  0.7935  0.4370
 5212SOL     OW27694   2.312   6.630   8.636 -0.0970  0.3335  0.1277
 5212SOL    HW127695   2.337   6.544   8.590 -0.6472  0.1430  0.1879
 5212SOL    HW227696   2.346   6.627   8.730 -1.0080 -0.2454  0.4419
 5213SOL     OW27697   0.003   7.525   3.059  0.1864 -0.0142 -0.5850
 5213SOL    HW127698   0.063   7.446   3.049 -0.2997 -0.6429  1.2858
 5213SOL    HW227699   0.058   7.606   3.079  0.4866 -0.5012  0.6643
 5214SOL     OW27700   3.047   1.082   5.824  0.0384  0.8176  0.3286
 5214SOL    HW127701   3.045   1.035   5.913  1.2723  0.2705  0.0872
 5214SOL    HW227702   3.142   1.089   5.793 -0.3532  1.3717 -0.7585
 5215SOL     OW27703   3.299   2.739   4.562 -0.0334 -0.0448  0.1757
 5215SOL    HW127704   3.280   2.654   4.612  1.9198 -0.2431  0.5967
 5215SOL    HW227705   3.365   2.721   4.489  1.0486  1.2696  0.8142
 5216SOL     OW27706   2.846   7.781   0.668 -1.0286  0.4625 -0.1436
 5216SOL    HW127707   2.780   7.824   0.608 -0.5515  1.4427  0.0311
 5216SOL    HW227708   2.896   7.851   0.719 -0.2326 -0.2874  0.1208
 5217SOL     OW27709   4.754   5.918   1.904  0.4007 -0.0174  0.0945
 5217SOL    HW127710   4.733   5.914   2.001  0.8150 -1.3079  0.1490
 5217SOL    HW227711   4.755   6.013   1.873 -0.7403  0.3417  1.1236
 5218SOL     OW27712   6.270   0.434   7.295  0.4790 -0.1865  0.5052
 5218SOL    HW127713   6.357   0.463   7.255 -0.1532 -0.3984 -1.0379
 5218SOL    HW227714   6.197   0.440   7.226 -0.8028  0.3054  1.8714
 5219SOL     OW27715   1.667   7.794   5.303  0.0521  0.0267 -0.2068
 5219SOL    HW127716   1.703   7.878   5.263 -0.6447  0.1119 -0.6575
 5219SOL    HW227717   1.582   7.769   5.257 -1.1426  0.5293  1.6793
 5220SOL     OW27718   8.240   5.952   7.511  0.0520  0.1512  0.1414
 5220SOL    HW127719   8.291   5.880   7.559 -1.6595 -1.4517 -0.3996
 5220SOL    HW227720   8.163   5.981   7.567 -0.1376  0.5046 -0.3027
 5221SOL     OW27721   5.445   4.044   2.388  0.2714 -0.1020 -0.2949
 5221SOL    HW127722   5.391   4.078   2.312  1.2950  0.0702 -0.9632
 5221SOL    HW227723   5.486   4.121   2.438 -0.9937 -0.1782  0.8916
 5222SOL     OW27724   3.915   2.880   6.602 -0.4413  0.4847 -0.4132
 5222SOL    HW127725   4.013   2.876   6.621 -0.6883 -3.0728  0.3772
 5222SOL    HW227726   3.900   2.906   6.506  1.1886  2.8387 -0.0644
 5223SOL     OW27727   1.645   0.476   5.011 -0.5836 -0.3319  0.2375
 5223SOL    HW127728   1.649   0.562   4.959 -3.9336 -0.8267 -0.9497
 5223SOL    HW227729   1.565   0.477   5.071 -0.6474 -2.6327  0.2253
 5224SOL     OW27730   3.467   0.310   4.838 -0.0413 -0.2823 -0.0322
 5224SOL    HW127731   3.469   0.281   4.934  0.6173 -3.0578 -0.8736
 5224SOL    HW227732   3.391   0.265   4.791 -1.5582  2.5247 -0.4130
 5225SOL     OW27733   7.349   9.280   6.293 -0.2671 -0.3503 -0.5237
 5225SOL    HW127734   7.295   9.204   6.259 -1.0506  0.2250 -0.5608
 5225SOL    HW227735   7.444   9.250   6.303 -0.7178 -1.5722  0.2450
 5226SOL     OW27736   3.633   3.448   0.911  0.3050 -0.4199  0.2570
 5226SOL    HW127737   3.537   3.476   0.907  0.3518 -0.1469  0.9678
 5226SOL    HW227738   3.689   3.523   0.947  0.5170 -1.1783  1.5597
 5227SOL     OW27739   0.124   8.107   7.393  0.1486 -0.0679 -0.1555
 5227SOL    HW127740   0.025   8.093   7.396  0.0090  1.0601  0.7346
 5227SOL    HW227741   0.170   8.025   7.427 -0.5307 -0.0169  0.9115
 5228SOL     OW27742   4.218   0.315   6.791  0.4939  0.4182 -0.6546
 5228SOL    HW127743   4.268   0.361   6.718 -0.7081  0.2555 -1.6066
 5228SOL    HW227744   4.209   0.218   6.768  1.2805  0.0989  0.3707
 5229SOL     OW27745   0.164   7.896   9.887 -0.1587 -0.1225  0.3920
 5229SOL    HW127746   0.248   7.867   9.841 -0.3829 -1.2524  0.6794
 5229SOL    HW227747   0.106   7.816   9.905 -1.2427  0.6265  0.3090
 5230SOL     OW27748   4.239   9.338   6.566 -0.4590 -0.7950 -0.0159
 5230SOL    HW127749   4.163   9.295   6.615 -0.3804 -1.0550 -0.1195
 5230SOL    HW227750   4.239   9.436   6.585 -2.8545 -0.2168 -2.6332
 5231SOL     OW27751   2.801   0.376   4.465 -0.0168 -0.4147 -0.0465
 5231SOL    HW127752   2.874   0.356   4.532  0.2697  1.2877  0.1528
 5231SOL    HW227753   2.725   0.421   4.511 -0.7104 -1.1025 -0.4973
 5232SOL     OW27754   2.507   9.935   2.610  0.0925  0.5048 -0.2519
 5232SOL    HW127755   2.431   9.924   2.547 -0.2103 -0.8531  0.3152
 5232SOL    HW227756   2.524  10.032   2.627  0.3318  0.8933 -2.5758
 5233SOL     OW27757   4.583   8.073   2.269 -0.2061  0.1044  0.0091
 5233SOL    HW127758   4.503   8.114   2.225 -1.0156  0.3811  1.7090
 5233SOL    HW227759   4.663   8.129   2.253 -0.7771  0.9344  0.0558
 5234SOL     OW27760   2.258   0.214   9.555 -0.4394 -0.3779  0.3253
 5234SOL    HW127761   2.319   0.200   9.477 -0.0992 -1.7809  0.8284
 5234SOL    HW227762   2.311   0.207   9.640 -1.1497 -0.7724  0.7376
 5235SOL     OW27763   2.178   3.466   6.697  0.0172 -0.3767  0.1146
 5235SOL    HW127764   2.156   3.369   6.708 -1.2037 -0.2709 -1.1885
 5235SOL    HW227765   2.182   3.489   6.599 -0.7157  1.0936  0.4101
 5236SOL     OW27766   5.643   9.381   3.393  0.5645 -0.0274  0.0990
 5236SOL    HW127767   5.695   9.307   3.434  2.8261  1.2521 -0.3776
 5236SOL    HW227768   5.653   9.378   3.293 -1.9950 -1.0007 -0.1580
 5237SOL     OW27769   1.964   1.341   4.113 -0.6240 -0.1945 -0.2585
 5237SOL    HW127770   1.871   1.341   4.149  0.2482 -0.3650  2.0609
 5237SOL    HW227771   1.968   1.281   4.032 -2.6100  0.1827 -0.6553
 5238SOL     OW27772   2.645   2.298   0.696 -0.1820  0.3626 -0.2004
 5238SOL    HW127773   2.613   2.360   0.624  1.1428  0.2736 -0.8630
 5238SOL    HW227774   2.711   2.234   0.659  2.4791  1.9530  1.6417
 5239SOL     OW27775   3.774   0.681   4.818 -0.2089 -0.1308 -0.2878
 5239SOL    HW127776   3.679   0.670   4.786 -0.2819 -0.0115 -0.1121
 5239SOL    HW227777   3.777   0.748   4.892  0.0527  0.0516 -0.4637
 5240SOL     OW27778   7.595   0.330   7.292 -0.1531 -0.1308 -0.3401
 5240SOL    HW127779   7.641   0.297   7.374  0.5547  1.5109 -0.0554
 5240SOL    HW227780   7.523   0.393   7.317 -1.6968 -1.6565 -0.8653
 5241SOL     OW27781   0.906   0.111   6.865  0.0768  0.4147 -0.2885
 5241SOL    HW127782   0.860   0.061   6.791  0.0500 -0.8280  0.5671
 5241SOL    HW227783   0.987   0.061   6.895 -1.1699 -0.2549  2.0783
 5242SOL     OW27784   7.402   0.398   8.772  0.0648 -0.0871  0.2952
 5242SOL    HW127785   7.371   0.401   8.677  0.0284 -1.4865  0.2558
 5242SOL    HW227786   7.350   0.464   8.826 -0.1836  0.4365 -0.5770
 5243SOL     OW27787   6.899   4.409   2.685 -0.0204  0.2988  0.0763
 5243SOL    HW127788   6.948   4.324   2.705 -0.0126  0.2937  0.0341
 5243SOL    HW227789   6.807   4.404   2.725 -0.3005 -0.0462 -0.6039
 5244SOL     OW27790   1.644   9.953   6.193 -0.3224  0.4127 -0.1203
 5244SOL    HW127791   1.678   9.953   6.099 -0.8833  2.1141 -0.3258
 5244SOL    HW227792   1.678  10.033   6.242  1.4044 -1.3421  1.6802
 5245SOL     OW27793   9.341   6.078   2.453  0.7758  0.2496  0.7878
 5245SOL    HW127794   9.270   6.045   2.516  0.4126 -0.2121  0.1404
 5245SOL    HW227795   9.355   6.176   2.467 -0.8017  0.5782  0.1304
 5246SOL     OW27796   1.274   4.586   0.917  0.3045 -0.4003 -0.2110
 5246SOL    HW127797   1.199   4.652   0.909 -0.8890 -1.5514  1.0609
 5246SOL    HW227798   1.316   4.573   0.828 -0.3231  1.0470 -0.7493
 5247SOL     OW27799   2.159   7.031   0.911 -0.0914  0.1844 -0.6637
 5247SOL    HW127800   2.258   7.031   0.924 -0.2165  2.6415  0.6338
 5247SOL    HW227801   2.118   6.956   0.963  0.7676  1.3957  1.8181
 5248SOL     OW27802   0.787   5.782   2.530  0.4052  0.3424  0.1332
 5248SOL    HW127803   0.801   5.708   2.463 -0.5291  0.5993 -0.3518
 5248SOL    HW227804   0.817   5.750   2.620  2.5166  0.3046 -0.5534
 5249SOL     OW27805   4.815   7.434   9.999 -0.3683  0.4154  0.4618
 5249SOL    HW127806   4.736   7.374  10.000 -1.0252  1.2144 -1.0078
 5249SOL    HW227807   4.897   7.383  10.023 -0.9247 -1.0500 -0.7261
 5250SOL     OW27808   7.699   6.555   0.742  0.0523  0.2672 -0.1727
 5250SOL    HW127809   7.778   6.553   0.803 -1.2266  3.8918  1.7717
 5250SOL    HW227810   7.724   6.600   0.656  0.3973  0.3950 -0.0037
 5251SOL     OW27811   0.310   3.413   0.715 -0.1149  0.4792  0.0436
 5251SOL    HW127812   0.228   3.382   0.762 -1.0032 -0.1239 -1.8552
 5251SOL    HW227813   0.298   3.508   0.685  0.4971  0.9041  1.1073
 5252SOL     OW27814   1.639   5.441   8.405  0.3288  0.0231  0.1553
 5252SOL    HW127815   1.587   5.459   8.321  0.5680  0.2666  0.0604
 5252SOL    HW227816   1.659   5.343   8.412 -0.9794 -0.2188  0.6754
 5253SOL     OW27817   9.508   4.903   0.266  0.1094 -0.2879  0.2981
 5253SOL    HW127818   9.551   4.814   0.254  2.8171  0.9239  0.5976
 5253SOL    HW227819   9.474   4.936   0.178 -2.5838 -2.3764  0.4899
 5254SOL     OW27820   8.338   8.961   1.036 -0.1655  0.0006  0.7377
 5254SOL    HW127821   8.357   9.056   1.014  1.0129 -0.4305 -0.1546
 5254SOL    HW227822   8.422   8.916   1.067 -0.6598 -0.8134  0.9236
 5255SOL     OW27823   6.920   4.476   0.079 -0.8090 -0.4113  0.1868
 5255SOL    HW127824   6.970   4.389   0.082  0.9313  0.5647 -0.0060
 5255SOL    HW227825   6.829   4.463   0.118 -0.4780 -2.2585  0.4065
 5256SOL     OW27826   2.207   7.738   6.285 -1.1070  0.2782 -0.2417
 5256SOL    HW127827   2.169   7.661   6.336 -0.6229  0.5088  0.4721
 5256SOL    HW227828   2.307   7.736   6.292 -1.0239  0.1722 -1.3776
 5257SOL     OW27829   4.911   7.481   5.765 -0.7518 -0.0713 -0.0307
 5257SOL    HW127830   4.961   7.477   5.852  0.2160  0.0801 -0.5752
 5257SOL    HW227831   4.967   7.444   5.692 -1.0845  0.9327 -0.8130
 5258SOL     OW27832   8.752   8.397   2.548  0.2164  0.4198  0.1715
 5258SOL    HW127833   8.679   8.328   2.542  0.3702  0.2183  0.5308
 5258SOL    HW227834   8.712   8.488   2.556  0.0092  0.3857 -0.4656
 5259SOL     OW27835   0.943   5.519   6.715  0.4242 -0.1071  0.3716
 5259SOL    HW127836   0.910   5.574   6.793  1.1523  0.0552  0.5707
 5259SOL    HW227837   0.886   5.538   6.635 -0.7530 -0.7770  1.0378
 5260SOL     OW27838   5.693   9.369   3.111  0.2370 -0.3913  0.5642
 5260SOL    HW127839   5.748   9.288   3.090 -2.3988 -1.3048 -3.4375
 5260SOL    HW227840   5.702   9.436   3.036 -3.5568 -0.3715  0.0297
 5261SOL     OW27841   0.952   9.648   6.574  0.0407  0.2878 -0.3966
 5261SOL    HW127842   0.906   9.711   6.511  1.3915  0.4519 -1.2350
 5261SOL    HW227843   0.998   9.576   6.522  1.8462  0.8730  0.3313
 5262SOL     OW27844   7.099   3.671   2.499 -0.5067  0.2234  0.3359
 5262SOL    HW127845   7.062   3.639   2.412  0.3465 -0.7455  0.3215
 5262SOL    HW227846   7.126   3.767   2.490  0.4211 -0.1237 -0.7536
 5263SOL     OW27847   4.612   0.849   5.326 -0.4642 -0.2398  0.0068
 5263SOL    HW127848   4.567   0.794   5.397 -3.2293  2.2038  0.2513
 5263SOL    HW227849   4.617   0.944   5.356  1.5262  0.1995 -1.6585
 5264SOL     OW27850   0.237   8.595   5.374  0.0372  0.1395  0.3106
 5264SOL    HW127851   0.241   8.517   5.438 -0.2160 -0.1137  0.0170
 5264SOL    HW227852   0.168   8.660   5.406  0.1647  0.1868  0.4916
 5265SOL     OW27853   0.995   5.588   1.960  0.0276  0.3676  0.0803
 5265SOL    HW127854   0.962   5.567   1.868 -0.2426  1.1375 -0.0021
 5265SOL    HW227855   0.919   5.625   2.014 -0.2583 -1.7190  1.1504
 5266SOL     OW27856   9.275   7.441   6.349 -0.5725  0.8187 -0.1125
 5266SOL    HW127857   9.280   7.535   6.316  0.5122  0.7794 -0.0768
 5266SOL    HW227858   9.188   7.400   6.321 -0.8066  1.6467 -0.6039
 5267SOL     OW27859   0.802   1.248   2.123 -0.8409 -0.7658 -0.3397
 5267SOL    HW127860   0.813   1.333   2.071 -1.4867 -1.1063 -1.0388
 5267SOL    HW227861   0.892   1.209   2.143 -0.5837 -0.5939 -1.1410
 5268SOL     OW27862   3.946   8.500   8.492  0.1521  0.0305 -0.2189
 5268SOL    HW127863   3.891   8.581   8.513  1.2167  1.2164 -1.8957
 5268SOL    HW227864   4.027   8.499   8.550 -0.8486 -0.9331  1.2094
 5269SOL     OW27865   6.805   4.294   9.157  0.5532 -0.4873 -0.1774
 5269SOL    HW127866   6.792   4.280   9.059  0.8284 -1.0002 -0.1394
 5269SOL    HW227867   6.755   4.224   9.208 -1.7513  1.3151  0.1115
 5270SOL     OW27868   4.109   9.091   5.946 -0.1670  0.0031 -0.2496
 5270SOL    HW127869   4.101   9.191   5.952 -2.6725 -0.1784  0.1707
 5270SOL    HW227870   4.188   9.067   5.890  1.2560  2.2028  0.7654
 5271SOL     OW27871   4.131   3.801   0.796  0.1039 -0.1445 -0.2395
 5271SOL    HW127872   4.193   3.724   0.780  1.1084  0.1729  1.8394
 5271SOL    HW227873   4.049   3.769   0.842  1.3494  0.2275  2.3579
 5272SOL     OW27874   0.686   2.297   2.554  0.4643  0.2957  0.7717
 5272SOL    HW127875   0.616   2.348   2.604  0.3114  0.1129  0.7453
 5272SOL    HW227876   0.700   2.337   2.464  1.2432  1.0581  1.2264
 5273SOL     OW27877   0.677   5.257   4.350 -0.3577 -0.4579 -0.1900
 5273SOL    HW127878   0.641   5.192   4.417 -0.9183 -1.5490 -1.5403
 5273SOL    HW227879   0.617   5.260   4.270  1.7463 -1.1699 -1.8298
 5274SOL     OW27880   0.842   0.631   4.990 -0.5144  0.1383 -0.2200
 5274SOL    HW127881   0.811   0.651   5.083  0.0954 -0.2642  0.0685
 5274SOL    HW227882   0.820   0.709   4.931 -2.0188 -0.0984 -0.0096
 5275SOL     OW27883   4.469   5.199   0.411 -0.0206  0.1384  0.4230
 5275SOL    HW127884   4.548   5.250   0.446  1.2542 -2.5049  1.5852
 5275SOL    HW227885   4.483   5.177   0.315 -0.3366  1.5380  0.0587
 5276SOL     OW27886   3.953   8.925   3.724  0.7230  0.2569  0.5386
 5276SOL    HW127887   3.901   9.009   3.709 -0.4619 -0.7924 -1.4678
 5276SOL    HW227888   4.050   8.943   3.711  0.4299  1.2282 -0.3343
 5277SOL     OW27889   4.717   8.313   1.085 -0.3515 -0.2223  0.0203
 5277SOL    HW127890   4.715   8.213   1.078  0.1476 -0.4249  2.2211
 5277SOL    HW227891   4.626   8.347   1.109 -1.0141  0.0667 -2.7660
 5278SOL     OW27892   7.787   8.343   8.045 -0.5642 -0.4212 -0.1243
 5278SOL    HW127893   7.706   8.388   8.009  0.1746  2.4364  1.6037
 5278SOL    HW227894   7.863   8.408   8.047  0.8446 -2.0583  1.4302
 5279SOL     OW27895   7.193   7.797   5.833  0.9537  0.4754 -0.0957
 5279SOL    HW127896   7.189   7.701   5.807  0.7198  0.5198 -0.2183
 5279SOL    HW227897   7.288   7.822   5.855  1.1375  0.4300 -0.8505
 5280SOL     OW27898   6.482   4.191   9.091 -0.5616 -0.6705 -0.1956
 5280SOL    HW127899   6.417   4.240   9.149 -2.4612 -2.3153 -0.9253
 5280SOL    HW227900   6.527   4.120   9.145 -0.0665 -0.1922  0.0382
 5281SOL     OW27901   1.862   1.514   9.527  0.1055  0.1962  0.3700
 5281SOL    HW127902   1.944   1.478   9.484  0.2143  0.5084  0.3151
 5281SOL    HW227903   1.863   1.492   9.625 -0.6157 -1.3635  0.0333
 5282SOL     OW27904   0.087   2.743   7.257  0.7445 -0.2879 -0.5094
 5282SOL    HW127905   0.078   2.652   7.215 -1.1225 -0.1020 -0.5576
 5282SOL    HW227906   0.126   2.807   7.191  0.2639 -0.6149 -1.1166
 5283SOL     OW27907   4.721   9.902   2.367 -0.1838  0.0972 -0.0336
 5283SOL    HW127908   4.821   9.897   2.358 -0.1242  0.3838  0.4886
 5283SOL    HW227909   4.679   9.888   2.277  0.3445  0.5623 -0.3554
 5284SOL     OW27910   4.191   5.215   4.984  0.2488 -0.4235  0.5895
 5284SOL    HW127911   4.105   5.263   5.002  0.2214  0.0165 -0.6707
 5284SOL    HW227912   4.244   5.265   4.915  0.7643 -1.5506  0.1495
 5285SOL     OW27913   4.280   0.058   9.410  0.1895  0.2086 -0.2739
 5285SOL    HW127914   4.312  -0.028   9.370  0.5624  0.9908 -1.7047
 5285SOL    HW227915   4.181   0.053   9.424  0.6073 -1.5173  2.3884
 5286SOL     OW27916   0.711   6.243   6.631  0.1711  0.4190  0.4127
 5286SOL    HW127917   0.619   6.204   6.635  0.7325 -1.0143 -0.2170
 5286SOL    HW227918   0.744   6.242   6.536  0.5783  1.5484  0.5336
 5287SOL     OW27919   5.883   1.391   8.118 -0.1979 -0.3228  0.0926
 5287SOL    HW127920   5.826   1.339   8.054  0.9709 -1.6270  0.1021
 5287SOL    HW227921   5.978   1.388   8.089  0.1017  0.5551  0.9416
 5288SOL     OW27922   8.764   6.762   4.038 -0.2111 -0.3470 -0.7053
 5288SOL    HW127923   8.724   6.850   4.014 -0.4653 -0.9227 -2.4733
 5288SOL    HW227924   8.863   6.771   4.049 -0.3370  0.3086 -0.1194
 5289SOL     OW27925   9.262   9.991   8.002 -0.0211 -0.4241  0.7363
 5289SOL    HW127926   9.245  10.007   7.905  1.9576 -1.3153  0.2246
 5289SOL    HW227927   9.318  10.065   8.039  1.9859 -1.7414  0.3924
 5290SOL     OW27928   3.917   2.297   7.680 -0.0225 -0.6117 -0.3065
 5290SOL    HW127929   3.964   2.295   7.591 -1.4291  1.4655 -1.1213
 5290SOL    HW227930   3.854   2.219   7.685 -0.1021 -0.6214 -1.2538
 5291SOL     OW27931   8.023   1.398   1.454 -0.6416  0.3890  1.1569
 5291SOL    HW127932   8.111   1.422   1.495 -0.6659  0.3011  1.2608
 5291SOL    HW227933   8.030   1.403   1.354 -0.0359 -1.3101  1.0985
 5292SOL     OW27934   4.477   8.690   9.658 -0.0719  0.4376  0.1709
 5292SOL    HW127935   4.453   8.593   9.669 -3.1898  1.1549  0.2957
 5292SOL    HW227936   4.445   8.721   9.569 -1.9809  2.1015  1.3879
 5293SOL     OW27937   5.997   3.535   2.741 -0.0948 -0.4503  0.1886
 5293SOL    HW127938   5.903   3.540   2.708 -0.1210 -1.7331  0.0094
 5293SOL    HW227939   6.059   3.529   2.662 -0.0494 -1.9696  0.3098
 5294SOL     OW27940   2.961   0.725   4.532  0.2143 -0.1514 -0.9044
 5294SOL    HW127941   2.979   0.692   4.439 -1.2215 -1.1783 -0.8395
 5294SOL    HW227942   2.891   0.796   4.529  0.0742 -0.2759 -0.5885
 5295SOL     OW27943   9.172   2.608   7.391 -0.1502  0.4329 -0.5411
 5295SOL    HW127944   9.112   2.686   7.376 -0.6319 -0.3437 -2.8512
 5295SOL    HW227945   9.117   2.526   7.410  0.1879 -0.0754 -1.6981
 5296SOL     OW27946   8.522   8.057  10.060  0.6366 -0.1794  0.1809
 5296SOL    HW127947   8.519   8.097   9.969 -1.1330  0.7420  0.6287
 5296SOL    HW227948   8.530   8.129  10.129  3.0045 -0.9135  0.7413
 5297SOL     OW27949   2.482   6.433   6.228  0.6317  0.1189  0.4700
 5297SOL    HW127950   2.521   6.349   6.191 -2.8474 -0.7373 -1.4212
 5297SOL    HW227951   2.555   6.487   6.271  3.5128 -2.2106 -1.2953
 5298SOL     OW27952   8.586   9.315   2.103 -0.4558 -0.3984  0.2895
 5298SOL    HW127953   8.522   9.389   2.081  0.1067  0.7834  2.4333
 5298SOL    HW227954   8.622   9.276   2.019 -1.9196  0.7554 -0.9052
 5299SOL     OW27955   8.086   9.043   7.169  0.2092  0.1286 -0.2532
 5299SOL    HW127956   8.105   9.060   7.072 -1.4694 -0.5211 -0.7098
 5299SOL    HW227957   8.062   9.130   7.214 -2.0986 -0.0203 -1.1460
 5300SOL     OW27958   0.325   5.178   8.554  0.6455  0.1258 -0.1324
 5300SOL    HW127959   0.293   5.092   8.513  0.2961  0.6119 -0.8805
 5300SOL    HW227960   0.415   5.201   8.516  0.3651  0.5256 -0.5608
 5301SOL     OW27961   9.020   9.850   0.952 -0.2812 -0.3630 -0.0480
 5301SOL    HW127962   9.007   9.913   1.029  0.7411 -0.5941  0.3275
 5301SOL    HW227963   8.949   9.866   0.883 -0.8581  0.2422  0.6797
 5302SOL     OW27964   0.910   9.793   6.333  0.2719 -0.4284 -0.3317
 5302SOL    HW127965   0.887   9.890   6.335  0.4105 -0.3873 -0.6457
 5302SOL    HW227966   1.009   9.782   6.325  0.2420 -0.5917 -0.4973
 5303SOL     OW27967   7.367   4.474   2.176 -0.1248  0.3124  0.2907
 5303SOL    HW127968   7.457   4.431   2.179 -0.4452 -0.3252  0.9924
 5303SOL    HW227969   7.301   4.416   2.225 -0.4403  1.8661  1.7713
 5304SOL     OW27970   9.947   1.138   6.586 -0.5078  0.2116 -0.0577
 5304SOL    HW127971   9.972   1.063   6.647  2.9665  0.0497 -1.5308
 5304SOL    HW227972   9.985   1.120   6.495 -1.0073  3.0059 -0.8588
 5305SOL     OW27973   0.660   3.230   6.196  0.2748 -0.1949 -0.1621
 5305SOL    HW127974   0.615   3.281   6.123  1.5332  1.8445  0.4514
 5305SOL    HW227975   0.606   3.148   6.217 -1.3873  0.4650 -1.6713
 5306SOL     OW27976   5.093   4.929   1.481  0.9094 -0.1060 -0.5280
 5306SOL    HW127977   5.070   4.988   1.404  0.9616 -0.4179 -0.7840
 5306SOL    HW227978   5.150   4.979   1.546  1.0668  0.0789 -0.8121
 5307SOL     OW27979   3.700   0.718   1.036  0.3437  0.5097 -0.1955
 5307SOL    HW127980   3.784   0.759   1.001  1.0839  0.3064  1.2941
 5307SOL    HW227981   3.664   0.774   1.111 -0.7591  0.4989 -0.7049
 5308SOL     OW27982   6.050   7.867   2.332  0.0051 -0.0590 -1.2110
 5308SOL    HW127983   6.123   7.921   2.376 -0.8568  0.7608 -0.7754
 5308SOL    HW227984   5.963   7.884   2.378 -0.3838 -1.4215 -1.4225
 5309SOL     OW27985   9.973   1.655   6.088 -0.4941  0.5192  0.4559
 5309SOL    HW127986  10.053   1.653   6.027 -1.0413 -0.0978 -0.2598
 5309SOL    HW227987   9.959   1.564   6.126 -1.7420  0.2581 -0.6022
 5310SOL     OW27988   0.752   8.173   6.914  0.1923 -0.1709 -0.1195
 5310SOL    HW127989   0.703   8.092   6.947  0.9595  0.0144  1.5448
 5310SOL    HW227990   0.694   8.254   6.928  0.0363 -0.2432 -0.3459
 5311SOL     OW27991   6.165   1.601   9.828 -0.4374 -0.8109  0.2913
 5311SOL    HW127992   6.102   1.612   9.751  1.3914 -0.9500 -1.2720
 5311SOL    HW227993   6.172   1.687   9.878  0.3537  0.0645 -1.2896
 5312SOL     OW27994   9.312   7.820   6.893 -0.2358  0.3490  0.2253
 5312SOL    HW127995   9.221   7.782   6.878 -1.7344  3.7732  0.1274
 5312SOL    HW227996   9.347   7.856   6.806  1.6803 -1.8180  0.0535
 5313SOL     OW27997   2.694   4.476   3.545  0.1932  0.7418  0.6569
 5313SOL    HW127998   2.754   4.550   3.575 -0.2750  0.7359  1.6255
 5313SOL    HW227999   2.662   4.424   3.625  1.5086 -1.2707 -0.0857
 5314SOL     OW28000   9.568   4.272   5.188 -0.1305  0.8402 -0.2539
 5314SOL    HW128001   9.542   4.369   5.193  0.2665  0.8802  1.2547
 5314SOL    HW228002   9.531   4.224   5.267  3.3273  0.6618  1.3220
 5315SOL     OW28003   0.404   5.827   6.146  0.3501 -1.0639 -0.0327
 5315SOL    HW128004   0.469   5.852   6.075 -0.0655 -1.5643 -0.5861
 5315SOL    HW228005   0.427   5.876   6.231 -0.5661  1.3638 -1.1394
 5316SOL     OW28006   9.031   1.412   4.459  0.3692  0.4592  0.0981
 5316SOL    HW128007   8.970   1.448   4.530 -0.6335 -0.2528 -0.3950
 5316SOL    HW228008   9.062   1.321   4.484 -0.8937 -0.2670 -0.8892
 5317SOL     OW28009   7.623   9.020   8.042  0.0983  0.4523 -0.1927
 5317SOL    HW128010   7.666   8.952   8.101  2.4588  2.5732  0.5986
 5317SOL    HW228011   7.523   9.010   8.047  0.3728 -3.3546 -0.6515
 5318SOL     OW28012   5.966   3.602   8.699  0.0751  0.4817  0.1562
 5318SOL    HW128013   5.894   3.589   8.766 -0.0454  0.6679  0.0616
 5318SOL    HW228014   6.033   3.668   8.734  0.7246 -0.4370  0.6657
 5319SOL     OW28015   9.085   9.416   2.258 -0.5463  0.5729 -0.1915
 5319SOL    HW128016   9.028   9.433   2.339  1.0627 -0.5368  1.2054
 5319SOL    HW228017   9.180   9.437   2.279  0.2028 -1.6695 -1.1466
 5320SOL     OW28018   0.137   2.494   7.131 -0.1256  0.0105  0.3579
 5320SOL    HW128019   0.154   2.406   7.086  0.0735 -0.3903  1.2079
 5320SOL    HW228020   0.096   2.557   7.065  0.8382 -0.3327 -0.5864
 5321SOL     OW28021   0.591   4.838   4.637  0.2381  0.1912  0.1557
 5321SOL    HW128022   0.683   4.808   4.615 -0.0749  0.1841 -1.2068
 5321SOL    HW228023   0.525   4.778   4.592 -0.4228  0.3516  0.9052
 5322SOL     OW28024   3.459   3.101   8.379  0.3465 -0.0196  0.3217
 5322SOL    HW128025   3.382   3.110   8.443  0.5475 -0.5837  0.6489
 5322SOL    HW228026   3.437   3.147   8.293 -0.0073  0.5798  0.7270
 5323SOL     OW28027   0.542   6.681   0.666  0.2870 -0.7259 -0.2510
 5323SOL    HW128028   0.544   6.777   0.639 -0.1160  0.0454  2.3268
 5323SOL    HW228029   0.490   6.628   0.599 -0.8235  1.1238 -0.8720
 5324SOL     OW28030   7.654   6.851   7.514 -0.3961  0.4386 -0.5225
 5324SOL    HW128031   7.700   6.937   7.534 -0.7612  0.6985 -0.8099
 5324SOL    HW228032   7.606   6.819   7.595  1.0109 -0.2783  0.0447
 5325SOL     OW28033   8.638   6.761   1.350  0.1649  0.1080 -0.2391
 5325SOL    HW128034   8.549   6.755   1.395 -0.0884 -0.2769 -0.7944
 5325SOL    HW228035   8.705   6.709   1.403  0.1733  0.8175  0.4553
 5326SOL     OW28036   1.740   6.443   1.811 -0.4557 -0.0848 -0.2742
 5326SOL    HW128037   1.803   6.471   1.739 -0.4953  0.0492 -0.2569
 5326SOL    HW228038   1.647   6.474   1.788 -0.4949 -0.1803 -0.2437
 5327SOL     OW28039   3.332   0.378   3.869 -0.0146  0.0388  0.4141
 5327SOL    HW128040   3.288   0.402   3.955  2.2426 -0.9764  1.9187
 5327SOL    HW228041   3.365   0.284   3.873  0.2946  0.0396 -1.4835
 5328SOL     OW28042   6.208   1.343   6.743 -0.0074  0.2723  0.2167
 5328SOL    HW128043   6.306   1.359   6.756 -0.1193  0.0988  1.3151
 5328SOL    HW228044   6.163   1.430   6.724  0.0836  0.6204  1.5625
 5329SOL     OW28045   0.520   9.164   9.617 -0.0574  0.3307 -0.9277
 5329SOL    HW128046   0.543   9.211   9.531  1.3683  0.8222 -0.2982
 5329SOL    HW228047   0.461   9.222   9.672 -0.1408  0.4432 -1.1337
 5330SOL     OW28048   8.320   8.582   3.608 -0.2679 -0.3523  0.5652
 5330SOL    HW128049   8.404   8.555   3.560 -0.4583  0.6560 -0.3515
 5330SOL    HW228050   8.250   8.607   3.541 -0.1209  2.3673  1.3625
 5331SOL     OW28051   9.230   9.991   2.438 -0.4413 -0.1566  0.3890
 5331SOL    HW128052   9.213  10.008   2.535  0.1408 -0.5300  0.5597
 5331SOL    HW228053   9.295  10.058   2.403  0.9744 -1.2985  0.7825
 5332SOL     OW28054   9.991   9.931   4.104 -0.1392 -0.0464  0.0380
 5332SOL    HW128055   9.991   9.900   4.009  0.0635 -1.3431  0.4391
 5332SOL    HW228056  10.018  10.027   4.108  0.6116 -0.1920 -1.1484
 5333SOL     OW28057   1.195   1.214   0.057 -0.3105 -0.1563 -0.2287
 5333SOL    HW128058   1.202   1.116   0.076 -1.6849 -0.1721  0.2726
 5333SOL    HW228059   1.254   1.237  -0.020  0.9245 -1.1614  0.3934
 5334SOL     OW28060   5.101   4.549   7.676  0.6431  0.3308  0.1613
 5334SOL    HW128061   5.138   4.478   7.617  0.8891  0.1915  0.4824
 5334SOL    HW228062   5.071   4.627   7.621 -0.3050 -0.3252 -0.2528
 5335SOL     OW28063   2.267   1.240   9.974  0.4667 -0.4758 -0.3447
 5335SOL    HW128064   2.192   1.228   9.909 -0.1897 -1.5755  0.5894
 5335SOL    HW228065   2.347   1.276   9.927 -0.5363  0.3994 -1.4263
 5336SOL     OW28066   6.878   0.404   5.311  0.3719  0.2391 -0.1675
 5336SOL    HW128067   6.869   0.304   5.311  0.7497  0.2048 -0.3370
 5336SOL    HW228068   6.788   0.445   5.294  0.7726 -0.1138 -3.2474
 5337SOL     OW28069   4.429   0.474   3.283  0.3711 -0.4107  0.1029
 5337SOL    HW128070   4.398   0.562   3.248  0.0904 -0.9991 -1.1889
 5337SOL    HW228071   4.422   0.472   3.383 -2.9305 -0.1906 -0.0812
 5338SOL     OW28072   9.813   3.003   5.372  0.1919  0.6331 -0.7095
 5338SOL    HW128073   9.823   2.957   5.460  1.8557 -0.4220 -1.4188
 5338SOL    HW228074   9.798   3.101   5.387 -2.2132  0.0825  0.7909
 5339SOL     OW28075   2.633   2.844   1.858 -0.2839 -0.3525 -0.2305
 5339SOL    HW128076   2.618   2.752   1.893 -1.2252  0.1720  0.7629
 5339SOL    HW228077   2.569   2.862   1.783  1.8494 -1.5384 -2.3828
 5340SOL     OW28078   2.277   3.319   0.630  0.8628  0.1706  0.0952
 5340SOL    HW128079   2.294   3.259   0.707  1.3010 -0.7831 -0.7395
 5340SOL    HW228080   2.338   3.296   0.554  0.4333  1.0827 -0.5509
 5341SOL     OW28081   6.029   4.874   9.966 -0.2181  0.1487  0.0479
 5341SOL    HW128082   6.074   4.873  10.055  0.9959  0.4153 -0.5601
 5341SOL    HW228083   6.025   4.781   9.930  2.6670  0.5177 -1.2988
 5342SOL     OW28084   4.120   3.505   0.230  0.3859  0.3151 -0.3044
 5342SOL    HW128085   4.193   3.447   0.266 -0.5566 -2.1058 -2.1560
 5342SOL    HW228086   4.160   3.581   0.179  1.6805 -1.8824 -2.6858
 5343SOL     OW28087   7.758   0.472   3.252 -0.1848 -0.4018 -0.1125
 5343SOL    HW128088   7.784   0.504   3.161 -3.0084  0.1241 -0.7829
 5343SOL    HW228089   7.752   0.372   3.252  0.4356 -0.4439 -0.3009
 5344SOL     OW28090   2.717   6.703   1.532  0.1163 -0.2483 -0.1768
 5344SOL    HW128091   2.721   6.703   1.432 -0.7882  0.4210 -0.2234
 5344SOL    HW228092   2.797   6.751   1.569 -0.0736  0.4015 -0.6099
 5345SOL     OW28093   2.844   7.224   2.784 -0.1318 -0.5435 -0.1311
 5345SOL    HW128094   2.844   7.159   2.708 -1.6545 -0.9768  0.2206
 5345SOL    HW228095   2.812   7.179   2.867 -1.3621  0.6639  0.0781
 5346SOL     OW28096   2.113   5.044   4.985  0.2401 -0.1816  0.4701
 5346SOL    HW128097   2.096   5.105   4.908  0.6427  0.2019  0.6866
 5346SOL    HW228098   2.211   5.034   4.999  0.1629  0.1410  1.2524
 5347SOL     OW28099   9.062   2.849   0.943  0.2360  0.1660  0.3694
 5347SOL    HW128100   9.059   2.943   0.976  0.4737  0.0617  0.6932
 5347SOL    HW228101   9.126   2.796   0.999 -2.1965 -0.9642  2.1827
 5348SOL     OW28102   8.030   7.539   5.766  0.0902  0.1881 -0.8540
 5348SOL    HW128103   7.974   7.621   5.754 -2.0780 -0.9718  1.0530
 5348SOL    HW228104   8.055   7.503   5.676 -0.6394  1.7762 -1.7240
 5349SOL     OW28105   1.639   8.994   0.114 -0.3369  0.4290  0.1508
 5349SOL    HW128106   1.651   9.014   0.211 -1.4314  0.3546  0.3014
 5349SOL    HW228107   1.631   8.895   0.100 -0.0671  0.4300 -0.0359
 5350SOL     OW28108   1.176   0.444   9.298 -0.2961  0.6988 -0.7038
 5350SOL    HW128109   1.077   0.448   9.314 -0.4448  2.1586 -1.8952
 5350SOL    HW228110   1.218   0.529   9.328  0.6504 -0.0160  0.0295
 5351SOL     OW28111   8.880   4.905   6.013 -0.2471 -0.0182  0.1350
 5351SOL    HW128112   8.893   4.810   5.986 -1.8837  0.0689 -1.0502
 5351SOL    HW228113   8.854   4.959   5.933  0.1787  1.3299  0.8935
 5352SOL     OW28114   8.995   5.368   5.081  0.0456 -0.0281  0.0768
 5352SOL    HW128115   9.090   5.337   5.079  0.3021  0.5934  1.8568
 5352SOL    HW228116   8.992   5.464   5.110 -1.0775  0.1497 -0.6175
 5353SOL     OW28117   7.747   9.820   7.872 -0.0188  0.3738 -0.0817
 5353SOL    HW128118   7.761   9.784   7.965  1.5169  1.0992 -0.0111
 5353SOL    HW228119   7.662   9.784   7.835 -0.7387  0.2165  1.6788
 5354SOL     OW28120   1.891   4.401   0.694 -0.3302  0.3812 -0.2878
 5354SOL    HW128121   1.817   4.442   0.641 -0.9471 -0.2589  0.0785
 5354SOL    HW228122   1.867   4.307   0.718  2.1866 -1.1138 -3.3684
 5355SOL     OW28123   9.959   0.898   5.366  0.1386  0.0892  0.6009
 5355SOL    HW128124  10.050   0.879   5.331  0.3576  1.5087  0.3641
 5355SOL    HW228125   9.919   0.814   5.404  1.5700 -0.5048  0.7994
 5356SOL     OW28126   1.987   7.059   7.859 -0.5137 -0.0043 -0.0261
 5356SOL    HW128127   1.941   7.147   7.852 -0.2515  0.1111 -0.2913
 5356SOL    HW228128   2.062   7.054   7.793  0.1362 -0.0160  0.6961
 5357SOL     OW28129   8.043   6.501   2.574  0.0552  0.0538 -0.5095
 5357SOL    HW128130   8.066   6.567   2.502 -1.1878 -0.9141 -1.8164
 5357SOL    HW228131   7.969   6.441   2.542 -0.3449 -0.5399  1.4978
 5358SOL     OW28132   6.466   7.523   4.576 -0.1799  0.7093 -0.4939
 5358SOL    HW128133   6.526   7.598   4.548 -0.3140  1.1700  0.4395
 5358SOL    HW228134   6.402   7.556   4.645 -1.2495  0.1265 -1.1911
 5359SOL     OW28135   3.085   5.960   0.614  0.6787 -0.7120  0.3494
 5359SOL    HW128136   3.131   5.952   0.525  1.7604 -2.0506  1.0110
 5359SOL    HW228137   2.987   5.943   0.601  0.8040 -0.7538 -0.6170
 5360SOL     OW28138   1.561   9.835   8.365  0.2316  0.6406  0.2669
 5360SOL    HW128139   1.464   9.823   8.386  0.4173 -0.8575  0.3660
 5360SOL    HW228140   1.609   9.871   8.446 -0.1944  1.1221  0.3045
 5361SOL     OW28141   8.649   2.401   3.645  0.0788 -0.2264  0.6712
 5361SOL    HW128142   8.742   2.383   3.678  0.9223  1.6074 -0.5712
 5361SOL    HW228143   8.648   2.395   3.545 -1.4907 -1.6750  0.7550
 5362SOL     OW28144   0.985   1.775   7.702 -0.4852  0.5924 -0.4541
 5362SOL    HW128145   0.932   1.831   7.639  0.1524  1.7503  0.0147
 5362SOL    HW228146   0.982   1.816   7.794  0.6332  0.2972 -0.2794
 5363SOL     OW28147   7.039   0.649   0.392 -0.1456 -0.7810  0.9437
 5363SOL    HW128148   7.057   0.562   0.346 -0.3155 -0.8506  1.0086
 5363SOL    HW228149   6.958   0.640   0.450 -1.0509 -0.1702 -0.1745
 5364SOL     OW28150   5.517   9.981   7.737 -0.0350  0.3466 -0.3217
 5364SOL    HW128151   5.564   9.933   7.663  3.1075  0.5996  1.4483
 5364SOL    HW228152   5.493   9.915   7.809  1.7561  0.9527  0.8457
 5365SOL     OW28153   4.636   8.371   3.115  0.2279  0.8755  0.6093
 5365SOL    HW128154   4.706   8.372   3.043  0.8970  0.0825  1.2397
 5365SOL    HW228155   4.558   8.428   3.086 -0.3588 -0.9603 -1.5932
 5366SOL     OW28156   2.066   5.251   1.630  1.1444  0.7164 -0.0017
 5366SOL    HW128157   2.084   5.301   1.545  2.4997 -0.6117 -0.5072
 5366SOL    HW228158   2.051   5.155   1.610 -0.6435  0.7425  1.0639
 5367SOL     OW28159   9.573   8.909   8.666 -0.2613 -0.3541  0.6388
 5367SOL    HW128160   9.504   8.838   8.678 -0.7246  0.0972  0.6986
 5367SOL    HW228161   9.589   8.956   8.753  0.3025 -0.6202  0.6785
 5368SOL     OW28162   6.963   1.871   2.807 -0.2011 -0.2050 -0.1908
 5368SOL    HW128163   6.967   1.838   2.713  2.4571 -1.2658  0.2449
 5368SOL    HW228164   6.956   1.971   2.808  0.7095 -0.1204 -1.5057
 5369SOL     OW28165   2.951   5.252   9.306  0.1658  0.2013  0.1154
 5369SOL    HW128166   2.966   5.209   9.395 -0.1163  0.6667  0.3910
 5369SOL    HW228167   3.039   5.269   9.262  0.2954 -0.2569  0.1947
 5370SOL     OW28168   0.004   5.519   8.970 -0.4964 -0.1632  0.8229
 5370SOL    HW128169  -0.029   5.613   8.972 -0.4998 -0.1119 -0.7024
 5370SOL    HW228170   0.092   5.513   9.016 -0.5701  0.5543  1.0635
 5371SOL     OW28171   0.019   6.859   4.345  0.2251  0.3639 -0.2574
 5371SOL    HW128172   0.099   6.889   4.294  0.5218 -0.6925 -0.4244
 5371SOL    HW228173   0.030   6.764   4.372 -0.1724  0.7426  1.2961
 5372SOL     OW28174   7.997   0.198   1.485  0.3371 -0.4221  0.1370
 5372SOL    HW128175   7.974   0.109   1.445 -0.6702 -1.4372  2.8514
 5372SOL    HW228176   8.095   0.202   1.503  0.7296 -0.1316 -1.8942
 5373SOL     OW28177   3.363   6.373   9.981 -0.9207  0.5972  0.2924
 5373SOL    HW128178   3.455   6.396   9.950 -0.9162 -0.3660 -0.4303
 5373SOL    HW228179   3.336   6.436  10.054  0.1083  1.2003  0.1668
 5374SOL     OW28180   9.475   6.548   6.381  0.3456 -0.6674 -0.0478
 5374SOL    HW128181   9.430   6.636   6.364 -1.2766 -1.0076  2.1892
 5374SOL    HW228182   9.550   6.535   6.316 -0.2336  1.7629 -1.2479
 5375SOL     OW28183   9.733   9.152   5.087  0.3196 -0.5270 -0.1434
 5375SOL    HW128184   9.736   9.236   5.031 -0.8486 -0.0094  0.5564
 5375SOL    HW228185   9.675   9.084   5.042  0.7129 -0.7111 -0.3731
 5376SOL     OW28186   0.467   2.447   9.347 -0.2611 -0.5772 -0.0754
 5376SOL    HW128187   0.444   2.381   9.419 -1.2191 -0.7211 -0.5098
 5376SOL    HW228188   0.534   2.406   9.286 -0.5957 -1.0279 -0.1442
 5377SOL     OW28189   3.842   7.657   6.354  0.6298  0.1652 -0.0416
 5377SOL    HW128190   3.861   7.710   6.437 -0.2387 -0.4091  0.5402
 5377SOL    HW228191   3.841   7.560   6.377  0.5006 -0.0031 -0.7581
 5378SOL     OW28192   8.254   8.017   2.980  0.5974 -0.0221  0.2119
 5378SOL    HW128193   8.243   7.965   2.895 -0.6885 -0.1609  0.4508
 5378SOL    HW228194   8.349   8.011   3.011  0.8071 -0.9430 -0.5890
 5379SOL     OW28195   0.863   6.204   4.234 -0.4482  0.1783  0.3718
 5379SOL    HW128196   0.946   6.148   4.240 -0.5990 -0.0693  0.1579
 5379SOL    HW228197   0.851   6.235   4.139 -0.4800  0.3972  0.4473
 5380SOL     OW28198   1.692   6.427   6.844 -0.0598 -0.3996  0.1542
 5380SOL    HW128199   1.681   6.474   6.757 -2.7791 -2.0516 -0.4486
 5380SOL    HW228200   1.752   6.348   6.832  1.7783  0.9142  0.4314
 5381SOL     OW28201   1.090   5.010   1.204 -0.4491  0.2064 -0.0737
 5381SOL    HW128202   1.115   5.015   1.107 -0.7913 -1.7257 -0.2831
 5381SOL    HW228203   1.173   5.008   1.260 -0.2465  1.1311 -0.3439
 5382SOL     OW28204   8.465   2.755   1.770  0.1634 -0.5056  0.2679
 5382SOL    HW128205   8.439   2.829   1.833  0.8924 -0.9893  1.1361
 5382SOL    HW228206   8.386   2.733   1.712 -0.7893 -0.6532  1.5929
 5383SOL     OW28207   3.148   4.470   9.484 -0.2133  0.8149 -0.3586
 5383SOL    HW128208   3.121   4.492   9.391 -0.0391  0.8233 -0.4063
 5383SOL    HW228209   3.237   4.512   9.504 -0.3754  1.0346 -0.1016
 5384SOL     OW28210   8.873   2.249   3.678  0.1574  0.8971 -0.7265
 5384SOL    HW128211   8.854   2.158   3.715 -1.3429  0.4628 -2.4716
 5384SOL    HW228212   8.963   2.249   3.636  0.4425  0.4106 -0.1287
 5385SOL     OW28213   8.262   9.647   7.232 -0.1505  0.0954  0.4100
 5385SOL    HW128214   8.274   9.612   7.325  0.9729 -1.9319 -0.4717
 5385SOL    HW228215   8.351   9.673   7.194 -0.4599 -0.1545 -0.5071
 5386SOL     OW28216   7.762   4.538   9.167 -0.0779  0.0285 -0.3589
 5386SOL    HW128217   7.799   4.569   9.254  0.3283 -1.4410  0.0113
 5386SOL    HW228218   7.795   4.445   9.148 -1.7374 -0.4185 -1.1248
 5387SOL     OW28219   8.971   1.360   8.302  0.2749  0.1753 -0.5363
 5387SOL    HW128220   8.979   1.325   8.395  0.3133  2.2234  0.2623
 5387SOL    HW228221   8.937   1.454   8.304  1.8208  0.8210 -2.5124
 5388SOL     OW28222   8.081   1.962   6.228  0.3874  0.1276 -0.0555
 5388SOL    HW128223   7.985   1.988   6.237  0.0880 -1.4357  1.5525
 5388SOL    HW228224   8.088   1.862   6.225  2.0709  0.1874  1.3546
 5389SOL     OW28225   1.681   4.980   6.328  0.0379 -0.5415  0.2238
 5389SOL    HW128226   1.618   5.048   6.292 -0.0804 -0.4801  0.5438
 5389SOL    HW228227   1.683   4.985   6.428  0.2231 -0.8322  0.2375
 5390SOL     OW28228   7.538   9.994   3.904 -0.0466 -1.2042  0.0227
 5390SOL    HW128229   7.491  10.079   3.879  0.1534 -1.5627 -1.6130
 5390SOL    HW228230   7.521   9.974   4.000 -0.2902  0.5693  0.3752
 5391SOL     OW28231   8.680   2.244   7.258  0.2974  0.2571 -0.1650
 5391SOL    HW128232   8.680   2.145   7.246  0.3410  0.5366 -2.7500
 5391SOL    HW228233   8.641   2.267   7.347  1.2898 -2.1185  0.9131
 5392SOL     OW28234   2.817   6.664   3.505  0.1535  0.8517 -0.0741
 5392SOL    HW128235   2.778   6.742   3.456 -0.5074 -0.0507 -1.0078
 5392SOL    HW228236   2.837   6.591   3.441 -0.7509 -0.3624  0.9927
 5393SOL     OW28237   4.931   6.255   1.969  0.2032 -0.0389 -0.0734
 5393SOL    HW128238   5.006   6.196   1.998 -0.1584 -0.7551 -0.5902
 5393SOL    HW228239   4.921   6.331   2.034 -0.8862 -1.8575  1.9311
 5394SOL     OW28240   8.357   6.146   7.762  0.5701 -0.2785  0.0257
 5394SOL    HW128241   8.400   6.107   7.844  1.4074  0.8054  0.1031
 5394SOL    HW228242   8.417   6.133   7.684  0.0673 -0.6991 -0.2977
 5395SOL     OW28243   6.721   9.807   5.227 -0.4819  0.2998  0.0222
 5395SOL    HW128244   6.691   9.848   5.142 -3.4903  0.1808  0.9807
 5395SOL    HW228245   6.722   9.877   5.299  1.5414  0.2886  0.0279
 5396SOL     OW28246   6.745   2.027   3.441 -0.0393 -0.0951 -0.5705
 5396SOL    HW128247   6.666   2.028   3.380  0.1615  0.4998 -0.8235
 5396SOL    HW228248   6.714   2.027   3.536 -0.3440  2.3288 -0.6443
 5397SOL     OW28249   2.416   8.158   2.363  0.5697 -0.3745 -0.2977
 5397SOL    HW128250   2.483   8.088   2.337 -0.4648 -2.0092  1.2574
 5397SOL    HW228251   2.363   8.185   2.283 -1.0412 -3.6270 -0.4025
 5398SOL     OW28252   8.787   1.077   4.434 -0.2034 -0.0869 -0.6478
 5398SOL    HW128253   8.749   1.118   4.517 -1.4024 -0.8185 -0.8358
 5398SOL    HW228254   8.887   1.087   4.436 -0.0032 -2.0807  1.9549
 5399SOL     OW28255   2.668   2.373   7.102  0.3338  0.2303  0.1913
 5399SOL    HW128256   2.697   2.354   7.195 -1.1903  2.1601  1.0880
 5399SOL    HW228257   2.578   2.332   7.086  0.3765  0.3139 -0.2813
 5400SOL     OW28258   0.755   6.647   7.675  0.2389  0.0503 -0.1477
 5400SOL    HW128259   0.842   6.620   7.717  0.1227 -0.2594 -0.1122
 5400SOL    HW228260   0.772   6.722   7.611  0.5501 -0.0737 -0.2138
 5401SOL     OW28261   2.831   8.405   3.011  0.7241 -0.3144  0.3307
 5401SOL    HW128262   2.900   8.369   3.074 -2.6377 -2.7625  2.7872
 5401SOL    HW228263   2.787   8.329   2.963  0.3382  1.2686 -1.8898
 5402SOL     OW28264   9.868   3.335   1.121  0.3278  0.4056 -0.2013
 5402SOL    HW128265   9.819   3.421   1.110 -2.4658 -1.0428  0.5540
 5402SOL    HW228266   9.877   3.314   1.218 -0.5917 -1.0135 -0.4040
 5403SOL     OW28267   8.146   4.393   3.434 -0.2079 -0.1741  0.0240
 5403SOL    HW128268   8.209   4.410   3.357  0.6076  0.4600  0.8265
 5403SOL    HW228269   8.097   4.307   3.418  1.9103 -1.4301  0.0545
 5404SOL     OW28270   3.442   2.943   4.321  0.6843  0.1818 -0.5799
 5404SOL    HW128271   3.512   3.013   4.333  0.1457  0.1360  3.6171
 5404SOL    HW228272   3.477   2.855   4.354 -0.4172 -0.4509 -1.0500
 5405SOL     OW28273   3.130   5.445   4.225 -0.5723  0.0054  0.1803
 5405SOL    HW128274   3.105   5.488   4.311  1.8859  0.0241  0.9350
 5405SOL    HW228275   3.174   5.357   4.242  1.1729  0.6198 -0.9505
 5406SOL     OW28276   5.284   4.111   2.152 -0.4242 -0.0870 -0.0300
 5406SOL    HW128277   5.189   4.124   2.126 -0.9502 -2.1798  0.7707
 5406SOL    HW228278   5.336   4.195   2.132 -2.4489  1.1312 -0.2909
 5407SOL     OW28279   7.775   2.409   0.484  0.6944 -0.1460  0.0626
 5407SOL    HW128280   7.817   2.355   0.556 -0.8656 -1.6238 -0.1126
 5407SOL    HW228281   7.825   2.396   0.399  0.1058 -1.6209 -0.0652
 5408SOL     OW28282   2.083   9.296   1.724 -0.1925 -0.1741  0.4246
 5408SOL    HW128283   2.158   9.361   1.737 -0.0495 -0.3461  0.4584
 5408SOL    HW228284   2.059   9.293   1.627 -0.6648  0.4478  0.5173
 5409SOL     OW28285   5.493   6.687   0.606  0.1030 -0.2478  0.0858
 5409SOL    HW128286   5.504   6.784   0.585  4.4608 -0.7115 -0.0938
 5409SOL    HW228287   5.473   6.676   0.703 -1.6770  0.8514 -0.1292
 5410SOL     OW28288   4.703   4.698   5.015 -0.4877 -0.2670 -0.0725
 5410SOL    HW128289   4.722   4.728   4.922 -1.7363 -1.6153 -0.7840
 5410SOL    HW228290   4.610   4.725   5.041 -0.2098 -0.0450  0.7348
 5411SOL     OW28291   8.107   7.166   6.970  0.7073  0.1251 -0.2013
 5411SOL    HW128292   8.023   7.132   6.929  1.0340  0.5627 -1.2541
 5411SOL    HW228293   8.158   7.090   7.011  0.2934 -0.2896 -0.4628
 5412SOL     OW28294   8.250   2.023   1.681  0.3622 -0.5296  0.3574
 5412SOL    HW128295   8.275   1.938   1.727 -1.2348 -1.2496 -0.0790
 5412SOL    HW228296   8.183   2.073   1.737  0.3296 -0.1865  0.0135
 5413SOL     OW28297   0.555   5.772   6.917  0.0895 -0.5275  0.1957
 5413SOL    HW128298   0.501   5.833   6.976  2.6664  1.9379  0.0715
 5413SOL    HW228299   0.649   5.805   6.911  0.6832 -2.5388 -2.7489
 5414SOL     OW28300   3.450   5.959   5.418 -0.1453  0.0710  0.3598
 5414SOL    HW128301   3.520   5.999   5.477 -0.2568  2.2058 -0.9207
 5414SOL    HW228302   3.470   5.862   5.404  1.2820  0.1284  1.8407
 5415SOL     OW28303   0.351   5.402   8.812 -0.3497 -0.0008 -0.2889
 5415SOL    HW128304   0.349   5.364   8.904  0.3444 -0.5369 -0.4906
 5415SOL    HW228305   0.379   5.331   8.747  1.5194  0.9878 -0.6010
 5416SOL     OW28306   5.801   9.457   2.175  0.4746  0.6165  0.6558
 5416SOL    HW128307   5.720   9.418   2.132  0.2429  2.4170 -0.5753
 5416SOL    HW228308   5.880   9.397   2.158  0.0385  0.4427 -0.8419
 5417SOL     OW28309   2.200   3.097   0.018 -0.1259 -0.2255  0.0325
 5417SOL    HW128310   2.158   3.181   0.054 -0.5730  0.1222 -1.2741
 5417SOL    HW228311   2.297   3.096   0.042  0.0781  1.0932 -0.6732
 5418SOL     OW28312   0.711   8.714   5.869 -0.1687  0.3135 -0.0832
 5418SOL    HW128313   0.661   8.796   5.839 -4.2405 -2.5014 -1.3649
 5418SOL    HW228314   0.722   8.652   5.792  1.4256 -1.1215  1.2614
 5419SOL     OW28315   8.656   0.001   2.860  0.3632 -0.1510  0.3811
 5419SOL    HW128316   8.687   0.088   2.900  1.5776 -0.9273  1.1567
 5419SOL    HW228317   8.564  -0.018   2.893 -0.8219  1.9350 -1.5598
 5420SOL     OW28318   8.497   8.651   6.362  0.1833  0.2780  0.2459
 5420SOL    HW128319   8.515   8.624   6.457  1.3242 -0.5772 -0.2041
 5420SOL    HW228320   8.462   8.745   6.360  1.5446  0.8225  1.3982
 5421SOL     OW28321   3.202   2.718   0.332 -0.3626 -0.1393 -0.0260
 5421SOL    HW128322   3.276   2.700   0.267 -0.3374 -1.4317  0.3416
 5421SOL    HW228323   3.229   2.687   0.423 -0.3375  1.8081  0.6599
 5422SOL     OW28324   8.461   1.071   9.509 -0.6730  0.4063 -0.2748
 5422SOL    HW128325   8.447   1.075   9.410 -0.1782 -1.4463 -0.4199
 5422SOL    HW228326   8.372   1.082   9.555 -0.8687  1.5526 -0.8996
 5423SOL     OW28327   3.642   4.184   0.961  0.2220  0.5021 -0.3505
 5423SOL    HW128328   3.726   4.129   0.964 -0.5440 -0.6122  1.9313
 5423SOL    HW228329   3.640   4.245   1.041 -0.3356  1.7562 -1.3092
 5424SOL     OW28330   1.716   6.221   8.360 -0.2140  0.4065 -0.3001
 5424SOL    HW128331   1.758   6.201   8.271  2.3936  1.1578  0.7133
 5424SOL    HW228332   1.657   6.300   8.353 -2.1279 -1.1370 -1.9478
 5425SOL     OW28333   3.133   3.536   2.874  0.0565  0.3383 -0.6853
 5425SOL    HW128334   3.139   3.628   2.913  1.4412  0.0735 -0.2616
 5425SOL    HW228335   3.182   3.532   2.787 -1.0622  0.3183 -1.3274
 5426SOL     OW28336   0.013   7.622   9.982 -0.0987 -0.0694  0.0157
 5426SOL    HW128337  -0.080   7.622   9.946 -0.7052 -1.5472  1.5055
 5426SOL    HW228338   0.078   7.604   9.908 -1.1804 -1.4661 -0.6104
 5427SOL     OW28339   5.142   2.873   7.178  0.1441 -0.0501  0.1594
 5427SOL    HW128340   5.097   2.931   7.109 -0.3221 -0.7960 -0.1780
 5427SOL    HW228341   5.226   2.834   7.140  0.5861  0.5998  0.4705
 5428SOL     OW28342   3.381   6.647   0.911  0.1121  0.4534 -0.3466
 5428SOL    HW128343   3.420   6.687   0.993 -1.8613  1.9399 -0.1001
 5428SOL    HW228344   3.332   6.563   0.934 -0.8964  1.1594  0.0804
 5429SOL     OW28345   1.578   2.570   6.719  0.2318 -0.0003 -0.1531
 5429SOL    HW128346   1.548   2.511   6.794  0.5507 -2.2072 -1.7272
 5429SOL    HW228347   1.505   2.577   6.651  0.9904 -0.3494 -1.0140
 5430SOL     OW28348   9.853   6.293   6.433 -0.2566  0.2708 -0.1248
 5430SOL    HW128349   9.783   6.262   6.369 -0.0906  1.6105 -0.9650
 5430SOL    HW228350   9.843   6.244   6.520 -1.0240 -0.9204 -0.8768
 5431SOL     OW28351   2.604   6.850   9.631 -0.1424 -0.6755 -0.1117
 5431SOL    HW128352   2.696   6.811   9.619 -0.0017 -0.4563  0.2636
 5431SOL    HW228353   2.592   6.926   9.567  0.5164  0.3244  0.9429
 5432SOL     OW28354   7.783   5.687   1.217  0.5702 -0.4028 -0.1347
 5432SOL    HW128355   7.758   5.679   1.121 -0.6725 -1.1526  0.2336
 5432SOL    HW228356   7.847   5.615   1.242  1.4290  0.2032 -0.5531
 5433SOL     OW28357   0.463   9.258   4.515 -0.0315  0.5691 -0.1026
 5433SOL    HW128358   0.527   9.258   4.591 -0.7875  0.6420  0.5350
 5433SOL    HW228359   0.401   9.180   4.523  0.1809  0.3169 -0.8873
 5434SOL     OW28360  -0.003   0.589   4.022 -0.1301  0.2984  0.3371
 5434SOL    HW128361   0.030   0.526   3.952  0.9750  2.3911 -1.0987
 5434SOL    HW228362   0.072   0.649   4.051 -0.7795 -0.0107  2.7477
 5435SOL     OW28363   3.925   0.853   0.915  0.5782  0.2751 -0.0572
 5435SOL    HW128364   3.884   0.941   0.892  0.9001  0.4630  0.0804
 5435SOL    HW228365   4.011   0.869   0.965  0.3407 -0.1188  0.4716
 5436SOL     OW28366   6.965   5.975   8.112  0.2567  0.3052  0.1339
 5436SOL    HW128367   6.889   5.988   8.175 -0.5005  0.4052 -0.7889
 5436SOL    HW228368   6.959   5.885   8.070  1.9795 -0.6262  1.8043
 5437SOL     OW28369   7.757   7.830   1.634 -0.3781  0.3079 -0.2829
 5437SOL    HW128370   7.664   7.868   1.638 -0.2203  0.9102 -2.1781
 5437SOL    HW228371   7.756   7.737   1.672 -1.6018  0.5820  0.3952
 5438SOL     OW28372   5.788   9.748   3.758  0.1499 -0.6053 -0.2425
 5438SOL    HW128373   5.786   9.781   3.664 -0.7679 -1.2817 -0.4604
 5438SOL    HW228374   5.737   9.663   3.765  0.1554 -0.5258  0.8878
 5439SOL     OW28375   1.783   4.623   9.620  0.2284 -0.0776  0.2938
 5439SOL    HW128376   1.711   4.639   9.688 -0.6636  0.3046 -0.7271
 5439SOL    HW228377   1.829   4.709   9.599 -0.0521 -0.0412 -0.1899
 5440SOL     OW28378   5.195   8.013   2.711  0.4182 -0.3895 -0.4975
 5440SOL    HW128379   5.113   8.052   2.752  1.3431  1.4889 -0.3697
 5440SOL    HW228380   5.255   7.979   2.784  1.1285  1.0660 -0.3791
 5441SOL     OW28381   2.223   0.972   4.073 -0.0195  0.1851 -0.5332
 5441SOL    HW128382   2.213   0.951   4.171 -0.5676 -2.0911 -1.0623
 5441SOL    HW228383   2.291   1.045   4.062  0.8676 -0.3073  1.4754
 5442SOL     OW28384   2.117   7.837   3.139  0.3647  0.1125 -0.9424
 5442SOL    HW128385   2.178   7.767   3.176  0.1808 -0.9144 -2.5334
 5442SOL    HW228386   2.149   7.927   3.167  1.1735 -0.5369  0.3072
 5443SOL     OW28387   2.674   5.635   1.871 -0.3212  0.4113 -0.1045
 5443SOL    HW128388   2.684   5.666   1.966  1.4118  0.0422 -0.1373
 5443SOL    HW228389   2.679   5.535   1.868 -1.0753  0.3814 -0.5206
 5444SOL     OW28390   1.398   4.554   7.415 -0.0601  0.4086 -0.2480
 5444SOL    HW128391   1.357   4.631   7.465 -0.2789  0.9696 -1.2651
 5444SOL    HW228392   1.341   4.473   7.426 -0.4541  0.7009 -0.1249
 5445SOL     OW28393   9.940   9.218   2.609 -0.0388  0.5894  0.0418
 5445SOL    HW128394   9.931   9.246   2.704  0.8413  1.7544 -0.2161
 5445SOL    HW228395  10.033   9.185   2.592 -0.4321 -0.4121 -0.2066
 5446SOL     OW28396   9.290   8.606   3.236  0.6860  0.0250 -0.9281
 5446SOL    HW128397   9.262   8.623   3.141 -3.1297  0.6831  0.2013
 5446SOL    HW228398   9.332   8.516   3.243  0.4760 -0.2808 -3.1189
 5447SOL     OW28399   1.092   8.112   5.213  0.6083 -0.3299  0.2616
 5447SOL    HW128400   1.015   8.074   5.263  0.5374 -0.3196  0.1596
 5447SOL    HW228401   1.083   8.091   5.116  0.3254  0.3522  0.1385
 5448SOL     OW28402   1.951   4.391   6.140 -0.0370  0.1860 -0.0851
 5448SOL    HW128403   1.855   4.388   6.114 -0.3706  0.5153  1.0698
 5448SOL    HW228404   1.963   4.346   6.229  0.5001  2.0851  0.8504
 5449SOL     OW28405   8.583   7.332   2.182 -0.3990 -0.1292  0.2024
 5449SOL    HW128406   8.552   7.381   2.263  0.2652 -0.0772  0.4252
 5449SOL    HW228407   8.670   7.286   2.202 -0.9803 -1.3562 -0.0134
 5450SOL     OW28408   6.720   0.127   1.950  0.4894 -0.1660  0.8053
 5450SOL    HW128409   6.717   0.188   1.870  1.0240 -0.9747  0.1643
 5450SOL    HW228410   6.719   0.182   2.033  0.5601  0.7084  0.2387
 5451SOL     OW28411   0.594   8.963   5.477  0.7243 -0.4866  0.0161
 5451SOL    HW128412   0.541   8.911   5.544  1.3624 -1.1827 -0.0237
 5451SOL    HW228413   0.586   9.061   5.498 -1.4190 -0.4996 -0.5999
 5452SOL     OW28414   4.423   5.599  10.003  1.0636  0.4258  0.0338
 5452SOL    HW128415   4.340   5.555  10.038  1.8654 -0.2105  1.1462
 5452SOL    HW228416   4.504   5.552  10.039  1.9172  1.4029 -0.5846
 5453SOL     OW28417   9.444   9.074   5.390 -0.2517 -0.3805 -0.1614
 5453SOL    HW128418   9.515   9.045   5.455  0.2082 -1.6287 -1.2042
 5453SOL    HW228419   9.381   9.136   5.436  1.4466  0.6704  0.8215
 5454SOL     OW28420   0.456   9.332   7.783  0.0895 -0.3037  0.0346
 5454SOL    HW128421   0.441   9.411   7.723 -2.4443 -1.4176 -0.8883
 5454SOL    HW228422   0.473   9.364   7.877  0.0653  1.3547 -0.5113
 5455SOL     OW28423   4.314   1.693   9.272 -1.2530  0.8723  0.2874
 5455SOL    HW128424   4.252   1.634   9.324  1.0372 -2.0439 -0.1257
 5455SOL    HW228425   4.367   1.749   9.335  0.0832 -1.1888  1.0503
 5456SOL     OW28426   4.026   7.382   9.653 -0.0467  0.0856  0.4275
 5456SOL    HW128427   4.031   7.473   9.610  0.6063 -0.5247 -0.8231
 5456SOL    HW228428   3.933   7.365   9.685 -0.3922  0.8232 -0.1736
 5457SOL     OW28429   3.984   3.959   0.595  0.3083  0.0363  0.4429
 5457SOL    HW128430   4.016   3.958   0.501  0.2215  1.5829  0.3926
 5457SOL    HW228431   4.038   3.893   0.649  1.0536 -0.0987 -0.4518
 5458SOL     OW28432   1.179   9.270   5.042 -0.2321  0.3088 -0.1308
 5458SOL    HW128433   1.237   9.351   5.029 -1.6515  1.0997 -1.7519
 5458SOL    HW228434   1.101   9.275   4.980 -1.1856 -1.5411  0.8834
 5459SOL     OW28435   9.285   6.374   8.886  0.1206 -0.2862 -0.3519
 5459SOL    HW128436   9.321   6.466   8.903  0.7839 -0.7956  1.0575
 5459SOL    HW228437   9.336   6.333   8.810  0.0905  0.3538 -0.7282
 5460SOL     OW28438   9.798   2.887   0.810  0.1614  0.1494 -0.0078
 5460SOL    HW128439   9.808   2.816   0.740  1.1168  1.0744 -0.8234
 5460SOL    HW228440   9.797   2.844   0.900 -0.5466 -1.0106 -0.5550
 5461SOL     OW28441   9.517   3.621   7.724 -0.4406 -0.1630  0.2474
 5461SOL    HW128442   9.515   3.571   7.638 -0.0399 -4.0999  2.4082
 5461SOL    HW228443   9.446   3.586   7.785 -0.1740  1.9674  1.8586
 5462SOL     OW28444   3.778   7.080   1.987 -0.2264 -0.3846  0.0119
 5462SOL    HW128445   3.685   7.088   1.950  0.2218 -0.8014 -1.2514
 5462SOL    HW228446   3.833   7.158   1.957 -0.4745  0.4623  1.7197
 5463SOL     OW28447   8.246   5.594   0.785  0.1868  0.3287 -0.1252
 5463SOL    HW128448   8.333   5.638   0.764 -0.0730 -0.1545 -2.3385
 5463SOL    HW228449   8.174   5.633   0.727 -0.5469 -1.1938 -0.2683
 5464SOL     OW28450   7.122   7.174   5.316 -0.3925  0.4433 -0.3394
 5464SOL    HW128451   7.218   7.146   5.319 -0.8063 -0.9497  0.4663
 5464SOL    HW228452   7.073   7.117   5.249 -1.1536 -0.4828  0.9905
 5465SOL     OW28453   3.857   1.026   4.569 -0.1129 -0.3385 -0.1860
 5465SOL    HW128454   3.807   1.034   4.483 -0.1931 -1.6750 -0.2757
 5465SOL    HW228455   3.884   0.930   4.584  2.6179  0.3591 -0.2709
 5466SOL     OW28456   0.881   1.660   4.334  0.6105 -0.1393 -0.2538
 5466SOL    HW128457   0.878   1.576   4.387 -1.0836  0.1697  0.1522
 5466SOL    HW228458   0.883   1.637   4.236  3.3211 -0.6917 -0.1051
 5467SOL     OW28459   5.705   1.097   0.290  0.2290 -0.0288  0.2588
 5467SOL    HW128460   5.794   1.066   0.255 -0.2770 -1.5889  0.3254
 5467SOL    HW228461   5.719   1.145   0.376  1.2790  2.0920 -1.0526
 5468SOL     OW28462   8.080   3.888   2.413  0.5514 -0.0172  0.1256
 5468SOL    HW128463   8.015   3.814   2.422  0.2005  0.1363 -1.0250
 5468SOL    HW228464   8.168   3.861   2.452  0.1729 -0.7076  0.4951
 5469SOL     OW28465   1.579   2.737   7.624  0.1119 -0.0841 -0.1760
 5469SOL    HW128466   1.609   2.810   7.563  1.4538 -0.3918  0.0938
 5469SOL    HW228467   1.659   2.698   7.670 -0.8590  0.0738  1.6849
 5470SOL     OW28468   1.700   8.687   6.616 -0.0846 -0.0264  0.2806
 5470SOL    HW128469   1.678   8.597   6.578 -2.6853  0.8598 -0.4254
 5470SOL    HW228470   1.792   8.713   6.587  0.1842 -1.8789 -0.6314
 5471SOL     OW28471   5.131   0.407   8.092  0.0209  0.8159 -0.0151
 5471SOL    HW128472   5.135   0.356   8.006 -3.6324  1.3667 -0.6047
 5471SOL    HW228473   5.139   0.343   8.169  0.2098 -0.0553 -0.7456
 5472SOL     OW28474   2.209   5.316   5.729  0.1588  0.4678 -0.1009
 5472SOL    HW128475   2.231   5.372   5.649 -0.4456  0.3516 -0.3480
 5472SOL    HW228476   2.220   5.371   5.812 -2.5477  1.6159 -0.4737
 5473SOL     OW28477   3.629   6.054   8.962 -0.2204  0.2408 -0.1102
 5473SOL    HW128478   3.681   5.973   8.989  1.3811  1.0015 -0.8577
 5473SOL    HW228479   3.620   6.057   8.862 -0.4398  0.8636 -0.0781
 5474SOL     OW28480   0.537   3.192   1.825  0.3995 -0.4222  0.0510
 5474SOL    HW128481   0.439   3.174   1.820  0.1467  0.9229 -0.0803
 5474SOL    HW228482   0.559   3.235   1.912  0.6510  0.5582 -0.4926
 5475SOL     OW28483   6.998   6.783   5.879 -0.1606  0.2653  0.2747
 5475SOL    HW128484   7.010   6.735   5.792  0.2482 -0.1539  0.5575
 5475SOL    HW228485   6.912   6.833   5.878 -0.6241 -0.5443  0.0151
 5476SOL     OW28486   3.198   7.365   7.813  0.1997 -0.0611  0.3860
 5476SOL    HW128487   3.203   7.460   7.784  0.4845 -0.1808  0.0276
 5476SOL    HW228488   3.192   7.360   7.913 -0.0684  0.3371  0.3922
 5477SOL     OW28489   3.198   1.672   0.184  0.3715 -0.6610 -0.0134
 5477SOL    HW128490   3.099   1.661   0.189  0.2515  0.4864  0.1149
 5477SOL    HW228491   3.221   1.736   0.111  1.0443 -1.1726 -0.2618
 5478SOL     OW28492   1.797   7.468   7.637 -0.2575  0.1155  0.0016
 5478SOL    HW128493   1.739   7.402   7.590 -1.4643  0.9368  0.3129
 5478SOL    HW228494   1.881   7.481   7.586  0.3836 -2.2887  0.3613
 5479SOL     OW28495   6.568   2.372   2.765  0.0340 -0.0675  0.1078
 5479SOL    HW128496   6.597   2.397   2.673  2.2287 -1.3307  0.4285
 5479SOL    HW228497   6.486   2.315   2.760 -0.3716  0.6108 -1.0162
 5480SOL     OW28498   1.050   6.468   4.768  0.2567  0.1541 -0.2212
 5480SOL    HW128499   1.056   6.528   4.688  2.1696  0.4424  0.1222
 5480SOL    HW228500   1.061   6.522   4.851 -1.2447 -0.2231  0.2402
 5481SOL     OW28501   4.267   1.058   1.789 -0.2393 -0.0205 -0.3491
 5481SOL    HW128502   4.255   1.124   1.863 -0.4371 -0.8193  0.3495
 5481SOL    HW228503   4.267   0.965   1.828  1.4098 -0.3633 -1.1281
 5482SOL     OW28504   8.458   4.747   3.654  0.1048 -0.1705 -0.1924
 5482SOL    HW128505   8.373   4.799   3.654 -0.7468 -1.5490 -0.0856
 5482SOL    HW228506   8.499   4.750   3.746 -1.6626 -2.4599  0.6963
 5483SOL     OW28507   5.757   5.532   1.216  0.4577  0.1912 -0.0113
 5483SOL    HW128508   5.699   5.582   1.152  0.9550  0.9966  0.1602
 5483SOL    HW228509   5.703   5.460   1.260  0.9469 -2.7183 -3.8645
 5484SOL     OW28510   7.082   1.696   3.216  0.1746 -0.2723 -0.2930
 5484SOL    HW128511   7.025   1.702   3.298 -2.6194 -3.3271 -1.8708
 5484SOL    HW228512   7.034   1.739   3.139  2.0668  1.1616 -0.6959
 5485SOL     OW28513   3.496   2.264   6.735 -0.0004  0.2026  0.1140
 5485SOL    HW128514   3.440   2.211   6.799 -0.7762 -0.0247 -0.7439
 5485SOL    HW228515   3.569   2.311   6.785 -0.0870 -0.6477  1.0530
 5486SOL     OW28516   7.389   6.952   4.720  0.2518  0.0746  0.0474
 5486SOL    HW128517   7.338   7.002   4.649  1.1770  0.1415 -0.5788
 5486SOL    HW228518   7.433   7.018   4.781 -0.7934  0.0171  0.8763
 5487SOL     OW28519   0.249   1.867   2.936  0.0146  0.4119  0.5987
 5487SOL    HW128520   0.178   1.901   2.875  0.7367 -1.9257 -1.6462
 5487SOL    HW228521   0.320   1.936   2.947 -0.5973  1.2232 -0.4515
 5488SOL     OW28522   8.574   2.566   8.598 -0.9243  0.1273  0.5870
 5488SOL    HW128523   8.591   2.552   8.500 -2.4439  0.9550  0.1783
 5488SOL    HW228524   8.523   2.489   8.635  0.0496 -0.4033  0.8451
 5489SOL     OW28525   9.108   9.575   0.174  0.2715  0.0033  0.1194
 5489SOL    HW128526   9.124   9.540   0.082 -0.3254 -2.0334  0.7650
 5489SOL    HW228527   9.062   9.505   0.229 -1.3182  1.9598  1.3420
 5490SOL     OW28528   5.103   9.536   3.681 -0.5665  0.0699  0.4145
 5490SOL    HW128529   5.055   9.460   3.639 -1.4998  0.6114  0.4944
 5490SOL    HW228530   5.147   9.591   3.609 -1.9973  0.8810  0.1338
 5491SOL     OW28531   0.560   8.155   8.842 -0.5573 -0.0510  0.3736
 5491SOL    HW128532   0.476   8.105   8.861 -0.8943 -0.5008 -2.0414
 5491SOL    HW228533   0.550   8.204   8.755  1.0772  1.2528  0.8892
 5492SOL     OW28534   3.867   1.927   1.410  0.4376 -0.4229 -0.0437
 5492SOL    HW128535   3.924   1.987   1.353 -0.2846  0.0972 -0.2145
 5492SOL    HW228536   3.792   1.890   1.355  0.0233 -0.3061  0.4499
 5493SOL     OW28537   4.960   8.754   4.673 -0.5760 -0.2050 -0.0989
 5493SOL    HW128538   4.996   8.847   4.681  0.3582 -0.6360  0.9262
 5493SOL    HW228539   4.861   8.757   4.658 -0.5690  0.9385  0.0392
 5494SOL     OW28540   1.124   0.704   4.298 -0.4004  0.5682  0.1739
 5494SOL    HW128541   1.026   0.702   4.283 -0.0829 -0.1136 -2.0616
 5494SOL    HW228542   1.162   0.614   4.277  1.0578  1.6047 -1.8068
 5495SOL     OW28543   1.839   4.672   3.146  0.3983 -0.0548 -0.4424
 5495SOL    HW128544   1.789   4.614   3.211  1.8829  0.6453  1.3919
 5495SOL    HW228545   1.781   4.691   3.067 -1.4212 -1.0640  0.6007
 5496SOL     OW28546   1.918   7.580   1.731  1.0195  0.5849 -0.1007
 5496SOL    HW128547   1.834   7.543   1.692  2.4785 -3.3626  0.3023
 5496SOL    HW228548   1.903   7.600   1.828  1.0324 -1.8734  0.4322
 5497SOL     OW28549   4.912   2.707   6.444 -0.5022  0.0996  0.0883
 5497SOL    HW128550   4.935   2.805   6.444 -0.1526  0.0362 -1.2547
 5497SOL    HW228551   4.958   2.663   6.367  0.6599 -1.4520  1.6336
 5498SOL     OW28552   2.036   8.366   1.357 -0.1384 -0.6072 -0.4303
 5498SOL    HW128553   2.040   8.368   1.257  1.8890 -1.9687 -0.3873
 5498SOL    HW228554   2.124   8.396   1.394 -1.1246  0.6205  0.9818
 5499SOL     OW28555   8.179   4.245   6.081 -0.4945  0.1688  0.2433
 5499SOL    HW128556   8.217   4.273   5.993 -1.3595  1.0394  0.1364
 5499SOL    HW228557   8.203   4.312   6.151  1.8648 -1.5315  1.1076
 5500SOL     OW28558   4.643   1.088   3.509  0.2777  0.0133 -0.1465
 5500SOL    HW128559   4.595   1.084   3.597  0.9786 -1.1723  0.1971
 5500SOL    HW228560   4.683   1.178   3.496  1.8050 -0.3818  1.6368
 5501SOL     OW28561   3.930   4.075   2.378  0.0631  0.1851 -0.4257
 5501SOL    HW128562   3.848   4.042   2.333  0.3917 -0.2267 -0.7296
 5501SOL    HW228563   3.969   4.003   2.435  1.3854 -0.3416 -1.9375
 5502SOL     OW28564   4.775   4.308   9.426 -0.2031  0.1170 -0.2227
 5502SOL    HW128565   4.681   4.273   9.428  0.0343 -0.4953  0.3478
 5502SOL    HW228566   4.808   4.309   9.331 -0.9449  0.7735 -0.4801
 5503SOL     OW28567   3.968   7.024   0.503  0.3221 -0.1795 -0.1225
 5503SOL    HW128568   3.952   6.989   0.411  2.6773 -0.5316 -0.4319
 5503SOL    HW228569   3.918   6.967   0.569 -2.2232  0.7108 -1.2302
 5504SOL     OW28570   8.275   9.447   4.196 -0.2313  0.2937 -0.2263
 5504SOL    HW128571   8.237   9.370   4.145 -0.2458 -0.3951  0.8231
 5504SOL    HW228572   8.202   9.510   4.221 -0.8296 -1.4064  2.4478
 5505SOL     OW28573   2.520   3.892   5.833 -0.0227  0.1783 -0.2249
 5505SOL    HW128574   2.512   3.972   5.892 -1.6788 -0.5239  0.5157
 5505SOL    HW228575   2.521   3.809   5.890  0.9420 -0.3792 -1.0323
 5506SOL     OW28576   0.389   1.484   3.135 -0.7274 -0.4291  0.2754
 5506SOL    HW128577   0.455   1.409   3.129 -0.7967 -0.4254 -0.5972
 5506SOL    HW228578   0.385   1.531   3.047 -0.9957  0.3342  0.6981
 5507SOL     OW28579   3.044   3.303   6.390 -0.3930  0.4434  0.6855
 5507SOL    HW128580   2.960   3.286   6.441 -0.9352 -1.8189 -0.9229
 5507SOL    HW228581   3.108   3.228   6.405 -0.2077  0.1980 -1.2478
 5508SOL     OW28582   7.263   1.957   3.284 -0.0314  0.8897 -0.2993
 5508SOL    HW128583   7.288   1.963   3.381  0.4529  0.3096 -0.3833
 5508SOL    HW228584   7.181   1.902   3.274  0.0312  0.7850 -0.2346
 5509SOL     OW28585   8.186   5.982   3.980 -0.0238  0.3163 -0.3469
 5509SOL    HW128586   8.175   5.887   4.007  0.0628  0.1569 -0.8628
 5509SOL    HW228587   8.212   6.037   4.059 -1.2543  0.1140  0.2064
 5510SOL     OW28588   4.565   9.801   0.713 -0.3641  0.9540  0.2246
 5510SOL    HW128589   4.613   9.885   0.689 -0.5533  0.9300 -0.2393
 5510SOL    HW228590   4.630   9.734   0.750  0.1436  0.5243 -1.4154
 5511SOL     OW28591   4.501   9.458  10.030 -0.1055  0.9805  0.2682
 5511SOL    HW128592   4.497   9.533  10.095  0.1795 -0.0783  1.5146
 5511SOL    HW228593   4.543   9.378  10.073 -2.7995 -0.7583 -0.1919
 5512SOL     OW28594   0.780   4.585   4.289 -0.6844  0.2207  0.1610
 5512SOL    HW128595   0.690   4.544   4.271 -0.9899  0.6800  0.6215
 5512SOL    HW228596   0.851   4.518   4.270 -1.1089 -0.0547 -0.4996
 5513SOL     OW28597   9.690   6.757   0.537  0.4923 -0.3747 -0.0468
 5513SOL    HW128598   9.598   6.781   0.507  0.0312 -0.4186  1.2726
 5513SOL    HW228599   9.757   6.816   0.491 -0.1443 -0.7225 -1.4303
 5514SOL     OW28600   7.935   7.942   2.543 -0.4306 -0.0360 -0.1320
 5514SOL    HW128601   7.894   7.856   2.513 -0.0060  0.3331 -1.8187
 5514SOL    HW228602   7.865   8.014   2.544 -0.1394  0.2789 -1.6646
 5515SOL     OW28603   7.092   4.701   1.529  0.1387 -0.6677  0.0277
 5515SOL    HW128604   7.147   4.628   1.489 -0.5321  0.0659 -2.2876
 5515SOL    HW228605   7.002   4.666   1.553  0.1279 -0.8107 -0.2285
 5516SOL     OW28606   2.563   7.555   5.801 -0.0897  0.0311 -0.4892
 5516SOL    HW128607   2.536   7.531   5.708 -2.5722  0.6241  0.0461
 5516SOL    HW228608   2.640   7.619   5.798  1.0202 -1.3421 -2.0702
 5517SOL     OW28609   4.860   0.861   7.875  0.1556  0.4216  0.3720
 5517SOL    HW128610   4.896   0.775   7.838  1.5713  0.3096  1.9569
 5517SOL    HW228611   4.935   0.914   7.914 -1.0744  1.2118  1.6927
 5518SOL     OW28612   1.573   2.398   7.324 -0.3960 -0.1637 -0.0247
 5518SOL    HW128613   1.616   2.310   7.344 -0.9255 -0.1857  1.0250
 5518SOL    HW228614   1.488   2.383   7.273 -0.1661 -0.2208 -0.3953
 5519SOL     OW28615   8.832   8.682   6.578  0.7018 -0.1726  0.3940
 5519SOL    HW128616   8.925   8.678   6.615  1.4736 -0.7954 -1.5411
 5519SOL    HW228617   8.825   8.758   6.513  0.0815 -0.5990 -0.0433
 5520SOL     OW28618   7.763   0.038   1.129 -0.0402 -0.4043  0.2435
 5520SOL    HW128619   7.799   0.026   1.222  1.0981 -3.5736 -0.5489
 5520SOL    HW228620   7.825   0.097   1.077 -0.1976  0.6370  1.2332
 5521SOL     OW28621   9.543   2.159   8.921 -0.2680 -0.0600 -0.5310
 5521SOL    HW128622   9.473   2.089   8.927 -0.0803 -0.2991 -1.1666
 5521SOL    HW228623   9.605   2.140   8.845  0.7852 -0.1207  0.3101
 5522SOL     OW28624   3.376   8.709   2.633  0.3593  0.1116 -0.3445
 5522SOL    HW128625   3.407   8.741   2.723  1.4291  0.3328 -0.7885
 5522SOL    HW228626   3.347   8.786   2.578 -1.5710 -0.1537  0.2837
 5523SOL     OW28627   2.057   7.726   7.366 -0.5185  0.0813  0.0669
 5523SOL    HW128628   2.030   7.741   7.461 -0.3503 -0.1889  0.1583
 5523SOL    HW228629   2.144   7.677   7.363 -0.3314  0.4246 -0.2274
 5524SOL     OW28630   4.605   7.143   3.878 -0.0986  0.3046 -0.2178
 5524SOL    HW128631   4.517   7.126   3.922 -0.3779  2.0843 -0.0393
 5524SOL    HW228632   4.667   7.190   3.942 -0.4938  2.8591 -1.6343
 5525SOL     OW28633   9.429   0.221   8.032  0.2894 -0.2826 -0.0123
 5525SOL    HW128634   9.413   0.219   8.130 -2.0414  1.5784 -0.2786
 5525SOL    HW228635   9.527   0.221   8.013  0.7660 -3.5860  2.1808
 5526SOL     OW28636   1.910   7.479   5.825 -0.1710  0.3018  0.0949
 5526SOL    HW128637   1.936   7.388   5.793  0.8269  0.7062 -0.2658
 5526SOL    HW228638   1.822   7.505   5.785 -2.1306 -1.8724  2.8512
 5527SOL     OW28639   6.150   9.352   3.402  0.5549 -0.7958  0.0475
 5527SOL    HW128640   6.096   9.303   3.334 -0.0053 -1.6767  1.1113
 5527SOL    HW228641   6.175   9.442   3.367  1.6956 -1.8681 -1.9944
 5528SOL     OW28642   0.750   7.304   3.914 -0.2974  0.4434 -0.5476
 5528SOL    HW128643   0.692   7.275   3.990 -0.7913  1.4557 -0.5246
 5528SOL    HW228644   0.823   7.237   3.900  0.4481  0.7836  1.5376
 5529SOL     OW28645   0.142   5.297   1.194  0.0357 -0.1700 -0.1214
 5529SOL    HW128646   0.146   5.383   1.144  0.7078 -1.1192 -1.7555
 5529SOL    HW228647   0.056   5.250   1.173  0.9962 -1.2977 -1.6761
 5530SOL     OW28648   4.376   2.272   0.722  0.8013 -0.0988 -0.2307
 5530SOL    HW128649   4.457   2.245   0.670  1.2084 -0.7107  0.7207
 5530SOL    HW228650   4.401   2.337   0.793  0.2865  0.4992 -0.5837
 5531SOL     OW28651   2.288   6.870   2.673  0.4963 -0.5902  0.2456
 5531SOL    HW128652   2.271   6.814   2.593  1.2232  0.2219 -0.4919
 5531SOL    HW228653   2.304   6.965   2.645 -1.1746  0.0957  1.4968
 5532SOL     OW28654   1.413   0.716   8.810  0.7439  0.4585 -0.0506
 5532SOL    HW128655   1.505   0.717   8.851 -0.3743  1.6329  2.5491
 5532SOL    HW228656   1.371   0.806   8.822 -1.1010 -0.3411 -0.4340
 5533SOL     OW28657   7.224   2.021   1.251 -0.2531  0.1604 -0.0920
 5533SOL    HW128658   7.131   2.057   1.249 -0.3188  0.0533  0.9489
 5533SOL    HW228659   7.230   1.941   1.190 -0.6282  0.6649 -0.7918
 5534SOL     OW28660   6.710   8.929   6.583 -0.1966  0.4583  0.0713
 5534SOL    HW128661   6.657   9.010   6.560 -0.0478 -0.2726 -3.1241
 5534SOL    HW228662   6.805   8.955   6.602 -0.0630  0.9916 -1.3243
 5535SOL     OW28663   4.164   7.567   1.281  0.5219  0.5506 -0.0198
 5535SOL    HW128664   4.259   7.591   1.302  1.0259 -0.8679 -0.6146
 5535SOL    HW228665   4.108   7.576   1.363  1.6487 -0.9333  0.9374
 5536SOL     OW28666   6.883   9.444   7.424  0.7202  0.6465  0.1766
 5536SOL    HW128667   6.838   9.479   7.507  0.5416 -1.5484  1.0431
 5536SOL    HW228668   6.848   9.352   7.405  2.8371  0.0230 -0.7341
 5537SOL     OW28669   4.687   9.894   2.630  0.1203  0.6022  0.1756
 5537SOL    HW128670   4.705   9.908   2.532 -1.1305 -3.9454 -0.8149
 5537SOL    HW228671   4.619   9.960   2.661  1.4877  2.9729 -1.6579
 5538SOL     OW28672   0.305   4.574   3.922 -0.0899 -0.6089  0.0816
 5538SOL    HW128673   0.347   4.608   3.838 -1.4617  1.0301  0.0331
 5538SOL    HW228674   0.374   4.526   3.976  0.8790 -1.4661 -1.8396
 5539SOL     OW28675   9.813   8.351   4.884 -0.4890 -0.2553 -0.5660
 5539SOL    HW128676   9.864   8.265   4.882  1.6832  1.0042 -0.6061
 5539SOL    HW228677   9.791   8.375   4.979 -0.6981 -0.6346 -0.5201
 5540SOL     OW28678   7.496   3.570   7.418 -0.4181  0.2195 -0.0929
 5540SOL    HW128679   7.588   3.555   7.454  0.3372 -0.4420 -2.2444
 5540SOL    HW228680   7.435   3.497   7.451  0.6422 -1.3032 -1.4158
 5541SOL     OW28681   0.072   9.284   3.915  0.0688  0.6661 -0.1740
 5541SOL    HW128682   0.157   9.325   3.949  0.1185  2.2572 -2.1600
 5541SOL    HW228683  -0.002   9.351   3.920 -0.7509 -0.2533  0.1851
 5542SOL     OW28684   8.736   9.645   5.551 -0.1198  0.2729 -0.2359
 5542SOL    HW128685   8.711   9.586   5.474 -0.5362  1.2805 -0.8904
 5542SOL    HW228686   8.677   9.626   5.629  1.3076 -1.8432  0.3860
 5543SOL     OW28687   0.428   1.669   5.994  0.2453  0.1271  0.0709
 5543SOL    HW128688   0.471   1.585   5.962 -1.3065 -1.5120  2.1528
 5543SOL    HW228689   0.421   1.667   6.094 -1.4426  1.9175  0.0198
 5544SOL     OW28690   9.387   8.876   1.415  0.1692  0.2863 -0.0984
 5544SOL    HW128691   9.322   8.804   1.441  0.3674  0.3288  0.5233
 5544SOL    HW228692   9.462   8.878   1.480  1.8097 -1.0413 -1.9104
 5545SOL     OW28693   3.194   5.140   0.235  0.4006  0.2892 -0.1925
 5545SOL    HW128694   3.161   5.140   0.329  0.3385 -0.6662 -0.2066
 5545SOL    HW228695   3.119   5.163   0.173  0.6204  1.6613  0.0454
 5546SOL     OW28696   2.234   9.352   0.872  0.5410 -0.1653  0.5109
 5546SOL    HW128697   2.267   9.359   0.966 -0.6308 -0.9503  1.0045
 5546SOL    HW228698   2.239   9.257   0.842  0.3946 -0.0049 -0.0220
 5547SOL     OW28699   5.033   1.977   9.006 -0.1076  0.1818 -0.8343
 5547SOL    HW128700   5.085   1.900   8.970  0.0600  0.8716 -2.0842
 5547SOL    HW228701   5.026   2.048   8.937 -1.5293  0.6785 -0.1994
 5548SOL     OW28702   6.807   7.237   3.130 -0.7524  0.1915  0.3798
 5548SOL    HW128703   6.891   7.290   3.141 -1.9677  2.6190 -1.7328
 5548SOL    HW228704   6.808   7.192   3.040 -2.0183  0.8447  0.0279
 5549SOL     OW28705   1.353   8.787   8.524 -0.5432  0.2857  0.5744
 5549SOL    HW128706   1.381   8.874   8.483 -1.6221  0.5820  0.4468
 5549SOL    HW228707   1.419   8.716   8.499  0.1377  0.9845  0.3627
 5550SOL     OW28708   5.458   8.277   6.398 -0.0690  0.5099 -0.4087
 5550SOL    HW128709   5.438   8.240   6.489  0.9187  0.0860 -0.3567
 5550SOL    HW228710   5.458   8.202   6.331  0.2426  0.6710 -0.5881
 5551SOL     OW28711   1.553   3.089   4.323 -0.2300 -0.2506 -0.0221
 5551SOL    HW128712   1.521   3.125   4.235 -1.2318  0.0185  0.4412
 5551SOL    HW228713   1.619   3.017   4.307 -0.4251 -0.2221 -1.0061
 5552SOL     OW28714   5.431   1.518   7.004  0.4224  0.1347  0.0885
 5552SOL    HW128715   5.453   1.613   7.026 -0.3544  0.4287 -0.4002
 5552SOL    HW228716   5.515   1.463   7.006  0.7946  0.7303  0.8764
 5553SOL     OW28717   3.950   1.650   2.084 -0.2985 -0.7428 -0.5539
 5553SOL    HW128718   3.863   1.685   2.049  0.0531 -1.0847 -1.8047
 5553SOL    HW228719   4.022   1.668   2.017  0.5363 -0.7445  0.3374
 5554SOL     OW28720   3.639   6.847   2.455 -0.1528  0.1355  0.5909
 5554SOL    HW128721   3.626   6.896   2.541 -0.5386 -0.4140  0.8501
 5554SOL    HW228722   3.570   6.875   2.389  0.5696  1.0750  0.2192
 5555SOL     OW28723   9.512   0.923   0.592 -0.1112  0.2049 -0.3391
 5555SOL    HW128724   9.600   0.931   0.547  0.2671  0.0642  0.3590
 5555SOL    HW228725   9.517   0.852   0.662 -0.9895 -0.3201 -0.7941
 5556SOL     OW28726   3.393   9.756   9.862  0.6709  0.3993  0.1229
 5556SOL    HW128727   3.461   9.797   9.923 -0.0363 -0.5791  1.6076
 5556SOL    HW228728   3.438   9.723   9.779  1.8979  0.4355  0.7584
 5557SOL     OW28729   5.005   3.637   8.947  0.1567  0.1709 -0.3986
 5557SOL    HW128730   4.944   3.650   8.868 -0.2727 -1.6913 -0.3987
 5557SOL    HW228731   4.956   3.587   9.018  1.3908 -0.5067 -0.0169
 5558SOL     OW28732   9.302   5.106   0.288 -0.4889  0.3873 -0.6181
 5558SOL    HW128733   9.228   5.056   0.244  0.1486 -0.5901 -0.5985
 5558SOL    HW228734   9.377   5.043   0.307  1.6403  1.9224 -3.4696
 5559SOL     OW28735   8.737   9.133   5.788  0.3313 -0.1199  0.0815
 5559SOL    HW128736   8.645   9.107   5.758  0.3340  1.6657 -1.4964
 5559SOL    HW228737   8.755   9.089   5.877 -1.5942 -1.3819 -0.0981
 5560SOL     OW28738   8.713   4.477   6.295  0.7860  0.0379  0.2252
 5560SOL    HW128739   8.747   4.551   6.353 -0.1095  0.9097 -0.3405
 5560SOL    HW228740   8.788   4.441   6.240  0.7974  2.0682 -1.1552
 5561SOL     OW28741   4.203   3.095   3.861 -0.0897 -0.3387  0.1198
 5561SOL    HW128742   4.152   3.112   3.777 -0.9710  0.8047  0.8563
 5561SOL    HW228743   4.143   3.110   3.940  0.7445 -1.3155  0.9585
 5562SOL     OW28744   4.719   4.413   8.785 -0.2424  0.0826 -0.3474
 5562SOL    HW128745   4.817   4.423   8.765 -0.1709  0.8792  0.3621
 5562SOL    HW228746   4.701   4.322   8.821  0.7011  0.8677  2.1672
 5563SOL     OW28747   1.031   3.861   4.761  0.5655  0.1680 -0.0476
 5563SOL    HW128748   1.043   3.954   4.795  0.6545  0.1206  0.0476
 5563SOL    HW228749   1.026   3.797   4.837  0.7621  0.0633 -0.1221
 5564SOL     OW28750   3.120   6.169   5.969  0.0397  0.0840  0.1920
 5564SOL    HW128751   3.206   6.212   5.996 -0.4159  1.4209 -0.4355
 5564SOL    HW228752   3.043   6.220   6.008 -0.4643 -1.2396  0.9457
 5565SOL     OW28753   7.321   4.025   8.884 -0.3810 -0.0067 -0.0099
 5565SOL    HW128754   7.327   4.118   8.848 -0.1065  0.6464  1.6783
 5565SOL    HW228755   7.412   3.990   8.904 -0.4363 -0.9098 -1.2852
 5566SOL     OW28756   9.699   8.613   4.652 -0.0475  0.0567 -0.1235
 5566SOL    HW128757   9.674   8.552   4.576  0.0449 -0.7847  0.5073
 5566SOL    HW228758   9.780   8.666   4.627 -0.6519  0.5679 -1.0190
 5567SOL     OW28759   8.133   6.547   9.106 -0.0557 -0.0431 -0.1584
 5567SOL    HW128760   8.201   6.616   9.082 -1.9450  1.8966 -0.0398
 5567SOL    HW228761   8.127   6.539   9.206  1.0436 -1.3019 -0.1785
 5568SOL     OW28762   0.826   2.075   3.010  0.0175  0.0612 -0.6091
 5568SOL    HW128763   0.814   2.076   3.110  2.4097  1.0890 -0.2735
 5568SOL    HW228764   0.754   2.129   2.967  0.2524  1.5265  0.7780
 5569SOL     OW28765   6.562   7.996   4.106 -0.0631  0.3182  0.0323
 5569SOL    HW128766   6.649   7.986   4.154 -0.4338 -0.0281  0.6399
 5569SOL    HW228767   6.513   8.075   4.144 -0.0365  0.4809 -0.2727
 5570SOL     OW28768   4.787   3.989   1.543  0.0346  0.2929  0.1865
 5570SOL    HW128769   4.778   3.929   1.464 -2.2257  0.7322  0.0932
 5570SOL    HW228770   4.821   3.935   1.621 -1.1410 -0.9150 -0.1211
 5571SOL     OW28771   3.504   5.773   7.527 -0.0933  0.1572 -0.4699
 5571SOL    HW128772   3.578   5.793   7.463  0.9748 -0.8590  0.4083
 5571SOL    HW228773   3.473   5.858   7.570 -1.1445  0.9153 -2.6294
 5572SOL     OW28774   0.160   4.172   5.435 -0.2557  0.0938  0.5042
 5572SOL    HW128775   0.070   4.213   5.417 -0.0710  0.4579  0.3941
 5572SOL    HW228776   0.227   4.245   5.447 -0.4656 -0.1338  3.1895
 5573SOL     OW28777   2.355   8.455   6.700 -0.3878  0.0052 -0.5186
 5573SOL    HW128778   2.431   8.422   6.757 -2.0519 -2.2266  0.5218
 5573SOL    HW228779   2.356   8.406   6.613 -1.1315 -0.6735 -0.1504
 5574SOL     OW28780   0.395   3.816   3.042  0.3348  0.7128 -0.1842
 5574SOL    HW128781   0.483   3.808   2.995  0.7668 -0.8110  0.8677
 5574SOL    HW228782   0.322   3.821   2.975  0.8360 -2.6359 -1.0796
 5575SOL     OW28783   2.110   4.977   0.090  0.2248  0.0854 -0.3043
 5575SOL    HW128784   2.116   4.878   0.076 -1.1348  0.0852 -0.9680
 5575SOL    HW228785   2.194   5.009   0.133  0.1598 -1.5482  1.0931
 5576SOL     OW28786   5.044   2.552   6.270 -0.4157 -0.7548 -0.1031
 5576SOL    HW128787   5.015   2.458   6.285  0.1851 -0.9543 -0.2170
 5576SOL    HW228788   5.035   2.576   6.174 -1.6116 -0.3488  0.1020
 5577SOL     OW28789   5.157   6.855   1.556 -0.4185 -0.8262  0.1407
 5577SOL    HW128790   5.089   6.820   1.491  0.5829 -1.0902 -0.7675
 5577SOL    HW228791   5.117   6.856   1.648 -2.1927  0.4841 -0.6014
 5578SOL     OW28792   1.243   0.619   2.348  0.2558  0.5638  0.1993
 5578SOL    HW128793   1.182   0.628   2.269  1.5758 -1.0099 -1.0283
 5578SOL    HW228794   1.263   0.522   2.364  1.1309  0.9635  1.6016
 5579SOL     OW28795   3.306   0.866   3.299 -0.5710  0.6028 -0.0940
 5579SOL    HW128796   3.346   0.775   3.314  1.1117  1.3675  0.1146
 5579SOL    HW228797   3.231   0.858   3.234  0.7987 -0.6683 -1.5703
 5580SOL     OW28798   6.068   4.012   1.505  0.0763  0.5903 -0.1588
 5580SOL    HW128799   6.124   4.094   1.501 -0.8193  1.1849 -0.4791
 5580SOL    HW228800   5.974   4.033   1.480 -0.2034 -0.4956 -0.0839
 5581SOL     OW28801   2.268   0.865   8.515  0.1341 -0.4032 -0.4253
 5581SOL    HW128802   2.258   0.787   8.577  1.2116  0.9747  1.5183
 5581SOL    HW228803   2.187   0.872   8.456 -0.5406 -2.2023  0.2585
 5582SOL     OW28804   5.631   0.259   4.282  0.4061 -0.0265  0.0073
 5582SOL    HW128805   5.642   0.240   4.379  1.5169 -2.6742 -0.6074
 5582SOL    HW228806   5.535   0.252   4.257  0.4671 -2.4515  0.3326
 5583SOL     OW28807   1.793   2.909   0.811 -0.1478 -0.5403 -0.7440
 5583SOL    HW128808   1.710   2.903   0.867 -0.1272  1.0595 -0.5226
 5583SOL    HW228809   1.787   2.845   0.735  0.0941 -3.2266  1.4174
 5584SOL     OW28810   3.862   5.455   7.037 -0.0032 -0.4530  0.5923
 5584SOL    HW128811   3.851   5.374   6.980  0.4216 -0.9943  1.2718
 5584SOL    HW228812   3.939   5.510   7.004  0.2839 -0.8014  0.6874
 5585SOL     OW28813   8.481   5.809   1.520  0.2999 -0.2232 -0.5950
 5585SOL    HW128814   8.450   5.804   1.425  1.1662 -0.3459 -0.8802
 5585SOL    HW228815   8.509   5.903   1.542 -0.5747 -0.0441 -0.2419
 5586SOL     OW28816   6.073   5.338   2.307 -0.0462  0.5117  0.1617
 5586SOL    HW128817   6.135   5.415   2.299  0.7467  0.0218  1.3283
 5586SOL    HW228818   6.095   5.286   2.390 -1.9718  0.2886  0.5694
 5587SOL     OW28819   9.755   9.661   7.335 -0.3801 -0.3655 -0.2274
 5587SOL    HW128820   9.842   9.685   7.292 -1.1811  0.8201 -1.2301
 5587SOL    HW228821   9.772   9.603   7.415  1.3630  0.2835 -0.0946
 5588SOL     OW28822   8.869   3.514   8.578  0.0175  0.2778 -0.2004
 5588SOL    HW128823   8.828   3.426   8.552  0.0593 -0.1957  1.3073
 5588SOL    HW228824   8.852   3.581   8.506 -0.6297 -0.7744 -1.0439
 5589SOL     OW28825   5.277   7.943   4.168  0.3089  0.5416  0.5056
 5589SOL    HW128826   5.362   7.967   4.122 -0.8399 -0.5607 -2.3356
 5589SOL    HW228827   5.276   7.845   4.188 -0.8223  0.2883 -0.7111
 5590SOL     OW28828   7.028   0.133   3.026 -0.1928  0.4444  0.5072
 5590SOL    HW128829   6.928   0.129   3.031 -0.3814  2.7844 -0.8000
 5590SOL    HW228830   7.067   0.090   3.107 -2.2112 -1.6591  0.4327
 5591SOL     OW28831   5.639   1.815   7.251  0.3474 -0.4911 -0.0857
 5591SOL    HW128832   5.592   1.752   7.313 -0.8219 -0.3947 -0.8595
 5591SOL    HW228833   5.737   1.798   7.255  0.1842 -1.2516  0.9429
 5592SOL     OW28834   9.211   3.993   1.738  0.0007  0.4475 -0.1229
 5592SOL    HW128835   9.174   4.047   1.813 -1.3533  0.3749 -0.7370
 5592SOL    HW228836   9.300   4.030   1.711  0.3548  0.6678  1.2961
 5593SOL     OW28837   8.815   1.840   0.351  0.1833  0.4882  0.0133
 5593SOL    HW128838   8.866   1.867   0.270  1.6853 -1.5834  0.2373
 5593SOL    HW228839   8.722   1.815   0.324 -0.0276  1.9796 -0.7230
 5594SOL     OW28840   8.261   2.488   9.485  0.0686  0.1039  0.2362
 5594SOL    HW128841   8.167   2.518   9.469  0.3124  0.6073 -0.2632
 5594SOL    HW228842   8.284   2.497   9.582 -0.1054  0.8114  0.2093
 5595SOL     OW28843   6.617   1.285   5.453  0.5230  0.0541  0.1543
 5595SOL    HW128844   6.694   1.336   5.492 -0.0685  0.3545  0.9452
 5595SOL    HW228845   6.543   1.281   5.520  0.2646 -1.1750 -0.1921
 5596SOL     OW28846   5.077   9.242   4.019 -0.2078 -0.0735 -0.2556
 5596SOL    HW128847   5.163   9.256   3.969  0.5250 -0.7193  0.8237
 5596SOL    HW228848   5.092   9.179   4.094 -1.5202  0.2228  0.2620
 5597SOL     OW28849   4.986   2.956   8.117  0.3767 -0.2572 -0.0463
 5597SOL    HW128850   5.062   3.020   8.107 -0.2690  0.4303 -0.6789
 5597SOL    HW228851   5.010   2.884   8.182  1.4292  0.1564  0.0224
 5598SOL     OW28852   2.733   1.022   5.197  0.3957 -0.3986 -0.6684
 5598SOL    HW128853   2.639   1.043   5.222 -0.0658 -1.4488 -1.4779
 5598SOL    HW228854   2.789   1.013   5.279 -0.1208  0.6184 -0.1966
 5599SOL     OW28855   4.645   4.205   8.029 -0.0273 -0.1877  0.1088
 5599SOL    HW128856   4.743   4.193   8.014 -0.3987 -0.8937 -1.8738
 5599SOL    HW228857   4.612   4.137   8.095  0.0861 -2.6388 -2.2685
 5600SOL     OW28858   1.665   6.622   9.130 -0.5962  0.1488 -0.1613
 5600SOL    HW128859   1.681   6.658   9.222 -1.5571 -0.5775  0.3082
 5600SOL    HW228860   1.705   6.531   9.123  0.1004  0.4933 -0.7022
 5601SOL     OW28861   9.953   1.924   6.932  0.0997  0.2996  0.3153
 5601SOL    HW128862   9.947   1.989   7.007 -0.0541 -2.2058  2.5485
 5601SOL    HW228863   9.868   1.872   6.924  0.1686  0.4190 -1.4937
 5602SOL     OW28864   6.065   1.737   5.598  0.3141  0.7308 -0.4610
 5602SOL    HW128865   6.129   1.813   5.584  0.3912  0.6317 -0.6569
 5602SOL    HW228866   5.994   1.764   5.662  0.9135  0.6347  0.2416
 5603SOL     OW28867   1.731   7.204   1.656  0.4313  0.5401 -0.0385
 5603SOL    HW128868   1.813   7.238   1.611 -0.7177  2.2437 -0.9244
 5603SOL    HW228869   1.696   7.124   1.606  0.0507  1.4560 -1.2732
 5604SOL     OW28870   3.687   1.846   3.648  0.5863  0.0500  0.8576
 5604SOL    HW128871   3.720   1.796   3.728  0.1789 -2.3527 -0.4244
 5604SOL    HW228872   3.749   1.830   3.571 -1.1041 -0.8237 -0.3420
 5605SOL     OW28873   3.141   3.199   2.742  0.1469  0.3481 -0.3301
 5605SOL    HW128874   3.131   3.250   2.656  1.3177  1.3377  0.0993
 5605SOL    HW228875   3.083   3.240   2.812  1.4142  1.4028  0.1333
 5606SOL     OW28876   1.547   3.555   9.300 -0.5161  0.1104  0.1096
 5606SOL    HW128877   1.620   3.491   9.326 -0.9660 -0.4792 -0.0497
 5606SOL    HW228878   1.587   3.641   9.271  0.1656 -0.5042 -0.8039
 5607SOL     OW28879   0.139   3.922   5.548 -0.2579 -0.3582 -0.6492
 5607SOL    HW128880   0.160   4.014   5.515  0.1037  0.2235  1.1457
 5607SOL    HW228881   0.040   3.911   5.556 -0.2453  0.4384  0.6644
 5608SOL     OW28882   8.246   8.139   0.969 -0.0738 -0.2703 -0.8679
 5608SOL    HW128883   8.326   8.187   0.933 -0.9203  0.1108 -2.2780
 5608SOL    HW228884   8.207   8.080   0.898  0.6412 -2.6804  0.6974
 5609SOL     OW28885   4.726   7.798   5.533  0.8165  0.2301 -0.0121
 5609SOL    HW128886   4.687   7.726   5.591 -0.6404 -0.8162 -2.2158
 5609SOL    HW228887   4.670   7.880   5.541 -0.2111 -0.3598 -0.9769
 5610SOL     OW28888   8.698   3.029   0.348 -0.1336 -0.2906  0.1984
 5610SOL    HW128889   8.608   3.057   0.379  0.0720 -0.5258  1.0383
 5610SOL    HW228890   8.765   3.100   0.371  0.0620 -0.5778  0.5309
 5611SOL     OW28891   3.993   3.694   1.206 -0.5114 -0.4934 -0.4027
 5611SOL    HW128892   3.920   3.678   1.139 -2.4912 -2.1434  2.0302
 5611SOL    HW228893   4.077   3.650   1.174 -1.4289 -1.2947 -1.8106
 5612SOL     OW28894   3.264   7.286   5.368 -0.0417 -0.0341  0.7464
 5612SOL    HW128895   3.181   7.298   5.313 -0.5866 -0.3432  1.4931
 5612SOL    HW228896   3.344   7.302   5.311 -0.6313  1.1178  0.2154
 5613SOL     OW28897   3.261   0.754   9.924 -0.1219 -0.0583 -0.0240
 5613SOL    HW128898   3.211   0.781  10.006 -0.8588  1.2724 -0.8728
 5613SOL    HW228899   3.327   0.825   9.901  0.4678 -0.6836 -0.2688
 5614SOL     OW28900   7.747   0.841   0.983  0.3861  0.0903 -0.1849
 5614SOL    HW128901   7.819   0.782   0.946  0.1752 -1.1112  1.2963
 5614SOL    HW228902   7.759   0.851   1.082 -0.2679  1.6010 -0.2420
 5615SOL     OW28903   1.076   5.378   9.627 -0.3974  0.3612 -0.0342
 5615SOL    HW128904   1.158   5.331   9.595  0.5576  0.5359  2.0695
 5615SOL    HW228905   1.007   5.311   9.654 -0.8818  0.2144 -1.5741
 5616SOL     OW28906   0.843   7.570   3.060 -0.0114 -0.5575 -0.2297
 5616SOL    HW128907   0.743   7.577   3.059 -0.0351 -0.9124 -0.4177
 5616SOL    HW228908   0.871   7.491   3.005  0.3569 -0.6147  0.0412
 5617SOL     OW28909   0.750   6.525   6.578 -0.0016  0.3095  0.2601
 5617SOL    HW128910   0.756   6.574   6.666 -1.3973  0.0445  0.5287
 5617SOL    HW228911   0.729   6.429   6.595 -2.6178  0.7224 -0.4008
 5618SOL     OW28912   7.796   2.763   8.361  0.8288  0.7270  0.0270
 5618SOL    HW128913   7.886   2.800   8.338 -0.0843  1.4874 -2.4396
 5618SOL    HW228914   7.743   2.833   8.410  0.3257  1.5419 -1.6458
 5619SOL     OW28915   0.064   9.559   3.058  0.3342 -0.1190  0.2366
 5619SOL    HW128916   0.105   9.479   3.101 -0.4884 -0.5069  0.3214
 5619SOL    HW228917   0.042   9.538   2.963  0.3346  0.0818  0.1921
 5620SOL     OW28918   3.717   4.873   4.435  0.4272 -0.4204  0.3574
 5620SOL    HW128919   3.625   4.838   4.456 -0.2124  1.3609  0.5655
 5620SOL    HW228920   3.764   4.895   4.520  1.5901 -2.5801  0.3305
 5621SOL     OW28921   3.604   9.467   9.960  0.1702 -0.2253  0.0885
 5621SOL    HW128922   3.555   9.548   9.992 -0.8013  0.6364 -3.3410
 5621SOL    HW228923   3.593   9.393  10.027 -3.9718  0.6365  0.5235
 5622SOL     OW28924   5.037   8.736   4.926  0.2039  0.0327 -0.5481
 5622SOL    HW128925   4.996   8.714   4.837  0.6808 -0.6087 -0.6162
 5622SOL    HW228926   5.135   8.751   4.914  0.2795 -0.1264 -0.1147
 5623SOL     OW28927   6.135   1.482   5.548 -0.3728 -0.1122  0.2731
 5623SOL    HW128928   6.129   1.455   5.452  0.0159 -1.1197  0.5316
 5623SOL    HW228929   6.087   1.569   5.560  0.4455  0.5449 -1.0272
 5624SOL     OW28930   8.813   7.470   3.524 -0.1655  0.5342 -0.4725
 5624SOL    HW128931   8.744   7.541   3.519  0.6197  1.4423  1.1264
 5624SOL    HW228932   8.775   7.384   3.489 -1.9606  1.1055  0.0336
 5625SOL     OW28933   5.159   9.585   8.444 -0.0567 -0.2747 -0.0282
 5625SOL    HW128934   5.154   9.626   8.353 -1.4473  0.7653  0.4927
 5625SOL    HW228935   5.076   9.607   8.495 -0.0305 -2.2205  0.9267
 5626SOL     OW28936   3.555   1.534   0.222  0.2060 -0.1309  0.1419
 5626SOL    HW128937   3.551   1.508   0.126 -0.9374  1.1834 -0.1734
 5626SOL    HW228938   3.470   1.508   0.268  0.5246 -0.2488  0.6784
 5627SOL     OW28939   3.535   5.781   0.730  0.2706 -0.0677 -0.1165
 5627SOL    HW128940   3.447   5.824   0.709  0.4277 -1.5219 -4.1598
 5627SOL    HW228941   3.519   5.693   0.776 -0.3913 -0.3294 -0.8425
 5628SOL     OW28942   3.131   5.704   7.179  0.2283  0.1666 -0.0241
 5628SOL    HW128943   3.065   5.651   7.126  0.3696 -1.2103  1.1290
 5628SOL    HW228944   3.178   5.769   7.119 -0.4849 -0.5057 -1.3303
 5629SOL     OW28945   1.466   6.747   2.943 -0.5178  0.0919  0.5314
 5629SOL    HW128946   1.502   6.727   3.034  0.6807 -0.1555  0.0052
 5629SOL    HW228947   1.448   6.661   2.895  0.9048  0.2458 -0.2710
 5630SOL     OW28948   8.235   8.212   8.397  0.0738  0.0411  0.2215
 5630SOL    HW128949   8.194   8.145   8.336  2.4418 -0.4276 -0.9144
 5630SOL    HW228950   8.192   8.301   8.383 -1.2695 -0.6596 -0.1534
 5631SOL     OW28951   1.272   7.138   3.067 -0.3293  0.0586  0.2166
 5631SOL    HW128952   1.318   7.221   3.034 -0.2983 -0.4153 -0.9532
 5631SOL    HW228953   1.278   7.067   2.997  0.4903 -1.2533  1.6019
 5632SOL     OW28954   3.262   8.972   2.617  0.4034  0.3759  0.4441
 5632SOL    HW128955   3.168   8.940   2.604  0.3651  0.4977  0.4256
 5632SOL    HW228956   3.273   9.005   2.711  0.0985  1.4901  0.0925
 5633SOL     OW28957   5.242   8.052   4.415 -0.3047 -0.2339  0.6527
 5633SOL    HW128958   5.257   8.043   4.317  2.0860  2.8287  0.6836
 5633SOL    HW228959   5.154   8.096   4.432 -0.0163  0.6723 -0.1754
 5634SOL     OW28960   9.208   8.696   1.535  0.6263 -0.4610 -0.4747
 5634SOL    HW128961   9.144   8.768   1.561  1.5169  0.3145 -0.4031
 5634SOL    HW228962   9.164   8.607   1.545 -1.2219  0.1605 -2.6056
 5635SOL     OW28963   9.898   0.059   9.836 -1.1762  0.2648  0.4394
 5635SOL    HW128964   9.838   0.084   9.912 -0.4579 -0.6260  1.3030
 5635SOL    HW228965   9.926   0.143   9.788 -2.8802  0.7158  0.1733
 5636SOL     OW28966   5.309   3.330   0.978 -0.1009 -0.0845 -0.4680
 5636SOL    HW128967   5.322   3.328   1.077 -1.4352 -0.8124 -0.3010
 5636SOL    HW228968   5.234   3.268   0.952  0.6371 -0.3824 -1.9932
 5637SOL     OW28969   9.265   0.373   5.645  0.1285  0.5923  0.1715
 5637SOL    HW128970   9.290   0.405   5.736  1.2515 -2.6997  1.1295
 5637SOL    HW228971   9.193   0.304   5.653  0.3007  0.2145 -1.4025
 5638SOL     OW28972   1.166   5.543   7.245  0.0087 -0.0982  0.9562
 5638SOL    HW128973   1.162   5.614   7.315 -0.9461 -0.6345  1.4557
 5638SOL    HW228974   1.127   5.458   7.281  2.2314 -1.2507  0.7830
 5639SOL     OW28975   3.173   2.332   7.321  0.3283  0.3182  0.2756
 5639SOL    HW128976   3.168   2.325   7.421  0.6219 -0.5683  0.2295
 5639SOL    HW228977   3.268   2.321   7.292  0.5673  2.6861  0.0468
 5640SOL     OW28978   0.810   7.443   8.775 -0.1044 -0.1477 -0.8068
 5640SOL    HW128979   0.873   7.442   8.852  0.0649  1.6405 -0.9196
 5640SOL    HW228980   0.751   7.362   8.780  1.4254 -1.2620 -0.0893
 5641SOL     OW28981   5.816   0.765   1.282  0.1114  0.0938  0.0012
 5641SOL    HW128982   5.797   0.831   1.210  1.9146  1.5263  0.7690
 5641SOL    HW228983   5.759   0.785   1.362  0.9543  1.0085  0.3833
 5642SOL     OW28984   2.039   2.282   1.454  0.3605 -0.4611  0.1825
 5642SOL    HW128985   2.104   2.239   1.516 -0.6306 -0.1888  1.4400
 5642SOL    HW228986   2.064   2.377   1.438 -0.3960 -0.0042  1.6469
 5643SOL     OW28987   8.992   1.637   5.839 -0.3632 -0.0434  0.3644
 5643SOL    HW128988   9.065   1.644   5.772 -0.7666  0.0157 -0.0726
 5643SOL    HW228989   8.912   1.689   5.808 -0.7982 -0.5918  0.5486
 5644SOL     OW28990   9.701   1.597   3.145  0.0026 -0.1505  0.5180
 5644SOL    HW128991   9.795   1.630   3.154 -0.8635  2.4380  0.5140
 5644SOL    HW228992   9.649   1.660   3.086 -1.7482 -1.5005  0.5797
 5645SOL     OW28993   7.462   5.848   8.968 -0.7258 -0.0618  0.3005
 5645SOL    HW128994   7.436   5.890   8.881 -0.5259 -0.4381  0.0559
 5645SOL    HW228995   7.553   5.878   8.995 -1.6610  1.7984  1.5025
 5646SOL     OW28996   0.002   6.391   8.077  0.0584  0.5074  0.2442
 5646SOL    HW128997  -0.028   6.300   8.105  2.4108  0.2792  2.2587
 5646SOL    HW228998   0.076   6.383   8.010  1.1334  0.8868  1.3623
 5647SOL     OW28999   9.275   0.418   7.503  0.2565  0.1569 -0.5155
 5647SOL    HW129000   9.209   0.492   7.491  1.2746  1.1199 -0.1674
 5647SOL    HW229001   9.274   0.360   7.421 -1.5541 -0.2856 -0.2113
 5648SOL     OW29002   3.527   6.402   9.457  0.2955  0.8047  0.5397
 5648SOL    HW129003   3.626   6.398   9.439 -0.2164  1.0602 -2.6215
 5648SOL    HW229004   3.485   6.469   9.397 -2.1566 -0.9910  0.1805
 5649SOL     OW29005   3.801   3.142   7.194  0.6311  0.4150  0.2676
 5649SOL    HW129006   3.840   3.118   7.105  0.4837 -0.9831  0.5746
 5649SOL    HW229007   3.711   3.185   7.181 -0.7049 -2.4065 -0.1499
 5650SOL     OW29008   4.127   2.758   1.286 -0.1719  0.4038  0.1578
 5650SOL    HW129009   4.027   2.747   1.283  0.2413 -3.8174 -3.0088
 5650SOL    HW229010   4.156   2.806   1.203  0.5796  0.4065  0.4265
 5651SOL     OW29011   0.846   8.967   7.338 -0.1105  0.2653 -0.2565
 5651SOL    HW129012   0.787   8.929   7.410  1.9602 -0.4677  1.0976
 5651SOL    HW229013   0.880   9.056   7.368  1.5277 -0.4659  0.1335
 5652SOL     OW29014   0.800   2.083   0.117 -0.0910  0.0376 -0.2079
 5652SOL    HW129015   0.872   2.138   0.073 -0.9154  0.5854 -0.8917
 5652SOL    HW229016   0.785   2.117   0.210  1.0868 -0.5910  0.2161
 5653SOL     OW29017   1.433   3.578   4.671  0.2755 -0.3223  0.7248
 5653SOL    HW129018   1.386   3.492   4.650 -1.1380  0.3988  0.8293
 5653SOL    HW229019   1.500   3.563   4.743 -0.5814 -1.1637  1.3587
 5654SOL     OW29020   2.988   8.751   5.936  0.0148 -0.7785  0.2063
 5654SOL    HW129021   3.078   8.742   5.892  0.3086  1.3513  0.3412
 5654SOL    HW229022   2.916   8.740   5.867  0.4783  2.6561 -0.9197
 5655SOL     OW29023   2.400   9.317   5.242 -0.4717  0.2784 -0.5860
 5655SOL    HW129024   2.342   9.241   5.270 -0.7200  0.9854  0.8624
 5655SOL    HW229025   2.494   9.301   5.272 -0.6329  0.7908  0.2105
 5656SOL     OW29026   2.093   8.725   2.702 -0.3314 -0.2086 -0.1393
 5656SOL    HW129027   2.029   8.801   2.689 -0.3854 -0.1652  0.3766
 5656SOL    HW229028   2.124   8.723   2.797  1.3116  0.4669 -0.6331
 5657SOL     OW29029   3.120   2.045   6.117  0.4397  0.2966 -0.2194
 5657SOL    HW129030   3.128   1.945   6.118  0.5044  0.2534 -2.1635
 5657SOL    HW229031   3.133   2.081   6.209 -0.3654 -1.5470  0.6403
 5658SOL     OW29032   5.515   5.452   8.296 -0.4747  0.0528 -0.1582
 5658SOL    HW129033   5.523   5.536   8.242  0.3376 -0.3588 -0.6901
 5658SOL    HW229034   5.438   5.398   8.260 -0.0009 -0.1732 -0.8445
 5659SOL     OW29035   2.293   4.568   2.239  0.2472  0.3277  0.0721
 5659SOL    HW129036   2.338   4.556   2.150  1.2222  0.3829  0.5535
 5659SOL    HW229037   2.355   4.540   2.312 -1.2778 -1.6583  0.6494
 5660SOL     OW29038   9.806   2.101   5.716 -0.0797  0.3228  0.0049
 5660SOL    HW129039   9.805   2.158   5.798 -1.4379  0.8920 -0.4003
 5660SOL    HW229040   9.818   2.159   5.635  1.6263 -0.2652 -0.1881
 5661SOL     OW29041   2.071   1.292   3.759  0.0064 -0.2242 -0.5143
 5661SOL    HW129042   2.072   1.237   3.676 -1.5074  0.5794 -1.0752
 5661SOL    HW229043   2.053   1.233   3.838  0.3124 -0.8137 -0.8849
 5662SOL     OW29044   3.694   0.333   6.876  0.1986  0.5125  0.4224
 5662SOL    HW129045   3.633   0.270   6.828  0.1034 -0.2272  1.4733
 5662SOL    HW229046   3.728   0.288   6.959 -0.3055  2.0505  1.4876
 5663SOL     OW29047   1.296   1.477   1.330  0.2527  0.2851 -0.2866
 5663SOL    HW129048   1.232   1.439   1.396  0.4406  0.4684  0.0015
 5663SOL    HW229049   1.276   1.573   1.314 -0.5273 -0.0499 -1.3836
 5664SOL     OW29050   8.760   6.533   3.619 -1.0664 -0.8929  0.0342
 5664SOL    HW129051   8.825   6.585   3.675 -1.1071 -1.2245  0.3898
 5664SOL    HW229052   8.775   6.555   3.522 -1.4550  0.2150  0.2095
 5665SOL     OW29053   2.958   6.837   9.357  0.7209 -0.0611  0.4795
 5665SOL    HW129054   3.024   6.813   9.285  0.6502  0.5943  0.1963
 5665SOL    HW229055   2.968   6.933   9.380  0.3623 -0.1416  0.9606
 5666SOL     OW29056   2.228   9.040   6.382 -0.4355 -0.1923 -0.3466
 5666SOL    HW129057   2.226   9.008   6.288  2.0986 -1.0132 -0.1633
 5666SOL    HW229058   2.304   8.996   6.431 -1.3116  0.7004  1.8986
 5667SOL     OW29059   3.359   2.258   0.079  0.6676  0.0893 -0.5400
 5667SOL    HW129060   3.432   2.317   0.044  0.5691  0.5706  0.0678
 5667SOL    HW229061   3.398   2.188   0.139  0.8385 -0.7504 -1.6018
 5668SOL     OW29062   1.584   2.529   6.349 -0.0214 -0.2168  0.4355
 5668SOL    HW129063   1.649   2.591   6.392  1.3234 -1.5006  0.3042
 5668SOL    HW229064   1.607   2.434   6.373 -1.2309 -0.7567 -0.4494
 5669SOL     OW29065   1.821   2.748   2.978  0.7777  0.5853 -0.3996
 5669SOL    HW129066   1.895   2.814   2.990 -0.1225  1.4018  0.7009
 5669SOL    HW229067   1.733   2.791   3.001  0.1345 -0.8506 -0.1288
 5670SOL     OW29068   8.222   6.558   9.917  0.2605 -0.3330  0.4813
 5670SOL    HW129069   8.175   6.597   9.838 -0.0486 -2.5372 -0.4511
 5670SOL    HW229070   8.316   6.592   9.920 -1.0151  3.4301  1.8597
 5671SOL     OW29071   7.721   8.468   2.917 -0.0650 -0.4110  0.9560
 5671SOL    HW129072   7.731   8.506   2.825 -1.0172  0.2070  1.0954
 5671SOL    HW229073   7.716   8.543   2.984  2.3882 -0.8881  1.7225
 5672SOL     OW29074   4.956   3.064   9.989  0.0811 -0.4369  0.3967
 5672SOL    HW129075   5.056   3.061   9.983  0.1947  1.3659  1.0729
 5672SOL    HW229076   4.920   2.971   9.978  1.6335 -0.7545 -2.6117
 5673SOL     OW29077   2.504   6.780   3.248 -0.2538  0.5042 -0.4570
 5673SOL    HW129078   2.438   6.766   3.174  0.4315 -1.4814 -0.7182
 5673SOL    HW229079   2.492   6.709   3.317  4.3658 -2.5761 -2.5680
 5674SOL     OW29080   2.670   2.049   2.368  0.4569  0.3983  0.3186
 5674SOL    HW129081   2.653   2.142   2.402 -1.8472  0.5119 -1.0293
 5674SOL    HW229082   2.751   2.049   2.311 -0.3768  1.9404 -0.9205
 5675SOL     OW29083   2.829   1.011   4.502  0.1582  0.1043  0.2597
 5675SOL    HW129084   2.896   1.061   4.557  1.1607  1.7691 -2.3637
 5675SOL    HW229085   2.786   1.073   4.437 -0.4317 -1.9221 -1.3439
 5676SOL     OW29086   2.110   9.623   1.524  0.2541  0.1067 -0.5818
 5676SOL    HW129087   2.100   9.535   1.478 -3.1842  0.1643 -0.0590
 5676SOL    HW229088   2.071   9.617   1.616 -0.4483  2.3036 -0.7091
 5677SOL     OW29089   9.578   4.650   4.999 -0.1695 -0.5347  0.6736
 5677SOL    HW129090   9.524   4.570   4.975 -0.4887  0.0758 -0.7167
 5677SOL    HW229091   9.673   4.622   5.014 -0.5621 -1.3821  1.6538
 5678SOL     OW29092   0.371   6.333   5.349 -0.2870 -0.3872 -0.4276
 5678SOL    HW129093   0.354   6.428   5.325 -1.6789 -0.6801 -0.6096
 5678SOL    HW229094   0.373   6.323   5.448 -0.0699 -0.1660 -0.4081
 5679SOL     OW29095   2.552   8.165   2.115  0.4621  0.0760 -0.0694
 5679SOL    HW129096   2.573   8.259   2.090 -0.9713 -0.0133 -1.6541
 5679SOL    HW229097   2.453   8.151   2.118  0.6536 -1.4114  0.0568
 5680SOL     OW29098   9.091   1.823   7.142 -0.1592  0.6134  0.1917
 5680SOL    HW129099   9.085   1.735   7.189 -0.2141  0.5804  0.1227
 5680SOL    HW229100   8.999   1.856   7.122 -0.1281  0.5263 -0.0837
 5681SOL     OW29101   7.518   6.082   0.651 -0.3135  0.5557 -0.4096
 5681SOL    HW129102   7.466   6.167   0.659  0.5548  0.8446  3.1206
 5681SOL    HW229103   7.471   6.010   0.701  1.4611  0.2597  0.8972
 5682SOL     OW29104   6.771   4.899   9.811 -0.2631 -0.4418 -0.5174
 5682SOL    HW129105   6.868   4.875   9.801  0.7357  3.0873  0.2169
 5682SOL    HW229106   6.727   4.898   9.722  1.3608  1.5005 -1.3778
 5683SOL     OW29107   8.731   6.499   6.751  0.2029 -0.2651  0.0206
 5683SOL    HW129108   8.679   6.449   6.821 -0.8621 -0.8046 -1.1327
 5683SOL    HW229109   8.824   6.461   6.746  0.6379  0.5231  1.9051
 5684SOL     OW29110   3.373   3.345   4.357 -0.1941  0.1975  0.5317
 5684SOL    HW129111   3.396   3.436   4.393  0.1417  0.4959 -0.4442
 5684SOL    HW229112   3.400   3.276   4.424 -2.3927  0.9198  2.2274
 5685SOL     OW29113   9.041   2.268   5.579 -0.3630 -0.0388 -0.2893
 5685SOL    HW129114   9.115   2.217   5.623 -0.5205 -0.8252 -0.9211
 5685SOL    HW229115   8.981   2.204   5.531 -1.2546  0.6268 -0.0695
 5686SOL     OW29116   2.552   8.201   7.278  0.0236 -0.0761  0.4452
 5686SOL    HW129117   2.473   8.154   7.238 -0.4114  0.8250  0.2357
 5686SOL    HW229118   2.626   8.136   7.291 -0.5497 -0.8085  0.0885
 5687SOL     OW29119   8.023   1.334   6.715  0.4869 -0.0651  0.5069
 5687SOL    HW129120   8.117   1.305   6.732  0.7311  0.9546  0.8652
 5687SOL    HW229121   7.972   1.336   6.801  0.9076  2.1308  0.7309
 5688SOL     OW29122   1.466   1.992   9.006 -0.4428  0.2054  0.6683
 5688SOL    HW129123   1.496   2.088   9.003 -0.8144  0.3033 -0.2404
 5688SOL    HW229124   1.535   1.934   8.965 -0.0042  0.0223  1.6605
 5689SOL     OW29125   2.634   7.354   3.478  0.1637 -0.3241 -0.0229
 5689SOL    HW129126   2.688   7.434   3.503 -1.4593  0.9284 -0.4161
 5689SOL    HW229127   2.669   7.315   3.393  0.8028  0.1308  0.0293
 5690SOL     OW29128   0.326   2.226   6.547  0.2737 -0.4077 -0.3210
 5690SOL    HW129129   0.287   2.249   6.458 -2.6334  1.3077  1.3330
 5690SOL    HW229130   0.422   2.257   6.550  0.3244 -0.2658 -2.7463
 5691SOL     OW29131   8.075   3.179   5.318 -0.1528 -0.3515 -0.7160
 5691SOL    HW129132   8.143   3.128   5.372  0.3265 -0.0290 -1.0092
 5691SOL    HW229133   8.113   3.199   5.228 -0.6779 -0.2477 -0.9125
 5692SOL     OW29134   0.066   8.991   1.399 -0.0702 -0.2651  0.1031
 5692SOL    HW129135   0.020   8.997   1.310  0.0029  1.7449  0.1725
 5692SOL    HW229136   0.164   8.979   1.385 -0.2224 -1.2867 -0.0787
 5693SOL     OW29137   7.362   6.781   4.341 -0.6756 -0.0104  0.3883
 5693SOL    HW129138   7.414   6.742   4.265 -1.4570 -0.6460  0.1798
 5693SOL    HW229139   7.405   6.867   4.370  1.2881 -1.1841  1.1055
 5694SOL     OW29140   1.811   8.004   5.064  0.1140  0.0749  0.2565
 5694SOL    HW129141   1.750   7.932   5.031 -0.6964  0.3235  1.1688
 5694SOL    HW229142   1.894   8.006   5.009 -0.4397 -0.6768 -0.6126
 5695SOL     OW29143   9.566   7.750   5.821  0.0663 -0.5031  0.4844
 5695SOL    HW129144   9.648   7.795   5.857  0.2096 -0.8734  0.6142
 5695SOL    HW229145   9.584   7.653   5.808 -0.3613 -0.5887  0.5353
 5696SOL     OW29146   3.379   2.113   6.025 -0.5328 -0.2859  0.5353
 5696SOL    HW129147   3.289   2.115   6.068 -1.6220  1.5328 -1.7096
 5696SOL    HW229148   3.417   2.205   6.021 -0.0592 -0.5355 -1.4963
 5697SOL     OW29149   3.570   4.979   1.142  0.1055 -0.4930  0.1459
 5697SOL    HW129150   3.648   4.925   1.172 -0.8782 -2.5563 -0.8666
 5697SOL    HW229151   3.489   4.954   1.195 -0.2858  0.2384 -0.0964
 5698SOL     OW29152   3.224   6.180   4.324  0.1872 -0.5295  0.6032
 5698SOL    HW129153   3.314   6.137   4.310  1.2657  1.8482 -0.0230
 5698SOL    HW229154   3.164   6.155   4.248  0.9625 -0.5622 -0.0138
 5699SOL     OW29155   9.495   8.669   5.648 -0.1148 -0.8138 -0.9679
 5699SOL    HW129156   9.522   8.662   5.552  1.3946 -2.4031 -0.4546
 5699SOL    HW229157   9.563   8.623   5.705 -1.9906 -1.5654  0.7081
 5700SOL     OW29158   6.011   8.936   4.864  0.0524  0.5288 -0.2090
 5700SOL    HW129159   5.990   8.954   4.768  2.2968  2.9428 -0.2891
 5700SOL    HW229160   6.094   8.880   4.869 -0.2664  0.1090  0.3075
 5701SOL     OW29161   4.921   4.325   5.299 -0.1222  0.6175  0.9004
 5701SOL    HW129162   4.923   4.366   5.390  1.6240  2.4573  0.0843
 5701SOL    HW229163   4.904   4.397   5.231  0.5311 -0.4249 -0.3824
 5702SOL     OW29164   0.756   2.306   9.247  0.2696 -0.0142  0.1307
 5702SOL    HW129165   0.837   2.247   9.245 -0.7143 -1.3785 -0.6816
 5702SOL    HW229166   0.754   2.363   9.165 -0.0631 -0.6312 -0.2910
 5703SOL     OW29167   7.456   4.626   3.854 -0.3656 -0.2958  0.2604
 5703SOL    HW129168   7.452   4.625   3.754  0.0924 -3.3197  0.2243
 5703SOL    HW229169   7.372   4.587   3.891 -0.4315  0.5929  1.0617
 5704SOL     OW29170   5.283   9.350   3.870 -0.6719  0.3634 -0.7458
 5704SOL    HW129171   5.226   9.408   3.812 -0.3812  0.6079 -0.7920
 5704SOL    HW229172   5.368   9.327   3.821 -1.1734 -0.8379 -1.0745
 5705SOL     OW29173   8.896   0.146   6.188 -0.9556  0.7010 -0.0067
 5705SOL    HW129174   8.835   0.176   6.115 -0.5446 -0.5349 -0.8799
 5705SOL    HW229175   8.876   0.197   6.271 -2.3493  1.1600 -0.6088
 5706SOL     OW29176   3.960   7.782   6.621  0.5235 -0.1355 -0.6486
 5706SOL    HW129177   3.936   7.866   6.670  0.2734 -0.3569 -0.3942
 5706SOL    HW229178   3.910   7.705   6.661  0.1493 -0.2805 -1.4013
 5707SOL     OW29179   3.310   3.827   4.508 -0.6147  0.2183 -0.1819
 5707SOL    HW129180   3.322   3.893   4.582 -0.8104 -0.4337  0.4347
 5707SOL    HW229181   3.222   3.841   4.464 -1.5118 -0.8827  1.2216
 5708SOL     OW29182   1.756   5.889   4.744 -0.2823  0.2246  0.1785
 5708SOL    HW129183   1.658   5.886   4.729 -0.5937  0.1139  2.0450
 5708SOL    HW229184   1.776   5.855   4.836  1.7397 -2.5208 -1.1941
 5709SOL     OW29185   7.052   4.431   8.530  0.2379 -0.0738 -0.0476
 5709SOL    HW129186   7.062   4.335   8.557 -0.6316 -0.3301 -0.6396
 5709SOL    HW229187   7.049   4.488   8.613 -0.9144 -0.7159  0.3615
 5710SOL     OW29188   0.779   7.956   3.158 -0.2163 -0.4051 -0.4482
 5710SOL    HW129189   0.748   7.888   3.225 -0.5664 -0.1862 -0.3892
 5710SOL    HW229190   0.743   7.933   3.068 -1.9902  0.8095 -0.0714
 5711SOL     OW29191   2.063   3.178   5.679  0.1711 -0.8652  0.4087
 5711SOL    HW129192   2.060   3.179   5.779 -2.0094  0.8689  0.3684
 5711SOL    HW229193   2.095   3.266   5.646  0.2027 -1.1934 -0.4497
 5712SOL     OW29194   7.749   1.825   4.836  0.0676 -0.2465 -0.2048
 5712SOL    HW129195   7.824   1.801   4.774  0.7898  0.9115  0.2127
 5712SOL    HW229196   7.732   1.749   4.899  2.1225  0.1708  0.8976
 5713SOL     OW29197   3.007   5.227   4.917 -0.2189 -0.7349  0.1774
 5713SOL    HW129198   3.097   5.242   4.957 -0.3961  2.1133 -0.3961
 5713SOL    HW229199   3.014   5.230   4.817 -1.2821  2.0024  0.1372
 5714SOL     OW29200   9.638   6.115   1.672  0.8474 -0.5710  0.6901
 5714SOL    HW129201   9.619   6.028   1.719 -1.8276 -0.4592 -0.0909
 5714SOL    HW229202   9.653   6.098   1.574  0.0056 -0.1266  0.4797
 5715SOL     OW29203   1.980   2.751   8.375  0.9073  0.5781  0.0027
 5715SOL    HW129204   1.962   2.685   8.302 -1.9693  1.6238 -0.3238
 5715SOL    HW229205   2.056   2.719   8.430  0.3470 -2.4395 -0.8394
 5716SOL     OW29206   0.086   1.350   5.012  0.1152  0.3483  0.3589
 5716SOL    HW129207   0.174   1.373   5.054  0.0501  1.3636 -0.0431
 5716SOL    HW229208   0.012   1.372   5.075  0.1730 -1.4141  1.0879
 5717SOL     OW29209   9.617   7.095   2.213 -0.1176  0.2237  0.4170
 5717SOL    HW129210   9.697   7.146   2.246 -0.3171  0.2871  0.8104
 5717SOL    HW229211   9.572   7.147   2.140  0.5944 -0.1308 -0.2751
 5718SOL     OW29212   2.175   3.964   1.703  0.0367 -0.2073 -0.2166
 5718SOL    HW129213   2.104   3.928   1.765  0.8186 -1.9008 -0.2687
 5718SOL    HW229214   2.261   3.972   1.754  0.3191 -0.1954 -0.7006
 5719SOL     OW29215   7.694   1.029   8.024 -0.0474 -0.1293 -0.1658
 5719SOL    HW129216   7.709   1.041   7.925  1.4515  0.5081  0.1215
 5719SOL    HW229217   7.781   1.037   8.072 -0.7728 -0.4013  1.2316
 5720SOL     OW29218   0.199   8.987   0.934 -0.8173  0.0307 -0.5584
 5720SOL    HW129219   0.211   8.937   0.848 -0.8417 -1.0885  0.0659
 5720SOL    HW229220   0.210   9.085   0.918  0.4872 -0.2725 -1.5894
 5721SOL     OW29221   0.611   2.549   3.170 -0.6052  0.1124 -0.1967
 5721SOL    HW129222   0.570   2.637   3.190 -1.8330 -0.7189  0.9990
 5721SOL    HW229223   0.627   2.499   3.255  0.7922 -0.5112 -0.8036
 5722SOL     OW29224   7.007   8.561   4.777  0.5562 -0.3747  0.8008
 5722SOL    HW129225   6.986   8.657   4.796 -0.7426 -0.6509  0.7998
 5722SOL    HW229226   7.089   8.535   4.827  1.4552  0.9879  0.0799
 5723SOL     OW29227   2.210   3.593   9.332 -0.0589 -0.4202  0.2009
 5723SOL    HW129228   2.250   3.508   9.297  0.7721 -0.0821  0.3187
 5723SOL    HW229229   2.110   3.584   9.335 -0.0049 -1.2219 -0.2264
 5724SOL     OW29230   0.750   6.452   5.536  0.9394 -0.0252 -0.2697
 5724SOL    HW129231   0.744   6.507   5.452  1.9330  0.1578 -0.2238
 5724SOL    HW229232   0.796   6.366   5.516  0.5138 -0.3033 -0.0648
 5725SOL     OW29233   9.362   5.227   8.435  0.3379 -0.0566  0.4283
 5725SOL    HW129234   9.450   5.255   8.475  0.2849  0.2403  0.3402
 5725SOL    HW229235   9.338   5.289   8.361  0.0794 -0.1689  0.4180
 5726SOL     OW29236   3.559   5.077   2.802 -0.3246  0.2990  0.2121
 5726SOL    HW129237   3.594   5.119   2.718 -1.0555 -0.4228 -0.4649
 5726SOL    HW229238   3.476   5.125   2.831 -1.3166 -0.8265 -0.7158
 5727SOL     OW29239   3.501   9.633   9.638  0.0461 -0.5908 -0.5463
 5727SOL    HW129240   3.529   9.552   9.691  0.1008 -0.1551  0.0950
 5727SOL    HW229241   3.577   9.663   9.580  0.6085  0.0256  0.4928
 5728SOL     OW29242   5.670   0.663   4.472 -0.2027 -0.2383 -0.6015
 5728SOL    HW129243   5.701   0.717   4.394 -0.3519  0.7331  0.0028
 5728SOL    HW229244   5.748   0.614   4.511 -0.1551 -0.8553 -1.4420
 5729SOL     OW29245   1.258   8.390   1.776 -0.2438  0.1997 -0.7389
 5729SOL    HW129246   1.178   8.385   1.716 -0.3271 -1.8695 -0.4850
 5729SOL    HW229247   1.241   8.457   1.848 -2.2094 -0.9842 -0.0501
 5730SOL     OW29248   2.392   4.705   6.234 -0.0343  0.1916  0.0647
 5730SOL    HW129249   2.299   4.682   6.204  0.1901 -2.0716  0.9854
 5730SOL    HW229250   2.399   4.693   6.333  1.7267 -1.5209 -0.2340
 5731SOL     OW29251   8.656   1.261   1.535 -0.4484 -0.2130 -0.3315
 5731SOL    HW129252   8.698   1.171   1.524 -0.1939 -0.2969  1.1523
 5731SOL    HW229253   8.701   1.309   1.611 -1.2967  0.7389 -0.4192
 5732SOL     OW29254   0.948   3.792   1.714 -0.0805 -0.3039 -0.3711
 5732SOL    HW129255   0.872   3.737   1.679 -1.3158  0.8032  0.5101
 5732SOL    HW229256   0.915   3.883   1.739  1.6113  0.3091 -0.2782
 5733SOL     OW29257   3.658   7.367   2.821 -0.2107  0.5436 -0.3897
 5733SOL    HW129258   3.620   7.276   2.837  0.5485  0.1331 -0.8998
 5733SOL    HW229259   3.746   7.359   2.776  0.5277  1.4833  0.8489
 5734SOL     OW29260   2.525   1.941   1.147 -0.1385  0.3650  0.0697
 5734SOL    HW129261   2.517   1.842   1.148 -0.3398  0.3916  1.7244
 5734SOL    HW229262   2.620   1.967   1.162 -0.0136  0.4178 -0.8010
 5735SOL     OW29263   7.735   9.421   1.535  0.1355  0.4045 -0.3496
 5735SOL    HW129264   7.680   9.371   1.602  0.3622  1.9533  1.0404
 5735SOL    HW229265   7.829   9.428   1.569  0.6837 -0.3431 -1.6891
 5736SOL     OW29266   2.647   2.696   7.450 -0.0842 -0.5480  0.4516
 5736SOL    HW129267   2.574   2.692   7.382 -0.5861  2.9328  0.7204
 5736SOL    HW229268   2.726   2.742   7.411  0.4390 -0.5608  1.4936
 5737SOL     OW29269   7.412   1.729   1.416 -0.1400  0.0006  0.0569
 5737SOL    HW129270   7.359   1.674   1.481  0.6748  0.4239  1.0827
 5737SOL    HW229271   7.451   1.808   1.462 -0.9336  1.2183 -1.3252
 5738SOL     OW29272   7.709   6.428   8.185  0.2107 -0.3918  0.2764
 5738SOL    HW129273   7.737   6.518   8.219  0.0837 -0.3458  0.2592
 5738SOL    HW229274   7.622   6.403   8.226 -0.7131  0.3463 -1.1851
 5739SOL     OW29275   2.809   1.795   0.192  0.1596  0.2376  0.6037
 5739SOL    HW129276   2.877   1.830   0.128 -1.0092  0.3236 -0.6235
 5739SOL    HW229277   2.797   1.861   0.266  0.1205  1.0648 -0.1213
 5740SOL     OW29278   4.666   9.405   3.513  0.1599 -0.0433  0.0921
 5740SOL    HW129279   4.637   9.473   3.445  1.2938  0.7870  0.4124
 5740SOL    HW229280   4.628   9.316   3.489  0.7788  0.1725 -1.8094
 5741SOL     OW29281   7.148   4.708   1.224  0.2252 -0.1429  0.6103
 5741SOL    HW129282   7.112   4.658   1.145  1.4049  1.9594 -1.3186
 5741SOL    HW229283   7.218   4.653   1.269  0.2744 -0.9389 -0.4108
 5742SOL     OW29284   0.104   0.449   3.236  0.5338  0.7455 -0.1491
 5742SOL    HW129285   0.040   0.430   3.162 -0.6777 -0.4644  1.1716
 5742SOL    HW229286   0.101   0.546   3.259 -2.7395  0.3214  1.5461
 5743SOL     OW29287   2.755   6.025   3.956 -0.3829 -0.2527 -0.1388
 5743SOL    HW129288   2.843   5.981   3.937  0.0090  1.0752 -1.5311
 5743SOL    HW229289   2.688   5.956   3.983  1.2436 -1.1952  1.5759
 5744SOL     OW29290   7.667   7.091   3.768  0.5237  0.0102  0.6368
 5744SOL    HW129291   7.745   7.140   3.808  1.3159 -1.3097  0.7448
 5744SOL    HW229292   7.584   7.145   3.780  1.5148  1.7376 -0.0302
 5745SOL     OW29293   8.752   4.619   8.490 -0.6933  0.6257 -0.4758
 5745SOL    HW129294   8.668   4.579   8.455 -1.8336  2.5796 -0.0546
 5745SOL    HW229295   8.824   4.613   8.421 -2.2158  2.2264 -2.2515
 5746SOL     OW29296   6.631   1.010   7.499  0.2790  0.2932  0.3646
 5746SOL    HW129297   6.577   0.930   7.472  0.9980 -0.1677  0.2463
 5746SOL    HW229298   6.611   1.034   7.593  0.6817 -0.5715  0.6841
 5747SOL     OW29299   0.870   9.717   6.835  0.4757  0.3102 -0.1509
 5747SOL    HW129300   0.932   9.708   6.757  0.3181  1.2523 -0.3976
 5747SOL    HW229301   0.789   9.769   6.807 -0.3038 -0.6649  0.2423
 5748SOL     OW29302   5.277   2.374   6.884  0.3771  0.3894 -0.5550
 5748SOL    HW129303   5.249   2.324   6.966 -1.9485  0.1155 -1.4717
 5748SOL    HW229304   5.284   2.472   6.905 -0.3625  0.3410 -0.0667
 5749SOL     OW29305   5.650   4.979   2.284 -0.3646 -0.0192  0.4982
 5749SOL    HW129306   5.636   5.056   2.347 -1.8030 -0.9687  1.3602
 5749SOL    HW229307   5.742   4.943   2.296 -0.4595  0.1251  1.7241
 5750SOL     OW29308   6.726   1.116   2.382  0.8638 -0.1655  0.6292
 5750SOL    HW129309   6.777   1.036   2.348  1.7806 -0.0855  1.7792
 5750SOL    HW229310   6.731   1.118   2.482 -3.3602 -1.4489  0.9688
 5751SOL     OW29311   8.130   6.138   4.851  0.2267 -0.4710  0.0863
 5751SOL    HW129312   8.214   6.184   4.880  2.0659 -2.7365 -1.4926
 5751SOL    HW229313   8.089   6.091   4.928  0.4710  0.5047  0.8227
 5752SOL     OW29314  -0.001   7.777   8.178 -0.4333 -0.2291 -0.3509
 5752SOL    HW129315   0.075   7.742   8.124 -0.6882 -2.0983  0.4857
 5752SOL    HW229316   0.033   7.845   8.243  0.9174 -2.6159  1.5240
 5753SOL     OW29317   7.196   5.273   9.840 -0.1673 -0.1453  0.0332
 5753SOL    HW129318   7.105   5.266   9.800 -0.4295 -2.0923  0.9412
 5753SOL    HW229319   7.224   5.185   9.878  1.4242  0.8233  1.2256
 5754SOL     OW29320   1.209   8.475   7.471 -0.2478 -0.1984  0.2383
 5754SOL    HW129321   1.158   8.559   7.491  1.3461  0.7582  0.3650
 5754SOL    HW229322   1.205   8.415   7.550  2.1755  1.6119  1.8066
 5755SOL     OW29323   6.478   1.351   2.133  0.1884  0.0890  0.1591
 5755SOL    HW129324   6.482   1.445   2.099  1.7412 -0.0466 -0.0414
 5755SOL    HW229325   6.550   1.297   2.090  0.5524 -0.7106  1.7559
 5756SOL     OW29326   8.904   3.493   5.546  0.4948  0.1518  0.0624
 5756SOL    HW129327   8.956   3.437   5.481  0.7916 -0.1221  0.5327
 5756SOL    HW229328   8.806   3.479   5.531  0.5636  0.0242 -0.2698
 5757SOL     OW29329   7.145   0.800   5.477 -0.5902  0.6495  0.3070
 5757SOL    HW129330   7.056   0.824   5.516 -0.0910  1.0211  1.2461
 5757SOL    HW229331   7.217   0.849   5.527  0.3330 -1.5506  1.2230
 5758SOL     OW29332   9.558   5.072   4.945 -0.1464 -0.3727  0.1790
 5758SOL    HW129333   9.553   5.154   5.001  3.5274  0.6952 -0.9353
 5758SOL    HW229334   9.501   5.084   4.863  0.0263  0.9019  0.2325
 5759SOL     OW29335   4.135   9.386   6.296  0.7053 -0.2142  0.4563
 5759SOL    HW129336   4.051   9.425   6.334 -0.0939  0.3041 -1.7966
 5759SOL    HW229337   4.170   9.316   6.359 -0.2246  1.0332  2.4384
 5760SOL     OW29338   9.819   6.511   3.903 -0.2782  0.0251  0.3524
 5760SOL    HW129339   9.848   6.435   3.961 -1.5680 -0.3870  0.4797
 5760SOL    HW229340   9.803   6.477   3.810  2.1048  0.7436 -0.3524
 5761SOL     OW29341   3.483   7.102   3.969  0.3658 -0.2492  0.5561
 5761SOL    HW129342   3.482   7.003   3.984 -4.4548 -0.5242 -0.8634
 5761SOL    HW229343   3.457   7.150   4.053 -1.0281 -0.3973  0.2110
 5762SOL     OW29344   1.721   4.058  10.041 -0.1816  0.0762 -0.4525
 5762SOL    HW129345   1.817   4.078  10.059 -0.0391 -0.1910 -0.9113
 5762SOL    HW229346   1.688   3.988  10.104  0.3761 -1.0177 -1.3637
 5763SOL     OW29347   8.977   9.305   4.513  0.1021  0.2848  0.8001
 5763SOL    HW129348   9.076   9.300   4.519  0.0391 -1.1651  0.6915
 5763SOL    HW229349   8.938   9.213   4.508 -1.2927  0.8060  1.5539
 5764SOL     OW29350   2.051   2.052   2.461  0.1971  0.0869 -0.1544
 5764SOL    HW129351   2.101   2.135   2.483  2.1868 -1.4265  1.2296
 5764SOL    HW229352   1.970   2.044   2.520  1.4523 -0.2454  1.5610
 5765SOL     OW29353   2.282   0.435   3.754 -0.4692  0.1964 -0.1125
 5765SOL    HW129354   2.230   0.354   3.778  0.4180 -0.0659  0.9809
 5765SOL    HW229355   2.231   0.517   3.778 -0.3005 -0.0592  1.1467
 5766SOL     OW29356   9.794   9.727   0.932  0.3921 -0.4792  0.9791
 5766SOL    HW129357   9.711   9.776   0.958  1.6595  0.6441  3.0858
 5766SOL    HW229358   9.826   9.758   0.842 -1.3282 -0.7789  0.2577
 5767SOL     OW29359   0.894   1.196   7.241  0.1188  0.5175 -0.5492
 5767SOL    HW129360   0.860   1.129   7.307  0.9094 -0.3969 -1.0552
 5767SOL    HW229361   0.819   1.224   7.181  0.0225 -0.7738 -1.0575
 5768SOL     OW29362   4.386   5.118   5.261 -0.2349 -0.6431  0.1588
 5768SOL    HW129363   4.444   5.037   5.263  0.4364 -0.1541  0.7674
 5768SOL    HW229364   4.294   5.094   5.294  0.6144 -0.6649  2.6171
 5769SOL     OW29365   6.907   2.868   3.820 -0.5442 -0.1250 -0.3575
 5769SOL    HW129366   6.978   2.847   3.753 -0.6264 -0.6394 -0.2866
 5769SOL    HW229367   6.946   2.867   3.911 -0.8515 -1.4321 -0.2310
 5770SOL     OW29368   3.537   3.314   5.958  0.0163  0.0194  0.7646
 5770SOL    HW129369   3.486   3.228   5.962  1.8599 -1.3517 -2.8635
 5770SOL    HW229370   3.635   3.294   5.949  0.5561  2.5308  0.7110
 5771SOL     OW29371   2.329   6.051   5.211 -0.3268  0.1522  0.3264
 5771SOL    HW129372   2.233   6.049   5.240 -0.3882 -0.1507  0.1076
 5771SOL    HW229373   2.378   6.121   5.262 -0.9036  1.0106 -0.2972
 5772SOL     OW29374   9.959   4.199   6.283  0.3861  0.4360 -0.2485
 5772SOL    HW129375   9.930   4.279   6.230  0.6107 -0.0169 -1.0456
 5772SOL    HW229376  10.012   4.230   6.362  0.3528  1.0857 -0.4762
 5773SOL     OW29377   3.187   2.143   6.400  0.2784  0.0757  0.2892
 5773SOL    HW129378   3.232   2.196   6.473 -0.1521  0.8638 -0.0067
 5773SOL    HW229379   3.091   2.127   6.426  0.8521 -2.0464  1.1557
 5774SOL     OW29380   3.856   4.516   3.546  0.1018 -0.5469  0.7029
 5774SOL    HW129381   3.929   4.576   3.513  0.2625 -0.7318  0.7247
 5774SOL    HW229382   3.892   4.453   3.614  0.0255 -0.9611  0.3613
 5775SOL     OW29383   6.585   1.141   1.646  0.1586 -0.0337 -0.1369
 5775SOL    HW129384   6.615   1.202   1.573  1.9276  0.7264  1.1843
 5775SOL    HW229385   6.658   1.131   1.713 -1.2404 -1.1430  1.2579
 5776SOL     OW29386   2.947   0.163  -0.000  0.3608  0.1117  0.0289
 5776SOL    HW129387   3.021   0.230  -0.000 -0.4065  1.0088  2.3689
 5776SOL    HW229388   2.983   0.074   0.029  0.9978 -0.0802 -1.2874
 5777SOL     OW29389   2.962   0.371   6.458 -0.2260  0.1836  0.5483
 5777SOL    HW129390   2.939   0.435   6.385  0.3733  2.1721  2.0734
 5777SOL    HW229391   2.880   0.323   6.487 -0.6036 -0.0680 -0.8862
 5778SOL     OW29392   5.371   1.182   6.053 -0.4035  0.2430  0.2235
 5778SOL    HW129393   5.335   1.158   5.963  0.7980 -0.4579 -0.0743
 5778SOL    HW229394   5.306   1.242   6.100 -1.2460  0.2340 -0.9209
 5779SOL     OW29395   5.987   8.853   4.218 -0.1058  0.1338 -0.0819
 5779SOL    HW129396   6.073   8.880   4.263  0.0037  2.4698 -1.6474
 5779SOL    HW229397   6.008   8.796   4.139 -0.2069 -2.1839  1.4919
 5780SOL     OW29398   4.739   3.136   7.473 -0.1054  0.3603  0.4786
 5780SOL    HW129399   4.834   3.142   7.441  0.0162 -0.4173  0.6824
 5780SOL    HW229400   4.700   3.048   7.445 -0.7494  0.6580  0.4423
 5781SOL     OW29401   1.733   3.174   8.978  0.3151  0.3451  0.1588
 5781SOL    HW129402   1.647   3.181   9.028 -0.1032 -0.0670 -0.4838
 5781SOL    HW229403   1.794   3.109   9.024  0.7510  1.5226  1.2596
 5782SOL     OW29404   0.915   9.169   3.235  0.5988 -0.3400  0.9912
 5782SOL    HW129405   0.958   9.258   3.226  0.8661 -0.7021 -1.6743
 5782SOL    HW229406   0.938   9.129   3.324  0.7634  2.0657  2.0569
 5783SOL     OW29407   7.819   4.380   2.185 -0.1823 -0.4564  1.3055
 5783SOL    HW129408   7.733   4.328   2.190 -0.5422  0.1097  1.0214
 5783SOL    HW229409   7.847   4.407   2.277 -1.4834  1.2728  1.2121
 5784SOL     OW29410   1.278   1.705   5.461 -0.6917  0.6212 -0.0446
 5784SOL    HW129411   1.360   1.655   5.434 -0.1528  1.9171 -0.8809
 5784SOL    HW229412   1.201   1.642   5.468  0.2040 -0.4791 -0.0466
 5785SOL     OW29413   2.500   1.318   3.325 -0.2912  0.7242 -0.2751
 5785SOL    HW129414   2.472   1.398   3.379  0.4167  1.2634 -0.6881
 5785SOL    HW229415   2.588   1.337   3.282 -0.5448  0.0427 -1.0977
 5786SOL     OW29416   0.314   4.813   1.898  0.0310 -0.0218 -0.1898
 5786SOL    HW129417   0.327   4.718   1.871  0.0725  0.0589 -0.4586
 5786SOL    HW229418   0.226   4.823   1.945  0.7345 -0.4932  1.2620
 5787SOL     OW29419   8.838   9.989   8.923 -0.1259 -0.4343  0.9562
 5787SOL    HW129420   8.929   9.953   8.946 -0.2014 -0.8860  0.5415
 5787SOL    HW229421   8.772   9.914   8.917 -0.8760  0.0448  2.8226
 5788SOL     OW29422   4.117   6.006   3.606 -0.9641  0.5829  0.5527
 5788SOL    HW129423   4.189   6.074   3.594  0.8887 -1.4030  0.2023
 5788SOL    HW229424   4.097   5.996   3.704 -2.3424  2.6899  0.5332
 5789SOL     OW29425  10.000   8.030   2.722  0.0286  0.2714 -0.3075
 5789SOL    HW129426   9.919   8.086   2.738 -1.2526 -1.3921 -0.8847
 5789SOL    HW229427  10.060   8.076   2.656 -1.2133  0.7540 -1.1083
 5790SOL     OW29428   8.231   0.176   9.268  0.2164  0.4758  0.3054
 5790SOL    HW129429   8.174   0.257   9.257  1.6857  1.3866 -0.8292
 5790SOL    HW229430   8.309   0.198   9.328 -0.2816 -0.5795  1.3624
 5791SOL     OW29431   1.622   6.154   6.564  0.4112 -0.2206  0.1205
 5791SOL    HW129432   1.650   6.124   6.655 -0.6732 -0.8570  0.2504
 5791SOL    HW229433   1.690   6.124   6.497  1.1059  0.0714  0.6887
 5792SOL     OW29434   1.671   1.147   6.489 -0.1782  0.6738 -0.4250
 5792SOL    HW129435   1.732   1.069   6.505  0.2896  0.9980 -0.6130
 5792SOL    HW229436   1.708   1.204   6.415 -0.0910  1.5117  0.2496
 5793SOL     OW29437   9.325   6.865   2.349 -0.4760  0.0793  0.3875
 5793SOL    HW129438   9.423   6.846   2.354 -0.1298  1.3182 -1.1792
 5793SOL    HW229439   9.297   6.922   2.427 -0.2138 -1.3101  1.5095
 5794SOL     OW29440   8.215   7.789   9.875  0.0216 -0.5747  0.4227
 5794SOL    HW129441   8.257   7.763   9.788 -0.1412 -0.8887  0.4389
 5794SOL    HW229442   8.120   7.757   9.878  0.0594 -0.6657  0.7585
 5795SOL     OW29443   0.857   4.644   1.691 -0.0481 -0.6031  0.5399
 5795SOL    HW129444   0.821   4.689   1.772 -1.0880 -2.0298  0.8833
 5795SOL    HW229445   0.854   4.708   1.614  0.6390  0.6482  1.5364
 5796SOL     OW29446   0.428   8.934   9.518 -0.5621  0.1319 -0.1950
 5796SOL    HW129447   0.451   9.012   9.576  0.1408  0.2695 -0.6435
 5796SOL    HW229448   0.365   8.873   9.566  1.2267 -0.5556  1.3124
 5797SOL     OW29449   7.384   1.575   7.915  0.4272 -0.1772  0.6297
 5797SOL    HW129450   7.367   1.667   7.882 -0.7587 -0.0377  1.5762
 5797SOL    HW229451   7.398   1.577   8.014  0.8224 -0.9592  0.5956
 5798SOL     OW29452   9.090   1.872   1.782 -0.4085 -0.0036 -0.3985
 5798SOL    HW129453   9.059   1.777   1.788 -2.7237  0.8493  2.5374
 5798SOL    HW229454   9.066   1.909   1.692  2.4560 -2.7707 -2.3927
 5799SOL     OW29455   4.646   9.141   7.303  0.2662  0.2161 -0.2399
 5799SOL    HW129456   4.745   9.132   7.299  0.3331  1.5240 -1.6191
 5799SOL    HW229457   4.610   9.163   7.213 -1.2736 -0.0382  0.2856
 5800SOL     OW29458   9.935   4.143   7.922 -0.3576  0.0450 -0.8587
 5800SOL    HW129459   9.855   4.113   7.975  1.2356 -1.4521  0.8179
 5800SOL    HW229460   9.911   4.222   7.866 -2.2517  1.4714  1.8334
 5801SOL     OW29461   1.048   2.286   2.262  0.2946  0.0918  0.1078
 5801SOL    HW129462   1.027   2.362   2.325 -1.9234 -1.2085  0.9796
 5801SOL    HW229463   1.147   2.273   2.258  0.5730  1.4995  1.7904
 5802SOL     OW29464   3.614   0.969   4.346 -0.0775  0.5335 -0.5005
 5802SOL    HW129465   3.661   1.057   4.337 -1.1385  1.1686  0.0808
 5802SOL    HW229466   3.520   0.984   4.378 -0.7036 -0.7176 -1.7255
 5803SOL     OW29467   7.543  10.000   1.452 -0.3152 -0.1750  0.0855
 5803SOL    HW129468   7.557   9.927   1.385  0.0949 -0.4439  0.4600
 5803SOL    HW229469   7.555   9.963   1.544  1.3984  0.6918  0.2337
 5804SOL     OW29470   9.747   7.322   8.966  0.8790  0.4053 -0.2168
 5804SOL    HW129471   9.811   7.281   8.902 -1.2082 -2.0408 -0.8256
 5804SOL    HW229472   9.785   7.322   9.058  2.2195  0.1014 -0.7697
 5805SOL     OW29473   1.614   9.673   8.849 -0.5089 -0.0136  0.1233
 5805SOL    HW129474   1.618   9.660   8.948  0.2203 -0.6416  0.0220
 5805SOL    HW229475   1.682   9.614   8.806 -0.8417  0.2421 -0.7531
 5806SOL     OW29476   9.686   1.128   6.752  0.0783 -0.1983  0.2527
 5806SOL    HW129477   9.619   1.162   6.686 -0.1097 -3.1307 -1.1519
 5806SOL    HW229478   9.640   1.110   6.839 -0.3143  0.6753  0.2351
 5807SOL     OW29479   3.912   4.647   1.884 -0.2683 -0.4259  0.2820
 5807SOL    HW129480   3.947   4.592   1.959  0.1268  1.1456  1.2788
 5807SOL    HW229481   3.822   4.684   1.910  0.2104  0.7492  0.3288
 5808SOL     OW29482   4.143   0.789   0.178 -0.3924 -0.0204 -0.2979
 5808SOL    HW129483   4.120   0.813   0.084 -1.3650 -1.1311 -0.3568
 5808SOL    HW229484   4.112   0.862   0.239  0.2913  0.7242 -0.8392
 5809SOL     OW29485   1.702   7.393   2.394 -0.1345  0.6610 -0.9570
 5809SOL    HW129486   1.753   7.458   2.337 -0.8380 -0.0048 -2.3565
 5809SOL    HW229487   1.604   7.413   2.389 -0.2217  0.4782 -0.1144
 5810SOL     OW29488   3.851   4.455   1.078 -0.6876 -0.4872 -0.9804
 5810SOL    HW129489   3.942   4.413   1.074 -0.5976 -0.2707 -1.2097
 5810SOL    HW229490   3.842   4.522   1.004 -0.8406 -0.1229 -0.6373
 5811SOL     OW29491   5.927   1.775   1.566 -0.1260  0.1480 -0.2707
 5811SOL    HW129492   5.856   1.832   1.607 -0.9638 -0.2125 -1.1983
 5811SOL    HW229493   5.911   1.679   1.589 -0.6676 -0.0719 -1.5017
 5812SOL     OW29494   0.066   0.613   5.932 -0.3188  0.4940 -0.8005
 5812SOL    HW129495   0.166   0.620   5.934 -0.1106 -2.2442 -0.4087
 5812SOL    HW229496   0.039   0.527   5.889 -2.5220  1.0820 -0.6581
 5813SOL     OW29497   7.492   3.337   4.213  0.3179  0.4285 -0.8813
 5813SOL    HW129498   7.547   3.271   4.162  1.1156 -0.9093  1.6247
 5813SOL    HW229499   7.551   3.389   4.275 -0.4655  2.7937 -2.0587
 5814SOL     OW29500   9.978   8.509   4.340  0.1099 -0.3897 -0.8371
 5814SOL    HW129501  10.070   8.547   4.351 -0.6448  1.1644  0.2598
 5814SOL    HW229502   9.948   8.467   4.425 -0.0936 -1.1362 -1.2746
 5815SOL     OW29503   4.790   4.775   2.898  0.2987 -0.5808  0.4706
 5815SOL    HW129504   4.771   4.677   2.907  0.7055 -0.4938  2.4748
 5815SOL    HW229505   4.880   4.787   2.855 -0.6199 -1.0441 -1.6630
 5816SOL     OW29506   3.353   6.529   4.877 -0.7036  0.2118  0.9010
 5816SOL    HW129507   3.411   6.593   4.826 -0.1045 -0.7728  0.3158
 5816SOL    HW229508   3.369   6.541   4.975 -0.5889  0.9543  0.7928
 5817SOL     OW29509   4.920   3.064   9.480  0.3911  0.1997 -0.0741
 5817SOL    HW129510   4.961   2.973   9.487 -1.3181 -0.4903  1.2494
 5817SOL    HW229511   4.928   3.110   9.568 -2.2026 -0.2016  0.4083
 5818SOL     OW29512   8.975   7.572   6.984 -0.1773 -0.2058 -0.2620
 5818SOL    HW129513   8.968   7.637   7.059  0.3620  0.1201 -0.4923
 5818SOL    HW229514   9.041   7.605   6.917  0.4602 -1.2057 -0.1511
 5819SOL     OW29515   9.130   8.532   2.300 -0.3943 -0.1667 -0.1254
 5819SOL    HW129516   9.196   8.607   2.308 -1.7109  0.9484  0.4113
 5819SOL    HW229517   9.074   8.527   2.383 -0.6553 -1.4314 -0.3599
 5820SOL     OW29518   4.956   5.752   8.127  0.0805  0.4172  0.2381
 5820SOL    HW129519   4.911   5.671   8.163  1.1665 -0.5915 -0.6125
 5820SOL    HW229520   4.916   5.834   8.167 -2.4946 -0.4425 -0.4895
 5821SOL     OW29521   3.344   2.472   5.273 -0.4612 -0.3139 -0.1777
 5821SOL    HW129522   3.254   2.514   5.283 -0.5156 -0.1910 -1.1405
 5821SOL    HW229523   3.333   2.374   5.258 -0.5070 -0.1176 -1.5380
 5822SOL     OW29524   8.227   4.789   9.338 -0.2899 -0.5072  0.1530
 5822SOL    HW129525   8.241   4.742   9.250 -0.0758 -1.4729  0.6927
 5822SOL    HW229526   8.247   4.886   9.327 -0.0882 -0.6499 -0.8304
 5823SOL     OW29527   8.172   5.252   1.041 -0.0890 -0.1665  0.3724
 5823SOL    HW129528   8.136   5.345   1.051 -3.7045 -1.5480  0.9090
 5823SOL    HW229529   8.100   5.192   1.005  2.1194 -2.8210  0.2414
 5824SOL     OW29530   4.942   3.291   7.104 -0.2378 -0.0920  0.2534
 5824SOL    HW129531   4.909   3.251   7.018 -2.6682 -0.6865  1.3871
 5824SOL    HW229532   4.873   3.355   7.139  0.3485 -0.4631  2.1395
 5825SOL     OW29533   0.069   7.993   3.999 -0.2877  0.2426 -0.3632
 5825SOL    HW129534   0.023   8.078   4.025  1.4196  0.9589  0.3791
 5825SOL    HW229535   0.068   7.929   4.076  0.0697  0.3052 -0.3072
 5826SOL     OW29536   3.083   4.247   3.927  0.3628 -0.2619  0.3050
 5826SOL    HW129537   3.124   4.338   3.929 -0.1446 -0.0480  1.6173
 5826SOL    HW229538   2.991   4.253   3.887  0.1015 -0.0954  0.9232
 5827SOL     OW29539   7.150   0.356   9.040  0.4123  0.3591  0.0703
 5827SOL    HW129540   7.194   0.266   9.040 -0.6741 -0.1747  0.4226
 5827SOL    HW229541   7.215   0.424   9.073  0.0065 -0.8954  3.6436
 5828SOL     OW29542   2.510   4.451   8.611 -0.2919 -0.3274  0.5282
 5828SOL    HW129543   2.569   4.371   8.625 -0.6307 -0.7372 -0.3311
 5828SOL    HW229544   2.423   4.422   8.571 -0.8971  0.3357  1.3357
 5829SOL     OW29545   5.903   9.547   2.636 -0.2615  0.8749 -0.4754
 5829SOL    HW129546   6.001   9.558   2.622 -0.3853  0.9334 -1.3249
 5829SOL    HW229547   5.855   9.627   2.600 -0.5361  1.4125  1.0463
 5830SOL     OW29548   9.737   2.744   3.329 -0.0241  0.1778 -0.1321
 5830SOL    HW129549   9.730   2.751   3.230 -2.4242 -1.3362 -0.1030
 5830SOL    HW229550   9.690   2.822   3.371 -0.8697 -0.2963 -0.1801
 5831SOL     OW29551   0.057   9.186   6.763 -0.3114 -0.6846 -0.3560
 5831SOL    HW129552  -0.043   9.192   6.756 -0.3796 -2.8276 -1.6782
 5831SOL    HW229553   0.096   9.164   6.674  1.5977  2.4690 -0.3674
 5832SOL     OW29554   5.828   2.254   9.824 -0.6228 -0.2480  0.1734
 5832SOL    HW129555   5.802   2.245   9.728 -0.8901  1.4028  0.0813
 5832SOL    HW229556   5.748   2.236   9.881 -1.2244  1.7166 -0.0168
 5833SOL     OW29557   0.550   8.283   6.374 -0.0849  0.0720  0.0467
 5833SOL    HW129558   0.625   8.232   6.332  0.3148  1.4687 -0.9514
 5833SOL    HW229559   0.464   8.257   6.332  0.5356  3.1478 -3.3913
 5834SOL     OW29560   4.659   2.536   7.342  0.5813  0.0626 -0.0254
 5834SOL    HW129561   4.623   2.467   7.406 -0.1352  1.7996  1.4925
 5834SOL    HW229562   4.608   2.531   7.256 -0.3025 -0.4614  0.5176
 5835SOL     OW29563   7.342   9.243   8.164  0.0575 -0.0840  0.5331
 5835SOL    HW129564   7.366   9.237   8.261 -0.3075 -1.9303  0.5266
 5835SOL    HW229565   7.247   9.272   8.156  0.4350  1.2328  0.6903
 5836SOL     OW29566   0.824   4.171   9.431  0.1560 -0.1749  0.0658
 5836SOL    HW129567   0.903   4.152   9.373  0.5434 -0.6683  0.7383
 5836SOL    HW229568   0.741   4.137   9.387  0.5771 -1.4753  0.2621
 5837SOL     OW29569   4.014   7.373   4.830 -0.2354  0.3637  0.3713
 5837SOL    HW129570   4.038   7.454   4.777  2.7411 -0.8052 -0.1740
 5837SOL    HW229571   3.990   7.299   4.768  1.6306 -0.5204  0.6773
 5838SOL     OW29572   4.895   5.062   8.838  0.1141 -0.2882 -0.7053
 5838SOL    HW129573   4.985   5.038   8.875  0.4603 -1.4032 -2.2477
 5838SOL    HW229574   4.868   4.994   8.770 -1.7794  0.1957 -0.4565
 5839SOL     OW29575   4.333   4.372   6.192  0.3006  0.7120  0.3588
 5839SOL    HW129576   4.395   4.349   6.117 -1.3227  0.6191 -0.9886
 5839SOL    HW229577   4.385   4.412   6.267  2.1903 -0.7826 -0.1156
 5840SOL     OW29578   4.380   3.085   5.010 -0.1758 -0.1588 -0.1345
 5840SOL    HW129579   4.390   3.184   5.011 -0.4171 -0.1336  0.3679
 5840SOL    HW229580   4.455   3.043   5.061  0.0560 -0.2456 -0.5494
 5841SOL     OW29581   9.835   9.960   5.517 -0.1620  0.1096  0.2170
 5841SOL    HW129582   9.882   9.976   5.430 -1.1926 -1.2135 -0.5921
 5841SOL    HW229583   9.737   9.946   5.501  0.2130 -4.3519  1.0940
 5842SOL     OW29584   7.884   2.735   1.593  0.6601 -0.6307  0.2861
 5842SOL    HW129585   7.809   2.791   1.626  1.0151 -0.2810  0.4952
 5842SOL    HW229586   7.949   2.792   1.542  1.2450 -0.7669  0.8759
 5843SOL     OW29587   4.063   8.032   1.463  0.4356  0.4307  0.0619
 5843SOL    HW129588   4.077   8.002   1.369 -0.6138  1.7762 -0.5383
 5843SOL    HW229589   3.965   8.029   1.485  0.4323  2.1865  0.3807
 5844SOL     OW29590   2.618   4.095   6.025 -0.1394  0.3686  0.3364
 5844SOL    HW129591   2.687   4.163   6.047  0.4670 -0.2611  0.3892
 5844SOL    HW229592   2.601   4.037   6.105 -0.0341 -0.0801  0.0386
 5845SOL     OW29593   7.758   5.586   0.975  0.6110  0.3911 -0.3856
 5845SOL    HW129594   7.670   5.601   0.930  1.7239  2.0146 -2.0562
 5845SOL    HW229595   7.801   5.505   0.937  1.0998  1.1970 -1.5770
 5846SOL     OW29596   0.145   9.979   2.088 -0.3876  0.4956  0.0980
 5846SOL    HW129597   0.158   9.904   2.153  0.3654 -1.1350 -1.9074
 5846SOL    HW229598   0.234  10.019   2.065 -0.5537  0.3796 -0.7405
 5847SOL     OW29599   1.623   7.726   3.170 -0.2025  0.0115  0.4632
 5847SOL    HW129600   1.708   7.688   3.205  1.1258  0.5968 -2.0088
 5847SOL    HW229601   1.566   7.653   3.133  0.1592 -0.1611  0.2421
 5848SOL     OW29602   7.655   9.868   7.018 -0.0545  0.2292 -0.5038
 5848SOL    HW129603   7.645   9.934   7.092 -1.6040  1.2466 -1.5957
 5848SOL    HW229604   7.618   9.780   7.047 -2.1613  1.0474 -0.5938
 5849SOL     OW29605   9.694   2.422   0.134  0.7097 -0.0452  0.7106
 5849SOL    HW129606   9.638   2.503   0.150 -0.1063 -0.7251  1.3253
 5849SOL    HW229607   9.677   2.355   0.206 -1.0246 -2.0780 -1.5150
 5850SOL     OW29608   9.628   0.048   7.132 -0.3365  0.1647  0.2313
 5850SOL    HW129609   9.670  -0.042   7.131 -3.1537 -1.2450 -2.7438
 5850SOL    HW229610   9.668   0.104   7.059 -1.9009 -0.3942 -1.0908
 5851SOL     OW29611   5.834   0.346   2.747  0.3068 -0.3179 -0.1228
 5851SOL    HW129612   5.859   0.266   2.801 -1.8424 -0.3622  0.8607
 5851SOL    HW229613   5.751   0.326   2.695  0.3672  0.9187 -0.7141
 5852SOL     OW29614   1.488   4.509   6.437 -0.0120 -0.2944 -0.6778
 5852SOL    HW129615   1.583   4.536   6.421  0.0112 -0.3224 -0.5838
 5852SOL    HW229616   1.428   4.588   6.419 -0.0538 -0.5520 -1.7201
 5853SOL     OW29617   3.848   7.897   5.313 -0.1705  0.0754  0.0096
 5853SOL    HW129618   3.767   7.859   5.269  0.9433 -0.3979 -1.6580
 5853SOL    HW229619   3.868   7.844   5.396 -1.6164  0.2846  0.5217
 5854SOL     OW29620   9.424   5.938   6.145 -0.1374 -0.0405  0.0467
 5854SOL    HW129621   9.388   6.004   6.079  1.0780  1.2310  0.6280
 5854SOL    HW229622   9.499   5.886   6.103  0.1322  0.2429  0.1728
 5855SOL     OW29623   9.677   9.801   1.646  0.6100  0.4104 -0.4173
 5855SOL    HW129624   9.648   9.749   1.566  1.8988  1.4841 -1.6183
 5855SOL    HW229625   9.683   9.898   1.622  2.9553  0.4977  0.3788
 5856SOL     OW29626   5.471   4.580   0.334 -0.7726 -0.3568  0.2897
 5856SOL    HW129627   5.533   4.538   0.402  0.0583  0.3442 -0.0249
 5856SOL    HW229628   5.526   4.618   0.259 -1.3608  3.1094  1.5477
 5857SOL     OW29629   8.774   8.760   3.696 -0.0253  0.6329 -0.0547
 5857SOL    HW129630   8.838   8.836   3.682 -1.0818  1.5404  0.0006
 5857SOL    HW229631   8.707   8.759   3.622  0.4766 -0.7673 -0.5129
 5858SOL     OW29632   1.288   1.318   9.922  0.2993 -0.0298 -0.5247
 5858SOL    HW129633   1.322   1.294   9.831 -1.2287  0.1122 -1.1551
 5858SOL    HW229634   1.284   1.417   9.931  2.7723 -0.0068  0.6054
 5859SOL     OW29635   4.323   4.310   5.284 -0.7379  0.1724  0.0469
 5859SOL    HW129636   4.331   4.365   5.201  1.3202 -0.7132 -0.3661
 5859SOL    HW229637   4.356   4.363   5.362  1.2786 -0.4637 -0.3564
 5860SOL     OW29638   1.633   9.484   4.814 -0.1920  0.0713  0.6274
 5860SOL    HW129639   1.538   9.456   4.800  0.1244 -0.0233 -1.4322
 5860SOL    HW229640   1.684   9.407   4.853 -0.7303 -0.1888  0.8307
 5861SOL     OW29641   8.993   1.657   3.670  0.1341 -0.1438  0.1555
 5861SOL    HW129642   9.058   1.597   3.623 -0.2909  0.8695 -1.8102
 5861SOL    HW229643   8.913   1.672   3.610 -0.4115  1.2186  1.1943
 5862SOL     OW29644   2.917   5.145   2.604 -0.4867  0.1229  0.0453
 5862SOL    HW129645   2.994   5.147   2.668  1.1956  2.4305 -1.9497
 5862SOL    HW229646   2.852   5.218   2.627 -0.2808  0.4414 -0.3685
 5863SOL     OW29647   4.025   3.181   4.614  0.1127 -0.4535  0.2048
 5863SOL    HW129648   3.965   3.187   4.693 -0.0243  3.1427 -0.0915
 5863SOL    HW229649   3.975   3.142   4.536 -1.0150  0.0067  0.6943
 5864SOL     OW29650   8.790   9.242   5.043  0.4528 -0.0794 -0.2574
 5864SOL    HW129651   8.821   9.147   5.042 -0.0679 -0.3063  1.9979
 5864SOL    HW229652   8.692   9.245   5.022  0.7474  0.0968 -1.6523
 5865SOL     OW29653   7.064   4.236   3.270  0.1836  0.4644  0.3104
 5865SOL    HW129654   7.154   4.241   3.313  0.2760 -1.7791  0.4201
 5865SOL    HW229655   7.075   4.236   3.170  0.3304 -0.0559  0.3243
 5866SOL     OW29656   2.406   1.398   7.673  0.1735  0.1873 -0.1435
 5866SOL    HW129657   2.377   1.368   7.764  0.6999  0.1542  0.0169
 5866SOL    HW229658   2.388   1.326   7.607  2.6182 -1.0317  0.4553
 5867SOL     OW29659   9.273   5.808   0.951 -0.4616  0.4342  0.1782
 5867SOL    HW129660   9.229   5.734   1.001  1.5776  0.1710  1.5959
 5867SOL    HW229661   9.250   5.896   0.994 -0.7091  0.4212  0.0767
 5868SOL     OW29662   1.322   6.353   8.442 -0.1383 -0.0271  0.0124
 5868SOL    HW129663   1.240   6.374   8.389 -0.0904 -1.2938 -0.5989
 5868SOL    HW229664   1.402   6.352   8.381  0.0552 -0.5864  0.2677
 5869SOL     OW29665   5.164   1.040   3.849 -0.6069  0.3021 -0.1189
 5869SOL    HW129666   5.260   1.029   3.822 -0.9580 -1.1288 -0.8332
 5869SOL    HW229667   5.136   1.135   3.835  0.9341  0.9194  0.8656
 5870SOL     OW29668   6.226   8.938   6.863 -0.6401 -0.3845 -0.2691
 5870SOL    HW129669   6.322   8.962   6.876 -0.2145 -1.9451 -0.4255
 5870SOL    HW229670   6.190   8.988   6.784 -0.0187  0.3414 -0.1058
 5871SOL     OW29671   0.006   2.461   7.468  0.9199 -0.5770  0.4187
 5871SOL    HW129672   0.102   2.481   7.447  0.9842  0.3808  1.5679
 5871SOL    HW229673  -0.052   2.491   7.393  1.4918 -0.9416 -0.1734
 5872SOL     OW29674   1.911   8.124   6.929  0.4417 -0.3074  0.2363
 5872SOL    HW129675   1.948   8.036   6.900  0.6141  0.4795 -1.9860
 5872SOL    HW229676   1.950   8.197   6.873 -1.1354  1.0048  0.7969
 5873SOL     OW29677   1.719   5.715   5.659  0.0483  0.0563 -0.1745
 5873SOL    HW129678   1.730   5.621   5.627 -0.1738  0.2880 -0.9443
 5873SOL    HW229679   1.623   5.731   5.684  0.3670 -0.3596  1.3885
 5874SOL     OW29680   6.604   9.096   5.185 -0.1428 -0.2493 -0.1969
 5874SOL    HW129681   6.626   9.172   5.125 -2.5624 -1.1869 -2.3868
 5874SOL    HW229682   6.506   9.098   5.207  0.1613 -1.5469  1.4441
 5875SOL     OW29683   2.325   0.274   5.749 -0.4926  0.0843  0.1639
 5875SOL    HW129684   2.384   0.335   5.801 -0.9189 -1.8994  3.1221
 5875SOL    HW229685   2.230   0.302   5.761 -0.6496 -0.8038  1.1389
 5876SOL     OW29686   8.841   2.906   7.157  0.1043  0.1102  0.6176
 5876SOL    HW129687   8.746   2.893   7.186 -0.1772 -0.5469 -0.5756
 5876SOL    HW229688   8.875   2.821   7.117  0.2855  1.1775 -1.5436
 5877SOL     OW29689   9.414   5.155   2.875  0.4952 -0.3516 -0.3666
 5877SOL    HW129690   9.436   5.073   2.928 -0.1865 -0.8854 -0.8969
 5877SOL    HW229691   9.419   5.134   2.777  0.8443  0.3821 -0.5085
 5878SOL     OW29692   3.231   9.602   0.459  0.2728 -0.5867  0.3014
 5878SOL    HW129693   3.251   9.694   0.426  0.0521 -0.1299  1.4045
 5878SOL    HW229694   3.142   9.602   0.506  1.2168 -0.8648  2.1601
 5879SOL     OW29695   3.268   4.035   6.945 -0.4590 -0.4124  0.6010
 5879SOL    HW129696   3.256   4.006   7.040 -0.2277  0.7550  0.9952
 5879SOL    HW229697   3.309   3.961   6.892 -0.5306 -1.0452  1.4291
 5880SOL     OW29698   9.573   1.658   9.460 -0.0305 -0.8313  0.4358
 5880SOL    HW129699   9.633   1.578   9.463  2.0519  0.6060 -0.9361
 5880SOL    HW229700   9.594   1.719   9.536  0.5087 -0.1535 -0.2491
 5881SOL     OW29701   0.741   8.664   8.112 -0.0941  0.0930  0.2528
 5881SOL    HW129702   0.654   8.625   8.139  0.3430 -0.9191  0.2067
 5881SOL    HW229703   0.806   8.660   8.188 -0.1469  1.0394  0.3586
 5882SOL     OW29704   0.043   3.152   7.400  0.0719 -0.4523  0.9652
 5882SOL    HW129705   0.066   3.064   7.444 -0.2894 -1.3601 -0.6359
 5882SOL    HW229706  -0.033   3.139   7.338  0.2506  0.9442  0.4443
 5883SOL     OW29707   4.251   8.155   5.290 -0.0400  0.0572 -0.3185
 5883SOL    HW129708   4.195   8.073   5.280  1.3932 -0.9761 -0.0856
 5883SOL    HW229709   4.347   8.132   5.273  0.3213  1.8068 -0.7936
 5884SOL     OW29710   3.493   1.895   9.782  0.7528  0.1158 -0.2664
 5884SOL    HW129711   3.531   1.882   9.873 -0.4708  1.0521  0.3862
 5884SOL    HW229712   3.532   1.977   9.741 -0.7746  1.2856  0.5492
 5885SOL     OW29713   0.725   2.081   4.951  0.0166  0.0520  0.1360
 5885SOL    HW129714   0.744   2.073   4.853  0.5586  2.0313  0.0538
 5885SOL    HW229715   0.775   2.159   4.988 -2.6026  1.1877  1.3714
 5886SOL     OW29716   9.104   1.699   1.357 -0.1820 -0.2306 -0.4837
 5886SOL    HW129717   9.110   1.789   1.313 -1.5048  0.2391  0.2678
 5886SOL    HW229718   9.013   1.687   1.397  0.6512 -1.0734  1.2265
 5887SOL     OW29719   0.331   1.873   9.868  0.1635 -0.0180 -0.2818
 5887SOL    HW129720   0.245   1.846   9.824 -0.4091 -1.1805  1.5024
 5887SOL    HW229721   0.333   1.972   9.879 -0.0006  0.2149 -2.2464
 5888SOL     OW29722   3.510   3.895   9.270  0.1369 -0.3308 -0.1018
 5888SOL    HW129723   3.508   3.873   9.173 -1.8048  0.6003 -0.3115
 5888SOL    HW229724   3.417   3.914   9.301  0.6949 -0.9660  2.0277
 5889SOL     OW29725   3.912   0.365   9.590  0.5015 -0.1242 -0.3814
 5889SOL    HW129726   3.964   0.377   9.506  1.6381  1.0813  0.4755
 5889SOL    HW229727   3.965   0.310   9.655  0.2788  0.2409  0.1176
 5890SOL     OW29728   3.867   0.089   9.672  0.4439  0.4770  0.5635
 5890SOL    HW129729   3.794   0.156   9.687  0.5211  0.2875  1.8368
 5890SOL    HW229730   3.932   0.093   9.748  1.1508 -0.1370 -0.0023
 5891SOL     OW29731   9.888   5.639   3.259  0.1252  0.4817 -0.1852
 5891SOL    HW129732   9.861   5.705   3.188 -0.8896 -0.4914 -0.7127
 5891SOL    HW229733   9.807   5.613   3.312  0.6537  0.1898  0.4763
 5892SOL     OW29734   2.720   4.049   1.345  0.1717  0.3819  0.9112
 5892SOL    HW129735   2.676   4.029   1.257 -0.4844  1.9962  0.8548
 5892SOL    HW229736   2.702   3.974   1.409 -1.3530  0.2848  0.3949
 5893SOL     OW29737   6.608   2.304   0.134 -0.1854 -0.4604  0.2139
 5893SOL    HW129738   6.539   2.247   0.179  0.0861 -1.2867 -0.3937
 5893SOL    HW229739   6.580   2.400   0.138 -0.8944 -0.6897  0.8173
 5894SOL     OW29740   4.537   5.895   0.543 -0.4987  0.0621  0.1253
 5894SOL    HW129741   4.626   5.921   0.503 -0.7866  1.0036  0.0847
 5894SOL    HW229742   4.518   5.954   0.621 -1.1685 -0.0264  0.0246
 5895SOL     OW29743   1.129   0.962   3.281 -0.4519 -0.0134  0.1522
 5895SOL    HW129744   1.143   0.945   3.378  1.2370  0.1435 -0.0542
 5895SOL    HW229745   1.130   1.060   3.263 -2.7464  0.0567  0.2460
 5896SOL     OW29746   6.649   0.870   1.058  0.5058 -0.0119  0.0425
 5896SOL    HW129747   6.748   0.880   1.056  0.6677 -0.9728  2.4136
 5896SOL    HW229748   6.625   0.773   1.072 -0.6953  0.6776  3.1684
 5897SOL     OW29749   5.441   3.061   6.665 -0.0831  0.0206 -0.0004
 5897SOL    HW129750   5.541   3.062   6.657 -0.0615  1.0863  0.4150
 5897SOL    HW229751   5.411   3.136   6.723 -1.0156 -1.2886  1.2363
 5898SOL     OW29752   4.027   2.080   2.726 -0.3616  0.3531  0.2652
 5898SOL    HW129753   4.000   2.060   2.632  1.8437 -2.5493  0.1720
 5898SOL    HW229754   4.125   2.103   2.728 -0.7213  1.9117  1.6877
 5899SOL     OW29755   2.987   4.162   7.266  0.0823  0.1841 -0.0761
 5899SOL    HW129756   3.062   4.139   7.327  0.6581 -0.1659 -0.9128
 5899SOL    HW229757   3.002   4.254   7.228 -0.5909  0.6565  0.7793
 5900SOL     OW29758   1.569   7.409   0.174 -0.0453  0.3451 -0.2507
 5900SOL    HW129759   1.586   7.483   0.239  0.4427 -0.2553  0.3112
 5900SOL    HW229760   1.656   7.369   0.144 -0.2659  0.5926 -1.2517
 5901SOL     OW29761   4.486   1.638   8.356  0.0512  0.2866 -0.5856
 5901SOL    HW129762   4.458   1.667   8.448 -0.7919 -2.4647  0.0466
 5901SOL    HW229763   4.408   1.599   8.308  1.1707 -1.0209 -1.3722
 5902SOL     OW29764   2.814   5.434   0.196  0.6782 -0.2281 -0.3912
 5902SOL    HW129765   2.906   5.454   0.161 -0.2992  3.0455 -1.3267
 5902SOL    HW229766   2.807   5.463   0.291  0.8973 -1.4029 -0.0139
 5903SOL     OW29767   1.518   0.468   9.300  0.9831 -0.3049  0.5747
 5903SOL    HW129768   1.446   0.533   9.276 -0.0353 -1.7655 -0.3918
 5903SOL    HW229769   1.580   0.456   9.223  1.1975 -0.4546  0.7678
 5904SOL     OW29770   0.328   3.917   7.923  0.2778 -0.5813 -0.2972
 5904SOL    HW129771   0.362   3.854   7.853 -0.3816 -1.8851  0.5416
 5904SOL    HW229772   0.356   4.010   7.900 -0.7071 -0.8552 -2.7736
 5905SOL     OW29773   1.490   7.579   4.973  0.1012  0.0366 -0.1914
 5905SOL    HW129774   1.479   7.537   4.883  1.0139  0.1458 -0.3559
 5905SOL    HW229775   1.420   7.649   4.986 -0.3995 -0.3865 -0.5715
 5906SOL     OW29776   9.738   5.838   8.538 -0.7278  0.0161 -0.0851
 5906SOL    HW129777   9.790   5.901   8.480  0.8501 -0.7917  0.4315
 5906SOL    HW229778   9.712   5.758   8.484 -0.2359 -0.2130  0.0129
 5907SOL     OW29779   8.706   8.278   1.315  0.4778  0.3343 -0.4313
 5907SOL    HW129780   8.607   8.266   1.309  0.4956  0.0903 -0.2306
 5907SOL    HW229781   8.727   8.349   1.383  0.3719  1.5751 -1.6706
 5908SOL     OW29782   7.245   0.321   5.921  0.1826 -0.2172 -0.1256
 5908SOL    HW129783   7.300   0.385   5.975  0.6709 -2.4910  2.1762
 5908SOL    HW229784   7.305   0.254   5.877 -0.6509 -2.3361  1.8853
 5909SOL     OW29785   7.804   5.034   1.369 -0.4729 -0.0188  0.0341
 5909SOL    HW129786   7.776   4.941   1.346 -0.6849  0.5639 -2.1404
 5909SOL    HW229787   7.724   5.094   1.369  0.0665  0.7417 -1.6326
 5910SOL     OW29788   0.251   9.981   8.865  0.1676 -0.1741 -0.5292
 5910SOL    HW129789   0.298   9.966   8.952  0.0873  0.7158 -0.3243
 5910SOL    HW229790   0.301  10.049   8.811 -0.5103  0.2761 -0.6003
 5911SOL     OW29791   3.926   5.145   2.789 -0.1738 -0.2241  0.3126
 5911SOL    HW129792   3.867   5.082   2.839 -1.8188 -0.4188 -1.7986
 5911SOL    HW229793   3.936   5.114   2.695  2.1676  0.5980  0.2644
 5912SOL     OW29794   8.187   6.116   6.834 -0.0216 -0.1925  0.5507
 5912SOL    HW129795   8.191   6.197   6.775 -0.1797 -0.4931  0.1236
 5912SOL    HW229796   8.135   6.138   6.916 -0.9689 -0.1564 -0.0490
 5913SOL     OW29797   5.985   0.877   4.121 -0.1143  0.6002 -0.5203
 5913SOL    HW129798   5.931   0.958   4.098 -1.3047  0.0819  0.3937
 5913SOL    HW229799   6.076   0.905   4.151 -0.4117  1.5773 -0.5113
 5914SOL     OW29800   1.100   7.081   7.769  0.1470  0.1597  0.2087
 5914SOL    HW129801   1.010   7.071   7.726  0.5473 -1.9600 -0.1833
 5914SOL    HW229802   1.156   7.143   7.714 -1.5661  2.8265  1.3206
 5915SOL     OW29803   1.359   6.027   7.395 -0.4656 -0.6848  0.4037
 5915SOL    HW129804   1.377   6.125   7.400  1.2769 -1.0222  1.1366
 5915SOL    HW229805   1.417   5.986   7.324 -2.0706 -1.0132 -0.7615
 5916SOL     OW29806   9.974   0.183   9.603  0.0060 -0.8685 -0.5025
 5916SOL    HW129807   9.973   0.083   9.602  0.4229 -0.8669 -1.4197
 5916SOL    HW229808   9.986   0.217   9.510  0.7132  0.0317 -0.0833
 5917SOL     OW29809   2.909   9.675   9.895 -0.3541 -0.1069  0.6150
 5917SOL    HW129810   2.911   9.774   9.884  0.3909 -0.1170  0.6284
 5917SOL    HW229811   2.985   9.634   9.844  0.2021 -0.5552  1.7924
 5918SOL     OW29812   2.046   7.373   5.110 -0.0594 -0.3159 -0.5322
 5918SOL    HW129813   2.123   7.365   5.172 -0.0238  2.8842 -0.0576
 5918SOL    HW229814   2.041   7.292   5.051  2.4702 -1.4142  0.7082
 5919SOL     OW29815   7.659   4.830   8.420 -0.1554  0.2610  0.3769
 5919SOL    HW129816   7.568   4.791   8.405 -0.0882  0.2614 -0.0472
 5919SOL    HW229817   7.665   4.866   8.513 -1.1866  1.8305 -0.1458
 5920SOL     OW29818   8.250   9.414   8.923 -0.5692 -0.2397 -0.1292
 5920SOL    HW129819   8.295   9.327   8.944 -0.1170  0.3772  1.4842
 5920SOL    HW229820   8.301   9.489   8.963 -1.2400  0.7514 -1.0920
 5921SOL     OW29821   2.699   3.192   1.267  0.3112  0.3970 -0.0581
 5921SOL    HW129822   2.703   3.095   1.290  0.5844  0.6984  1.2245
 5921SOL    HW229823   2.762   3.211   1.191 -1.0366 -0.7235 -1.4928
 5922SOL     OW29824   8.900   8.063   1.855  0.1144 -0.9467 -0.1519
 5922SOL    HW129825   8.819   8.006   1.866 -0.6293  0.3867  1.5842
 5922SOL    HW229826   8.902   8.133   1.927  3.3792 -1.6095  0.4736
 5923SOL     OW29827   8.955   9.138   7.193  0.1439  0.0514 -0.0751
 5923SOL    HW129828   9.029   9.205   7.204 -0.4651  0.6540  0.4131
 5923SOL    HW229829   8.905   9.129   7.280 -1.8608  1.4236 -1.0587
 5924SOL     OW29830   8.556   0.117   4.905  0.3729 -0.4747 -0.4459
 5924SOL    HW129831   8.486   0.165   4.853 -0.6610 -1.9629 -0.4480
 5924SOL    HW229832   8.566   0.024   4.871  0.4696 -1.1214  1.2758
 5925SOL     OW29833   2.645   0.895   5.647  0.0584  0.0395  1.0633
 5925SOL    HW129834   2.608   0.809   5.612 -0.5513  1.0092 -0.7452
 5925SOL    HW229835   2.576   0.941   5.702 -0.5092  0.5558 -0.0613
 5926SOL     OW29836   9.794   4.581   3.536 -0.5080 -0.0752 -0.6140
 5926SOL    HW129837   9.763   4.646   3.606 -0.0197 -0.1778 -0.3010
 5926SOL    HW229838   9.874   4.618   3.489 -0.6559 -0.1369 -0.9146
 5927SOL     OW29839   7.166   2.551   9.888 -0.7256 -0.2610  0.5969
 5927SOL    HW129840   7.174   2.649   9.905  0.7979 -0.1570 -0.5695
 5927SOL    HW229841   7.081   2.533   9.837 -1.1788  0.4002  1.1081
 5928SOL     OW29842   8.416   6.133   5.348  0.9431  0.0895  0.2290
 5928SOL    HW129843   8.464   6.185   5.418 -0.0500  0.0684  0.9293
 5928SOL    HW229844   8.382   6.048   5.387 -0.6641  0.6365  0.0425
 5929SOL     OW29845   5.528   4.347   1.664  0.3367  0.3328  0.4891
 5929SOL    HW129846   5.435   4.365   1.696  0.7472  1.2692  1.2009
 5929SOL    HW229847   5.525   4.299   1.576 -0.8117  0.7184  0.3110
 5930SOL     OW29848   2.618   4.263   2.829  0.7150 -0.2197  0.0197
 5930SOL    HW129849   2.525   4.279   2.797  0.1313 -0.9913  1.2764
 5930SOL    HW229850   2.676   4.341   2.805  0.6943 -1.3582 -4.2136
 5931SOL     OW29851   6.606   9.539   2.869 -0.0768  0.0240 -0.0118
 5931SOL    HW129852   6.680   9.533   2.936 -1.2327  0.0406  1.2841
 5931SOL    HW229853   6.555   9.624   2.884 -2.1686 -1.3791  1.0221
 5932SOL     OW29854   8.829   2.315   7.720 -0.6802  0.0083  0.2796
 5932SOL    HW129855   8.729   2.318   7.722 -0.7653 -2.1251 -0.0767
 5932SOL    HW229856   8.861   2.235   7.770  0.7213 -0.9565 -2.1054
 5933SOL     OW29857   9.301   3.225   7.674 -0.0823 -0.1948  0.1395
 5933SOL    HW129858   9.255   3.230   7.763  0.7491  1.6902  0.4794
 5933SOL    HW229859   9.397   3.198   7.688 -0.8577 -3.5341 -0.5205
 5934SOL     OW29860   2.466   2.545   8.017  0.8292  0.0119 -0.2167
 5934SOL    HW129861   2.484   2.523   8.113  0.7676 -0.7474 -0.3730
 5934SOL    HW229862   2.550   2.580   7.974  0.7308  0.8150  0.2369
 5935SOL     OW29863   4.706   7.807   3.778 -0.0967  0.2203 -0.0186
 5935SOL    HW129864   4.633   7.832   3.714  0.0657 -1.8786 -1.0442
 5935SOL    HW229865   4.786   7.865   3.762 -0.3498  0.2633 -1.1363
 5936SOL     OW29866   0.582   9.184   0.369 -0.1572  0.1343  0.5433
 5936SOL    HW129867   0.548   9.101   0.323 -0.9428  0.1392  1.0934
 5936SOL    HW229868   0.604   9.253   0.301  2.2930 -1.1586 -0.0560
 5937SOL     OW29869   0.922   2.045   5.704  0.0030  0.0606 -0.4614
 5937SOL    HW129870   0.919   2.103   5.623  1.1001 -0.0917 -0.6271
 5937SOL    HW229871   0.914   2.102   5.786 -1.6655  0.1591 -0.6763
 5938SOL     OW29872   0.480   7.631   0.811  0.3316 -0.6565 -0.6290
 5938SOL    HW129873   0.553   7.565   0.790  0.4370 -0.8573  0.2999
 5938SOL    HW229874   0.401   7.582   0.849 -0.3984 -0.4696 -1.8953
 5939SOL     OW29875   3.537   7.853   8.135  0.1455  0.2190  0.0903
 5939SOL    HW129876   3.585   7.932   8.098 -3.4266  0.9834 -3.2879
 5939SOL    HW229877   3.465   7.883   8.198  1.0114 -0.6222  1.5294
 5940SOL     OW29878   5.893   3.106   0.339 -0.1166 -0.2257  0.5014
 5940SOL    HW129879   5.985   3.069   0.350 -0.1803  0.2592  2.9399
 5940SOL    HW229880   5.847   3.109   0.428 -1.0296  3.3251 -0.0088
 5941SOL     OW29881   9.472   7.703   0.903 -0.0827 -0.0167  0.7194
 5941SOL    HW129882   9.542   7.773   0.911  0.4901 -0.4468 -0.3692
 5941SOL    HW229883   9.466   7.652   0.989 -0.0065  0.8943  1.2686
 5942SOL     OW29884   6.988   5.182   9.317  0.6517 -0.6762 -0.6135
 5942SOL    HW129885   7.007   5.264   9.372 -2.4161 -2.1654  2.8080
 5942SOL    HW229886   7.060   5.115   9.332  2.2203  0.6439 -2.0181
 5943SOL     OW29887   4.220   6.357   7.665 -0.4423 -0.4849  0.0891
 5943SOL    HW129888   4.231   6.276   7.607  1.7827 -0.3023  0.2352
 5943SOL    HW229889   4.299   6.365   7.726 -1.1994  1.1688  0.8625
 5944SOL     OW29890   0.432   5.535   3.136 -0.0793  0.2105  0.1633
 5944SOL    HW129891   0.466   5.464   3.199  0.2335  0.3374  0.1384
 5944SOL    HW229892   0.338   5.514   3.110 -0.9313  1.2309  2.2800
 5945SOL     OW29893   8.300   3.267   1.172 -0.1163  0.2640 -0.7632
 5945SOL    HW129894   8.292   3.367   1.179 -1.2018  0.3224 -2.4542
 5945SOL    HW229895   8.326   3.243   1.079 -2.1427 -1.1434 -1.0003
 5946SOL     OW29896   0.028   0.483   2.622 -0.0488 -0.3781  0.2637
 5946SOL    HW129897   0.083   0.565   2.608  1.4833 -1.3347  0.5995
 5946SOL    HW229898   0.087   0.403   2.628 -1.5847 -1.6596 -1.0696
 5947SOL     OW29899   1.476   8.472   4.811 -0.4040  0.2375  0.1513
 5947SOL    HW129900   1.448   8.394   4.755 -0.9382  0.1138  0.5840
 5947SOL    HW229901   1.529   8.440   4.889 -2.4780  0.0629  1.5478
 5948SOL     OW29902   6.317   4.978   8.371  0.5566 -0.2953  0.0249
 5948SOL    HW129903   6.308   4.916   8.449  2.0281 -0.4076  0.1098
 5948SOL    HW229904   6.340   5.070   8.403  1.9542 -0.5185 -0.3192
 5949SOL     OW29905   4.148   9.758   0.662 -0.5709 -0.3814  0.4710
 5949SOL    HW129906   4.087   9.749   0.741 -1.6480 -1.3653 -0.4560
 5949SOL    HW229907   4.094   9.763   0.578  0.6097 -1.2087 -0.3678
 5950SOL     OW29908   7.987   7.390   5.288 -0.5063  0.1682 -0.0534
 5950SOL    HW129909   7.970   7.319   5.219 -0.9801  1.3308 -1.1576
 5950SOL    HW229910   7.899   7.429   5.317 -0.2881 -0.1040  1.0026
 5951SOL     OW29911   9.375   2.615   3.966  0.1412 -0.3879  0.1603
 5951SOL    HW129912   9.394   2.704   3.924 -2.1571  0.0369 -0.0071
 5951SOL    HW229913   9.397   2.618   4.064  0.4896  0.2148  0.0631
 5952SOL     OW29914   1.433   0.603   8.236  0.4186 -0.2912 -0.4995
 5952SOL    HW129915   1.430   0.532   8.306  2.5108  1.4668  1.4609
 5952SOL    HW229916   1.495   0.575   8.163  2.5324  0.1413  1.0704
 5953SOL     OW29917   4.208   2.597   0.686  0.4240  0.5370 -0.0042
 5953SOL    HW129918   4.233   2.666   0.618  1.3043  0.4192  0.1839
 5953SOL    HW229919   4.202   2.508   0.642  1.4207  0.3880  0.1306
 5954SOL     OW29920   3.637   9.074   0.942 -0.3714 -0.7631  0.1115
 5954SOL    HW129921   3.609   9.048   1.035  1.5894 -0.8261  0.7092
 5954SOL    HW229922   3.707   9.145   0.947 -0.3869 -0.6323 -1.3346
 5955SOL     OW29923   0.823   6.746   1.031  0.3837  0.6121  0.3416
 5955SOL    HW129924   0.744   6.767   0.973 -0.3573 -0.1815  1.0444
 5955SOL    HW229925   0.905   6.739   0.975 -0.0798  1.2544 -0.4232
 5956SOL     OW29926   1.185   3.237   6.301 -0.0813 -0.4315 -0.4071
 5956SOL    HW129927   1.125   3.312   6.329 -0.5802 -0.9513 -0.0839
 5956SOL    HW229928   1.216   3.188   6.383  0.4007 -0.4661 -0.6060
 5957SOL     OW29929   0.564   3.929   0.909  0.4533 -0.1157  0.3462
 5957SOL    HW129930   0.616   3.923   0.824 -1.0013  2.1692 -0.7581
 5957SOL    HW229931   0.466   3.921   0.889  0.1239  0.0291  1.8509
 5958SOL     OW29932   7.487   4.293   8.529  0.1192  0.1190  0.4076
 5958SOL    HW129933   7.548   4.214   8.537 -1.8879 -1.3309  2.0694
 5958SOL    HW229934   7.418   4.274   8.458 -1.1844 -0.2293  1.7435
 5959SOL     OW29935   8.770   6.327   7.205  0.6109 -0.3639  0.3275
 5959SOL    HW129936   8.730   6.375   7.127  1.9779  3.1998  1.7239
 5959SOL    HW229937   8.712   6.340   7.285  0.5376 -1.8564  0.5391
 5960SOL     OW29938   4.280   3.984   8.358 -0.3849 -0.1251 -0.1611
 5960SOL    HW129939   4.281   3.887   8.383  1.4272 -0.6702 -2.2657
 5960SOL    HW229940   4.239   3.995   8.268  0.2804  0.9765 -0.3380
 5961SOL     OW29941   6.829   3.218   9.147 -0.0471 -0.2176 -0.0486
 5961SOL    HW129942   6.742   3.260   9.123  0.3157  2.0526  2.3873
 5961SOL    HW229943   6.897   3.236   9.076 -0.3635  1.9436  0.1605
 5962SOL     OW29944   3.222   7.629   7.813  0.4289 -0.1518 -0.2916
 5962SOL    HW129945   3.296   7.686   7.850 -0.6387  0.5373  0.8160
 5962SOL    HW229946   3.135   7.658   7.852 -0.1614 -2.4618  0.1610
 5963SOL     OW29947   2.022   2.007   0.969  0.6555  0.5098  0.2958
 5963SOL    HW129948   2.058   2.039   1.056 -0.8214 -1.6177  1.7230
 5963SOL    HW229949   2.097   1.973   0.912  1.4966  0.9314  1.1558
 5964SOL     OW29950   0.478   4.434   4.733  0.1938 -0.5900 -0.4213
 5964SOL    HW129951   0.437   4.394   4.815 -1.5157 -2.1571 -1.9930
 5964SOL    HW229952   0.498   4.362   4.667  1.1582  0.7058 -1.5832
 5965SOL     OW29953   6.521   4.841   7.719 -0.1032 -0.0853 -0.0510
 5965SOL    HW129954   6.600   4.795   7.678  1.2259  0.3464  1.9643
 5965SOL    HW229955   6.437   4.808   7.675  1.0241 -2.2503 -0.6742
 5966SOL     OW29956   0.601   6.986   3.892 -0.0385 -0.0326  0.3739
 5966SOL    HW129957   0.512   6.949   3.920  0.7882 -1.5782  1.0123
 5966SOL    HW229958   0.672   6.918   3.909  1.1624  0.8724 -0.9262
 5967SOL     OW29959   4.032   6.067   8.813  0.0400  0.2376  0.2611
 5967SOL    HW129960   4.113   6.044   8.759  1.2027  3.1230  0.6807
 5967SOL    HW229961   3.973   5.986   8.820  1.3307 -1.0590 -2.7073
 5968SOL     OW29962   8.539   1.986   2.427 -0.1786  0.0611 -0.6558
 5968SOL    HW129963   8.595   2.053   2.378 -0.3586  1.3723  0.8911
 5968SOL    HW229964   8.570   1.980   2.522 -1.8824 -0.0881 -0.0925
 5969SOL     OW29965   3.046   1.422   7.944 -0.1635 -0.0292 -0.3369
 5969SOL    HW129966   3.143   1.446   7.946 -0.3678  0.7885 -0.0565
 5969SOL    HW229967   3.023   1.368   8.025 -0.1109  0.4307 -0.0160
 5970SOL     OW29968   8.325   8.552   2.055 -0.4739  0.2050 -0.1695
 5970SOL    HW129969   8.239   8.603   2.043  0.1151  1.0991 -0.6806
 5970SOL    HW229970   8.378   8.594   2.129 -0.8525 -0.8731  0.7290
 5971SOL     OW29971   7.689   6.041   4.493  0.6674 -0.1673  0.2420
 5971SOL    HW129972   7.788   6.031   4.492  0.5351 -1.6642  0.4938
 5971SOL    HW229973   7.649   5.967   4.547 -0.6424 -0.1283 -0.6497
 5972SOL     OW29974   9.092   3.402   7.630  0.6172 -0.2849 -0.2852
 5972SOL    HW129975   9.156   3.325   7.637  0.1860 -0.6841 -0.6963
 5972SOL    HW229976   9.141   3.487   7.649  1.1972 -0.6171 -0.2597
 5973SOL     OW29977   5.516   2.093   1.054 -0.5242 -0.1280  0.0011
 5973SOL    HW129978   5.527   2.157   0.977 -0.7928  0.7035  0.6409
 5973SOL    HW229979   5.605   2.055   1.079  0.0751  2.0560  1.3396
 5974SOL     OW29980   9.434   0.376   0.359  0.1726 -0.3271 -0.1732
 5974SOL    HW129981   9.519   0.377   0.307 -0.4098 -0.5209 -1.1634
 5974SOL    HW229982   9.411   0.282   0.385  1.2981 -0.0576  1.8740
 5975SOL     OW29983   2.479   4.337   4.084  0.3264  0.4776 -0.3931
 5975SOL    HW129984   2.433   4.329   3.995  0.6312 -0.6818 -0.4599
 5975SOL    HW229985   2.421   4.389   4.147 -1.7591 -2.1074 -0.0560
 5976SOL     OW29986   9.547   9.352   2.095  0.6200 -0.1063 -0.1395
 5976SOL    HW129987   9.562   9.441   2.052 -1.1536  0.3549  0.1772
 5976SOL    HW229988   9.449   9.337   2.109  0.9455 -1.7842  0.5045
 5977SOL     OW29989   2.515   4.466   0.786  0.0800 -0.3008  0.1733
 5977SOL    HW129990   2.511   4.521   0.870 -2.4806  0.2478 -0.2476
 5977SOL    HW229991   2.564   4.517   0.715 -1.5743  1.1693  0.0342
 5978SOL     OW29992   1.845   3.728   6.094  0.0319 -0.3288 -0.6095
 5978SOL    HW129993   1.827   3.814   6.141 -0.1635 -0.4578 -0.4462
 5978SOL    HW229994   1.867   3.746   5.998  0.7125 -0.0443 -0.4030
 5979SOL     OW29995   0.387   5.024   4.327 -0.1706 -0.0420 -0.2168
 5979SOL    HW129996   0.291   5.040   4.347 -0.0649  0.8615 -0.4144
 5979SOL    HW229997   0.442   5.042   4.409 -0.2679 -1.6583  0.2284
 5980SOL     OW29998   0.913   4.148   9.071 -0.0026  0.2452 -0.0615
 5980SOL    HW129999   0.952   4.131   8.981  0.4802 -1.2483  0.4234
 5980SOL    HW230000   0.979   4.196   9.128  0.1905 -0.0347 -0.0528
 5981SOL     OW30001   6.257   5.471   8.395  0.2874 -0.5158  0.0897
 5981SOL    HW130002   6.197   5.415   8.338  1.0129  0.5014 -1.6999
 5981SOL    HW230003   6.244   5.568   8.372 -0.1382  0.0021  2.3542
 5982SOL     OW30004   2.981   3.417   6.716  0.8885 -0.2383  0.1671
 5982SOL    HW130005   3.014   3.490   6.656  1.5485 -0.4441  0.2772
 5982SOL    HW230006   2.907   3.453   6.773  1.5104  0.4768  0.5374
 5983SOL     OW30007   6.277   8.642   5.565 -0.2450  0.3647 -0.9185
 5983SOL    HW130008   6.314   8.735   5.562 -1.2777  0.7726 -1.1056
 5983SOL    HW230009   6.346   8.581   5.604  1.0515  0.8985 -2.3099
 5984SOL     OW30010   4.689   7.905   2.479  0.2746 -0.1721  0.1612
 5984SOL    HW130011   4.630   7.829   2.452  0.1172 -0.0231  0.0781
 5984SOL    HW230012   4.658   7.988   2.432  0.3643 -0.0324  0.3513
 5985SOL     OW30013   1.423   9.840   8.700  0.1928  0.3704 -0.2818
 5985SOL    HW130014   1.408   9.817   8.604 -2.0692 -1.1418  0.3921
 5985SOL    HW230015   1.510   9.800   8.731  0.6276  0.3368 -1.5293
 5986SOL     OW30016   6.954   5.205   7.003  0.3093 -0.6432 -0.6293
 5986SOL    HW130017   7.052   5.191   6.986  0.4314 -0.3578 -0.1775
 5986SOL    HW230018   6.901   5.162   6.931  0.8290  0.6865 -1.8176
 5987SOL     OW30019   3.793   1.321   4.630 -0.2060 -0.2343  0.4534
 5987SOL    HW130020   3.709   1.355   4.587 -1.0132 -0.0757  2.0935
 5987SOL    HW230021   3.770   1.250   4.697  0.8880  0.2721  1.3917
 5988SOL     OW30022   8.612   7.186   2.565  0.6012  0.3169  0.0772
 5988SOL    HW130023   8.553   7.114   2.600  2.8243 -1.1197  0.9874
 5988SOL    HW230024   8.645   7.161   2.474 -0.0182  1.0203 -0.3466
 5989SOL     OW30025   8.292   3.450   3.695 -1.0614 -0.7600 -0.1281
 5989SOL    HW130026   8.244   3.367   3.724  0.8863 -2.4162 -1.4467
 5989SOL    HW230027   8.342   3.488   3.773 -2.3102 -0.5707  0.5877
 5990SOL     OW30028   1.844   0.923   6.500  0.6537 -0.1694  0.4191
 5990SOL    HW130029   1.895   0.869   6.432 -1.3437 -1.8168  0.1821
 5990SOL    HW230030   1.852   0.879   6.589  1.6762  0.9401  0.8911
 5991SOL     OW30031   2.549   6.544   0.367 -0.1847 -0.2778  0.4667
 5991SOL    HW130032   2.598   6.614   0.418 -0.3980 -0.4085  0.8584
 5991SOL    HW230033   2.561   6.455   0.412  1.8126 -0.8861 -1.1852
 5992SOL     OW30034   4.406   4.347   0.992 -0.7747 -0.3870 -0.4182
 5992SOL    HW130035   4.460   4.363   1.075  1.0230  2.1242 -2.0008
 5992SOL    HW230036   4.468   4.338   0.914 -2.5899  1.5996 -2.1483
 5993SOL     OW30037   3.147   3.463   9.950 -0.1961  0.5509 -0.1492
 5993SOL    HW130038   3.129   3.561   9.948  0.3886  0.6763  0.2606
 5993SOL    HW230039   3.182   3.433   9.862  1.6883  1.1386  0.3718
 5994SOL     OW30040   2.371   5.774   9.261 -0.3579  0.5774 -0.7068
 5994SOL    HW130041   2.448   5.724   9.221  0.2343  0.7252  0.2249
 5994SOL    HW230042   2.380   5.773   9.361 -1.3309  0.9765 -0.6118
 5995SOL     OW30043   0.494   1.285   0.148 -0.2648  0.4289 -0.1005
 5995SOL    HW130044   0.486   1.297   0.049  0.4910 -2.9511 -0.6272
 5995SOL    HW230045   0.591   1.283   0.174 -0.4525  0.6488  0.6471
 5996SOL     OW30046   8.810   1.090   6.519  0.9175  0.6109 -0.2417
 5996SOL    HW130047   8.779   1.185   6.519  1.5804  0.8293  0.2778
 5996SOL    HW230048   8.795   1.050   6.429 -1.3855  0.5482  0.1368
 5997SOL     OW30049   9.374   0.116   0.422  0.2366  0.2575 -0.0251
 5997SOL    HW130050   9.300   0.082   0.480  1.4197 -0.4340  1.1116
 5997SOL    HW230051   9.438   0.042   0.402  1.0306  1.0164 -0.3524
 5998SOL     OW30052   8.139   5.564   8.481  0.1869  0.3919  0.1425
 5998SOL    HW130053   8.126   5.466   8.501 -0.1427 -0.0973 -2.2863
 5998SOL    HW230054   8.158   5.613   8.566 -3.2799 -1.1729  1.9584
 5999SOL     OW30055   0.268   1.428   1.258  0.1454  0.1573 -0.1019
 5999SOL    HW130056   0.345   1.384   1.305 -0.4324  0.3509  1.0433
 5999SOL    HW230057   0.299   1.514   1.217 -0.0114  1.5068  2.5174
 6000SOL     OW30058   2.835   3.022   5.765  0.2801 -0.3449 -0.2093
 6000SOL    HW130059   2.802   3.069   5.847  2.2114 -0.0054  0.3916
 6000SOL    HW230060   2.841   2.924   5.783  0.2170 -0.3284 -0.0967
 6001SOL     OW30061   9.993   6.860   5.407 -0.2560 -0.1262 -0.2813
 6001SOL    HW130062   9.929   6.823   5.474  0.7655 -0.2926  0.6094
 6001SOL    HW230063   9.987   6.960   5.408  0.2068 -0.1067  0.4969
 6002SOL     OW30064   2.002   2.138   9.189 -0.4351  0.1673  0.0069
 6002SOL    HW130065   2.033   2.091   9.272 -2.1792 -0.3743  0.3900
 6002SOL    HW230066   2.044   2.228   9.183  0.3521 -0.1263  1.0489
 6003SOL     OW30067   1.909   3.842   8.470  0.1122  0.2234 -0.0924
 6003SOL    HW130068   2.007   3.858   8.476  0.0466  1.3492 -1.5043
 6003SOL    HW230069   1.871   3.825   8.561  1.2548  2.0080  0.7481
 6004SOL     OW30070   7.949   1.860   1.137  0.2708  0.7429  0.0847
 6004SOL    HW130071   7.860   1.819   1.119 -0.1438  1.8445 -0.4129
 6004SOL    HW230072   7.938   1.937   1.200  1.0670  0.0005  1.1613
 6005SOL     OW30073   2.275   9.730   3.573 -0.1320 -0.1803 -0.3896
 6005SOL    HW130074   2.181   9.726   3.606 -0.1644 -0.1345 -0.4765
 6005SOL    HW230075   2.322   9.808   3.614 -0.4022  0.3267 -1.0519
 6006SOL     OW30076   2.873   5.507   9.285  0.8505 -0.0558 -0.3293
 6006SOL    HW130077   2.908   5.414   9.289  0.9185 -0.0158  0.0366
 6006SOL    HW230078   2.925   5.566   9.347  0.9207  0.2641 -0.6897
 6007SOL     OW30079   0.417   5.820   9.424  0.1077 -0.0874  0.0904
 6007SOL    HW130080   0.436   5.911   9.387  3.1289 -0.6761  0.1032
 6007SOL    HW230081   0.416   5.823   9.524 -2.0565  0.3262  0.0900
 6008SOL     OW30082   9.078   0.464   2.083  0.6666 -0.1832 -0.8061
 6008SOL    HW130083   9.020   0.386   2.057 -1.8102  1.1389  0.6326
 6008SOL    HW230084   9.157   0.431   2.135 -1.5773 -1.5622  1.8362
 6009SOL     OW30085   9.738   4.856   6.545 -0.0985  0.3403 -0.3288
 6009SOL    HW130086   9.759   4.948   6.512  0.0075  0.3917 -0.1195
 6009SOL    HW230087   9.691   4.863   6.633  1.1167  0.1538  0.3415
 6010SOL     OW30088   7.518   9.686   7.815 -0.6283 -0.2163  0.1021
 6010SOL    HW130089   7.549   9.611   7.873  1.0426 -0.1115 -0.6428
 6010SOL    HW230090   7.419   9.698   7.827 -0.7585 -1.9153  0.9308
 6011SOL     OW30091   9.467   4.098   1.635 -0.4273 -0.3645  0.0347
 6011SOL    HW130092   9.534   4.097   1.710 -0.9848  0.5035  0.5514
 6011SOL    HW230093   9.432   4.191   1.623 -1.3234 -0.7596 -0.4249
 6012SOL     OW30094   3.805   0.097   1.862 -0.1822  0.0586 -0.1564
 6012SOL    HW130095   3.863   0.038   1.806  0.1016 -0.0951  0.2955
 6012SOL    HW230096   3.721   0.118   1.813 -0.7003 -1.4765  0.0338
 6013SOL     OW30097   6.409   9.370   5.273  0.3162 -0.0073 -0.4664
 6013SOL    HW130098   6.471   9.407   5.203  0.7048 -2.8612 -1.7159
 6013SOL    HW230099   6.322   9.346   5.231  0.2379 -0.9197  0.1869
 6014SOL     OW30100   3.359   2.097   0.503  0.2376  0.3177  0.3678
 6014SOL    HW130101   3.349   2.190   0.537 -0.7852  0.3399  0.0377
 6014SOL    HW230102   3.456   2.074   0.495  0.4915  1.2697  0.6678
 6015SOL     OW30103   0.898   2.449   5.909  0.1567 -0.0510 -0.2862
 6015SOL    HW130104   0.892   2.499   5.823  0.7184 -1.3778 -1.1280
 6015SOL    HW230105   0.929   2.510   5.982  0.7227  0.8411 -1.2579
 6016SOL     OW30106   0.551   3.659   1.038  0.4017 -0.4741  0.6439
 6016SOL    HW130107   0.583   3.690   1.128  0.7384 -0.0025  0.3647
 6016SOL    HW230108   0.549   3.736   0.975 -0.5863 -0.6468  0.4497
 6017SOL     OW30109   5.605   2.570   8.578 -0.2373  0.2021  0.5025
 6017SOL    HW130110   5.611   2.663   8.544  2.0786  0.2768  0.9929
 6017SOL    HW230111   5.617   2.505   8.503  0.2170  0.3237  0.4706
 6018SOL     OW30112   3.844   8.171   5.495 -0.8278  0.0551  0.5520
 6018SOL    HW130113   3.823   8.101   5.427 -0.8266 -0.3693  0.9864
 6018SOL    HW230114   3.772   8.241   5.494 -1.8699 -0.9820  1.4840
 6019SOL     OW30115   0.053   2.818   2.304 -0.2935  0.2066 -0.4537
 6019SOL    HW130116   0.087   2.906   2.272 -0.1211  0.7231  1.1056
 6019SOL    HW230117   0.093   2.745   2.249  1.6392  0.9405 -0.0745
 6020SOL     OW30118   9.802   4.734   0.105 -0.4969  0.2803 -0.2797
 6020SOL    HW130119   9.806   4.799   0.029 -1.9646 -0.5318 -1.0786
 6020SOL    HW230120   9.708   4.726   0.138 -0.3160 -1.2919 -0.0866
 6021SOL     OW30121   4.520   8.540   0.060  0.7982  0.8076  0.8022
 6021SOL    HW130122   4.563   8.460   0.020  0.1573  0.7313  0.2619
 6021SOL    HW230123   4.536   8.620   0.002  1.8312  1.1690  1.5754
 6022SOL     OW30124   2.076   0.969   1.247 -0.0731  0.0793  0.1807
 6022SOL    HW130125   2.063   0.870   1.245  0.7538 -0.0180 -0.5519
 6022SOL    HW230126   2.117   0.995   1.334  2.8511 -0.6290 -0.9427
 6023SOL     OW30127   3.789   1.801   8.483 -0.4180 -0.2852 -0.5184
 6023SOL    HW130128   3.797   1.900   8.496  0.8030 -0.4620  0.0944
 6023SOL    HW230129   3.826   1.776   8.394 -1.6645 -0.0687 -1.1100
 6024SOL     OW30130   2.658   5.582   7.648  0.6846 -0.0035  0.4893
 6024SOL    HW130131   2.560   5.585   7.667  0.4744 -1.2027 -0.3773
 6024SOL    HW230132   2.708   5.564   7.733  0.0019 -1.5786  0.5719
 6025SOL     OW30133   7.002   7.377   4.446 -0.4489 -0.6927  0.0743
 6025SOL    HW130134   7.093   7.335   4.447 -0.1345 -0.0022  1.4872
 6025SOL    HW230135   6.940   7.320   4.392  0.5540 -1.7228 -0.0168
 6026SOL     OW30136   5.762   4.353   1.042  0.0594 -0.6605  0.3263
 6026SOL    HW130137   5.691   4.396   0.986  0.6502 -1.5731 -1.1238
 6026SOL    HW230138   5.732   4.262   1.071  1.0002 -1.4098 -1.0336
 6027SOL     OW30139   8.198   8.788   8.258  0.2100 -0.2125 -0.0319
 6027SOL    HW130140   8.257   8.858   8.299 -0.3838  0.0705  0.3454
 6027SOL    HW230141   8.104   8.821   8.256  0.1929 -0.2861 -1.4766
 6028SOL     OW30142   5.251   3.209   2.477  0.1123 -0.5071  0.3252
 6028SOL    HW130143   5.287   3.290   2.432 -1.1159 -1.7863 -3.1634
 6028SOL    HW230144   5.181   3.235   2.544 -1.1121  1.2844 -1.6057
 6029SOL     OW30145   1.556   6.159   3.637 -0.3544 -0.4349  0.0256
 6029SOL    HW130146   1.547   6.068   3.679 -0.1000 -0.5322 -0.1273
 6029SOL    HW230147   1.564   6.228   3.708  0.4773 -0.6417  0.1402
 6030SOL     OW30148   1.704   7.835   1.331  0.9535  0.4388  0.2925
 6030SOL    HW130149   1.736   7.929   1.321 -0.9373  1.0190 -0.4397
 6030SOL    HW230150   1.710   7.789   1.242 -1.9145  1.1019 -0.2696
 6031SOL     OW30151   7.406   3.348   2.691  0.1562  0.1329  0.0643
 6031SOL    HW130152   7.364   3.319   2.777  1.6070 -1.2334  0.3349
 6031SOL    HW230153   7.381   3.443   2.672 -1.1433  0.0709  1.3873
 6032SOL     OW30154   2.963   6.900   5.182  0.3297  0.2985 -0.3283
 6032SOL    HW130155   2.936   6.878   5.276 -1.7068 -0.2419 -1.0088
 6032SOL    HW230156   2.984   6.815   5.133  1.2525  0.5704 -0.4008
 6033SOL     OW30157   3.200   3.115   5.734  0.0853  0.0910 -0.3627
 6033SOL    HW130158   3.257   3.060   5.674 -1.1845 -2.1458  0.4195
 6033SOL    HW230159   3.110   3.128   5.692 -0.5341 -0.7846  0.6779
 6034SOL     OW30160   4.471   1.418   5.184  0.6489  0.1116 -0.3119
 6034SOL    HW130161   4.384   1.393   5.142  0.2739  0.1247  0.4446
 6034SOL    HW230162   4.512   1.493   5.132  0.5776 -0.4028 -1.1191
 6035SOL     OW30163   1.480   7.148   0.819  0.5074 -0.0590  0.0327
 6035SOL    HW130164   1.516   7.072   0.764  1.7434  1.5264 -1.3879
 6035SOL    HW230165   1.387   7.126   0.849 -0.4178 -0.7298 -3.1469
 6036SOL     OW30166   9.208   8.976   3.544 -0.0020  0.4665  1.0712
 6036SOL    HW130167   9.119   8.939   3.573 -0.2742 -0.4712 -0.8550
 6036SOL    HW230168   9.198   9.072   3.518 -0.8595 -0.0988 -0.8001
 6037SOL     OW30169   3.536   2.065   2.914  0.1313 -0.3268 -0.1898
 6037SOL    HW130170   3.508   2.032   3.004 -0.0945  2.0431  0.6568
 6037SOL    HW230171   3.634   2.049   2.902  0.2422 -0.2916  0.6518
 6038SOL     OW30172   5.448   7.704   2.474 -0.2013 -0.1593 -0.8112
 6038SOL    HW130173   5.358   7.722   2.514 -0.0601  0.9152 -0.9714
 6038SOL    HW230174   5.445   7.725   2.376 -0.1770 -1.5150 -1.1163
 6039SOL     OW30175   7.298   6.057   6.342 -0.0487 -0.0013 -0.0925
 6039SOL    HW130176   7.211   6.031   6.301 -0.2275  0.6410 -0.1326
 6039SOL    HW230177   7.295   6.154   6.369  0.3920 -0.1712  0.5867
 6040SOL     OW30178   8.119   8.048   8.753  0.5762 -0.2900 -0.4345
 6040SOL    HW130179   8.186   7.995   8.702 -1.1326 -0.9996 -2.0064
 6040SOL    HW230180   8.028   8.035   8.713 -0.5977  0.2525  1.9333
 6041SOL     OW30181   4.316   0.226   8.727  0.0836  0.0437 -0.2443
 6041SOL    HW130182   4.335   0.307   8.671  0.7090  0.3034  0.3422
 6041SOL    HW230183   4.402   0.180   8.750 -0.2266 -0.4728 -0.0945
 6042SOL     OW30184   2.985   3.463   5.732 -0.3635  0.1007 -0.1378
 6042SOL    HW130185   2.980   3.381   5.674 -1.7379 -0.9807  1.4601
 6042SOL    HW230186   3.068   3.459   5.788 -0.6016 -0.3856  0.1879
 6043SOL     OW30187   8.184   1.720   2.551  0.5077  0.8980  0.1281
 6043SOL    HW130188   8.174   1.738   2.649  0.5959 -0.5973  0.4278
 6043SOL    HW230189   8.101   1.749   2.503 -0.0245  0.5181  0.8110
 6044SOL     OW30190   5.760   7.334   4.655  0.1148 -0.6434  0.6061
 6044SOL    HW130191   5.852   7.370   4.639 -1.1039  2.6333  0.5852
 6044SOL    HW230192   5.732   7.356   4.749  0.1743 -3.6306  1.3846
 6045SOL     OW30193   8.858   6.009   0.574  0.1619  0.3466  0.0091
 6045SOL    HW130194   8.891   5.991   0.666  0.1813 -1.0584 -0.2478
 6045SOL    HW230195   8.935   6.008   0.510  0.7470  5.3767  0.4493
 6046SOL     OW30196   9.645   4.002   3.474 -0.4062  0.2786 -0.3820
 6046SOL    HW130197   9.619   3.997   3.570  1.1121  0.7432  0.0676
 6046SOL    HW230198   9.653   3.909   3.437 -0.5917  0.0876  0.0552
 6047SOL     OW30199   4.591   4.984   8.067  0.5476  0.0787  0.7494
 6047SOL    HW130200   4.627   5.067   8.109  0.6197 -0.2246  1.2828
 6047SOL    HW230201   4.530   5.008   7.991  2.1779  0.6007 -0.4232
 6048SOL     OW30202   6.028   8.425   5.731  0.2097  0.2309  0.6632
 6048SOL    HW130203   6.063   8.436   5.638  0.9241  2.1002  1.1255
 6048SOL    HW230204   5.943   8.372   5.728 -0.0402  0.6839 -1.1012
 6049SOL     OW30205   3.977   9.715   0.905 -0.8196 -0.1848 -0.5524
 6049SOL    HW130206   3.903   9.776   0.932  0.3804  1.4077 -0.7683
 6049SOL    HW230207   4.057   9.733   0.962  0.4728  0.4825 -2.5213
 6050SOL     OW30208   1.544   3.188   0.680 -0.2983 -0.2351 -0.2531
 6050SOL    HW130209   1.634   3.225   0.701 -0.0863 -1.4992  1.1816
 6050SOL    HW230210   1.550   3.130   0.599  0.2050 -0.3985 -0.1024
 6051SOL     OW30211   9.299   1.094   6.671  0.0298 -0.0680  0.1805
 6051SOL    HW130212   9.280   1.094   6.769  1.1397 -1.1917  0.4054
 6051SOL    HW230213   9.213   1.095   6.621 -0.5551 -0.2770  1.1615
 6052SOL     OW30214   7.136   1.784   4.327 -0.3255  0.0048 -0.4123
 6052SOL    HW130215   7.093   1.869   4.356 -0.3771  0.0650 -0.6711
 6052SOL    HW230216   7.217   1.804   4.272 -1.4854 -0.1183 -2.1932
 6053SOL     OW30217   2.323   7.095   4.963 -0.2804 -0.4119  0.0615
 6053SOL    HW130218   2.230   7.106   4.929 -0.3800 -0.2885  0.3681
 6053SOL    HW230219   2.385   7.152   4.910 -0.2584 -1.1018 -0.6596
 6054SOL     OW30220   2.390   2.598   2.059 -0.0710  0.8256 -0.0172
 6054SOL    HW130221   2.310   2.657   2.068 -1.1208 -0.7678  1.6584
 6054SOL    HW230222   2.467   2.639   2.108 -0.4412  1.3891  0.1053
 6055SOL     OW30223   2.859   9.828   7.558  0.3634 -0.0227  0.8376
 6055SOL    HW130224   2.919   9.889   7.609  0.0921  0.7090  0.2967
 6055SOL    HW230225   2.872   9.734   7.589  3.0295 -0.1094 -0.4423
 6056SOL     OW30226   7.537   2.962   9.835 -0.1495 -0.0388  0.3094
 6056SOL    HW130227   7.636   2.955   9.825 -0.1305 -1.8311  1.4330
 6056SOL    HW230228   7.492   2.926   9.754  0.1166 -2.7465  1.2959
 6057SOL     OW30229   9.549   6.934   4.532  0.5601  0.5418 -0.4119
 6057SOL    HW130230   9.623   6.927   4.465  0.3421  1.8095 -0.8127
 6057SOL    HW230231   9.505   7.024   4.523 -1.0990 -0.2323 -0.2768
 6058SOL     OW30232   5.406   2.224   8.554  0.2927 -0.0667 -0.1139
 6058SOL    HW130233   5.489   2.222   8.498 -0.4170  0.2066 -1.1882
 6058SOL    HW230234   5.342   2.156   8.519 -0.5614  0.8114 -0.2672
 6059SOL     OW30235   7.480   1.121   8.618 -0.4447 -0.5342 -0.3316
 6059SOL    HW130236   7.406   1.178   8.580 -1.8028 -2.7186 -1.1199
 6059SOL    HW230237   7.547   1.102   8.546 -0.0288 -0.0030 -0.0878
 6060SOL     OW30238   9.841   6.299   0.738 -0.2001 -0.0436  0.2026
 6060SOL    HW130239   9.843   6.387   0.785  0.5577  0.3118 -0.4867
 6060SOL    HW230240   9.812   6.312   0.643 -3.1014 -0.9411  0.9133
 6061SOL     OW30241   3.818   9.815   2.555 -0.5220  0.0052 -0.0083
 6061SOL    HW130242   3.747   9.866   2.507 -0.5361  0.2742  0.2976
 6061SOL    HW230243   3.882   9.878   2.597 -0.8970 -0.2175  0.9089
 6062SOL     OW30244   3.444   5.360   5.806  0.2419  0.0558  0.0693
 6062SOL    HW130245   3.377   5.403   5.867  0.2997 -1.2708  1.0825
 6062SOL    HW230246   3.398   5.327   5.724 -0.5244 -1.6021  1.1396
 6063SOL     OW30247   9.163   8.588   0.661  0.0590  0.5819 -0.4341
 6063SOL    HW130248   9.196   8.538   0.581  1.7256  0.5058  0.2833
 6063SOL    HW230249   9.137   8.681   0.634 -1.5816 -0.1389 -1.4740
 6064SOL     OW30250   1.143   2.620   7.516  0.2710 -0.2680  0.3633
 6064SOL    HW130251   1.054   2.580   7.538  0.0537  0.1894  0.3092
 6064SOL    HW230252   1.211   2.547   7.509  0.3200 -0.4385  2.4186
 6065SOL     OW30253   8.791   7.441   8.784 -0.5224  0.0817 -0.2470
 6065SOL    HW130254   8.825   7.523   8.831 -0.4983  0.3949 -0.7991
 6065SOL    HW230255   8.702   7.415   8.822  0.6688 -1.2193  1.7637
 6066SOL     OW30256   0.199   7.732   1.756  0.0182  0.4430  0.6961
 6066SOL    HW130257   0.216   7.641   1.718 -1.4117  0.1377  0.7307
 6066SOL    HW230258   0.256   7.800   1.710 -0.1368 -0.2357 -0.4948
 6067SOL     OW30259   1.374   4.186   7.767  0.3807  0.1998 -0.7139
 6067SOL    HW130260   1.349   4.282   7.754  0.5625  0.1822 -1.2245
 6067SOL    HW230261   1.344   4.133   7.687 -3.1868 -0.8702  1.2067
 6068SOL     OW30262   8.878   6.845   1.986  0.0711  0.5226  0.1193
 6068SOL    HW130263   8.905   6.918   1.923 -1.1461  0.4125 -0.5555
 6068SOL    HW230264   8.955   6.784   2.002  0.2233  0.1772 -1.8214
 6069SOL     OW30265   8.594   5.453   3.697 -0.3340  0.6029 -0.0181
 6069SOL    HW130266   8.588   5.508   3.613  0.6775 -0.1686 -0.5919
 6069SOL    HW230267   8.683   5.410   3.703 -1.6543 -2.2628 -0.3625
 6070SOL     OW30268   1.743   1.560   6.810 -0.0941 -0.7302  0.1022
 6070SOL    HW130269   1.646   1.537   6.810 -0.5854  1.1897  1.3986
 6070SOL    HW230270   1.796   1.485   6.851 -0.8047 -2.4821 -2.0746
 6071SOL     OW30271   0.553   0.700   5.181 -0.7047 -0.2502  0.4223
 6071SOL    HW130272   0.475   0.640   5.163 -0.2954 -0.1381 -1.8954
 6071SOL    HW230273   0.531   0.792   5.149  0.5394 -0.3303 -0.6916
 6072SOL     OW30274   3.162   0.236   0.863 -0.1470  0.0428 -0.0440
 6072SOL    HW130275   3.166   0.323   0.913  0.6907 -0.2486  0.3929
 6072SOL    HW230276   3.105   0.171   0.915 -0.1351  0.0784  0.0136
 6073SOL     OW30277   4.657   8.097   5.448 -0.2320  0.3468 -0.2528
 6073SOL    HW130278   4.600   8.126   5.525 -1.0307  1.9384 -1.4133
 6073SOL    HW230279   4.598   8.068   5.373  0.5362  0.1206 -0.7701
 6074SOL     OW30280   1.425   1.607   4.400 -0.0487  0.2316 -0.0385
 6074SOL    HW130281   1.331   1.606   4.364 -0.0768 -0.6221  0.0611
 6074SOL    HW230282   1.445   1.699   4.435 -0.9503  0.3481  0.2034
 6075SOL     OW30283   1.264   4.749   6.930 -0.2530  0.1497  0.0256
 6075SOL    HW130284   1.168   4.730   6.949 -0.5530  1.1960 -0.4483
 6075SOL    HW230285   1.320   4.673   6.964 -1.4412 -1.6738 -1.9576
 6076SOL     OW30286   9.354   1.924   4.684  0.0171  0.3467 -0.5666
 6076SOL    HW130287   9.364   2.016   4.647 -0.2288 -0.5396 -2.9377
 6076SOL    HW230288   9.258   1.899   4.689  0.1399 -0.3502 -1.4532
 6077SOL     OW30289   8.165   9.818   1.356 -0.4185 -0.2509  0.0815
 6077SOL    HW130290   8.078   9.808   1.308  0.4619 -0.2907 -1.5529
 6077SOL    HW230291   8.188   9.732   1.401 -2.3812  0.4828  2.5796
 6078SOL     OW30292   8.708   9.021   0.100  0.8728  0.1219  0.1472
 6078SOL    HW130293   8.766   8.996   0.023  0.7941  1.5598 -0.3770
 6078SOL    HW230294   8.617   9.047   0.067  0.8298  0.7122  0.7295
 6079SOL     OW30295   8.565   4.290   8.613 -0.2538 -0.5645 -0.4675
 6079SOL    HW130296   8.564   4.352   8.534 -1.2195  1.2500  0.9327
 6079SOL    HW230297   8.632   4.323   8.680  0.0810 -1.7197 -0.2340
 6080SOL     OW30298   6.432   0.309   7.726  0.3572 -0.4699 -0.0324
 6080SOL    HW130299   6.389   0.317   7.636  2.5826 -1.3720 -1.2133
 6080SOL    HW230300   6.376   0.249   7.784 -1.0108 -0.0096 -0.8588
 6081SOL     OW30301   9.897   0.353   5.370  0.2779  0.5310 -0.6279
 6081SOL    HW130302   9.807   0.340   5.328 -0.0694 -0.4857  0.4085
 6081SOL    HW230303   9.966   0.363   5.298 -0.3380 -1.0414 -1.4767
 6082SOL     OW30304   4.344   2.801   9.907  0.0968  0.1493 -0.0472
 6082SOL    HW130305   4.288   2.737   9.854  2.1616 -1.1268 -0.7750
 6082SOL    HW230306   4.401   2.855   9.844 -0.3546  1.4879  0.6691
 6083SOL     OW30307   0.356   8.945   6.911 -0.5592  0.2526  0.4068
 6083SOL    HW130308   0.400   8.988   6.990  0.6160  0.9950 -0.6379
 6083SOL    HW230309   0.326   9.016   6.847  0.8063 -0.4270 -1.0242
 6084SOL     OW30310   5.676   3.632   8.282 -0.2481  0.2814  0.6295
 6084SOL    HW130311   5.663   3.606   8.378  0.9733  1.2356  1.0748
 6084SOL    HW230312   5.628   3.718   8.264  0.5371  0.7512  0.7299
 6085SOL     OW30313   0.634   9.112   1.313 -0.0336 -0.9650 -0.1240
 6085SOL    HW130314   0.680   9.201   1.304 -0.9756 -0.2943  1.4717
 6085SOL    HW230315   0.702   9.042   1.335  0.2614  0.0079  2.1502
 6086SOL     OW30316   1.668   1.445   1.857  0.3705 -0.3504 -0.1495
 6086SOL    HW130317   1.598   1.407   1.917  0.1793 -1.0177 -0.7800
 6086SOL    HW230318   1.625   1.488   1.778  0.5966  1.0662  0.4855
 6087SOL     OW30319   4.392   7.597   2.843 -0.0608 -0.1012  0.3037
 6087SOL    HW130320   4.372   7.664   2.772 -0.9162 -2.0481 -1.3443
 6087SOL    HW230321   4.345   7.511   2.822  0.3767 -0.9790  2.7833
 6088SOL     OW30322   3.150   2.206   2.928  0.2411  0.1455  0.2209
 6088SOL    HW130323   3.222   2.243   2.987 -0.8200  0.4575  1.3271
 6088SOL    HW230324   3.131   2.111   2.954 -0.1947  0.2650  0.3338
 6089SOL     OW30325   9.932   0.442   8.331 -0.2072 -0.4734  0.0853
 6089SOL    HW130326   9.897   0.516   8.389  0.0760 -0.8926  0.7932
 6089SOL    HW230327   9.907   0.460   8.236 -2.5823 -0.8797  0.5908
 6090SOL     OW30328   2.723   7.329   0.021  0.0690 -0.1993  0.1657
 6090SOL    HW130329   2.787   7.401   0.048  0.2016 -0.1667 -0.2335
 6090SOL    HW230330   2.765   7.239   0.038 -0.7305 -0.2078  2.2090
 6091SOL     OW30331   8.517   2.640   9.460 -0.2085  0.3861 -0.0762
 6091SOL    HW130332   8.436   2.589   9.430  0.5014 -1.9603  1.8387
 6091SOL    HW230333   8.491   2.709   9.527 -0.4043 -1.8948  2.2795
 6092SOL     OW30334   8.933   7.301   2.728 -0.0482  0.1566  0.4470
 6092SOL    HW130335   9.020   7.297   2.777  0.6075  1.7175 -0.5576
 6092SOL    HW230336   8.861   7.331   2.791  0.0092 -1.7099  1.4230
 6093SOL     OW30337   1.692   2.548   1.102 -0.1902  1.1017  0.0756
 6093SOL    HW130338   1.780   2.570   1.144 -0.8457  1.4687  1.2949
 6093SOL    HW230339   1.652   2.468   1.148 -0.3179  0.7031 -0.7241
 6094SOL     OW30340   4.236   8.684   7.588  0.0501 -0.4138 -0.1447
 6094SOL    HW130341   4.294   8.762   7.612 -0.3172 -0.3574  0.5677
 6094SOL    HW230342   4.287   8.622   7.528  1.2739 -0.9774  1.4574
 6095SOL     OW30343   2.348   7.433   6.796 -0.0415 -0.6539 -0.0298
 6095SOL    HW130344   2.312   7.499   6.730  1.3644  1.2108  1.0064
 6095SOL    HW230345   2.276   7.405   6.859 -0.6594 -0.1230 -0.4915
 6096SOL     OW30346   6.210   5.449   9.935  0.0456  0.5045  0.3312
 6096SOL    HW130347   6.130   5.508   9.936  0.0544  0.6059 -1.8184
 6096SOL    HW230348   6.185   5.360   9.898  0.5801 -0.0118  1.2011
 6097SOL     OW30349   9.299   7.552   8.768 -0.4347 -0.0606  0.8379
 6097SOL    HW130350   9.342   7.514   8.686 -0.0790 -0.0392  1.0110
 6097SOL    HW230351   9.360   7.539   8.846 -1.4018 -1.3837  1.3775
 6098SOL     OW30352   4.200   3.192   6.151  0.2282  0.0038 -0.6173
 6098SOL    HW130353   4.213   3.098   6.119  3.5879 -0.1503  1.0455
 6098SOL    HW230354   4.247   3.255   6.089  0.8452  0.2851  0.1279
 6099SOL     OW30355   7.482   7.657   3.065 -0.3654  0.5758 -0.5659
 6099SOL    HW130356   7.447   7.745   3.030 -0.1483  1.0405  0.3803
 6099SOL    HW230357   7.411   7.587   3.054 -0.7358  0.9870 -0.8375
 6100SOL     OW30358   7.044   6.122   1.250  0.1806  0.3056  0.2206
 6100SOL    HW130359   6.952   6.161   1.257 -0.3841 -0.9597  0.0355
 6100SOL    HW230360   7.047   6.036   1.300  0.7850 -0.5295 -1.2365
 6101SOL     OW30361   8.863   4.766   5.498 -0.2440 -0.2859  0.2748
 6101SOL    HW130362   8.849   4.865   5.498 -0.7535 -0.3579  1.0538
 6101SOL    HW230363   8.798   4.724   5.435  0.4615 -0.0666 -0.6214
 6102SOL     OW30364   6.400   1.331   4.579  0.0027 -0.0401  0.0063
 6102SOL    HW130365   6.487   1.283   4.593  0.0044 -0.2797 -0.8093
 6102SOL    HW230366   6.418   1.422   4.541 -0.0304  0.4356  1.0985
 6103SOL     OW30367   4.362   8.157   0.495  0.4835 -1.0373 -0.2861
 6103SOL    HW130368   4.451   8.202   0.500  0.6263 -1.3850  0.4086
 6103SOL    HW230369   4.375   8.060   0.478  0.2601 -1.1627  0.2290
 6104SOL     OW30370   9.219   9.413   0.798  0.1910 -0.2216  0.2421
 6104SOL    HW130371   9.162   9.362   0.733 -0.1885  0.0234  0.3826
 6104SOL    HW230372   9.232   9.357   0.880 -0.7382  0.1453  0.6518
 6105SOL     OW30373   1.890   3.428   1.746  0.0699 -0.4579 -0.2659
 6105SOL    HW130374   1.914   3.342   1.701  0.4862  0.7914 -2.4904
 6105SOL    HW230375   1.961   3.496   1.728 -0.7177  0.6371  0.6959
 6106SOL     OW30376   5.899   0.833   0.630 -0.7067  0.3315  0.0308
 6106SOL    HW130377   5.891   0.743   0.673  0.7675 -0.1434 -0.6441
 6106SOL    HW230378   5.990   0.870   0.647 -2.6219  3.6526  3.9447
 6107SOL     OW30379   1.095   2.767   6.413 -0.3676 -0.0569 -0.3252
 6107SOL    HW130380   1.052   2.677   6.425 -0.4055  0.1536  1.1732
 6107SOL    HW230381   1.032   2.828   6.366 -1.2791 -0.1127  0.7979
 6108SOL     OW30382   0.523   6.012   1.950 -0.0119 -0.2205 -0.5814
 6108SOL    HW130383   0.572   6.057   2.025 -0.5696 -0.9751  0.2557
 6108SOL    HW230384   0.459   6.076   1.909  1.8112  0.8480 -1.8385
 6109SOL     OW30385   4.741   3.947   6.248 -0.2367 -0.3614 -0.2475
 6109SOL    HW130386   4.779   3.988   6.331 -1.9378  0.2030  0.2971
 6109SOL    HW230387   4.733   3.848   6.260  2.7373 -0.7373 -1.0870
 6110SOL     OW30388   1.674   5.279   8.996 -0.0856  0.0114  0.4793
 6110SOL    HW130389   1.665   5.224   9.079  0.7244 -0.3078  0.3551
 6110SOL    HW230390   1.770   5.303   8.982 -0.4159  1.3619  0.4668
 6111SOL     OW30391   1.012   0.119   0.730  0.0971 -0.0039  0.2569
 6111SOL    HW130392   1.032   0.197   0.670 -1.9131  1.3466  1.3093
 6111SOL    HW230393   1.088   0.106   0.793  1.2442 -0.0377 -1.0912
 6112SOL     OW30394   4.342   5.550   3.760  0.1416 -0.2648 -0.0299
 6112SOL    HW130395   4.276   5.625   3.750  0.5266  0.3040  1.5957
 6112SOL    HW230396   4.331   5.508   3.850 -0.8414 -2.9319 -1.3435
 6113SOL     OW30397   3.267   5.887   4.108 -0.0730  0.0267 -0.0858
 6113SOL    HW130398   3.280   5.792   4.081  0.6589  0.2982 -0.7023
 6113SOL    HW230399   3.193   5.928   4.054 -0.0366 -0.0413 -0.1873
 6114SOL     OW30400   3.031   0.333   1.983  0.0165  0.6655 -0.5463
 6114SOL    HW130401   3.050   0.333   2.081  0.5968 -0.0343 -0.6567
 6114SOL    HW230402   2.978   0.252   1.959  0.4963  0.4624 -0.9303
 6115SOL     OW30403   6.054   2.155   0.030 -0.5668  0.3662 -0.0859
 6115SOL    HW130404   6.086   2.246   0.056  0.0958  0.5874 -1.6361
 6115SOL    HW230405   6.079   2.136  -0.065 -0.6302 -1.4722  0.2408
 6116SOL     OW30406   0.233   6.226   8.937 -0.6250 -0.1790 -0.2121
 6116SOL    HW130407   0.269   6.271   9.019 -0.3979 -0.1332 -0.3367
 6116SOL    HW230408   0.262   6.276   8.856 -2.6616  1.0317 -0.2179
 6117SOL     OW30409   5.444   2.535   9.827  0.2349  0.1933 -0.8351
 6117SOL    HW130410   5.539   2.557   9.805  0.2508  0.1184 -0.8422
 6117SOL    HW230411   5.405   2.607   9.885  0.5704 -0.2192 -0.0927
 6118SOL     OW30412   1.454   4.849   3.895  0.1462 -0.1546 -0.0862
 6118SOL    HW130413   1.445   4.755   3.930 -1.7294  0.7812  2.0670
 6118SOL    HW230414   1.495   4.846   3.804 -0.0081 -3.0852 -0.1295
 6119SOL     OW30415   9.162   6.392   5.419 -0.7088  0.1425 -0.1087
 6119SOL    HW130416   9.115   6.348   5.342 -0.1923  1.5219 -1.2330
 6119SOL    HW230417   9.258   6.364   5.419 -1.0314 -1.0000  0.9175
 6120SOL     OW30418   0.920   2.306   3.979 -0.2341 -0.2255 -0.2120
 6120SOL    HW130419   0.983   2.380   3.958 -2.0195  1.9255  1.7257
 6120SOL    HW230420   0.959   2.247   4.050  0.2092  0.2432 -0.0698
 6121SOL     OW30421   4.473   7.554   3.208 -0.0677 -0.1049 -0.2949
 6121SOL    HW130422   4.422   7.638   3.188 -1.9975 -1.2476 -0.2497
 6121SOL    HW230423   4.490   7.505   3.122  2.4231  1.0730 -0.5115
 6122SOL     OW30424   5.888   9.380   7.003 -0.3031  0.0978  0.4407
 6122SOL    HW130425   5.970   9.327   6.982 -0.3725  0.6235 -1.2768
 6122SOL    HW230426   5.913   9.462   7.055  0.5943  1.4691 -2.0694
 6123SOL     OW30427   8.575   2.445   4.031 -0.3271 -0.2536 -0.3554
 6123SOL    HW130428   8.504   2.436   4.100 -1.9269 -0.4892 -1.9982
 6123SOL    HW230429   8.572   2.537   3.992  1.5092  0.3626  0.8378
 6124SOL     OW30430   0.227   6.483   7.964 -0.4341 -0.0580 -0.3782
 6124SOL    HW130431   0.318   6.505   7.928 -0.8876 -0.4564 -1.7931
 6124SOL    HW230432   0.163   6.555   7.939 -0.7621 -0.3600 -0.4036
 6125SOL     OW30433   5.300   8.792   4.878  0.3031 -0.1537  0.2091
 6125SOL    HW130434   5.363   8.789   4.800  0.1714  2.0196 -0.0177
 6125SOL    HW230435   5.348   8.824   4.959  0.5898 -3.0295  1.2209
 6126SOL     OW30436   8.707   3.770   0.852 -0.3790 -0.2331  0.2546
 6126SOL    HW130437   8.716   3.684   0.802  1.1083  0.8415 -1.3925
 6126SOL    HW230438   8.646   3.757   0.930 -1.1695 -2.4465 -0.6933
 6127SOL     OW30439   9.764   6.938   9.644  0.7709 -0.1463  0.1608
 6127SOL    HW130440   9.700   6.861   9.647 -0.1997  0.5960 -0.9393
 6127SOL    HW230441   9.746   6.998   9.722  0.5387 -0.2598  0.1967
 6128SOL     OW30442   7.558   8.228   5.064 -0.0062 -0.1437 -0.2560
 6128SOL    HW130443   7.628   8.185   5.121 -0.6230 -0.4219  0.3041
 6128SOL    HW230444   7.513   8.159   5.007 -1.2543 -0.3316  0.9162
 6129SOL     OW30445   0.579   1.080   0.354 -0.3698  0.2342 -0.0313
 6129SOL    HW130446   0.484   1.093   0.382  0.0419  2.0572  0.5775
 6129SOL    HW230447   0.622   1.169   0.339  1.2944 -0.5679 -0.1437
 6130SOL     OW30448   3.382   2.366   3.976 -0.1765 -0.5018 -0.2561
 6130SOL    HW130449   3.353   2.404   3.888 -1.6993 -0.0282  0.4392
 6130SOL    HW230450   3.307   2.372   4.041  0.9532 -0.8188  1.0944
 6131SOL     OW30451   5.891   1.592   6.888 -0.7539  0.3205 -0.2985
 6131SOL    HW130452   5.827   1.669   6.879 -0.1958  0.6532 -1.5425
 6131SOL    HW230453   5.952   1.591   6.809 -0.7450 -1.3924 -0.2779
 6132SOL     OW30454   7.341   3.994   8.023  0.1195 -0.5956 -0.0193
 6132SOL    HW130455   7.421   3.946   7.987 -1.0041  0.1571 -3.6678
 6132SOL    HW230456   7.316   4.068   7.961 -1.8207  0.8872  2.4556
 6133SOL     OW30457   4.142   9.219   1.871 -0.0919 -0.1125  0.3270
 6133SOL    HW130458   4.067   9.202   1.935  0.0511 -0.3168  0.4407
 6133SOL    HW230459   4.168   9.316   1.876 -0.8431  0.1277 -0.2533
 6134SOL     OW30460   1.920   2.044   3.139 -0.2729  0.0650 -0.3048
 6134SOL    HW130461   1.954   1.956   3.105  0.2379 -0.4871  1.5924
 6134SOL    HW230462   1.832   2.064   3.097  0.0951 -0.8427 -1.5447
 6135SOL     OW30463   9.553   9.596   9.633 -0.3181 -0.0667  0.0325
 6135SOL    HW130464   9.644   9.599   9.592  0.5436 -1.0719  1.7879
 6135SOL    HW230465   9.553   9.650   9.717 -2.4951  3.3452 -2.0529
 6136SOL     OW30466   2.352   1.957   9.482 -0.5256  0.4535 -0.5240
 6136SOL    HW130467   2.370   1.929   9.576  1.5958  1.3119 -0.6563
 6136SOL    HW230468   2.339   2.056   9.478 -0.3558  0.4529 -1.1858
 6137SOL     OW30469   7.232   4.863   7.828  0.2551 -0.8986 -0.6096
 6137SOL    HW130470   7.228   4.798   7.903 -0.1803  0.4182  0.5281
 6137SOL    HW230471   7.298   4.935   7.850 -0.7192  0.1243 -0.9761
 6138SOL     OW30472   8.130   7.857   2.745 -0.0365 -0.9755 -0.1067
 6138SOL    HW130473   8.071   7.879   2.668 -1.7844 -2.9422  0.6193
 6138SOL    HW230474   8.170   7.766   2.731 -0.2597 -1.2924  1.2471
 6139SOL     OW30475   3.433   0.904   6.291  0.1249 -0.1424 -0.1085
 6139SOL    HW130476   3.531   0.890   6.276 -0.1066 -1.4022 -0.5362
 6139SOL    HW230477   3.412   0.886   6.387  0.1037 -1.2371 -0.3040
 6140SOL     OW30478   8.314   8.763   4.446 -0.0706  0.0555 -0.4020
 6140SOL    HW130479   8.337   8.851   4.488 -1.9376  0.4327 -0.1424
 6140SOL    HW230480   8.361   8.755   4.358  1.3153  0.6372  0.2603
 6141SOL     OW30481   3.750   8.543   2.995  0.4148  0.1132 -0.6941
 6141SOL    HW130482   3.715   8.554   2.902  2.0830  0.6207 -1.2757
 6141SOL    HW230483   3.812   8.619   3.016  2.8671 -1.9164 -0.4595
 6142SOL     OW30484   8.403   4.914   8.105 -0.8147 -0.1256 -0.6018
 6142SOL    HW130485   8.408   5.014   8.110 -1.7099 -0.0664 -0.7428
 6142SOL    HW230486   8.378   4.878   8.195  0.6255 -0.3087 -0.2586
 6143SOL     OW30487   3.093   8.603   2.848  0.6703 -0.0641  0.1512
 6143SOL    HW130488   3.002   8.639   2.867  0.0730 -1.2966 -0.3119
 6143SOL    HW230489   3.089   8.546   2.766  1.7361 -0.6331  0.4984
 6144SOL     OW30490   8.193   3.217   1.865  0.2578  0.1457  0.0655
 6144SOL    HW130491   8.114   3.278   1.870  0.3623  0.2766  0.1302
 6144SOL    HW230492   8.169   3.135   1.811 -0.2051 -0.2468  0.8558
 6145SOL     OW30493   0.906   1.839   9.054  0.1349 -0.0503 -0.0735
 6145SOL    HW130494   0.821   1.811   9.099 -1.0786  0.9699 -1.6937
 6145SOL    HW230495   0.887   1.869   8.960  1.7376  3.4713  0.6138
 6146SOL     OW30496   2.807   0.348   6.007  0.0630 -0.2355 -0.3722
 6146SOL    HW130497   2.805   0.447   6.021  0.6602 -0.5313  1.9903
 6146SOL    HW230498   2.755   0.325   5.925 -0.9153  1.9397 -0.3882
 6147SOL     OW30499   0.436   9.079   1.113 -0.1011  0.1859  0.3011
 6147SOL    HW130500   0.503   9.079   1.187 -0.4040  0.3431  0.5778
 6147SOL    HW230501   0.393   9.169   1.107 -0.9226 -0.1732  0.7063
 6148SOL     OW30502   2.927   0.945   4.974  0.2377 -0.2374  0.5253
 6148SOL    HW130503   2.883   1.025   4.934 -0.7379  0.3152  2.6321
 6148SOL    HW230504   2.858   0.880   5.004  1.0545 -2.7330 -2.7791
 6149SOL     OW30505   7.893   9.871   8.300 -0.0498  0.0586  0.1346
 6149SOL    HW130506   7.991   9.868   8.319 -0.0850 -1.5302  0.1511
 6149SOL    HW230507   7.847   9.802   8.355 -1.1784  0.8103  0.1270
 6150SOL     OW30508   8.524   9.991   7.004  0.1333  0.3861 -0.2350
 6150SOL    HW130509   8.562   9.969   6.914  1.6942 -0.4399  0.6070
 6150SOL    HW230510   8.424   9.993   6.999  0.1364 -1.7110 -1.5134
 6151SOL     OW30511   0.146   0.198   9.931 -0.4558 -0.4194  0.4626
 6151SOL    HW130512   0.226   0.179   9.988 -1.3951 -0.3778  1.8306
 6151SOL    HW230513   0.163   0.167   9.837  1.4049  0.2064  0.5851
 6152SOL     OW30514   1.568   0.430   2.913 -0.0426 -0.0529 -0.5902
 6152SOL    HW130515   1.550   0.503   2.979 -1.4991  0.7919 -1.8968
 6152SOL    HW230516   1.666   0.423   2.896  0.2051  0.7810  0.4532
 6153SOL     OW30517   7.544   7.206   2.989 -0.4954  0.5127 -0.3642
 6153SOL    HW130518   7.603   7.283   3.013 -0.1786  0.6384 -1.5347
 6153SOL    HW230519   7.586   7.121   3.021 -1.4607  0.8968  2.0969
 6154SOL     OW30520   9.460   2.847   2.854 -0.2691  0.5380 -0.1069
 6154SOL    HW130521   9.391   2.907   2.814 -2.4574 -1.9224 -0.1903
 6154SOL    HW230522   9.452   2.848   2.954 -0.9146 -0.2635 -0.1427
 6155SOL     OW30523   6.400   9.941   6.027 -0.2003  0.2553 -0.3554
 6155SOL    HW130524   6.492   9.902   6.031 -0.2059  0.3509  1.3922
 6155SOL    HW230525   6.399  10.028   6.078 -1.6678 -0.6581  1.2160
 6156SOL     OW30526   9.942   8.531   9.752  0.0644  0.6072  0.1668
 6156SOL    HW130527   9.957   8.629   9.771 -2.2811  0.7745  1.3228
 6156SOL    HW230528   9.966   8.478   9.833 -1.6132  0.5223  0.6211
 6157SOL     OW30529   3.482   2.796   2.862 -0.0785 -0.1350 -0.7307
 6157SOL    HW130530   3.553   2.801   2.792  0.9683 -0.4984  0.2686
 6157SOL    HW230531   3.447   2.703   2.867  1.0931 -0.5333  0.3978
 6158SOL     OW30532   0.977   5.041   2.342  0.1077 -0.7113  0.5888
 6158SOL    HW130533   0.890   4.997   2.367 -0.5378 -0.5111 -1.2668
 6158SOL    HW230534   0.969   5.140   2.355 -0.3970 -0.5544 -0.8523
 6159SOL     OW30535   0.759   5.185   8.685 -0.0188  0.2739  0.6094
 6159SOL    HW130536   0.722   5.186   8.778 -0.0055  0.5760  0.6116
 6159SOL    HW230537   0.768   5.090   8.654  0.4516  0.1550  1.1018
 6160SOL     OW30538   7.077   1.577   2.403  0.4246  0.7113  0.5423
 6160SOL    HW130539   7.038   1.567   2.312 -1.5645  0.4024  1.4084
 6160SOL    HW230540   7.113   1.490   2.435 -1.4260  0.1452  1.1618
 6161SOL     OW30541   0.561   0.778   5.914  0.2967 -0.2971  0.1328
 6161SOL    HW130542   0.573   0.764   5.815 -0.4082 -0.4985  0.0741
 6161SOL    HW230543   0.593   0.870   5.938  0.8060 -0.3750 -0.2197
 6162SOL     OW30544   1.897   0.494   1.535 -0.4942  0.4996 -0.0877
 6162SOL    HW130545   1.938   0.442   1.460  0.0988  0.3393  0.3426
 6162SOL    HW230546   1.964   0.559   1.572 -0.7800  0.5720  0.3132
 6163SOL     OW30547   0.265   7.580   4.913  0.1272  0.2502 -0.3775
 6163SOL    HW130548   0.348   7.633   4.896 -1.1051  1.2417 -3.6702
 6163SOL    HW230549   0.288   7.483   4.914  1.5212  0.5698  0.0018
 6164SOL     OW30550   7.781   7.027   5.894  0.6289 -0.5691  0.5196
 6164SOL    HW130551   7.871   7.051   5.860 -0.6249  0.3330 -2.3438
 6164SOL    HW230552   7.737   6.963   5.831 -2.5988  2.7444 -0.8056
 6165SOL     OW30553   1.087   8.892   8.562  0.0249 -0.2078 -0.2059
 6165SOL    HW130554   1.101   8.988   8.540 -0.5049  0.1545  0.9940
 6165SOL    HW230555   1.166   8.839   8.531  0.6168  0.7112 -0.2912
 6166SOL     OW30556   7.577   5.505   1.848  0.8302 -0.1301 -0.1411
 6166SOL    HW130557   7.656   5.532   1.793 -0.2578 -1.5119 -2.4555
 6166SOL    HW230558   7.588   5.410   1.878  1.3713  0.5791  2.0205
 6167SOL     OW30559   3.522   8.389   7.237  0.0778  0.1002  0.2406
 6167SOL    HW130560   3.555   8.371   7.329  1.4715 -0.8180 -0.4154
 6167SOL    HW230561   3.600   8.393   7.174 -0.8739  0.4777 -0.9351
 6168SOL     OW30562   8.950   2.196   2.661 -0.0087 -0.3345 -0.2023
 6168SOL    HW130563   8.850   2.197   2.650  0.1033 -0.3130 -1.2726
 6168SOL    HW230564   8.990   2.274   2.613  0.4047  0.5804  1.5845
 6169SOL     OW30565   5.227   7.753   6.311 -0.0672 -0.1287 -0.0842
 6169SOL    HW130566   5.160   7.708   6.370 -0.2331 -0.1075 -0.2565
 6169SOL    HW230567   5.319   7.733   6.344 -0.1740  0.3215  0.4983
 6170SOL     OW30568   0.239   2.990   2.984  0.1516  0.1051 -0.1158
 6170SOL    HW130569   0.173   2.954   2.918  0.1152  1.5616 -0.9088
 6170SOL    HW230570   0.326   3.008   2.938  0.1462  1.0709  0.2252
 6171SOL     OW30571   4.523   1.178   7.495  0.5562 -0.0231 -0.0866
 6171SOL    HW130572   4.524   1.249   7.565 -1.0150 -0.4791  0.4056
 6171SOL    HW230573   4.565   1.094   7.531 -1.0290 -0.5262  0.6035
 6172SOL     OW30574   8.585   4.538   7.431  0.7658  0.1645  0.2983
 6172SOL    HW130575   8.559   4.462   7.490 -0.3790 -0.8915 -1.5327
 6172SOL    HW230576   8.503   4.579   7.391  1.5339  0.7389 -0.7080
 6173SOL     OW30577   2.586   1.799   3.574  0.2522  1.4698 -0.0316
 6173SOL    HW130578   2.617   1.708   3.601 -1.1234  0.5205 -1.5184
 6173SOL    HW230579   2.658   1.847   3.524  1.5307  1.8285  2.1189
 6174SOL     OW30580   0.358   1.518   9.660  0.1948  0.3634 -0.0852
 6174SOL    HW130581   0.327   1.542   9.752 -2.3362 -1.8613 -0.2679
 6174SOL    HW230582   0.351   1.419   9.648  0.2174  0.6552 -2.7496
 6175SOL     OW30583   0.600   9.296   5.227  0.1181  0.2880 -0.8888
 6175SOL    HW130584   0.653   9.366   5.178 -0.0429  0.9074 -0.1895
 6175SOL    HW230585   0.525   9.264   5.169 -0.4004  1.4132 -0.8431
 6176SOL     OW30586   0.426   6.100   2.810 -0.6932  0.5022 -0.2872
 6176SOL    HW130587   0.451   6.014   2.767  0.1773  0.7839 -0.3553
 6176SOL    HW230588   0.395   6.164   2.740 -0.0329  0.6977 -0.4035
 6177SOL     OW30589   8.046   2.915   1.432  0.0197  0.3818 -0.1594
 6177SOL    HW130590   8.125   2.859   1.409 -1.8260 -2.6186  0.4023
 6177SOL    HW230591   7.985   2.922   1.352 -0.1039  0.9862 -0.0154
 6178SOL     OW30592   0.761   6.187   1.797 -0.4338 -0.4485  0.0063
 6178SOL    HW130593   0.665   6.158   1.806 -0.1163 -1.2764  0.9122
 6178SOL    HW230594   0.782   6.203   1.701 -1.7986  0.8468 -0.0949
 6179SOL     OW30595   9.281   1.595   6.825 -0.1881  0.3274 -0.0897
 6179SOL    HW130596   9.361   1.653   6.812 -0.7972  1.0142 -0.8236
 6179SOL    HW230597   9.274   1.529   6.750 -0.2168  0.1517  0.0643
 6180SOL     OW30598   6.190   9.733   2.020  0.1118 -0.0764  0.4099
 6180SOL    HW130599   6.218   9.717   2.115 -0.8253 -0.7444  0.5737
 6180SOL    HW230600   6.182   9.646   1.972 -0.4126  0.1964 -0.0028
 6181SOL     OW30601   2.852   4.073   8.807 -0.0050  0.2744 -0.5782
 6181SOL    HW130602   2.771   4.073   8.867 -1.0501  0.2455 -1.9634
 6181SOL    HW230603   2.889   3.980   8.802 -0.6585  0.0332 -0.9619
 6182SOL     OW30604   5.764   0.136   2.361 -0.3362 -0.3379  0.2144
 6182SOL    HW130605   5.808   0.100   2.444 -1.4910 -1.2436  0.4561
 6182SOL    HW230606   5.831   0.142   2.288 -0.0330 -2.8633  0.2220
 6183SOL     OW30607   0.159   1.900   1.325  0.4953  0.7242 -0.3447
 6183SOL    HW130608   0.155   1.901   1.225 -0.6150  2.1568 -0.3055
 6183SOL    HW230609   0.193   1.812   1.356  1.3037  0.4351 -2.0027
 6184SOL     OW30610   8.036   3.815   2.808 -0.0174  0.8841 -0.2924
 6184SOL    HW130611   7.944   3.849   2.786 -0.2949  0.9442  0.9110
 6184SOL    HW230612   8.047   3.724   2.769 -1.3314  0.0491  1.1926
 6185SOL     OW30613   0.862   8.224   0.784 -0.5531  0.2717 -0.3932
 6185SOL    HW130614   0.960   8.243   0.776 -0.4963 -0.7189 -2.5029
 6185SOL    HW230615   0.836   8.223   0.880  1.6405 -0.0939  0.2252
 6186SOL     OW30616   8.492   0.467   4.888  0.4904  0.5508  0.0050
 6186SOL    HW130617   8.494   0.542   4.822 -2.1402  0.6812  0.0400
 6186SOL    HW230618   8.495   0.380   4.840 -2.2933  0.6337 -0.3719
 6187SOL     OW30619   8.972   2.173   6.918  0.2727 -0.0586 -0.1372
 6187SOL    HW130620   8.953   2.195   7.014 -1.1294  0.6519 -0.5567
 6187SOL    HW230621   8.962   2.256   6.863 -2.3039 -1.1650 -1.3785
 6188SOL     OW30622   0.601   1.333   3.607 -0.0277 -0.3178  0.7855
 6188SOL    HW130623   0.529   1.395   3.634  0.6970  0.0334  1.9394
 6188SOL    HW230624   0.604   1.255   3.670 -0.0675 -0.8609  0.1323
 6189SOL     OW30625   3.017   6.871   2.468  0.2220  0.1045  0.6253
 6189SOL    HW130626   3.094   6.816   2.500 -1.0116 -1.9864  0.1323
 6189SOL    HW230627   3.043   6.921   2.385  1.6673  1.0323  1.6374
 6190SOL     OW30628   3.663   4.826   2.606 -0.0187 -0.4663  0.1302
 6190SOL    HW130629   3.719   4.895   2.653  1.3125  1.4265 -4.0720
 6190SOL    HW230630   3.579   4.868   2.573 -0.5643 -1.5944  0.0616
 6191SOL     OW30631   1.158   7.885   8.308 -0.0228  0.5616  0.1160
 6191SOL    HW130632   1.061   7.861   8.307 -0.6791  3.1295 -1.2804
 6191SOL    HW230633   1.209   7.816   8.256 -1.2505 -0.1634 -0.1461
 6192SOL     OW30634   5.659   1.887   1.874  0.1484  0.1553 -0.2746
 6192SOL    HW130635   5.702   1.801   1.900  1.6854  1.2804  1.0017
 6192SOL    HW230636   5.609   1.875   1.788  0.8686 -1.8345 -0.4282
 6193SOL     OW30637   9.037   0.101   3.542  0.3866 -0.1002 -0.1520
 6193SOL    HW130638   8.986   0.114   3.456  0.1831  2.4728  0.3134
 6193SOL    HW230639   9.089   0.016   3.537 -0.0291 -0.2579 -2.6236
 6194SOL     OW30640   9.006   3.105   1.113 -0.4613  0.0153  0.4125
 6194SOL    HW130641   8.930   3.149   1.065 -0.9795  0.2701  1.4614
 6194SOL    HW230642   9.087   3.164   1.107 -0.4721 -0.0266 -0.2706
 6195SOL     OW30643   7.145   1.980   9.792  0.0557  0.2015 -0.0940
 6195SOL    HW130644   7.111   1.890   9.819 -0.7267 -0.0543 -1.8201
 6195SOL    HW230645   7.085   2.051   9.829 -0.5429 -0.1000 -0.4700
 6196SOL     OW30646   8.799   3.840   3.743  0.2743 -0.0494  0.4304
 6196SOL    HW130647   8.725   3.865   3.681 -0.1263  0.5238  1.1305
 6196SOL    HW230648   8.761   3.821   3.834  0.7485 -1.7110  0.2945
 6197SOL     OW30649   9.995   9.593   4.172  0.0291  0.2474 -0.0053
 6197SOL    HW130650  10.000   9.529   4.248 -1.4173  0.6434  0.4452
 6197SOL    HW230651   9.952   9.678   4.202 -1.9969 -0.1600 -1.6042
 6198SOL     OW30652   4.748   3.227   0.011 -0.7248  0.3603  0.1322
 6198SOL    HW130653   4.799   3.144  -0.012  0.7591  1.3588 -0.2548
 6198SOL    HW230654   4.731   3.230   0.109 -1.4560 -0.7691  0.0440
 6199SOL     OW30655   3.074   7.223   3.533 -0.9810 -0.3843 -0.2072
 6199SOL    HW130656   3.023   7.153   3.583 -0.2241 -0.7086  0.1089
 6199SOL    HW230657   3.161   7.185   3.501 -0.8273  0.2396 -0.5480
 6200SOL     OW30658   0.950   7.674   2.790  0.5705 -0.2141  0.4755
 6200SOL    HW130659   0.953   7.584   2.746 -1.2113  0.1392 -0.4016
 6200SOL    HW230660   0.935   7.662   2.888  3.4420 -0.9616  0.8831
 6201SOL     OW30661   0.195   1.173   0.710 -0.2493 -0.1734  0.4476
 6201SOL    HW130662   0.206   1.078   0.739  0.0903 -0.6355 -1.1388
 6201SOL    HW230663   0.099   1.190   0.686 -0.3304 -0.0859  0.8353
 6202SOL     OW30664   3.082   2.706   4.839 -0.1322  0.5088 -0.8011
 6202SOL    HW130665   3.149   2.730   4.909  0.2682 -0.8138 -0.7125
 6202SOL    HW230666   2.993   2.691   4.882 -0.0835  0.5508 -0.6848
 6203SOL     OW30667   4.071   2.154   6.532 -0.6813 -0.5798  0.1492
 6203SOL    HW130668   3.998   2.104   6.485  0.3056 -0.1304 -1.9143
 6203SOL    HW230669   4.033   2.237   6.573 -1.2159  0.0638 -1.5913
 6204SOL     OW30670   4.974   2.101   5.239 -0.2590 -0.4735 -0.0040
 6204SOL    HW130671   5.005   2.066   5.151  0.9282 -2.1759  1.0489
 6204SOL    HW230672   4.960   2.200   5.233  1.4109 -0.3057 -1.6523
 6205SOL     OW30673   0.925   0.062   1.130 -0.1151 -0.0369 -0.1008
 6205SOL    HW130674   0.953  -0.011   1.192 -2.2329  0.6401  1.7293
 6205SOL    HW230675   0.967   0.148   1.159  1.1998 -0.2239 -1.3771
 6206SOL     OW30676   8.726   8.070   6.718 -0.5122 -0.2864  0.6608
 6206SOL    HW130677   8.778   8.146   6.680 -1.5629 -0.1958 -0.6421
 6206SOL    HW230678   8.697   8.009   6.645 -3.6123  0.5350  1.1149
 6207SOL     OW30679   6.656   3.076   1.599 -0.4235 -0.4262  0.3451
 6207SOL    HW130680   6.616   3.153   1.647  1.2393  1.0635 -0.6236
 6207SOL    HW230681   6.633   3.082   1.501  3.2027  1.2294 -0.4901
 6208SOL     OW30682   3.768   5.163   4.589  0.2739 -0.4911 -0.1988
 6208SOL    HW130683   3.821   5.166   4.504  1.2865 -1.5642  0.3650
 6208SOL    HW230684   3.791   5.079   4.639 -1.9573 -0.9449  0.0859
 6209SOL     OW30685   1.782   5.370   0.243  0.4030 -0.4160 -0.4696
 6209SOL    HW130686   1.823   5.462   0.245  0.3269 -0.3788 -0.5993
 6209SOL    HW230687   1.691   5.375   0.201 -0.0775 -0.3618  0.5828
 6210SOL     OW30688   1.744   0.612   4.388 -0.3125  0.3504 -0.0794
 6210SOL    HW130689   1.827   0.565   4.354 -0.4899 -0.6947  0.9011
 6210SOL    HW230690   1.680   0.624   4.312  0.9605  1.6539 -0.9588
 6211SOL     OW30691   9.297   7.851   7.841 -0.4612  0.1192 -0.1643
 6211SOL    HW130692   9.208   7.815   7.811  0.2068  0.0569 -2.1339
 6211SOL    HW230693   9.317   7.936   7.794 -0.3966  1.2565  1.8400
 6212SOL     OW30694   6.038   0.770   1.833  0.0894  0.1709 -0.0149
 6212SOL    HW130695   6.110   0.703   1.814 -0.1244 -0.4640  1.2925
 6212SOL    HW230696   5.949   0.725   1.827 -0.2312  1.0081 -1.8607
 6213SOL     OW30697   7.620   3.116   5.078  0.3750  0.2190  0.0849
 6213SOL    HW130698   7.688   3.159   5.137  0.6969 -0.1614 -0.0119
 6213SOL    HW230699   7.532   3.112   5.127  0.1036  1.8380 -0.2598
 6214SOL     OW30700   5.108   9.203   8.997 -0.4359 -0.3821  0.2765
 6214SOL    HW130701   5.095   9.205   8.898 -1.2908 -0.2370  0.3891
 6214SOL    HW230702   5.183   9.141   9.020  0.4420  0.3712 -0.5307
 6215SOL     OW30703   9.928   3.096   1.061 -0.1564 -0.2300  1.0012
 6215SOL    HW130704   9.893   3.187   1.084 -0.5503 -0.2031  0.3065
 6215SOL    HW230705   9.918   3.035   1.139 -0.3892  0.1784  1.2890
 6216SOL     OW30706   0.273   8.126   8.872 -0.1682 -0.2293 -0.1156
 6216SOL    HW130707   0.257   8.173   8.959  2.2746 -0.3428  0.4373
 6216SOL    HW230708   0.193   8.071   8.849 -1.6595  1.4139  1.0135
 6217SOL     OW30709   0.353   0.140   8.405 -0.0086 -0.0124  0.3112
 6217SOL    HW130710   0.443   0.184   8.399 -0.6807  1.2826 -0.5914
 6217SOL    HW230711   0.296   0.173   8.330 -1.2290 -0.8462  0.8714
 6218SOL     OW30712   1.891   5.120   4.110 -0.5388 -0.2691  0.2961
 6218SOL    HW130713   1.976   5.168   4.086 -0.9821  0.8069  0.8761
 6218SOL    HW230714   1.857   5.072   4.029  0.2684 -0.1809 -0.1069
 6219SOL     OW30715   0.520   4.164   4.099 -0.1480 -0.1423  0.3015
 6219SOL    HW130716   0.421   4.154   4.097 -0.2536  1.0367 -2.5244
 6219SOL    HW230717   0.563   4.085   4.055  0.2416 -0.9916  2.1378
 6220SOL     OW30718   7.728   7.990   6.517 -0.3858  0.3821 -0.8406
 6220SOL    HW130719   7.811   8.044   6.504  1.3351 -2.2155 -0.9789
 6220SOL    HW230720   7.715   7.928   6.440 -0.8401 -1.3023  0.5551
 6221SOL     OW30721   4.914   9.941   6.993 -0.0567  0.4704  0.2521
 6221SOL    HW130722   4.914   9.867   7.060  1.8950  2.4317  2.5303
 6221SOL    HW230723   4.833   9.999   7.007 -0.3084  0.1601  0.0776
 6222SOL     OW30724   4.338   6.039   4.433 -0.5256  0.4278  0.5850
 6222SOL    HW130725   4.250   6.026   4.387 -0.6704 -1.4979  1.3743
 6222SOL    HW230726   4.349   6.136   4.456 -1.4788  1.0359 -1.4038
 6223SOL     OW30727   9.353   7.299   2.295  0.0768 -0.0954 -0.1279
 6223SOL    HW130728   9.451   7.315   2.289  0.1142 -0.4610 -0.4744
 6223SOL    HW230729   9.334   7.235   2.370 -0.0061  0.9224  0.7286
 6224SOL     OW30730   8.487   8.807   5.101 -0.4905  0.1113  0.3542
 6224SOL    HW130731   8.397   8.824   5.143 -0.1015  1.2993  0.7177
 6224SOL    HW230732   8.546   8.761   5.167 -0.5851  0.0176  0.3736
 6225SOL     OW30733   1.924   7.113   4.484 -0.1784 -0.0449  0.1383
 6225SOL    HW130734   1.866   7.091   4.562 -0.8413  0.9788 -0.0484
 6225SOL    HW230735   1.965   7.029   4.447  0.4403 -0.4964  1.7990
 6226SOL     OW30736   2.749   3.544   6.842 -0.0690 -0.2084 -0.0764
 6226SOL    HW130737   2.681   3.569   6.773 -0.0252 -0.1475 -0.0976
 6226SOL    HW230738   2.751   3.614   6.913  0.6460  0.2711 -0.5619
 6227SOL     OW30739   1.217   0.615   6.872 -0.0315  0.5662 -0.3407
 6227SOL    HW130740   1.136   0.558   6.854  1.1480 -1.1999 -0.1355
 6227SOL    HW230741   1.224   0.685   6.801 -0.0906 -1.1354 -2.0713
 6228SOL     OW30742   2.908   3.949   3.062 -0.1051 -0.2926 -0.3624
 6228SOL    HW130743   2.853   3.943   3.146 -0.3369  1.1997 -0.3928
 6228SOL    HW230744   2.850   3.977   2.986  0.6559  1.1560 -0.4257
 6229SOL     OW30745   1.269   0.424   6.006  0.0916  0.1881  0.4076
 6229SOL    HW130746   1.324   0.504   5.981  0.6484  0.2629  1.8274
 6229SOL    HW230747   1.277   0.407   6.104 -0.8526 -0.9952  0.2951
 6230SOL     OW30748   1.085   3.706   8.612 -0.8591 -0.1739 -0.1095
 6230SOL    HW130749   1.145   3.729   8.689 -0.6423 -0.2003 -0.2703
 6230SOL    HW230750   1.134   3.718   8.526 -0.7771 -1.1381 -0.2014
 6231SOL     OW30751   8.193   0.005   2.168 -0.5119  0.0188  0.6651
 6231SOL    HW130752   8.174   0.085   2.112  0.7647  1.3080  2.0292
 6231SOL    HW230753   8.107  -0.043   2.189 -1.2117  0.6988 -0.6246
 6232SOL     OW30754   9.724   0.963   2.820 -0.6203  0.1920 -0.2177
 6232SOL    HW130755   9.801   0.996   2.874 -0.7456  0.9296 -0.4846
 6232SOL    HW230756   9.758   0.923   2.734 -0.4315 -0.8436  0.3385
 6233SOL     OW30757   7.379   6.322   3.482 -0.3206  0.0293  0.3011
 6233SOL    HW130758   7.436   6.351   3.405 -1.8681 -1.5904 -1.4891
 6233SOL    HW230759   7.381   6.223   3.490  0.0328  0.1719  2.5747
 6234SOL     OW30760   1.952   4.994   4.616  0.5088  0.8089  0.6241
 6234SOL    HW130761   2.050   4.993   4.597  1.0658  1.4529  3.2722
 6234SOL    HW230762   1.903   5.022   4.534  2.4278 -0.8682 -1.1306
 6235SOL     OW30763   4.735   4.734   7.241 -0.2692 -0.1477 -0.0383
 6235SOL    HW130764   4.752   4.644   7.201  2.0852  0.7184 -1.1419
 6235SOL    HW230765   4.815   4.762   7.295 -0.7523  1.4606 -0.1170
 6236SOL     OW30766   4.577   3.471   6.091 -0.7625  0.0647 -0.3393
 6236SOL    HW130767   4.573   3.468   5.991  0.5191 -1.6015 -0.3661
 6236SOL    HW230768   4.609   3.383   6.126  2.1159  1.6924  1.3492
 6237SOL     OW30769   6.330   5.931  10.001 -0.8610  0.4874  0.5525
 6237SOL    HW130770   6.378   6.010  10.040 -0.3502 -0.4516  1.8650
 6237SOL    HW230771   6.276   5.886  10.073  0.0955 -1.2673  0.2179
 6238SOL     OW30772   0.114   7.491   9.564  0.2760 -0.0162 -0.4232
 6238SOL    HW130773   0.206   7.507   9.529  0.0656  2.5578  0.0697
 6238SOL    HW230774   0.056   7.454   9.492  1.6051 -1.3095 -0.8302
 6239SOL     OW30775   3.766   0.196   2.772 -0.4118 -0.0328  0.2023
 6239SOL    HW130776   3.774   0.257   2.851  0.7450 -0.9541  0.8030
 6239SOL    HW230777   3.669   0.182   2.751 -0.7412  0.0706  1.5779
 6240SOL     OW30778   0.901   6.618   7.222 -0.2513  0.3542  0.0199
 6240SOL    HW130779   0.891   6.683   7.147  0.5045  0.4887  0.0357
 6240SOL    HW230780   0.935   6.531   7.187 -3.2845 -0.7618 -0.3393
 6241SOL     OW30781   4.342   1.843   9.049  0.2099  0.5653  0.0441
 6241SOL    HW130782   4.437   1.874   9.052  0.8237 -1.0693 -1.3419
 6241SOL    HW230783   4.323   1.788   9.130  1.0149 -0.6282 -0.5632
 6242SOL     OW30784   6.133   9.920   3.046  0.1477 -0.3716 -0.5648
 6242SOL    HW130785   6.154   9.889   2.953 -1.4985 -1.2674 -0.6574
 6242SOL    HW230786   6.036   9.944   3.052 -0.2959 -2.4378  1.4635
 6243SOL     OW30787   7.619   0.058   8.857 -0.0047 -0.8965  0.1067
 6243SOL    HW130788   7.583   0.042   8.949 -0.1525  1.0146  0.3967
 6243SOL    HW230789   7.697  -0.003   8.840 -1.9614 -3.5368  0.2773
 6244SOL     OW30790   3.943   6.506   4.694 -0.3931 -0.4250 -0.0535
 6244SOL    HW130791   4.042   6.511   4.707 -0.3110 -1.4622 -0.2199
 6244SOL    HW230792   3.913   6.580   4.634  0.9932 -2.9682 -4.0380
 6245SOL     OW30793   0.511   8.547   8.166 -0.2755  0.1398  0.0378
 6245SOL    HW130794   0.434   8.544   8.102 -0.3248  0.1150  0.0968
 6245SOL    HW230795   0.533   8.454   8.196  0.1476  0.0939 -0.4175
 6246SOL     OW30796   7.399   9.904   3.675 -0.2580 -0.0740  0.0489
 6246SOL    HW130797   7.392   9.807   3.650 -0.4517  0.1002 -0.5969
 6246SOL    HW230798   7.479   9.918   3.732 -0.4290 -0.6791  0.4428
 6247SOL     OW30799   4.055   1.083   4.823 -0.0819 -0.2763 -0.1211
 6247SOL    HW130800   4.001   1.106   4.903 -1.2135  1.4650 -1.3408
 6247SOL    HW230801   3.994   1.059   4.747  0.9066 -0.3832 -0.9050
 6248SOL     OW30802   8.272   7.151   4.550 -0.1755 -0.1328  0.3646
 6248SOL    HW130803   8.175   7.130   4.535  0.0063 -0.4221 -0.4540
 6248SOL    HW230804   8.327   7.097   4.487  0.4338  1.2105 -0.2767
 6249SOL     OW30805   8.747   5.095   4.787 -0.0318  0.1494 -0.1062
 6249SOL    HW130806   8.816   5.028   4.816 -1.4326 -0.8284  1.0715
 6249SOL    HW230807   8.715   5.146   4.867 -0.6379  0.6230 -0.6482
 6250SOL     OW30808   5.271   9.041   6.333  0.2432 -0.4640  0.1933
 6250SOL    HW130809   5.176   9.031   6.304 -0.0659 -1.0195  1.3731
 6250SOL    HW230810   5.323   9.086   6.260 -0.6930 -1.0677 -0.8702
 6251SOL     OW30811   8.855   8.183   9.113  0.2263  0.6203  0.4029
 6251SOL    HW130812   8.829   8.086   9.110 -0.7466  0.8278  1.6138
 6251SOL    HW230813   8.843   8.217   9.206  0.5981  1.9022 -0.0178
 6252SOL     OW30814   0.743   0.939   0.195 -0.6405 -0.3784 -0.0997
 6252SOL    HW130815   0.670   0.988   0.243 -1.7744 -2.4971  0.4209
 6252SOL    HW230816   0.812   0.910   0.261  0.3491  1.0177 -0.4959
 6253SOL     OW30817   1.731   3.897   2.504  0.1165 -0.4959 -0.3043
 6253SOL    HW130818   1.642   3.902   2.459  0.3092 -0.3866 -0.6750
 6253SOL    HW230819   1.785   3.978   2.481 -0.1025 -0.0293  0.8043
 6254SOL     OW30820   2.811   7.208   0.381  0.4412  0.3842  0.3847
 6254SOL    HW130821   2.827   7.187   0.477  0.3434 -4.8623 -0.6117
 6254SOL    HW230822   2.712   7.205   0.363  0.3843  2.2726  0.2333
 6255SOL     OW30823   4.940   0.963   9.615  0.6068 -0.2411 -0.2966
 6255SOL    HW130824   5.023   1.003   9.654  0.4926  0.9780 -1.2723
 6255SOL    HW230825   4.860   1.011   9.652  0.4127 -0.3822 -0.5369
 6256SOL     OW30826   3.722   2.922   1.901 -0.6332  0.2532 -0.0679
 6256SOL    HW130827   3.683   3.011   1.926 -0.7198  0.5379 -1.1772
 6256SOL    HW230828   3.648   2.861   1.874 -0.5634 -0.1303  0.6060
 6257SOL     OW30829   1.425   6.802   9.218 -0.2024  0.2785 -0.0067
 6257SOL    HW130830   1.396   6.746   9.296  1.3453 -0.6659 -0.0787
 6257SOL    HW230831   1.408   6.753   9.133 -2.0020  1.3607 -0.2911
 6258SOL     OW30832   2.467   7.198   5.957 -0.6990  0.3362 -0.0047
 6258SOL    HW130833   2.396   7.267   5.943 -2.5482 -1.6049 -0.4122
 6258SOL    HW230834   2.475   7.142   5.875  1.0547  0.2805  0.1960
 6259SOL     OW30835   9.617   8.097   1.999  0.4468  0.2919 -0.3415
 6259SOL    HW130836   9.708   8.066   1.973  1.4719  1.9262  1.1149
 6259SOL    HW230837   9.625   8.166   2.071 -2.0317 -0.8263  1.0850
 6260SOL     OW30838   4.778   1.921   1.191  0.4987 -0.0393  0.3326
 6260SOL    HW130839   4.692   1.892   1.148 -0.3393 -1.0531  2.5792
 6260SOL    HW230840   4.791   2.019   1.176  0.2223 -0.3566 -2.1470
 6261SOL     OW30841   1.917   7.220   6.843  0.0543  0.0937  0.6024
 6261SOL    HW130842   1.927   7.174   6.755  0.1064  2.7261 -0.8108
 6261SOL    HW230843   1.821   7.245   6.857  0.4465  1.8833  0.1447
 6262SOL     OW30844   0.843   9.909   9.920  0.3318  0.4443  0.4833
 6262SOL    HW130845   0.798   9.883  10.006 -4.1914  0.9190 -1.6087
 6262SOL    HW230846   0.859  10.008   9.920  1.1934  0.3128  1.1112
 6263SOL     OW30847   0.018   3.622   0.736 -0.0868  0.2789 -0.6299
 6263SOL    HW130848  -0.047   3.689   0.701 -0.1646  0.9938  0.8920
 6263SOL    HW230849  -0.031   3.542   0.770  0.0097 -0.6140 -2.5178
 6264SOL     OW30850   7.865   8.779   6.934  0.9512 -0.6247 -0.1211
 6264SOL    HW130851   7.875   8.689   6.891  2.9816 -0.2423 -0.5153
 6264SOL    HW230852   7.871   8.769   7.033 -1.6022 -1.2446  0.0019
 6265SOL     OW30853   6.096   0.984   5.886 -0.0547 -0.3899  0.1959
 6265SOL    HW130854   6.049   1.047   5.949  1.0008  0.3182  0.2830
 6265SOL    HW230855   6.029   0.923   5.845 -0.8908 -0.2357  1.2955
 6266SOL     OW30856   8.649   3.996   4.038  0.0376 -0.0598 -0.2103
 6266SOL    HW130857   8.631   3.987   3.940  0.5455  0.1934 -0.3283
 6266SOL    HW230858   8.734   3.947   4.061 -1.2966 -2.1176  0.5198
 6267SOL     OW30859   3.465   5.508   3.332 -0.0674  0.1036 -0.0836
 6267SOL    HW130860   3.506   5.519   3.242  0.3057  0.1656  0.0897
 6267SOL    HW230861   3.383   5.451   3.325  0.2037 -0.2557 -0.4009
 6268SOL     OW30862   6.248   3.865   9.206 -0.1135 -0.6434 -0.8279
 6268SOL    HW130863   6.164   3.885   9.257  1.2202  1.0463  0.7850
 6268SOL    HW230864   6.304   3.801   9.258 -0.0819 -1.2104 -1.5616
 6269SOL     OW30865   6.062   3.090   8.626  0.2728 -0.4413 -0.0077
 6269SOL    HW130866   6.068   3.189   8.611 -0.2993 -0.4255 -0.1567
 6269SOL    HW230867   6.095   3.069   8.718 -1.5084  0.1477  0.7949
 6270SOL     OW30868   3.722   9.014   2.237 -0.4954 -0.0575  0.6184
 6270SOL    HW130869   3.702   9.011   2.335 -1.0031 -1.0092  0.4923
 6270SOL    HW230870   3.638   8.997   2.186 -0.3802  1.2007  0.0017
 6271SOL     OW30871   5.829   7.799   2.972  0.6423  0.5103 -0.3217
 6271SOL    HW130872   5.732   7.786   2.991  1.1913 -1.1591  1.5137
 6271SOL    HW230873   5.861   7.883   3.017  0.2904  0.4443  0.0554
 6272SOL     OW30874   8.381   7.568   5.041  0.0971 -0.7875 -0.1512
 6272SOL    HW130875   8.287   7.552   5.068 -0.3445 -0.9185 -1.6995
 6272SOL    HW230876   8.412   7.656   5.077 -1.4938  0.5031 -1.8423
 6273SOL     OW30877   8.144   7.849   0.990  0.3513  0.2548 -0.2482
 6273SOL    HW130878   8.198   7.914   1.044  0.5996  0.6647 -0.9929
 6273SOL    HW230879   8.100   7.896   0.915 -3.6029  0.5409  2.1321
 6274SOL     OW30880   9.337   4.604   4.064 -0.0907  0.1969 -0.1156
 6274SOL    HW130881   9.402   4.677   4.044 -0.8256  0.3941 -1.8949
 6274SOL    HW230882   9.306   4.562   3.978 -2.2783  0.1023  0.6689
 6275SOL     OW30883   9.100   6.330   2.329  0.4914  0.1153  0.3047
 6275SOL    HW130884   9.031   6.320   2.401  0.0862 -1.4690 -0.2841
 6275SOL    HW230885   9.183   6.369   2.369 -0.1031  0.2652  1.4161
 6276SOL     OW30886   4.457   5.659   3.528 -0.2242 -0.2672 -0.0423
 6276SOL    HW130887   4.413   5.615   3.606  1.3366  1.5640  1.9285
 6276SOL    HW230888   4.535   5.603   3.498 -1.4084 -1.4617 -0.9432
 6277SOL     OW30889   7.082   6.052   2.219  0.4179 -0.4135  0.3477
 6277SOL    HW130890   7.062   6.105   2.302 -2.4420 -2.4522  1.0259
 6277SOL    HW230891   7.029   6.089   2.143  0.6103 -0.5329  0.1574
 6278SOL     OW30892   6.166   1.527   2.140 -0.1149 -0.0798 -0.2484
 6278SOL    HW130893   6.215   1.469   2.205  1.2407  0.0268 -1.1517
 6278SOL    HW230894   6.095   1.578   2.188  1.8518  1.1476  1.4683
 6279SOL     OW30895   3.670   8.887   3.632 -0.2094  0.0185  0.3101
 6279SOL    HW130896   3.769   8.884   3.648 -0.2409  0.1070  0.5174
 6279SOL    HW230897   3.624   8.821   3.691 -0.1718 -0.7925 -0.5631
 6280SOL     OW30898   5.235   3.812   9.769 -0.0714  0.8268 -0.2712
 6280SOL    HW130899   5.148   3.782   9.807  0.2255  0.1299 -0.1345
 6280SOL    HW230900   5.223   3.837   9.673 -0.6894  1.9818  0.0888
 6281SOL     OW30901   3.224   8.156   0.264  0.4626  0.2428  0.9542
 6281SOL    HW130902   3.230   8.217   0.343 -0.9768 -0.1639  1.3980
 6281SOL    HW230903   3.194   8.065   0.295 -0.0341  0.0606 -0.0636
 6282SOL     OW30904   3.036   6.352   7.921 -0.4246  0.2412 -0.1642
 6282SOL    HW130905   3.091   6.402   7.987 -0.3847  1.8135 -1.3515
 6282SOL    HW230906   2.940   6.378   7.931 -0.4272  0.4413 -0.6671
 6283SOL     OW30907   5.219   6.477   0.118  0.6183  0.6565 -0.3300
 6283SOL    HW130908   5.294   6.485   0.185 -0.1582  0.5155  0.5711
 6283SOL    HW230909   5.208   6.382   0.092  1.4833  0.8222 -1.3186
 6284SOL     OW30910   1.560   1.552   3.053  0.3515  0.4588 -0.2741
 6284SOL    HW130911   1.658   1.546   3.073  0.2451 -0.2968  0.0514
 6284SOL    HW230912   1.546   1.606   2.971  1.0840  0.1708 -0.5917
 6285SOL     OW30913   5.449   1.169   8.050  0.7647  0.5380 -0.0433
 6285SOL    HW130914   5.509   1.093   8.073 -1.3450 -1.4841 -0.9599
 6285SOL    HW230915   5.413   1.156   7.958 -0.4820  2.0657  0.2078
 6286SOL     OW30916   4.015   5.277   3.712  0.4411  0.4380 -0.6051
 6286SOL    HW130917   3.954   5.219   3.657  1.2929 -0.0893 -1.0147
 6286SOL    HW230918   4.034   5.231   3.799  0.2022  0.6365 -0.4463
 6287SOL     OW30919   9.960   6.144   2.425 -0.3392  0.1823  0.1175
 6287SOL    HW130920   9.895   6.220   2.420 -1.9090 -1.1344  0.1538
 6287SOL    HW230921   9.997   6.138   2.517 -0.7098  0.4980  0.2878
 6288SOL     OW30922   3.142   1.863   7.293  0.2678 -0.2507 -0.1080
 6288SOL    HW130923   3.184   1.773   7.283 -1.1838 -0.8614 -0.9788
 6288SOL    HW230924   3.043   1.852   7.302  0.2615  1.1453  1.8143
 6289SOL     OW30925   4.178   2.571   4.562 -0.2059 -0.4377 -0.4253
 6289SOL    HW130926   4.211   2.648   4.616  1.7374  0.1429 -2.3768
 6289SOL    HW230927   4.176   2.597   4.465 -1.1545 -2.3015 -0.9276
 6290SOL     OW30928   7.952   1.003   8.843  0.0418 -0.4723  0.5561
 6290SOL    HW130929   7.994   0.916   8.870  1.3367  0.3310  1.1286
 6290SOL    HW230930   8.022   1.072   8.830 -0.9507  0.3835 -0.3570
 6291SOL     OW30931   8.662   1.756   4.080  0.1418  0.6254  1.0334
 6291SOL    HW130932   8.728   1.697   4.032  0.0250  1.1193  0.2604
 6291SOL    HW230933   8.711   1.823   4.135  0.2894  1.1184  0.3062
 6292SOL     OW30934   7.558   6.477   3.303 -0.5448 -0.3113  0.2248
 6292SOL    HW130935   7.599   6.386   3.309 -0.0692 -0.0166  1.6223
 6292SOL    HW230936   7.593   6.534   3.377 -0.9861  0.9531 -0.5259
 6293SOL     OW30937   2.890   7.825   7.208  0.0965  0.3916  0.1513
 6293SOL    HW130938   2.873   7.807   7.111  1.9239  0.8895 -0.2774
 6293SOL    HW230939   2.933   7.745   7.250 -1.6868 -0.2251  0.8136
 6294SOL     OW30940   1.584   4.092   8.664 -0.0658 -0.3584  0.6446
 6294SOL    HW130941   1.638   4.079   8.747  1.4433  0.9398 -0.1053
 6294SOL    HW230942   1.497   4.135   8.687  0.3681  0.0592  1.5498
 6295SOL     OW30943   2.262   0.503   4.428  0.0419 -0.3856  0.1416
 6295SOL    HW130944   2.328   0.501   4.353 -1.5256  1.2546 -1.3224
 6295SOL    HW230945   2.303   0.547   4.508  1.0247 -0.1996 -0.4656
 6296SOL     OW30946   1.045   1.475   8.161 -0.2983  0.2267 -0.1497
 6296SOL    HW130947   1.062   1.512   8.253 -1.2886  1.3346 -0.3894
 6296SOL    HW230948   1.013   1.381   8.168  1.3711 -0.2964  0.5390
 6297SOL     OW30949   4.818   3.792   5.063  0.0363  0.0632  0.3322
 6297SOL    HW130950   4.848   3.765   5.154 -0.7471 -0.8377  0.3343
 6297SOL    HW230951   4.843   3.887   5.046  1.0274 -0.0517  1.1159
 6298SOL     OW30952   9.718   8.074   3.067  0.3960 -0.5245 -0.6968
 6298SOL    HW130953   9.773   7.990   3.063 -1.4410 -1.7649 -0.2831
 6298SOL    HW230954   9.628   8.053   3.104 -0.4346  1.4736 -1.5378
 6299SOL     OW30955   7.668   0.203   7.535 -0.1400  0.8493  0.1693
 6299SOL    HW130956   7.596   0.141   7.566 -0.6705  0.7698 -1.1928
 6299SOL    HW230957   7.676   0.279   7.599 -1.3206  0.7714  0.4185
 6300SOL     OW30958   2.055   3.158   7.720 -0.1336 -0.0211  0.5382
 6300SOL    HW130959   2.070   3.192   7.813  1.1820 -1.0632  0.7175
 6300SOL    HW230960   2.143   3.137   7.678 -0.9264 -4.5438  0.9210
 6301SOL     OW30961   9.491   2.293   3.802  0.4096  0.2504  0.4380
 6301SOL    HW130962   9.420   2.260   3.865  1.4083  0.0528  1.4668
 6301SOL    HW230963   9.451   2.307   3.712 -1.1887  1.0957  1.2509
 6302SOL     OW30964   8.054   9.867   3.637  0.2410 -0.5929  0.2273
 6302SOL    HW130965   7.974   9.807   3.624 -0.3130  0.3812 -1.0012
 6302SOL    HW230966   8.037   9.955   3.593  2.2737 -0.6117 -0.6652
 6303SOL     OW30967   0.732   0.201   3.614 -0.0066 -0.1241  0.3882
 6303SOL    HW130968   0.784   0.215   3.529  0.8011  0.6556  1.0024
 6303SOL    HW230969   0.653   0.143   3.595  0.3555 -0.2395 -0.8328
 6304SOL     OW30970   9.385   6.609   1.760  0.4111 -0.8834  0.2537
 6304SOL    HW130971   9.308   6.552   1.733 -0.4204 -0.5085  1.7742
 6304SOL    HW230972   9.352   6.699   1.788  1.5354 -0.2714 -0.3735
 6305SOL     OW30973   6.044   4.997   9.726 -0.8563  0.1109  0.2681
 6305SOL    HW130974   6.128   5.052   9.726 -1.3555  0.8787  0.5788
 6305SOL    HW230975   6.026   4.963   9.818 -1.6929  1.1863  0.5037
 6306SOL     OW30976   3.087   1.268   3.951  0.0382 -0.3273 -0.0505
 6306SOL    HW130977   3.106   1.354   4.000  0.0166 -0.7620  0.7347
 6306SOL    HW230978   3.057   1.199   4.017 -1.4117 -0.5097 -0.8861
 6307SOL     OW30979   3.079   8.432   3.140  0.3381  0.2374 -0.5737
 6307SOL    HW130980   3.077   8.509   3.205  0.3370  0.2824 -0.6264
 6307SOL    HW230981   3.149   8.448   3.071  3.0817 -1.6505  1.6551
 6308SOL     OW30982   5.819   5.175   1.867  0.1600  0.3800  0.2716
 6308SOL    HW130983   5.730   5.220   1.873 -0.3410 -0.6668  0.7058
 6308SOL    HW230984   5.877   5.207   1.943 -0.3058  0.0450  0.7680
 6309SOL     OW30985   0.310   7.893   3.057 -0.8420  0.0460  0.3598
 6309SOL    HW130986   0.263   7.805   3.047  1.2486 -1.1493  0.7973
 6309SOL    HW230987   0.304   7.923   3.152  0.5385 -0.8528  0.7426
 6310SOL     OW30988   9.696   7.096   9.855 -0.0922  0.3578 -0.0784
 6310SOL    HW130989   9.652   7.063   9.939  0.3833  0.0368  0.0413
 6310SOL    HW230990   9.777   7.149   9.878 -0.4215  0.9718 -0.3068
 6311SOL     OW30991   4.274   8.458   1.325  0.2657 -0.1313 -0.0200
 6311SOL    HW130992   4.227   8.489   1.408  0.0943  0.0296 -0.1790
 6311SOL    HW230993   4.212   8.400   1.272 -0.0634  0.8049 -0.6796
 6312SOL     OW30994   6.918   3.035   2.035  0.6043 -0.1817  0.5826
 6312SOL    HW130995   6.957   2.971   2.100  0.4882 -0.2229  0.6119
 6312SOL    HW230996   6.824   3.058   2.062  0.8598  0.4815  0.9183
 6313SOL     OW30997   0.593   6.249   7.798  0.4409 -0.2776 -0.2498
 6313SOL    HW130998   0.549   6.256   7.888  1.4979  0.2492  0.2386
 6313SOL    HW230999   0.564   6.326   7.741  0.5492 -0.0518 -0.0030
 6314SOL     OW31000   1.976   3.986   9.425  0.5175  0.5301  0.2193
 6314SOL    HW131001   1.919   4.045   9.482  0.5191  1.5960 -0.8438
 6314SOL    HW231002   2.057   4.038   9.396  0.5399 -0.0177 -0.6957
 6315SOL     OW31003   3.530   3.913   9.743  0.2592  0.1854  0.5129
 6315SOL    HW131004   3.563   3.990   9.689  2.0898 -1.0514 -0.1719
 6315SOL    HW231005   3.543   3.828   9.692 -2.0865 -0.5629  1.0951
 6316SOL     OW31006   2.214   9.515   3.396  0.0404  0.6847  0.2928
 6316SOL    HW131007   2.160   9.560   3.325 -0.3391 -0.0958  0.0738
 6316SOL    HW231008   2.262   9.583   3.450  0.7028  1.2690 -1.0074
 6317SOL     OW31009   8.069   5.012   2.994 -0.5224 -0.3137  0.0024
 6317SOL    HW131010   7.980   4.974   3.017 -0.5197 -0.2953  0.0448
 6317SOL    HW231011   8.058   5.082   2.923 -0.2992 -1.7469 -1.4607
 6318SOL     OW31012   7.693   8.654   2.679 -0.3761  0.1541  0.2084
 6318SOL    HW131013   7.643   8.738   2.658 -1.4908 -0.3529  0.7604
 6318SOL    HW231014   7.753   8.630   2.602  1.4619  2.5148  0.8572
 6319SOL     OW31015   6.113   9.991   1.218  0.1581  0.0095 -0.0431
 6319SOL    HW131016   6.024  10.036   1.220  0.1048 -0.0401 -1.0209
 6319SOL    HW231017   6.105   9.899   1.258  0.1298  0.6188  1.3544
 6320SOL     OW31018   5.020   7.860   3.814  0.0261 -0.0623 -0.4092
 6320SOL    HW131019   5.033   7.763   3.790 -1.1011 -0.3628  0.1612
 6320SOL    HW231020   5.108   7.902   3.831  0.4136 -1.5252  1.4050
 6321SOL     OW31021   2.683   1.800   4.512 -0.6113 -0.0088 -0.3039
 6321SOL    HW131022   2.663   1.852   4.429 -2.6679  2.3347  1.5860
 6321SOL    HW231023   2.599   1.755   4.544  0.1033 -0.6673  0.6638
 6322SOL     OW31024   3.426   1.280   9.049 -0.1368  0.2891 -0.0089
 6322SOL    HW131025   3.395   1.229   9.129  1.8145 -0.6183  0.1951
 6322SOL    HW231026   3.473   1.363   9.080 -1.8259  1.3799 -0.3005
 6323SOL     OW31027   1.772   2.473   4.493 -0.4391  0.1235 -0.3712
 6323SOL    HW131028   1.763   2.393   4.433  0.4462 -0.1098 -0.1988
 6323SOL    HW231029   1.825   2.544   4.446  1.0990 -0.4303  0.4801
 6324SOL     OW31030   3.819   4.876   7.110  0.0559 -0.1402 -0.8141
 6324SOL    HW131031   3.911   4.915   7.105  0.8297 -1.8651 -0.3486
 6324SOL    HW231032   3.799   4.827   7.025 -0.3096 -0.0569 -0.7781
 6325SOL     OW31033   2.283   8.131   6.022  0.3372 -0.1472  0.3611
 6325SOL    HW131034   2.267   8.211   6.080 -1.8045  0.7636 -1.4405
 6325SOL    HW231035   2.248   8.148   5.930  1.1738 -2.6104 -0.4598
 6326SOL     OW31036   3.422   5.066   0.495 -0.4049 -0.2216 -0.1385
 6326SOL    HW131037   3.322   5.061   0.495 -0.4502  0.4554  0.9842
 6326SOL    HW231038   3.454   5.080   0.589  0.7562 -0.6837 -0.4659
 6327SOL     OW31039   7.331   2.092   8.969 -0.3399  0.3170  0.3903
 6327SOL    HW131040   7.263   2.165   8.963  0.5518  1.0019 -1.9682
 6327SOL    HW231041   7.414   2.128   9.011 -0.0852  0.5317 -0.2898
 6328SOL     OW31042   8.715   4.327   0.022 -0.4503  0.4144  0.4109
 6328SOL    HW131043   8.751   4.272   0.096 -0.5835 -0.6025 -0.2685
 6328SOL    HW231044   8.757   4.298  -0.065 -0.8335  1.0898 -0.0057
 6329SOL     OW31045   6.017   9.710   3.914  0.4202  0.0234  0.1520
 6329SOL    HW131046   6.061   9.799   3.929 -2.2928  1.5066 -0.3229
 6329SOL    HW231047   5.931   9.724   3.864 -0.2892 -2.8433  0.5091
 6330SOL     OW31048   6.022   0.457   4.545 -0.1987 -0.2726  0.1112
 6330SOL    HW131049   5.963   0.501   4.613  1.3208  0.9837  0.6722
 6330SOL    HW231050   6.013   0.504   4.457 -0.0068 -0.0562  0.2066
 6331SOL     OW31051   3.726   5.803   8.285 -0.4096 -0.2537  0.1049
 6331SOL    HW131052   3.807   5.789   8.343  0.7542 -0.0112 -1.4368
 6331SOL    HW231053   3.706   5.718   8.235 -0.9933 -0.2505  0.3330
 6332SOL     OW31054   8.132   8.873   9.351  0.4454 -0.0815  0.5885
 6332SOL    HW131055   8.136   8.795   9.413  1.8319  0.2477  0.9362
 6332SOL    HW231056   8.087   8.950   9.397 -0.4551 -0.5062  0.4259
 6333SOL     OW31057   2.483   4.864   8.545 -0.1379 -0.7473 -0.1532
 6333SOL    HW131058   2.493   4.936   8.476  0.7041  0.2998  1.0270
 6333SOL    HW231059   2.558   4.799   8.536  0.6812  0.0806  0.5582
 6334SOL     OW31060   7.159   2.378   0.906 -0.3652 -0.2659  0.0094
 6334SOL    HW131061   7.155   2.278   0.903  2.2192 -0.4414  1.4450
 6334SOL    HW231062   7.144   2.409   1.000 -0.3507  0.6629 -0.2912
 6335SOL     OW31063   0.537   6.471   7.657  0.2552  0.2973 -0.2703
 6335SOL    HW131064   0.608   6.540   7.654  0.4365  0.1238 -0.0037
 6335SOL    HW231065   0.472   6.486   7.582  1.0862 -0.1072 -1.0807
 6336SOL     OW31066   3.221   7.398   6.737  0.6804 -0.8256  0.1576
 6336SOL    HW131067   3.251   7.356   6.823  1.3792 -1.6348 -0.4764
 6336SOL    HW231068   3.189   7.327   6.674 -1.9875 -0.0317  0.5810
 6337SOL     OW31069   6.721   1.203   7.267 -0.1760 -0.5030 -0.1889
 6337SOL    HW131070   6.771   1.127   7.225  0.5499 -0.2152  0.1341
 6337SOL    HW231071   6.707   1.184   7.364  0.6591  0.0898  0.0603
 6338SOL     OW31072   8.712   5.613   9.282 -0.1042 -0.1552 -0.3704
 6338SOL    HW131073   8.697   5.712   9.276  0.2852 -0.1024 -0.4604
 6338SOL    HW231074   8.624   5.567   9.297 -0.0277  0.3806  1.9488
 6339SOL     OW31075   0.204   7.631   9.803 -0.0010  0.0657 -0.0931
 6339SOL    HW131076   0.302   7.636   9.824  0.2893  1.0512 -1.5528
 6339SOL    HW231077   0.188   7.562   9.732 -0.8379 -2.5442  2.5447
 6340SOL     OW31078   5.219   4.769   7.825 -0.2317  0.2952 -0.4456
 6340SOL    HW131079   5.183   4.687   7.780  0.1146  0.6278 -1.3280
 6340SOL    HW231080   5.305   4.795   7.783  0.4152  0.2531  0.8188
 6341SOL     OW31081   6.545   1.488   9.173 -0.1541  0.0878  0.0770
 6341SOL    HW131082   6.514   1.428   9.100 -0.4087 -0.7378  0.8477
 6341SOL    HW231083   6.645   1.496   9.169  0.3076 -3.3513  2.1409
 6342SOL     OW31084   4.755   3.046   5.813  0.3660  0.1267  0.5665
 6342SOL    HW131085   4.785   2.994   5.893  2.4669 -2.4134 -1.7774
 6342SOL    HW231086   4.677   3.001   5.770 -1.4786  2.0917  1.7585
 6343SOL     OW31087   3.728   6.403   4.900  0.2372  0.1950  0.9031
 6343SOL    HW131088   3.647   6.345   4.900  0.1584  0.2824  2.0279
 6343SOL    HW231089   3.786   6.381   4.822 -0.7921  0.0283  0.1707
 6344SOL     OW31090   7.263   5.561   7.196  0.4291 -0.2505  0.5646
 6344SOL    HW131091   7.267   5.520   7.287  2.3992 -2.0482 -0.2802
 6344SOL    HW231092   7.302   5.653   7.198  3.3332 -1.4425  0.9779
 6345SOL     OW31093   4.762   1.999   0.543 -0.5900 -0.1660  0.2730
 6345SOL    HW131094   4.686   2.013   0.479 -0.7363 -0.1889  0.4407
 6345SOL    HW231095   4.778   1.901   0.555 -2.2566 -0.2335  2.2526
 6346SOL     OW31096   1.643   5.224   1.814  0.1759  0.3380 -0.2839
 6346SOL    HW131097   1.583   5.189   1.886  0.3239 -2.4209 -1.4745
 6346SOL    HW231098   1.738   5.201   1.835  0.2603 -0.1090 -1.1457
 6347SOL     OW31099   9.098   4.272   9.077 -0.2578 -0.5874  0.3166
 6347SOL    HW131100   9.060   4.317   9.158  2.8498 -1.3372  2.2599
 6347SOL    HW231101   9.097   4.336   9.000 -2.1939  0.5012  1.1904
 6348SOL     OW31102   0.239   2.528   6.715  0.0302 -0.1407  0.0887
 6348SOL    HW131103   0.276   2.544   6.624 -0.1748  0.8683  0.1776
 6348SOL    HW231104   0.179   2.449   6.713 -0.6703  0.4072 -0.8429
 6349SOL     OW31105   3.307   3.666   1.551 -0.3829 -0.1743 -0.0441
 6349SOL    HW131106   3.395   3.631   1.583  0.4100  0.1019 -1.8500
 6349SOL    HW231107   3.317   3.762   1.524 -1.0576 -0.3551 -0.9603
 6350SOL     OW31108   0.919   0.839   0.457  0.4683 -0.3167  0.1196
 6350SOL    HW131109   0.892   0.834   0.554  1.3703  0.1304  0.3974
 6350SOL    HW231110   0.966   0.755   0.431 -0.2497 -0.6596 -0.0789
 6351SOL     OW31111   8.008   0.411   4.656 -0.2220  0.4954  0.2667
 6351SOL    HW131112   8.084   0.351   4.631  0.3094  0.4450  1.9356
 6351SOL    HW231113   7.983   0.468   4.578 -3.2291 -4.4491 -2.6699
 6352SOL     OW31114   8.767   1.634   8.189  0.1747 -0.3481 -0.0256
 6352SOL    HW131115   8.693   1.675   8.243  0.5825  0.0883  0.2023
 6352SOL    HW231116   8.741   1.541   8.162 -1.4015  0.5969 -1.8530
 6353SOL     OW31117   2.872   9.592   2.857 -0.4435  0.0182 -0.1348
 6353SOL    HW131118   2.825   9.507   2.880  0.3755 -0.1120  1.1278
 6353SOL    HW231119   2.805   9.662   2.833 -1.1194 -0.9934 -1.2176
 6354SOL     OW31120   8.241   5.496   4.460  0.1297  0.2654  0.2334
 6354SOL    HW131121   8.305   5.518   4.387  0.7317  0.9549  0.9648
 6354SOL    HW231122   8.278   5.420   4.514  0.2662  0.5733  0.5730
 6355SOL     OW31123   6.510   8.903   4.631 -0.2790  0.0183  0.5986
 6355SOL    HW131124   6.570   8.879   4.555 -1.2873  1.3426 -0.6519
 6355SOL    HW231125   6.530   8.844   4.710  3.0457  0.8073  0.4220
 6356SOL     OW31126   7.624   4.007   0.764  0.2974  0.1010  0.2376
 6356SOL    HW131127   7.595   3.996   0.669 -1.0227  0.7624  0.5599
 6356SOL    HW231128   7.719   3.977   0.773  0.4963  0.2147 -1.3281
 6357SOL     OW31129   4.568   7.685   4.448 -0.3747 -0.1755 -0.3426
 6357SOL    HW131130   4.607   7.776   4.464 -2.4229  0.2423  2.7445
 6357SOL    HW231131   4.484   7.694   4.394 -0.1858 -0.3318 -0.6647
 6358SOL     OW31132   2.983   7.067   4.324  0.2160  0.1852 -0.4303
 6358SOL    HW131133   2.912   7.129   4.292 -2.2753 -0.7778  2.9283
 6358SOL    HW231134   3.048   7.118   4.381  0.7557  0.5717 -1.3886
 6359SOL     OW31135   8.422   8.838   3.530 -0.5351  0.5466  0.0444
 6359SOL    HW131136   8.414   8.788   3.443  1.2226 -0.6202  0.5131
 6359SOL    HW231137   8.370   8.791   3.600 -1.4454  1.1420 -0.2258
 6360SOL     OW31138   3.744   9.192   5.115  0.8321  0.0673 -0.6357
 6360SOL    HW131139   3.828   9.199   5.062 -0.1501 -3.1009 -2.7934
 6360SOL    HW231140   3.684   9.269   5.093  1.5159  0.1804 -2.1554
 6361SOL     OW31141   7.863   5.869   3.408 -0.5768  0.3084 -0.0461
 6361SOL    HW131142   7.774   5.834   3.380 -1.9877  3.8013 -0.1961
 6361SOL    HW231143   7.895   5.819   3.488 -3.1585 -0.3471  0.6181
 6362SOL     OW31144   6.803   1.930   9.082  0.1154 -0.6080 -0.2401
 6362SOL    HW131145   6.811   2.023   9.047 -1.8894 -0.6756 -0.9223
 6362SOL    HW231146   6.751   1.930   9.166  0.0702 -1.1272 -0.2685
 6363SOL     OW31147   9.522   3.160   2.828 -0.3422 -0.0546  0.4232
 6363SOL    HW131148   9.582   3.147   2.750  0.0948  0.5840  0.6448
 6363SOL    HW231149   9.433   3.119   2.809  0.4333 -1.7890  0.4406
 6364SOL     OW31150   5.540   1.266   0.719 -0.5420 -0.0901  0.0766
 6364SOL    HW131151   5.512   1.304   0.808  0.5432  0.4538  0.1923
 6364SOL    HW231152   5.521   1.168   0.718  0.4782 -0.3095  1.3302
 6365SOL     OW31153   2.047   8.360   7.136  0.0953  0.5787 -0.1746
 6365SOL    HW131154   2.009   8.375   7.044  1.4001 -2.2838 -1.2401
 6365SOL    HW231155   2.020   8.435   7.196 -3.0399  1.1463 -2.1905
 6366SOL     OW31156   2.834   5.823   5.516 -0.0030  0.2485  0.1224
 6366SOL    HW131157   2.736   5.840   5.516 -0.5641 -2.7511 -0.7408
 6366SOL    HW231158   2.878   5.882   5.447 -1.0467  2.1421  1.0395
 6367SOL     OW31159   6.959   6.633   5.357  0.0301 -0.2729  0.5317
 6367SOL    HW131160   7.051   6.616   5.392  1.3657 -1.7633 -3.5355
 6367SOL    HW231161   6.942   6.732   5.356  2.1177  0.1012  0.0124
 6368SOL     OW31162   5.669   3.725   1.739 -0.5889  0.6415 -0.0114
 6368SOL    HW131163   5.726   3.807   1.748 -1.2554  0.8868  2.4062
 6368SOL    HW231164   5.719   3.646   1.774 -0.6425  0.3321 -0.6251
 6369SOL     OW31165   7.944   4.152   9.559  0.1753 -0.8593 -0.0940
 6369SOL    HW131166   8.032   4.190   9.529 -1.9763  0.9266 -4.7391
 6369SOL    HW231167   7.930   4.063   9.515 -0.6724 -0.7746 -0.0055
 6370SOL     OW31168   4.791   3.077   7.969 -0.1879  0.0013 -0.5684
 6370SOL    HW131169   4.739   3.003   7.926 -3.3332  1.3527  0.7842
 6370SOL    HW231170   4.857   3.038   8.034 -1.1203 -1.6516 -0.5976
 6371SOL     OW31171   9.500   0.975   9.617  0.2401  0.5048  0.3565
 6371SOL    HW131172   9.599   0.985   9.629  0.1387  0.3843  1.3756
 6371SOL    HW231173   9.469   1.035   9.544  1.4195 -1.1822 -1.5713
 6372SOL     OW31174   9.413   6.237   5.469 -0.6529  0.3870  0.0015
 6372SOL    HW131175   9.418   6.200   5.562  1.3629  0.0397 -0.2240
 6372SOL    HW231176   9.412   6.163   5.403  1.5369  0.6354 -0.3714
 6373SOL     OW31177   6.009   8.256   4.487  0.2076  0.0302  0.0667
 6373SOL    HW131178   5.991   8.201   4.405  0.1618  1.3935 -0.8542
 6373SOL    HW231179   6.106   8.280   4.491 -0.2520  2.1344 -0.9821
 6374SOL     OW31180   3.880   8.567   7.758 -0.5406 -0.1618 -0.0304
 6374SOL    HW131181   3.912   8.569   7.663  0.6863  0.8490  0.4014
 6374SOL    HW231182   3.794   8.618   7.765 -0.9526 -0.7593 -0.7130
 6375SOL     OW31183   9.790   7.705   7.429  0.0628  0.2667 -0.3461
 6375SOL    HW131184   9.869   7.671   7.377 -1.4834 -2.8936 -0.7354
 6375SOL    HW231185   9.712   7.716   7.367 -0.4888  1.0528  0.4764
 6376SOL     OW31186   1.488   8.985   4.826 -0.0288 -0.0837 -0.2699
 6376SOL    HW131187   1.566   9.020   4.773 -1.7630  4.3909 -0.0368
 6376SOL    HW231188   1.515   8.974   4.921  0.7724 -0.0764 -0.4908
 6377SOL     OW31189   2.195   7.846   1.488 -0.1523 -0.1585 -0.2114
 6377SOL    HW131190   2.236   7.911   1.425  1.0883 -0.9719 -0.2469
 6377SOL    HW231191   2.168   7.764   1.438  0.6535 -0.7260  0.2818
 6378SOL     OW31192   8.370   0.724   6.477 -0.5322 -0.0983  0.3268
 6378SOL    HW131193   8.289   0.780   6.460 -1.0516 -0.8229  0.3897
 6378SOL    HW231194   8.410   0.749   6.565 -0.3526  0.6595  0.0323
 6379SOL     OW31195   7.060   4.614   2.731  0.1610  0.2810 -0.1335
 6379SOL    HW131196   6.992   4.672   2.774  0.6644  0.6881  0.1107
 6379SOL    HW231197   7.015   4.532   2.694 -0.1292 -0.5138  1.9441
 6380SOL     OW31198   9.920   8.298   7.097  0.9068  0.4137 -1.1263
 6380SOL    HW131199   9.981   8.310   7.175 -1.3755  2.3372  0.4218
 6380SOL    HW231200   9.897   8.388   7.059 -3.2778 -0.0155  0.1928
 6381SOL     OW31201   8.826   1.720   6.067  0.8228  0.0900 -0.4780
 6381SOL    HW131202   8.836   1.689   5.973  1.2230  0.2172 -0.4774
 6381SOL    HW231203   8.898   1.786   6.089 -1.1623  2.5086 -1.0718
 6382SOL     OW31204   9.914   1.109   8.606  0.2180 -0.1152  0.3138
 6382SOL    HW131205   9.818   1.124   8.631  0.5706 -0.6395  2.0965
 6382SOL    HW231206   9.966   1.193   8.624  0.3290 -0.2487  0.6249
 6383SOL     OW31207   3.291   0.440   6.980  0.1731  0.0918 -0.3737
 6383SOL    HW131208   3.381   0.473   6.951  0.2445 -0.0268 -0.2832
 6383SOL    HW231209   3.223   0.511   6.962  0.5298  0.8224  1.0415
 6384SOL     OW31210   8.392   1.283   4.454  0.4536  0.3409  0.6068
 6384SOL    HW131211   8.459   1.356   4.436 -0.3934  1.0879  0.4138
 6384SOL    HW231212   8.330   1.312   4.527  0.0855 -0.1719  0.5011
 6385SOL     OW31213   0.808   0.506   8.160 -0.1388  0.1076 -0.0316
 6385SOL    HW131214   0.732   0.549   8.111  0.5987 -0.0982 -1.3862
 6385SOL    HW231215   0.866   0.458   8.094  2.1636  1.7719  0.7382
 6386SOL     OW31216   7.784   7.018   7.250 -0.1525  0.4720  0.6408
 6386SOL    HW131217   7.794   7.025   7.151  0.6063  1.9604  0.8118
 6386SOL    HW231218   7.708   6.957   7.272 -0.1018 -0.1417 -0.8477
 6387SOL     OW31219   1.609   3.838   2.159  0.5888  0.1462 -0.1527
 6387SOL    HW131220   1.523   3.797   2.188 -0.2566  1.4574 -0.7625
 6387SOL    HW231221   1.671   3.767   2.126 -0.3688 -0.7675  0.0213
 6388SOL     OW31222   8.102   7.535   1.816 -0.2674 -0.1690  0.6632
 6388SOL    HW131223   8.064   7.477   1.743 -0.2922  1.0848 -0.3403
 6388SOL    HW231224   8.120   7.626   1.780  2.9608 -0.4948  1.3429
 6389SOL     OW31225   9.433   0.124   2.315 -0.1170  0.1164 -0.3095
 6389SOL    HW131226   9.452   0.221   2.328  0.3329  0.0511 -0.4772
 6389SOL    HW231227   9.512   0.080   2.272 -0.0782 -0.4375  0.3103
 6390SOL     OW31228   2.851   9.290   6.941 -0.5592 -0.1273 -0.2010
 6390SOL    HW131229   2.848   9.360   6.870  0.5604  0.2506  0.1189
 6390SOL    HW231230   2.806   9.207   6.908 -0.4362  0.1890 -1.1805
 6391SOL     OW31231   6.129   4.666   0.936 -0.2721  0.5546 -0.3367
 6391SOL    HW131232   6.082   4.729   0.997 -2.4841 -0.7952 -0.5998
 6391SOL    HW231233   6.194   4.612   0.988  1.2074  2.5830 -0.0039
 6392SOL     OW31234   4.991   5.178   7.596 -0.2393 -0.6374 -0.0263
 6392SOL    HW131235   5.053   5.152   7.670 -0.6748 -0.1043  0.5194
 6392SOL    HW231236   5.043   5.229   7.526  0.3219 -1.7536 -0.4396
 6393SOL     OW31237   8.940   6.054   7.531 -0.1124  1.0359 -0.6636
 6393SOL    HW131238   8.960   5.976   7.590 -1.0619  1.0481 -0.3157
 6393SOL    HW231239   9.024   6.084   7.486  0.6816  1.2524  0.9302
 6394SOL     OW31240   2.192   1.449   1.571 -0.3256  0.7424  0.2364
 6394SOL    HW131241   2.282   1.460   1.612 -0.6102  0.0877  1.0510
 6394SOL    HW231242   2.193   1.371   1.508 -0.2348  0.9349  0.0010
 6395SOL     OW31243   1.609   8.766   6.310 -0.8265  0.3932 -0.5099
 6395SOL    HW131244   1.555   8.843   6.344 -0.3834  0.8471 -0.8286
 6395SOL    HW231245   1.697   8.763   6.358  0.2614  1.6937 -2.3545
 6396SOL     OW31246   1.046   2.040   3.438 -0.5045 -0.2496  0.0501
 6396SOL    HW131247   1.116   2.098   3.396 -0.1409 -0.5847  0.1859
 6396SOL    HW231248   1.041   2.060   3.536  0.4539 -1.2678  0.3213
 6397SOL     OW31249   8.244   7.117   6.321  0.3203 -0.2192  0.3401
 6397SOL    HW131250   8.341   7.132   6.302  0.4268  0.8457  1.6576
 6397SOL    HW231251   8.189   7.186   6.274  0.3410  0.3325  1.1224
 6398SOL     OW31252   4.194   2.916   6.607 -0.1807  0.2446  0.3566
 6398SOL    HW131253   4.169   2.894   6.512  1.1352 -0.0493  0.0725
 6398SOL    HW231254   4.282   2.875   6.629 -0.2142  0.7872  1.5371
 6399SOL     OW31255   1.842   5.639   0.215 -0.0246 -0.4237 -0.0766
 6399SOL    HW131256   1.842   5.709   0.286  0.2440 -0.7596  0.2533
 6399SOL    HW231257   1.930   5.639   0.168  0.3321 -1.2077  0.5824
 6400SOL     OW31258   0.118   7.424   5.639  0.2185  0.3065  0.4815
 6400SOL    HW131259   0.211   7.460   5.648  0.0313  1.2694 -1.2193
 6400SOL    HW231260   0.091   7.427   5.543 -1.2751 -0.7456  0.8560
 6401SOL     OW31261   2.747   5.780   5.819 -0.4831  0.3909 -0.3686
 6401SOL    HW131262   2.788   5.691   5.800 -0.4642 -0.2086  2.3124
 6401SOL    HW231263   2.793   5.850   5.764  0.0816 -1.1137 -1.8574
 6402SOL     OW31264   0.068   8.481   0.286  0.1362 -0.6047  0.1046
 6402SOL    HW131265   0.032   8.512   0.198 -0.5379 -0.3749  0.4595
 6402SOL    HW231266  -0.007   8.449   0.343 -0.0352  3.4959  2.3460
 6403SOL     OW31267   8.636   3.548   0.145  0.1649  0.3200  0.2576
 6403SOL    HW131268   8.726   3.582   0.116  0.6954 -1.0189  0.2841
 6403SOL    HW231269   8.637   3.448   0.143 -1.9183  0.3031 -1.5893
 6404SOL     OW31270   1.901   6.321   0.916 -0.6087  0.2042 -0.1579
 6404SOL    HW131271   1.946   6.411   0.913  1.7486 -0.9038  0.9382
 6404SOL    HW231272   1.893   6.291   1.011 -2.8062 -0.1002 -0.4049
 6405SOL     OW31273   2.023   1.986   6.883 -0.6601 -0.4976 -0.0247
 6405SOL    HW131274   2.116   1.963   6.913 -0.3719  0.0771 -0.4783
 6405SOL    HW231275   1.976   2.037   6.955  0.0185  0.8486 -0.5289
 6406SOL     OW31276   8.538   7.088   4.256 -0.0477  0.5499 -0.6666
 6406SOL    HW131277   8.492   7.096   4.167 -0.8419 -0.5984 -0.3671
 6406SOL    HW231278   8.637   7.096   4.243  0.0579 -2.4707 -2.0404
 6407SOL     OW31279   8.277   7.887   5.117 -0.0423  0.0574 -0.6007
 6407SOL    HW131280   8.275   7.914   5.021  1.3845 -2.9147 -1.5536
 6407SOL    HW231281   8.371   7.871   5.145 -0.5674 -0.6488  0.8182
 6408SOL     OW31282   9.430   9.873   2.944 -0.3857  0.4701 -0.1782
 6408SOL    HW131283   9.350   9.821   2.913 -0.9236 -0.0490  2.0438
 6408SOL    HW231284   9.510   9.847   2.889 -1.0127 -1.4896 -0.1844
 6409SOL     OW31285   9.351   4.431   2.709  0.2158  0.2462 -0.0945
 6409SOL    HW131286   9.352   4.334   2.684  0.0378  0.2634 -0.1635
 6409SOL    HW231287   9.257   4.461   2.725  0.2114  0.5835 -0.7389
 6410SOL     OW31288   2.702   7.103   4.869 -0.5338 -0.2580  0.0729
 6410SOL    HW131289   2.742   7.022   4.827 -0.5203 -0.2516  0.0739
 6410SOL    HW231290   2.774   7.167   4.895 -0.5639 -0.1180 -0.1910
 6411SOL     OW31291   6.635   6.144   9.723 -0.2675  0.2849 -0.4884
 6411SOL    HW131292   6.641   6.151   9.823 -1.5036  1.1284 -0.4473
 6411SOL    HW231293   6.705   6.082   9.689 -0.0140 -0.2325  0.9358
 6412SOL     OW31294   5.007   9.246   1.781 -0.1069  0.5712 -0.2775
 6412SOL    HW131295   4.919   9.292   1.771 -0.2133  0.1788 -1.1706
 6412SOL    HW231296   5.057   9.249   1.694  0.2640 -0.2192 -0.1000
 6413SOL     OW31297   3.385   4.840   8.480  0.7646  0.3560  0.7220
 6413SOL    HW131298   3.292   4.840   8.443  1.4300 -1.1869 -1.0136
 6413SOL    HW231299   3.381   4.856   8.579 -1.4374 -1.0123  0.8865
 6414SOL     OW31300   8.611   4.962   9.459 -0.4722  0.6867  0.3153
 6414SOL    HW131301   8.586   4.877   9.506  0.2454 -0.0815 -0.6636
 6414SOL    HW231302   8.546   5.034   9.483 -0.7515  0.0206  1.6145
 6415SOL     OW31303   2.263   3.460   7.237  0.1170 -0.8789  0.2436
 6415SOL    HW131304   2.260   3.504   7.147 -0.1640 -0.4558  0.4564
 6415SOL    HW231305   2.191   3.499   7.295  2.0789  0.8615  1.5804
 6416SOL     OW31306   4.677   2.119   1.669 -0.8495 -0.1125 -0.1683
 6416SOL    HW131307   4.736   2.098   1.747 -0.9052 -1.2662 -0.4264
 6416SOL    HW231308   4.583   2.091   1.689 -1.1202  0.7897 -0.1505
 6417SOL     OW31309   2.861   2.506   4.214  0.5217  0.1156  0.1179
 6417SOL    HW131310   2.842   2.576   4.283 -2.4031 -0.3722 -0.1058
 6417SOL    HW231311   2.888   2.421   4.260  0.1348  0.2496  0.6078
 6418SOL     OW31312   9.731   5.854   2.087 -0.8888  0.0552  0.6921
 6418SOL    HW131313   9.704   5.944   2.053  0.9166  0.6926  0.8703
 6418SOL    HW231314   9.651   5.805   2.122 -1.9363  1.4498  0.2556
 6419SOL     OW31315   9.820   2.211   6.766  0.1110  0.4980 -0.2188
 6419SOL    HW131316   9.790   2.119   6.742  2.5466 -1.0481  2.3203
 6419SOL    HW231317   9.903   2.234   6.715 -0.0552  0.9696 -0.2769
 6420SOL     OW31318   2.073   6.577   9.610 -0.1517  0.2389  1.0114
 6420SOL    HW131319   2.084   6.670   9.576  0.0690 -0.6183 -1.3595
 6420SOL    HW231320   2.115   6.513   9.546 -2.0944 -1.6420  1.5587
 6421SOL     OW31321   6.643   2.381   2.471 -0.6860 -0.2706  0.3802
 6421SOL    HW131322   6.736   2.370   2.438 -1.2207  1.6745 -2.0093
 6421SOL    HW231323   6.598   2.292   2.478  0.7468 -1.0483 -0.3098
 6422SOL     OW31324   1.072   8.223   8.742  0.4747  0.1743  0.3116
 6422SOL    HW131325   1.053   8.128   8.717  0.2380  0.1688  0.5122
 6422SOL    HW231326   1.089   8.228   8.841  1.0570  0.2496  0.2092
 6423SOL     OW31327   1.886   1.700   8.499 -0.2224  0.6262  0.6668
 6423SOL    HW131328   1.974   1.736   8.467  0.1174  0.2429  1.1613
 6423SOL    HW231329   1.860   1.622   8.442  1.3520 -1.3051  2.5400
 6424SOL     OW31330   9.577   6.966   8.489 -0.3454  0.9600  0.0379
 6424SOL    HW131331   9.535   6.985   8.578 -3.3826 -1.9386 -0.6879
 6424SOL    HW231332   9.607   6.871   8.487 -2.2916  0.3526 -2.7280
 6425SOL     OW31333   8.200   9.896   5.096  0.0061  0.7482 -0.4212
 6425SOL    HW131334   8.226   9.954   5.174 -2.2894  0.5682  0.5278
 6425SOL    HW231335   8.191   9.952   5.014 -1.2117  1.6006  0.2716
 6426SOL     OW31336   5.019   6.803   1.797 -0.2945 -0.0413 -0.3035
 6426SOL    HW131337   4.997   6.707   1.810  0.9816 -0.1762  0.8869
 6426SOL    HW231338   4.950   6.859   1.843  0.6324 -0.4377  1.5917
 6427SOL     OW31339   7.358   2.299   5.433  0.3293 -0.3139  0.5078
 6427SOL    HW131340   7.424   2.352   5.380  0.2890  0.7140  1.4586
 6427SOL    HW231341   7.279   2.277   5.376  1.6235 -1.8179 -0.7232
 6428SOL     OW31342   9.471   0.662   4.786  0.6542 -0.2614  0.3346
 6428SOL    HW131343   9.442   0.725   4.715 -0.4728  0.7615  1.6817
 6428SOL    HW231344   9.519   0.585   4.744 -1.2489 -0.4201 -1.6693
 6429SOL     OW31345   9.178   7.601   8.440  0.1231  0.2052 -0.2761
 6429SOL    HW131346   9.078   7.594   8.432 -0.1002  1.7293  1.0802
 6429SOL    HW231347   9.208   7.688   8.400  0.9404 -0.3368 -0.8527
 6430SOL     OW31348   5.508   8.965   1.755  0.1530 -0.3774  0.2068
 6430SOL    HW131349   5.475   8.877   1.720 -0.7478  1.2653 -3.3213
 6430SOL    HW231350   5.432   9.030   1.757  1.4803  1.2298 -0.3785
 6431SOL     OW31351   4.094   5.333   4.485 -0.3689 -0.3506 -0.2782
 6431SOL    HW131352   4.162   5.373   4.425 -2.5754  1.0364 -1.9434
 6431SOL    HW231353   4.137   5.264   4.543  2.4442  0.6068 -1.1321
 6432SOL     OW31354   0.854   2.205   8.930  0.1432  0.5210  0.0254
 6432SOL    HW131355   0.905   2.171   8.851 -1.3975  0.4504 -0.9662
 6432SOL    HW231356   0.875   2.150   9.010  0.3484 -0.5539 -0.7556
 6433SOL     OW31357   3.548   1.849   7.562  0.2225 -0.5091 -0.3638
 6433SOL    HW131358   3.592   1.849   7.652 -0.4116 -0.5346 -0.0508
 6433SOL    HW231359   3.456   1.886   7.570  0.1310 -0.5902 -0.9932
 6434SOL     OW31360   4.124   2.969   7.412  0.8378 -0.1679  0.6945
 6434SOL    HW131361   4.087   3.042   7.469  1.1869 -0.2924  1.0845
 6434SOL    HW231362   4.223   2.981   7.404  0.4295  1.7777 -2.5954
 6435SOL     OW31363   1.848   4.708   2.091 -0.0176 -0.6584 -0.1851
 6435SOL    HW131364   1.844   4.795   2.138 -2.0574 -0.4788 -0.6147
 6435SOL    HW231365   1.897   4.718   2.004  0.9431 -0.2638  0.4050
 6436SOL     OW31366   2.220   5.378   1.407  0.1632 -0.4223  0.6002
 6436SOL    HW131367   2.290   5.334   1.351 -0.8685 -0.0803 -0.9984
 6436SOL    HW231368   2.254   5.466   1.441  0.2697  0.0604 -0.7396
 6437SOL     OW31369   4.493   8.608   8.599 -0.0197 -0.4690 -0.4656
 6437SOL    HW131370   4.458   8.551   8.673 -0.0177 -0.5724 -0.5455
 6437SOL    HW231371   4.423   8.675   8.573  0.3236  0.1900  0.2728
 6438SOL     OW31372   4.218   2.825   5.271 -0.6069 -0.6311 -0.3766
 6438SOL    HW131373   4.194   2.885   5.195  0.9493  0.3802 -0.0902
 6438SOL    HW231374   4.293   2.765   5.243 -0.5398 -0.7799  0.1199
 6439SOL     OW31375   7.865   9.471   4.053 -0.2605  0.4034 -0.0277
 6439SOL    HW131376   7.877   9.570   4.058 -1.8404  0.7409 -2.0955
 6439SOL    HW231377   7.954   9.426   4.063  0.4686  2.0104  0.9858
 6440SOL     OW31378   0.859   0.580   2.353 -0.4999  0.1514 -0.0495
 6440SOL    HW131379   0.818   0.666   2.384 -1.0093 -0.9340  2.3532
 6440SOL    HW231380   0.918   0.598   2.274 -3.5130  2.1417 -1.9301
 6441SOL     OW31381   1.804   9.085   9.995 -0.5825  0.0667  0.0304
 6441SOL    HW131382   1.745   9.041  10.063  0.2254 -0.1266  0.6108
 6441SOL    HW231383   1.879   9.024   9.971 -1.5575 -0.3853 -1.9894
 6442SOL     OW31384   0.377   0.906   8.127  0.5054  0.3096  0.0663
 6442SOL    HW131385   0.291   0.855   8.134  0.7055  0.0447  0.6003
 6442SOL    HW231386   0.367   0.978   8.058 -0.6078  1.1842  1.1121
 6443SOL     OW31387   6.837   2.165   8.963  0.3143  0.1752 -0.4007
 6443SOL    HW131388   6.833   2.209   9.052  0.4424  0.2281 -0.4205
 6443SOL    HW231389   6.917   2.199   8.913  0.6244 -0.3428 -0.2699
 6444SOL     OW31390   4.082   7.988   4.959 -0.1920 -0.4863 -0.4361
 6444SOL    HW131391   4.019   8.029   5.026 -1.8714 -0.3544 -2.0554
 6444SOL    HW231392   4.133   8.061   4.913 -0.4759 -0.4364 -0.6771
 6445SOL     OW31393   5.027   0.293   5.047  0.9059  0.8510 -0.1479
 6445SOL    HW131394   4.941   0.332   5.014  0.4140 -0.4211 -0.3608
 6445SOL    HW231395   5.087   0.275   4.969  0.7733  0.3171 -0.1254
 6446SOL     OW31396   3.993   8.233   7.772 -0.0726  0.7006 -0.4484
 6446SOL    HW131397   4.058   8.191   7.835  1.3472  0.1574 -2.2636
 6446SOL    HW231398   3.927   8.287   7.825  0.6201 -0.3542  1.5673
 6447SOL     OW31399   9.423   8.870   9.301  0.6924  1.1632  0.0808
 6447SOL    HW131400   9.420   8.880   9.202  0.8568 -3.2050 -0.4401
 6447SOL    HW231401   9.330   8.874   9.338  0.2575 -0.9608 -0.7243
 6448SOL     OW31402   6.147   9.982   2.771  0.1608 -0.3799  0.7966
 6448SOL    HW131403   6.138   9.899   2.716 -1.6598 -0.3150  0.9865
 6448SOL    HW231404   6.164  10.060   2.710  0.6990 -0.7038  0.5293
 6449SOL     OW31405   9.563   6.401   9.629 -0.0301 -0.2249 -0.3723
 6449SOL    HW131406   9.575   6.302   9.624  0.5779 -0.2552  1.2870
 6449SOL    HW231407   9.648   6.443   9.662 -0.5686  0.7667 -0.2182
 6450SOL     OW31408   1.259   6.730   8.340 -0.0191  0.7113 -0.4523
 6450SOL    HW131409   1.341   6.714   8.395 -0.1275 -1.3350 -0.8533
 6450SOL    HW231410   1.192   6.780   8.394  1.3592  2.1151 -0.0112
 6451SOL     OW31411   8.157   1.778   1.318  0.0298 -0.1054 -1.0269
 6451SOL    HW131412   8.072   1.794   1.266 -1.3367  0.8711  1.4103
 6451SOL    HW231413   8.230   1.835   1.280 -1.6119  2.5560 -0.3469
 6452SOL     OW31414   7.994   1.996   4.987  0.5167 -0.2732 -0.0403
 6452SOL    HW131415   8.007   1.899   5.008  0.4713 -0.3097 -0.1787
 6452SOL    HW231416   7.904   2.025   5.021  0.5399 -0.2751  0.0233
 6453SOL     OW31417   2.804   8.727   4.085  0.3991  0.4550 -0.2351
 6453SOL    HW131418   2.813   8.821   4.051  1.5042  0.6188  0.4638
 6453SOL    HW231419   2.780   8.729   4.182 -0.6492  0.0051 -0.4826
 6454SOL     OW31420   9.950   1.683   3.200 -0.0140 -0.1594 -0.3564
 6454SOL    HW131421  10.023   1.650   3.260  0.3061  0.3107 -0.4913
 6454SOL    HW231422   9.985   1.696   3.107 -0.2030  0.3153 -0.3632
 6455SOL     OW31423   8.947   1.851   7.804  0.0410 -0.0327 -1.0545
 6455SOL    HW131424   8.951   1.810   7.896  0.5093  2.0610 -0.1081
 6455SOL    HW231425   9.039   1.876   7.775 -0.3610  1.2958 -1.1796
 6456SOL     OW31426   7.852   7.302   2.017  0.6633  0.1924  0.3601
 6456SOL    HW131427   7.835   7.275   1.922  2.5423  0.3788 -0.0447
 6456SOL    HW231428   7.920   7.241   2.057  0.7877  0.8817  1.2092
 6457SOL     OW31429   1.059   1.404   6.289  0.0128  0.6038  0.5966
 6457SOL    HW131430   1.017   1.317   6.263  1.3876  0.2809 -0.6551
 6457SOL    HW231431   0.996   1.478   6.269 -0.9971 -0.0754  1.2422
 6458SOL     OW31432   2.420   6.042   4.851  0.5821 -0.2148  0.6177
 6458SOL    HW131433   2.442   5.997   4.938  3.9419  0.1938  0.0285
 6458SOL    HW231434   2.461   5.990   4.776 -3.1346 -1.1461 -0.9004
 6459SOL     OW31435   9.581   6.688   5.672  0.3608 -0.0499 -0.2403
 6459SOL    HW131436   9.501   6.727   5.717  0.2417 -1.7758  1.1200
 6459SOL    HW231437   9.557   6.660   5.579 -0.6394 -0.5940  0.1751
 6460SOL     OW31438   1.136   2.327   1.887 -0.6498  0.4159  0.0521
 6460SOL    HW131439   1.214   2.283   1.933  0.2896  1.4396 -0.5301
 6460SOL    HW231440   1.071   2.360   1.956 -0.2501  0.1255  0.5763
 6461SOL     OW31441   3.583   6.728   3.769  0.1662  0.2466  0.2324
 6461SOL    HW131442   3.498   6.776   3.746  0.4206  1.4572  1.7280
 6461SOL    HW231443   3.641   6.725   3.688 -0.4890  1.1466 -0.2937
 6462SOL     OW31444   2.248   3.107   2.375 -0.1597 -0.5937  0.4760
 6462SOL    HW131445   2.336   3.116   2.329  0.2247 -0.4228  1.2255
 6462SOL    HW231446   2.239   3.179   2.444 -1.0369 -0.3981  0.1567
 6463SOL     OW31447   2.680   6.594   0.750 -0.5863  0.0804 -0.3849
 6463SOL    HW131448   2.628   6.605   0.834  0.5608  1.4209  0.1781
 6463SOL    HW231449   2.693   6.497   0.731 -0.9275 -0.2317  0.9445
 6464SOL     OW31450   8.534   9.853   5.390  0.4285  0.0380  0.1806
 6464SOL    HW131451   8.634   9.857   5.383  0.3627  0.8498 -0.2427
 6464SOL    HW231452   8.495   9.939   5.360 -0.3898 -0.1616  0.6793
 6465SOL     OW31453   1.536   1.204   6.937 -0.2335 -0.1507  0.3534
 6465SOL    HW131454   1.448   1.164   6.912 -0.2239  0.1009 -0.0881
 6465SOL    HW231455   1.550   1.195   7.036 -0.9386  0.1729  0.4840
 6466SOL     OW31456   1.716   1.084   9.949  0.0270  0.0430 -0.8470
 6466SOL    HW131457   1.809   1.056   9.972  0.2290  2.0212  0.9503
 6466SOL    HW231458   1.706   1.089   9.850  1.3779 -1.6142 -1.0877
 6467SOL     OW31459   1.903   3.534   4.234  0.8533 -0.6031  0.2802
 6467SOL    HW131460   1.849   3.484   4.301  0.5646 -0.6821 -0.0130
 6467SOL    HW231461   1.981   3.478   4.205  0.6013 -0.8334  0.0461
 6468SOL     OW31462   9.324   2.123   7.174  0.2579  0.3599 -0.1924
 6468SOL    HW131463   9.369   2.198   7.126  0.8731  0.3436  0.3503
 6468SOL    HW231464   9.316   2.044   7.114  0.9990  0.3486 -0.2795
 6469SOL     OW31465   4.985   1.115   5.191 -0.2244 -0.2881  0.0023
 6469SOL    HW131466   4.893   1.152   5.207  0.2929  2.4121 -2.7200
 6469SOL    HW231467   5.050   1.166   5.247  0.1915  1.3661 -1.9251
 6470SOL     OW31468   1.909   7.016   2.514  0.2200 -0.0737  0.2799
 6470SOL    HW131469   1.898   6.984   2.608  0.3350  2.7867  1.3249
 6470SOL    HW231470   1.819   7.032   2.473  0.1508 -2.1328 -0.4221
 6471SOL     OW31471   9.135   8.116   6.888  0.2705  0.1110 -1.2896
 6471SOL    HW131472   9.085   8.183   6.833 -1.4847 -0.2409 -0.1620
 6471SOL    HW231473   9.218   8.158   6.923 -0.2926  1.3828 -1.4371
 6472SOL     OW31474   4.937   0.779   5.582  0.1834 -0.1507  0.0441
 6472SOL    HW131475   4.999   0.717   5.629  1.0838  1.0806  0.5242
 6472SOL    HW231476   4.928   0.753   5.486  1.3322 -0.4239  0.0131
 6473SOL     OW31477   7.721   2.028   4.107  0.2590  0.2619  0.5322
 6473SOL    HW131478   7.680   1.936   4.108 -0.9005  0.7660  1.4550
 6473SOL    HW231479   7.790   2.034   4.178  1.7522 -0.4973 -0.8248
 6474SOL     OW31480   0.225   3.258   3.055 -0.1123  0.0994  0.6637
 6474SOL    HW131481   0.138   3.307   3.053 -0.1807 -0.0543 -0.7941
 6474SOL    HW231482   0.208   3.160   3.048  0.3039  0.2585 -3.4759
 6475SOL     OW31483   8.635   0.833   3.111  0.4501 -0.0409  0.3678
 6475SOL    HW131484   8.560   0.821   3.176 -0.1084  1.0164 -0.0456
 6475SOL    HW231485   8.628   0.764   3.039 -1.6969  1.6030 -1.0799
 6476SOL     OW31486   6.808   7.546   2.897  0.4301 -0.7441 -0.6298
 6476SOL    HW131487   6.718   7.538   2.939 -0.0036  0.1706 -1.3721
 6476SOL    HW231488   6.808   7.498   2.809  0.1969  0.5663 -1.3571
 6477SOL     OW31489   6.083   7.627   4.671  0.2030  0.3113 -0.7267
 6477SOL    HW131490   6.172   7.625   4.716  0.9079  1.9320 -1.9871
 6477SOL    HW231491   6.052   7.534   4.653  0.6407 -0.3223  1.6345
 6478SOL     OW31492   9.378   2.929   9.711 -0.4696 -0.1909 -0.1393
 6478SOL    HW131493   9.454   2.971   9.661  0.4239 -0.8200  0.6623
 6478SOL    HW231494   9.343   2.852   9.658  0.4855 -0.8656  0.1841
 6479SOL     OW31495   0.802   4.639   3.275  0.1394 -0.4371  0.3033
 6479SOL    HW131496   0.707   4.606   3.270 -0.4552  1.1164  0.9955
 6479SOL    HW231497   0.805   4.723   3.330  1.6989  0.3004 -0.8642
 6480SOL     OW31498   9.849   8.181   1.051  0.1614 -1.0409 -0.0319
 6480SOL    HW131499   9.802   8.121   1.115  1.6093 -1.7384  0.4093
 6480SOL    HW231500   9.943   8.195   1.082  1.2316 -2.2974 -2.5453
 6481SOL     OW31501   1.948   5.967   3.428 -0.0054 -0.2656 -0.4443
 6481SOL    HW131502   1.877   5.897   3.419 -1.3247  1.0124 -0.1872
 6481SOL    HW231503   1.972   5.978   3.524 -1.4754  1.2405 -0.2276
 6482SOL     OW31504   8.459   3.872   2.686  0.7055  0.5508  0.0486
 6482SOL    HW131505   8.404   3.908   2.611  0.0192  0.3257  0.4312
 6482SOL    HW231506   8.456   3.772   2.684 -1.0782  0.5395  1.6201
 6483SOL     OW31507   9.440   2.691   7.853  0.1668  0.0642  0.4148
 6483SOL    HW131508   9.473   2.781   7.824  0.3492  0.1196  0.7921
 6483SOL    HW231509   9.345   2.681   7.825  0.6314 -0.2804 -1.0827
 6484SOL     OW31510   6.702   2.278   4.577  0.0372 -0.1678 -0.0503
 6484SOL    HW131511   6.636   2.350   4.555  0.6487  0.2114 -0.6923
 6484SOL    HW231512   6.655   2.202   4.621 -0.5807  0.7310  0.8852
 6485SOL     OW31513   1.809   8.532   4.916  0.2694 -0.4741  0.0507
 6485SOL    HW131514   1.893   8.507   4.964 -0.1959 -1.6969  0.2148
 6485SOL    HW231515   1.753   8.451   4.901  0.2710 -0.0733 -2.2887
 6486SOL     OW31516   8.986   5.997   6.197  0.0183  0.0467  0.3214
 6486SOL    HW131517   9.070   5.984   6.250 -0.9796  1.5551  2.3580
 6486SOL    HW231518   8.932   6.071   6.238 -2.0558 -0.5390 -1.2590
 6487SOL     OW31519   3.231   9.415   3.738 -0.4029  0.1408  0.5673
 6487SOL    HW131520   3.238   9.508   3.773 -3.0946  0.4218  0.4064
 6487SOL    HW231521   3.192   9.416   3.646 -0.5405 -1.1572  0.5944
 6488SOL     OW31522   8.693   2.866   9.748 -0.1175  0.0098  0.3541
 6488SOL    HW131523   8.746   2.782   9.734  0.3320  0.4128 -0.3759
 6488SOL    HW231524   8.598   2.849   9.724  0.0219 -0.2254 -0.0349
 6489SOL     OW31525   9.950   3.370   5.081  0.4137 -0.0932 -0.2368
 6489SOL    HW131526   9.960   3.465   5.052  0.6214 -0.1293 -0.2776
 6489SOL    HW231527   9.940   3.312   5.000 -0.3617 -0.0303 -0.1931
 6490SOL     OW31528   1.911   1.723   1.316  0.1472 -0.5072  0.4362
 6490SOL    HW131529   1.928   1.626   1.295  0.8989 -0.3028  0.0564
 6490SOL    HW231530   1.987   1.778   1.281 -0.4011  0.2500  0.4263
 6491SOL     OW31531   4.343   4.358   3.796  0.1064  0.1903  0.2009
 6491SOL    HW131532   4.261   4.317   3.757  0.2839  0.4597 -0.4753
 6491SOL    HW231533   4.407   4.286   3.824  0.5110 -0.0208 -1.1773
 6492SOL     OW31534   4.467   9.318   1.615  0.1613  0.3464 -0.0360
 6492SOL    HW131535   4.424   9.254   1.551  0.1634  0.6989 -0.3931
 6492SOL    HW231536   4.481   9.273   1.703 -2.1607  0.6374  0.5047
 6493SOL     OW31537   8.062   2.840   8.340  0.6621 -0.1587 -0.5882
 6493SOL    HW131538   8.085   2.930   8.376 -0.9685 -0.4348  1.2455
 6493SOL    HW231539   8.099   2.769   8.401  1.6255 -0.7349 -1.8196
 6494SOL     OW31540   0.615   3.996   5.852  0.1742 -0.6128  0.0004
 6494SOL    HW131541   0.537   3.979   5.792 -0.3279  0.2446  0.3893
 6494SOL    HW231542   0.591   3.970   5.945  0.0782  0.3671  0.2546
 6495SOL     OW31543   8.870   4.857   3.847  0.0298 -0.2800  0.1544
 6495SOL    HW131544   8.936   4.867   3.922  0.4081  2.7311 -0.4943
 6495SOL    HW231545   8.898   4.915   3.771 -2.4138 -0.3481 -0.8345
 6496SOL     OW31546   9.501   5.664   1.677  0.3143 -0.3801 -0.8725
 6496SOL    HW131547   9.487   5.615   1.591  2.0930 -2.2417 -0.1514
 6496SOL    HW231548   9.453   5.616   1.751  1.2925 -0.5203 -0.3225
 6497SOL     OW31549   4.087   5.689   9.763 -0.6267 -0.0813 -0.2944
 6497SOL    HW131550   4.058   5.784   9.748 -0.9338 -0.0151  0.7197
 6497SOL    HW231551   4.187   5.685   9.763 -0.6049  0.3753  0.4658
 6498SOL     OW31552   0.809   7.689   2.196 -0.2399 -0.1001  0.2649
 6498SOL    HW131553   0.905   7.681   2.224  0.0254  1.0033 -0.2878
 6498SOL    HW231554   0.750   7.678   2.276  0.3604 -0.4169  0.6733
 6499SOL     OW31555   3.621   3.043   4.567 -0.2578  0.6182  0.1859
 6499SOL    HW131556   3.634   3.007   4.659 -0.5236 -1.0614 -0.4265
 6499SOL    HW231557   3.668   2.984   4.501  1.4338  2.7742 -0.5984
 6500SOL     OW31558   5.472   2.318   0.625  0.5401  0.2352 -0.1321
 6500SOL    HW131559   5.439   2.271   0.543  1.6228  2.5598 -1.9658
 6500SOL    HW231560   5.405   2.308   0.699 -1.2430 -0.4759 -1.8167
 6501SOL     OW31561   7.540   5.478   3.245  0.1296 -0.0309  0.1068
 6501SOL    HW131562   7.606   5.404   3.258  0.0351 -0.4054 -1.4376
 6501SOL    HW231563   7.461   5.462   3.305  0.5456 -0.6455  0.5064
 6502SOL     OW31564   2.047   7.622   5.311  0.0187  0.3915 -0.6352
 6502SOL    HW131565   2.027   7.647   5.216 -2.3097 -0.0671 -0.2874
 6502SOL    HW231566   1.961   7.609   5.361  1.2086 -1.0041  1.1041
 6503SOL     OW31567   7.596   4.211   2.001  0.2158 -0.2269 -0.4580
 6503SOL    HW131568   7.675   4.157   1.972  1.0539 -0.0136  1.3324
 6503SOL    HW231569   7.568   4.182   2.093 -1.0940  0.4692 -0.6188
 6504SOL     OW31570   7.061   8.977   4.958 -0.1850  0.2484 -0.3613
 6504SOL    HW131571   7.113   8.898   4.992  1.4775  2.2221  1.8948
 6504SOL    HW231572   6.988   8.999   5.023  0.5399  1.6955 -0.0246
 6505SOL     OW31573   6.587   1.323   7.055  0.1847  0.2986 -0.2651
 6505SOL    HW131574   6.614   1.267   7.133  1.1076  0.0689 -0.7382
 6505SOL    HW231575   6.633   1.411   7.060  0.6432  0.0935 -0.8139
 6506SOL     OW31576   9.505   6.129   4.221 -0.6233 -0.2192  0.1433
 6506SOL    HW131577   9.469   6.222   4.226  0.8403  0.4571 -1.4026
 6506SOL    HW231578   9.507   6.088   4.312 -1.3182  1.2395  0.8171
 6507SOL     OW31579   1.625   9.684   5.590 -0.5650  0.8076  0.3497
 6507SOL    HW131580   1.619   9.784   5.598 -1.7234  0.5776  2.6109
 6507SOL    HW231581   1.539   9.649   5.553 -1.1252  0.4347  1.9663
 6508SOL     OW31582   9.056   1.250   2.638 -0.3486  0.5554  0.3862
 6508SOL    HW131583   9.138   1.277   2.588 -0.8719  0.7407 -0.3727
 6508SOL    HW231584   9.037   1.153   2.620 -2.4324  1.4200 -2.4952
 6509SOL     OW31585   3.969   7.755   4.941 -0.1507 -0.1811  0.1363
 6509SOL    HW131586   3.959   7.707   5.028  0.5856  0.9368  0.8370
 6509SOL    HW231587   4.025   7.836   4.953 -1.3948  0.8887 -1.0393
 6510SOL     OW31588   2.335   8.633   0.674 -0.0994  0.3297  0.5317
 6510SOL    HW131589   2.321   8.612   0.771 -1.3290  2.7042  0.9145
 6510SOL    HW231590   2.379   8.722   0.665 -1.2384  0.7516 -1.1202
 6511SOL     OW31591   0.115   9.639   1.700 -0.3993  0.4602  0.4323
 6511SOL    HW131592   0.043   9.571   1.711 -0.0535  0.0660  0.2899
 6511SOL    HW231593   0.151   9.666   1.789  1.6113 -1.8663  0.3893
 6512SOL     OW31594   0.254   5.322   0.343 -0.0256  0.3683  0.6039
 6512SOL    HW131595   0.156   5.341   0.354  0.2134  1.5468  0.7382
 6512SOL    HW231596   0.299   5.400   0.301  0.4600 -1.0773 -1.6702
 6513SOL     OW31597   8.046   0.111   5.255  0.4703 -0.0355 -0.1123
 6513SOL    HW131598   7.998   0.170   5.191  1.2527 -0.1687 -0.8297
 6513SOL    HW231599   7.980   0.065   5.315 -0.2622 -0.0106 -0.9029
 6514SOL     OW31600   3.647   6.751   6.334  0.1371 -0.1358 -0.0698
 6514SOL    HW131601   3.742   6.754   6.306 -0.4658 -0.9432 -2.2995
 6514SOL    HW231602   3.618   6.656   6.344 -0.0302  0.1318  2.0492
 6515SOL     OW31603   8.561   6.837   9.441  0.5352  0.7540 -0.1230
 6515SOL    HW131604   8.625   6.914   9.443  0.9047  0.4315  0.6029
 6515SOL    HW231605   8.548   6.802   9.533 -0.0515  0.2882 -0.3797
 6516SOL     OW31606   8.603   0.625   4.473 -0.5619  0.5829 -0.1092
 6516SOL    HW131607   8.541   0.560   4.428 -0.5946  0.6497 -0.1600
 6516SOL    HW231608   8.599   0.713   4.426  0.2045  0.3406 -0.6445
 6517SOL     OW31609   0.708   1.926   7.742  0.1303  0.0211 -0.5124
 6517SOL    HW131610   0.633   1.985   7.772  1.2585  1.6067 -0.7778
 6517SOL    HW231611   0.671   1.854   7.682 -1.2219  0.5798 -0.3704
 6518SOL     OW31612   7.917   2.823   4.558  0.2708 -0.1800 -0.0609
 6518SOL    HW131613   7.955   2.902   4.509  1.0414 -1.4427 -1.5506
 6518SOL    HW231614   7.965   2.811   4.645  0.7592  0.4637 -0.2405
 6519SOL     OW31615   9.079   9.528   4.896  0.6380  0.1031 -0.1137
 6519SOL    HW131616   9.017   9.466   4.848  0.7712 -0.5486  0.5530
 6519SOL    HW231617   9.104   9.603   4.835 -0.0993 -0.1050 -0.6837
 6520SOL     OW31618   9.869   5.496   7.600 -0.2758 -0.0600 -0.1531
 6520SOL    HW131619   9.865   5.401   7.629  1.3181 -0.0090  0.2782
 6520SOL    HW231620   9.965   5.523   7.587 -0.7094  1.5038 -0.1903
 6521SOL     OW31621   3.394   0.517   7.654 -0.6131  0.4929  0.2267
 6521SOL    HW131622   3.373   0.515   7.557 -1.8446  1.2116  0.4567
 6521SOL    HW231623   3.326   0.463   7.704 -0.7881  1.2516  0.8177
 6522SOL     OW31624   1.061   2.864   4.034  0.3050 -0.6812 -0.4018
 6522SOL    HW131625   1.045   2.848   3.937 -2.0520  1.7321 -0.4515
 6522SOL    HW231626   0.995   2.810   4.087  0.1054 -0.2456 -0.2102
 6523SOL     OW31627   8.082   1.889   3.346  0.0151  0.0432 -0.5120
 6523SOL    HW131628   8.105   1.918   3.439 -0.8586  2.4985 -1.0192
 6523SOL    HW231629   7.995   1.931   3.319  0.8628  0.3569 -2.8738
 6524SOL     OW31630   0.544   5.417   0.882  0.1252  0.3999  0.2660
 6524SOL    HW131631   0.630   5.366   0.890  0.1683  0.5351  0.7200
 6524SOL    HW231632   0.469   5.360   0.915  0.3131  0.9918  1.7771
 6525SOL     OW31633   3.091   3.232   8.727  0.2448  0.0723  0.5547
 6525SOL    HW131634   3.018   3.291   8.690  0.5097 -0.5824 -1.0485
 6525SOL    HW231635   3.100   3.249   8.825 -0.4947  1.8471  0.3437
 6526SOL     OW31636   6.856   9.573   6.201 -0.0455 -0.2224  0.3160
 6526SOL    HW131637   6.878   9.644   6.267 -0.7123 -0.8099  1.1720
 6526SOL    HW231638   6.851   9.613   6.109  1.9394  0.3951  0.4563
 6527SOL     OW31639   0.782   5.427   0.292 -0.0891  0.6470 -0.4594
 6527SOL    HW131640   0.755   5.522   0.305  1.7375  1.2731 -0.9825
 6527SOL    HW231641   0.785   5.380   0.380  1.2138  1.7233  0.0965
 6528SOL     OW31642   2.158   4.872   4.152 -0.8369 -0.4454 -0.0326
 6528SOL    HW131643   2.137   4.887   4.055  3.9397  0.0280 -1.1532
 6528SOL    HW231644   2.136   4.955   4.203 -0.7481  0.3544 -1.2484
 6529SOL     OW31645   3.992   6.721   0.877 -0.3276  0.6250  0.5051
 6529SOL    HW131646   4.014   6.784   0.952  1.7960  0.3833  0.1056
 6529SOL    HW231647   4.074   6.703   0.823 -0.9932 -2.2116  0.3755
 6530SOL     OW31648   7.728   2.332   8.895 -0.1616  0.2499  0.2101
 6530SOL    HW131649   7.783   2.306   8.975 -2.0424 -0.0565  1.4490
 6530SOL    HW231650   7.781   2.318   8.812  1.5559 -0.2244  1.3486
 6531SOL     OW31651   1.540   2.559   5.808  0.0284 -0.8747 -0.3297
 6531SOL    HW131652   1.604   2.621   5.762 -1.5400 -0.7286 -2.3606
 6531SOL    HW231653   1.546   2.468   5.766 -0.2861 -1.1584  0.2408
 6532SOL     OW31654   0.103   3.889   2.453  0.1945 -0.5914 -0.7931
 6532SOL    HW131655   0.198   3.863   2.468 -0.1652 -2.1658 -1.1991
 6532SOL    HW231656   0.080   3.968   2.511  1.0579 -1.6756  1.0616
 6533SOL     OW31657   1.797   1.014   3.949 -0.2230 -0.2556  0.1043
 6533SOL    HW131658   1.815   0.959   3.868  0.4658  0.7485 -0.4435
 6533SOL    HW231659   1.702   1.047   3.947 -0.7889 -1.7915  0.6821
 6534SOL     OW31660   9.293   4.214   4.082 -0.0620  0.3130  0.0264
 6534SOL    HW131661   9.195   4.192   4.081  0.2755 -1.2618 -0.3711
 6534SOL    HW231662   9.334   4.187   3.994  0.5976  1.6218 -0.0815
 6535SOL     OW31663   7.709   2.478   3.704 -0.1393 -0.0656  0.3419
 6535SOL    HW131664   7.689   2.544   3.631  1.1948 -1.5361 -1.3758
 6535SOL    HW231665   7.657   2.503   3.786 -1.6364  1.6293 -1.0792
 6536SOL     OW31666   2.913   8.227   1.677 -0.4985 -0.4745  0.4654
 6536SOL    HW131667   2.845   8.284   1.630  0.5079 -0.8041 -1.4504
 6536SOL    HW231668   2.868   8.173   1.748 -1.8721  0.8839  0.6552
 6537SOL     OW31669   9.096   0.566   9.509  0.3546 -0.3170 -0.4425
 6537SOL    HW131670   9.140   0.482   9.476  0.9129 -0.6016  0.9810
 6537SOL    HW231671   9.002   0.569   9.475  0.8573 -0.6721 -1.9052
 6538SOL     OW31672   4.057   7.677   3.892 -0.1070 -0.0320  0.0089
 6538SOL    HW131673   4.006   7.595   3.918 -0.8091  0.8518  1.4961
 6538SOL    HW231674   4.149   7.652   3.863  0.2813 -1.1901  2.1734
 6539SOL     OW31675   8.339   3.197   4.821 -0.1362  0.2554 -0.0391
 6539SOL    HW131676   8.424   3.163   4.779 -1.0479  0.0439 -1.7630
 6539SOL    HW231677   8.348   3.295   4.840  0.5548  0.2045 -0.0917
 6540SOL     OW31678   0.958   6.220   4.698 -0.9267  0.0559 -0.2173
 6540SOL    HW131679   0.887   6.218   4.628 -0.4752  1.0061 -0.7000
 6540SOL    HW231680   0.979   6.314   4.722  1.1596 -0.1685 -1.0833
 6541SOL     OW31681   0.348   6.516   3.219  0.3694 -0.1750 -0.4433
 6541SOL    HW131682   0.337   6.424   3.257 -1.3803  0.3369  0.3216
 6541SOL    HW231683   0.430   6.558   3.258  0.3024 -0.8121  0.3930
 6542SOL     OW31684   4.980   4.186   1.864  0.1083 -0.5267 -0.1977
 6542SOL    HW131685   4.920   4.252   1.819 -0.9839 -0.8402  0.7657
 6542SOL    HW231686   5.057   4.234   1.907  0.2811 -0.0682 -1.0185
 6543SOL     OW31687   3.803   5.761   0.122  1.2045  0.0843  0.2241
 6543SOL    HW131688   3.834   5.856   0.122 -1.1393  0.8883  0.8890
 6543SOL    HW231689   3.749   5.743   0.204  0.1038 -1.2909 -0.7691
 6544SOL     OW31690   5.499   1.562   9.190  0.0272  0.0724  0.0876
 6544SOL    HW131691   5.444   1.486   9.223  0.8419 -0.0174  1.2660
 6544SOL    HW231692   5.596   1.539   9.198  0.2629  0.8164 -0.5481
 6545SOL     OW31693   8.468   6.832   6.700 -0.4224  0.1586  0.2788
 6545SOL    HW131694   8.555   6.822   6.748 -0.7218  0.5621  0.9038
 6545SOL    HW231695   8.484   6.871   6.609  0.0206  0.4619  0.4859
 6546SOL     OW31696   5.426   2.235   1.458 -0.1064  0.4005  0.0423
 6546SOL    HW131697   5.500   2.170   1.439 -2.0424 -1.5731 -0.8916
 6546SOL    HW231698   5.448   2.323   1.416  1.3692 -0.3842 -0.8800
 6547SOL     OW31699   6.720   4.596   0.501 -0.4049 -0.3551 -0.6447
 6547SOL    HW131700   6.634   4.586   0.450 -0.0457 -3.0172 -0.7609
 6547SOL    HW231701   6.700   4.592   0.599 -0.3499 -1.7049 -0.6792
 6548SOL     OW31702   3.180   5.272   5.221 -0.2182 -0.2141  0.9194
 6548SOL    HW131703   3.233   5.267   5.136 -1.1257  0.8607  0.2892
 6548SOL    HW231704   3.208   5.353   5.273 -0.6317 -0.1245  1.0006
 6549SOL     OW31705   8.284   2.631   8.281  0.5446 -0.3186  0.2424
 6549SOL    HW131706   8.238   2.635   8.370 -0.1908  0.9706 -0.1796
 6549SOL    HW231707   8.367   2.687   8.285 -0.9745  2.0645 -0.7048
 6550SOL     OW31708   9.258   6.598   2.639 -0.0174  0.6650 -0.1755
 6550SOL    HW131709   9.172   6.629   2.599  0.6833  0.0052 -2.2730
 6550SOL    HW231710   9.326   6.671   2.634  0.4728  0.1335 -1.4898
 6551SOL     OW31711   0.251   0.246   0.575  0.0488  0.2125 -0.8275
 6551SOL    HW131712   0.310   0.169   0.600 -0.2634  0.0840 -0.4795
 6551SOL    HW231713   0.197   0.222   0.493 -1.1538 -0.5151  0.1555
 6552SOL     OW31714   7.195   0.305   1.685  0.2667 -0.4202  0.4000
 6552SOL    HW131715   7.282   0.255   1.689 -0.1462 -1.1810 -0.1504
 6552SOL    HW231716   7.210   0.394   1.642  0.5323 -1.0720 -0.8840
 6553SOL     OW31717   7.499   7.917   3.509 -0.1995  0.3111  0.5571
 6553SOL    HW131718   7.429   7.974   3.465 -1.6598 -0.7857  1.4331
 6553SOL    HW231719   7.555   7.874   3.439 -0.9551  0.5163 -0.1895
 6554SOL     OW31720   2.060   2.970   0.224  0.1232  0.2458  0.3694
 6554SOL    HW131721   2.121   3.025   0.167  0.8653  0.1606  1.0675
 6554SOL    HW231722   2.088   2.875   0.222  0.2833  0.2758  1.0407
 6555SOL     OW31723   1.824   6.769   4.865 -0.1573  0.2929 -0.4608
 6555SOL    HW131724   1.837   6.676   4.829 -0.0439 -0.9651  2.6702
 6555SOL    HW231725   1.905   6.824   4.845  0.4147 -0.7278 -1.0060
 6556SOL     OW31726   0.625   3.114   4.167 -0.0006 -0.2938 -0.2959
 6556SOL    HW131727   0.598   3.024   4.132  0.3263 -0.3947 -0.2937
 6556SOL    HW231728   0.575   3.185   4.118 -1.0486 -0.5152  0.4381
 6557SOL     OW31729   3.760   9.796   1.094 -0.1887  0.3521  0.5539
 6557SOL    HW131730   3.733   9.780   1.189  3.0982 -0.7463  1.3727
 6557SOL    HW231731   3.775   9.894   1.079 -2.3842  0.7223  0.6621
 6558SOL     OW31732   6.314   4.615   8.280  0.0817 -0.4329 -0.0768
 6558SOL    HW131733   6.379   4.656   8.216  0.3347  0.8475  0.9944
 6558SOL    HW231734   6.331   4.516   8.286  2.8565  0.0930  1.2792
 6559SOL     OW31735   1.422   3.655   5.384 -0.1389  0.3748 -0.0078
 6559SOL    HW131736   1.412   3.736   5.327 -0.5542  0.1424 -0.2744
 6559SOL    HW231737   1.440   3.682   5.479 -0.6284  0.7800 -0.0281
 6560SOL     OW31738   2.340   6.465   2.961 -0.0400 -0.2276  0.1426
 6560SOL    HW131739   2.402   6.408   3.017 -0.0430  0.3316  0.7216
 6560SOL    HW231740   2.382   6.554   2.946 -0.7458  0.1870  0.6192
 6561SOL     OW31741   2.349   6.825   3.961  0.0438 -0.1304  0.2339
 6561SOL    HW131742   2.428   6.864   3.914  0.2697 -2.5813 -1.5506
 6561SOL    HW231743   2.270   6.885   3.947  1.0521  1.2112  0.1355
 6562SOL     OW31744   4.941   3.289   1.110  0.1998  0.2303 -0.1263
 6562SOL    HW131745   5.007   3.215   1.126  0.2991  0.6032  1.2763
 6562SOL    HW231746   4.972   3.347   1.035  1.5644  0.5162  0.6555
 6563SOL     OW31747   8.871   5.458   7.403 -0.0684  0.1671 -0.1324
 6563SOL    HW131748   8.914   5.540   7.363  1.1407 -0.1544  0.4743
 6563SOL    HW231749   8.872   5.465   7.502  1.0834 -1.0776 -0.0350
 6564SOL     OW31750   3.662   9.278   6.937 -0.1420  0.7739 -0.2754
 6564SOL    HW131751   3.587   9.230   6.981  0.3931  0.2937  0.1250
 6564SOL    HW231752   3.715   9.329   7.005 -0.8756  2.1824 -0.7316
 6565SOL     OW31753   5.404   7.995   1.975  0.5602 -0.0399 -0.6474
 6565SOL    HW131754   5.358   8.032   1.895  1.1143  0.3537 -0.7865
 6565SOL    HW231755   5.502   8.015   1.970  0.9081 -1.7170 -0.8289
 6566SOL     OW31756   2.178   8.074   6.707 -0.2346 -0.2890  0.0798
 6566SOL    HW131757   2.216   8.068   6.799 -1.0531 -0.3370  0.4264
 6566SOL    HW231758   2.205   7.994   6.654 -0.4138 -0.6633  0.5406
 6567SOL     OW31759   1.936   2.492   3.695 -0.3388 -0.0094  0.0162
 6567SOL    HW131760   1.983   2.564   3.746  0.8715 -1.7521  1.4145
 6567SOL    HW231761   1.847   2.475   3.736 -0.8934  1.0938 -0.6969
 6568SOL     OW31762   4.074   3.099   7.625 -0.8941  0.5125 -0.0377
 6568SOL    HW131763   4.115   3.189   7.638 -1.5584  1.0612 -1.6445
 6568SOL    HW231764   4.040   3.065   7.713  0.1322  1.4367  0.7316
 6569SOL     OW31765   4.372   8.776   1.591 -0.3386 -0.5466  0.1408
 6569SOL    HW131766   4.330   8.834   1.661  0.8323  0.9454 -0.3642
 6569SOL    HW231767   4.315   8.777   1.509  0.9965  2.0579 -0.7997
 6570SOL     OW31768   9.509   6.880   9.344 -0.1261  0.1527  0.0882
 6570SOL    HW131769   9.592   6.846   9.302  1.3401  1.2376  2.0116
 6570SOL    HW231770   9.507   6.852   9.441 -0.6190  2.4634  0.7717
 6571SOL     OW31771   2.610   2.816   3.151 -0.2360  0.1034  0.0498
 6571SOL    HW131772   2.687   2.857   3.200 -0.2535  0.7532 -0.4615
 6571SOL    HW231773   2.618   2.717   3.154 -2.1772 -0.0235  4.5078
 6572SOL     OW31774   7.448   4.342   0.776 -0.0844  0.4179  0.1904
 6572SOL    HW131775   7.516   4.333   0.703 -1.5348  0.2526 -1.1731
 6572SOL    HW231776   7.467   4.275   0.848  1.2451  0.4489 -0.1175
 6573SOL     OW31777   5.001   9.832   2.321  0.2088 -0.0786  0.3021
 6573SOL    HW131778   5.030   9.746   2.364 -1.3101 -0.0266  1.4519
 6573SOL    HW231779   5.082   9.887   2.298  1.1067 -0.9741  1.2841
 6574SOL     OW31780   2.704   9.007   0.129 -0.2780 -0.2833  0.2270
 6574SOL    HW131781   2.694   9.009   0.228 -0.5090 -1.0246  0.2179
 6574SOL    HW231782   2.653   8.930   0.092 -1.0594  0.6042 -0.5684
 6575SOL     OW31783   2.986   0.431   1.479  0.4096  0.4133  0.0345
 6575SOL    HW131784   2.995   0.333   1.458 -1.5782  0.2312 -0.1051
 6575SOL    HW231785   3.002   0.446   1.576 -1.3474 -0.3939  0.4825
 6576SOL     OW31786   9.479   5.591   7.645  0.1912  0.3345 -0.3224
 6576SOL    HW131787   9.456   5.560   7.738  1.9655 -1.9682 -0.6164
 6576SOL    HW231788   9.538   5.671   7.651  1.1839 -0.4379  0.5925
 6577SOL     OW31789   1.620   3.657   5.768 -0.3998  0.1800 -0.0065
 6577SOL    HW131790   1.696   3.716   5.795  0.1730 -1.1203  1.2666
 6577SOL    HW231791   1.534   3.709   5.772  0.1229  1.0023  0.8349
 6578SOL     OW31792   3.168   3.479   7.244  0.3243  0.2574  0.5116
 6578SOL    HW131793   3.103   3.540   7.288 -0.2983 -1.0608  1.4426
 6578SOL    HW231794   3.208   3.525   7.165 -0.6204  1.6227  0.8091
 6579SOL     OW31795   2.060   5.535   6.152 -0.2024  0.3298 -0.1805
 6579SOL    HW131796   1.979   5.535   6.093  2.1601 -0.5257 -3.6023
 6579SOL    HW231797   2.071   5.626   6.193 -1.3139  1.2921 -1.9462
 6580SOL     OW31798   3.255   0.281   6.438  0.0672 -0.6094  0.2355
 6580SOL    HW131799   3.175   0.336   6.461  1.2771  0.6916  1.4449
 6580SOL    HW231800   3.274   0.216   6.512  1.4440  0.6469  1.0198
 6581SOL     OW31801   4.293   8.616   6.412  0.1185  0.0536 -0.0103
 6581SOL    HW131802   4.239   8.694   6.381  1.3174 -0.2724 -3.0537
 6581SOL    HW231803   4.231   8.545   6.448 -1.4201  0.1217 -2.4244
 6582SOL     OW31804   6.295   4.572   1.118  0.1011  0.2261  0.3703
 6582SOL    HW131805   6.330   4.650   1.170 -0.5754  1.5644 -1.1333
 6582SOL    HW231806   6.239   4.514   1.178  1.2213  0.4706  1.6847
 6583SOL     OW31807   0.946   6.678   5.200  0.8435 -0.1082  0.0415
 6583SOL    HW131808   0.861   6.649   5.244 -0.7949  2.7802 -1.0333
 6583SOL    HW231809   1.016   6.696   5.269 -0.2407 -0.0550  1.1350
 6584SOL     OW31810   0.537   8.875   0.957  0.1018  0.0020 -0.3800
 6584SOL    HW131811   0.574   8.801   1.014  0.3986  0.0225 -0.5435
 6584SOL    HW231812   0.488   8.940   1.014 -1.7655 -1.3052 -0.4742
 6585SOL     OW31813   0.006   2.152   9.442  0.2838 -0.5509  0.1907
 6585SOL    HW131814   0.050   2.133   9.354  2.5265 -0.4919  1.2788
 6585SOL    HW231815   0.003   2.068   9.496  0.8106 -0.1215  0.8854
 6586SOL     OW31816   9.140   4.317   8.176 -0.1032  0.1412  0.8106
 6586SOL    HW131817   9.080   4.367   8.113  1.0560  1.3544  0.6379
 6586SOL    HW231818   9.156   4.225   8.141 -0.5360  0.3599  0.0256
 6587SOL     OW31819   1.019   6.375   7.110  0.5773  0.0739  0.0639
 6587SOL    HW131820   1.110   6.416   7.106 -0.1423  1.5588 -1.7109
 6587SOL    HW231821   0.987   6.357   7.017 -1.2539  0.2330  0.6645
 6588SOL     OW31822   8.322   4.598   7.388  0.1880  0.1891  0.2588
 6588SOL    HW131823   8.262   4.641   7.321  0.8283 -0.9575 -1.0782
 6588SOL    HW231824   8.295   4.502   7.399  1.1250 -0.0642  0.4006
 6589SOL     OW31825   1.426   1.657   0.484 -0.1337  0.8206 -0.7784
 6589SOL    HW131826   1.502   1.655   0.550 -0.2363  1.2725 -0.6444
 6589SOL    HW231827   1.447   1.597   0.407 -0.2084 -0.0682 -0.1203
 6590SOL     OW31828   3.008   2.487   7.881  0.6647 -0.0380  0.3540
 6590SOL    HW131829   2.971   2.527   7.797 -0.1886 -0.0840  0.7081
 6590SOL    HW231830   2.995   2.388   7.879  1.4440 -0.1449  0.1492
 6591SOL     OW31831   9.056   1.497   7.326 -0.0837 -0.1262  0.4220
 6591SOL    HW131832   9.057   1.577   7.386 -0.5947  1.0847 -1.1242
 6591SOL    HW231833   9.121   1.511   7.251 -1.1680 -0.5499 -0.6215
 6592SOL     OW31834   3.749   7.356   4.272 -0.0219 -0.3420 -0.4589
 6592SOL    HW131835   3.813   7.402   4.334  0.2948 -1.5784  0.1329
 6592SOL    HW231836   3.734   7.414   4.192 -0.4102  1.2493  0.7402
 6593SOL     OW31837   3.800   1.367   7.522  0.2505 -0.0457  0.9389
 6593SOL    HW131838   3.804   1.446   7.460 -1.0558 -1.3191 -0.8296
 6593SOL    HW231839   3.889   1.321   7.523  0.3724  0.1580  0.2094
 6594SOL     OW31840   4.135   1.625   0.956 -0.1652  0.4248  0.4395
 6594SOL    HW131841   4.126   1.720   0.925  0.4321 -0.2013 -1.6944
 6594SOL    HW231842   4.046   1.590   0.983 -0.5281  1.2984  0.3806
 6595SOL     OW31843   4.969   8.787   7.558  0.2364 -0.2508 -0.1392
 6595SOL    HW131844   4.929   8.785   7.466  3.2898 -0.7434 -1.5241
 6595SOL    HW231845   5.029   8.866   7.565  1.7389 -1.4478  0.6644
 6596SOL     OW31846   8.148   2.192   4.605 -0.0816 -0.6296 -0.0316
 6596SOL    HW131847   8.087   2.271   4.598  0.4897  0.0352  2.0899
 6596SOL    HW231848   8.104   2.112   4.564 -0.3844  0.9176 -2.8018
 6597SOL     OW31849   7.926   6.570   7.627  0.2162 -0.2337 -0.8456
 6597SOL    HW131850   7.836   6.532   7.649 -0.1594  0.0149 -1.9456
 6597SOL    HW231851   7.940   6.655   7.678  0.3628 -0.9401  0.3107
 6598SOL     OW31852   8.546   2.609   2.257  0.2506  0.3239  0.0156
 6598SOL    HW131853   8.489   2.529   2.276 -1.4379  1.2161 -1.2642
 6598SOL    HW231854   8.623   2.582   2.199 -0.7491 -0.2322 -1.0570
 6599SOL     OW31855   3.908   7.276   0.057  0.3040  0.1705 -0.0363
 6599SOL    HW131856   3.988   7.288  -0.002  1.1832 -0.1282  1.0657
 6599SOL    HW231857   3.860   7.193   0.030  0.6768  0.0532 -0.3583
 6600SOL     OW31858   5.289   0.054   3.780 -0.1862  0.3932 -0.1026
 6600SOL    HW131859   5.196   0.069   3.817 -0.9989 -0.8863 -1.5802
 6600SOL    HW231860   5.352   0.037   3.856 -1.1707  1.2175  0.9198
 6601SOL     OW31861   0.620   6.011   5.562  0.6371  0.2575 -0.1525
 6601SOL    HW131862   0.649   6.073   5.489  0.0687 -1.3229 -1.7653
 6601SOL    HW231863   0.596   6.064   5.643  2.7632  1.9427 -0.5886
 6602SOL     OW31864   7.738   0.356   1.872  0.2033  0.1156 -0.1778
 6602SOL    HW131865   7.732   0.277   1.932 -0.2803  1.7009  1.9265
 6602SOL    HW231866   7.669   0.349   1.800 -0.7173 -0.7466  0.7677
 6603SOL     OW31867   8.064   3.841   7.972  0.7008 -0.4899  0.3355
 6603SOL    HW131868   7.972   3.848   7.935  0.1548  0.1675  1.7606
 6603SOL    HW231869   8.120   3.917   7.940  0.1887  0.1617  0.9757
 6604SOL     OW31870   9.528   2.380   5.187  0.6637  0.8111  0.0894
 6604SOL    HW131871   9.526   2.340   5.278  2.1841  2.3871  0.8519
 6604SOL    HW231872   9.607   2.344   5.137 -0.9959 -1.1709 -1.1584
 6605SOL     OW31873   3.392   2.843   8.317 -0.4713  0.6476 -0.1834
 6605SOL    HW131874   3.306   2.857   8.267 -0.9136  1.4254  0.7645
 6605SOL    HW231875   3.438   2.931   8.328  0.4316  0.2350 -0.6571
 6606SOL     OW31876   0.071   0.681   8.729 -0.3001  0.1103  0.1832
 6606SOL    HW131877   0.159   0.651   8.766 -0.0277 -0.0155 -0.5620
 6606SOL    HW231878   0.041   0.763   8.778  0.5720  0.5616 -0.0291
 6607SOL     OW31879   7.955   2.663   0.598  0.2453 -0.1047  0.1662
 6607SOL    HW131880   7.964   2.567   0.570 -2.1361 -0.9676  2.1519
 6607SOL    HW231881   7.859   2.690   0.594  0.2899  0.8824  3.7008
 6608SOL     OW31882   7.130   5.358   9.461 -0.5336  0.1984  0.0080
 6608SOL    HW131883   7.198   5.339   9.531  0.6326  0.3875 -1.0621
 6608SOL    HW231884   7.104   5.455   9.465 -0.8285  0.0993  0.4889
 6609SOL     OW31885   8.524   5.440   9.099  0.1488  0.1445  0.1775
 6609SOL    HW131886   8.604   5.398   9.055  0.4556  1.1038 -0.1981
 6609SOL    HW231887   8.442   5.421   9.045  0.3279  0.2453 -0.1324
 6610SOL     OW31888   0.349   0.640   5.974 -0.3178  0.1366  0.1257
 6610SOL    HW131889   0.434   0.687   5.951 -1.1236  0.6429 -1.9116
 6610SOL    HW231890   0.370   0.548   6.007  1.0473  0.5647  0.5041
 6611SOL     OW31891   0.546   4.325   0.481  0.0145 -0.1983 -0.2807
 6611SOL    HW131892   0.545   4.414   0.434 -0.0945 -0.1976 -0.2760
 6611SOL    HW231893   0.640   4.301   0.503  0.0959 -0.3543 -0.7954
 6612SOL     OW31894   0.126   6.715   7.415 -0.1032  0.1518  0.8560
 6612SOL    HW131895   0.038   6.675   7.387 -1.2543  0.0708  4.3712
 6612SOL    HW231896   0.113   6.810   7.441  0.8884  0.1931  1.2280
 6613SOL     OW31897   0.798   1.406   4.479  0.5586 -0.3493  0.5352
 6613SOL    HW131898   0.733   1.480   4.498  1.6845  0.8495 -0.1761
 6613SOL    HW231899   0.758   1.319   4.505 -0.8556  0.4994  1.2571
 6614SOL     OW31900   9.851   6.225   5.484  0.6025 -0.0345 -0.0280
 6614SOL    HW131901   9.850   6.299   5.551  1.3531 -1.8403  2.0314
 6614SOL    HW231902   9.942   6.183   5.481 -0.0992 -1.6046 -0.3316
 6615SOL     OW31903   7.132   6.883   5.438 -0.1254 -0.0522 -0.0929
 6615SOL    HW131904   7.140   6.943   5.358  2.6096  1.4315  1.2320
 6615SOL    HW231905   7.067   6.922   5.503 -0.7282 -0.1512 -0.6416
 6616SOL     OW31906   1.903   5.484   9.596 -0.1646  0.2654  0.4021
 6616SOL    HW131907   1.833   5.544   9.558  0.6281  1.1890  0.3656
 6616SOL    HW231908   1.870   5.442   9.681 -0.5017  1.2186  0.7416
 6617SOL     OW31909   4.822   9.805   4.503  0.5705 -0.1523  0.0793
 6617SOL    HW131910   4.792   9.752   4.583  0.1866  1.7542  1.2179
 6617SOL    HW231911   4.921   9.819   4.508  0.5177  0.1308  0.3097
 6618SOL     OW31912   0.415   7.371   6.761 -0.0967  0.0108  0.4903
 6618SOL    HW131913   0.332   7.422   6.736 -0.9542 -2.6422 -2.4062
 6618SOL    HW231914   0.492   7.435   6.768 -1.0219  1.7577 -3.5132
 6619SOL     OW31915   8.267   0.059   2.418 -0.7527  0.7604 -0.0819
 6619SOL    HW131916   8.206   0.014   2.353  1.4915 -1.3787 -0.7525
 6619SOL    HW231917   8.298   0.146   2.380  1.6334 -1.1009 -2.5894
 6620SOL     OW31918   0.237   3.344   1.146  0.0412 -1.2030 -0.2055
 6620SOL    HW131919   0.157   3.343   1.086 -0.7281  2.4424  0.5865
 6620SOL    HW231920   0.320   3.328   1.092 -0.6087  2.1477 -2.4072
 6621SOL     OW31921   0.528   2.397   7.227  0.0091  0.2148 -0.2931
 6621SOL    HW131922   0.482   2.396   7.138 -0.3280 -0.9022 -0.1051
 6621SOL    HW231923   0.585   2.316   7.236  0.7084  0.7500  0.1734
 6622SOL     OW31924   1.395   9.890   5.932  0.1746 -0.0058 -0.3547
 6622SOL    HW131925   1.383   9.832   6.012  0.3204 -0.4083 -0.6234
 6622SOL    HW231926   1.480   9.942   5.941  0.1521  0.0053 -0.2131
 6623SOL     OW31927   2.849   7.776   2.434 -0.1927  0.1971  0.6207
 6623SOL    HW131928   2.801   7.839   2.495 -1.3818 -0.3888  0.3010
 6623SOL    HW231929   2.855   7.817   2.343  1.2113  0.8910  1.0130
 6624SOL     OW31930   7.942   1.066   3.950  0.3149 -0.0683  0.0623
 6624SOL    HW131931   8.020   1.115   3.910 -0.2139 -0.6477 -1.7304
 6624SOL    HW231932   7.964   0.969   3.957  0.0956 -0.0914  0.3923
 6625SOL     OW31933   2.395   2.259   5.797  0.4596 -0.0525 -0.4323
 6625SOL    HW131934   2.304   2.289   5.825  0.2551 -0.8022 -0.2780
 6625SOL    HW231935   2.390   2.165   5.763  0.6815  0.8422 -3.1048
 6626SOL     OW31936   5.920   2.149   1.501 -0.3441 -0.0736 -0.2738
 6626SOL    HW131937   5.915   2.117   1.595  1.0275 -0.7100 -0.4097
 6626SOL    HW231938   5.876   2.239   1.494 -1.9770 -0.7787  0.6134
 6627SOL     OW31939   8.527   5.476   5.793 -0.2184  0.3357 -0.1049
 6627SOL    HW131940   8.606   5.506   5.846  2.2061 -0.3350 -3.1723
 6627SOL    HW231941   8.504   5.382   5.819  1.4592 -0.2772 -0.7775
 6628SOL     OW31942   8.899   7.599   0.704 -0.5447 -0.6688 -0.6285
 6628SOL    HW131943   8.947   7.625   0.620 -1.7936 -2.2499 -1.8682
 6628SOL    HW231944   8.805   7.634   0.700  0.0595  1.3058  1.2075
 6629SOL     OW31945   5.626   8.426   7.182  0.3242  0.4930 -0.1824
 6629SOL    HW131946   5.554   8.390   7.241 -2.3136  1.9283 -2.4473
 6629SOL    HW231947   5.644   8.521   7.205  0.5254  0.5376 -0.5211
 6630SOL     OW31948   4.981   9.842   6.428 -0.1513  0.0693  0.1729
 6630SOL    HW131949   5.067   9.803   6.394 -0.1171  0.9234 -0.7267
 6630SOL    HW231950   4.985   9.848   6.528  1.6942  2.0170  0.0318
 6631SOL     OW31951   6.149   0.625   1.526  0.5143 -0.1738  0.4537
 6631SOL    HW131952   6.127   0.671   1.440  1.8734  0.9087  0.6710
 6631SOL    HW231953   6.095   0.540   1.533 -1.7904  1.2004 -0.0913
 6632SOL     OW31954   9.649   7.317   0.925 -0.1940 -0.2421  0.2417
 6632SOL    HW131955   9.565   7.288   0.878 -0.3079 -0.2498  0.4463
 6632SOL    HW231956   9.683   7.242   0.982 -0.0994 -0.2084  0.2284
 6633SOL     OW31957   6.905   8.244   6.718 -0.5210  0.0200  0.1062
 6633SOL    HW131958   6.880   8.243   6.621  2.1112  0.7369 -0.6354
 6633SOL    HW231959   7.003   8.261   6.726 -0.4101 -1.6614  2.8629
 6634SOL     OW31960   3.919   5.871   4.866 -0.3696  0.0474  0.2733
 6634SOL    HW131961   3.981   5.932   4.817 -1.3494  1.0023  0.1933
 6634SOL    HW231962   3.969   5.790   4.897  0.7517  0.4813 -0.3724
 6635SOL     OW31963   0.303   2.089   7.238 -0.0433 -0.1308 -0.8940
 6635SOL    HW131964   0.388   2.071   7.189  0.3464  0.5360 -0.4638
 6635SOL    HW231965   0.323   2.130   7.327 -0.8582  1.1501 -1.2875
 6636SOL     OW31966   3.806   4.559   7.082 -0.1781 -0.0778 -0.0910
 6636SOL    HW131967   3.901   4.544   7.053  0.2074 -0.8988  1.5273
 6636SOL    HW231968   3.803   4.635   7.146 -0.4441 -0.7637  0.7190
 6637SOL     OW31969   8.889   6.375   3.980 -0.8220  0.1550  0.2617
 6637SOL    HW131970   8.961   6.421   3.928 -1.1028  0.6099  0.2725
 6637SOL    HW231971   8.930   6.305   4.039 -0.0517  2.4337  2.5344
 6638SOL     OW31972   1.437   8.279   3.336  0.2084  0.2929 -0.1823
 6638SOL    HW131973   1.471   8.334   3.259  1.1154  1.7568  1.2199
 6638SOL    HW231974   1.341   8.300   3.352 -0.3442 -0.9759 -1.7119
 6639SOL     OW31975   0.625   2.010   6.710  0.2195 -0.3221 -0.3917
 6639SOL    HW131976   0.559   2.001   6.784 -0.5392 -1.8318 -1.2231
 6639SOL    HW231977   0.674   1.923   6.699  2.3908  0.7656  0.2340
 6640SOL     OW31978   9.294   4.475   5.183 -0.1373  0.0766 -0.3419
 6640SOL    HW131979   9.236   4.414   5.129 -0.7090 -0.2208  0.5835
 6640SOL    HW231980   9.253   4.566   5.187 -0.8720 -0.2897  0.8120
 6641SOL     OW31981   1.123   4.187   9.480 -0.6094  0.2700  0.6378
 6641SOL    HW131982   1.185   4.112   9.501  2.3356  1.6583 -2.6369
 6641SOL    HW231983   1.112   4.245   9.560  1.1672 -0.8363  1.7086
 6642SOL     OW31984   4.373   0.017   9.015  0.2650 -0.9355  0.2674
 6642SOL    HW131985   4.343  -0.072   8.983  0.1436 -0.1711 -1.7883
 6642SOL    HW231986   4.394   0.076   8.937 -3.3912  2.1515  1.4485
 6643SOL     OW31987   6.286   1.322   0.239  0.4116 -0.0179 -0.4439
 6643SOL    HW131988   6.309   1.228   0.262 -1.8426 -0.1955  1.2496
 6643SOL    HW231989   6.229   1.324   0.156 -2.4502 -0.4704  1.4583
 6644SOL     OW31990   8.478   3.079   2.952  0.5681 -0.9609  0.0411
 6644SOL    HW131991   8.411   3.150   2.931  0.6264  0.4259  4.0365
 6644SOL    HW231992   8.434   2.989   2.945 -0.8383 -0.2551 -0.4723
 6645SOL     OW31993   6.027   3.651   0.446  0.2191 -0.2485 -0.6849
 6645SOL    HW131994   6.005   3.694   0.533  0.1046  0.2541 -0.9613
 6645SOL    HW231995   5.952   3.590   0.419 -0.6463  1.1182 -1.4013
 6646SOL     OW31996   5.311   0.500   6.407  0.2413  0.1430 -0.2207
 6646SOL    HW131997   5.311   0.489   6.307 -1.7139 -0.6414 -0.1557
 6646SOL    HW231998   5.360   0.584   6.431  2.5570 -0.7572 -1.6894
 6647SOL     OW31999   7.208   2.902   8.219  0.3799  0.1810  0.1994
 6647SOL    HW132000   7.178   2.807   8.225  1.3357 -0.1697 -0.4586
 6647SOL    HW232001   7.128   2.962   8.213 -0.2269 -0.5733  0.6945
 6648SOL     OW32002   2.526   2.266   8.516  0.0205 -0.0430 -0.2379
 6648SOL    HW132003   2.428   2.245   8.509  0.0104  0.3605 -1.3010
 6648SOL    HW232004   2.541   2.363   8.499  0.4569  0.1987  1.3811
 6649SOL     OW32005   0.781   4.160   0.141  0.2681  0.1436  0.1194
 6649SOL    HW132006   0.723   4.200   0.070  0.5740 -2.2131 -1.5203
 6649SOL    HW232007   0.866   4.212   0.147  0.6333 -0.1590 -1.9221
 6650SOL     OW32008   1.210   0.454   4.278  0.8031  0.1051  0.2853
 6650SOL    HW132009   1.301   0.422   4.253  0.4842  0.6347 -1.6647
 6650SOL    HW232010   1.159   0.380   4.321  1.0318 -1.1882 -1.6194
 6651SOL     OW32011   2.414   8.343   7.520  0.6481  0.1813 -0.1768
 6651SOL    HW132012   2.388   8.259   7.567  0.9800 -0.1057 -0.5053
 6651SOL    HW232013   2.443   8.322   7.426  3.2014  0.3368  0.5364
 6652SOL     OW32014   0.760   7.325   9.759 -0.0839  0.3743 -0.5420
 6652SOL    HW132015   0.764   7.419   9.792 -0.6006  0.7360 -1.4833
 6652SOL    HW232016   0.843   7.304   9.707 -0.1433  0.4405 -0.6642
 6653SOL     OW32017   3.676   0.441  10.076  0.0892 -0.1686 -0.1851
 6653SOL    HW132018   3.595   0.462  10.021 -0.7837  1.0399  1.5159
 6653SOL    HW232019   3.756   0.432  10.016 -0.2472  4.1446 -1.4483
 6654SOL     OW32020   6.538   0.966   9.096 -0.9187  0.3514  0.1864
 6654SOL    HW132021   6.453   0.979   9.146 -1.0064 -1.2083  0.4722
 6654SOL    HW232022   6.577   0.877   9.118 -0.3329  0.1290 -1.5970
 6655SOL     OW32023   2.353   1.975   1.998  0.2693  0.6392 -0.1165
 6655SOL    HW132024   2.370   2.065   2.037 -2.8961  1.9434 -1.6248
 6655SOL    HW232025   2.300   1.920   2.063  0.7049  0.4696  0.0970
 6656SOL     OW32026   7.161   0.698   7.036 -0.1436  0.4386 -0.1600
 6656SOL    HW132027   7.163   0.768   7.108  1.4896  0.2762 -0.0167
 6656SOL    HW232028   7.237   0.635   7.050  0.9251  1.1003 -2.7083
 6657SOL     OW32029   0.011   1.223   4.436  0.0715 -0.8451 -0.2409
 6657SOL    HW132030  -0.039   1.297   4.480  0.4265 -1.4265  1.1702
 6657SOL    HW232031  -0.022   1.211   4.342 -0.9774  0.1417 -0.0030
 6658SOL     OW32032   2.488   1.897   8.541 -0.2742  0.0433 -0.3380
 6658SOL    HW132033   2.470   1.993   8.562 -1.0219  0.0488 -0.9942
 6658SOL    HW232034   2.473   1.881   8.444  0.5442 -0.5841 -0.3682
 6659SOL     OW32035   3.321   6.935   8.496 -0.2736  0.3810  0.3234
 6659SOL    HW132036   3.277   6.888   8.420  0.6000  2.2940 -1.4118
 6659SOL    HW232037   3.394   6.994   8.461  0.5741  0.8103  2.7093
 6660SOL     OW32038   0.643   9.502   8.533  0.1308 -0.2093  0.1521
 6660SOL    HW132039   0.615   9.547   8.448 -0.7827  1.3761  1.2640
 6660SOL    HW232040   0.576   9.432   8.557  0.4594 -0.7460 -0.5058
 6661SOL     OW32041   8.019   2.483   2.748  0.1852 -0.0022  0.5889
 6661SOL    HW132042   8.028   2.394   2.702  0.4800  1.6344 -2.6244
 6661SOL    HW232043   8.009   2.468   2.847  3.1817 -3.5019  0.4960
 6662SOL     OW32044   7.290   0.260   7.785  0.3007  0.3989  0.1632
 6662SOL    HW132045   7.261   0.278   7.691  0.5459  1.5354  0.3058
 6662SOL    HW232046   7.243   0.178   7.819 -0.1867  0.2889 -0.7613
 6663SOL     OW32047   6.567   5.266   9.121 -0.1725  0.1581 -0.0076
 6663SOL    HW132048   6.663   5.239   9.131 -0.3189 -0.1189  0.7048
 6663SOL    HW232049   6.549   5.292   9.026 -0.1014 -2.5617 -0.8297
 6664SOL     OW32050   9.658   4.273   4.428 -0.3654 -0.5739  0.4266
 6664SOL    HW132051   9.741   4.264   4.484  0.1046  0.1913 -0.1466
 6664SOL    HW232052   9.595   4.199   4.452 -0.3528 -0.0131  2.2813
 6665SOL     OW32053   2.725   0.272   3.623 -0.2520  0.6812  0.5578
 6665SOL    HW132054   2.724   0.368   3.595 -0.9044  0.5698  0.1829
 6665SOL    HW232055   2.631   0.240   3.635 -0.0311  0.1424  0.8661
 6666SOL     OW32056   2.580   4.069   1.089  0.5882 -0.1233  0.4489
 6666SOL    HW132057   2.571   3.975   1.057  1.1011 -0.5371  1.5011
 6666SOL    HW232058   2.495   4.119   1.072  0.8960 -0.2867 -1.6972
 6667SOL     OW32059   9.049   1.331   5.360 -0.1904  0.2807  0.1173
 6667SOL    HW132060   9.005   1.312   5.447 -1.0855 -1.4359 -0.6795
 6667SOL    HW232061   9.052   1.247   5.305 -1.3412  1.7545 -2.2696
 6668SOL     OW32062   5.357   2.562   8.321  0.2196 -0.2915 -0.1460
 6668SOL    HW132063   5.355   2.615   8.237  2.0881 -1.1358 -0.7587
 6668SOL    HW232064   5.271   2.573   8.370 -0.4431  1.1282 -1.5912
 6669SOL     OW32065   3.238   1.791   1.996 -0.0284 -0.1906  0.1859
 6669SOL    HW132066   3.181   1.740   1.931 -1.0065  2.4908 -1.1270
 6669SOL    HW232067   3.182   1.856   2.046  1.4007  0.4632  0.9667
 6670SOL     OW32068   9.217   4.221   0.928  0.2008 -0.6125  0.0772
 6670SOL    HW132069   9.290   4.177   0.876  0.9727  0.7723 -0.0359
 6670SOL    HW232070   9.137   4.161   0.931  1.2372 -2.0301 -0.0356
 6671SOL     OW32071   0.916   1.736   8.154 -0.1625 -0.0484  0.0061
 6671SOL    HW132072   0.934   1.785   8.069 -1.1278 -0.0730 -0.2195
 6671SOL    HW232073   0.960   1.646   8.151  0.0161  0.0527 -0.3590
 6672SOL     OW32074   8.405   4.986   0.784  0.3019  0.6618 -0.1437
 6672SOL    HW132075   8.492   5.005   0.829  0.4804  0.3574 -0.3634
 6672SOL    HW232076   8.362   5.072   0.757  1.6735  0.7051 -2.2434
 6673SOL     OW32077   2.487   1.833   5.186 -0.3711 -0.2582 -0.1381
 6673SOL    HW132078   2.430   1.792   5.114  1.4872 -0.0206 -1.7655
 6673SOL    HW232079   2.526   1.760   5.243  0.0999 -0.5653 -0.8560
 6674SOL     OW32080   4.011   8.607   1.427  0.1199  0.3986  0.8132
 6674SOL    HW132081   3.937   8.642   1.484  0.9116  2.1649  0.8048
 6674SOL    HW232082   4.035   8.514   1.456 -1.6401  0.0499  1.2246
 6675SOL     OW32083   9.989   2.118   3.478  0.0889  0.4803  0.5244
 6675SOL    HW132084  10.060   2.099   3.547  1.0917 -1.1987 -0.9308
 6675SOL    HW232085   9.974   2.036   3.423  0.6599  2.3417 -2.4776
 6676SOL     OW32086   8.369   6.084   2.166  0.2159  0.2052 -0.4528
 6676SOL    HW132087   8.388   5.986   2.163 -0.5343  0.0317  0.3496
 6676SOL    HW232088   8.287   6.101   2.220  1.4195  1.4474  1.0234
 6677SOL     OW32089   7.367   0.533   4.498  0.0235  0.0942  0.1079
 6677SOL    HW132090   7.387   0.630   4.486  1.1935 -0.1077  0.4139
 6677SOL    HW232091   7.447   0.479   4.474  0.1304 -0.6807  2.1401
 6678SOL     OW32092   8.378   0.397   6.348 -0.1656 -0.3297  0.7108
 6678SOL    HW132093   8.470   0.418   6.381  0.6575 -1.1160 -1.0670
 6678SOL    HW232094   8.342   0.476   6.299  0.5327 -0.8710 -0.6981
 6679SOL     OW32095   2.864   1.707   7.245  0.0360  0.0357  0.4122
 6679SOL    HW132096   2.885   1.645   7.322 -0.2623 -0.5810  0.0016
 6679SOL    HW232097   2.888   1.662   7.159  2.0197  1.3878  0.2066
 6680SOL     OW32098   1.405   0.833   7.469  0.3836 -0.4304  0.3617
 6680SOL    HW132099   1.400   0.924   7.429 -2.4342 -1.3502 -1.5283
 6680SOL    HW232100   1.483   0.783   7.431  0.8486  0.5390  0.0378
 6681SOL     OW32101   1.391   7.318   4.405  0.0636  0.3839  0.1550
 6681SOL    HW132102   1.368   7.372   4.325 -0.1389  1.0685  0.6736
 6681SOL    HW232103   1.457   7.247   4.380 -0.3507  0.3001 -0.7085
 6682SOL     OW32104   0.346   0.164   1.345 -0.4937  0.1776  0.5730
 6682SOL    HW132105   0.382   0.222   1.271  0.0876 -0.2168  0.5446
 6682SOL    HW232106   0.339   0.070   1.313  0.8045 -0.1970  1.3692
 6683SOL     OW32107   2.086   6.289   9.152 -0.2805 -0.6920  0.1827
 6683SOL    HW132108   2.053   6.284   9.058  0.1277  1.3876 -0.0909
 6683SOL    HW232109   2.180   6.255   9.156  0.5219  1.3478 -0.6123
 6684SOL     OW32110   3.873   2.576   0.700  0.5342 -0.4516  0.6920
 6684SOL    HW132111   3.943   2.632   0.745 -0.4329  1.7181 -0.4430
 6684SOL    HW232112   3.803   2.550   0.767 -0.4320  2.0106  0.6911
 6685SOL     OW32113   1.975   3.858   7.250  0.5593  0.4753  0.5686
 6685SOL    HW132114   1.962   3.830   7.155  0.8408  0.2011  0.6094
 6685SOL    HW232115   2.065   3.900   7.261 -0.5866  3.1588  0.1007
 6686SOL     OW32116   5.029   6.094   0.388 -0.3801 -0.1850  0.2419
 6686SOL    HW132117   4.932   6.078   0.408  0.4150 -1.7631  3.1313
 6686SOL    HW232118   5.054   6.047   0.303 -2.3437  1.0783 -1.0772
 6687SOL     OW32119   1.148   6.731   0.523  0.4960  0.5055 -0.2192
 6687SOL    HW132120   1.187   6.796   0.589 -0.2389 -0.5719  1.3105
 6687SOL    HW232121   1.049   6.727   0.535  0.3885  0.1049 -1.2233
 6688SOL     OW32122   8.443   1.771   6.568 -0.4409  0.1974  0.0092
 6688SOL    HW132123   8.444   1.673   6.585 -1.8842  0.0255 -0.8842
 6688SOL    HW232124   8.466   1.789   6.473 -0.1745  0.7388  0.1671
 6689SOL     OW32125   1.256   4.895   0.629  0.6127 -0.2988  0.2528
 6689SOL    HW132126   1.167   4.912   0.588  0.1944  0.4809  1.4538
 6689SOL    HW232127   1.327   4.947   0.581 -0.1975  2.4209  1.9237
 6690SOL     OW32128   2.131   6.649   5.252 -0.2431 -0.1549  0.5525
 6690SOL    HW132129   2.199   6.658   5.325  0.7129  0.4842 -0.3955
 6690SOL    HW232130   2.131   6.732   5.196 -1.7812 -0.1641  0.5026
 6691SOL     OW32131   9.991   3.621   4.970  0.1894 -0.1396 -0.3205
 6691SOL    HW132132  10.085   3.605   5.001 -0.0650 -0.8442  0.1149
 6691SOL    HW232133   9.987   3.618   4.870  0.7519  0.5820 -0.3596
 6692SOL     OW32134   5.245   8.047   2.435 -0.0804  0.2744 -0.1381
 6692SOL    HW132135   5.336   8.082   2.414 -0.5738  1.6438 -0.0385
 6692SOL    HW232136   5.228   8.056   2.533 -0.1612 -0.3791 -0.0900
 6693SOL     OW32137   1.499   3.376   1.882 -0.5673 -0.2836  0.2125
 6693SOL    HW132138   1.531   3.447   1.819 -0.6398 -1.3212 -1.0021
 6693SOL    HW232139   1.408   3.400   1.915  0.0878  1.0222  1.1210
 6694SOL     OW32140   9.229   4.106   8.840  0.5374  0.3541  0.5419
 6694SOL    HW132141   9.263   4.075   8.928 -0.2189  3.0338  1.8345
 6694SOL    HW232142   9.135   4.139   8.850  0.4182  0.6485 -1.2792
 6695SOL     OW32143   3.651   8.111   7.591  0.6289  0.2320  0.5073
 6695SOL    HW132144   3.594   8.039   7.631 -0.6685  0.5579 -0.6983
 6695SOL    HW232145   3.747   8.083   7.593  0.0269 -2.1200 -1.1692
 6696SOL     OW32146   5.260   3.852   8.546 -0.2619  0.8676  0.5469
 6696SOL    HW132147   5.285   3.893   8.458  0.0803  0.8194  0.6206
 6696SOL    HW232148   5.227   3.923   8.608 -1.8789  0.6979 -0.1066
 6697SOL     OW32149   4.457   9.572   7.892 -0.0531 -0.2488 -0.9299
 6697SOL    HW132150   4.372   9.607   7.931 -0.5208 -0.9092 -1.3507
 6697SOL    HW232151   4.440   9.484   7.849  1.0286 -0.8065 -0.2343
 6698SOL     OW32152   2.265   0.919   9.369 -0.1502 -0.7144 -0.7988
 6698SOL    HW132153   2.211   0.839   9.393 -0.7290  0.3827  1.7495
 6698SOL    HW232154   2.362   0.894   9.362 -0.6165 -2.0903 -2.4053
 6699SOL     OW32155   7.859   8.072   6.163 -0.2598  0.0702  0.2363
 6699SOL    HW132156   7.832   8.158   6.121 -1.5521 -0.4595 -0.0590
 6699SOL    HW232157   7.882   8.087   6.259  0.9882  0.9855 -0.1877
 6700SOL     OW32158   6.090   9.640   3.297  0.0845 -0.0546  0.0621
 6700SOL    HW132159   6.040   9.642   3.211 -0.6634  1.3329  0.5150
 6700SOL    HW232160   6.028   9.665   3.372  1.8537  3.7954  0.3882
 6701SOL     OW32161   7.036   3.020   2.278  0.0911 -0.2369 -0.0066
 6701SOL    HW132162   7.035   3.038   2.376  0.8509  0.4721 -0.1242
 6701SOL    HW232163   7.127   2.989   2.250 -0.1160 -0.4135 -0.4858
 6702SOL     OW32164   7.935   8.137   7.750  0.5090  0.4957  0.3879
 6702SOL    HW132165   7.920   8.117   7.653 -0.5998 -1.0994  0.8614
 6702SOL    HW232166   8.012   8.083   7.784  1.2326  1.4550  0.2598
 6703SOL     OW32167   8.892   4.988   2.722 -0.1798  0.1017 -0.0029
 6703SOL    HW132168   8.933   4.930   2.793  2.0806  1.5099 -0.1182
 6703SOL    HW232169   8.815   5.039   2.761 -1.0055 -1.5340  0.5753
 6704SOL     OW32170   8.067   9.648   6.653  0.3716  0.5470  0.3975
 6704SOL    HW132171   8.025   9.558   6.649 -0.4384  0.9445 -0.0812
 6704SOL    HW232172   7.999   9.716   6.679  1.1160  0.9443  1.3620
 6705SOL     OW32173   1.721   7.876   3.916 -0.4435  0.3603  0.2880
 6705SOL    HW132174   1.674   7.929   3.846 -1.7040 -2.4387 -1.0357
 6705SOL    HW232175   1.818   7.867   3.892  0.0971  3.1795  1.2423
 6706SOL     OW32176   2.499   2.064   0.766 -0.0960 -0.2444  0.1917
 6706SOL    HW132177   2.549   1.995   0.714  0.6455  0.0547  0.5087
 6706SOL    HW232178   2.533   2.155   0.744  0.3358 -0.1222  1.3111
 6707SOL     OW32179   0.448   3.633   6.071  0.2670 -0.3495 -0.0458
 6707SOL    HW132180   0.505   3.715   6.072 -0.7878  0.3656  1.6716
 6707SOL    HW232181   0.507   3.552   6.077  1.2154  0.3157 -0.2071
 6708SOL     OW32182   5.281   6.399   1.304  0.7805  0.2660  0.0695
 6708SOL    HW132183   5.352   6.371   1.239 -0.0016  0.1090 -0.7203
 6708SOL    HW232184   5.294   6.495   1.328  2.2262 -0.2009  1.1784
 6709SOL     OW32185   4.675   6.769   8.555 -0.5920 -0.4339  0.1028
 6709SOL    HW132186   4.577   6.751   8.560 -0.9773  1.8349  1.1716
 6709SOL    HW232187   4.693   6.865   8.574  1.8687 -0.8512  0.1120
 6710SOL     OW32188   8.670   3.746   2.091  0.1136  0.2898 -0.1864
 6710SOL    HW132189   8.703   3.663   2.136 -0.3430  0.0564 -0.2920
 6710SOL    HW232190   8.732   3.822   2.114  0.6511 -0.1220 -0.2706
 6711SOL     OW32191   3.024   5.345   6.913  0.0492 -0.1424 -0.3219
 6711SOL    HW132192   3.017   5.297   6.825 -0.5670  0.4071 -0.5759
 6711SOL    HW232193   3.112   5.323   6.956  0.5156 -0.1184 -1.2539
 6712SOL     OW32194   7.228   7.774   5.276  0.2396 -1.1097 -0.1066
 6712SOL    HW132195   7.155   7.715   5.243  0.6964 -1.2485 -0.8963
 6712SOL    HW232196   7.253   7.839   5.204 -1.1648  0.9375  1.1972
 6713SOL     OW32197   3.476   0.877   7.086 -0.4733 -0.4537 -0.0852
 6713SOL    HW132198   3.392   0.874   7.031 -1.0429 -0.5356  0.7890
 6713SOL    HW232199   3.485   0.967   7.128 -1.6669 -1.3720  2.2161
 6714SOL     OW32200   3.138   9.870   9.871 -0.3702  0.0298 -0.6937
 6714SOL    HW132201   3.228   9.827   9.866  0.3917  1.5007  0.0256
 6714SOL    HW232202   3.121   9.923   9.788 -0.7495 -0.5549 -0.9965
 6715SOL     OW32203   7.920   8.300   2.642 -0.5691 -0.1528 -0.0203
 6715SOL    HW132204   7.974   8.310   2.559 -1.2561 -1.3324 -0.6356
 6715SOL    HW232205   7.937   8.377   2.704  0.9360  0.0550 -0.6879
 6716SOL     OW32206   0.307   8.185   6.264 -0.0489  0.2904  0.3438
 6716SOL    HW132207   0.287   8.089   6.248  1.0251  0.0276  0.5000
 6716SOL    HW232208   0.288   8.237   6.181 -0.8653 -0.0205  0.3390
 6717SOL     OW32209   2.384   7.174   3.404  0.0261 -0.0858 -0.2900
 6717SOL    HW132210   2.475   7.174   3.362  2.2572 -0.2543  4.1302
 6717SOL    HW232211   2.370   7.262   3.450 -1.3270 -0.7010  0.4810
 6718SOL     OW32212   9.553   0.890   3.384  0.4485  0.1651 -0.2301
 6718SOL    HW132213   9.636   0.908   3.437  1.4312 -1.2793 -1.2477
 6718SOL    HW232214   9.556   0.941   3.299  1.4861 -1.7723 -1.4001
 6719SOL     OW32215   0.346   0.109   2.337  0.7207 -0.0971 -0.1428
 6719SOL    HW132216   0.324   0.189   2.392 -0.3202  0.0845 -0.8024
 6719SOL    HW232217   0.292   0.031   2.367 -1.4376  0.5249 -2.2224
 6720SOL     OW32218   9.709   8.411   0.061  0.2249 -0.2299  0.2394
 6720SOL    HW132219   9.668   8.501   0.078  1.0003  0.3525 -0.9049
 6720SOL    HW232220   9.809   8.420   0.059  0.2928 -1.0506 -0.1716
 6721SOL     OW32221   2.690   6.078   3.377  0.4699 -0.1048 -0.1166
 6721SOL    HW132222   2.592   6.056   3.378  0.6316 -0.8785 -0.2471
 6721SOL    HW232223   2.739   6.015   3.437  0.9209  0.0928 -0.2731
 6722SOL     OW32224   4.876   6.812   1.076 -0.9468 -0.8465 -0.0766
 6722SOL    HW132225   4.868   6.849   0.984  0.7189 -0.6010 -0.1289
 6722SOL    HW232226   4.842   6.879   1.142  0.2215 -0.0007 -0.3227
 6723SOL     OW32227   0.359   3.928   3.296  0.1341  0.1258 -0.0346
 6723SOL    HW132228   0.384   3.871   3.218 -1.3435  0.6976 -0.9396
 6723SOL    HW232229   0.264   3.910   3.321 -0.6019  2.6917 -0.8082
 6724SOL     OW32230   2.597   6.788   6.209  0.7113  0.1830  0.4180
 6724SOL    HW132231   2.683   6.794   6.159  0.3251 -1.4813 -0.5027
 6724SOL    HW232232   2.606   6.833   6.297  1.7724  2.1426 -0.6564
 6725SOL     OW32233   5.047   6.144   8.992  0.6305  0.3089 -0.6726
 6725SOL    HW132234   4.972   6.092   8.952 -0.5592  0.4866  1.2325
 6725SOL    HW232235   5.015   6.235   9.016  1.4597  0.4091  0.0895
 6726SOL     OW32236   3.150   7.426   2.308 -0.0232  0.5146  0.0519
 6726SOL    HW132237   3.217   7.352   2.315  1.1565  1.5123 -0.5329
 6726SOL    HW232238   3.067   7.392   2.264 -0.2291 -0.9404  1.5258
 6727SOL     OW32239   7.704   3.997   1.201 -0.7201 -0.2011  0.3175
 6727SOL    HW132240   7.652   4.047   1.269 -2.4601  0.6891 -1.6092
 6727SOL    HW232241   7.689   3.899   1.212 -1.9913  0.0012  0.4438
 6728SOL     OW32242   1.483   4.883   5.544 -0.0774  0.7149  0.0524
 6728SOL    HW132243   1.583   4.882   5.549  0.0079  1.9434 -0.9455
 6728SOL    HW232244   1.455   4.867   5.449 -0.8701 -0.8847  0.5502
 6729SOL     OW32245   7.511   6.508   3.021  0.8330 -0.0096  0.1790
 6729SOL    HW132246   7.516   6.501   3.121  0.8383  0.8211  0.2347
 6729SOL    HW232247   7.491   6.417   2.983  0.0812 -0.1914  0.9836
 6730SOL     OW32248   6.646   3.004   2.057 -0.6718 -0.1000 -0.0367
 6730SOL    HW132249   6.581   2.945   2.106 -1.5684  0.0054 -1.0845
 6730SOL    HW232250   6.609   3.026   1.967  1.9437 -2.1132 -1.6666
 6731SOL     OW32251   2.263   5.324   6.615 -0.1129 -0.4475 -0.0544
 6731SOL    HW132252   2.263   5.423   6.632  1.9536 -0.2557 -0.9770
 6731SOL    HW232253   2.201   5.279   6.680 -1.2120  1.4641  0.2571
 6732SOL     OW32254   9.743   2.915   5.664  0.1532 -0.3250  0.3368
 6732SOL    HW132255   9.755   2.817   5.679  0.5293  0.0219  2.3425
 6732SOL    HW232256   9.825   2.964   5.693 -0.1872  0.6426 -0.2882
 6733SOL     OW32257   5.593   5.920   0.249  0.1574  0.3672  0.3122
 6733SOL    HW132258   5.614   5.906   0.346 -0.7088  0.0677  0.4575
 6733SOL    HW232259   5.497   5.898   0.232  0.3242  0.3465 -0.6276
 6734SOL     OW32260   2.214   8.771   4.394 -0.0143  0.0488  0.3740
 6734SOL    HW132261   2.183   8.676   4.393 -0.5365  0.2135  0.3938
 6734SOL    HW232262   2.298   8.779   4.449  0.0435 -0.4042  0.3471
 6735SOL     OW32263   0.665   5.088   0.260  0.1895 -0.7499 -0.4726
 6735SOL    HW132264   0.758   5.094   0.296  0.2319 -1.7890 -0.4054
 6735SOL    HW232265   0.658   5.147   0.179  0.4249  0.6469  0.5089
 6736SOL     OW32266   9.721   7.407   2.650 -0.1427  0.2469 -1.0785
 6736SOL    HW132267   9.790   7.435   2.717 -0.3814  2.1568 -1.6038
 6736SOL    HW232268   9.731   7.310   2.631 -0.2596 -0.4135  1.9497
 6737SOL     OW32269   5.336   7.791   3.184 -0.5066  0.1105 -0.0643
 6737SOL    HW132270   5.261   7.857   3.195  0.6691  1.0869  2.5557
 6737SOL    HW232271   5.410   7.815   3.247  1.8604 -1.0765 -2.3352
 6738SOL     OW32272   2.756   9.063   7.968 -0.3915 -0.1767  0.5627
 6738SOL    HW132273   2.811   9.064   7.885 -1.7722 -0.8404 -0.3847
 6738SOL    HW232274   2.710   9.151   7.979  0.6142  0.2645  1.1766
 6739SOL     OW32275   7.196   7.339   4.705 -0.2328 -0.6871 -0.1290
 6739SOL    HW132276   7.270   7.378   4.649  0.1109  0.4514  1.0787
 6739SOL    HW232277   7.109   7.378   4.676 -0.4737 -2.5583 -2.0260
 6740SOL     OW32278   4.454   2.647   0.812 -0.2602 -0.5105 -0.3062
 6740SOL    HW132279   4.357   2.643   0.789 -0.5170  1.5541  0.3061
 6740SOL    HW232280   4.476   2.573   0.876 -1.9384  0.3295  1.2933
 6741SOL     OW32281   1.461   8.654   2.354 -0.5122 -0.2457  0.2494
 6741SOL    HW132282   1.375   8.604   2.361 -0.6398 -0.0536  0.0556
 6741SOL    HW232283   1.461   8.711   2.272 -1.2784  1.7923  1.6096
 6742SOL     OW32284   5.384   3.510   2.317  0.0185  0.4174 -0.0145
 6742SOL    HW132285   5.425   3.573   2.383  0.7400 -1.2293  1.1443
 6742SOL    HW232286   5.448   3.494   2.242 -0.7147  2.1198 -1.0294
 6743SOL     OW32287   1.041   6.149   1.347 -0.0596  0.3502 -0.3771
 6743SOL    HW132288   1.114   6.215   1.365 -0.1344  0.9759 -2.1886
 6743SOL    HW232289   0.956   6.198   1.325 -1.2004 -0.3673  2.2791
 6744SOL     OW32290   8.635   7.213   8.207 -0.3396  0.3377 -0.5741
 6744SOL    HW132291   8.665   7.303   8.241 -1.5965  0.9961 -1.1665
 6744SOL    HW232292   8.706   7.145   8.227  0.0487  1.1919  1.0791
 6745SOL     OW32293   2.685   4.021   5.429  0.1643 -0.2542 -0.0230
 6745SOL    HW132294   2.668   4.069   5.515 -0.0849 -1.1870  0.4483
 6745SOL    HW232295   2.598   4.008   5.380  0.2257 -0.2660 -0.1299
 6746SOL     OW32296   4.923   6.939   8.969  0.1050 -0.0929  0.0738
 6746SOL    HW132297   5.005   6.895   9.007  0.0497  0.3494  0.7059
 6746SOL    HW232298   4.857   6.955   9.042  0.1155  1.0329 -0.1559
 6747SOL     OW32299   0.802   4.917   8.641  0.1825 -0.4019  0.4781
 6747SOL    HW132300   0.748   4.865   8.575 -0.7882  0.4318  0.5880
 6747SOL    HW232301   0.767   4.900   8.733  0.5869 -0.4375  0.6238
 6748SOL     OW32302   0.782   5.666   5.124  0.3456 -0.1109  0.1254
 6748SOL    HW132303   0.720   5.662   5.203  2.0811  1.5817  1.6356
 6748SOL    HW232304   0.841   5.585   5.124 -0.9140 -1.0438 -0.5278
 6749SOL     OW32305   3.152  -0.002   8.040  0.1501 -0.0283  0.3846
 6749SOL    HW132306   3.080   0.038   7.983  1.2731  1.2035 -0.1777
 6749SOL    HW232307   3.239   0.044   8.022  1.3514 -2.2832  0.1834
 6750SOL     OW32308   2.455   2.973   0.599 -0.4166 -0.2747  0.1990
 6750SOL    HW132309   2.518   2.901   0.568 -0.2426 -1.2241  2.6768
 6750SOL    HW232310   2.508   3.051   0.631 -0.5412 -0.3487  0.5823
 6751SOL     OW32311   1.765   8.483   9.885  0.5019 -0.0833  0.4556
 6751SOL    HW132312   1.799   8.470   9.979  1.0849  1.8726  0.5437
 6751SOL    HW232313   1.719   8.572   9.879 -1.6733 -1.2478 -0.5290
 6752SOL     OW32314   7.843   2.023   9.346  0.2288 -0.1073  0.0693
 6752SOL    HW132315   7.783   1.963   9.399  0.0573 -0.0886 -0.1052
 6752SOL    HW232316   7.939   2.001   9.366  0.1707 -0.8809 -0.4980
 6753SOL     OW32317   4.183   4.569   4.555 -0.6685 -0.1876 -0.6752
 6753SOL    HW132318   4.247   4.504   4.595  0.1725  0.2774 -1.2408
 6753SOL    HW232319   4.234   4.638   4.503 -1.6441  0.0488 -1.3325
 6754SOL     OW32320   1.390   9.294   0.449 -0.4737 -0.3146 -0.2384
 6754SOL    HW132321   1.461   9.362   0.466  0.5377 -1.2253 -0.7761
 6754SOL    HW232322   1.350   9.265   0.536 -1.8855  1.9654 -0.0837
 6755SOL     OW32323   4.088   7.743   1.105  0.4491  0.3204 -0.8656
 6755SOL    HW132324   4.114   7.667   1.165  0.2588  1.0088  0.1007
 6755SOL    HW232325   4.150   7.746   1.026  1.4172  0.1156 -0.1207
 6756SOL     OW32326   4.534   7.181   2.831 -0.2904  0.4320 -0.0855
 6756SOL    HW132327   4.583   7.101   2.867 -0.5590 -0.4952 -1.7661
 6756SOL    HW232328   4.533   7.253   2.901  2.1517 -0.0897  0.5259
 6757SOL     OW32329   8.756   6.101   2.792  0.4006  0.2309 -0.4230
 6757SOL    HW132330   8.801   6.057   2.715 -1.5070 -0.5044 -1.1586
 6757SOL    HW232331   8.787   6.059   2.877  0.5293 -0.7832 -0.9630
 6758SOL     OW32332   6.801   7.213   4.772 -0.0326 -0.0729 -0.0911
 6758SOL    HW132333   6.746   7.296   4.785  0.6154  0.3668 -0.1302
 6758SOL    HW232334   6.790   7.180   4.679 -0.6078 -0.2597  0.0415
 6759SOL     OW32335   8.174   3.093   0.683 -0.1304 -0.0527  0.7018
 6759SOL    HW132336   8.115   3.020   0.648  0.7150  0.0199 -0.8877
 6759SOL    HW232337   8.154   3.178   0.634  1.9798 -0.2544 -0.5516
 6760SOL     OW32338   9.649   5.759   1.165  0.1335 -0.3397  0.3804
 6760SOL    HW132339   9.646   5.788   1.261  0.1175  3.5144 -0.7039
 6760SOL    HW232340   9.744   5.758   1.134  0.1369 -1.5764  0.4220
 6761SOL     OW32341   0.596   9.967   0.631 -0.0972 -0.0115  0.2859
 6761SOL    HW132342   0.673   9.911   0.659 -0.6137 -1.3858 -0.9629
 6761SOL    HW232343   0.629  10.045   0.577  0.3951 -0.9227 -0.7615
 6762SOL     OW32344   8.916   7.909   0.814  0.2161 -0.6731  0.1980
 6762SOL    HW132345   8.888   8.005   0.805 -1.5078 -1.2008 -0.3075
 6762SOL    HW232346   8.914   7.865   0.725  1.8192 -0.9755  0.3059
 6763SOL     OW32347   1.638   3.883   0.142  0.0402  0.1646 -0.0040
 6763SOL    HW132348   1.540   3.899   0.144 -0.2695 -1.5165 -0.5728
 6763SOL    HW232349   1.665   3.830   0.222 -0.0838 -2.2370 -1.5067
 6764SOL     OW32350   8.655   7.565   6.131 -0.3993  0.1487 -0.1750
 6764SOL    HW132351   8.651   7.544   6.228 -1.2011  0.0180 -0.2287
 6764SOL    HW232352   8.710   7.495   6.084  0.2398  0.3798  0.2234
 6765SOL     OW32353   1.656   1.821   8.928 -0.1268 -0.1189  0.0871
 6765SOL    HW132354   1.750   1.847   8.951 -0.0143 -0.6998  0.3061
 6765SOL    HW232355   1.657   1.761   8.848 -0.3878  0.5911 -0.4572
 6766SOL     OW32356   6.046   4.439   8.579 -0.0950  0.4415  0.0533
 6766SOL    HW132357   6.009   4.483   8.497  1.2159  3.5283  1.0405
 6766SOL    HW232358   5.972   4.401   8.634 -1.1819  0.6110 -1.2713
 6767SOL     OW32359   7.888   4.226   0.860  0.5600 -0.0635 -0.1317
 6767SOL    HW132360   7.808   4.227   0.920  0.1720  1.8573 -0.6401
 6767SOL    HW232361   7.859   4.221   0.765  1.0156  0.9607 -0.3341
 6768SOL     OW32362   2.284   4.333   8.519 -0.1354  0.0773 -0.6798
 6768SOL    HW132363   2.221   4.297   8.588  0.1291  0.9057 -0.0033
 6768SOL    HW232364   2.245   4.416   8.479 -0.2096 -0.3051 -1.4144
 6769SOL     OW32365   7.502   7.507   3.731 -0.5432 -0.5224  0.1380
 6769SOL    HW132366   7.596   7.538   3.719 -0.7956  0.2434  0.1071
 6769SOL    HW232367   7.500   7.407   3.739  0.0544 -0.7610 -2.2491
 6770SOL     OW32368   0.060   4.010   7.080 -0.6793  0.0335 -0.2334
 6770SOL    HW132369  -0.024   3.958   7.097  0.1769 -1.0159  0.8470
 6770SOL    HW232370   0.126   3.993   7.154 -0.1395  2.1540 -0.2094
 6771SOL     OW32371   7.175   5.449   7.912  0.3882  0.1575  0.3254
 6771SOL    HW132372   7.252   5.489   7.961  0.8129 -1.5424  1.0919
 6771SOL    HW232373   7.127   5.520   7.860  1.3114  1.5630  1.3736
 6772SOL     OW32374   8.953   0.603   7.764  0.3516  0.0651 -0.0493
 6772SOL    HW132375   8.981   0.605   7.668 -0.8635  1.0436 -0.3942
 6772SOL    HW232376   8.862   0.564   7.772  0.4472 -0.0222  0.7111
 6773SOL     OW32377   0.912   2.756   3.447 -0.2938  0.6141  0.3233
 6773SOL    HW132378   0.870   2.732   3.360 -0.3845  0.5334  0.3896
 6773SOL    HW232379   0.853   2.820   3.496 -0.6009  0.0744  0.6597
 6774SOL     OW32380   9.665   5.336   2.489 -0.0022  0.0661 -0.2633
 6774SOL    HW132381   9.638   5.414   2.432 -1.1678 -0.3262 -0.2428
 6774SOL    HW232382   9.685   5.367   2.581  0.8373  0.5402 -0.5977
 6775SOL     OW32383   8.241   2.111   3.821 -0.9942 -0.2757 -0.1376
 6775SOL    HW132384   8.293   2.197   3.821 -2.6429  0.7450 -1.9739
 6775SOL    HW232385   8.304   2.034   3.808  0.3600  0.7240  0.3719
 6776SOL     OW32386   1.653   3.982   3.482 -0.2683 -0.7399  0.2263
 6776SOL    HW132387   1.716   3.978   3.560 -1.7331  0.8811  1.5273
 6776SOL    HW232388   1.626   4.077   3.466 -0.6459 -1.1562 -1.7403
 6777SOL     OW32389   6.666   7.814   3.948 -0.2835 -0.0425 -0.2396
 6777SOL    HW132390   6.624   7.876   4.014 -1.5512 -0.1909 -0.9032
 6777SOL    HW232391   6.666   7.721   3.985 -3.0154 -0.5172 -1.3357
 6778SOL     OW32392   6.159   1.444   1.893 -0.1748  0.1665 -0.4019
 6778SOL    HW132393   6.149   1.492   1.981 -0.2886 -0.4385 -0.0791
 6778SOL    HW232394   6.152   1.510   1.818 -1.4079  0.5103 -0.0035
 6779SOL     OW32395   1.664   6.787   8.344 -0.2332 -0.1451  0.3287
 6779SOL    HW132396   1.636   6.749   8.256  0.3523 -0.9494  0.4755
 6779SOL    HW232397   1.715   6.718   8.396 -0.6317  0.2935  1.3300
 6780SOL     OW32398   3.119   0.243   7.602  0.0879 -0.1493  0.5456
 6780SOL    HW132399   3.175   0.248   7.520  0.3417 -2.1417  0.5804
 6780SOL    HW232400   3.024   0.223   7.577  0.4675 -2.3870  0.8082
 6781SOL     OW32401   4.607   6.298   0.535  0.9364  0.0114 -0.0414
 6781SOL    HW132402   4.701   6.323   0.554  0.7860  1.8697 -1.5554
 6781SOL    HW232403   4.604   6.239   0.453  0.7831 -0.0861  0.0333
 6782SOL     OW32404   6.047   1.709   8.914 -0.1922 -0.1499 -0.4772
 6782SOL    HW132405   6.111   1.632   8.907 -0.5130 -0.3661 -1.0276
 6782SOL    HW232406   6.060   1.755   9.002 -1.4147 -2.1043  0.7476
 6783SOL     OW32407   3.191   2.671   5.561  0.0199  0.3614 -0.4839
 6783SOL    HW132408   3.098   2.707   5.557  0.1745  0.6017 -2.3755
 6783SOL    HW232409   3.256   2.747   5.562  0.2200  0.1875  0.4673
 6784SOL     OW32410   6.968   1.301   7.489 -0.9985  0.8208 -0.2439
 6784SOL    HW132411   6.949   1.232   7.560  0.6875 -0.7021 -1.2475
 6784SOL    HW232412   6.884   1.319   7.437 -1.2809 -1.0010 -0.4343
 6785SOL     OW32413   8.099   0.202   6.381  0.7990  0.4844  0.0396
 6785SOL    HW132414   8.086   0.128   6.446  2.0246 -2.0897 -2.5387
 6785SOL    HW232415   8.197   0.216   6.366  0.5661  2.0842 -0.1364
 6786SOL     OW32416   3.715   8.305   5.926  0.2464 -0.5808 -0.1675
 6786SOL    HW132417   3.758   8.394   5.942  2.1990 -1.2993 -1.1636
 6786SOL    HW232418   3.645   8.288   5.995 -0.2779  1.7928 -0.0681
 6787SOL     OW32419   4.473   8.868   0.909 -0.1205  0.1925  0.4709
 6787SOL    HW132420   4.455   8.793   0.973  1.5779  0.4045  1.2199
 6787SOL    HW232421   4.571   8.873   0.890 -0.2510  2.0313  0.1928
 6788SOL     OW32422   6.435   3.660   9.323 -0.0030 -0.5442 -0.0503
 6788SOL    HW132423   6.503   3.704   9.265  1.1609  1.2963  2.6474
 6788SOL    HW232424   6.470   3.571   9.353 -0.0986 -0.9581 -1.1382
 6789SOL     OW32425   1.216   0.653   1.945 -0.4332 -0.0199 -0.1973
 6789SOL    HW132426   1.154   0.629   1.870 -2.0979  1.0423  0.8311
 6789SOL    HW232427   1.260   0.741   1.925  1.7259 -1.3505 -1.5083
 6790SOL     OW32428   5.301   6.342   8.764 -0.0953  0.1746 -0.1113
 6790SOL    HW132429   5.324   6.409   8.694 -2.4690 -0.4281 -1.5503
 6790SOL    HW232430   5.283   6.388   8.851  3.1186  0.9146  0.2110
 6791SOL     OW32431   2.040   7.311   2.032 -0.1304 -0.0423  0.4431
 6791SOL    HW132432   2.003   7.310   1.939  0.8684 -0.2312  0.0425
 6791SOL    HW232433   2.010   7.228   2.080  0.9830 -0.9194 -0.3641
 6792SOL     OW32434   1.472   0.403   6.792 -0.4021 -0.4615  0.4496
 6792SOL    HW132435   1.433   0.352   6.869 -0.1942 -0.0865  0.8029
 6792SOL    HW232436   1.398   0.442   6.738 -0.5383 -0.3117  0.7418
 6793SOL     OW32437   1.022   4.504   6.578  0.3525 -0.0812 -0.0467
 6793SOL    HW132438   0.934   4.513   6.532  0.8836  1.3414 -0.8335
 6793SOL    HW232439   1.008   4.471   6.671 -0.7337 -3.1278 -1.2348
 6794SOL     OW32440   6.095   3.689   9.857  0.3748 -0.3298 -0.1780
 6794SOL    HW132441   6.170   3.754   9.848  0.8287 -0.8699 -0.3175
 6794SOL    HW232442   6.120   3.602   9.814 -0.4427 -0.4177 -0.4844
 6795SOL     OW32443   2.711   0.043   3.450 -0.7412 -0.2814 -0.0356
 6795SOL    HW132444   2.728   0.130   3.496 -0.3494 -0.8623  0.9336
 6795SOL    HW232445   2.766  -0.029   3.492 -0.5165 -0.8713 -1.3000
 6796SOL     OW32446   1.115   6.171   1.613  0.4195 -0.1335  0.3513
 6796SOL    HW132447   1.101   6.136   1.521  2.6472 -0.3644  0.0550
 6796SOL    HW232448   1.132   6.095   1.675 -0.0422  0.0902  0.7541
 6797SOL     OW32449   8.029   9.424   1.619  0.0861  0.2674  0.0494
 6797SOL    HW132450   8.034   9.340   1.566  0.3191  0.8297 -0.8179
 6797SOL    HW232451   8.102   9.487   1.591  0.4046  0.4500  1.2372
 6798SOL     OW32452   8.782   5.650   7.017  0.3430  0.6842 -0.4301
 6798SOL    HW132453   8.726   5.568   7.031 -0.3422  0.9924 -1.2625
 6798SOL    HW232454   8.738   5.708   6.948  2.2772  0.3995 -1.9394
 6799SOL     OW32455   8.196   1.426   2.898  0.3811  0.5047 -0.5237
 6799SOL    HW132456   8.148   1.384   2.821  1.5298  0.8013 -1.4252
 6799SOL    HW232457   8.154   1.514   2.920  0.1132  0.4661 -0.8767
 6800SOL     OW32458   1.937   2.537   0.759 -0.4445  0.2600 -0.0011
 6800SOL    HW132459   1.891   2.591   0.687  0.3485  2.5864  1.1871
 6800SOL    HW232460   1.870   2.478   0.804 -1.2174 -0.2219 -1.7416
 6801SOL     OW32461   7.073   0.785  10.064 -0.2871 -0.3448  0.3365
 6801SOL    HW132462   6.983   0.797  10.022  0.8020  0.4974 -1.8181
 6801SOL    HW232463   7.073   0.829  10.154 -1.9524 -0.1644  0.2704
 6802SOL     OW32464   4.521   2.615   8.858  0.2497 -0.2901 -0.1105
 6802SOL    HW132465   4.486   2.586   8.769 -0.6897 -0.4234  0.3008
 6802SOL    HW232466   4.621   2.622   8.854  0.1581  0.3556 -1.3626
 6803SOL     OW32467   3.089   5.669   6.488  0.4760  0.3464  0.2425
 6803SOL    HW132468   3.144   5.602   6.439 -0.6077 -0.9635  0.7894
 6803SOL    HW232469   3.017   5.703   6.428 -2.3882 -3.0648  1.5296
 6804SOL     OW32470   2.958   4.298   1.881  0.5247  0.2059 -0.3751
 6804SOL    HW132471   2.859   4.285   1.887  0.6955 -1.2882 -0.5793
 6804SOL    HW232472   2.980   4.393   1.903 -1.2136  1.3490 -3.2901
 6805SOL     OW32473   9.700   9.513   8.276  0.1951  0.2068 -0.2594
 6805SOL    HW132474   9.767   9.574   8.317 -0.7327  1.1424 -0.1008
 6805SOL    HW232475   9.633   9.567   8.225 -0.6341 -0.6763 -0.1162
 6806SOL     OW32476   9.736   2.046   9.858 -0.1296 -0.3381 -0.6092
 6806SOL    HW132477   9.684   2.115   9.909  2.9072  0.3601  1.6805
 6806SOL    HW232478   9.777   2.088   9.777  0.3401  0.1703 -0.1145
 6807SOL     OW32479   6.418   4.100   9.464  0.1181  0.0591  0.4377
 6807SOL    HW132480   6.440   4.197   9.469 -0.5574  0.1777  1.1280
 6807SOL    HW232481   6.322   4.089   9.439  0.2662 -0.4345  0.0852
 6808SOL     OW32482   2.224   5.994   2.059 -0.0071 -0.0610  0.1208
 6808SOL    HW132483   2.177   6.065   2.112  0.7552  0.6148 -0.0960
 6808SOL    HW232484   2.202   6.006   1.962  0.8186  0.4171 -0.0092
 6809SOL     OW32485   2.636   4.439   5.584  0.0453 -0.0142  0.3961
 6809SOL    HW132486   2.555   4.420   5.639 -0.1582  0.4835  0.2648
 6809SOL    HW232487   2.701   4.363   5.593 -0.0943 -0.0459  1.1301
 6810SOL     OW32488   9.057   5.837   2.961 -0.4411 -0.1832 -0.0363
 6810SOL    HW132489   9.003   5.831   2.877  1.8455 -0.6354 -1.5122
 6810SOL    HW232490   9.143   5.883   2.942  0.6202 -1.3371  1.8134
 6811SOL     OW32491   1.804   3.841   8.966 -0.4853 -0.5492 -0.5585
 6811SOL    HW132492   1.765   3.924   8.926  1.1659 -0.4638 -2.0732
 6811SOL    HW232493   1.755   3.818   9.050 -1.5054  1.4808 -0.5607
 6812SOL     OW32494   0.221   0.078   3.336  0.1132 -0.5771 -0.3013
 6812SOL    HW132495   0.204   0.136   3.415  0.9787 -1.2119  0.3605
 6812SOL    HW232496   0.307   0.105   3.292  0.0200 -0.7194 -0.5745
 6813SOL     OW32497   4.399   7.837   5.007 -0.7135 -0.1855  0.3847
 6813SOL    HW132498   4.433   7.758   5.059  0.7388 -0.2322 -0.6147
 6813SOL    HW232499   4.302   7.849   5.026 -0.4640 -0.8646  2.2653
 6814SOL     OW32500   2.514   7.947   0.301  0.3697 -0.4297  0.6488
 6814SOL    HW132501   2.578   7.924   0.228 -0.2070  0.3882 -0.1225
 6814SOL    HW232502   2.473   7.863   0.337  1.7582 -0.9396  1.0529
 6815SOL     OW32503   9.380   3.664   5.269 -0.1199  0.1589 -0.0196
 6815SOL    HW132504   9.288   3.665   5.306  0.0810 -2.6166  0.6641
 6815SOL    HW232505   9.376   3.654   5.170 -0.5347  0.3912 -0.0285
 6816SOL     OW32506   1.693   8.822   2.700  0.4795 -0.3299 -0.5468
 6816SOL    HW132507   1.709   8.746   2.636  2.7592 -0.2010 -0.1614
 6816SOL    HW232508   1.768   8.888   2.693  0.1224  0.3028  1.3725
 6817SOL     OW32509   9.642   1.828   4.315  0.3257 -0.4540  0.6672
 6817SOL    HW132510   9.560   1.800   4.365  0.6645  0.6356  1.8720
 6817SOL    HW232511   9.638   1.795   4.221 -0.7384 -1.7983  1.1796
 6818SOL     OW32512   3.709   7.806   9.570  0.1513  0.3431  0.1986
 6818SOL    HW132513   3.765   7.754   9.506  0.5181  0.6112  0.2989
 6818SOL    HW232514   3.646   7.865   9.518 -0.5640 -0.5103  0.0849
 6819SOL     OW32515   8.221   0.259   4.501  0.2493 -0.1877  0.7051
 6819SOL    HW132516   8.291   0.201   4.461 -0.6868 -0.7325 -0.1444
 6819SOL    HW232517   8.131   0.229   4.471 -0.2189  2.0435 -0.2258
 6820SOL     OW32518   1.995   9.867   2.005  0.3518  0.8534 -0.4247
 6820SOL    HW132519   1.898   9.874   1.984  0.1721  1.0606  0.4336
 6820SOL    HW232520   2.049   9.897   1.927 -0.2580 -0.2488 -1.2798
 6821SOL     OW32521   5.905   7.908   7.143  0.4549 -0.3606  0.5197
 6821SOL    HW132522   5.874   8.003   7.153  0.0237 -0.4027 -0.3474
 6821SOL    HW232523   5.827   7.850   7.117 -0.0818 -1.6282  4.6378
 6822SOL     OW32524   1.949   5.293   5.773  0.1847 -0.6908 -0.3627
 6822SOL    HW132525   1.943   5.217   5.839 -0.8263 -0.0438  0.3118
 6822SOL    HW232526   2.043   5.326   5.768  0.2323 -0.6264  0.8922
 6823SOL     OW32527   4.710   6.604   1.784 -0.3008  1.1776  0.2334
 6823SOL    HW132528   4.679   6.606   1.879 -0.9322 -0.7975  0.0918
 6823SOL    HW232529   4.808   6.582   1.781 -0.7511 -1.0131  0.3807
 6824SOL     OW32530   3.407   7.119   9.948  0.7081  0.0288  0.5688
 6824SOL    HW132531   3.475   7.088  10.015 -0.3461  1.7236  2.4745
 6824SOL    HW232532   3.318   7.128   9.992  0.3014  2.6046 -0.6705
 6825SOL     OW32533   8.517   4.945   1.814  0.0160  0.3755 -0.4295
 6825SOL    HW132534   8.510   5.033   1.767 -0.4573  2.0395  2.6447
 6825SOL    HW232535   8.607   4.937   1.857 -0.9996  0.6805  1.7888
 6826SOL     OW32536   2.988   4.345   4.229 -0.0195 -0.7811  0.3514
 6826SOL    HW132537   2.910   4.325   4.170 -0.3138  2.5048 -0.4390
 6826SOL    HW232538   3.062   4.280   4.208 -1.1338 -1.4628 -1.6093
 6827SOL     OW32539   9.191   2.763   3.162 -0.1885 -0.7230  0.0864
 6827SOL    HW132540   9.289   2.760   3.179 -0.2082  0.0051  0.3548
 6827SOL    HW232541   9.142   2.763   3.249 -0.3902  0.0207 -0.0264
 6828SOL     OW32542   3.317   0.095   0.117  0.0107  0.3321  0.0798
 6828SOL    HW132543   3.358   0.074   0.028 -2.6504  0.0719 -1.1333
 6828SOL    HW232544   3.297   0.010   0.165 -0.1606  0.4256  0.1738
 6829SOL     OW32545   6.953   5.096   7.629 -0.2154 -0.0906  0.2120
 6829SOL    HW132546   6.888   5.132   7.562 -1.4141 -1.1082  0.7960
 6829SOL    HW232547   6.966   5.163   7.702 -0.4823  0.1860  0.0094
 6830SOL     OW32548   2.532   1.361   3.734 -0.0362  0.3437 -0.1053
 6830SOL    HW132549   2.524   1.421   3.654 -1.2245  0.7703  0.3213
 6830SOL    HW232550   2.522   1.415   3.817 -1.9065 -0.5460  0.2662
 6831SOL     OW32551   3.497   7.350   7.227  0.0728 -0.0420 -0.2461
 6831SOL    HW132552   3.552   7.277   7.268 -0.3126 -0.1115  0.1562
 6831SOL    HW232553   3.446   7.397   7.299 -0.2528  0.1380 -0.5932
 6832SOL     OW32554   3.887   1.525  10.015 -0.3515  0.0216 -0.1186
 6832SOL    HW132555   3.960   1.572   9.965  0.0387 -0.7182 -0.2392
 6832SOL    HW232556   3.923   1.488  10.100 -1.1208  1.6984  0.9780
 6833SOL     OW32557   1.259   7.978   4.808 -0.5185 -0.3100 -0.2994
 6833SOL    HW132558   1.216   8.061   4.773  0.6279  0.0801 -0.8188
 6833SOL    HW232559   1.291   7.922   4.731 -3.7578 -2.6227 -0.0688
 6834SOL     OW32560   7.588   2.501   4.446  0.2143 -0.1452 -0.2418
 6834SOL    HW132561   7.558   2.551   4.527  0.0974 -2.2686  1.0705
 6834SOL    HW232562   7.638   2.562   4.385 -1.8710  2.0786  0.2345
 6835SOL     OW32563   8.423   2.579   9.017  0.0707  0.0330 -0.2759
 6835SOL    HW132564   8.504   2.542   8.970  1.0418 -0.6610  1.9082
 6835SOL    HW232565   8.408   2.530   9.102 -1.8208  1.1327  0.0543
 6836SOL     OW32566   3.712   0.698   2.167 -0.2211  0.1338  0.0751
 6836SOL    HW132567   3.725   0.615   2.221  0.2477  0.3342  0.2750
 6836SOL    HW232568   3.695   0.673   2.071  0.7062 -0.1761 -0.0119
 6837SOL     OW32569   3.283   5.718   6.782  0.1644  0.1689  0.1585
 6837SOL    HW132570   3.226   5.732   6.701  0.4473 -0.2824 -0.1226
 6837SOL    HW232571   3.256   5.782   6.854 -1.0378 -0.3780  0.2102
 6838SOL     OW32572   6.051   3.977   1.125  0.2477  0.5709  0.0475
 6838SOL    HW132573   6.057   4.070   1.161 -1.5065  1.1502 -1.1066
 6838SOL    HW232574   6.043   3.981   1.025  1.0500 -0.8546 -0.0823
 6839SOL     OW32575   5.532   1.946   7.975  0.0415  0.3302  0.2484
 6839SOL    HW132576   5.618   1.937   8.025  0.0679  0.1752  0.1746
 6839SOL    HW232577   5.464   1.885   8.014  0.4588 -0.8195 -0.7755
 6840SOL     OW32578   6.426   3.920   2.365 -0.3425  0.3346  0.2386
 6840SOL    HW132579   6.425   3.820   2.367 -1.5118  0.3439  3.1184
 6840SOL    HW232580   6.478   3.954   2.444  1.6781  2.0218 -1.7572
 6841SOL     OW32581   9.716   8.182   2.264  0.0985  0.5978 -0.8465
 6841SOL    HW132582   9.773   8.108   2.298 -1.2752 -0.2843 -0.4346
 6841SOL    HW232583   9.728   8.263   2.321 -0.3039 -0.0940  0.2337
 6842SOL     OW32584   2.750   5.274   6.521  0.5854  0.3697 -0.2527
 6842SOL    HW132585   2.818   5.212   6.561 -1.8812 -0.8316  2.2207
 6842SOL    HW232586   2.763   5.366   6.557 -1.4555 -0.6543  3.2747
 6843SOL     OW32587   0.600   3.577   4.217 -0.4549  0.0160  0.1173
 6843SOL    HW132588   0.660   3.604   4.292 -0.3942 -0.1798  0.1403
 6843SOL    HW232589   0.621   3.632   4.136 -0.1971 -0.0993  0.1049
 6844SOL     OW32590   2.413   5.618   7.751  0.0268 -0.1638 -0.0278
 6844SOL    HW132591   2.327   5.655   7.715 -0.1774 -1.5987 -1.0755
 6844SOL    HW232592   2.416   5.630   7.850 -0.3778  1.9062 -0.2467
 6845SOL     OW32593   2.101   5.441   5.202 -0.0472  0.5705 -0.4840
 6845SOL    HW132594   2.072   5.413   5.111  0.4778  0.5990 -0.6615
 6845SOL    HW232595   2.131   5.360   5.253  0.3599  0.6568 -0.5907
 6846SOL     OW32596   0.744   6.721   2.502  0.5384  0.8465 -0.1240
 6846SOL    HW132597   0.655   6.699   2.540  1.4288 -1.0354  0.9441
 6846SOL    HW232598   0.787   6.792   2.559  0.1411  1.0488 -0.0719
 6847SOL     OW32599   4.739   8.136   3.415  0.6488  0.3680  0.0555
 6847SOL    HW132600   4.787   8.096   3.493  1.2146  0.6702 -0.1348
 6847SOL    HW232601   4.680   8.210   3.447 -1.8439 -1.8009  0.6670
 6848SOL     OW32602   4.270   3.057   4.500 -0.1915  0.2202  0.1339
 6848SOL    HW132603   4.340   3.043   4.569  0.8022  1.8385 -0.5072
 6848SOL    HW232604   4.210   3.133   4.527 -0.0932  0.5447 -0.5474
 6849SOL     OW32605   8.269   7.300   3.111  0.4645  0.3821  0.2403
 6849SOL    HW132606   8.212   7.257   3.041 -1.6606  2.6930  0.4699
 6849SOL    HW232607   8.260   7.249   3.197  0.0168 -0.1943 -0.1455
 6850SOL     OW32608   4.764   0.278   9.248 -0.3516  0.3835  0.6833
 6850SOL    HW132609   4.766   0.378   9.240  0.5017  0.4411  1.5267
 6850SOL    HW232610   4.723   0.253   9.336 -0.6684 -0.0150  0.4237
 6851SOL     OW32611   7.741   0.573   7.233 -0.2547  0.6760 -1.0580
 6851SOL    HW132612   7.673   0.500   7.232  0.1128  0.2657  1.5014
 6851SOL    HW232613   7.788   0.575   7.321  1.1506  2.7194 -1.7956
 6852SOL     OW32614   1.392   0.837   4.689 -0.1843  0.1191  0.9217
 6852SOL    HW132615   1.353   0.755   4.646 -1.5170 -0.0303  2.3688
 6852SOL    HW232616   1.396   0.825   4.788  0.7277  1.3437  1.0527
 6853SOL     OW32617   1.604   3.986   5.900  0.8449  0.0449 -0.4487
 6853SOL    HW132618   1.613   4.029   5.990 -1.0406 -1.1572  0.3522
 6853SOL    HW232619   1.592   4.057   5.830 -0.2472  0.9208  0.6020
 6854SOL     OW32620   7.651   2.690   9.512 -0.3318 -0.2724 -0.4685
 6854SOL    HW132621   7.731   2.652   9.558  0.5179  0.3953 -1.3487
 6854SOL    HW232622   7.650   2.658   9.417  0.6387  2.1730 -1.3450
 6855SOL     OW32623   6.930   3.531   9.664  0.0686  0.5168  0.3525
 6855SOL    HW132624   6.868   3.588   9.610  0.1511  0.6609  0.4078
 6855SOL    HW232625   6.971   3.587   9.737 -0.5101  0.1785  0.9441
 6856SOL     OW32626   8.905   6.023   9.110  0.3653 -0.3564 -0.1075
 6856SOL    HW132627   8.970   6.038   9.035 -2.0284 -1.3651 -2.4962
 6856SOL    HW232628   8.858   6.109   9.132 -0.0695 -0.3764 -0.9207
 6857SOL     OW32629   2.241   4.612   4.816  0.4374  0.0754  0.3317
 6857SOL    HW132630   2.189   4.647   4.738  1.0474 -0.7601 -0.4647
 6857SOL    HW232631   2.224   4.513   4.825 -0.9822  0.4686  2.3219
 6858SOL     OW32632   8.993   7.234   2.490  0.1071  0.3119 -0.6848
 6858SOL    HW132633   8.970   7.269   2.581  0.3901 -0.0831 -0.4601
 6858SOL    HW232634   9.048   7.301   2.441  0.6926  0.1679 -0.2356
 6859SOL     OW32635   6.780   0.494   6.735  0.1763 -0.2305  0.6516
 6859SOL    HW132636   6.875   0.484   6.764  0.7770  1.2794 -0.6897
 6859SOL    HW232637   6.755   0.418   6.675  1.3806  0.6879 -1.0640
 6860SOL     OW32638   4.630   2.213   4.673  0.3212 -0.1142 -0.0071
 6860SOL    HW132639   4.675   2.189   4.587  2.0998  1.4435  0.4507
 6860SOL    HW232640   4.679   2.171   4.749 -1.0000 -1.1435  0.2949
 6861SOL     OW32641   0.337   6.182   1.801 -0.0506 -0.6286  0.0010
 6861SOL    HW132642   0.382   6.223   1.721 -1.7575  2.4746  0.5305
 6861SOL    HW232643   0.238   6.196   1.793 -0.3233 -1.2300  2.1601
 6862SOL     OW32644   3.450   3.225   0.591 -0.0436 -0.0648  0.2101
 6862SOL    HW132645   3.363   3.221   0.542  1.5331 -1.1695 -2.5735
 6862SOL    HW232646   3.491   3.316   0.579  0.2116 -0.2452 -0.2799
 6863SOL     OW32647   0.519   2.603   2.076  0.1664 -0.2019 -0.1422
 6863SOL    HW132648   0.515   2.698   2.045 -0.4012 -0.4481 -0.8305
 6863SOL    HW232649   0.582   2.552   2.017 -1.5717 -0.8727 -1.4549
 6864SOL     OW32650   3.461   3.879   2.555  0.0002 -0.2816 -0.0290
 6864SOL    HW132651   3.387   3.906   2.493  1.5302 -0.8276 -2.1432
 6864SOL    HW232652   3.423   3.827   2.632 -1.8008 -0.6580 -1.1532
 6865SOL     OW32653   0.854   0.371   3.414 -0.7728  0.0689 -0.0753
 6865SOL    HW132654   0.819   0.325   3.332 -0.0950 -0.7680  0.1089
 6865SOL    HW232655   0.923   0.315   3.458 -1.1932  0.4743  1.1373
 6866SOL     OW32656   8.487   3.816   1.837  0.5425  0.3983 -0.1978
 6866SOL    HW132657   8.579   3.788   1.865  0.9141 -0.9556 -2.6199
 6866SOL    HW232658   8.492   3.900   1.784  0.4052  0.2423 -0.4586
 6867SOL     OW32659   4.466   2.646   6.584  0.1920 -0.5096 -0.1210
 6867SOL    HW132660   4.423   2.586   6.516  0.3004 -0.2116 -0.4541
 6867SOL    HW232661   4.532   2.594   6.638  1.3615 -0.3673 -1.3847
 6868SOL     OW32662   9.771   3.254   5.428 -0.6760  0.2780  0.4588
 6868SOL    HW132663   9.747   3.299   5.514  1.9271  1.6107  0.5411
 6868SOL    HW232664   9.741   3.310   5.351  2.2219  2.0942  0.5618
 6869SOL     OW32665   8.587   2.468   8.040  0.0955 -0.0879 -0.2358
 6869SOL    HW132666   8.520   2.533   8.003  0.3087  0.0486 -0.3897
 6869SOL    HW232667   8.673   2.477   7.989  0.2974 -0.1099  0.1008
 6870SOL     OW32668   8.166   4.449   8.025 -0.7199  0.8351  0.9528
 6870SOL    HW132669   8.151   4.518   7.953  0.5079 -0.2700 -0.4061
 6870SOL    HW232670   8.100   4.375   8.014 -1.2558  1.1990  1.6719
 6871SOL     OW32671   2.955   1.558   3.147 -0.2505 -0.8883  0.0649
 6871SOL    HW132672   2.989   1.530   3.057 -2.0375  0.5181 -1.1052
 6871SOL    HW232673   2.915   1.480   3.194 -0.0645 -1.4712 -0.7368
 6872SOL     OW32674   1.693   7.320   3.518 -0.3213  0.0737 -0.1637
 6872SOL    HW132675   1.774   7.261   3.515  0.3471  0.9500  0.4498
 6872SOL    HW232676   1.660   7.328   3.612 -0.7827  0.1734 -0.3320
 6873SOL     OW32677   4.136   7.163   4.391 -0.0025 -0.4535 -0.4769
 6873SOL    HW132678   4.123   7.082   4.334  1.9932 -1.1812  0.0826
 6873SOL    HW232679   4.227   7.162   4.432 -1.0305  0.5545  1.9694
 6874SOL     OW32680   1.725   1.082   9.393 -0.4884  0.2414  0.1013
 6874SOL    HW132681   1.785   1.026   9.336 -0.4556 -0.5075  0.8589
 6874SOL    HW232682   1.663   1.135   9.335  0.7871  0.9011 -0.6877
 6875SOL     OW32683   2.967   5.244   7.755  0.3533 -0.1972  0.4955
 6875SOL    HW132684   2.994   5.230   7.660  1.4971 -1.8748  1.0429
 6875SOL    HW232685   2.901   5.174   7.782  0.3745 -0.0011  1.0655
 6876SOL     OW32686   6.728   8.762   7.106 -0.0459  0.2264  0.5421
 6876SOL    HW132687   6.711   8.735   7.012 -0.5905  0.5848  0.5331
 6876SOL    HW232688   6.664   8.714   7.166 -0.2151  0.5801  0.6477
 6877SOL     OW32689   8.004   5.706   8.963  0.2351 -0.3472  0.2257
 6877SOL    HW132690   8.051   5.794   8.976 -0.6636  0.0985  0.4990
 6877SOL    HW232691   7.974   5.697   8.868 -1.0793  0.3542  0.5641
 6878SOL     OW32692   8.256   1.007   9.972  0.3312 -0.3608  0.5149
 6878SOL    HW132693   8.179   1.011  10.035 -1.0826  0.5769 -1.2201
 6878SOL    HW232694   8.308   1.092   9.976 -0.8802  0.4647 -0.9386
 6879SOL     OW32695   9.533   0.504   2.804  0.5471  0.7770 -0.6083
 6879SOL    HW132696   9.631   0.514   2.789  0.6905  0.1796 -0.1191
 6879SOL    HW232697   9.498   0.584   2.851  0.7766  1.0432 -0.8838
 6880SOL     OW32698   6.484   2.818   9.509  0.3936 -0.0762 -0.0749
 6880SOL    HW132699   6.562   2.839   9.569 -0.0281  0.6867  0.2111
 6880SOL    HW232700   6.400   2.849   9.553  0.0604  0.2950 -0.9738
 6881SOL     OW32701   9.695   0.695   3.047  0.2508 -0.3153 -0.0929
 6881SOL    HW132702   9.608   0.693   2.998 -0.2271 -0.4599  0.7581
 6881SOL    HW232703   9.768   0.721   2.983 -0.3684 -0.4500 -0.8686
 6882SOL     OW32704   2.838   4.474   2.618  0.0009  0.5507 -0.1775
 6882SOL    HW132705   2.819   4.483   2.521 -1.4850  0.9564  0.1418
 6882SOL    HW232706   2.915   4.411   2.631 -0.9756 -0.9612 -1.5110
 6883SOL     OW32707   9.700   5.082   2.586 -0.5456 -0.4008 -0.8306
 6883SOL    HW132708   9.726   5.175   2.559 -1.2921  0.3989  1.0437
 6883SOL    HW232709   9.721   5.018   2.513 -0.4665  1.3273 -2.3511
 6884SOL     OW32710   5.365   7.854   3.670  0.2356 -0.1176 -0.2091
 6884SOL    HW132711   5.438   7.793   3.703  0.3482  0.3079  0.3371
 6884SOL    HW232712   5.311   7.885   3.748  1.4357  2.1213 -0.2442
 6885SOL     OW32713   2.983   6.316   9.885 -0.3749 -0.0688 -0.1656
 6885SOL    HW132714   2.956   6.260   9.963 -0.3169 -0.5234 -0.4705
 6885SOL    HW232715   2.939   6.405   9.891 -0.8728 -0.3267  0.0492
 6886SOL     OW32716   8.020   7.493   2.535  0.6377  0.7850 -0.2433
 6886SOL    HW132717   8.113   7.476   2.501  0.0250 -0.6760 -1.2381
 6886SOL    HW232718   8.023   7.506   2.634  1.6573 -1.4073  0.0527
 6887SOL     OW32719   8.222   5.675   8.718  0.2373 -0.6151  0.2635
 6887SOL    HW132720   8.234   5.738   8.795  0.5021  0.6985 -0.8408
 6887SOL    HW232721   8.303   5.617   8.711  0.4874 -0.3099  0.5857
 6888SOL     OW32722   7.718   8.875   2.978  0.2946 -0.2484  0.0058
 6888SOL    HW132723   7.805   8.890   2.931  0.1460 -0.9926 -0.5129
 6888SOL    HW232724   7.723   8.790   3.030 -0.2030 -0.4035 -0.2035
 6889SOL     OW32725   9.668   2.694   1.995  0.4217  0.0223  0.0143
 6889SOL    HW132726   9.743   2.637   2.027  0.1075  0.2772  1.2489
 6889SOL    HW232727   9.582   2.644   2.004  0.0029  1.0796  2.2107
 6890SOL     OW32728   7.586   0.796   9.294  0.1459  0.6228  0.7240
 6890SOL    HW132729   7.642   0.808   9.376  0.0112 -3.0183  1.3934
 6890SOL    HW232730   7.645   0.797   9.213  1.0347 -1.8279  1.3247
 6891SOL     OW32731   4.004   2.789   0.186  0.0606 -0.2311  0.1279
 6891SOL    HW132732   3.992   2.875   0.136 -0.4237 -0.1554  0.3699
 6891SOL    HW232733   3.917   2.739   0.188  0.2475 -0.5482  0.3096
 6892SOL     OW32734   4.203   2.096   6.124  0.0126 -0.0413 -0.2096
 6892SOL    HW132735   4.174   2.039   6.047  2.0235 -3.4078  1.3982
 6892SOL    HW232736   4.199   2.043   6.209  1.9243  2.2145  1.3887
 6893SOL     OW32737   7.061   8.234   5.286  0.1871  0.6412  0.2456
 6893SOL    HW132738   7.034   8.238   5.189 -0.4388 -0.6584  0.3621
 6893SOL    HW232739   7.153   8.195   5.292  1.0152  2.5100  0.0503
 6894SOL     OW32740   8.560   0.930   4.976  0.0710 -0.3912 -0.1720
 6894SOL    HW132741   8.566   0.911   5.074  0.2977  1.9413  0.2805
 6894SOL    HW232742   8.474   0.894   4.940  0.7886 -2.8930  0.4742
 6895SOL     OW32743   0.994   5.918   0.142  0.6827  0.2265 -0.0980
 6895SOL    HW132744   1.016   5.953   0.050 -2.0622 -0.7166 -1.1768
 6895SOL    HW232745   0.896   5.930   0.159  0.6431 -2.1572  1.5883
 6896SOL     OW32746   9.729   4.138   9.990  0.1668  0.1372  0.5364
 6896SOL    HW132747   9.811   4.091  10.021 -0.6717  0.0101  2.7228
 6896SOL    HW232748   9.750   4.196   9.912  1.8005 -1.7126 -0.4259
 6897SOL     OW32749   1.566   8.661   8.168  0.1193 -0.4432 -0.2351
 6897SOL    HW132750   1.504   8.586   8.190  0.5657 -0.5359  0.7016
 6897SOL    HW232751   1.552   8.689   8.073  1.6269 -3.3094 -1.3589
 6898SOL     OW32752   2.633   4.797   7.629  0.3381 -0.0277 -0.1630
 6898SOL    HW132753   2.711   4.802   7.692 -0.0198  2.9863  0.1228
 6898SOL    HW232754   2.641   4.715   7.573  2.1736 -1.2838  1.8497
 6899SOL     OW32755   3.088   7.104   0.404  0.3384 -0.4922 -0.1987
 6899SOL    HW132756   3.002   7.155   0.401  0.5391 -0.1501 -0.1787
 6899SOL    HW232757   3.108   7.077   0.499  0.6597  0.1317 -0.0834
 6900SOL     OW32758   5.037   6.685   0.662  0.2792 -0.0536  0.0627
 6900SOL    HW132759   4.969   6.684   0.735  0.1577  0.7185 -0.0372
 6900SOL    HW232760   5.097   6.606   0.671 -0.7489 -0.8558  0.0436
 6901SOL     OW32761   2.096   2.474   2.126 -0.0117 -0.4625  0.1340
 6901SOL    HW132762   2.036   2.526   2.187  1.7530 -0.0478  1.5741
 6901SOL    HW232763   2.042   2.433   2.052 -1.7537  1.5435  0.2475
 6902SOL     OW32764   8.981   4.392   9.290 -0.2485 -0.2849  0.4859
 6902SOL    HW132765   9.024   4.323   9.348  0.1602  0.0395  0.5780
 6902SOL    HW232766   8.939   4.462   9.347 -1.4995 -0.9576  0.4014
 6903SOL     OW32767   4.965   9.245   7.256  0.3981 -0.2159  0.3573
 6903SOL    HW132768   4.984   9.285   7.167 -1.7867  1.1088  0.4432
 6903SOL    HW232769   4.967   9.145   7.248 -1.1954 -0.1326 -1.5252
 6904SOL     OW32770   1.929   1.105   9.127 -0.4325 -0.0033  0.0284
 6904SOL    HW132771   1.881   1.171   9.069 -0.9995 -1.5194 -1.2720
 6904SOL    HW232772   2.024   1.134   9.140 -1.2555  2.2003  1.3062
 6905SOL     OW32773   6.951   4.044   0.325 -0.2867  0.1253  0.2962
 6905SOL    HW132774   7.033   3.986   0.332  0.2863  0.6921 -1.4476
 6905SOL    HW232775   6.874   3.997   0.369  0.6575 -1.0215  0.7734
 6906SOL     OW32776   7.925   3.269   2.965 -0.3720  0.2871  0.4065
 6906SOL    HW132777   7.900   3.357   2.926  3.0081  0.9174 -0.5054
 6906SOL    HW232778   7.912   3.197   2.897 -1.8221  0.2712  0.6966
 6907SOL     OW32779   6.465   8.112   5.175 -0.0444 -0.5318  0.5557
 6907SOL    HW132780   6.412   8.080   5.253 -2.1231  0.0481 -0.5788
 6907SOL    HW232781   6.404   8.130   5.098  1.4103  3.0122  0.1209
 6908SOL     OW32782   3.001   8.402   7.672  0.2561 -0.2009 -0.0641
 6908SOL    HW132783   3.012   8.302   7.671  0.3557 -0.1812 -1.7038
 6908SOL    HW232784   2.904   8.425   7.673  0.2199 -0.3126 -0.9123
 6909SOL     OW32785   2.943   3.302   2.287 -0.4995 -0.1965  0.3593
 6909SOL    HW132786   2.892   3.220   2.262  3.0120 -0.9939 -4.8179
 6909SOL    HW232787   2.897   3.382   2.248 -0.8557 -0.2833  0.5920
 6910SOL     OW32788   0.834   9.430   6.831 -0.2870  0.0990 -0.3972
 6910SOL    HW132789   0.866   9.518   6.799  1.3284 -0.4878 -0.4431
 6910SOL    HW232790   0.832   9.429   6.931 -1.6337  0.6392 -0.4103
 6911SOL     OW32791   0.810   3.130   2.519  0.2843 -0.0597 -0.5035
 6911SOL    HW132792   0.810   3.031   2.506 -1.9840 -0.1624  0.0844
 6911SOL    HW232793   0.858   3.152   2.604 -0.3184 -0.7695  0.0320
 6912SOL     OW32794   0.644   9.838   7.742 -0.4496 -0.0869  0.1816
 6912SOL    HW132795   0.689   9.915   7.786  0.5578 -1.2281  1.1950
 6912SOL    HW232796   0.608   9.776   7.812 -0.9702 -0.7108 -0.6158
 6913SOL     OW32797   4.843   1.587   8.141 -0.3086 -0.2965 -0.2291
 6913SOL    HW132798   4.806   1.623   8.226  0.2187  0.4506 -0.3209
 6913SOL    HW232799   4.850   1.487   8.148  1.1634 -0.1072  1.1469
 6914SOL     OW32800   4.568   4.655   9.963 -0.2442 -0.3853  0.1001
 6914SOL    HW132801   4.535   4.561   9.962  0.5494 -0.6632 -0.7108
 6914SOL    HW232802   4.645   4.663  10.027  0.3912 -0.5346 -0.6440
 6915SOL     OW32803   1.566   7.513   9.838 -0.4319  0.1941 -0.4131
 6915SOL    HW132804   1.649   7.568   9.833 -1.5783  1.9849 -0.2151
 6915SOL    HW232805   1.532   7.495   9.746  0.8381 -1.5954 -0.5482
 6916SOL     OW32806   6.019   9.179   3.209 -0.6857  0.0739  0.0584
 6916SOL    HW132807   6.048   9.084   3.218 -0.6959  0.2324  1.9646
 6916SOL    HW232808   5.993   9.197   3.114  0.2645 -1.5408 -0.5270
 6917SOL     OW32809   3.322   6.898   7.790  0.0018  0.5907  0.6189
 6917SOL    HW132810   3.238   6.948   7.766 -0.4433  1.1019  3.1051
 6917SOL    HW232811   3.401   6.946   7.752 -0.7798  0.1937 -1.6139
 6918SOL     OW32812   6.778   1.104   3.874  0.4812  0.1765 -0.1712
 6918SOL    HW132813   6.706   1.076   3.937 -0.9013  5.4302  0.7794
 6918SOL    HW232814   6.749   1.087   3.780 -1.3288  0.7874  0.2632
 6919SOL     OW32815   7.617   9.024   5.556 -0.1802 -0.0033 -0.0109
 6919SOL    HW132816   7.532   9.073   5.538 -0.1231 -0.7425 -2.4246
 6919SOL    HW232817   7.627   8.950   5.490  1.6563 -0.7974  1.1410
 6920SOL     OW32818   1.944   0.595   2.158 -0.0926 -0.3001  0.4024
 6920SOL    HW132819   1.948   0.549   2.070 -1.2758  0.1900  0.0884
 6920SOL    HW232820   2.037   0.607   2.194  0.3184 -1.4944 -0.2521
 6921SOL     OW32821   8.424   1.319   7.631  0.2614 -0.5501  0.2273
 6921SOL    HW132822   8.375   1.309   7.544 -1.8705  0.2328  1.2947
 6921SOL    HW232823   8.474   1.405   7.632  2.1243 -1.5915 -1.0775
 6922SOL     OW32824   7.543   8.129   5.739 -0.4572  0.2435  0.1435
 6922SOL    HW132825   7.506   8.097   5.826 -1.2206  1.2267  0.1869
 6922SOL    HW232826   7.498   8.082   5.663  1.4881 -1.9581  0.3016
 6923SOL     OW32827   9.492   1.804   7.371 -0.2293 -0.0745 -0.2023
 6923SOL    HW132828   9.542   1.862   7.307  1.1343 -1.9285 -0.8536
 6923SOL    HW232829   9.547   1.724   7.393 -0.9958  0.1546  2.7270
 6924SOL     OW32830   1.200   4.673   2.134 -0.4832 -1.0855  0.0466
 6924SOL    HW132831   1.137   4.656   2.058 -0.4366 -0.8345 -0.0487
 6924SOL    HW232832   1.149   4.708   2.213 -0.2648  0.5352 -0.5167
 6925SOL     OW32833   9.129   9.104   3.832  0.3824  0.6262 -0.0296
 6925SOL    HW132834   9.032   9.118   3.814 -0.0521 -1.7806  0.2580
 6925SOL    HW232835   9.183   9.144   3.758 -0.8269  1.6781 -0.3650
 6926SOL     OW32836   3.341   0.903   1.630  0.3302  0.2710  0.1657
 6926SOL    HW132837   3.386   0.851   1.559 -0.0198 -0.0091  0.1457
 6926SOL    HW232838   3.409   0.937   1.695  0.7280  1.1149 -0.6768
 6927SOL     OW32839   2.207   5.889   7.504  0.5333 -0.4083 -0.8814
 6927SOL    HW132840   2.307   5.888   7.507  0.5813  1.1071 -1.3272
 6927SOL    HW232841   2.177   5.969   7.453 -0.9187 -0.6830 -0.4676
 6928SOL     OW32842   1.999   7.325   3.732  0.5994  0.3245 -0.1890
 6928SOL    HW132843   2.089   7.351   3.699  0.3888  1.7295  0.3354
 6928SOL    HW232844   1.951   7.273   3.661  1.0165  1.3794 -1.2400
 6929SOL     OW32845   1.709   2.906   3.989 -0.1307 -0.0667  0.1027
 6929SOL    HW132846   1.689   2.878   3.895  0.1644 -0.7629  0.2426
 6929SOL    HW232847   1.798   2.951   3.993  0.3940 -1.1124  0.2470
 6930SOL     OW32848   3.206   6.559   8.855  0.2556  0.0030  0.2082
 6930SOL    HW132849   3.176   6.646   8.894 -1.1721 -0.8048  0.9858
 6930SOL    HW232850   3.183   6.485   8.919  0.3422 -1.0612 -0.9735
 6931SOL     OW32851   2.830   6.436   8.625  0.1143 -0.6423 -0.2124
 6931SOL    HW132852   2.732   6.451   8.610  0.5517  1.6064 -0.9221
 6931SOL    HW232853   2.867   6.381   8.551 -0.2172  0.1918 -1.0116
 6932SOL     OW32854   8.080   4.735   8.727 -0.1000  0.2405 -0.7395
 6932SOL    HW132855   8.039   4.763   8.814  1.4585 -0.8172  0.3594
 6932SOL    HW232856   8.158   4.675   8.744 -0.1250 -0.4686 -2.8945
 6933SOL     OW32857   0.579   4.843   0.193 -0.1567 -1.1299 -0.6844
 6933SOL    HW132858   0.526   4.807   0.271  0.1698 -1.7454 -0.7450
 6933SOL    HW232859   0.604   4.938   0.211  1.0600 -1.6770  0.5574
 6934SOL     OW32860   1.083   3.628   9.428 -0.5023  0.2415 -0.5558
 6934SOL    HW132861   1.143   3.563   9.382 -1.4778 -2.3555  1.6872
 6934SOL    HW232862   1.137   3.701   9.470  0.8846 -0.8578 -0.4151
 6935SOL     OW32863   6.141   1.924   1.473  0.1237 -0.5928 -0.2560
 6935SOL    HW132864   6.052   1.895   1.507 -0.3261  0.1666 -0.7631
 6935SOL    HW232865   6.131   2.011   1.423  1.5991  1.1401  2.3100
 6936SOL     OW32866   0.221   8.630   4.309  0.3032 -0.0639 -0.2849
 6936SOL    HW132867   0.186   8.718   4.275 -3.2329 -1.5096 -0.5589
 6936SOL    HW232868   0.319   8.625   4.292  0.7759  4.2342  0.6302
 6937SOL     OW32869   2.928   2.712   2.240 -0.4037  0.6277 -0.0069
 6937SOL    HW132870   2.860   2.642   2.260  0.7426 -0.5146 -0.0891
 6937SOL    HW232871   2.947   2.764   2.323 -0.4339  0.1139  0.3243
 6938SOL     OW32872   5.681   9.991   4.791 -0.2494 -0.3372 -0.2535
 6938SOL    HW132873   5.673   9.894   4.817 -0.3215 -0.4253 -0.6012
 6938SOL    HW232874   5.739  10.038   4.857 -0.3194 -0.5892 -0.0088
 6939SOL     OW32875   9.205   6.760   5.518  0.6810 -0.9306 -0.5042
 6939SOL    HW132876   9.147   6.836   5.550  0.1625 -2.0947  1.3954
 6939SOL    HW232877   9.152   6.676   5.518  0.9672 -1.1664 -3.5817
 6940SOL     OW32878   1.480   7.546   2.414  0.1439  1.0382 -0.4047
 6940SOL    HW132879   1.555   7.612   2.420  0.6858  0.4163 -0.2809
 6940SOL    HW232880   1.442   7.546   2.322  0.2902  1.3657 -0.4627
 6941SOL     OW32881   8.283   1.384   6.535 -0.3701  0.6288  0.0375
 6941SOL    HW132882   8.223   1.449   6.487 -1.2661  0.3896  0.8261
 6941SOL    HW232883   8.317   1.427   6.618 -2.7253 -0.6585  1.7116
 6942SOL     OW32884   1.681   6.304   8.644 -0.4692 -0.1616  0.1269
 6942SOL    HW132885   1.705   6.248   8.565  0.3764  0.1932  0.1265
 6942SOL    HW232886   1.582   6.315   8.648 -0.3854  1.8988 -2.3564
 6943SOL     OW32887   8.839   8.674   7.454  0.0117  0.0236 -0.3378
 6943SOL    HW132888   8.891   8.732   7.391 -0.3104 -0.2683 -0.8825
 6943SOL    HW232889   8.880   8.677   7.544  0.2082  0.8175 -0.4519
 6944SOL     OW32890   1.989   1.437   2.465  0.4779  0.9396  0.2325
 6944SOL    HW132891   2.033   1.526   2.461  1.0284  0.6243 -1.0382
 6944SOL    HW232892   1.902   1.440   2.416  0.5140  0.7726  0.1575
 6945SOL     OW32893   7.246   5.006   7.542  0.0188 -0.0775  0.0451
 6945SOL    HW132894   7.280   5.004   7.636  0.2687  0.0328 -0.0412
 6945SOL    HW232895   7.155   4.965   7.538 -0.6132  1.2394  0.5890
 6946SOL     OW32896   0.155   5.871   4.767  0.0206 -0.5053  0.3682
 6946SOL    HW132897   0.063   5.883   4.804  0.4694  0.3799  1.2217
 6946SOL    HW232898   0.178   5.949   4.709  0.9929  0.3025  1.8010
 6947SOL     OW32899   2.898   4.968   8.524  0.5460 -0.0728  0.2470
 6947SOL    HW132900   2.872   4.976   8.620 -1.2487  1.0309 -0.3190
 6947SOL    HW232901   2.869   4.879   8.489  1.8591 -0.7787  0.9015
 6948SOL     OW32902   9.176   8.295   7.607 -0.0550 -0.4157  0.0223
 6948SOL    HW132903   9.223   8.383   7.606  0.6423 -0.7790  0.3510
 6948SOL    HW232904   9.228   8.230   7.663 -2.6136  0.0934  3.1569
 6949SOL     OW32905   4.057   5.795   8.113  0.1424  0.1673 -0.9233
 6949SOL    HW132906   4.038   5.860   8.186  1.9919 -1.3520  0.9661
 6949SOL    HW232907   4.006   5.821   8.031 -1.2041  2.4548  0.5937
 6950SOL     OW32908   0.514   3.560   5.747 -0.0326 -0.1331 -0.3062
 6950SOL    HW132909   0.537   3.487   5.682  0.2140  1.8611 -2.4888
 6950SOL    HW232910   0.438   3.614   5.711 -1.9386 -0.8257  2.4882
 6951SOL     OW32911   0.347   0.664   9.275 -0.1002  0.1291  0.2596
 6951SOL    HW132912   0.322   0.705   9.187  2.0285 -0.0518 -0.4651
 6951SOL    HW232913   0.381   0.571   9.261 -1.4609 -0.5717  1.4960
 6952SOL     OW32914   8.880   9.373   3.270 -0.2733  0.8525  1.1609
 6952SOL    HW132915   8.788   9.396   3.238 -0.9944  0.5677  2.9843
 6952SOL    HW232916   8.946   9.436   3.229 -1.1709  0.5660 -0.7775
 6953SOL     OW32917   8.119   2.730   1.763  0.7976 -0.4967 -0.3172
 6953SOL    HW132918   8.150   2.662   1.830  0.3272 -0.4227 -0.0174
 6953SOL    HW232919   8.019   2.726   1.757  0.8559 -0.7396 -1.2645
 6954SOL     OW32920   8.141   5.327   8.657 -0.1037 -0.0859  0.3701
 6954SOL    HW132921   8.233   5.299   8.629  0.3326  1.3327  0.3298
 6954SOL    HW232922   8.103   5.258   8.718  0.4210 -1.3758 -0.7283
 6955SOL     OW32923   4.899   9.586   8.572  0.3540  0.8711  0.6748
 6955SOL    HW132924   4.825   9.569   8.507  1.9044 -1.0314 -0.6271
 6955SOL    HW232925   4.889   9.524   8.650  0.7204  0.4247  0.3694
 6956SOL     OW32926   3.256   8.859   1.839  0.2589 -0.2013 -0.4762
 6956SOL    HW132927   3.270   8.958   1.827  1.3596 -0.2498  0.3149
 6956SOL    HW232928   3.342   8.811   1.819 -0.1348 -0.9632 -0.3510
 6957SOL     OW32929   7.710   4.838   1.741  0.7892  0.0794  0.0598
 6957SOL    HW132930   7.714   4.755   1.686  0.0719  0.9448 -1.3095
 6957SOL    HW232931   7.617   4.853   1.773  0.7940  0.6801 -0.2020
 6958SOL     OW32932   3.876   4.298   5.260 -0.4066 -0.0142 -0.2473
 6958SOL    HW132933   3.851   4.385   5.217 -1.2767  0.3864  1.0267
 6958SOL    HW232934   3.963   4.309   5.309 -0.1488 -0.0650 -0.6927
 6959SOL     OW32935   2.408   8.897   0.646 -0.3285  0.0305  0.1567
 6959SOL    HW132936   2.389   8.899   0.548 -0.0939 -1.3851  0.0740
 6959SOL    HW232937   2.507   8.893   0.660 -0.4016 -0.8067  0.4299
 6960SOL     OW32938   1.571   3.880   6.427 -0.3564  0.2406 -0.1717
 6960SOL    HW132939   1.567   3.783   6.402 -2.0287  0.4360 -0.7225
 6960SOL    HW232940   1.647   3.923   6.378 -1.2127 -0.2406 -1.9707
 6961SOL     OW32941   7.681   0.933   0.279  0.3012  0.2756 -0.0759
 6961SOL    HW132942   7.739   0.972   0.207  1.4782  0.9340  1.2069
 6961SOL    HW232943   7.721   0.847   0.311  0.2670  0.4369  0.4064
 6962SOL     OW32944   0.114   9.487   4.920  0.1230  0.2332  0.0170
 6962SOL    HW132945   0.082   9.512   5.011  0.4948 -1.0223  0.5017
 6962SOL    HW232946   0.071   9.401   4.892  1.8899 -0.6864  0.0510
 6963SOL     OW32947   9.311   7.564   2.988  0.4355 -0.0891  0.1529
 6963SOL    HW132948   9.372   7.622   3.041 -1.0444  1.7435 -0.1187
 6963SOL    HW232949   9.358   7.532   2.906  1.1257  1.0442  0.1006
 6964SOL     OW32950   4.488   7.161   2.553  0.2140 -0.3760  0.2997
 6964SOL    HW132951   4.531   7.145   2.642  0.9281  0.1194  0.0456
 6964SOL    HW232952   4.558   7.163   2.481 -0.2462  0.2113 -0.1440
 6965SOL     OW32953   9.734   0.647   1.074  0.1621  0.2690  0.0382
 6965SOL    HW132954   9.805   0.632   1.005  1.7208  0.4725  1.5817
 6965SOL    HW232955   9.723   0.564   1.129  0.0047  0.6120  0.5249
 6966SOL     OW32956   1.267   6.732   1.166  0.1404  0.2170 -0.1373
 6966SOL    HW132957   1.351   6.777   1.196 -0.9413 -0.0964  3.5568
 6966SOL    HW232958   1.290   6.646   1.120  1.9155  1.4280 -1.6059
 6967SOL     OW32959   2.079   5.089   2.590  0.5505 -0.7557  0.4054
 6967SOL    HW132960   2.154   5.030   2.559  0.6007 -1.8818  2.5613
 6967SOL    HW232961   2.065   5.076   2.688 -1.0764  1.0294  0.4352
 6968SOL     OW32962   7.774   3.313   3.960 -0.2411 -0.3776 -0.3870
 6968SOL    HW132963   7.780   3.406   3.995 -1.2076 -0.6198  0.4582
 6968SOL    HW232964   7.736   3.314   3.868 -0.5568  0.0353 -0.2513
 6969SOL     OW32965   5.461   3.846   0.728  0.9986 -0.2687 -0.3710
 6969SOL    HW132966   5.369   3.814   0.754  1.2044  1.0390  2.1332
 6969SOL    HW232967   5.454   3.907   0.649 -0.5055  0.9873  0.6912
 6970SOL     OW32968   2.406   6.479   8.239  0.2903  0.2510  0.4025
 6970SOL    HW132969   2.418   6.573   8.206  0.5912  0.3361  0.7505
 6970SOL    HW232970   2.380   6.481   8.335  0.2880 -0.0200  0.4074
 6971SOL     OW32971   5.544   1.951   0.223 -0.4877  0.2636 -0.0646
 6971SOL    HW132972   5.520   1.854   0.216  2.2079 -0.6064  1.9624
 6971SOL    HW232973   5.620   1.971   0.160 -0.0683  0.7056  0.5742
 6972SOL     OW32974   4.143   2.901   4.272 -0.0631  0.2825  0.2233
 6972SOL    HW132975   4.189   2.940   4.352  1.6431 -0.8615 -0.1708
 6972SOL    HW232976   4.139   2.801   4.281 -0.0123  0.1555 -1.0324
 6973SOL     OW32977   9.906   0.315   4.437  0.3194  0.4469  0.2426
 6973SOL    HW132978   9.832   0.379   4.457 -0.2466  0.1442 -0.8399
 6973SOL    HW232979   9.947   0.339   4.349  2.0391  1.0942  1.1968
 6974SOL     OW32980   4.758   4.820   9.230 -0.2490  0.0871 -1.0630
 6974SOL    HW132981   4.813   4.759   9.174 -0.9744  0.2054 -1.9021
 6974SOL    HW232982   4.679   4.771   9.266 -0.6973  0.4607 -1.5332
 6975SOL     OW32983   9.599   4.510   1.543  0.2211  0.0075 -0.5334
 6975SOL    HW132984   9.647   4.545   1.463  1.3938  0.1810  0.2374
 6975SOL    HW232985   9.644   4.542   1.627 -1.2248  0.1535  0.2079
 6976SOL     OW32986   1.659   4.354   7.475  0.3734 -0.0661 -0.2337
 6976SOL    HW132987   1.640   4.402   7.561 -1.1335 -0.8921 -0.0720
 6976SOL    HW232988   1.573   4.317   7.439  1.0748 -0.1228 -1.8556
 6977SOL     OW32989   3.147   3.011   4.566 -0.1173 -0.0552 -0.5933
 6977SOL    HW132990   3.202   2.927   4.559 -0.4368 -0.2731 -0.4847
 6977SOL    HW232991   3.206   3.090   4.550  0.1039 -0.3226 -1.1240
 6978SOL     OW32992   3.249   0.216   1.444  0.7684 -0.0906  0.2899
 6978SOL    HW132993   3.170   0.222   1.384  1.9165  1.4593 -1.1055
 6978SOL    HW232994   3.261   0.121   1.475 -2.5534 -0.0736  1.8567
 6979SOL     OW32995   6.688   4.561   8.137 -0.0905  0.3876 -0.2818
 6979SOL    HW132996   6.743   4.559   8.221 -2.8817  0.3306  1.6297
 6979SOL    HW232997   6.654   4.654   8.122  0.1409  0.3268 -1.1713
 6980SOL     OW32998   7.926   7.163   1.165  0.5137  0.9150 -0.2545
 6980SOL    HW132999   7.944   7.259   1.185 -2.0978  1.4914 -0.5330
 6980SOL    HW233000   7.989   7.105   1.218  2.1405  2.7478 -0.1377
 6981SOL     OW33001   3.963   6.157   7.637 -0.0479 -0.4561 -0.1374
 6981SOL    HW133002   3.951   6.058   7.627  0.6898 -0.3416 -2.5294
 6981SOL    HW233003   4.050   6.185   7.595 -1.1749  1.4520 -1.3074
 6982SOL     OW33004   0.820   2.837   9.714  0.3632 -0.2427  0.2400
 6982SOL    HW133005   0.873   2.876   9.789 -0.5114 -0.8395  1.1682
 6982SOL    HW233006   0.865   2.754   9.682 -0.2994 -1.0474  1.3883
 6983SOL     OW33007   2.033   3.693   0.798 -0.3458  0.2991  0.3240
 6983SOL    HW133008   1.999   3.622   0.861  1.1901  1.4809  2.5539
 6983SOL    HW233009   2.035   3.781   0.846  1.9332  1.0243 -1.0385
 6984SOL     OW33010   8.694   7.176   9.025 -0.8527 -0.1011 -0.2828
 6984SOL    HW133011   8.738   7.203   9.110 -0.4989 -0.2690 -0.4102
 6984SOL    HW233012   8.636   7.250   8.992  1.2082  1.0800 -1.3690
 6985SOL     OW33013   0.018   7.941   5.040 -0.0652  0.1507 -0.0900
 6985SOL    HW133014   0.085   7.970   4.972 -0.6345  0.3058 -0.5878
 6985SOL    HW233015  -0.061   8.002   5.037  0.0205  0.3354  0.9088
 6986SOL     OW33016   3.641   2.942   6.758 -0.4951 -0.2347  0.1628
 6986SOL    HW133017   3.593   2.980   6.679  0.9512  0.0876 -0.5764
 6986SOL    HW233018   3.738   2.932   6.736 -0.0536  0.0074  1.9511
 6987SOL     OW33019   3.939   1.721   3.495  0.3973  0.3468  0.0098
 6987SOL    HW133020   3.978   1.730   3.404  1.3017  1.2742  0.4877
 6987SOL    HW233021   4.004   1.675   3.555 -1.6498 -3.8164 -0.7400
 6988SOL     OW33022   8.559   2.231   9.389  0.2697 -0.0745  0.1935
 6988SOL    HW133023   8.585   2.162   9.320  2.8240 -0.9675  1.9765
 6988SOL    HW233024   8.636   2.293   9.404 -0.7779  0.9841  1.2333
 6989SOL     OW33025   2.162   8.179   1.027  0.0669  0.6211  0.1410
 6989SOL    HW133026   2.196   8.191   0.934 -1.3142  1.8221 -0.2090
 6989SOL    HW233027   2.100   8.101   1.030 -1.2229  1.6296 -0.2976
 6990SOL     OW33028   1.283   8.124   8.033  0.0946  0.3209 -0.3116
 6990SOL    HW133029   1.235   8.044   7.998  0.8949 -0.4448  0.3340
 6990SOL    HW233030   1.226   8.171   8.101  0.2223 -0.5264  0.3786
 6991SOL     OW33031   9.244   3.588   2.836  1.1068  0.3850  0.7247
 6991SOL    HW133032   9.202   3.525   2.901 -0.2506  2.5799  2.0218
 6991SOL    HW233033   9.333   3.618   2.871  1.2340  0.0869  0.6581
 6992SOL     OW33034   3.883   6.560   7.230 -0.2616 -0.1359 -0.4680
 6992SOL    HW133035   3.810   6.542   7.165 -0.4750  0.0264 -0.2754
 6992SOL    HW233036   3.857   6.523   7.320  1.0477 -2.4727 -1.0151
 6993SOL     OW33037   3.049   8.487   7.934 -0.2128 -0.4020 -0.1086
 6993SOL    HW133038   2.981   8.558   7.916  0.5664  0.2886 -0.3399
 6993SOL    HW233039   3.091   8.458   7.848 -1.1523 -1.7882 -0.1242
 6994SOL     OW33040   0.008   5.394   4.038 -0.0784 -0.4299 -0.0409
 6994SOL    HW133041   0.002   5.445   3.952  0.9454  0.0376  0.1638
 6994SOL    HW233042   0.090   5.337   4.037 -0.7698 -1.4534  0.0807
 6995SOL     OW33043   8.595   3.446   1.291 -0.3456  0.0478 -0.3659
 6995SOL    HW133044   8.613   3.349   1.306  0.5641  0.3787  0.8025
 6995SOL    HW233045   8.524   3.477   1.354  0.6348  0.5365  0.5096
 6996SOL     OW33046   0.066   2.441   0.173  0.4646 -0.5750  0.1596
 6996SOL    HW133047   0.162   2.448   0.146 -0.2597 -0.1339 -2.4020
 6996SOL    HW233048   0.040   2.345   0.182  0.8083 -0.7222 -0.4143
 6997SOL     OW33049   5.990   1.393   9.275  0.0458 -0.2532 -0.4594
 6997SOL    HW133050   6.037   1.477   9.303 -0.7649  0.2644 -0.6517
 6997SOL    HW233051   6.002   1.324   9.346  1.2858 -0.2015 -0.6056
 6998SOL     OW33052   8.827   9.944   5.804  0.4108 -0.5545  0.2016
 6998SOL    HW133053   8.923   9.967   5.820  0.6333 -1.1240 -0.2501
 6998SOL    HW233054   8.798   9.874   5.869  0.4985 -0.8603 -0.0854
 6999SOL     OW33055   9.520   6.073   7.399  0.3736 -0.3353  0.1543
 6999SOL    HW133056   9.467   6.065   7.315  0.5053  2.3128 -0.2316
 6999SOL    HW233057   9.580   5.994   7.409 -0.4080 -1.1757 -1.6867
 7000SOL     OW33058   8.329   2.931   5.789 -0.3680  0.0068 -0.9627
 7000SOL    HW133059   8.259   3.000   5.806 -0.5275 -0.0543 -1.3824
 7000SOL    HW233060   8.317   2.892   5.698  0.8285  0.7219 -1.4375
 7001SOL     OW33061   7.363   5.515   2.744 -0.4789 -0.0580  0.0511
 7001SOL    HW133062   7.384   5.608   2.715 -0.5498 -0.4391 -1.2237
 7001SOL    HW233063   7.405   5.498   2.834 -1.9892  1.7874  1.1404
 7002SOL     OW33064   1.909   3.024   7.298 -0.1521 -0.1407  0.2526
 7002SOL    HW133065   1.864   3.064   7.378  1.0872 -0.2313  1.0226
 7002SOL    HW233066   1.859   2.943   7.269 -0.9360  0.2133  0.5893
 7003SOL     OW33067   5.518   1.285   7.438 -0.3726  0.5091  0.1570
 7003SOL    HW133068   5.546   1.190   7.450 -0.7330  0.6906  2.5362
 7003SOL    HW233069   5.599   1.343   7.432 -0.1633  0.5682  3.1140
 7004SOL     OW33070   7.428   1.178   3.774 -0.2033 -0.0898  0.5933
 7004SOL    HW133071   7.431   1.204   3.870 -1.1762 -3.3601  1.5574
 7004SOL    HW233072   7.355   1.229   3.728 -0.1269  1.0375  1.6916
 7005SOL     OW33073   3.764   2.506   0.291 -0.2852  0.3511  0.2503
 7005SOL    HW133074   3.695   2.452   0.339  1.7387 -0.6979  2.0857
 7005SOL    HW233075   3.817   2.559   0.358 -0.7145  2.8473 -1.3207
 7006SOL     OW33076   3.074   4.937   3.874 -0.7796 -0.3930  0.1816
 7006SOL    HW133077   3.015   5.017   3.887 -0.4909 -0.0241 -0.7474
 7006SOL    HW233078   3.169   4.963   3.887 -0.8067 -0.9743  1.5987
 7007SOL     OW33079   3.571   1.068   3.954  0.2217 -0.4104  0.0517
 7007SOL    HW133080   3.591   0.983   4.002  0.9905 -0.2911 -0.0564
 7007SOL    HW233081   3.542   1.048   3.860 -0.0329 -0.5766  0.1675
 7008SOL     OW33082   4.107   1.308   6.919 -0.2406  0.4246 -0.4551
 7008SOL    HW133083   4.092   1.216   6.881  3.1393  0.0546 -1.0448
 7008SOL    HW233084   4.024   1.362   6.908 -1.3024 -1.5932 -2.9691
 7009SOL     OW33085   2.508   7.380   4.000 -0.2768 -0.1816 -0.2293
 7009SOL    HW133086   2.598   7.380   3.956  0.0494  1.1033  0.3907
 7009SOL    HW233087   2.447   7.318   3.951  0.5942 -0.1399 -1.4106
 7010SOL     OW33088   8.788   7.539   7.293  0.0522  0.7667  0.0144
 7010SOL    HW133089   8.755   7.500   7.207  1.5167  1.3603 -0.8400
 7010SOL    HW233090   8.808   7.636   7.280 -1.3093  1.2779  1.4927
 7011SOL     OW33091   5.802   1.675   1.152 -0.2532  0.6086 -0.2997
 7011SOL    HW133092   5.759   1.678   1.242  3.4908  3.5480  1.5437
 7011SOL    HW233093   5.881   1.613   1.154  0.1681  1.0893 -1.3643
 7012SOL     OW33094   2.156   2.309   9.768 -0.3667 -0.4676 -0.0360
 7012SOL    HW133095   2.159   2.277   9.863  1.0351  1.2087  0.5266
 7012SOL    HW233096   2.061   2.307   9.735 -0.7020 -2.1888  0.9875
 7013SOL     OW33097   8.837   6.505   8.410  0.4233 -0.2070 -0.5548
 7013SOL    HW133098   8.748   6.464   8.426 -0.4846  1.3761 -1.4370
 7013SOL    HW233099   8.827   6.604   8.400  2.4324  0.1392  0.5512
 7014SOL     OW33100   8.647   5.293   9.591  0.7087 -0.6242  0.2064
 7014SOL    HW133101   8.570   5.338   9.636 -0.6805 -0.9346 -1.8029
 7014SOL    HW233102   8.697   5.238   9.658 -1.4365 -1.2504  1.3358
 7015SOL     OW33103   8.029   7.742   8.477  0.1386 -0.0879 -0.1371
 7015SOL    HW133104   8.066   7.661   8.522  0.0998 -1.1517 -1.9574
 7015SOL    HW233105   8.101   7.785   8.421 -0.0679  0.6497  0.1542
 7016SOL     OW33106   8.024   2.476   3.284  0.2618 -0.3310  0.3235
 7016SOL    HW133107   7.931   2.499   3.257  0.8501  1.0680 -0.6112
 7016SOL    HW233108   8.088   2.541   3.241  1.6324 -1.0709  1.2022
 7017SOL     OW33109   3.404   3.274   2.408 -0.0801  0.3547 -0.7870
 7017SOL    HW133110   3.457   3.196   2.374 -0.1339 -0.1843  0.3300
 7017SOL    HW233111   3.462   3.327   2.470 -0.7061 -0.0021  0.1121
 7018SOL     OW33112   0.745   8.346   7.990 -0.4813 -0.1428 -0.0432
 7018SOL    HW133113   0.706   8.399   7.915 -1.1744 -0.7323 -0.1023
 7018SOL    HW233114   0.673   8.294   8.036 -0.3276  1.3403  1.9747
 7019SOL     OW33115   8.706   9.183   1.847  0.1945  0.1915 -0.1420
 7019SOL    HW133116   8.646   9.137   1.781  0.3287 -0.3876  0.1432
 7019SOL    HW233117   8.794   9.203   1.805 -0.4053  1.6227 -0.7713
 7020SOL     OW33118   9.481   6.172   2.827 -0.1087 -0.4688  0.5411
 7020SOL    HW133119   9.447   6.079   2.811  1.2437 -0.5874 -1.8454
 7020SOL    HW233120   9.413   6.238   2.795  0.0738 -0.6646 -0.2565
 7021SOL     OW33121   6.603   1.108   8.851 -0.5422  0.1615 -0.3792
 7021SOL    HW133122   6.580   1.034   8.915  0.3116  1.6738  1.7476
 7021SOL    HW233123   6.521   1.138   8.804 -0.9961 -1.7630 -0.8674
 7022SOL     OW33124   1.934   0.031   8.143 -0.5928 -0.1441  0.1883
 7022SOL    HW133125   1.871   0.044   8.220  0.2042 -0.9505  0.9845
 7022SOL    HW233126   1.882   0.004   8.062 -1.3475 -0.1416  0.6636
 7023SOL     OW33127   4.675   8.082   3.153 -0.2091  0.4154  0.4951
 7023SOL    HW133128   4.650   8.174   3.123  0.2016  0.8621  1.4889
 7023SOL    HW233129   4.707   8.086   3.248 -0.5666 -0.8104  0.6742
 7024SOL     OW33130   1.967   4.101   5.092 -0.2663  0.5284  0.0747
 7024SOL    HW133131   2.002   4.185   5.132 -0.9738  1.3046 -0.9131
 7024SOL    HW233132   1.941   4.038   5.165  3.5099 -0.2509  0.8569
 7025SOL     OW33133   7.736   8.166   2.509 -0.2076  0.8274 -0.4269
 7025SOL    HW133134   7.647   8.176   2.552  0.1761 -0.1292  0.6273
 7025SOL    HW233135   7.803   8.225   2.554  0.5510 -1.3350  1.4025
 7026SOL     OW33136   8.514   3.345   0.835  0.5240 -0.0581 -1.1653
 7026SOL    HW133137   8.456   3.426   0.847 -0.5285 -0.9790  0.2587
 7026SOL    HW233138   8.591   3.367   0.776 -0.3495  1.6771 -1.6920
 7027SOL     OW33139   7.899   0.885   8.607  0.4020  0.4209 -0.1366
 7027SOL    HW133140   7.843   0.941   8.546  1.2576 -0.9658 -2.2584
 7027SOL    HW233141   7.906   0.930   8.696 -0.9727  2.4369 -1.0035
 7028SOL     OW33142   7.973   6.189   3.955 -0.0502 -0.6897  0.0509
 7028SOL    HW133143   7.914   6.173   3.876 -0.3195 -0.1256  0.1353
 7028SOL    HW233144   8.039   6.114   3.963  0.1239 -0.6408 -0.8360
 7029SOL     OW33145   2.452   7.636   0.678 -0.5584  0.3850 -0.2177
 7029SOL    HW133146   2.394   7.555   0.668  0.9297 -0.6072 -1.0016
 7029SOL    HW233147   2.547   7.607   0.694 -0.1348  1.9801  0.2572
 7030SOL     OW33148   8.829   2.734   8.633 -0.1555  0.6053  0.0722
 7030SOL    HW133149   8.775   2.717   8.550 -0.4710 -2.4626  0.8498
 7030SOL    HW233150   8.793   2.815   8.679 -1.0297  1.3884 -1.9251
 7031SOL     OW33151   4.363   1.576   1.161  0.0339 -0.1634 -0.3204
 7031SOL    HW133152   4.274   1.601   1.121 -0.3219  0.1460  0.6431
 7031SOL    HW233153   4.362   1.598   1.259  1.8735  1.7374 -0.6934
 7032SOL     OW33154   9.252   5.728   9.751  0.2631 -0.4988  0.0175
 7032SOL    HW133155   9.325   5.793   9.729  0.0505 -0.3330 -0.2025
 7032SOL    HW233156   9.283   5.666   9.823 -0.1926  1.0742  1.6041
 7033SOL     OW33157   4.225   3.370   9.874 -0.7075  0.1316  0.0934
 7033SOL    HW133158   4.131   3.403   9.864 -1.3396 -1.5567  0.2183
 7033SOL    HW233159   4.248   3.311   9.796  0.0629  0.1179  0.3270
 7034SOL     OW33160   8.309   5.624   5.891 -0.0384  0.2901  0.6876
 7034SOL    HW133161   8.374   5.570   5.837 -0.7728  0.0253  0.0537
 7034SOL    HW233162   8.283   5.572   5.973 -0.6155 -0.2585  0.1631
 7035SOL     OW33163   8.613   6.655   0.375 -0.1299 -0.4895  0.0748
 7035SOL    HW133164   8.638   6.589   0.303  1.9950  1.6582 -1.2347
 7035SOL    HW233165   8.517   6.681   0.364 -0.8171 -2.8444  0.2200
 7036SOL     OW33166   4.025   8.654  10.078  0.2819 -0.3015  0.0515
 7036SOL    HW133167   4.065   8.705  10.002 -0.2009  1.3341  0.8690
 7036SOL    HW233168   4.059   8.690  10.164 -0.5109 -0.9987  0.6686
 7037SOL     OW33169   3.585   8.433   7.500  0.2686  0.2703 -0.3271
 7037SOL    HW133170   3.656   8.503   7.484 -0.6979  1.0321 -1.3480
 7037SOL    HW233171   3.523   8.464   7.572  0.1244  0.2524 -0.4428
 7038SOL     OW33172   9.097   6.584   3.888 -0.0241  0.0387  0.1078
 7038SOL    HW133173   9.159   6.526   3.836  0.7899  1.7312 -0.8364
 7038SOL    HW233174   9.133   6.595   3.981 -0.3734 -1.2425  0.4061
 7039SOL     OW33175   8.288   8.744   8.004  0.4777 -0.4900  0.3878
 7039SOL    HW133176   8.241   8.668   7.958 -0.5041  1.3402 -1.7637
 7039SOL    HW233177   8.236   8.770   8.085 -0.8310 -0.1644 -0.5399
 7040SOL     OW33178   9.048   0.858   4.643 -0.5070  0.0429 -0.4429
 7040SOL    HW133179   9.077   0.811   4.560 -0.3009  1.5253 -1.2301
 7040SOL    HW233180   8.980   0.803   4.691 -1.8802 -0.0613 -2.4818
 7041SOL     OW33181   0.314   5.969   0.205  0.2849  0.3523  0.1371
 7041SOL    HW133182   0.246   6.001   0.272  0.4118  2.0149 -0.5201
 7041SOL    HW233183   0.392   6.031   0.206 -0.0585  0.8346 -2.1182
 7042SOL     OW33184   3.353   9.338   9.187  0.2054 -0.2437  0.0295
 7042SOL    HW133185   3.344   9.418   9.127  1.5538 -0.5591 -0.5985
 7042SOL    HW233186   3.410   9.362   9.266  0.1482 -0.4289  0.1292
 7043SOL     OW33187   2.559   2.377   2.289  0.2224 -0.0343 -0.4887
 7043SOL    HW133188   2.460   2.364   2.296  0.5017 -0.8496  3.0784
 7043SOL    HW233189   2.580   2.472   2.268 -1.2781  0.7402  1.4469
 7044SOL     OW33190   0.901   4.858   6.951 -0.3474 -0.0930  0.3818
 7044SOL    HW133191   0.804   4.876   6.934 -0.3157  0.3524  0.6838
 7044SOL    HW233192   0.955   4.940   6.930 -0.0959 -0.1621  0.7624
 7045SOL     OW33193   5.450   1.242   8.667  0.3273  0.0602  0.0486
 7045SOL    HW133194   5.437   1.148   8.697  1.3618 -0.7680 -1.9802
 7045SOL    HW233195   5.442   1.246   8.567 -0.7250  2.3042  0.1934
 7046SOL     OW33196   3.652   8.346   0.738  0.8882  0.5920 -0.1454
 7046SOL    HW133197   3.713   8.332   0.816  0.3906  1.2570  0.3704
 7046SOL    HW233198   3.706   8.366   0.657  1.3369  1.7611  0.4359
 7047SOL     OW33199   9.867   7.766   3.788  0.4107  0.2842  0.0952
 7047SOL    HW133200   9.931   7.762   3.711 -0.7295  0.2777 -0.8700
 7047SOL    HW233201   9.826   7.857   3.793 -0.1230  0.0414  0.1980
 7048SOL     OW33202   2.149   3.101   1.191  0.5450 -0.0816 -0.2671
 7048SOL    HW133203   2.248   3.089   1.193  0.3603 -1.7816  0.1681
 7048SOL    HW233204   2.125   3.173   1.127  2.1086  0.9758  0.2993
 7049SOL     OW33205   5.497   9.806   1.651 -0.3048  0.0923 -0.1169
 7049SOL    HW133206   5.456   9.882   1.701  0.3416 -0.0182  0.5942
 7049SOL    HW233207   5.558   9.842   1.580 -0.8056  0.2447 -0.4699
 7050SOL     OW33208   1.166   6.437   6.684 -0.0933 -0.2164 -0.6354
 7050SOL    HW133209   1.093   6.396   6.630  0.0054  1.5785 -2.1688
 7050SOL    HW233210   1.229   6.487   6.624  0.4652  1.1351  1.0227
 7051SOL     OW33211   9.832   7.531   5.410 -0.5657  0.0598 -0.1007
 7051SOL    HW133212   9.848   7.529   5.311  0.7098 -1.1677  0.1133
 7051SOL    HW233213   9.798   7.442   5.440  0.2329  0.0274  0.7351
 7052SOL     OW33214   8.987   0.820   5.159  0.4940 -0.4372  0.4092
 7052SOL    HW133215   8.920   0.875   5.109  0.5334  0.8261  1.7280
 7052SOL    HW233216   9.051   0.778   5.094 -1.3035 -1.3096 -0.8223
 7053SOL     OW33217   4.086   1.710   1.833  0.4264  0.1475  0.0998
 7053SOL    HW133218   4.035   1.777   1.780 -0.1439 -2.2358 -2.4346
 7053SOL    HW233219   4.166   1.755   1.875 -0.9632  2.7813  0.0467
 7054SOL     OW33220   9.360   8.688   5.883 -0.0702 -0.3953  0.6849
 7054SOL    HW133221   9.420   8.695   5.803 -0.8378 -1.9061 -0.0432
 7054SOL    HW233222   9.405   8.631   5.952  0.3220  0.4015  1.1045
 7055SOL     OW33223   7.558   5.305   7.671 -0.4476  0.1346  0.2835
 7055SOL    HW133224   7.612   5.362   7.733 -2.6802  2.2674  0.3476
 7055SOL    HW233225   7.615   5.277   7.594  0.6644  2.6776  0.1214
 7056SOL     OW33226   5.147   6.058   1.981  0.0273 -0.1492 -0.6286
 7056SOL    HW133227   5.113   5.974   1.939 -1.0688  0.0432 -0.1653
 7056SOL    HW233228   5.156   6.044   2.080 -2.0559  0.8481 -0.2621
 7057SOL     OW33229   1.940   6.288   2.622  0.3307  0.3926 -0.1528
 7057SOL    HW133230   1.939   6.327   2.715  2.1504  0.7591 -0.2653
 7057SOL    HW233231   1.862   6.324   2.571 -0.5840  0.3481  1.1629
 7058SOL     OW33232   7.502   0.004   1.035  0.0147 -0.1549 -0.0339
 7058SOL    HW133233   7.470   0.072   0.969 -0.3887 -1.5740 -1.3407
 7058SOL    HW233234   7.583   0.038   1.082 -0.6117  1.5216 -0.1366
 7059SOL     OW33235   6.438   5.375   7.145  0.7986  0.2782 -0.0562
 7059SOL    HW133236   6.377   5.435   7.093 -0.6941 -1.3437 -0.2364
 7059SOL    HW233237   6.523   5.423   7.164 -0.2404  2.3549 -0.4344
 7060SOL     OW33238   9.343   8.457   3.930 -0.0661 -0.4324  0.2311
 7060SOL    HW133239   9.394   8.543   3.930  0.1650 -0.5274  3.5184
 7060SOL    HW233240   9.266   8.465   3.866 -0.1983  2.3049  0.6733
 7061SOL     OW33241   6.843   6.866   4.245  0.0342 -0.9167  0.3692
 7061SOL    HW133242   6.940   6.855   4.268  0.2129 -0.6106 -0.2404
 7061SOL    HW233243   6.822   6.814   4.163  0.0389  0.2502 -0.3850
 7062SOL     OW33244   8.697   8.340  10.047 -0.1781 -0.3841  0.5513
 7062SOL    HW133245   8.774   8.282  10.021  0.2103 -0.5965  2.0919
 7062SOL    HW233246   8.646   8.295  10.121 -0.3941  0.8125  1.1447
 7063SOL     OW33247   3.251   4.452   3.102 -0.0069 -0.1073 -0.0380
 7063SOL    HW133248   3.303   4.426   3.021 -0.6449 -1.1662 -0.1204
 7063SOL    HW233249   3.288   4.404   3.182 -0.8830 -0.9289 -0.1093
 7064SOL     OW33250   9.962   7.243   4.945  0.0911  0.0493  0.4993
 7064SOL    HW133251  10.015   7.171   4.901  0.2955  0.5385 -0.0678
 7064SOL    HW233252  10.022   7.298   5.003  0.4267  1.2295 -0.9339
 7065SOL     OW33253   3.291   7.797   9.363 -0.1318 -0.0798  0.1003
 7065SOL    HW133254   3.226   7.856   9.315 -0.6333 -1.3116 -0.7720
 7065SOL    HW233255   3.337   7.738   9.296  1.5548  0.4548  0.7567
 7066SOL     OW33256   3.801   9.063   5.342 -0.2778 -0.5306  0.5234
 7066SOL    HW133257   3.773   9.081   5.248 -1.0226 -0.9115  0.6721
 7066SOL    HW233258   3.860   8.982   5.345  0.7488  0.1881  0.2307
 7067SOL     OW33259   8.176   8.055   1.221  0.1559  0.2480  0.6371
 7067SOL    HW133260   8.177   8.113   1.302  1.0477  1.0142  0.1008
 7067SOL    HW233261   8.214   8.106   1.143 -1.6820 -0.0968 -0.5239
 7068SOL     OW33262   3.133   2.138   4.997  0.4348  0.0293 -0.0023
 7068SOL    HW133263   3.166   2.074   4.927 -1.0758 -0.4900 -0.2609
 7068SOL    HW233264   3.116   2.227   4.956  0.4555 -0.0123 -0.1002
 7069SOL     OW33265   4.206   8.174   4.819  1.0415  0.6785 -0.3876
 7069SOL    HW133266   4.156   8.261   4.814  1.2865  0.9675  1.6399
 7069SOL    HW233267   4.301   8.192   4.845  1.2128 -0.1743 -0.4112
 7070SOL     OW33268   1.729   4.599   1.024 -0.6183 -0.1468  0.1942
 7070SOL    HW133269   1.691   4.649   0.947  2.3134  1.4641 -0.2870
 7070SOL    HW233270   1.776   4.517   0.992  0.1883  0.2661  0.3078
 7071SOL     OW33271   3.700   3.806   5.953 -0.5397 -0.0288  0.3542
 7071SOL    HW133272   3.755   3.769   6.027  1.2080  0.6453 -0.5862
 7071SOL    HW233273   3.656   3.732   5.903 -1.5367 -0.5024  1.8780
 7072SOL     OW33274   8.001   7.374   8.003  0.1571 -0.2659  0.4156
 7072SOL    HW133275   8.045   7.379   8.092 -0.5615  2.9289  0.6543
 7072SOL    HW233276   8.067   7.344   7.934  2.0052  1.8481  1.2137
 7073SOL     OW33277   1.353   3.860   0.213  0.5513 -0.0752  0.6537
 7073SOL    HW133278   1.357   3.800   0.133  0.1310 -0.6150  1.0334
 7073SOL    HW233279   1.260   3.893   0.225  0.2039 -1.4697  1.9858
 7074SOL     OW33280   5.594   7.753   3.803 -0.4530 -0.2442 -0.0372
 7074SOL    HW133281   5.576   7.685   3.875 -2.5499  2.1741  1.7957
 7074SOL    HW233282   5.628   7.706   3.722  0.0059 -3.2878  1.8098
 7075SOL     OW33283   7.817   9.034   4.806 -0.4411 -0.5239 -0.4331
 7075SOL    HW133284   7.867   9.099   4.862 -0.4120 -0.4895 -0.4990
 7075SOL    HW233285   7.723   9.026   4.840 -1.0601  1.1177 -1.6683
 7076SOL     OW33286   4.531   2.031   8.019 -0.1549 -0.7436  0.2432
 7076SOL    HW133287   4.558   2.111   8.073  1.6830 -3.3311  3.3667
 7076SOL    HW233288   4.609   2.001   7.963 -0.6254 -0.7303 -0.4200
 7077SOL     OW33289   8.163   6.813   6.746  0.1516 -0.2152 -0.0043
 7077SOL    HW133290   8.208   6.763   6.672  0.2726  0.9788 -0.7517
 7077SOL    HW233291   8.187   6.910   6.741 -0.4506  0.0069  1.1409
 7078SOL     OW33292   4.669   3.548   1.562 -0.3269  0.1399 -0.1733
 7078SOL    HW133293   4.645   3.524   1.468 -1.1559 -0.8994  0.2946
 7078SOL    HW233294   4.651   3.470   1.622  0.8488  0.5569  0.7510
 7079SOL     OW33295   4.368   7.401   2.504  0.7327 -0.1317 -0.0618
 7079SOL    HW133296   4.418   7.487   2.502  0.3977  0.1010  1.5249
 7079SOL    HW233297   4.430   7.326   2.527  1.0343 -0.3481 -1.4908
 7080SOL     OW33298   9.174   8.240   9.509  0.1528  0.5024 -0.2017
 7080SOL    HW133299   9.195   8.184   9.590 -0.1447 -0.7090 -0.9448
 7080SOL    HW233300   9.126   8.322   9.537 -1.7512 -0.8835  0.6867
 7081SOL     OW33301   2.006   4.261   4.375 -0.2470  0.4185  0.4211
 7081SOL    HW133302   2.102   4.284   4.387 -0.0493 -1.0290  1.6764
 7081SOL    HW233303   1.993   4.162   4.382 -1.6663  0.4870 -0.8782
 7082SOL     OW33304   7.259   5.123   8.457  0.2636 -0.0915 -0.3329
 7082SOL    HW133305   7.316   5.178   8.518 -2.9736  1.3350  1.5501
 7082SOL    HW233306   7.270   5.157   8.363  3.2192 -0.5256 -0.1865
 7083SOL     OW33307   2.840   1.322   2.482  0.0790  0.2038  0.0838
 7083SOL    HW133308   2.759   1.305   2.539  0.6037  1.1818  1.1288
 7083SOL    HW233309   2.826   1.405   2.429  0.3827  0.3365  0.2149
 7084SOL     OW33310   9.316   1.583   4.165  0.2840 -0.3995  0.0590
 7084SOL    HW133311   9.409   1.554   4.143  0.5265 -0.6584  1.3910
 7084SOL    HW233312   9.277   1.633   4.087  1.4760 -0.4121 -0.5524
 7085SOL     OW33313   6.261   5.138   7.444 -0.3565  0.1020 -0.0395
 7085SOL    HW133314   6.187   5.071   7.447  1.0141 -1.4634 -0.3062
 7085SOL    HW233315   6.283   5.159   7.348  1.8477 -2.1061 -0.0729
 7086SOL     OW33316   8.879   0.106   7.435 -0.1186 -0.7428 -0.6398
 7086SOL    HW133317   8.924   0.026   7.394  0.5774 -0.3943 -0.5636
 7086SOL    HW233318   8.807   0.075   7.496 -0.3543 -1.2988 -1.1815
 7087SOL     OW33319   7.035   0.998   1.328 -0.2389 -0.4748 -0.0553
 7087SOL    HW133320   7.032   1.043   1.239 -1.0035  0.7208  0.5737
 7087SOL    HW233321   6.943   0.969   1.355 -0.0733 -0.4722  0.5296
 7088SOL     OW33322   3.770   8.753   8.489  0.1426  0.8749  0.2096
 7088SOL    HW133323   3.773   8.780   8.585  1.3248 -0.0551  0.4444
 7088SOL    HW233324   3.680   8.715   8.469 -0.7480  2.7797  0.4579
 7089SOL     OW33325   4.967   9.438   7.041 -0.2587  0.3173  0.1232
 7089SOL    HW133326   4.921   9.517   7.079 -1.3812  0.1186 -0.8035
 7089SOL    HW233327   4.907   9.392   6.976  0.8519 -0.5610 -0.3026
 7090SOL     OW33328   8.874   8.199   5.897 -0.0310  0.4935  0.3167
 7090SOL    HW133329   8.863   8.272   5.963 -0.4873 -0.1690  0.9913
 7090SOL    HW233330   8.899   8.114   5.944 -2.8863 -0.6182 -0.0035
 7091SOL     OW33331   4.361   2.838   0.223 -0.7223  0.1611 -0.3180
 7091SOL    HW133332   4.415   2.864   0.303 -2.0255 -0.1713  0.6928
 7091SOL    HW233333   4.345   2.918   0.166 -0.3586  0.5453  0.1141
 7092SOL     OW33334   7.281   3.034   9.418  0.5968 -0.3375 -0.4657
 7092SOL    HW133335   7.303   2.947   9.373 -0.3214  0.0434 -1.6912
 7092SOL    HW233336   7.199   3.073   9.375  0.4058  0.6310  0.7654
 7093SOL     OW33337   3.158   8.642   9.918 -0.5773 -0.1799 -0.0539
 7093SOL    HW133338   3.224   8.638   9.992 -0.1483 -0.8363 -0.4634
 7093SOL    HW233339   3.083   8.578   9.937 -0.7571  0.0705  0.0856
 7094SOL     OW33340   0.543   9.533   7.125  0.3364  0.0728 -0.0154
 7094SOL    HW133341   0.531   9.468   7.050 -1.4323  1.3432 -0.8358
 7094SOL    HW233342   0.528   9.486   7.212  0.1785 -0.8826 -0.5528
 7095SOL     OW33343   6.195   4.490   8.823  0.2381  0.6939 -0.2016
 7095SOL    HW133344   6.136   4.571   8.824  0.9328  1.2188 -1.1470
 7095SOL    HW233345   6.177   4.437   8.741  0.5344  0.4446 -0.1068
 7096SOL     OW33346   7.100   6.303   1.816 -0.4727 -0.3108  0.3300
 7096SOL    HW133347   7.123   6.397   1.842  0.2664  0.0736 -1.6241
 7096SOL    HW233348   7.059   6.302   1.725  0.9057 -2.0331 -0.3091
 7097SOL     OW33349   0.718   8.602   9.540 -0.1414  0.3875 -0.2721
 7097SOL    HW133350   0.635   8.611   9.485  0.1296  0.0174 -0.7403
 7097SOL    HW233351   0.742   8.691   9.579 -1.9814  0.0960  1.6531
 7098SOL     OW33352   8.453   2.645   3.581 -0.3941 -0.4989  0.6429
 7098SOL    HW133353   8.503   2.575   3.632 -1.3622 -1.3327  0.4629
 7098SOL    HW233354   8.402   2.603   3.507 -1.0957  0.3782  0.6115
 7099SOL     OW33355   7.894   4.605   1.173 -0.2046 -0.3743  0.0987
 7099SOL    HW133356   7.984   4.585   1.135 -0.7325  0.7357 -1.8074
 7099SOL    HW233357   7.830   4.534   1.146 -0.1837 -0.5038  0.3915
 7100SOL     OW33358   4.491   0.396   2.832  0.4308 -0.1587 -0.0180
 7100SOL    HW133359   4.555   0.371   2.759 -0.2921  0.2791 -0.8024
 7100SOL    HW233360   4.434   0.473   2.803 -0.5765 -0.6526  0.6076
 7101SOL     OW33361   1.659   8.298   4.979 -0.3825  0.0377 -0.2666
 7101SOL    HW133362   1.574   8.245   4.971 -1.3476  1.6438 -0.6755
 7101SOL    HW233363   1.723   8.269   4.908 -0.4640 -1.3868  0.2224
 7102SOL     OW33364   0.388   2.482   6.948  0.7090 -0.5434 -0.0285
 7102SOL    HW133365   0.447   2.404   6.925  1.8062  0.5911 -1.1139
 7102SOL    HW233366   0.319   2.494   6.876  0.3242 -0.7205  0.3101
 7103SOL     OW33367   6.817   7.721   5.384 -0.1313 -0.2427  0.2601
 7103SOL    HW133368   6.878   7.800   5.392 -0.1996 -0.1460 -0.1556
 7103SOL    HW233369   6.743   7.743   5.320 -0.8783 -0.1845  1.1316
 7104SOL     OW33370   0.351   6.558   4.846 -0.1137  0.4212 -0.2212
 7104SOL    HW133371   0.273   6.619   4.854  0.1132  0.6337  0.3777
 7104SOL    HW233372   0.391   6.567   4.755 -0.2851  0.9129 -0.2482
 7105SOL     OW33373   3.843   8.105   3.411  0.0513 -0.5415 -0.3722
 7105SOL    HW133374   3.753   8.137   3.381  0.7678  1.2806 -0.6411
 7105SOL    HW233375   3.866   8.020   3.363 -2.2202 -1.9455  0.9207
 7106SOL     OW33376   2.682   6.378   5.300  0.1229 -0.3693  0.0953
 7106SOL    HW133377   2.768   6.362   5.349  0.8532 -0.6889 -1.2711
 7106SOL    HW233378   2.702   6.408   5.206 -1.2582  0.1635 -0.0444
 7107SOL     OW33379   2.045   1.442   4.557 -0.1365 -0.2655  0.3004
 7107SOL    HW133380   2.026   1.345   4.544  1.0630 -0.4163 -0.2921
 7107SOL    HW233381   2.114   1.453   4.628 -1.6194  0.2546  1.7202
 7108SOL     OW33382   8.077   2.916   3.672 -0.1313 -0.2691 -0.0841
 7108SOL    HW133383   8.004   2.912   3.741 -1.6032 -1.5019 -1.6547
 7108SOL    HW233384   8.055   2.853   3.597  0.0885  2.9345 -2.9687
 7109SOL     OW33385   2.340   4.845   0.641 -0.0712  0.7649 -0.8388
 7109SOL    HW133386   2.420   4.839   0.700 -0.0489  1.2617 -0.8183
 7109SOL    HW233387   2.303   4.938   0.644 -0.6719  0.5300 -0.8127
 7110SOL     OW33388   4.567   6.882   0.765  0.0435 -0.4717  0.2410
 7110SOL    HW133389   4.660   6.914   0.785  0.4677 -1.9056  0.6563
 7110SOL    HW233390   4.504   6.960   0.765  1.1949  0.4837  0.2139
 7111SOL     OW33391   4.495   8.356   5.696 -0.4012  0.3124  0.4073
 7111SOL    HW133392   4.412   8.389   5.653  0.9910  1.2799 -1.6173
 7111SOL    HW233393   4.531   8.426   5.758  1.4340  1.8782 -2.3244
 7112SOL     OW33394   9.859   4.497   5.015 -0.3639 -0.0898 -0.1931
 7112SOL    HW133395   9.931   4.563   4.996 -0.1881 -0.4273 -0.7315
 7112SOL    HW233396   9.868   4.419   4.952 -1.6499  0.2254 -0.7959
 7113SOL     OW33397   8.182   9.434   2.461  0.3433 -0.0014 -0.0369
 7113SOL    HW133398   8.217   9.526   2.472 -0.8421  0.3746  0.6813
 7113SOL    HW233399   8.254   9.374   2.426  0.7075  1.5050 -1.9472
 7114SOL     OW33400   1.491   5.542   8.643 -0.0423  0.4332 -0.5276
 7114SOL    HW133401   1.446   5.520   8.556 -0.7104  0.4885 -0.1970
 7114SOL    HW233402   1.558   5.471   8.664  1.9717  1.7090 -2.3506
 7115SOL     OW33403   2.143   2.870   2.034  0.0514  0.5025 -0.1409
 7115SOL    HW133404   2.206   2.861   1.957  0.2539 -0.3099  0.1173
 7115SOL    HW233405   2.187   2.836   2.117 -1.6232 -2.4641 -0.4131
 7116SOL     OW33406   4.331   4.283   9.864 -0.2745 -0.1595  0.2279
 7116SOL    HW133407   4.277   4.343   9.805  1.8656  1.5293 -0.1114
 7116SOL    HW233408   4.338   4.324   9.956 -1.1266 -1.3015  0.8116
 7117SOL     OW33409   2.272   9.634   8.252  0.9062  0.0678 -0.7561
 7117SOL    HW133410   2.176   9.660   8.239  2.1088  4.8792 -0.9934
 7117SOL    HW233411   2.317   9.628   8.163  1.4822  0.6805 -0.5105
 7118SOL     OW33412   2.484   3.243   6.579 -0.1354 -0.3126  0.1009
 7118SOL    HW133413   2.466   3.144   6.574  1.1670 -0.5310 -0.4200
 7118SOL    HW233414   2.401   3.293   6.556 -1.2826 -1.2671  1.9872
 7119SOL     OW33415   1.859   8.445   6.372 -0.1085 -0.1027 -0.1759
 7119SOL    HW133416   1.787   8.496   6.420  0.5379  1.3501 -0.7186
 7119SOL    HW233417   1.820   8.363   6.331 -1.7835  1.4413 -1.7477
 7120SOL     OW33418   9.379   5.519   4.204 -0.3662  0.7460  0.0061
 7120SOL    HW133419   9.281   5.500   4.213 -0.1051 -1.2887 -1.0857
 7120SOL    HW233420   9.401   5.603   4.254 -2.3826  0.4245  1.5264
 7121SOL     OW33421   6.254   9.775   3.503 -0.1856  0.1626  0.3291
 7121SOL    HW133422   6.214   9.719   3.431  1.4156  0.0412 -0.4920
 7121SOL    HW233423   6.182   9.828   3.548 -1.1565  0.5149 -1.5929
 7122SOL     OW33424   7.061   9.925   4.812 -0.3332  0.3888 -0.1305
 7122SOL    HW133425   7.090   9.991   4.881 -0.2969  0.6284 -0.3720
 7122SOL    HW233426   7.120   9.845   4.815 -0.0144  0.6195 -0.2263
 7123SOL     OW33427   5.133   4.518   0.610  0.2250  0.1257 -0.3638
 7123SOL    HW133428   5.175   4.587   0.668  1.1851 -1.1610  0.5182
 7123SOL    HW233429   5.045   4.551   0.576  0.1673  1.3415  0.9249
 7124SOL     OW33430   2.585   5.815   6.570  0.4503 -0.1121 -0.0245
 7124SOL    HW133431   2.498   5.862   6.585 -0.2821 -1.6643  0.7446
 7124SOL    HW233432   2.568   5.729   6.522  1.8082  0.5661 -1.7622
 7125SOL     OW33433   1.708   0.460   9.099  0.0324  0.1957 -0.1152
 7125SOL    HW133434   1.651   0.456   9.017 -2.0553  3.7048  1.0558
 7125SOL    HW233435   1.783   0.525   9.084  0.4201 -0.1498  0.3155
 7126SOL     OW33436   3.676   6.811   1.925  0.0281 -0.3684  0.1428
 7126SOL    HW133437   3.754   6.761   1.887  0.7278  0.3134  0.6938
 7126SOL    HW233438   3.699   6.907   1.936 -0.8540 -0.1807  0.4230
 7127SOL     OW33439   4.417   1.819   5.918  0.1699 -0.2228  0.2061
 7127SOL    HW133440   4.347   1.757   5.955 -1.0211  0.5966 -0.6199
 7127SOL    HW233441   4.497   1.766   5.891 -0.2814 -1.2323  0.7953
 7128SOL     OW33442   4.394   7.091   1.066 -0.7264 -0.7026  1.0994
 7128SOL    HW133443   4.402   7.092   0.966 -2.6586  1.1123  0.9256
 7128SOL    HW233444   4.379   6.997   1.097 -1.1650 -1.1491 -0.4085
 7129SOL     OW33445   6.096   4.926   0.585  0.0397 -0.3794  0.1311
 7129SOL    HW133446   6.069   4.932   0.681  0.1742 -0.2208  0.1589
 7129SOL    HW233447   6.029   4.870   0.535 -0.5484  0.3325  0.1150
 7130SOL     OW33448   9.455   4.470   9.425  0.1562 -0.1653  0.0577
 7130SOL    HW133449   9.527   4.531   9.458  0.1824  0.1512 -0.5903
 7130SOL    HW233450   9.497   4.385   9.391  0.0905 -0.7366  1.3515
 7131SOL     OW33451   9.957   1.771   0.497  0.2589  0.1727 -0.3085
 7131SOL    HW133452   9.958   1.671   0.502 -0.5331  0.1823  0.1388
 7131SOL    HW233453  10.050   1.806   0.505  0.2312 -0.3711  3.4599
 7132SOL     OW33454   4.137   6.160   9.935  0.1573  0.0262 -0.3615
 7132SOL    HW133455   4.123   6.230  10.005 -2.3950  0.8025 -1.5997
 7132SOL    HW233456   4.092   6.075   9.962  1.8975 -0.7042  0.3836
 7133SOL     OW33457   1.963   9.147   5.739 -0.0247  0.3700  0.1017
 7133SOL    HW133458   2.052   9.176   5.774  0.6097  0.1845 -1.3130
 7133SOL    HW233459   1.954   9.048   5.745 -0.4505  0.4504  0.9340
 7134SOL     OW33460   8.392   4.365   2.095 -0.0526  0.1066  1.1319
 7134SOL    HW133461   8.492   4.368   2.107 -0.0744  0.8044  1.1589
 7134SOL    HW233462   8.361   4.451   2.054 -0.5047 -0.5820  0.0160
 7135SOL     OW33463   5.268   8.011   3.486 -0.3458 -0.0357  0.1450
 7135SOL    HW133464   5.329   8.024   3.408  1.5533 -0.0274  1.5992
 7135SOL    HW233465   5.318   7.967   3.561 -2.5222 -1.3637  0.8584
 7136SOL     OW33466   0.491   8.135   9.517 -0.2778  0.1274  0.6158
 7136SOL    HW133467   0.586   8.110   9.498 -0.3036  0.3269  0.2002
 7136SOL    HW233468   0.487   8.190   9.600  0.1206  1.0977  0.0131
 7137SOL     OW33469   9.398   4.390   7.809 -0.3689  0.1623  0.2097
 7137SOL    HW133470   9.432   4.455   7.878  1.5160  0.8028 -1.2781
 7137SOL    HW233471   9.383   4.438   7.723 -1.2278 -0.9350 -0.2622
 7138SOL     OW33472   1.157   5.102   2.067 -0.5777 -0.1197  0.2716
 7138SOL    HW133473   1.092   5.050   2.013 -0.5011 -0.3296  0.3822
 7138SOL    HW233474   1.185   5.048   2.146  2.2908 -1.3868 -1.5374
 7139SOL     OW33475   0.707   4.619   8.980  0.4349  0.0631 -0.0289
 7139SOL    HW133476   0.696   4.538   9.038  0.2254 -0.4407 -0.7735
 7139SOL    HW233477   0.730   4.591   8.887  0.5441  0.8696 -0.2488
 7140SOL     OW33478   2.890   6.796   5.423  0.0761 -0.0994 -0.4237
 7140SOL    HW133479   2.800   6.754   5.412  0.4641 -0.9512 -0.3718
 7140SOL    HW233480   2.901   6.828   5.517 -0.2167  0.1004 -0.4589
 7141SOL     OW33481   1.731   9.387   2.119 -0.4942 -0.4850  0.1909
 7141SOL    HW133482   1.632   9.376   2.108 -0.7798  2.7106 -0.9203
 7141SOL    HW233483   1.778   9.338   2.046 -1.2511 -1.5896  0.4235
 7142SOL     OW33484   8.962   6.616   5.462  0.3940  0.5430 -0.2818
 7142SOL    HW133485   8.985   6.520   5.446  2.2173  0.8423  0.4020
 7142SOL    HW233486   8.877   6.622   5.514  0.5945 -0.7158  0.2074
 7143SOL     OW33487   5.083   1.342   4.793  0.3917 -0.4367 -0.4389
 7143SOL    HW133488   5.144   1.300   4.726 -0.5145  0.2165 -1.6883
 7143SOL    HW233489   5.016   1.274   4.824  1.4233 -1.0161  0.5681
 7144SOL     OW33490   9.680   2.414   8.984 -0.0953 -0.3183 -0.4114
 7144SOL    HW133491   9.759   2.355   8.973 -0.2863 -0.3507 -1.5886
 7144SOL    HW233492   9.597   2.364   8.960 -0.4899 -0.2848  0.8174
 7145SOL     OW33493   7.607   3.396   1.326  0.0723  0.3261  0.1001
 7145SOL    HW133494   7.512   3.367   1.334 -0.5603  1.9782 -1.2370
 7145SOL    HW233495   7.647   3.357   1.243  0.9443 -1.3261  1.2594
 7146SOL     OW33496   0.697   9.675   6.204 -0.2021 -0.8508 -0.3304
 7146SOL    HW133497   0.790   9.688   6.239 -0.1848  1.6570 -1.2107
 7146SOL    HW233498   0.666   9.759   6.159 -4.5402  0.0207  3.8254
 7147SOL     OW33499   5.453   3.285   0.292 -0.3421 -0.1037 -0.4290
 7147SOL    HW133500   5.478   3.225   0.368  0.7240  1.2395  0.2993
 7147SOL    HW233501   5.496   3.250   0.208  0.5028 -0.2114  0.0391
 7148SOL     OW33502   1.163   4.348   5.336  0.2660  1.3324 -0.3468
 7148SOL    HW133503   1.157   4.387   5.244 -1.9343  1.9184  0.0054
 7148SOL    HW233504   1.071   4.340   5.374  0.9761 -1.0260  0.9396
 7149SOL     OW33505   8.918   0.512   4.768 -0.2447  0.4225 -0.0018
 7149SOL    HW133506   8.870   0.591   4.728  1.0212  0.9773 -0.4357
 7149SOL    HW233507   8.993   0.544   4.825  0.2208 -0.4792 -0.1032
 7150SOL     OW33508   3.933   9.703   9.390  0.0294 -0.0044  0.0989
 7150SOL    HW133509   3.876   9.681   9.311  0.8744 -0.1526 -0.4819
 7150SOL    HW233510   3.990   9.782   9.367  1.8580 -1.3913 -0.2231
 7151SOL     OW33511   7.282   0.383   8.520 -0.5515  0.4957  0.1393
 7151SOL    HW133512   7.329   0.315   8.465  1.4722  1.8978  0.0664
 7151SOL    HW233513   7.245   0.455   8.461  0.8450  1.5349  0.4966
 7152SOL     OW33514   9.058   7.446   1.572  0.1905  0.1455 -0.3068
 7152SOL    HW133515   9.152   7.445   1.608  0.8785  0.7099 -2.0473
 7152SOL    HW233516   9.045   7.367   1.513 -0.3539  0.2250 -0.2908
 7153SOL     OW33517   4.825   1.518   8.685  0.2080  0.3246 -0.4690
 7153SOL    HW133518   4.866   1.488   8.599  1.1912  0.4681 -0.0538
 7153SOL    HW233519   4.856   1.611   8.705 -0.8984  0.7082 -0.5193
 7154SOL     OW33520   9.074   4.049   5.359 -0.1139 -0.3521  1.0211
 7154SOL    HW133521   9.084   4.007   5.450  2.9562 -1.0635  0.4305
 7154SOL    HW233522   9.118   4.139   5.360 -0.7818 -0.0233  0.4606
 7155SOL     OW33523   8.218   4.680   5.183  0.1316 -0.2139  0.2912
 7155SOL    HW133524   8.176   4.618   5.249 -0.3191 -0.6952 -0.4449
 7155SOL    HW233525   8.275   4.628   5.119 -0.5675  0.0824 -0.5740
 7156SOL     OW33526   8.202   4.215   9.511 -1.1607  0.2320 -0.2408
 7156SOL    HW133527   8.286   4.247   9.468 -0.5794 -1.8083 -0.6837
 7156SOL    HW233528   8.221   4.182   9.603 -1.7090  0.9647  0.1399
 7157SOL     OW33529   9.355   0.786   8.879  0.2519 -0.1973  0.0118
 7157SOL    HW133530   9.411   0.864   8.851 -0.2575  0.3191  0.4236
 7157SOL    HW233531   9.264   0.793   8.837 -1.0861  1.4706  3.0334
 7158SOL     OW33532   5.542   8.697   6.250  0.2348  0.0802 -0.6874
 7158SOL    HW133533   5.446   8.702   6.225  0.5202  2.4606 -1.3729
 7158SOL    HW233534   5.557   8.741   6.339  0.7576  0.1169 -0.7882
 7159SOL     OW33535   3.898   2.053   5.021  0.0448 -0.2323  0.8347
 7159SOL    HW133536   3.948   2.139   5.011 -0.3383  0.0378  1.2355
 7159SOL    HW233537   3.799   2.071   5.021 -0.1325 -0.9303 -1.7254
 7160SOL     OW33538   0.787   9.042   0.887 -0.3291 -0.5718  0.3633
 7160SOL    HW133539   0.715   8.973   0.899  0.2087 -0.8389  2.1077
 7160SOL    HW233540   0.849   9.039   0.965  0.6874  0.7295 -0.3888
 7161SOL     OW33541   0.918   4.810   9.236  0.0049 -0.6376  0.3081
 7161SOL    HW133542   0.965   4.833   9.151 -0.6855 -0.0294  0.0871
 7161SOL    HW233543   0.835   4.866   9.245  0.5947  0.0352  1.8641
 7162SOL     OW33544   7.863   5.816   3.893  0.2616 -0.2572 -0.0104
 7162SOL    HW133545   7.892   5.819   3.989  0.2392  2.4072 -0.0599
 7162SOL    HW233546   7.823   5.904   3.867  1.0410 -0.6414 -2.6992
 7163SOL     OW33547   0.480   0.563   4.405 -0.5562 -0.5958 -0.1599
 7163SOL    HW133548   0.513   0.598   4.317  0.6782 -0.3500  0.3861
 7163SOL    HW233549   0.462   0.639   4.467  0.7601 -0.8510  0.5497
 7164SOL     OW33550   1.225   2.739   0.486 -0.2057 -0.0937  0.4655
 7164SOL    HW133551   1.291   2.706   0.554  0.9767  0.4233 -0.4206
 7164SOL    HW233552   1.270   2.803   0.424 -1.4017 -0.1818 -0.5110
 7165SOL     OW33553   0.194   8.150   9.508  0.0671 -0.5031  0.1323
 7165SOL    HW133554   0.288   8.180   9.519  0.5161 -2.2345  1.1969
 7165SOL    HW233555   0.135   8.230   9.497  1.7034  0.5700 -1.0953
 7166SOL     OW33556   7.607   0.237   6.186  0.3585 -0.1059 -0.0228
 7166SOL    HW133557   7.613   0.161   6.251  1.5757 -1.9492 -2.1943
 7166SOL    HW233558   7.658   0.315   6.222  1.3687 -1.2269  1.0588
 7167SOL     OW33559   0.214   3.424   2.023  0.5021 -0.3062 -0.0904
 7167SOL    HW133560   0.232   3.448   1.928 -0.2510 -0.1748 -0.2072
 7167SOL    HW233561   0.220   3.505   2.081 -3.0726  0.4311 -0.6378
 7168SOL     OW33562   3.216   5.939   6.363 -0.5526 -0.0895  0.2594
 7168SOL    HW133563   3.135   5.913   6.311 -0.4727  0.8610 -0.3584
 7168SOL    HW233564   3.188   5.971   6.454 -0.8097 -0.3973  0.2901
 7169SOL     OW33565   8.205   6.097   9.335 -0.6396 -0.3633 -0.8026
 7169SOL    HW133566   8.169   6.142   9.416 -1.1863  0.2546 -1.3835
 7169SOL    HW233567   8.129   6.063   9.279 -0.3243  0.7714 -1.9360
 7170SOL     OW33568   6.248   8.467   5.191  0.3606  0.0253 -0.4941
 7170SOL    HW133569   6.325   8.454   5.254  0.2238 -1.6718 -0.6533
 7170SOL    HW233570   6.243   8.389   5.129 -2.0449 -0.3059  0.0919
 7171SOL     OW33571   4.570   4.659   5.811 -0.0024 -0.5408  0.9015
 7171SOL    HW133572   4.580   4.563   5.784  0.2264 -0.4556  0.6780
 7171SOL    HW233573   4.511   4.706   5.744  2.5655  0.2613 -0.8636
 7172SOL     OW33574   5.407   2.723   8.104  0.0470  0.2787  0.2112
 7172SOL    HW133575   5.501   2.721   8.138 -0.5493 -0.1497  1.8640
 7172SOL    HW233576   5.397   2.656   8.030  1.2773  1.0069 -0.6389
 7173SOL     OW33577   4.453   5.936   8.714  0.7110  0.2901 -0.1335
 7173SOL    HW133578   4.379   5.869   8.719  0.7005  0.4289  2.1362
 7173SOL    HW233579   4.523   5.905   8.649 -0.9303 -0.2229 -1.7114
 7174SOL     OW33580   9.761   4.301   4.769 -0.3871 -0.3903  0.1796
 7174SOL    HW133581   9.814   4.268   4.691  1.4741 -0.5286  1.4768
 7174SOL    HW233582   9.676   4.248   4.777 -0.6713 -0.2740 -1.8173
 7175SOL     OW33583   8.914   0.041   0.302 -0.6029 -0.0241  0.5294
 7175SOL    HW133584   8.981  -0.025   0.266 -0.7655 -0.3709  0.8584
 7175SOL    HW233585   8.902   0.115   0.236 -2.6026 -1.8132 -1.1675
 7176SOL     OW33586   8.425   4.207   5.392  0.1439  0.3122  0.3894
 7176SOL    HW133587   8.371   4.212   5.308  0.8897  1.1542 -0.0311
 7176SOL    HW233588   8.363   4.196   5.470 -0.5175 -1.0638 -0.3141
 7177SOL     OW33589   4.538   0.074   4.415  0.4030  0.2395  0.3607
 7177SOL    HW133590   4.578  -0.011   4.380 -0.1834  0.4862 -0.9260
 7177SOL    HW233591   4.602   0.116   4.480  2.3235  0.6829 -1.7585
 7178SOL     OW33592   1.836   5.109   5.076 -0.1475  0.8506  0.3679
 7178SOL    HW133593   1.823   5.134   4.980 -0.9372 -1.4087 -0.1337
 7178SOL    HW233594   1.934   5.097   5.094 -0.1171 -0.3957 -0.5906
 7179SOL     OW33595   7.508   1.740   5.464 -0.2670  0.1410  0.5091
 7179SOL    HW133596   7.527   1.697   5.376 -0.6915  0.1745  0.4012
 7179SOL    HW233597   7.577   1.811   5.481 -0.6062  0.6299 -0.1315
 7180SOL     OW33598   4.262   2.109   8.106 -0.5449 -0.2686 -0.0495
 7180SOL    HW133599   4.201   2.115   8.027 -0.4471 -0.8309 -0.1742
 7180SOL    HW233600   4.357   2.099   8.075 -0.3737  0.7368  0.1440
 7181SOL     OW33601   6.682   5.043   1.346 -0.5005 -0.6513  0.0289
 7181SOL    HW133602   6.684   4.960   1.402 -1.0717 -0.6647  0.0362
 7181SOL    HW233603   6.589   5.080   1.346  0.2330  1.2240  1.8189
 7182SOL     OW33604   1.089   8.369   5.239 -0.2865  0.1423 -0.3524
 7182SOL    HW133605   1.115   8.400   5.330 -1.0764  0.4650 -0.2377
 7182SOL    HW233606   1.114   8.273   5.228 -2.0926 -0.4866  0.9421
 7183SOL     OW33607   0.195   6.588   0.269  0.0406  0.5467  0.1390
 7183SOL    HW133608   0.263   6.656   0.241  1.2743 -0.1314  1.4332
 7183SOL    HW233609   0.116   6.634   0.308  0.2828  1.3026 -0.2541
 7184SOL     OW33610   3.636   3.928   8.628  0.5944 -0.6652  0.5362
 7184SOL    HW133611   3.626   3.857   8.558  1.7512  1.7286 -2.1850
 7184SOL    HW233612   3.721   3.913   8.679  0.9643 -1.0740 -0.1949
 7185SOL     OW33613   5.868   2.499   0.332 -0.1776 -0.0357 -0.1920
 7185SOL    HW133614   5.793   2.452   0.286 -0.6645 -0.6895  1.2344
 7185SOL    HW233615   5.842   2.594   0.351 -0.4322 -0.1109 -0.1743
 7186SOL     OW33616   2.186   0.190   6.632  0.1040  0.2017  0.9756
 7186SOL    HW133617   2.256   0.180   6.562  0.8403 -2.2559  2.0105
 7186SOL    HW233618   2.130   0.107   6.636  0.7054 -0.1392  3.9262
 7187SOL     OW33619   9.237   2.165   5.101 -0.4272  0.2467  0.7364
 7187SOL    HW133620   9.268   2.260   5.110 -0.3578  0.2537  0.4140
 7187SOL    HW233621   9.140   2.163   5.080 -0.9120  0.2059  2.8356
 7188SOL     OW33622   5.404   5.966   8.208 -0.3105  0.4766 -0.2512
 7188SOL    HW133623   5.415   5.870   8.183  0.4426  0.6741 -0.6828
 7188SOL    HW233624   5.470   6.022   8.157  0.8174  0.9614  1.7148
 7189SOL     OW33625   5.920   3.237   1.116 -0.0961 -0.7124  0.1483
 7189SOL    HW133626   5.858   3.164   1.144  1.0753 -0.3540  3.9539
 7189SOL    HW233627   5.876   3.325   1.130  0.5519 -0.5223  1.0317
 7190SOL     OW33628   2.220   5.902   4.695 -0.2927  0.1350 -0.5707
 7190SOL    HW133629   2.315   5.873   4.685 -0.6550 -1.5865  0.6789
 7190SOL    HW233630   2.216   5.984   4.753  0.2793 -1.0472  1.1631
 7191SOL     OW33631   3.540   2.471   5.433 -0.4113 -0.2056 -0.2924
 7191SOL    HW133632   3.623   2.503   5.387  0.2488 -2.5799 -0.8293
 7191SOL    HW233633   3.461   2.491   5.376 -0.2353  2.1301  0.2435
 7192SOL     OW33634   1.228   8.847   1.906  0.1663  0.3064  0.3521
 7192SOL    HW133635   1.222   8.751   1.932  0.8624  0.6106  1.6851
 7192SOL    HW233636   1.322   8.867   1.877 -0.4921  0.0770 -2.0326
 7193SOL     OW33637   7.054   5.972   7.666 -0.0933  0.0090  0.0687
 7193SOL    HW133638   7.107   5.970   7.751  1.4063 -0.1591 -0.8597
 7193SOL    HW233639   7.043   6.066   7.636 -1.7290  0.1737  1.1099
 7194SOL     OW33640   6.691   1.060   3.622 -0.4673  0.2978 -0.2516
 7194SOL    HW133641   6.746   1.103   3.550 -0.0454  0.0885 -0.0559
 7194SOL    HW233642   6.660   0.971   3.590  1.7715 -0.8755  0.7296
 7195SOL     OW33643   0.687   1.000   4.156  0.3338  0.0060  0.7563
 7195SOL    HW133644   0.732   0.958   4.235  1.6539  0.7852  0.4376
 7195SOL    HW233645   0.600   0.955   4.139  0.4729 -0.7833  2.0909
 7196SOL     OW33646   9.658   0.333   8.342  0.5763  0.1341 -0.2547
 7196SOL    HW133647   9.757   0.322   8.352  0.6108  0.3880 -0.3207
 7196SOL    HW233648   9.632   0.427   8.364  0.2859 -0.0607  0.2370
 7197SOL     OW33649   4.220   1.158   6.063  0.5291  0.1348  0.4278
 7197SOL    HW133650   4.234   1.169   6.162  0.3638 -1.8103  0.6904
 7197SOL    HW233651   4.125   1.179   6.041  0.5718  0.6005  0.6806
 7198SOL     OW33652   7.266   8.734   7.513 -0.1180  0.0853  0.0973
 7198SOL    HW133653   7.190   8.788   7.475  0.2862 -0.1916 -1.1424
 7198SOL    HW233654   7.241   8.637   7.512 -0.5728  0.1804  1.6755
 7199SOL     OW33655   5.229   9.718   5.265 -0.3473  0.1598 -0.3396
 7199SOL    HW133656   5.309   9.720   5.324  0.1547  0.7338 -1.0182
 7199SOL    HW233657   5.217   9.626   5.228 -0.2585 -0.0332  0.1101
 7200SOL     OW33658   0.211   4.276   7.249 -0.2277  0.0142  0.4204
 7200SOL    HW133659   0.169   4.294   7.339  0.8780  1.3486  0.6897
 7200SOL    HW233660   0.249   4.184   7.247  1.2188  0.5496  1.9392
 7201SOL     OW33661   0.535   6.702   5.095  0.2107  0.0266  0.5441
 7201SOL    HW133662   0.444   6.662   5.106 -0.2839  0.6936 -0.9520
 7201SOL    HW233663   0.536   6.793   5.136  1.0694 -1.1379  3.1426
 7202SOL     OW33664   0.218   0.150   3.635  1.0394  0.2747  0.1522
 7202SOL    HW133665   0.143   0.180   3.576  0.3633 -0.7512  0.4789
 7202SOL    HW233666   0.190   0.158   3.731  1.4045  0.0236  0.2801
 7203SOL     OW33667   1.748   3.337   9.298  0.3551  0.2619  0.0021
 7203SOL    HW133668   1.770   3.328   9.395 -1.9738  0.2649  0.5468
 7203SOL    HW233669   1.760   3.248   9.253 -0.5544 -0.2343  0.7225
 7204SOL     OW33670   5.580   2.844   4.588 -0.3368  0.3609  0.3789
 7204SOL    HW133671   5.500   2.903   4.604 -0.7176  0.8099 -2.8049
 7204SOL    HW233672   5.663   2.898   4.603 -0.6273  0.5101  1.5518
 7205SOL     OW33673   8.921   1.170   3.829 -0.2277 -0.1366 -0.0663
 7205SOL    HW133674   8.917   1.084   3.778 -1.6367  0.6395 -1.2831
 7205SOL    HW233675   8.907   1.247   3.767  0.8457  0.9801  1.0442
 7206SOL     OW33676   9.217   7.958   6.689 -0.5208 -0.0311  0.0854
 7206SOL    HW133677   9.198   8.008   6.774  0.3642 -0.3220  0.4517
 7206SOL    HW233678   9.262   8.019   6.624 -0.0347 -0.1713  0.2922
 7207SOL     OW33679   2.312   7.552   1.315  0.5754 -0.1326  1.2276
 7207SOL    HW133680   2.298   7.640   1.269  2.3183 -1.0693 -1.1339
 7207SOL    HW233681   2.403   7.551   1.358  1.0649 -1.2538  0.1718
 7208SOL     OW33682   1.915   6.112   4.718 -0.3982 -0.7395  0.4703
 7208SOL    HW133683   2.002   6.095   4.764 -0.4500 -1.2318  0.3825
 7208SOL    HW233684   1.862   6.028   4.714 -0.4250 -0.6895 -0.4341
 7209SOL     OW33685   8.489   1.545   2.279 -0.4762 -0.5945 -0.0792
 7209SOL    HW133686   8.502   1.590   2.190 -0.6013  0.3970  0.3913
 7209SOL    HW233687   8.448   1.611   2.343 -0.7583 -1.4227  0.5960
 7210SOL     OW33688   5.087   8.304   2.958  0.3073 -0.2278  0.3539
 7210SOL    HW133689   5.153   8.230   2.971 -1.5429 -1.9566  0.0799
 7210SOL    HW233690   5.015   8.274   2.896 -0.9915  1.4652  1.0059
 7211SOL     OW33691   3.940   4.290   9.874 -0.3396  0.0857  0.5111
 7211SOL    HW133692   3.921   4.388   9.882 -0.8514  0.0091  0.2360
 7211SOL    HW233693   3.913   4.258   9.784 -1.3684 -0.5787  1.0466
 7212SOL     OW33694   5.364   5.401   7.727  0.4426 -0.0056  0.0744
 7212SOL    HW133695   5.437   5.394   7.795 -1.3007  1.2258  2.1322
 7212SOL    HW233696   5.276   5.407   7.773 -0.9574 -0.9716 -2.3641
 7213SOL     OW33697   5.081   9.789   5.925 -0.1646 -0.3056 -0.2277
 7213SOL    HW133698   5.005   9.851   5.907  0.1308  0.4500  1.0272
 7213SOL    HW233699   5.152   9.800   5.856 -0.0967  0.7973  0.0140
 7214SOL     OW33700   3.388   3.924   7.380  0.0815 -0.2941  0.3482
 7214SOL    HW133701   3.426   3.929   7.472 -0.8389  1.2099  0.6696
 7214SOL    HW233702   3.462   3.906   7.315  0.9429 -0.0643  1.2470
 7215SOL     OW33703   3.878   0.422   1.739 -0.2635 -0.0508  0.1484
 7215SOL    HW133704   3.807   0.366   1.696  0.7354 -0.5912 -0.8293
 7215SOL    HW233705   3.893   0.389   1.832 -2.3976  1.0852  0.9253
 7216SOL     OW33706   1.003   7.245   9.694 -0.1993 -0.3836  0.5960
 7216SOL    HW133707   0.992   7.155   9.736  2.3240 -1.2177 -0.4520
 7216SOL    HW233708   1.098   7.257   9.666 -1.5088  0.7096 -3.6059
 7217SOL     OW33709   0.958   6.931   3.649  0.9131  0.3606 -0.1280
 7217SOL    HW133710   0.961   6.851   3.589  0.8850  0.8269 -0.7583
 7217SOL    HW233711   0.864   6.963   3.657  0.4414 -1.5133  2.6115
 7218SOL     OW33712   4.394   9.725   8.321  0.4000  0.1811  0.0088
 7218SOL    HW133713   4.401   9.687   8.228 -1.1881 -0.4668  0.1382
 7218SOL    HW233714   4.300   9.718   8.353  1.4107 -2.0338  2.6938
 7219SOL     OW33715   7.262   1.749   2.297  0.0021 -0.1286 -0.2273
 7219SOL    HW133716   7.224   1.834   2.259  2.8358  0.2082 -2.4518
 7219SOL    HW233717   7.188   1.693   2.333 -1.9760  3.2017  1.1509
 7220SOL     OW33718   6.885   0.191   7.902 -0.2790 -0.6596  0.2507
 7220SOL    HW133719   6.928   0.196   7.812 -2.2555 -1.1869 -0.7514
 7220SOL    HW233720   6.786   0.184   7.891 -0.7992  2.1211  2.5310
 7221SOL     OW33721   0.345   4.354   5.452 -0.2956  0.1090 -0.6351
 7221SOL    HW133722   0.396   4.333   5.368 -0.5725  1.3507 -1.1188
 7221SOL    HW233723   0.406   4.399   5.517 -0.3411  0.0569 -0.5565
 7222SOL     OW33724   9.307   4.160   9.943 -0.5195 -0.1653  0.0353
 7222SOL    HW133725   9.222   4.125   9.983  0.5396 -1.2149  1.4249
 7222SOL    HW233726   9.384   4.103   9.972  0.6124  0.5135 -1.5576
 7223SOL     OW33727   5.413   7.829   5.476  0.2178 -0.2262 -0.1516
 7223SOL    HW133728   5.331   7.875   5.441  1.5298  1.6449 -0.8078
 7223SOL    HW233729   5.421   7.848   5.574 -0.9267 -1.6587  0.2440
 7224SOL     OW33730   3.222   3.380   1.663  0.4062 -0.1481 -0.5434
 7224SOL    HW133731   3.128   3.370   1.696  0.1537  0.2868 -1.1203
 7224SOL    HW233732   3.238   3.314   1.590 -0.0773  1.0737 -1.7818
 7225SOL     OW33733   9.046   9.497   3.684  0.1447 -0.4711 -0.4171
 7225SOL    HW133734   8.984   9.497   3.605  0.5287 -0.4848 -0.7209
 7225SOL    HW233735   8.993   9.508   3.768 -0.3023 -0.8342 -0.6478
 7226SOL     OW33736   3.807   1.570   4.877  0.2870 -0.2108 -0.4244
 7226SOL    HW133737   3.893   1.526   4.901  0.3997  0.4747  0.4554
 7226SOL    HW233738   3.755   1.589   4.960  0.3898  1.6186 -0.7528
 7227SOL     OW33739   9.269   8.969   6.716 -0.4205  0.2171  0.0367
 7227SOL    HW133740   9.206   8.970   6.638 -1.5248 -0.4608  0.9068
 7227SOL    HW233741   9.217   8.956   6.800  0.5653  2.7369  1.0788
 7228SOL     OW33742   1.823   3.985   3.725 -0.3648 -0.0778  0.0175
 7228SOL    HW133743   1.892   3.914   3.709 -1.8164 -1.2504 -1.2275
 7228SOL    HW233744   1.782   3.972   3.815 -0.4133 -0.6681 -0.0860
 7229SOL     OW33745   8.894   0.576   0.604 -0.1856 -0.0087  0.4941
 7229SOL    HW133746   8.916   0.653   0.544 -0.9354  1.4852  2.0670
 7229SOL    HW233747   8.929   0.492   0.565  0.3665  1.0875 -1.4441
 7230SOL     OW33748   9.603   8.892   4.985 -0.1479 -0.0218 -0.5922
 7230SOL    HW133749   9.586   8.796   5.004 -2.7123  0.2532 -1.3297
 7230SOL    HW233750   9.543   8.949   5.041  1.4170  1.1911 -0.0750
 7231SOL     OW33751   5.777   2.387   1.302  0.0896  0.2868  0.3857
 7231SOL    HW133752   5.836   2.393   1.221 -2.1983 -0.7552 -1.4060
 7231SOL    HW233753   5.682   2.402   1.275 -0.8690 -1.4206  2.6889
 7232SOL     OW33754   2.214   1.783   0.516 -0.3300  0.2871  0.1635
 7232SOL    HW133755   2.136   1.826   0.562 -0.4192 -0.1114  0.3876
 7232SOL    HW233756   2.185   1.749   0.426  0.0474  1.8119 -0.5551
 7233SOL     OW33757   9.978   7.654   1.240 -0.4731  0.4882  0.3847
 7233SOL    HW133758  10.028   7.664   1.326 -0.9349 -0.0804  0.7300
 7233SOL    HW233759  10.035   7.607   1.173 -0.3078  0.4337  0.5638
 7234SOL     OW33760   8.522   5.066   4.350 -0.3938  0.1821  0.0803
 7234SOL    HW133761   8.543   5.162   4.332 -1.7482  0.2000 -1.4599
 7234SOL    HW233762   8.522   5.015   4.264  2.5153 -1.6869  1.0905
 7235SOL     OW33763   2.909   0.779   6.998  0.6452  0.2311  0.4279
 7235SOL    HW133764   2.866   0.854   6.948  0.0242  1.1180  2.2142
 7235SOL    HW233765   2.955   0.717   6.934  0.2873  1.5700 -1.1590
 7236SOL     OW33766   5.974   6.175   1.568 -0.9509  0.0107 -0.0584
 7236SOL    HW133767   6.011   6.089   1.533 -3.1496 -0.7879 -0.4465
 7236SOL    HW233768   6.025   6.252   1.528  0.9873 -1.0768  0.2541
 7237SOL     OW33769   1.252   4.226   4.818 -0.5425 -0.0361  0.3598
 7237SOL    HW133770   1.300   4.220   4.905 -0.1790 -2.3561  0.0448
 7237SOL    HW233771   1.154   4.209   4.832 -0.3295 -1.5084  0.2153
 7238SOL     OW33772   5.178   9.267   4.499  0.2646 -0.3335 -0.3187
 7238SOL    HW133773   5.191   9.343   4.435  0.5384 -0.3731 -0.3076
 7238SOL    HW233774   5.151   9.304   4.589  1.1275 -0.2052 -0.1088
 7239SOL     OW33775   2.173   9.881   7.803 -0.4651 -0.1518 -0.1439
 7239SOL    HW133776   2.149   9.880   7.706 -0.9167 -0.8317 -0.0243
 7239SOL    HW233777   2.267   9.847   7.814 -0.9220 -1.4861 -0.2133
 7240SOL     OW33778   4.227   8.636   6.030 -0.4552 -0.4411  0.0046
 7240SOL    HW133779   4.277   8.561   6.074  1.4047  0.5769 -0.3225
 7240SOL    HW233780   4.226   8.716   6.091 -0.6355 -0.0664 -0.4872
 7241SOL     OW33781   3.255   0.113   4.181  0.1657  0.0013  0.2048
 7241SOL    HW133782   3.351   0.092   4.164 -0.5665 -2.7445 -0.6600
 7241SOL    HW233783   3.233   0.201   4.139  1.3155 -1.1953 -3.0516
 7242SOL     OW33784   0.086   2.755   2.566  0.3891  0.2201  0.3493
 7242SOL    HW133785   0.133   2.843   2.561  0.7360 -0.0114 -0.6623
 7242SOL    HW233786   0.082   2.715   2.474  0.6961 -1.0549  0.8852
 7243SOL     OW33787   8.916   8.592   3.212 -0.0279 -0.0604  0.3318
 7243SOL    HW133788   8.824   8.627   3.231 -0.1023  0.8338 -1.5440
 7243SOL    HW233789   8.983   8.641   3.268 -0.7283 -1.1245  2.1490
 7244SOL     OW33790   7.088   3.487   8.711  0.2614  0.5615 -0.3213
 7244SOL    HW133791   7.151   3.479   8.788  0.5700 -1.2723 -0.7330
 7244SOL    HW233792   7.139   3.514   8.629  0.5322 -0.8478 -0.6368
 7245SOL     OW33793   9.777   9.180   6.030 -0.2828  0.2614  0.2747
 7245SOL    HW133794   9.703   9.245   6.050 -0.9449  0.3129 -2.2568
 7245SOL    HW233795   9.738   9.089   6.017  0.1637  0.1633 -0.3825
 7246SOL     OW33796   1.496   1.983   0.447  0.4171  0.5986  0.3281
 7246SOL    HW133797   1.578   1.927   0.451  0.6264  0.7740 -1.1358
 7246SOL    HW233798   1.416   1.927   0.472  0.8526  0.1679  0.7617
 7247SOL     OW33799   3.034   2.025   1.111  0.0423  0.4323 -0.7522
 7247SOL    HW133800   3.102   1.989   1.174 -0.3298  1.8355  0.4788
 7247SOL    HW233801   3.048   2.123   1.098 -1.3496  0.6204 -0.9673
 7248SOL     OW33802   7.311   8.617   2.187  0.1385  0.0907  0.0374
 7248SOL    HW133803   7.313   8.518   2.177  1.7087  0.1338 -0.1655
 7248SOL    HW233804   7.403   8.654   2.174  0.1146  1.3159  2.9601
 7249SOL     OW33805   8.669   5.980   0.959 -0.0724  0.0973  0.8909
 7249SOL    HW133806   8.574   6.012   0.957 -0.6553 -1.5736  1.2823
 7249SOL    HW233807   8.680   5.913   1.032  1.4242  0.2949  0.8594
 7250SOL     OW33808   2.578   1.599   5.431  0.0091 -0.3627  0.7544
 7250SOL    HW133809   2.508   1.607   5.503  0.7078 -0.7515  1.4767
 7250SOL    HW233810   2.648   1.669   5.445  0.3132 -0.6422  0.6309
 7251SOL     OW33811   7.606   9.196   2.932 -0.2997  0.5197  0.0068
 7251SOL    HW133812   7.583   9.293   2.924 -0.4126  0.5933  1.1131
 7251SOL    HW233813   7.553   9.155   3.006  2.4284  0.4766  2.0421
 7252SOL     OW33814   2.331   3.485   4.650 -0.2298  0.3426 -0.0274
 7252SOL    HW133815   2.404   3.431   4.693  1.2956  2.9348  0.7422
 7252SOL    HW233816   2.247   3.474   4.702  0.2746 -0.6064  0.6140
 7253SOL     OW33817   0.858   1.240   5.850 -0.1436 -0.0095  0.0625
 7253SOL    HW133818   0.801   1.305   5.898 -0.9955  0.3401 -1.3760
 7253SOL    HW233819   0.824   1.147   5.865 -0.6260  0.1314 -0.1484
 7254SOL     OW33820   9.492   2.555   1.657  0.0896 -0.1541 -0.3395
 7254SOL    HW133821   9.426   2.609   1.709  1.3246  0.8025  0.2649
 7254SOL    HW233822   9.495   2.462   1.693  1.0502  0.5411  1.4358
 7255SOL     OW33823   1.889   9.714   5.259 -0.2478  0.1670  0.2578
 7255SOL    HW133824   1.868   9.678   5.350  0.3880 -0.3901  0.1892
 7255SOL    HW233825   1.977   9.677   5.228 -0.8954 -0.3730 -0.9608
 7256SOL     OW33826   0.711   1.768   3.810  0.6061  0.1100 -0.4452
 7256SOL    HW133827   0.772   1.782   3.732 -0.0644  1.2764 -0.7702
 7256SOL    HW233828   0.689   1.857   3.852 -0.7721 -0.3070 -0.2572
 7257SOL     OW33829   4.240   0.111   4.404  0.4057  0.0593 -0.1113
 7257SOL    HW133830   4.149   0.149   4.415  0.3275 -0.4453  0.9936
 7257SOL    HW233831   4.244   0.020   4.445  0.8053 -0.8288 -2.0298
 7258SOL     OW33832   9.295   1.365   5.596  0.0173 -0.1926  0.2470
 7258SOL    HW133833   9.302   1.362   5.496  2.7701 -1.7236  0.4234
 7258SOL    HW233834   9.205   1.332   5.625 -0.7299  0.0638 -1.7098
 7259SOL     OW33835   3.110   8.349   2.741 -0.1117  0.1205  0.1719
 7259SOL    HW133836   3.041   8.327   2.672 -0.4753  1.2605  0.1662
 7259SOL    HW233837   3.078   8.319   2.831 -0.3212  0.0431  0.0706
 7260SOL     OW33838   4.366   2.961   1.894  0.6169  0.0169 -0.0587
 7260SOL    HW133839   4.343   3.012   1.811  0.8747  0.5474  0.1966
 7260SOL    HW233840   4.286   2.957   1.954  0.1701 -1.0981 -0.7032
 7261SOL     OW33841   6.220   8.478   6.509  0.2229  0.8398  0.0936
 7261SOL    HW133842   6.247   8.453   6.602 -1.6524 -1.0058  0.1794
 7261SOL    HW233843   6.241   8.574   6.492  3.7628  0.3216  1.2247
 7262SOL     OW33844   0.912   2.609   7.125 -0.3201  0.0878  0.2636
 7262SOL    HW133845   0.829   2.622   7.179 -0.5421 -1.9113  0.4601
 7262SOL    HW233846   0.896   2.641   7.031 -0.6754  1.4551  0.7784
 7263SOL     OW33847   0.125   5.856   1.095 -0.6298  0.0909  0.5064
 7263SOL    HW133848   0.196   5.858   1.024  0.8588 -2.1608  1.8605
 7263SOL    HW233849   0.109   5.948   1.128 -0.5463  1.0468 -1.9601
 7264SOL     OW33850   9.571   6.732   9.673  0.2344  0.7295  0.0743
 7264SOL    HW133851   9.560   6.685   9.761  2.9461 -0.1195  0.0171
 7264SOL    HW233852   9.624   6.674   9.611  0.3180  2.2795 -1.3248
 7265SOL     OW33853   2.045   4.895   5.677  0.0751  0.5436  0.1097
 7265SOL    HW133854   2.055   4.873   5.774  0.1795  0.0021 -0.0227
 7265SOL    HW233855   2.071   4.816   5.622  1.7721  1.4546 -0.4222
 7266SOL     OW33856   6.532   5.285   1.545  0.2230  0.0395 -0.0361
 7266SOL    HW133857   6.557   5.375   1.508  0.8123  0.3004  0.9718
 7266SOL    HW233858   6.482   5.233   1.476  1.8049  0.2906 -1.3897
 7267SOL     OW33859   0.180   6.367   5.955 -0.6327 -0.7291  0.0804
 7267SOL    HW133860   0.170   6.268   5.968  1.0566 -0.5882  2.8987
 7267SOL    HW233861   0.278   6.389   5.949 -1.0428  0.6231 -1.9904
 7268SOL     OW33862   5.220   5.148   2.320  0.4960 -0.1385  0.8531
 7268SOL    HW133863   5.250   5.188   2.407  1.5816  2.1023 -0.5009
 7268SOL    HW233864   5.295   5.097   2.279  0.8089  0.9892  0.0058
 7269SOL     OW33865   8.596   1.437   7.863 -0.2106  0.2166  0.2105
 7269SOL    HW133866   8.653   1.498   7.808  1.0572 -0.2262  0.9976
 7269SOL    HW233867   8.628   1.343   7.852 -1.4423 -0.1612 -0.1284
 7270SOL     OW33868   3.414   6.077   5.133 -0.5333  0.2896  0.1939
 7270SOL    HW133869   3.396   6.039   5.224 -3.4168  2.0532  0.4205
 7270SOL    HW233870   3.478   6.153   5.140 -0.4359  0.1606  0.6939
 7271SOL     OW33871   1.368   9.360   2.922  0.2995 -0.2912 -0.5241
 7271SOL    HW133872   1.395   9.290   2.988  2.7181 -0.1276 -1.2852
 7271SOL    HW233873   1.358   9.318   2.832 -0.2836 -0.0255 -0.5833
 7272SOL     OW33874   4.392   3.985   7.803  0.6095 -0.4277  0.3480
 7272SOL    HW133875   4.422   4.080   7.792  0.2088 -0.3804 -0.4152
 7272SOL    HW233876   4.471   3.924   7.799  0.8367 -0.1457  0.5271
 7273SOL     OW33877   1.721   6.727   9.386  0.2777  0.0487  0.4625
 7273SOL    HW133878   1.684   6.820   9.384 -1.9259 -0.8211 -1.1674
 7273SOL    HW233879   1.679   6.676   9.462  1.6724  0.4584  1.5106
 7274SOL     OW33880   9.834   1.909   3.677  0.0333 -0.2793  0.6415
 7274SOL    HW133881   9.747   1.945   3.709  0.4721  1.7569 -0.3698
 7274SOL    HW233882   9.842   1.923   3.578  2.2109  1.1183  0.9851
 7275SOL     OW33883   6.893   5.344   2.134 -0.8641 -0.1170 -0.0370
 7275SOL    HW133884   6.952   5.360   2.213  0.5617 -1.8275 -0.7027
 7275SOL    HW233885   6.914   5.412   2.063  0.3724 -0.7410 -0.2890
 7276SOL     OW33886   1.014   6.095   1.055 -0.1733  0.2065 -0.3959
 7276SOL    HW133887   1.067   6.161   1.108 -0.1561  0.1463 -0.3368
 7276SOL    HW233888   1.011   6.008   1.104 -2.1829  0.8391  0.6461
 7277SOL     OW33889   7.347   2.366   1.925  0.0518  0.0481  0.1086
 7277SOL    HW133890   7.381   2.273   1.906 -0.6020 -0.9104  3.2713
 7277SOL    HW233891   7.365   2.389   2.021 -2.8608  1.8321  0.2970
 7278SOL     OW33892   1.217   2.029   2.980  0.5988  0.2735  0.1153
 7278SOL    HW133893   1.296   1.973   2.955  1.1999  0.0584  2.3449
 7278SOL    HW233894   1.136   1.971   2.990  0.2850  0.4070 -1.5760
 7279SOL     OW33895   7.101   6.645   6.147 -0.6558 -0.5059 -0.5955
 7279SOL    HW133896   7.120   6.699   6.229 -0.3527 -3.5381  1.4323
 7279SOL    HW233897   7.044   6.698   6.084  0.3138  2.4153  0.9220
 7280SOL     OW33898   5.043   5.109   8.409  0.2752  0.9896  0.0150
 7280SOL    HW133899   5.028   5.156   8.496  2.3799 -1.4439  1.7507
 7280SOL    HW233900   5.130   5.139   8.370  0.7660 -0.1520  0.2350
 7281SOL     OW33901   0.573   1.869   5.870 -0.1436 -0.3516  0.2801
 7281SOL    HW133902   0.647   1.843   5.808  1.1541 -0.8065  1.9702
 7281SOL    HW233903   0.524   1.787   5.900 -0.9666 -0.1044 -0.3869
 7282SOL     OW33904   3.751   1.243   5.451 -0.1782 -0.1918 -0.0212
 7282SOL    HW133905   3.820   1.180   5.414 -0.9249  0.0734 -1.9306
 7282SOL    HW233906   3.788   1.336   5.452 -1.1331  0.2617 -2.8742
 7283SOL     OW33907   6.132   1.040   1.714  0.5617 -0.1787  0.1184
 7283SOL    HW133908   6.107   0.953   1.756  1.3753  0.2938  1.5953
 7283SOL    HW233909   6.074   1.113   1.749 -0.0060 -0.0739 -0.9933
 7284SOL     OW33910   0.347   9.624   1.271  0.4181 -0.0706  0.1922
 7284SOL    HW133911   0.443   9.597   1.279  0.0298 -1.7168 -0.5418
 7284SOL    HW233912   0.311   9.646   1.362  0.9836 -1.2383  0.7049
 7285SOL     OW33913   0.741   7.111   9.934 -0.2046 -0.4748 -0.0776
 7285SOL    HW133914   0.659   7.105   9.992  0.7822 -0.5502  1.3393
 7285SOL    HW233915   0.729   7.185   9.868 -0.4841  1.0919  1.6757
 7286SOL     OW33916   9.501   0.787   9.126 -0.0493 -0.2759  0.1681
 7286SOL    HW133917   9.490   0.720   9.199  0.1454 -0.2841  0.1901
 7286SOL    HW233918   9.435   0.768   9.053 -0.1672 -0.3360  0.2895
 7287SOL     OW33919   1.758   8.842   6.083  0.3727 -0.2651  0.2079
 7287SOL    HW133920   1.701   8.814   6.160 -0.7008  1.7872  0.2048
 7287SOL    HW233921   1.855   8.834   6.108  0.0477 -0.9652  1.2670
 7288SOL     OW33922   8.572   1.919   1.170 -0.3182  0.0453 -0.5828
 7288SOL    HW133923   8.586   1.844   1.106 -2.2555 -1.3352  0.5582
 7288SOL    HW233924   8.475   1.945   1.171 -0.0549  1.0792  0.6570
 7289SOL     OW33925   9.429   8.974   7.794  0.9301  0.2466 -0.1310
 7289SOL    HW133926   9.407   8.965   7.697  0.7565 -1.7230  0.0684
 7289SOL    HW233927   9.354   8.935   7.849  1.6559  0.0700  0.7430
 7290SOL     OW33928   7.975   8.195   7.447 -0.2625 -0.3616  0.1447
 7290SOL    HW133929   8.054   8.202   7.385  0.0008  0.8849  0.6047
 7290SOL    HW233930   7.891   8.192   7.393  0.0687 -1.0734 -0.3316
 7291SOL     OW33931   2.566   9.899   9.979 -0.6134 -0.8682 -0.1469
 7291SOL    HW133932   2.490   9.907   9.914 -0.3752  0.7695 -0.2402
 7291SOL    HW233933   2.587   9.802   9.995 -2.2116 -1.3170 -0.7127
 7292SOL     OW33934   2.175   0.226   3.876  0.1758  0.2648  0.2745
 7292SOL    HW133935   2.226   0.182   3.950  0.0658 -0.7762 -0.2603
 7292SOL    HW233936   2.079   0.196   3.879  0.3174 -0.3066 -0.6917
 7293SOL     OW33937   8.599   5.499   7.348  0.2439  1.0027 -0.3292
 7293SOL    HW133938   8.556   5.508   7.258  0.0015  1.1563 -0.1953
 7293SOL    HW233939   8.685   5.449   7.338 -0.3813 -0.0583 -0.4659
 7294SOL     OW33940   2.013   9.219   6.369 -0.0743  0.1002  0.4937
 7294SOL    HW133941   1.965   9.204   6.283  0.5137  1.0047  0.0101
 7294SOL    HW233942   2.111   9.209   6.356 -0.1101 -1.8892  1.5149
 7295SOL     OW33943   9.447   3.059   7.384  0.4895  0.3059  0.0952
 7295SOL    HW133944   9.411   3.092   7.471 -0.3723  0.0172 -0.1466
 7295SOL    HW233945   9.501   2.976   7.400  0.1111  0.1001  0.3229
 7296SOL     OW33946   3.742   3.591   0.589 -0.2327 -0.5406  0.0081
 7296SOL    HW133947   3.769   3.668   0.648 -0.5773  0.4878 -1.1530
 7296SOL    HW233948   3.645   3.572   0.602 -0.4215  0.0052 -0.5720
 7297SOL     OW33949   0.445   9.360   3.680 -0.6192 -0.2105 -0.0840
 7297SOL    HW133950   0.459   9.279   3.737 -0.6297  0.4844  0.9106
 7297SOL    HW233951   0.534   9.401   3.658 -0.5622 -0.9124 -1.2222
 7298SOL     OW33952   4.009   0.693   0.714 -0.5178  0.3222  0.2978
 7298SOL    HW133953   3.999   0.745   0.799 -1.5810 -0.1405  0.4678
 7298SOL    HW233954   4.101   0.656   0.708 -0.4432  0.3384  1.2646
 7299SOL     OW33955   5.022   6.507   1.797 -0.4367 -0.6371 -0.1618
 7299SOL    HW133956   5.086   6.503   1.720  2.0251 -0.2281  1.7757
 7299SOL    HW233957   5.020   6.418   1.843 -0.1441 -0.2404  0.6319
 7300SOL     OW33958   5.446   7.216   2.612  0.1958  0.2855  0.2274
 7300SOL    HW133959   5.528   7.259   2.649  0.0467  0.0522  0.8478
 7300SOL    HW233960   5.413   7.147   2.677  0.3133 -0.6077 -0.6693
 7301SOL     OW33961   2.008   1.896   2.923 -0.0202  0.1214 -0.1201
 7301SOL    HW133962   2.009   1.807   2.968  0.8964 -0.4053 -1.1411
 7301SOL    HW233963   2.096   1.911   2.877 -0.9981  0.5330 -1.9059
 7302SOL     OW33964   3.645   4.891   3.269  0.3832 -0.6356 -0.2344
 7302SOL    HW133965   3.632   4.815   3.331 -2.1188 -1.4350 -1.6407
 7302SOL    HW233966   3.660   4.857   3.176 -0.7931  0.5553 -0.8886
 7303SOL     OW33967   0.978   4.336   2.023  0.1233  0.0718 -0.1479
 7303SOL    HW133968   0.970   4.358   1.926  0.8103  1.5005  0.1102
 7303SOL    HW233969   1.069   4.300   2.042  0.0701  0.0182  0.0070
 7304SOL     OW33970   1.928   9.729   5.583  0.3462 -0.4959  0.1972
 7304SOL    HW133971   1.987   9.754   5.659  0.5616  0.0046 -0.1283
 7304SOL    HW233972   1.833   9.742   5.608  0.4813  1.4575 -0.2351
 7305SOL     OW33973   0.228   1.254   6.795  0.5767  0.0689  0.4430
 7305SOL    HW133974   0.215   1.208   6.707 -0.8666  0.3406  0.4907
 7305SOL    HW233975   0.148   1.237   6.854  0.1181  2.3769  0.5482
 7306SOL     OW33976   6.574   1.829   0.634  0.1927  0.6544 -0.3076
 7306SOL    HW133977   6.550   1.912   0.583  0.7959 -0.0966 -1.8396
 7306SOL    HW233978   6.524   1.751   0.596  1.7426 -0.1658 -0.6976
 7307SOL     OW33979   2.009   4.824   9.846 -0.1304 -0.5773  0.1097
 7307SOL    HW133980   2.019   4.832   9.747 -1.0178  1.5267  0.1784
 7307SOL    HW233981   2.089   4.776   9.883  0.6774 -0.5143 -1.4996
 7308SOL     OW33982   5.788   7.911   5.448 -0.9022  0.1131  0.2882
 7308SOL    HW133983   5.812   7.955   5.361  0.2879 -0.2246  0.4353
 7308SOL    HW233984   5.851   7.941   5.519 -2.3763  1.0187  1.2417
 7309SOL     OW33985   5.731   9.760   2.553 -0.2485  0.3976 -0.2911
 7309SOL    HW133986   5.772   9.848   2.580 -0.3083  0.6348 -0.9592
 7309SOL    HW233987   5.646   9.746   2.604 -0.6475  1.0990 -0.7588
 7310SOL     OW33988   8.307   3.829   9.994  0.9819 -0.4903 -0.0182
 7310SOL    HW133989   8.359   3.779   9.924 -2.9849 -0.1411 -3.4196
 7310SOL    HW233990   8.235   3.770  10.030  1.3966  0.1943  1.9723
 7311SOL     OW33991   2.685   7.199   9.627  0.1784  0.5536  0.0543
 7311SOL    HW133992   2.636   7.211   9.714 -0.8314  2.7606 -0.7931
 7311SOL    HW233993   2.626   7.151   9.562 -0.1441  1.4750 -0.3371
 7312SOL     OW33994   6.573   2.259   8.858  0.2190 -0.7674 -0.3917
 7312SOL    HW133995   6.549   2.281   8.952  0.3425  0.1939 -0.5869
 7312SOL    HW233996   6.645   2.190   8.858  0.5601 -0.4170  0.2247
 7313SOL     OW33997   7.674   0.582   2.026  0.8758  0.1953 -0.1814
 7313SOL    HW133998   7.660   0.656   1.960 -1.0407 -0.8095 -0.9416
 7313SOL    HW233999   7.702   0.499   1.979  0.3470 -0.2910  0.3475
 7314SOL     OW34000   1.430   6.189   4.305 -0.6964 -0.3398  0.7390
 7314SOL    HW134001   1.411   6.119   4.374 -0.6048 -0.6637  0.4390
 7314SOL    HW234002   1.356   6.190   4.238 -0.5166 -0.3991  0.5416
 7315SOL     OW34003   9.612   1.310   0.542  0.1323 -0.2146 -0.5034
 7315SOL    HW134004   9.646   1.289   0.634  0.3226 -1.9516 -0.9482
 7315SOL    HW234005   9.534   1.373   0.549  0.1244 -0.3608  0.8501
 7316SOL     OW34006   6.869   1.000   7.154 -0.1702 -0.3042  0.1553
 7316SOL    HW134007   6.846   0.924   7.094 -0.5512 -0.9662  1.1151
 7316SOL    HW234008   6.952   1.045   7.122 -0.8045 -0.1396 -1.3078
 7317SOL     OW34009   7.708   4.051   3.231 -0.0698  0.2373 -0.1041
 7317SOL    HW134010   7.745   4.112   3.302  0.1518  0.4132 -0.3688
 7317SOL    HW234011   7.661   3.974   3.274 -0.1832  0.4948  0.2344
 7318SOL     OW34012   6.711   1.339   5.729 -0.2720  0.0436  0.4109
 7318SOL    HW134013   6.680   1.296   5.813  0.1983 -1.2371 -0.0647
 7318SOL    HW234014   6.740   1.433   5.748 -0.0635 -0.2771  1.6949
 7319SOL     OW34015   0.099   3.310   0.876  0.2383 -0.7633 -0.7516
 7319SOL    HW134016   0.103   3.211   0.864  0.2530 -0.7307 -1.0136
 7319SOL    HW234017   0.004   3.340   0.877  0.1307 -1.0646  1.6441
 7320SOL     OW34018   8.008   1.813   2.347  0.2845  0.7835  0.2869
 7320SOL    HW134019   7.984   1.870   2.268  3.1388 -0.2039 -1.3953
 7320SOL    HW234020   7.941   1.740   2.358  0.1103  0.6413 -1.5619
 7321SOL     OW34021   9.659   2.658   4.683  0.0663 -0.0867  0.6724
 7321SOL    HW134022   9.657   2.563   4.652  0.3043  0.3121 -0.5997
 7321SOL    HW234023   9.567   2.697   4.676  0.1146 -0.0040  0.4786
 7322SOL     OW34024   6.505   7.884   6.568 -0.2784  0.2586 -0.1139
 7322SOL    HW134025   6.478   7.973   6.531  0.3898  0.4714 -0.0910
 7322SOL    HW234026   6.523   7.893   6.665  0.4816  0.2474 -0.2556
 7323SOL     OW34027   2.797   3.543   1.543  0.7150  0.0718 -0.4036
 7323SOL    HW134028   2.870   3.599   1.503 -1.0908  2.1388 -0.8933
 7323SOL    HW234029   2.754   3.592   1.618 -0.1868 -1.1198 -0.1247
 7324SOL     OW34030   3.622   0.235   7.834  0.5518  0.1224  0.7593
 7324SOL    HW134031   3.526   0.215   7.815  0.3585  0.8498  0.9719
 7324SOL    HW234032   3.643   0.329   7.808  1.8507 -0.8134 -1.6589
 7325SOL     OW34033   7.772   1.774   9.180  0.6921 -0.6155  0.0510
 7325SOL    HW134034   7.757   1.845   9.111  1.4372  0.0349  0.5501
 7325SOL    HW234035   7.802   1.816   9.265 -1.9191 -1.2700  1.3321
 7326SOL     OW34036   6.151   1.678   4.333  0.4503 -0.3493  0.0382
 7326SOL    HW134037   6.120   1.767   4.299  1.7468  0.8083  1.7958
 7326SOL    HW234038   6.210   1.691   4.412  1.0679 -2.7743  0.0270
 7327SOL     OW34039   0.766   9.768   4.254  0.1716  0.2023 -0.1293
 7327SOL    HW134040   0.813   9.837   4.309  0.5426  0.8191 -1.2180
 7327SOL    HW234041   0.818   9.682   4.258 -0.8079 -0.3323  2.0261
 7328SOL     OW34042   1.078   7.307   6.578  0.8075 -0.2091 -0.1940
 7328SOL    HW134043   1.046   7.217   6.609  1.3008 -0.6012 -0.8151
 7328SOL    HW234044   0.999   7.360   6.546  0.5858 -0.6303 -0.3560
 7329SOL     OW34045   5.438   9.391   3.035 -0.0732 -0.6585  0.4161
 7329SOL    HW134046   5.440   9.319   2.967 -0.2633 -0.1140 -0.1676
 7329SOL    HW234047   5.513   9.379   3.099  1.1853 -0.1295 -0.9517
 7330SOL     OW34048   3.592   0.555   6.551 -0.4331  0.0794 -0.1146
 7330SOL    HW134049   3.556   0.599   6.634 -0.5365 -0.7035  0.2595
 7330SOL    HW234050   3.519   0.546   6.484 -0.2006  1.2951 -0.5434
 7331SOL     OW34051   8.097   1.380   5.516  0.1548 -0.0481 -0.1832
 7331SOL    HW134052   8.038   1.335   5.583  0.2899  1.7520  1.1689
 7331SOL    HW234053   8.053   1.464   5.484  1.0172  0.1641 -0.8283
 7332SOL     OW34054   9.772   6.852   2.222 -0.3780  0.5493  0.0456
 7332SOL    HW134055   9.733   6.944   2.224  1.6792  1.4525 -0.1846
 7332SOL    HW234056   9.804   6.832   2.130  0.9411  0.3778  0.5295
 7333SOL     OW34057   9.594   6.058   2.338 -0.0717 -0.0873  0.1861
 7333SOL    HW134058   9.514   6.032   2.393  0.1048 -1.9284 -0.3955
 7333SOL    HW234059   9.571   6.050   2.241  0.8635 -0.7683  0.0221
 7334SOL     OW34060   0.297   4.579   7.391  0.8680  0.1435  0.1503
 7334SOL    HW134061   0.391   4.613   7.392  0.6635  0.7493 -0.6800
 7334SOL    HW234062   0.259   4.588   7.299  0.6710 -1.9757 -0.0038
 7335SOL     OW34063   9.456   8.813   4.298  0.3795  0.1260 -0.3711
 7335SOL    HW134064   9.375   8.768   4.336 -0.1688  0.5699 -1.0085
 7335SOL    HW234065   9.513   8.847   4.373  0.0584 -0.3232  0.0788
 7336SOL     OW34066   0.845   9.737   5.162 -0.4902 -0.3678  0.0592
 7336SOL    HW134067   0.751   9.766   5.145 -0.7235 -0.9135  0.3675
 7336SOL    HW234068   0.852   9.638   5.147 -0.0468 -0.3841  0.3613
 7337SOL     OW34069   2.995   7.483   8.260 -0.3188  0.4019 -0.4067
 7337SOL    HW134070   3.002   7.422   8.339  0.6285  0.3432 -0.5291
 7337SOL    HW234071   2.900   7.491   8.232 -0.5711 -0.1550  0.2925
 7338SOL     OW34072   6.280   0.267   4.299 -0.1310  0.3693 -0.1127
 7338SOL    HW134073   6.268   0.323   4.380 -0.0986  0.9589 -0.5118
 7338SOL    HW234074   6.374   0.275   4.267  0.2839 -1.0862  0.6868
 7339SOL     OW34075   0.621   5.703   9.808  0.1294 -0.1344 -0.3931
 7339SOL    HW134076   0.667   5.615   9.820  0.3177 -0.0063 -0.1845
 7339SOL    HW234077   0.605   5.745   9.897  1.4122  0.7626 -0.5682
 7340SOL     OW34078   9.281   0.558   4.459  0.8083  0.1971  0.2436
 7340SOL    HW134079   9.271   0.530   4.554  0.8366  0.3580  0.2937
 7340SOL    HW234080   9.247   0.485   4.399 -0.4312  0.6434  0.4001
 7341SOL     OW34081   0.894   7.968   4.460 -0.1549 -0.3557 -0.2422
 7341SOL    HW134082   0.811   7.921   4.489  0.8999 -1.0924  1.6505
 7341SOL    HW234083   0.960   7.902   4.424 -0.1634  0.1606 -1.2362
 7342SOL     OW34084   9.339   7.302   1.810  0.2911  0.7180 -0.0791
 7342SOL    HW134085   9.360   7.376   1.746  0.0090  1.5933  0.8331
 7342SOL    HW234086   9.245   7.309   1.841  0.9159  1.3244  1.7549
 7343SOL     OW34087   1.415   9.090   6.637  0.3763 -0.2005  0.0035
 7343SOL    HW134088   1.356   9.010   6.639  2.0896 -1.4728  0.6498
 7343SOL    HW234089   1.508   9.063   6.612  1.2456  1.3868  1.3539
 7344SOL     OW34090   1.672   0.030   9.185 -0.4362  0.3604 -0.6373
 7344SOL    HW134091   1.764   0.051   9.217 -0.4551 -1.0616  0.3884
 7344SOL    HW234092   1.605   0.073   9.245 -0.4595 -1.4963  0.7156
 7345SOL     OW34093   2.406   0.039   5.899 -0.1765  0.0123 -0.2578
 7345SOL    HW134094   2.351   0.077   5.825 -0.2714 -0.0557 -0.2231
 7345SOL    HW234095   2.380   0.082   5.986  0.4760  0.6498 -0.3761
 7346SOL     OW34096   0.352   3.662   9.678 -0.3521  0.3498 -0.2195
 7346SOL    HW134097   0.301   3.582   9.645  0.2109 -0.6760  1.3414
 7346SOL    HW234098   0.422   3.686   9.611  0.1394 -1.0978 -0.2345
 7347SOL     OW34099   4.818   5.343   1.246  0.2678 -0.3501 -0.3805
 7347SOL    HW134100   4.824   5.323   1.344  0.7820  0.1685 -0.3000
 7347SOL    HW234101   4.756   5.278   1.202 -1.4320  0.5467  0.6140
 7348SOL     OW34102   2.901   5.773   0.246  0.4480 -0.1042 -0.4947
 7348SOL    HW134103   2.961   5.745   0.171  2.0456 -0.2203  0.7739
 7348SOL    HW234104   2.898   5.873   0.250 -1.6933 -0.0628 -2.2686
 7349SOL     OW34105   2.108   6.236   8.456 -0.1112  0.4073  0.1855
 7349SOL    HW134106   2.148   6.145   8.468 -1.9018 -0.4077  0.1276
 7349SOL    HW234107   2.111   6.260   8.358 -1.0352 -0.2469 -0.0050
 7350SOL     OW34108   8.121   5.291   6.999 -0.0658  0.0311 -0.2848
 7350SOL    HW134109   8.126   5.365   6.932 -0.1353 -0.2514 -0.6068
 7350SOL    HW234110   8.029   5.252   6.999  0.3991 -1.1078 -1.2649
 7351SOL     OW34111   0.366   3.475   7.529  0.4128 -0.6387  0.4180
 7351SOL    HW134112   0.324   3.436   7.447  0.8575 -2.2867  0.9490
 7351SOL    HW234113   0.465   3.457   7.527  0.9152  2.0235 -0.1760
 7352SOL     OW34114   3.461   3.426   2.943 -0.0557  0.0459 -0.6296
 7352SOL    HW134115   3.452   3.477   3.029  0.9596  0.2655 -0.6371
 7352SOL    HW234116   3.538   3.361   2.952  1.2502  1.3713 -1.9998
 7353SOL     OW34117   0.849   4.030   4.467  0.3517  0.0805 -0.3591
 7353SOL    HW134118   0.789   3.969   4.519 -0.3733  0.4146 -0.8003
 7353SOL    HW234119   0.795   4.103   4.426  1.0145  0.1816 -1.0570
 7354SOL     OW34120   2.767   4.610   4.406  0.2029  0.3369 -0.7762
 7354SOL    HW134121   2.864   4.604   4.430  0.3286 -0.5082 -1.4218
 7354SOL    HW234122   2.757   4.590   4.308 -0.7521 -0.9473 -0.4290
 7355SOL     OW34123   8.824   6.608   1.487 -0.0964  0.8012  0.3586
 7355SOL    HW134124   8.815   6.511   1.466 -1.6952  1.0396 -0.0829
 7355SOL    HW234125   8.860   6.619   1.580  5.1141 -0.2353 -1.3547
 7356SOL     OW34126   6.916   3.582   0.570  0.7568  0.0051 -0.5151
 7356SOL    HW134127   6.909   3.682   0.574  0.4769 -0.0155 -0.4729
 7356SOL    HW234128   6.867   3.549   0.489 -1.0507 -0.2714  0.6468
 7357SOL     OW34129   7.503   0.399   6.736 -0.5364 -0.4447  0.8291
 7357SOL    HW134130   7.552   0.363   6.815 -1.6688  1.5333  2.4733
 7357SOL    HW234131   7.543   0.487   6.710 -2.5330  0.7212  1.5776
 7358SOL     OW34132   8.266   8.863   0.780 -0.2160  0.2314 -0.5233
 7358SOL    HW134133   8.297   8.921   0.856 -2.1390  1.1176 -0.3926
 7358SOL    HW234134   8.294   8.768   0.797  0.9799  0.7335  0.3759
 7359SOL     OW34135   8.732   5.481   1.160  0.0001  0.3662 -0.1927
 7359SOL    HW134136   8.634   5.461   1.164  0.3144 -1.2745 -0.3260
 7359SOL    HW234137   8.777   5.413   1.102  1.1766  1.2726 -0.3481
 7360SOL     OW34138   8.343   7.174   1.248 -0.0710  0.2466  0.2218
 7360SOL    HW134139   8.413   7.157   1.179  0.2138  0.2685  0.5030
 7360SOL    HW234140   8.376   7.244   1.312 -0.6013  0.7154 -0.0114
 7361SOL     OW34141   8.561   9.601   9.977  0.6379 -0.1254  0.4920
 7361SOL    HW134142   8.495   9.611   9.902  1.1408 -3.6110 -0.5119
 7361SOL    HW234143   8.567   9.687  10.027 -3.0947  0.9295 -0.6620
 7362SOL     OW34144   4.299   8.446   7.464 -0.3007  0.4242  0.0417
 7362SOL    HW134145   4.315   8.464   7.366 -1.2664  0.8801 -0.0337
 7362SOL    HW234146   4.204   8.418   7.477 -0.7324  2.2807  1.1038
 7363SOL     OW34147   5.660   4.812   9.759  0.4052 -0.4322 -0.4080
 7363SOL    HW134148   5.639   4.727   9.807 -1.0789 -0.2538 -0.7362
 7363SOL    HW234149   5.712   4.791   9.676 -0.3781 -1.0708 -0.7453
 7364SOL     OW34150   8.279   7.689   5.297  0.0633 -0.5352  0.7495
 7364SOL    HW134151   8.251   7.749   5.222  0.2122  0.0974  1.1927
 7364SOL    HW234152   8.228   7.713   5.380 -0.1806 -1.3050  0.8212
 7365SOL     OW34153   7.672   4.494   8.117 -0.5184 -1.0570  0.3784
 7365SOL    HW134154   7.708   4.452   8.201 -1.3517  1.6457  2.1678
 7365SOL    HW234155   7.745   4.541   8.069 -0.5279 -0.3690  1.0195
 7366SOL     OW34156   0.650   1.136   8.532  0.1787 -0.1709 -0.4196
 7366SOL    HW134157   0.574   1.201   8.532  0.1414 -0.2126  0.3858
 7366SOL    HW234158   0.623   1.054   8.481 -1.0674 -1.0419  1.5478
 7367SOL     OW34159   7.334   8.666   3.800 -0.2373  0.3285  0.2471
 7367SOL    HW134160   7.260   8.623   3.749  2.0991 -1.6461 -1.5751
 7367SOL    HW234161   7.362   8.606   3.874  0.3508  0.5542  0.2042
 7368SOL     OW34162   3.288   4.546   9.147 -0.0956  0.4454  0.0917
 7368SOL    HW134163   3.280   4.640   9.112 -1.3366  0.1491 -0.4435
 7368SOL    HW234164   3.201   4.519   9.188  0.1067 -0.6534 -0.2062
 7369SOL     OW34165   8.484   2.201   0.475  0.1609  0.3320  0.3439
 7369SOL    HW134166   8.403   2.174   0.423  0.7182 -0.2116 -0.2529
 7369SOL    HW234167   8.502   2.134   0.547  0.0609  0.4647  0.4914
 7370SOL     OW34168   3.314   8.310   4.611 -0.2022  0.4278  0.4168
 7370SOL    HW134169   3.314   8.309   4.511  1.2180 -2.0546  0.4043
 7370SOL    HW234170   3.371   8.385   4.644  0.1782  0.6048 -0.6297
 7371SOL     OW34171   2.596   9.293   1.051  0.4339  0.9024 -0.0561
 7371SOL    HW134172   2.678   9.295   0.995  1.5626 -1.5844  1.4233
 7371SOL    HW234173   2.610   9.348   1.134 -0.0281  1.8503 -0.5962
 7372SOL     OW34174   3.134   0.388   0.628  0.1445 -0.3006 -0.1881
 7372SOL    HW134175   3.164   0.350   0.716  0.1008 -2.3677 -1.0308
 7372SOL    HW234176   3.034   0.387   0.624  0.1153  0.8910  0.2022
 7373SOL     OW34177   8.619   4.109   1.285 -0.1822 -1.0411  0.2142
 7373SOL    HW134178   8.560   4.046   1.236  0.9268 -1.8102 -0.1576
 7373SOL    HW234179   8.710   4.069   1.295  0.5891  0.5566 -0.1685
 7374SOL     OW34180   6.572   0.433   5.533 -0.0713 -0.5627  0.1840
 7374SOL    HW134181   6.545   0.337   5.545 -1.1638 -0.4311 -1.0739
 7374SOL    HW234182   6.542   0.465   5.443 -0.6465  1.2801  1.0048
 7375SOL     OW34183   0.463   4.683   5.829 -0.0185  0.0674  0.2555
 7375SOL    HW134184   0.419   4.701   5.916  0.0628  1.0000  0.1029
 7375SOL    HW234185   0.430   4.595   5.793  0.0071 -0.3589  1.2485
 7376SOL     OW34186   9.867   1.911   8.233 -0.4846 -0.0858  0.5765
 7376SOL    HW134187   9.858   1.985   8.166 -1.6222  0.4256  1.2879
 7376SOL    HW234188   9.903   1.829   8.187  1.0071  0.9637 -0.1557
 7377SOL     OW34189   9.207   3.157   5.278  0.3258  0.1638 -0.0362
 7377SOL    HW134190   9.192   3.080   5.216  0.2344 -0.8132  1.1769
 7377SOL    HW234191   9.258   3.125   5.358  2.3005  1.8612 -0.5847
 7378SOL     OW34192   4.305   3.281   5.891  0.1977  0.1680 -0.4299
 7378SOL    HW134193   4.344   3.371   5.874 -1.1890  0.8714  0.0522
 7378SOL    HW234194   4.324   3.221   5.814  1.3847  0.7804 -0.6240
 7379SOL     OW34195   2.817   3.498   2.111 -0.7689  0.3759 -0.0069
 7379SOL    HW134196   2.874   3.552   2.049 -0.6111 -0.7247 -0.8528
 7379SOL    HW234197   2.730   3.544   2.126 -0.3780  1.1831 -0.1827
 7380SOL     OW34198   8.378   6.154   0.685  0.5575 -0.0010 -0.2499
 7380SOL    HW134199   8.398   6.080   0.749  0.9133 -1.2611 -1.8112
 7380SOL    HW234200   8.281   6.152   0.660  0.0029  1.5844  1.5744
 7381SOL     OW34201   3.229   0.876   6.924  0.1324  0.5675  0.0274
 7381SOL    HW134202   3.269   0.953   6.875  0.2345  0.4195 -0.1243
 7381SOL    HW234203   3.138   0.901   6.959 -0.6418  0.1502 -1.6435
 7382SOL     OW34204   9.218   1.635   5.674 -0.4066 -0.3459  0.3486
 7382SOL    HW134205   9.184   1.658   5.583  0.9983 -0.1165 -0.1304
 7382SOL    HW234206   9.273   1.551   5.669 -1.0415 -0.8203  1.1463
 7383SOL     OW34207   1.654   0.239   2.053  0.0869 -0.3387  0.6320
 7383SOL    HW134208   1.729   0.287   2.098  0.0015  0.5049 -0.0917
 7383SOL    HW234209   1.618   0.168   2.113  1.5283 -0.8224  0.9441
 7384SOL     OW34210   1.883   3.453   6.060  0.1263  0.7273 -0.4402
 7384SOL    HW134211   1.812   3.387   6.084  0.9806 -0.6857 -1.7226
 7384SOL    HW234212   1.848   3.546   6.072 -0.7646  0.0759  2.3982
 7385SOL     OW34213   2.510   2.712   6.451  0.1793 -0.5356 -0.3713
 7385SOL    HW134214   2.519   2.776   6.374  2.1220  0.1750  0.4126
 7385SOL    HW234215   2.426   2.732   6.501  0.7950  1.4794 -0.0887
 7386SOL     OW34216   0.971   4.653   8.613 -0.8424 -0.4849  0.1942
 7386SOL    HW134217   0.964   4.603   8.699  1.5524 -0.3923  0.4723
 7386SOL    HW234218   1.020   4.739   8.628  0.9612 -1.1803 -1.5168
 7387SOL     OW34219   0.942   5.927   6.040 -0.4371  0.5391  0.3928
 7387SOL    HW134220   0.916   5.953   5.947  0.1762  0.7370  0.2711
 7387SOL    HW234221   0.929   5.829   6.053 -0.1773  0.4520 -0.0190
 7388SOL     OW34222   0.544   5.237   1.401 -0.3105  0.1160  0.2060
 7388SOL    HW134223   0.530   5.304   1.475 -0.7134  0.4421 -0.1617
 7388SOL    HW234224   0.604   5.277   1.332  1.0711 -0.6408  0.9453
 7389SOL     OW34225   7.190   2.790   2.548  0.1701 -0.3505 -0.3834
 7389SOL    HW134226   7.272   2.831   2.507  1.1814 -1.6221  0.3299
 7389SOL    HW234227   7.176   2.827   2.640 -0.6488  0.6199 -0.8907
 7390SOL     OW34228   3.624   8.910   7.595 -0.2626 -0.3800 -0.0495
 7390SOL    HW134229   3.527   8.916   7.619 -0.2161 -1.2622  0.4022
 7390SOL    HW234230   3.636   8.842   7.522  0.2116 -1.6272  1.1520
 7391SOL     OW34231   1.260   5.583   3.448 -0.2978 -0.1840  0.0912
 7391SOL    HW134232   1.224   5.654   3.508  2.9904  2.4270 -0.8324
 7391SOL    HW234233   1.198   5.569   3.371 -1.7753  0.5031  1.1412
 7392SOL     OW34234   3.030   5.567   0.434  0.0731 -0.0690 -0.0228
 7392SOL    HW134235   2.936   5.596   0.456  1.4264  3.3005  1.5958
 7392SOL    HW234236   3.035   5.544   0.336 -2.2079  0.5378 -0.3249
 7393SOL     OW34237   5.829   3.914   2.705 -0.4144 -0.3582  0.0195
 7393SOL    HW134238   5.851   3.860   2.623 -1.0283 -1.5105  0.6046
 7393SOL    HW234239   5.904   3.907   2.770  0.3155  1.0042 -0.6562
 7394SOL     OW34240   1.861   1.537   3.887 -0.1261 -0.0095 -0.2900
 7394SOL    HW134241   1.954   1.522   3.852 -0.1659  0.7246 -0.7200
 7394SOL    HW234242   1.856   1.626   3.931 -0.7754  0.2116 -0.7977
 7395SOL     OW34243   7.443   2.544   9.892  0.1899  0.1543 -0.1716
 7395SOL    HW134244   7.450   2.626   9.948  0.0347  0.2112 -0.2348
 7395SOL    HW234245   7.347   2.527   9.869  0.1164 -0.5645  0.6160
 7396SOL     OW34246   2.792   7.462   2.619 -0.0844 -0.2418  0.1956
 7396SOL    HW134247   2.783   7.380   2.675  0.0425 -1.7264 -1.8831
 7396SOL    HW234248   2.889   7.477   2.598 -0.1274  0.3122  0.3875
 7397SOL     OW34249   8.444   0.308   0.464  0.4816 -0.2677 -0.3898
 7397SOL    HW134250   8.432   0.287   0.561  0.9396  0.3544 -0.1948
 7397SOL    HW234251   8.441   0.223   0.411 -1.4858 -0.4482 -0.0164
 7398SOL     OW34252   9.112   9.022   5.024  0.5019 -0.0408 -0.3870
 7398SOL    HW134253   9.012   9.018   5.031  0.5240 -1.7727 -0.8749
 7398SOL    HW234254   9.138   9.105   4.974 -0.7634 -0.2230 -1.3899
 7399SOL     OW34255   1.474   8.213   4.670 -0.2665  0.1895 -0.0442
 7399SOL    HW134256   1.552   8.150   4.661 -0.7437 -0.3300 -0.6421
 7399SOL    HW234257   1.421   8.212   4.585 -0.2651  1.4256 -0.0632
 7400SOL     OW34258   4.473   3.535   6.920  0.2253  0.0774  0.8261
 7400SOL    HW134259   4.573   3.529   6.924  0.3029  0.4544 -0.3771
 7400SOL    HW234260   4.433   3.445   6.937  0.8801 -0.7755 -1.9483
 7401SOL     OW34261   1.752   7.725   8.316  0.1345 -0.2223  0.6128
 7401SOL    HW134262   1.684   7.675   8.368 -2.6122  1.3547 -1.3148
 7401SOL    HW234263   1.802   7.787   8.377 -2.4497  1.0079  1.5268
 7402SOL     OW34264   8.113   0.796   5.202 -0.4414  0.7587  0.0759
 7402SOL    HW134265   8.062   0.785   5.117  0.9169  0.1279 -0.6707
 7402SOL    HW234266   8.194   0.738   5.201 -1.3623 -0.6564  2.5973
 7403SOL     OW34267   2.372   9.571   5.770  0.4714 -0.5810  0.0377
 7403SOL    HW134268   2.464   9.603   5.792 -0.9982  2.4265  2.1447
 7403SOL    HW234269   2.352   9.591   5.674  1.5902 -0.1685 -0.1178
 7404SOL     OW34270   4.132   4.953   3.338 -0.1675  0.4299  0.5901
 7404SOL    HW134271   4.216   4.966   3.391 -0.9197  0.3057  1.8239
 7404SOL    HW234272   4.094   5.043   3.313  0.2939  0.4871  0.0662
 7405SOL     OW34273   7.571   0.515   9.810  0.0199 -0.1025  0.0662
 7405SOL    HW134274   7.558   0.614   9.811 -2.0277 -0.3107 -1.1518
 7405SOL    HW234275   7.617   0.488   9.726  0.1480 -0.2225  0.1741
 7406SOL     OW34276   0.682   1.307   7.127 -0.4064  0.0779  0.0487
 7406SOL    HW134277   0.735   1.391   7.114  0.0669 -0.3811 -1.0396
 7406SOL    HW234278   0.616   1.297   7.053 -0.2275 -0.6753 -0.0216
 7407SOL     OW34279   8.802   0.872  10.077  0.0205 -0.5088 -0.0565
 7407SOL    HW134280   8.814   0.963  10.116 -1.2099 -0.9890  1.4959
 7407SOL    HW234281   8.704   0.854  10.065  0.2918 -1.3022 -1.1499
 7408SOL     OW34282   7.703   5.137   3.950 -0.4521 -0.0730 -0.7180
 7408SOL    HW134283   7.745   5.168   3.865 -1.6267 -0.0455 -1.2951
 7408SOL    HW234284   7.655   5.213   3.994 -0.6692 -0.3118 -0.5318
 7409SOL     OW34285   9.353   3.512   3.682  0.4160  0.0374  0.0875
 7409SOL    HW134286   9.263   3.492   3.642  0.3109 -0.7321  0.7100
 7409SOL    HW234287   9.400   3.579   3.624  0.6952 -1.8297 -1.9167
 7410SOL     OW34288   4.533   7.821   3.107  0.0497 -0.1630 -0.1035
 7410SOL    HW134289   4.499   7.791   3.018 -1.8076  0.2269  0.4481
 7410SOL    HW234290   4.577   7.910   3.097  2.6024 -1.4802 -1.1477
 7411SOL     OW34291   8.884   0.238   2.122 -0.3663  0.1756 -0.5242
 7411SOL    HW134292   8.841   0.152   2.093 -0.3455 -0.5166  1.3988
 7411SOL    HW234293   8.814   0.309   2.129 -0.6726 -0.1343 -0.4232
 7412SOL     OW34294   9.415   3.743   6.700 -0.3638 -0.7739 -0.4892
 7412SOL    HW134295   9.419   3.838   6.731  0.5651 -1.1872  0.6694
 7412SOL    HW234296   9.319   3.714   6.693 -0.6438  0.2056 -0.7227
 7413SOL     OW34297   7.029   8.192   4.476  0.3924  0.1845 -0.1006
 7413SOL    HW134298   7.064   8.137   4.400  1.7818  0.9862 -0.0549
 7413SOL    HW234299   7.105   8.224   4.533 -0.7490 -1.9210  2.7206
 7414SOL     OW34300   4.097   1.564   3.645  0.0171  0.1637 -0.0118
 7414SOL    HW134301   4.036   1.491   3.676 -1.0218  0.4514 -1.3547
 7414SOL    HW234302   4.171   1.525   3.591  0.9341 -0.1652  1.4599
 7415SOL     OW34303   4.851   0.227   3.150  0.0785 -0.0000  0.4255
 7415SOL    HW134304   4.760   0.259   3.122  0.9554  1.0952 -1.2844
 7415SOL    HW234305   4.854   0.220   3.250 -1.4970  1.1952  0.5910
 7416SOL     OW34306   0.516   8.295   2.502  0.6919  0.2837  0.0550
 7416SOL    HW134307   0.487   8.280   2.408 -0.2502  0.5966  0.2940
 7416SOL    HW234308   0.437   8.314   2.559  1.2526  0.0218  0.9310
 7417SOL     OW34309   3.764   5.830   5.377 -0.2455 -0.0326 -0.3851
 7417SOL    HW134310   3.764   5.902   5.446  2.4780  0.6092 -0.9963
 7417SOL    HW234311   3.816   5.751   5.411 -0.1774 -0.3097 -1.1126
 7418SOL     OW34312   3.789   3.811   0.921 -0.1394  0.2663  0.2460
 7418SOL    HW134313   3.727   3.773   0.989 -1.9475  0.0719 -1.4817
 7418SOL    HW234314   3.832   3.894   0.958 -1.4756  0.4453  1.4307
 7419SOL     OW34315   6.497   8.934   6.922  0.3684  0.2425  0.2410
 7419SOL    HW134316   6.547   8.885   6.850  1.2517  3.7219 -1.6192
 7419SOL    HW234317   6.561   8.963   6.992 -0.0920 -0.8175  1.1209
 7420SOL     OW34318   6.950   0.518   8.934  0.0590 -0.0107  0.0861
 7420SOL    HW134319   7.013   0.447   8.966  2.0753  2.0834  0.9436
 7420SOL    HW234320   6.943   0.513   8.834 -1.0424 -2.3732  0.2665
 7421SOL     OW34321   4.561   5.288   2.407  0.2304 -0.0947  0.9012
 7421SOL    HW134322   4.576   5.297   2.506  0.4164  3.5255  0.6091
 7421SOL    HW234323   4.633   5.337   2.358 -1.6665  0.8801 -0.9508
 7422SOL     OW34324   4.500   3.487   9.619  0.0131  0.0588  0.1606
 7422SOL    HW134325   4.546   3.490   9.530 -0.3106 -1.0904 -0.0431
 7422SOL    HW234326   4.402   3.503   9.606  0.0502  0.4856  0.3829
 7423SOL     OW34327   6.341   5.361   1.249 -0.2753 -0.5432 -0.1667
 7423SOL    HW134328   6.426   5.376   1.200  0.1258  1.1062  0.9937
 7423SOL    HW234329   6.292   5.448   1.259 -1.3000 -1.1905  0.6133
 7424SOL     OW34330   8.851   5.805   3.121  0.4442  0.3580  0.7689
 7424SOL    HW134331   8.930   5.827   3.064  1.2811 -0.2806  1.6670
 7424SOL    HW234332   8.879   5.745   3.196 -0.7975  0.5368  1.3958
 7425SOL     OW34333   8.529   5.421   9.875 -0.1241 -0.1816 -0.7306
 7425SOL    HW134334   8.520   5.502   9.932 -0.3498 -0.2974 -0.5981
 7425SOL    HW234335   8.534   5.340   9.933 -0.0246 -0.2721 -0.8663
 7426SOL     OW34336   5.828   3.711   9.839  0.6733  0.1644  0.4000
 7426SOL    HW134337   5.923   3.693   9.811  0.9350  0.0060  1.3729
 7426SOL    HW234338   5.817   3.686   9.935 -0.5383 -0.4468  0.0998
 7427SOL     OW34339   9.184   1.878   9.454 -0.1671 -0.1057 -0.0497
 7427SOL    HW134340   9.192   1.839   9.546 -0.0436  1.2323  0.5158
 7427SOL    HW234341   9.149   1.971   9.460 -4.0349 -1.3856 -1.6559
 7428SOL     OW34342   2.783   2.005   1.212  0.2590  0.2052 -0.7365
 7428SOL    HW134343   2.810   1.992   1.308 -1.3284 -1.1827 -0.4313
 7428SOL    HW234344   2.863   2.027   1.157  1.9978 -3.4897  0.1498
 7429SOL     OW34345   5.885   1.271   4.226 -0.2690 -0.3752 -0.3961
 7429SOL    HW134346   5.836   1.221   4.155 -2.1016  1.0029 -0.1652
 7429SOL    HW234347   5.825   1.282   4.306  1.3378 -0.8793  0.9034
 7430SOL     OW34348   5.259   8.172   1.336 -0.2890  0.3798 -0.9688
 7430SOL    HW134349   5.338   8.164   1.275 -0.7127 -0.9903 -1.3491
 7430SOL    HW234350   5.255   8.091   1.395 -1.0996  0.7089 -0.5747
 7431SOL     OW34351   2.082   6.493   7.448  0.7472  0.3109 -0.1519
 7431SOL    HW134352   2.006   6.430   7.462 -0.0443  1.2098 -0.3423
 7431SOL    HW234353   2.047   6.582   7.419  1.8823  0.6946 -0.3896
 7432SOL     OW34354   4.551   3.751   1.723 -0.2165 -0.1939  0.4682
 7432SOL    HW134355   4.631   3.757   1.662  0.6535 -0.4978  1.5640
 7432SOL    HW234356   4.469   3.737   1.668  0.6639 -1.3976 -0.5846
 7433SOL     OW34357   8.124   1.894   9.386 -0.4861 -0.2201  0.3635
 7433SOL    HW134358   8.186   1.972   9.374 -1.5812  0.7230  0.7808
 7433SOL    HW234359   8.116   1.872   9.483 -1.1628 -0.0518  0.3435
 7434SOL     OW34360   1.362   2.903   5.795 -0.4394 -0.3847  0.6804
 7434SOL    HW134361   1.285   2.890   5.732  0.2031 -1.3438  0.0795
 7434SOL    HW234362   1.445   2.921   5.742  0.1367 -1.3567  1.2445
 7435SOL     OW34363   9.770   6.359   7.561  0.0280 -0.4008  0.2944
 7435SOL    HW134364   9.844   6.391   7.619  0.4923 -0.4190 -0.2760
 7435SOL    HW234365   9.789   6.265   7.533 -0.3708 -0.5143  0.4079
 7436SOL     OW34366   9.280   3.745   2.429 -0.2221 -0.3938 -0.3152
 7436SOL    HW134367   9.197   3.744   2.485 -0.3047  2.3106 -0.3130
 7436SOL    HW234368   9.359   3.722   2.486 -0.6723 -0.6543  0.2077
 7437SOL     OW34369   8.512   0.716   8.275  0.0795 -0.0219  0.3232
 7437SOL    HW134370   8.415   0.702   8.257  0.0911  0.8454 -0.4879
 7437SOL    HW234371   8.545   0.648   8.340 -1.2112  0.0555  1.0727
 7438SOL     OW34372   1.711   7.400   5.605  0.0940  0.1689 -0.2465
 7438SOL    HW134373   1.803   7.360   5.603  1.0414  2.2037  1.3124
 7438SOL    HW234374   1.651   7.342   5.661  1.1447  0.2948  1.0283
 7439SOL     OW34375   3.579   5.522   1.249 -0.1384  0.6024 -0.2249
 7439SOL    HW134376   3.664   5.557   1.209  0.4075 -0.7428 -0.2530
 7439SOL    HW234377   3.542   5.449   1.192 -2.0781  2.1120 -0.9493
 7440SOL     OW34378   7.644   6.738   1.614 -0.3461 -0.0639 -0.0619
 7440SOL    HW134379   7.618   6.642   1.598  0.8486  0.0164 -2.6528
 7440SOL    HW234380   7.561   6.793   1.622 -1.0332 -1.0206 -0.4082
 7441SOL     OW34381   0.750   0.289   1.171 -0.0651 -0.3325 -0.2747
 7441SOL    HW134382   0.718   0.208   1.220  1.2465 -0.2830  0.6796
 7441SOL    HW234383   0.850   0.291   1.172  0.0222 -0.5259 -3.2484
 7442SOL     OW34384   8.548   4.193   6.600  0.2640 -0.5119  0.0304
 7442SOL    HW134385   8.518   4.118   6.658 -1.8299 -0.3922 -0.8916
 7442SOL    HW234386   8.471   4.231   6.550  1.8003  0.3102 -1.8096
 7443SOL     OW34387   2.907   8.699   9.050  0.4493  0.7971 -0.2455
 7443SOL    HW134388   2.923   8.686   8.952  0.6523 -0.2378 -0.0809
 7443SOL    HW234389   2.989   8.740   9.091  0.5182  0.8483 -0.4298
 7444SOL     OW34390   6.985   0.928   3.939 -0.0158 -0.0843 -0.2573
 7444SOL    HW134391   6.926   1.003   3.910 -0.3303  0.1046  0.8643
 7444SOL    HW234392   7.080   0.949   3.915 -0.2731  0.0205 -1.2254
 7445SOL     OW34393   3.963   4.845   3.945 -0.0864  0.1810  0.0683
 7445SOL    HW134394   3.990   4.748   3.943  1.1162  0.5168 -0.2257
 7445SOL    HW234395   3.900   4.863   3.870  0.7841 -0.0596 -0.7277
 7446SOL     OW34396   3.778   0.377   8.973  0.0762  0.4865  0.5456
 7446SOL    HW134397   3.690   0.336   8.951  0.5152 -0.4681  0.5652
 7446SOL    HW234398   3.820   0.413   8.890  0.0970  0.0969  0.3878
 7447SOL     OW34399   8.851   9.390   5.738 -0.0336  0.5801 -0.4826
 7447SOL    HW134400   8.843   9.290   5.734 -1.4937  0.7222 -1.5754
 7447SOL    HW234401   8.873   9.426   5.648 -0.3864  1.3015 -0.2861
 7448SOL     OW34402   2.023   5.951   8.613 -0.7011 -0.2841 -0.3547
 7448SOL    HW134403   2.017   5.957   8.513 -1.4517  0.8822 -0.2384
 7448SOL    HW234404   1.935   5.923   8.650 -0.9287  0.9910  0.1033
 7449SOL     OW34405   1.318   8.630   7.786 -0.1310  0.2255  0.1188
 7449SOL    HW134406   1.345   8.630   7.689 -1.1614  0.1194 -0.1769
 7449SOL    HW234407   1.392   8.667   7.841  0.5945 -0.0113 -0.6826
 7450SOL     OW34408   3.584   3.258   7.124 -0.2629 -0.3860 -0.1102
 7450SOL    HW134409   3.551   3.326   7.188 -1.0377  0.9728 -1.9049
 7450SOL    HW234410   3.506   3.211   7.082  0.2208 -1.0022 -0.3310
 7451SOL     OW34411   0.960   8.487   3.193  0.5646 -0.1329 -0.8013
 7451SOL    HW134412   0.903   8.544   3.252  1.1623 -0.7182  0.3484
 7451SOL    HW234413   0.917   8.398   3.179  1.4664 -0.8055  0.5770
 7452SOL     OW34414   8.652   2.960   6.750 -0.5179  0.6574 -0.6155
 7452SOL    HW134415   8.582   2.950   6.679 -0.3456  2.2781 -1.0253
 7452SOL    HW234416   8.686   3.054   6.750  1.7829 -0.1541 -0.5334
 7453SOL     OW34417   3.095   5.743   0.027 -0.2959 -0.5356  0.4910
 7453SOL    HW134418   3.176   5.702  -0.015 -0.2671 -0.4322  0.4438
 7453SOL    HW234419   3.055   5.811  -0.036 -0.6113 -0.8265  0.3754
 7454SOL     OW34420   8.842   0.048   1.453 -0.5553  0.4191  0.6180
 7454SOL    HW134421   8.744   0.067   1.459 -0.4233  0.9413  1.1217
 7454SOL    HW234422   8.893   0.121   1.499 -0.0146 -0.7320  1.8699
 7455SOL     OW34423   3.773   3.829   5.438  0.2179  0.1946 -0.2146
 7455SOL    HW134424   3.784   3.839   5.537 -0.5798 -0.5693 -0.0420
 7455SOL    HW234425   3.770   3.919   5.396 -1.7092  0.6036  0.7212
 7456SOL     OW34426   6.472   9.247   1.695 -0.1667  0.0346  0.4045
 7456SOL    HW134427   6.519   9.320   1.745 -1.6789 -0.1118  2.0837
 7456SOL    HW234428   6.405   9.287   1.633 -0.7129  0.1168  1.0333
 7457SOL     OW34429   0.957   1.850   2.978 -0.4805  0.5203 -0.1165
 7457SOL    HW134430   0.891   1.918   2.945 -0.4278  1.1094  0.9725
 7457SOL    HW234431   0.959   1.851   3.078  0.2758 -0.3666 -0.1167
 7458SOL     OW34432   9.234   2.205   8.095  0.0483  0.3125  0.0575
 7458SOL    HW134433   9.149   2.251   8.069 -1.3269 -1.5903  1.0506
 7458SOL    HW234434   9.275   2.252   8.173 -1.0645  0.1954  0.7262
 7459SOL     OW34435   6.661   7.245   3.348  0.0577 -0.0434 -0.5383
 7459SOL    HW134436   6.569   7.282   3.341 -0.2886 -1.0986 -2.0747
 7459SOL    HW234437   6.700   7.236   3.256  1.4196 -0.2462  0.0458
 7460SOL     OW34438   1.220   9.947   8.088  0.0504 -0.0958 -0.7636
 7460SOL    HW134439   1.256   9.857   8.063 -2.0982 -1.4568  0.8344
 7460SOL    HW234440   1.137   9.965   8.034  0.2805  0.7740 -0.8281
 7461SOL     OW34441   7.286   8.333   2.223 -0.5916  0.4997  0.1889
 7461SOL    HW134442   7.279   8.250   2.277 -0.0387 -1.6384 -2.8835
 7461SOL    HW234443   7.207   8.341   2.163  0.7265  0.6464 -1.5731
 7462SOL     OW34444   2.232   1.596   2.456 -0.5932 -0.0629  0.2503
 7462SOL    HW134445   2.273   1.560   2.372  0.1330 -1.6231  1.2547
 7462SOL    HW234446   2.244   1.530   2.530  0.7069  2.2421  2.1351
 7463SOL     OW34447   5.993   8.789   1.667 -0.1140 -0.1034  1.0803
 7463SOL    HW134448   5.909   8.843   1.678  0.3637  0.5242  1.6469
 7463SOL    HW234449   6.072   8.850   1.661  0.2369 -0.6711 -0.2028
 7464SOL     OW34450   5.055   3.022   1.828  0.6372  0.0713 -0.0639
 7464SOL    HW134451   5.010   2.972   1.754  1.5332 -0.0551 -0.5336
 7464SOL    HW234452   5.153   3.003   1.825  1.3590  3.6259 -1.6847
 7465SOL     OW34453   5.253   2.325   7.399 -0.1866  0.1912  0.3994
 7465SOL    HW134454   5.282   2.229   7.402 -1.6737 -0.3235 -1.2370
 7465SOL    HW234455   5.253   2.362   7.492 -1.6182 -2.0219  1.3182
 7466SOL     OW34456   7.300   9.677   5.198  0.0348 -0.1914  0.1087
 7466SOL    HW134457   7.249   9.656   5.114  2.2773 -1.6002 -0.9574
 7466SOL    HW234458   7.236   9.699   5.271 -1.9935  0.4226 -1.8022
 7467SOL     OW34459   2.192   5.413   3.543 -0.2722 -0.6121 -0.0484
 7467SOL    HW134460   2.167   5.399   3.447 -3.0676 -0.5146  0.6281
 7467SOL    HW234461   2.242   5.499   3.552 -3.1946  1.2504 -0.9340
 7468SOL     OW34462   2.886   3.363   7.249 -0.0964  0.6945  0.8001
 7468SOL    HW134463   2.956   3.318   7.193 -0.8114  0.4039  0.1375
 7468SOL    HW234464   2.916   3.364   7.344  1.2471  1.4271  0.3757
 7469SOL     OW34465   1.861   9.134   6.126 -0.3185  0.2242  0.2606
 7469SOL    HW134466   1.791   9.197   6.092  0.4747  0.9095 -0.1262
 7469SOL    HW234467   1.866   9.053   6.066  0.4236  0.9917 -0.7431
 7470SOL     OW34468   8.532   7.430   3.679  0.1069 -0.2245  0.5291
 7470SOL    HW134469   8.601   7.413   3.749  0.3536 -0.2914  0.2741
 7470SOL    HW234470   8.511   7.345   3.631  0.2964 -0.0853  0.1976
 7471SOL     OW34471   9.054   0.354   7.055  0.5399  0.5127  0.1605
 7471SOL    HW134472   8.966   0.393   7.030  0.0428  0.4464  1.7651
 7471SOL    HW234473   9.065   0.265   7.011 -0.8607 -0.1635  1.1392
 7472SOL     OW34474   0.399   0.809   5.636  0.0289 -0.1831  0.2271
 7472SOL    HW134475   0.496   0.785   5.640  0.1444  0.2787  0.2167
 7472SOL    HW234476   0.349   0.738   5.587  0.2998 -0.6176  0.5804
 7473SOL     OW34477   0.556   0.639   9.026 -0.0609  0.4386 -1.0047
 7473SOL    HW134478   0.632   0.696   9.057 -0.8752  1.3285 -0.5950
 7473SOL    HW234479   0.590   0.550   8.997  0.8578 -0.0928  1.5440
 7474SOL     OW34480   3.673   1.738   4.719 -0.1890  0.3106  0.1307
 7474SOL    HW134481   3.726   1.662   4.757  1.7374  1.5089 -0.0967
 7474SOL    HW234482   3.712   1.765   4.631 -0.7335  1.6828  0.3013
 7475SOL     OW34483   8.968   1.400   5.646  0.4614  0.5992 -0.2939
 7475SOL    HW134484   8.990   1.481   5.700  0.3474  0.7071 -0.4086
 7475SOL    HW234485   8.888   1.354   5.686 -0.2648  1.2573 -0.9727
 7476SOL     OW34486   7.790   6.477   4.733  0.5045 -0.1724 -0.8286
 7476SOL    HW134487   7.737   6.415   4.675 -1.2906  0.1786  0.3598
 7476SOL    HW234488   7.796   6.567   4.690  1.1021 -0.5320 -1.4915
 7477SOL     OW34489   9.800   7.153   6.200  0.2241  0.1052  0.2836
 7477SOL    HW134490   9.723   7.155   6.264 -0.8729  0.6461 -1.0339
 7477SOL    HW234491   9.800   7.067   6.149 -0.1267  0.5298 -0.4489
 7478SOL     OW34492   3.152   5.411   1.924  0.0403 -0.3032  0.0960
 7478SOL    HW134493   3.195   5.496   1.894  0.6234 -1.1521 -1.5987
 7478SOL    HW234494   3.080   5.386   1.859 -1.7012  0.0960  1.8585
 7479SOL     OW34495   1.211   6.949   4.553 -0.2287  0.8350  0.3791
 7479SOL    HW134496   1.144   7.003   4.501 -1.5815  0.1279  1.3423
 7479SOL    HW234497   1.248   6.877   4.495 -1.5108  0.2299  0.2982
 7480SOL     OW34498   9.515   8.507   8.553  0.1166 -0.8312  0.4396
 7480SOL    HW134499   9.594   8.489   8.493 -0.5722  0.7851 -0.9828
 7480SOL    HW234500   9.433   8.520   8.497 -0.7843 -0.5027  1.8201
 7481SOL     OW34501   1.272   9.355   9.050  0.1916 -0.2786  0.3399
 7481SOL    HW134502   1.197   9.301   9.011  1.3167 -0.2512 -1.9912
 7481SOL    HW234503   1.277   9.443   9.003  2.3045 -0.6889 -0.2898
 7482SOL     OW34504   9.122   7.138   3.815 -0.1278  0.0360  0.3163
 7482SOL    HW134505   9.185   7.062   3.799 -0.2949  0.0796 -0.5425
 7482SOL    HW234506   9.144   7.213   3.754 -2.9719 -1.1093 -2.2261
 7483SOL     OW34507   9.384   3.057   9.954  0.4763 -0.2786 -0.7031
 7483SOL    HW134508   9.356   2.994   9.881 -1.0752 -1.1815  0.6476
 7483SOL    HW234509   9.459   3.016  10.005  0.1709 -0.5588 -0.4819
 7484SOL     OW34510   1.128   6.807   2.504 -0.4194  0.2046  0.0857
 7484SOL    HW134511   1.113   6.800   2.405 -2.9712  1.6906  0.3289
 7484SOL    HW234512   1.040   6.808   2.551  0.7841 -3.5645  2.6697
 7485SOL     OW34513   9.888   7.093   6.500 -0.0813  0.2630  0.3675
 7485SOL    HW134514   9.903   7.026   6.427  0.7772  0.4052  0.4097
 7485SOL    HW234515   9.935   7.178   6.477 -2.0816  1.2244 -0.2071
 7486SOL     OW34516   4.317   9.678   1.430 -0.4823 -0.1526  0.5424
 7486SOL    HW134517   4.407   9.665   1.470 -0.2403  0.4199  0.1948
 7486SOL    HW234518   4.277   9.763   1.464 -1.2346 -0.8117  1.3195
 7487SOL     OW34519   8.657   6.023   7.489 -0.1407  0.1622 -0.0454
 7487SOL    HW134520   8.651   5.923   7.486 -0.3779  0.1367  1.1504
 7487SOL    HW234521   8.750   6.050   7.512 -0.3776  0.1842  0.9144
 7488SOL     OW34522   3.532   5.813   5.670  0.3675 -0.2401 -0.1447
 7488SOL    HW134523   3.510   5.792   5.765  0.6323 -1.1219 -0.2780
 7488SOL    HW234524   3.562   5.908   5.663  0.7607 -0.3004  0.7171
 7489SOL     OW34525   6.801   5.453   1.610 -0.8481  0.4133 -0.4054
 7489SOL    HW134526   6.742   5.492   1.681 -3.1421 -1.2633 -1.3430
 7489SOL    HW234527   6.774   5.488   1.520 -1.8493 -1.9740 -1.0738
 7490SOL     OW34528   6.363   7.752   6.346 -0.2068 -0.7248  0.2520
 7490SOL    HW134529   6.404   7.797   6.426 -0.3275 -0.9008  0.4128
 7490SOL    HW234530   6.436   7.722   6.284 -0.1462  0.0962 -0.0722
 7491SOL     OW34531   3.972   7.109   3.699  0.2553  0.4699 -0.3846
 7491SOL    HW134532   3.988   7.206   3.718  0.9038  0.2523  0.1914
 7491SOL    HW234533   3.926   7.067   3.777  0.8730  0.0964 -0.2133
 7492SOL     OW34534   7.732   0.937   1.242  0.0108 -0.9839  0.4101
 7492SOL    HW134535   7.799   0.983   1.300  0.7960 -0.0693 -1.1840
 7492SOL    HW234536   7.651   0.995   1.234 -0.4309 -1.4775  1.2337
 7493SOL     OW34537   9.593   9.647   1.389  0.4563  0.4794  0.5295
 7493SOL    HW134538   9.561   9.595   1.309 -0.9380  1.2799  0.5539
 7493SOL    HW234539   9.687   9.621   1.410  1.1415  0.8735 -1.9093
 7494SOL     OW34540   4.074   3.105   4.106  0.3590  0.5391 -0.4242
 7494SOL    HW134541   4.108   3.021   4.149  0.1504 -0.2016 -1.6990
 7494SOL    HW234542   3.977   3.118   4.129  0.2658  0.1801 -0.6168
 7495SOL     OW34543   4.086   6.338   3.962  0.3926 -0.8413 -0.1195
 7495SOL    HW134544   4.119   6.330   4.056 -2.0114  2.6223  1.1090
 7495SOL    HW234545   3.986   6.343   3.962  0.4384  1.3798 -2.6327
 7496SOL     OW34546   2.305   3.355   9.229  0.5904  0.5818 -0.5096
 7496SOL    HW134547   2.285   3.268   9.273  1.0122  0.7002 -0.0693
 7496SOL    HW234548   2.393   3.350   9.182  1.1356  1.0936  0.4304
 7497SOL     OW34549   7.779   9.129   7.844 -0.8384  0.1723 -0.0543
 7497SOL    HW134550   7.768   9.226   7.820 -0.5269  0.1356 -0.3530
 7497SOL    HW234551   7.732   9.111   7.931  1.0988  1.1332  1.2370
 7498SOL     OW34552   2.925   8.774   8.590  0.5321 -0.0058 -0.1561
 7498SOL    HW134553   2.921   8.850   8.656  0.5839  0.9752 -1.2678
 7498SOL    HW234554   2.834   8.759   8.551 -0.1669 -2.4868  2.1966
 7499SOL     OW34555   2.777   5.046   8.754 -0.4140 -0.1342  0.0558
 7499SOL    HW134556   2.818   5.103   8.825 -0.7672  0.6881 -0.3978
 7499SOL    HW234557   2.687   5.014   8.784  1.3395 -3.6528  1.9330
 7500SOL     OW34558   3.349   5.659   3.561  0.7251 -0.7253 -0.1677
 7500SOL    HW134559   3.419   5.638   3.493  1.1895 -0.6573  0.2853
 7500SOL    HW234560   3.388   5.652   3.653  0.2298 -0.3612  0.0776
 7501SOL     OW34561   0.840   1.044   3.001 -0.6561  0.1018  0.3631
 7501SOL    HW134562   0.860   1.043   2.904 -0.3043  0.6520  0.4289
 7501SOL    HW234563   0.890   1.119   3.045  1.0569 -1.5785  1.3709
 7502SOL     OW34564   0.606   9.749   5.040 -0.3657 -0.3691  0.0168
 7502SOL    HW134565   0.644   9.735   4.949  1.0078 -0.5363  0.5940
 7502SOL    HW234566   0.533   9.817   5.036  2.4230  2.7361 -0.5889
 7503SOL     OW34567   0.851   8.825   0.191 -0.1535 -0.0037  0.3592
 7503SOL    HW134568   0.851   8.729   0.219  1.2013  0.2427  1.2719
 7503SOL    HW234569   0.914   8.838   0.114 -0.5858  0.0924  0.0220
 7504SOL     OW34570   4.985   8.696   2.591 -0.6377  0.6365  0.6880
 7504SOL    HW134571   4.947   8.608   2.619 -0.9318  0.3814 -0.4490
 7504SOL    HW234572   5.030   8.686   2.502  0.5573  1.3312  1.2055
 7505SOL     OW34573   3.482   4.275   2.470  0.4488  0.1179 -0.5671
 7505SOL    HW134574   3.556   4.319   2.521 -1.4277  1.1091  1.4006
 7505SOL    HW234575   3.492   4.294   2.372  2.5298  0.5852 -0.2827
 7506SOL     OW34576   9.731   3.594   3.118 -0.3980 -0.7088 -0.3420
 7506SOL    HW134577   9.745   3.495   3.126  0.7207 -0.7525 -2.4868
 7506SOL    HW234578   9.769   3.626   3.031 -1.0158  1.5676  0.1989
 7507SOL     OW34579   6.980   9.356   6.070 -0.2535 -0.8091  0.4231
 7507SOL    HW134580   6.936   9.420   6.133 -2.9562 -2.1303 -0.0454
 7507SOL    HW234581   6.910   9.303   6.023  1.8657 -2.4014 -1.0029
 7508SOL     OW34582   9.844   0.480   2.194  0.1204  0.0737  0.8321
 7508SOL    HW134583   9.912   0.409   2.178 -1.8733 -1.2118 -2.6827
 7508SOL    HW234584   9.879   0.568   2.161  0.7883 -0.2070  0.7911
 7509SOL     OW34585   4.433   4.283   6.949  0.5534  0.3794  0.4765
 7509SOL    HW134586   4.347   4.334   6.947  0.2739 -0.1324 -0.4345
 7509SOL    HW234587   4.432   4.220   7.027  0.2392  0.5969  0.6525
 7510SOL     OW34588   1.294   1.981   8.020 -0.1078 -0.3717 -0.4735
 7510SOL    HW134589   1.241   1.906   8.059  0.4732 -0.0757  0.9033
 7510SOL    HW234590   1.354   2.021   8.090 -0.8145  1.7411 -1.0283
 7511SOL     OW34591   5.698   5.676   1.459  0.0064 -0.1429 -0.2673
 7511SOL    HW134592   5.616   5.728   1.435 -0.3800 -1.6537 -2.3538
 7511SOL    HW234593   5.744   5.646   1.375  0.5361 -2.6462  0.8784
 7512SOL     OW34594   7.701   6.815   8.924  0.2670  0.2184 -0.6659
 7512SOL    HW134595   7.728   6.843   9.016  0.8049  0.8154 -0.9985
 7512SOL    HW234596   7.604   6.791   8.923 -0.3333  2.4671 -0.4252
 7513SOL     OW34597   1.582   3.584   8.225  0.0332  0.0098 -0.0958
 7513SOL    HW134598   1.638   3.602   8.305  1.1611 -2.6616 -0.2135
 7513SOL    HW234599   1.557   3.670   8.180  0.4008  1.4545  2.4152
 7514SOL     OW34600   3.897   7.962   7.890  0.8961 -0.2603 -0.3259
 7514SOL    HW134601   3.884   7.988   7.795  0.0857  1.8242  0.3243
 7514SOL    HW234602   3.980   8.004   7.926  0.9486 -0.6466  0.0057
 7515SOL     OW34603   2.909   9.714   4.719 -0.5236  0.5223  0.1284
 7515SOL    HW134604   2.890   9.649   4.645 -1.6067  2.6292 -1.4829
 7515SOL    HW234605   2.979   9.779   4.690  0.5549  0.1263  1.7321
 7516SOL     OW34606   9.297   2.393   9.754  0.2895 -0.5316 -0.8555
 7516SOL    HW134607   9.393   2.406   9.728  0.2942 -1.4356 -1.2838
 7516SOL    HW234608   9.289   2.402   9.854  0.8623 -0.7161 -0.7886
 7517SOL     OW34609   1.423   9.770   0.247 -0.6248  0.3245 -0.1358
 7517SOL    HW134610   1.373   9.687   0.223 -0.5023  0.0086  0.7139
 7517SOL    HW234611   1.429   9.829   0.166  0.2543 -0.9776 -1.0418
 7518SOL     OW34612   6.486   1.599   8.629  0.2051 -0.0109 -0.0807
 7518SOL    HW134613   6.439   1.686   8.612  1.5402  0.8935  0.7536
 7518SOL    HW234614   6.474   1.538   8.550 -0.6985  0.9494 -0.6944
 7519SOL     OW34615   5.772   1.035   5.892  0.2792 -0.0808 -0.3849
 7519SOL    HW134616   5.691   1.003   5.941  0.4433  0.2091  0.0756
 7519SOL    HW234617   5.830   0.956   5.868  1.3727 -0.0224  1.9625
 7520SOL     OW34618   3.269   5.683   8.517 -0.7585 -0.6558 -0.1719
 7520SOL    HW134619   3.186   5.640   8.550 -0.0371 -1.2761  0.8445
 7520SOL    HW234620   3.336   5.690   8.591 -0.1206  0.3687 -0.8281
 7521SOL     OW34621   1.915   9.387   7.992  0.0233 -0.4611 -0.0947
 7521SOL    HW134622   1.829   9.436   7.973 -0.2968 -1.1392 -0.4251
 7521SOL    HW234623   1.965   9.434   8.064 -0.7408 -0.1858  0.2601
 7522SOL     OW34624   4.000   5.762   1.023 -0.3342  0.1582 -0.1639
 7522SOL    HW134625   4.099   5.753   1.024 -0.4485 -1.1941  2.0499
 7522SOL    HW234626   3.975   5.856   1.046  0.3962  0.2373  0.3053
 7523SOL     OW34627   4.724   2.668   5.229 -0.2636  0.4302  0.3667
 7523SOL    HW134628   4.664   2.675   5.308 -0.6135 -0.0643  0.1536
 7523SOL    HW234629   4.815   2.702   5.252 -0.0338 -0.7750  1.3375
 7524SOL     OW34630   4.668   3.730   5.737 -0.2563 -0.6637 -0.3478
 7524SOL    HW134631   4.720   3.784   5.671  0.0294 -1.2784 -0.6337
 7524SOL    HW234632   4.644   3.641   5.696 -2.8984  0.1990 -0.7970
 7525SOL     OW34633   7.201   1.328   7.229 -0.5920  0.7881  0.3217
 7525SOL    HW134634   7.125   1.341   7.292 -0.7752  1.3882 -0.0163
 7525SOL    HW234635   7.281   1.378   7.262 -0.7853  1.3743 -0.0858
 7526SOL     OW34636   8.562   5.210   4.993 -0.0903  0.3754  0.4190
 7526SOL    HW134637   8.474   5.172   4.963 -1.4578  2.4455  1.6933
 7526SOL    HW234638   8.585   5.172   5.083  0.8408 -0.9290 -0.3530
 7527SOL     OW34639   2.154   4.453   8.094  0.3672 -0.1012  0.8192
 7527SOL    HW134640   2.207   4.501   8.163  0.9425 -0.2381  0.4752
 7527SOL    HW234641   2.061   4.438   8.127  0.2196  1.1240  0.9869
 7528SOL     OW34642   1.652   7.765  10.074 -0.3754 -0.0159  0.2443
 7528SOL    HW134643   1.578   7.698  10.073 -0.3105 -0.0898  0.3978
 7528SOL    HW234644   1.738   7.721  10.049 -0.4911  0.1991 -0.5323
 7529SOL     OW34645   1.994   7.461   8.037  0.1701 -0.2605 -0.5367
 7529SOL    HW134646   1.981   7.560   8.024  1.4808  0.0580  0.4529
 7529SOL    HW234647   1.919   7.412   7.993 -0.7483  1.1973 -0.6507
 7530SOL     OW34648   9.194   0.424   8.357  0.0164 -0.2698  0.3247
 7530SOL    HW134649   9.265   0.473   8.307 -0.2155  1.1983  1.4045
 7530SOL    HW234650   9.125   0.391   8.294  0.9593 -0.5281 -0.5857
 7531SOL     OW34651   8.284   0.951   1.083 -0.0038  0.2641  0.0810
 7531SOL    HW134652   8.368   1.004   1.075 -0.6915  1.4415  0.6389
 7531SOL    HW234653   8.208   1.001   1.042 -0.6372 -0.3380  0.5013
 7532SOL     OW34654   9.857   8.013   1.874 -0.1853 -0.6729  0.0591
 7532SOL    HW134655   9.912   8.030   1.793 -0.4877  1.8433  0.3428
 7532SOL    HW234656   9.916   7.982   1.949  0.6766  0.8106  0.0048
 7533SOL     OW34657   1.253   9.562   0.200 -0.0173 -0.0805 -0.1645
 7533SOL    HW134658   1.268   9.464   0.203  0.4423 -0.0923 -2.1075
 7533SOL    HW234659   1.184   9.584   0.130 -0.7538  0.9184  0.8383
 7534SOL     OW34660   1.519   9.908   1.076  0.4343  0.3579 -0.2023
 7534SOL    HW134661   1.516   9.845   0.998  1.5783 -1.4683  1.2085
 7534SOL    HW234662   1.566   9.992   1.048  1.0417 -0.3673 -1.4296
 7535SOL     OW34663   1.479   9.955   1.989  0.4753 -0.4677  0.9573
 7535SOL    HW134664   1.484  10.012   2.072  0.3132 -3.3763  3.0255
 7535SOL    HW234665   1.570   9.919   1.969  0.5834  0.4966 -0.3818
 7536SOL     OW34666   3.732   0.895   3.543 -0.2260  0.0967 -0.2787
 7536SOL    HW134667   3.795   0.881   3.620 -0.5514 -1.5559 -0.2982
 7536SOL    HW234668   3.655   0.951   3.573 -0.6002 -0.9479  0.7424
 7537SOL     OW34669   0.290   9.664   9.090 -0.0316 -0.3626 -0.0597
 7537SOL    HW134670   0.205   9.617   9.116  0.7023 -0.8425  1.5426
 7537SOL    HW234671   0.349   9.601   9.040 -0.7950  0.1044 -1.5801
 7538SOL     OW34672   9.030   9.894   7.325 -0.3194 -0.3294  0.1832
 7538SOL    HW134673   8.974   9.881   7.243  1.1915 -2.0709 -0.6412
 7538SOL    HW234674   9.121   9.856   7.308 -0.1547 -1.2397  2.8609
 7539SOL     OW34675   3.628   0.875   2.645 -0.2100 -0.2499  0.8289
 7539SOL    HW134676   3.573   0.821   2.708  1.1660  1.1200  3.2738
 7539SOL    HW234677   3.718   0.833   2.633  0.9935  1.5966  3.0182
 7540SOL     OW34678   2.066   6.864   4.731 -0.3709  0.1024  0.1022
 7540SOL    HW134679   2.144   6.912   4.691 -0.9151 -0.1926 -1.3301
 7540SOL    HW234680   2.006   6.830   4.658 -1.8407  0.3272  1.1750
 7541SOL     OW34681   8.769   1.559   6.954  0.3611  0.1642 -0.0384
 7541SOL    HW134682   8.861   1.519   6.947  0.8094  1.1163  0.2418
 7541SOL    HW234683   8.702   1.494   6.919  0.9438 -1.2680  1.4526
 7542SOL     OW34684   1.693   6.587   5.865  1.1057 -0.1512  0.2116
 7542SOL    HW134685   1.771   6.525   5.856 -0.6897 -2.7275  1.6902
 7542SOL    HW234686   1.642   6.590   5.779  1.2370 -0.6949  0.1152
 7543SOL     OW34687   7.421   8.188   1.778 -0.1360  0.0630 -0.5659
 7543SOL    HW134688   7.418   8.091   1.801 -2.8821  0.3090  0.2122
 7543SOL    HW234689   7.508   8.208   1.731  0.5142 -2.7115 -0.6359
 7544SOL     OW34690   7.892   1.268   3.279 -0.0512 -0.2298  0.1602
 7544SOL    HW134691   7.881   1.363   3.309 -0.8087  0.4549 -2.1486
 7544SOL    HW234692   7.969   1.261   3.215 -1.8425 -0.5486 -2.0417
 7545SOL     OW34693   8.936   7.881   6.430  0.0966 -0.3645 -0.0029
 7545SOL    HW134694   8.870   7.885   6.355  0.4069  0.1609 -0.2521
 7545SOL    HW234695   9.018   7.831   6.401  0.3766  0.1705 -0.1452
 7546SOL     OW34696   7.479   0.325   9.142  0.0573  0.8698 -0.1474
 7546SOL    HW134697   7.456   0.368   9.229  0.1033  0.7565 -0.0795
 7546SOL    HW234698   7.534   0.389   9.087 -1.7970  1.7792 -0.9966
 7547SOL     OW34699   9.087   9.821   0.279 -0.2049  0.2721  0.0783
 7547SOL    HW134700   9.125   9.824   0.372 -0.6709  1.3500  0.2472
 7547SOL    HW234701   9.089   9.728   0.245 -0.7329 -0.2676  1.4848
 7548SOL     OW34702   0.685   2.219   4.118 -0.1675  0.3521 -0.1182
 7548SOL    HW134703   0.685   2.260   4.210 -1.2606  0.5468 -0.1904
 7548SOL    HW234704   0.763   2.253   4.066  0.3883  0.3407  0.6972
 7549SOL     OW34705   2.229   8.805   1.329 -0.7947  0.2720  0.1750
 7549SOL    HW134706   2.197   8.872   1.396  0.1192 -0.3357  1.2432
 7549SOL    HW234707   2.154   8.781   1.268 -0.6857  3.5539 -1.3570
 7550SOL     OW34708   9.906   7.268   9.961  0.0488  0.3940 -0.2020
 7550SOL    HW134709   9.853   7.299  10.040 -0.1535  1.1644 -0.6443
 7550SOL    HW234710   9.994   7.232   9.992  0.8217  2.5869  0.2021
 7551SOL     OW34711   3.454   9.763   6.065 -0.6329  0.2700  0.0832
 7551SOL    HW134712   3.536   9.791   6.114 -1.3608  1.7081  0.5311
 7551SOL    HW234713   3.419   9.678   6.103 -0.6175  0.8474  1.3975
 7552SOL     OW34714   5.774   0.123   5.063  0.5315  0.1854  1.0304
 7552SOL    HW134715   5.851   0.171   5.019 -0.2888 -1.3798 -2.3149
 7552SOL    HW234716   5.690   0.174   5.045 -0.1324 -1.6380 -1.2735
 7553SOL     OW34717   3.268   6.391   4.516 -0.0738  0.1210  0.4646
 7553SOL    HW134718   3.265   6.318   4.448  2.4963  0.7162 -0.3169
 7553SOL    HW234719   3.278   6.351   4.607 -0.7919 -0.5691  0.2470
 7554SOL     OW34720   6.401   5.603   9.822 -0.1146 -0.1025 -0.6341
 7554SOL    HW134721   6.460   5.564   9.751  1.0724  0.1447  0.1986
 7554SOL    HW234722   6.332   5.536   9.849  0.1759 -0.6200 -1.1589
 7555SOL     OW34723   1.629   7.742   6.894 -0.5594  0.1039  0.1439
 7555SOL    HW134724   1.592   7.649   6.902 -0.5031  0.1956  1.5616
 7555SOL    HW234725   1.563   7.800   6.846 -2.2236  0.2326  2.5144
 7556SOL     OW34726   8.647   1.313   6.769  0.1343  0.0115 -0.6025
 7556SOL    HW134727   8.675   1.335   6.676  0.6495  0.5492 -0.3179
 7556SOL    HW234728   8.612   1.219   6.772  0.0373  0.0241 -1.3523
 7557SOL     OW34729   4.086   5.445   4.174  0.6524  0.2228 -0.2973
 7557SOL    HW134730   4.073   5.522   4.235 -0.8963  0.1714 -0.5227
 7557SOL    HW234731   3.996   5.413   4.141  1.1628 -2.4592  0.7747
 7558SOL     OW34732   3.861   7.637   9.396  0.4664 -0.3843 -0.6948
 7558SOL    HW134733   3.849   7.558   9.337 -0.9216 -0.8818  0.2392
 7558SOL    HW234734   3.956   7.639   9.430  1.2797 -0.0777 -2.9094
 7559SOL     OW34735   3.054   6.651   2.094  0.2038 -0.4059 -0.2508
 7559SOL    HW134736   3.070   6.568   2.041  1.1960 -0.7786  0.6100
 7559SOL    HW234737   2.960   6.650   2.129 -0.1162 -0.6628 -1.1217
 7560SOL     OW34738   3.241   8.241   9.132 -0.4602 -0.3533  0.5992
 7560SOL    HW134739   3.232   8.301   9.052  1.6857  0.9274  1.3044
 7560SOL    HW234740   3.277   8.152   9.102 -1.8565 -0.6881 -0.1659
 7561SOL     OW34741   2.541   1.510   3.949 -0.2402  0.3487  0.3432
 7561SOL    HW134742   2.628   1.480   3.988 -0.3219 -0.6852 -0.2546
 7561SOL    HW234743   2.524   1.605   3.976  1.8272  1.0994 -0.7794
 7562SOL     OW34744   6.205   3.066   1.663 -0.5920 -0.1052  0.0312
 7562SOL    HW134745   6.209   3.028   1.571 -2.4211  1.9281 -0.9282
 7562SOL    HW234746   6.111   3.061   1.697 -0.0118 -0.4858  1.6696
 7563SOL     OW34747   9.437   7.105   7.239  0.3555  0.1588 -0.2145
 7563SOL    HW134748   9.387   7.150   7.165 -0.8591 -0.8680 -0.0231
 7563SOL    HW234749   9.496   7.172   7.284  0.1405  1.0890 -1.2693
 7564SOL     OW34750   8.338   7.186   0.884  0.4272 -0.0998  0.2321
 7564SOL    HW134751   8.401   7.206   0.959  1.6847 -1.4329 -0.4220
 7564SOL    HW234752   8.347   7.089   0.858  0.7792  0.5640 -2.3106
 7565SOL     OW34753   9.346   6.005   5.842  0.4587 -0.2694 -0.3112
 7565SOL    HW134754   9.414   6.078   5.852 -1.1118  1.3849 -1.3096
 7565SOL    HW234755   9.370   5.947   5.765  0.1902  0.9539 -1.3327
 7566SOL     OW34756   3.301   1.118   6.875  0.2073  0.5708 -0.1909
 7566SOL    HW134757   3.381   1.156   6.828  0.5895 -1.3444 -1.1366
 7566SOL    HW234758   3.317   1.121   6.973  1.5379  0.0433 -0.3722
 7567SOL     OW34759   1.861   7.629  10.014 -0.9410 -0.1666 -0.4681
 7567SOL    HW134760   1.865   7.650   9.916  0.1745 -0.7581 -0.5504
 7567SOL    HW234761   1.952   7.603  10.047 -1.5924 -1.3735  0.4075
 7568SOL     OW34762   8.011   4.966   0.422  0.4645  0.4817  0.1923
 7568SOL    HW134763   7.939   4.945   0.489  0.1219  1.6151  0.1916
 7568SOL    HW234764   7.974   4.959   0.330  0.5609  0.3140  0.1663
 7569SOL     OW34765   8.542   1.972   4.439  0.2911  0.3741 -0.1044
 7569SOL    HW134766   8.619   1.998   4.381  1.3008 -0.5325  0.8184
 7569SOL    HW234767   8.459   2.017   4.406  1.0267  0.6032 -1.6894
 7570SOL     OW34768   0.385   8.083   6.575  0.2406 -0.0610  0.2149
 7570SOL    HW134769   0.462   8.088   6.511  0.9137 -0.2515  0.9867
 7570SOL    HW234770   0.391   7.997   6.626 -0.3553  0.0358  0.4453
 7571SOL     OW34771   3.907   3.206   9.231 -0.4997 -0.5738  0.0548
 7571SOL    HW134772   3.897   3.136   9.159  0.9627 -0.3688 -0.3610
 7571SOL    HW234773   3.956   3.167   9.309  0.2513 -0.0404 -0.1463
 7572SOL     OW34774   4.606   3.324   9.239 -0.3227  0.4319  0.3541
 7572SOL    HW134775   4.521   3.369   9.211 -0.1356  0.8579  0.4657
 7572SOL    HW234776   4.648   3.376   9.314  0.3146  0.5252 -0.0672
 7573SOL     OW34777   6.207   9.162   5.467 -0.3043  0.2215 -0.5153
 7573SOL    HW134778   6.168   9.254   5.462 -0.0276  0.4222  0.9432
 7573SOL    HW234779   6.135   9.097   5.491 -0.6618 -0.0694 -2.3019
 7574SOL     OW34780   3.876   0.928   1.371 -0.0726 -0.1819  0.1735
 7574SOL    HW134781   3.838   0.845   1.332 -0.9235 -0.0645  0.7394
 7574SOL    HW234782   3.802   0.985   1.407  0.4475  1.1292 -0.8020
 7575SOL     OW34783   9.463   6.219   6.062  0.0732 -0.1316 -0.3289
 7575SOL    HW134784   9.479   6.298   6.001  1.9440  0.8180  1.3531
 7575SOL    HW234785   9.391   6.243   6.128 -1.4333 -0.9034 -1.6496
 7576SOL     OW34786   2.825   4.379   9.875 -0.1221 -0.1829 -0.5046
 7576SOL    HW134787   2.857   4.352   9.965 -0.1934 -1.6549 -0.9058
 7576SOL    HW234788   2.794   4.474   9.877  0.9945  0.1706  0.7183
 7577SOL     OW34789   7.897   6.137   3.351 -0.4369 -0.4025  0.1611
 7577SOL    HW134790   7.936   6.152   3.442 -0.5511 -0.9164  0.2927
 7577SOL    HW234791   7.873   6.041   3.339 -2.5354  0.0646  0.4160
 7578SOL     OW34792   1.272   9.643   7.334 -0.0561 -0.6818 -0.0098
 7578SOL    HW134793   1.337   9.690   7.394  0.9286 -1.4559 -0.4510
 7578SOL    HW234794   1.321   9.606   7.256 -1.4392  0.9713 -1.7042
 7579SOL     OW34795   6.764   1.498   2.327 -0.4130  0.1299 -0.0619
 7579SOL    HW134796   6.796   1.414   2.284 -2.2333 -0.4324 -0.3450
 7579SOL    HW234797   6.712   1.475   2.409 -0.2876  1.0237  0.2715
 7580SOL     OW34798   4.671   5.091   6.944 -0.5334  0.3140 -0.1389
 7580SOL    HW134799   4.632   5.000   6.929 -1.7971  0.5649  1.4870
 7580SOL    HW234800   4.599   5.159   6.942  0.3373  1.2343 -0.7931
 7581SOL     OW34801   3.121   5.078   8.667 -0.0860  0.2395  0.3012
 7581SOL    HW134802   3.142   4.992   8.713 -0.5460  0.6234  1.2317
 7581SOL    HW234803   3.049   5.063   8.599 -1.2294  0.1833  1.5092
 7582SOL     OW34804   8.191   9.146   7.545  0.3884  0.0738  0.6748
 7582SOL    HW134805   8.122   9.140   7.617  0.9526  0.2361  1.2270
 7582SOL    HW234806   8.207   9.242   7.522 -0.4972 -0.0175 -0.3527
 7583SOL     OW34807   5.792   8.106   6.954  0.0305 -0.1153 -0.5419
 7583SOL    HW134808   5.779   8.126   6.857  0.3997  1.2210 -0.3245
 7583SOL    HW234809   5.835   8.184   6.999  2.0455 -1.5917  0.2291
 7584SOL     OW34810   5.361   3.295   6.822  0.3100  0.1080 -0.0863
 7584SOL    HW134811   5.271   3.312   6.783  0.1689  0.8892  0.5738
 7584SOL    HW234812   5.376   3.355   6.901  2.0144  1.0738 -1.1209
 7585SOL     OW34813   4.533   8.995   8.766  0.3942  0.1917  0.5096
 7585SOL    HW134814   4.476   9.045   8.830  0.5005 -1.2455  1.7448
 7585SOL    HW234815   4.499   9.009   8.673 -0.6472  1.0990  1.0197
 7586SOL     OW34816   0.492   8.712   9.393  0.1121  0.2836 -0.1947
 7586SOL    HW134817   0.454   8.780   9.456 -1.3121  1.3303 -2.1015
 7586SOL    HW234818   0.441   8.715   9.307  1.2658 -1.9059 -0.9914
 7587SOL     OW34819   1.657   9.684   3.191  0.8892 -0.2811  0.2655
 7587SOL    HW134820   1.717   9.714   3.117  0.5634  0.5653  0.3474
 7587SOL    HW234821   1.703   9.612   3.244  0.4855 -2.0602 -1.7356
 7588SOL     OW34822   5.356   9.629   2.393 -0.3665  0.3226  0.1003
 7588SOL    HW134823   5.424   9.655   2.462  1.1529 -1.4948 -0.6571
 7588SOL    HW234824   5.305   9.549   2.426  1.4787 -1.5623 -1.5341
 7589SOL     OW34825   8.315   1.601   3.902  0.7664  0.1952  0.1313
 7589SOL    HW134826   8.356   1.558   3.822  1.3656 -1.0508  1.0997
 7589SOL    HW234827   8.222   1.567   3.914 -0.1460  2.0330 -1.2891
 7590SOL     OW34828   2.269   2.716   5.193  0.3715  0.2531  0.2400
 7590SOL    HW134829   2.345   2.765   5.235  0.4563  1.2270 -1.0260
 7590SOL    HW234830   2.221   2.777   5.130 -0.7742 -0.6878  0.1895
 7591SOL     OW34831   3.324   2.623   9.892  0.4230 -0.6365  0.0476
 7591SOL    HW134832   3.396   2.670   9.839 -0.9342 -0.4468 -1.6778
 7591SOL    HW234833   3.365   2.547   9.943  2.2793  1.0131  1.1151
 7592SOL     OW34834   0.243   1.416   9.193 -0.0569 -0.3392 -0.5974
 7592SOL    HW134835   0.256   1.376   9.284 -0.0295 -0.5978 -0.7144
 7592SOL    HW234836   0.147   1.438   9.180 -0.1937 -1.0543 -0.8151
 7593SOL     OW34837   0.249   8.096   8.120 -0.3918 -0.4336 -0.3396
 7593SOL    HW134838   0.293   8.181   8.149 -0.3966 -0.4281 -0.3494
 7593SOL    HW234839   0.203   8.054   8.199  1.1297 -1.3525  0.0802
 7594SOL     OW34840   5.394   2.797   5.592  0.0431 -0.4839  0.4497
 7594SOL    HW134841   5.448   2.713   5.584  0.8487  0.0539  0.1448
 7594SOL    HW234842   5.452   2.875   5.571 -0.4267  0.2350  1.7709
 7595SOL     OW34843   4.583   9.579   3.309 -0.2221 -0.1154 -0.6159
 7595SOL    HW134844   4.643   9.657   3.292 -0.6974  0.0977 -1.3198
 7595SOL    HW234845   4.496   9.593   3.263 -0.8710 -0.3622  0.5223
 7596SOL     OW34846   8.324   3.896   9.409 -0.2151 -0.1732  0.3290
 7596SOL    HW134847   8.390   3.936   9.345 -0.6759 -1.2448 -0.8174
 7596SOL    HW234848   8.353   3.803   9.433 -1.6814 -0.9066 -0.7255
 7597SOL     OW34849   0.705   3.847   1.305  0.1428 -0.1459  0.0022
 7597SOL    HW134850   0.720   3.928   1.249  0.1603 -0.5528 -0.5798
 7597SOL    HW234851   0.791   3.821   1.350  0.5665 -0.9202 -1.2500
 7598SOL     OW34852   8.755   9.744   5.160  0.4803  0.2552 -0.7793
 7598SOL    HW134853   8.739   9.649   5.133  1.2274 -0.2834  0.6035
 7598SOL    HW234854   8.847   9.753   5.199 -0.2642  1.1528  0.8132
 7599SOL     OW34855   7.057   4.377   9.917  0.1850 -0.5039  0.7308
 7599SOL    HW134856   6.975   4.427   9.890  0.6146 -1.0361 -1.6758
 7599SOL    HW234857   7.031   4.289   9.958 -0.4735  0.3669  2.2471
 7600SOL     OW34858   5.703   1.072   2.249  0.3233 -0.1570 -0.1418
 7600SOL    HW134859   5.801   1.061   2.263  0.1602  0.3228  1.4232
 7600SOL    HW234860   5.655   0.990   2.280  0.1700 -0.1740 -0.4142
 7601SOL     OW34861   9.334   2.973   8.973 -0.0510 -0.0761 -0.2726
 7601SOL    HW134862   9.428   2.949   8.948 -0.3075  0.6937 -2.0690
 7601SOL    HW234863   9.287   2.891   9.007  0.5972 -0.9881 -1.5232
 7602SOL     OW34864   3.434   8.816   9.105 -0.7855  0.0366  0.1718
 7602SOL    HW134865   3.483   8.773   9.029 -0.2339 -0.5886  0.8727
 7602SOL    HW234866   3.421   8.749   9.178 -0.6533  0.8306  0.9283
 7603SOL     OW34867   9.315   8.835   0.458  0.1065  0.2608  0.2801
 7603SOL    HW134868   9.412   8.835   0.436 -0.0597  1.0994 -0.4812
 7603SOL    HW234869   9.301   8.877   0.548  0.4125  0.5247  0.2042
 7604SOL     OW34870   9.346   4.780   0.426  0.0123  0.4484  0.0986
 7604SOL    HW134871   9.405   4.827   0.360  0.4755 -1.0550 -0.5692
 7604SOL    HW234872   9.251   4.791   0.399  0.0136  2.1914  0.7336
 7605SOL     OW34873   0.433   7.630   0.240 -0.1875 -0.5693 -0.0936
 7605SOL    HW134874   0.445   7.705   0.305  2.1178  0.8033 -2.0405
 7605SOL    HW234875   0.361   7.653   0.175  0.1533 -0.2900 -0.3690
 7606SOL     OW34876   3.380   4.951   1.959  0.0841 -0.3892  0.0595
 7606SOL    HW134877   3.415   4.903   1.878  2.2768  0.9725  0.1617
 7606SOL    HW234878   3.357   5.045   1.934 -1.7399 -0.7354  0.4318
 7607SOL     OW34879   0.111   7.886   2.242 -0.0295 -0.5926 -0.1832
 7607SOL    HW134880   0.209   7.892   2.262  0.1729 -2.2591 -0.6186
 7607SOL    HW234881   0.097   7.876   2.144 -0.6277 -0.4671 -0.1119
 7608SOL     OW34882   6.708   1.515   4.791 -0.4115  0.4363 -0.0088
 7608SOL    HW134883   6.623   1.533   4.742 -0.3588  0.7738  0.0211
 7608SOL    HW234884   6.785   1.522   4.727 -0.4369 -0.1768 -0.1010
 7609SOL     OW34885   0.224   2.491   9.204  0.0827  0.0057 -0.0974
 7609SOL    HW134886   0.201   2.588   9.194  2.4841  0.7025  0.8967
 7609SOL    HW234887   0.310   2.482   9.254 -0.3067 -2.6638  0.1561
 7610SOL     OW34888   0.547   7.191   4.071 -0.2872  0.5757 -0.1855
 7610SOL    HW134889   0.563   7.130   3.993 -0.1353 -1.4078  1.3415
 7610SOL    HW234890   0.455   7.231   4.064 -1.3478 -1.7354 -0.0026
 7611SOL     OW34891   3.530   7.905   7.744  0.5863  0.2211 -0.3710
 7611SOL    HW134892   3.533   7.831   7.678 -0.0440 -1.0224  0.9687
 7611SOL    HW234893   3.609   7.899   7.806  0.8201  0.9854 -0.5820
 7612SOL     OW34894   9.894   7.487   2.826  0.2185  0.3974 -0.0833
 7612SOL    HW134895   9.853   7.575   2.800 -0.0568  0.4099  0.3968
 7612SOL    HW234896   9.936   7.495   2.916  0.1678  0.0245 -0.0264
 7613SOL     OW34897   7.678   6.236   0.417 -0.0928  0.1203 -0.1713
 7613SOL    HW134898   7.675   6.163   0.486  0.1255  0.3094  0.0376
 7613SOL    HW234899   7.632   6.317   0.453 -0.1173  0.1653 -0.3069
 7614SOL     OW34900   8.167   7.908   9.046 -0.0861 -0.0600 -0.5888
 7614SOL    HW134901   8.072   7.939   9.051  0.1067  0.1986  2.1377
 7614SOL    HW234902   8.224   7.980   9.005 -0.8050  0.3925 -0.7869
 7615SOL     OW34903   4.499   3.934   1.315  0.5045 -0.0614  1.3142
 7615SOL    HW134904   4.459   3.908   1.227 -1.1977  2.1410  1.3829
 7615SOL    HW234905   4.587   3.888   1.327  0.7253 -0.4636 -1.4845
 7616SOL     OW34906   3.110   2.851   5.899  0.1281 -0.6065  0.1674
 7616SOL    HW134907   3.171   2.801   5.961  0.9341  1.1429  0.7999
 7616SOL    HW234908   3.093   2.942   5.935 -2.2242 -0.7843 -0.4340
 7617SOL     OW34909   8.375   5.355   9.646 -0.4596 -0.0659 -0.2658
 7617SOL    HW134910   8.395   5.411   9.726  1.3721 -2.7250  1.2073
 7617SOL    HW234911   8.291   5.388   9.603  0.2368  3.4103  0.8435
 7618SOL     OW34912   9.861   3.800   7.511  0.5836  0.4838 -0.1288
 7618SOL    HW134913   9.948   3.808   7.560  0.5562  0.3215 -0.0529
 7618SOL    HW234914   9.789   3.770   7.574  0.0181  2.5979  0.2684
 7619SOL     OW34915   5.607   4.696   0.028 -0.3188 -0.0241  0.1779
 7619SOL    HW134916   5.611   4.598   0.046 -0.3880 -0.0594  0.0028
 7619SOL    HW234917   5.616   4.713  -0.070  1.5289  0.2586  0.3821
 7620SOL     OW34918   7.535   6.993   3.330  0.0370 -0.0811  0.4489
 7620SOL    HW134919   7.501   6.907   3.367 -1.4890 -0.3257 -1.4623
 7620SOL    HW234920   7.612   6.974   3.269  0.3276  0.0145  0.7809
 7621SOL     OW34921   7.189   0.878   7.256  0.0679  0.2611  0.3076
 7621SOL    HW134922   7.214   0.964   7.212 -0.9219  1.0816  1.3095
 7621SOL    HW234923   7.261   0.852   7.321  1.1364 -0.5257 -1.1639
 7622SOL     OW34924   7.611   9.970   5.781  0.1525 -0.1602  0.0900
 7622SOL    HW134925   7.604  10.045   5.716  0.6645 -1.0075 -0.9571
 7622SOL    HW234926   7.688   9.986   5.843  2.4385 -1.4766 -2.3344
 7623SOL     OW34927   5.538   6.940   2.314 -0.5590  0.0904 -0.1348
 7623SOL    HW134928   5.512   6.852   2.274  0.1759  0.0269 -0.5001
 7623SOL    HW234929   5.575   6.926   2.406 -0.8338  0.0630 -0.0293
 7624SOL     OW34930   8.028   6.632   4.216 -0.6529 -0.5069  0.1634
 7624SOL    HW134931   8.118   6.675   4.205 -0.8221  0.0189  0.8031
 7624SOL    HW234932   7.983   6.626   4.127 -0.2543 -0.1818 -0.0648
 7625SOL     OW34933   4.854   2.079   1.893 -0.6466 -0.4634  0.5517
 7625SOL    HW134934   4.952   2.094   1.874  0.2021 -2.9781  2.6998
 7625SOL    HW234935   4.843   2.048   1.987 -3.7125  1.2792  0.8247
 7626SOL     OW34936   9.887   9.195   3.719 -0.2800  0.0891 -0.0067
 7626SOL    HW134937   9.906   9.217   3.815 -1.1837  1.2550 -0.1017
 7626SOL    HW234938   9.974   9.174   3.673  0.2706  0.5591  0.7933
 7627SOL     OW34939   2.322   9.447   9.010  0.4285  0.1250  0.4772
 7627SOL    HW134940   2.360   9.498   9.087  0.3840  0.2777  0.4002
 7627SOL    HW234941   2.251   9.385   9.042  0.6109 -0.0236  0.5973
 7628SOL     OW34942   3.459   8.005   6.294 -0.4345 -0.5737  0.3192
 7628SOL    HW134943   3.549   7.980   6.259 -0.9289 -1.0159 -0.6731
 7628SOL    HW234944   3.469   8.066   6.372  0.7127  0.0643 -0.3141
 7629SOL     OW34945   3.748   5.997   4.562  0.1020 -0.8644 -0.2337
 7629SOL    HW134946   3.844   6.003   4.589 -0.3667 -0.6948  1.4463
 7629SOL    HW234947   3.701   6.083   4.584 -0.6169 -1.2179 -0.3618
 7630SOL     OW34948   0.814   0.644   3.462  0.0416  0.2564 -0.0391
 7630SOL    HW134949   0.797   0.545   3.462  2.2874 -0.1488  1.2230
 7630SOL    HW234950   0.880   0.667   3.391  0.5804  0.6472  0.5836
 7631SOL     OW34951   4.227   1.250   9.788  0.2251 -0.5708  0.2241
 7631SOL    HW134952   4.298   1.318   9.808  0.0311 -0.5559  0.8764
 7631SOL    HW234953   4.229   1.227   9.691 -0.0519  0.7574 -0.1112
 7632SOL     OW34954   1.204   9.162   3.741 -0.0037 -0.2557  0.4636
 7632SOL    HW134955   1.173   9.181   3.648  0.9463  1.0083  0.3931
 7632SOL    HW234956   1.249   9.072   3.744 -1.1956 -0.8739 -0.0077
 7633SOL     OW34957   1.253   7.083   6.735  0.6789  0.5767 -0.3375
 7633SOL    HW134958   1.225   7.097   6.830  1.6040 -1.4515  0.2543
 7633SOL    HW234959   1.327   7.147   6.713  0.7225  0.7989  0.4332
 7634SOL     OW34960   0.917   5.202   6.449  0.3143  0.0798  0.0547
 7634SOL    HW134961   1.012   5.197   6.417 -0.2767 -2.1260 -1.4465
 7634SOL    HW234962   0.856   5.209   6.371 -0.8660  0.0564  0.9603
 7635SOL     OW34963   2.347   6.223   8.236 -0.2401  0.3028  0.0404
 7635SOL    HW134964   2.345   6.317   8.202 -0.5077 -0.2073 -1.3903
 7635SOL    HW234965   2.425   6.175   8.197 -1.3676 -0.7101 -1.0312
 7636SOL     OW34966   4.761   2.270   9.999  1.0325 -0.5952  0.4617
 7636SOL    HW134967   4.823   2.247   9.925 -1.0972 -2.0818 -0.9330
 7636SOL    HW234968   4.804   2.248  10.087  2.4503 -1.5659 -0.4619
 7637SOL     OW34969   8.732   1.743   5.772 -0.0962 -0.1763  0.0751
 7637SOL    HW134970   8.741   1.837   5.738 -0.0871 -0.3054 -0.2913
 7637SOL    HW234971   8.638   1.727   5.801  0.7713  1.1364  3.7828
 7638SOL     OW34972   2.805   6.502   5.710  0.1567 -0.0708  1.1880
 7638SOL    HW134973   2.807   6.427   5.643 -1.3409  0.5904  0.3812
 7638SOL    HW234974   2.896   6.545   5.714  0.8822 -1.5770  1.2647
 7639SOL     OW34975   8.838   8.025   8.778  0.2744 -0.1463 -0.5850
 7639SOL    HW134976   8.767   8.095   8.776 -1.2635 -1.6786 -1.4788
 7639SOL    HW234977   8.822   7.959   8.703  2.0318 -1.0954 -0.1552
 7640SOL     OW34978   8.452   4.077   3.414  0.0620 -0.5110 -0.2529
 7640SOL    HW134979   8.550   4.093   3.404  0.6700 -3.6491  0.3801
 7640SOL    HW234980   8.410   4.068   3.324  0.5870 -0.5565 -0.4928
 7641SOL     OW34981   2.041   5.499   8.294  0.5398 -0.5244  0.4432
 7641SOL    HW134982   1.978   5.561   8.247  1.7860 -0.7060 -1.4908
 7641SOL    HW234983   2.068   5.539   8.381 -1.2882  0.1103  0.7536
 7642SOL     OW34984   3.119   7.546   4.662  0.6242 -0.5232  0.2822
 7642SOL    HW134985   3.192   7.503   4.715  0.6054  1.4007  1.9143
 7642SOL    HW234986   3.114   7.643   4.683  0.2561  0.2161 -2.8820
 7643SOL     OW34987   1.560   1.154   3.608  0.7471 -0.0800  0.3729
 7643SOL    HW134988   1.510   1.079   3.563 -0.1911  0.3735  0.6513
 7643SOL    HW234989   1.658   1.136   3.601  0.5935 -0.5242 -0.9912
 7644SOL     OW34990   3.953   0.530   6.879 -0.0682 -0.4411 -0.7174
 7644SOL    HW134991   4.031   0.510   6.939  0.1101 -0.7532 -1.0475
 7644SOL    HW234992   3.873   0.480   6.911  0.0199 -0.5857 -0.7211
 7645SOL     OW34993   5.518   7.360   4.141 -0.7181 -0.3539  0.3667
 7645SOL    HW134994   5.579   7.354   4.220  0.4551  1.7243 -0.3706
 7645SOL    HW234995   5.424   7.339   4.170 -0.0233 -1.3612  1.9355
 7646SOL     OW34996   9.733   1.257   3.482 -0.2411 -0.1206  0.7092
 7646SOL    HW134997   9.814   1.290   3.434 -0.5970 -0.0359  0.1639
 7646SOL    HW234998   9.652   1.303   3.446 -0.7764 -1.7934 -0.2494
 7647SOL     OW34999   3.824   6.282   9.374 -0.3830  0.2978  0.2243
 7647SOL    HW135000   3.810   6.273   9.276 -1.7696  0.8444  0.3581
 7647SOL    HW235001   3.873   6.367   9.394 -0.2894  0.2893  0.0314
 7648SOL     OW35002   0.922   5.062   3.035 -0.5488  0.0505 -0.1308
 7648SOL    HW135003   0.865   5.143   3.029  1.9414  1.8619 -0.1170
 7648SOL    HW235004   0.945   5.043   3.130  2.1576  1.7426 -0.4056
 7649SOL     OW35005   4.960   2.849   7.872  0.3170 -0.0894 -0.1315
 7649SOL    HW135006   4.975   2.871   7.968 -0.6091  1.5162 -0.3345
 7649SOL    HW235007   4.863   2.863   7.849  0.3910 -1.1433 -1.1196
 7650SOL     OW35008   6.083   2.292   9.219  0.2409  0.3773 -0.5197
 7650SOL    HW135009   6.050   2.342   9.139 -0.1322  0.0365 -0.5768
 7650SOL    HW235010   6.007   2.269   9.279  0.6848  1.9673  0.7128
 7651SOL     OW35011   9.373   2.963   2.452 -0.4585 -0.4066 -0.4991
 7651SOL    HW135012   9.281   2.963   2.412 -0.6059 -1.8931 -0.1890
 7651SOL    HW235013   9.385   2.881   2.507  1.2407 -0.4873 -0.9729
 7652SOL     OW35014   3.171   7.666   3.590  0.3865  0.6746  0.1548
 7652SOL    HW135015   3.267   7.690   3.602  0.8518 -0.6984 -0.7501
 7652SOL    HW235016   3.119   7.747   3.564  0.7401  2.1065  3.5867
 7653SOL     OW35017   0.172   0.900   7.383 -0.7819 -0.5758  0.0016
 7653SOL    HW135018   0.149   0.803   7.376 -1.6493 -0.5258  1.8472
 7653SOL    HW235019   0.131   0.949   7.306 -2.5883 -1.2860  0.4744
 7654SOL     OW35020   2.821   3.682   0.281 -0.3092 -0.0127 -0.2168
 7654SOL    HW135021   2.822   3.643   0.189 -0.1448  0.8183 -0.5760
 7654SOL    HW235022   2.735   3.732   0.295 -1.0263 -1.4614  0.6554
 7655SOL     OW35023   4.536   9.499   8.138 -0.4013 -0.0189  0.1715
 7655SOL    HW135024   4.515   9.528   8.045 -0.2785 -2.6455 -0.7136
 7655SOL    HW235025   4.456   9.453   8.177  1.3238 -4.1114 -0.8066
 7656SOL     OW35026   6.777   5.205   7.465  0.5484 -0.1344 -0.5238
 7656SOL    HW135027   6.698   5.156   7.428  0.2781 -0.0845 -0.0266
 7656SOL    HW235028   6.750   5.299   7.487  1.0407  0.2080 -1.3824
 7657SOL     OW35029   7.850   6.585   2.799  0.3958 -0.3502 -0.3170
 7657SOL    HW135030   7.764   6.557   2.757  0.7061 -1.0149 -0.5062
 7657SOL    HW235031   7.926   6.565   2.738  0.6090  1.0898 -0.5424
 7658SOL     OW35032   5.461   8.128   6.762 -0.1783 -0.1656  0.3396
 7658SOL    HW135033   5.509   8.095   6.680 -0.0672  0.5874  0.1019
 7658SOL    HW235034   5.365   8.142   6.741  0.2141  1.8785 -0.2017
 7659SOL     OW35035   5.420   2.521   1.844 -0.6237 -0.5090 -0.6506
 7659SOL    HW135036   5.326   2.523   1.810 -1.0212  0.6495  0.5020
 7659SOL    HW235037   5.471   2.451   1.794 -2.1906 -1.4109 -1.0394
 7660SOL     OW35038   9.455   5.891   4.814 -0.4652  0.0015  0.0155
 7660SOL    HW135039   9.520   5.839   4.759 -1.1275  0.9370 -1.6784
 7660SOL    HW235040   9.448   5.849   4.905  1.3112 -1.0243 -0.2950
 7661SOL     OW35041   6.381   0.282   3.445  0.7707  0.0452  0.2503
 7661SOL    HW135042   6.443   0.206   3.465 -1.5865 -1.9639  0.2378
 7661SOL    HW235043   6.384   0.349   3.520  2.6807 -0.1770  0.3881
 7662SOL     OW35044   2.042   0.620   4.269 -0.1393  0.4308  0.1327
 7662SOL    HW135045   2.097   0.555   4.322 -0.2648  1.8564  2.0780
 7662SOL    HW235046   2.101   0.665   4.202  1.2413  2.2001  2.4335
 7663SOL     OW35047   9.868   9.193   7.949 -0.0257  0.0707  0.5580
 7663SOL    HW135048   9.771   9.191   7.973  0.1160 -0.0581  1.1435
 7663SOL    HW235049   9.914   9.266   8.000 -0.1181  1.1986 -0.9508
 7664SOL     OW35050   0.467   4.728   6.195 -0.6306 -0.8561  0.2365
 7664SOL    HW135051   0.378   4.773   6.198 -0.4151 -0.5137  1.7754
 7664SOL    HW235052   0.522   4.757   6.273  1.3276 -0.0799 -1.3999
 7665SOL     OW35053   4.089   6.908   4.331  0.2937  0.6147 -0.2217
 7665SOL    HW135054   4.092   6.877   4.426 -2.5319  1.0123  0.0616
 7665SOL    HW235055   4.139   6.844   4.273  2.3208  0.5509  1.5641
 7666SOL     OW35056   3.145   1.458   9.993 -0.4364 -0.4103 -0.5682
 7666SOL    HW135057   3.048   1.434   9.992 -0.6738  0.5186 -0.2124
 7666SOL    HW235058   3.200   1.375  10.005 -1.2702 -0.7177  1.2126
 7667SOL     OW35059   8.783   6.654   5.114  0.4290  0.0457  0.1621
 7667SOL    HW135060   8.719   6.702   5.054 -1.1474 -1.0834  0.9101
 7667SOL    HW235061   8.734   6.618   5.193  2.2420  0.2876  1.4126
 7668SOL     OW35062   1.750   4.322   9.054 -0.0928 -0.5963 -0.6184
 7668SOL    HW135063   1.674   4.385   9.037 -0.3768 -0.7756 -0.0147
 7668SOL    HW235064   1.835   4.374   9.062 -0.1738 -0.3801 -1.1136
 7669SOL     OW35065   0.022   6.709   0.524  0.6335  0.7501 -0.3230
 7669SOL    HW135066   0.057   6.801   0.538  2.3759  0.0191  0.2323
 7669SOL    HW235067   0.007   6.693   0.426  1.1805  1.2992 -0.4979
 7670SOL     OW35068   8.422   3.688   6.513 -0.7238  0.6681  0.2916
 7670SOL    HW135069   8.427   3.711   6.610  0.3153  1.6353  0.0082
 7670SOL    HW235070   8.503   3.721   6.466 -0.8485 -0.5044 -0.7728
 7671SOL     OW35071   6.951   5.832   0.559 -0.5144  0.7234  0.0546
 7671SOL    HW135072   7.037   5.848   0.511 -0.7672  0.6682 -0.4266
 7671SOL    HW235073   6.923   5.737   0.547 -0.3514  0.5944  0.6945
 7672SOL     OW35074   8.779   9.843   3.105 -0.7870 -0.0841  0.5590
 7672SOL    HW135075   8.734   9.874   3.022  2.4766 -0.0360 -1.2971
 7672SOL    HW235076   8.731   9.763   3.141 -2.3734  0.0143 -1.2520
 7673SOL     OW35077   5.622   5.412   9.297 -0.1036  0.3088  0.3268
 7673SOL    HW135078   5.702   5.438   9.352 -1.2760  0.9813  1.7627
 7673SOL    HW235079   5.632   5.317   9.267  1.6107  0.6377 -0.2052
 7674SOL     OW35080   5.339   2.083   9.086  0.9889  0.1519  0.0267
 7674SOL    HW135081   5.346   2.109   8.989  0.8439 -0.1052 -0.0545
 7674SOL    HW235082   5.388   1.998   9.101 -0.3665 -0.6803 -0.1610
 7675SOL     OW35083   0.660   3.493   7.527 -0.2762  0.3383  0.2205
 7675SOL    HW135084   0.672   3.449   7.616  1.1100  1.3253  0.5252
 7675SOL    HW235085   0.667   3.424   7.455 -3.1009 -0.7788  0.9122
 7676SOL     OW35086   0.029   0.482   6.601 -0.3153 -0.4605 -0.0921
 7676SOL    HW135087   0.121   0.461   6.569  0.3910 -1.8831  2.7172
 7676SOL    HW235088  -0.038   0.446   6.536  1.0632  1.0135 -2.4108
 7677SOL     OW35089   3.284   2.820   0.672 -0.2919  0.0352  0.2013
 7677SOL    HW135090   3.344   2.884   0.624  0.4571 -0.3416  0.6270
 7677SOL    HW235091   3.284   2.842   0.770  0.1587 -0.7689  0.3793
 7678SOL     OW35092   8.053   6.461   8.592 -0.2108 -0.4563 -0.2206
 7678SOL    HW135093   8.145   6.486   8.622 -0.3733 -2.0771  1.7290
 7678SOL    HW235094   8.053   6.367   8.559 -0.9845 -0.1690 -1.0586
 7679SOL     OW35095   1.084   1.112   2.468  0.1432  0.0470 -0.5693
 7679SOL    HW135096   1.083   1.175   2.546 -1.1532 -0.2612 -0.3357
 7679SOL    HW235097   1.096   1.018   2.501 -0.2255 -0.0660 -0.7636
 7680SOL     OW35098   1.239   4.219   3.082 -0.2857 -0.2998 -0.5786
 7680SOL    HW135099   1.249   4.248   3.177  1.0529 -1.5722 -0.3107
 7680SOL    HW235100   1.179   4.283   3.033  0.9971  1.7630  0.4754
 7681SOL     OW35101   4.728   9.315   8.187  0.1412  0.1552 -0.3090
 7681SOL    HW135102   4.701   9.224   8.219  0.0090  1.3202  3.1132
 7681SOL    HW235103   4.647   9.370   8.170  0.2249 -0.2795 -2.1987
 7682SOL     OW35104   2.717   7.188   9.270 -0.6542 -0.0044 -0.3095
 7682SOL    HW135105   2.736   7.150   9.180  0.1915 -1.8449  0.6381
 7682SOL    HW235106   2.706   7.288   9.262 -0.8853 -0.1815 -2.4700
 7683SOL     OW35107   6.901   8.964   5.985  0.3508 -0.2938 -0.0497
 7683SOL    HW135108   6.991   9.004   6.003 -0.0805 -0.1244  1.8756
 7683SOL    HW235109   6.836   9.037   5.961  0.7341 -0.4203 -1.4857
 7684SOL     OW35110   2.856   3.888   5.249 -0.7226  0.0418 -0.3288
 7684SOL    HW135111   2.790   3.930   5.311  0.0711 -0.5686  0.9445
 7684SOL    HW235112   2.929   3.844   5.302  0.4432  0.2762 -1.7023
 7685SOL     OW35113   6.522   2.462   9.696  0.0868 -0.3390 -0.0179
 7685SOL    HW135114   6.467   2.490   9.617  0.2258  0.3830  0.1343
 7685SOL    HW235115   6.512   2.530   9.769  2.2892  0.5584 -0.5129
 7686SOL     OW35116   9.719   5.354   2.747 -0.5899  0.3572  0.8513
 7686SOL    HW135117   9.793   5.410   2.710 -1.8084  1.0834 -0.5491
 7686SOL    HW235118   9.756   5.288   2.812  1.1075  1.5697  1.1501
 7687SOL     OW35119   8.340   4.317   5.832 -0.2010 -0.1992 -0.2047
 7687SOL    HW135120   8.290   4.281   5.754  0.2551 -0.0058 -0.5902
 7687SOL    HW235121   8.385   4.403   5.806  1.3131 -0.9725 -0.2226
 7688SOL     OW35122   1.262   8.416   1.358 -0.3124  0.6951 -0.6329
 7688SOL    HW135123   1.175   8.405   1.310  0.8573  0.7939 -2.8652
 7688SOL    HW235124   1.315   8.488   1.314  1.6762 -0.6487 -0.4810
 7689SOL     OW35125   0.895   3.624   0.859  0.3839  0.0932  0.0393
 7689SOL    HW135126   0.868   3.558   0.929 -1.3769  0.5034 -0.2352
 7689SOL    HW235127   0.914   3.712   0.902  1.2325 -0.1799  0.2265
 7690SOL     OW35128   6.091   0.008   3.613  0.5537  0.0332 -0.0683
 7690SOL    HW135129   6.012   0.042   3.663  1.1990 -0.0717  1.0260
 7690SOL    HW235130   6.072   0.012   3.515 -1.7314 -2.2492  0.2420
 7691SOL     OW35131   0.633   9.601   7.609 -0.0800  0.5857  1.0134
 7691SOL    HW135132   0.717   9.572   7.563 -1.1202 -0.8203 -0.0601
 7691SOL    HW235133   0.645   9.694   7.644  1.8244  0.5079  0.6394
 7692SOL     OW35134   6.391   2.425   3.044 -0.9083  0.0481 -0.0286
 7692SOL    HW135135   6.315   2.475   3.004 -0.9752  0.5416  0.7061
 7692SOL    HW235136   6.477   2.457   3.004 -1.0449 -0.0912 -0.4284
 7693SOL     OW35137   3.679   4.537   7.433  0.1721  0.2977  0.1463
 7693SOL    HW135138   3.759   4.534   7.494  1.0641  0.4847 -0.9898
 7693SOL    HW235139   3.657   4.632   7.412 -1.0216  0.2763  1.3263
 7694SOL     OW35140   6.378   6.153   9.615 -0.4243 -0.4433 -0.2110
 7694SOL    HW135141   6.476   6.149   9.634 -0.6442 -0.4578  0.9497
 7694SOL    HW235142   6.362   6.211   9.536  0.5869 -1.1031 -0.9099
 7695SOL     OW35143   2.392   8.999   5.113 -0.1879 -0.3010  0.3008
 7695SOL    HW135144   2.416   9.060   5.038  0.5210  1.2066  1.7040
 7695SOL    HW235145   2.315   8.942   5.087  0.6441 -0.4730 -1.8990
 7696SOL     OW35146   2.731   3.206   7.095 -0.0755  0.1716 -0.0537
 7696SOL    HW135147   2.698   3.138   7.160  0.6723 -1.0093 -0.8716
 7696SOL    HW235148   2.786   3.274   7.143 -1.4915  0.6643  0.8971
 7697SOL     OW35149   8.016   1.932   8.031 -0.0583 -0.2479  0.6170
 7697SOL    HW135150   7.934   1.923   7.976  0.3720  0.4537 -0.1394
 7697SOL    HW235151   7.993   1.973   8.119 -0.7723 -1.5479  1.0556
 7698SOL     OW35152   1.169   0.819   6.399  0.3766  0.0117  0.2641
 7698SOL    HW135153   1.095   0.811   6.332 -0.2916  0.2681  0.9678
 7698SOL    HW235154   1.211   0.909   6.393 -0.1573  0.2864  0.6854
 7699SOL     OW35155   3.164   7.343   1.936 -0.5697  0.2624 -0.0099
 7699SOL    HW135156   3.199   7.255   1.967  1.1744  0.1490 -2.1509
 7699SOL    HW235157   3.228   7.415   1.963  0.2089  0.3336 -1.9722
 7700SOL     OW35158   2.153   6.532   7.965  0.0167  0.0289 -0.2143
 7700SOL    HW135159   2.240   6.509   7.921 -0.8538  0.6316 -2.3185
 7700SOL    HW235160   2.161   6.620   8.011  0.9377 -0.5993  0.8497
 7701SOL     OW35161   6.040   5.067   0.859 -0.1305 -0.2950  0.2994
 7701SOL    HW135162   6.095   5.143   0.894  0.4361 -0.7278  0.3710
 7701SOL    HW235163   5.943   5.092   0.860 -0.1455 -0.3301  2.3034
 7702SOL     OW35164   1.112   6.478   8.334  0.0228 -0.1861 -0.7730
 7702SOL    HW135165   1.112   6.572   8.300 -0.9874 -0.3008 -1.0922
 7702SOL    HW235166   1.021   6.454   8.368  0.4736 -0.7892  0.0445
 7703SOL     OW35167   6.149   9.350   2.782 -0.0916  0.3227 -0.2526
 7703SOL    HW135168   6.230   9.369   2.726  0.5216 -1.0363  0.1720
 7703SOL    HW235169   6.113   9.436   2.818  1.7121  0.8522  0.3243
 7704SOL     OW35170   8.507   5.733   9.536 -0.4566 -0.2945  0.1433
 7704SOL    HW135171   8.602   5.747   9.562 -0.7135  1.0205  0.4151
 7704SOL    HW235172   8.482   5.637   9.550  0.5619 -0.4535  0.9250
 7705SOL     OW35173   6.166   4.853   0.112  0.4623  0.5708 -0.0392
 7705SOL    HW135174   6.173   4.764   0.155 -0.5123 -0.0569 -1.1506
 7705SOL    HW235175   6.258   4.886   0.088  0.7706 -0.4252 -0.2308
 7706SOL     OW35176   1.460   2.889   3.479 -0.4698  0.4056  0.7380
 7706SOL    HW135177   1.391   2.929   3.539 -1.2938  0.0279  0.0486
 7706SOL    HW235178   1.461   2.939   3.392  0.3450  0.6066  0.8548
 7707SOL     OW35179   9.147   4.782   0.026 -0.2191 -0.2564  0.3547
 7707SOL    HW135180   9.208   4.703   0.026  0.0968 -0.0601 -2.5875
 7707SOL    HW235181   9.077   4.771  -0.044 -0.2443  1.9824 -0.0239
 7708SOL     OW35182   2.165   8.852   6.860  0.0576  0.3629 -0.0081
 7708SOL    HW135183   2.146   8.779   6.926  0.1214  0.1255 -0.2453
 7708SOL    HW235184   2.239   8.822   6.799 -0.3064  0.4005 -0.4672
 7709SOL     OW35185   0.773   5.268   0.939 -0.5047 -0.0315 -0.3570
 7709SOL    HW135186   0.814   5.212   1.011  0.2206  2.5515  1.2994
 7709SOL    HW235187   0.841   5.286   0.868  0.0558  0.9480  0.4234
 7710SOL     OW35188   7.503   2.265   4.334  0.1291 -0.1463  0.3779
 7710SOL    HW135189   7.432   2.310   4.279 -2.1516 -3.4905  0.4133
 7710SOL    HW235190   7.558   2.334   4.380 -1.3064  2.6244 -1.8830
 7711SOL     OW35191   3.595   9.980   0.619 -0.8499  0.3483  0.0957
 7711SOL    HW135192   3.514  10.038   0.629 -0.2130  1.0339  1.4697
 7711SOL    HW235193   3.586   9.901   0.679  0.9967  2.1850  2.9359
 7712SOL     OW35194   4.949   9.748   9.829 -0.1485  0.5645  1.1108
 7712SOL    HW135195   5.010   9.824   9.851 -0.8123  0.8248  2.0503
 7712SOL    HW235196   5.003   9.673   9.788  0.5640  1.3660  0.5584
 7713SOL     OW35197   1.412   5.281   6.883  0.1838 -0.0837 -0.1934
 7713SOL    HW135198   1.401   5.261   6.786  2.1734 -1.9985 -0.0678
 7713SOL    HW235199   1.354   5.359   6.908 -2.7942 -1.5544 -2.1949
 7714SOL     OW35200   1.339   8.892   1.246 -0.3692 -0.1433 -0.4433
 7714SOL    HW135201   1.347   8.797   1.217  1.5014 -0.2599  0.4091
 7714SOL    HW235202   1.320   8.950   1.166  0.1929 -1.0245 -1.2241
 7715SOL     OW35203   2.255   1.482   4.729 -0.3642  0.0640 -0.0962
 7715SOL    HW135204   2.258   1.553   4.659  0.4080  1.4604  1.3219
 7715SOL    HW235205   2.348   1.463   4.762 -0.5805 -1.5001 -0.3472
 7716SOL     OW35206   0.870   5.414   5.080  0.8379  0.1872 -0.1175
 7716SOL    HW135207   0.867   5.359   5.164  0.3085 -1.4749 -1.1969
 7716SOL    HW235208   0.848   5.356   5.002  1.3173  1.7235 -1.4165
 7717SOL     OW35209   3.738   5.570   0.672 -0.6605 -0.6789  0.0151
 7717SOL    HW135210   3.781   5.517   0.745 -1.1215 -0.2516  0.6015
 7717SOL    HW235211   3.702   5.655   0.710 -0.5472 -0.2727 -0.7894
 7718SOL     OW35212   5.382   1.612   7.716 -0.3948 -0.6162  0.5510
 7718SOL    HW135213   5.386   1.541   7.786 -3.4247 -1.2385  0.1756
 7718SOL    HW235214   5.314   1.681   7.742 -0.8976 -0.3720 -1.3235
 7719SOL     OW35215   3.323   7.444   7.432  0.1297  0.0016  0.3446
 7719SOL    HW135216   3.233   7.478   7.404  0.0039  0.8488  1.7355
 7719SOL    HW235217   3.311   7.371   7.500  0.4824  0.2079  0.6314
 7720SOL     OW35218   1.589   9.547   9.650 -0.3763 -0.2658  0.1161
 7720SOL    HW135219   1.541   9.634   9.634  0.7539  0.6799  1.7125
 7720SOL    HW235220   1.532   9.488   9.707 -0.2763  0.2895  0.8113
 7721SOL     OW35221   6.538   3.947   0.151 -0.1768  0.4296 -0.0355
 7721SOL    HW135222   6.561   4.032   0.103  2.4912 -0.1855  0.1129
 7721SOL    HW235223   6.467   3.899   0.099  1.9933  0.2230 -2.9826
 7722SOL     OW35224   9.921   6.538   6.274 -0.1951  0.5137 -0.1098
 7722SOL    HW135225   9.837   6.581   6.240 -0.8601  0.4140  1.3448
 7722SOL    HW235226   9.897   6.465   6.338  0.9644 -1.0788 -1.4385
 7723SOL     OW35227   4.693   6.698   0.092  0.1675 -0.1151 -0.0860
 7723SOL    HW135228   4.727   6.772   0.035  1.1516 -1.5794 -1.4349
 7723SOL    HW235229   4.710   6.610   0.047 -0.4758 -1.2054  1.7366
 7724SOL     OW35230   5.539   3.546   8.947  0.1957 -0.4660 -0.5311
 7724SOL    HW135231   5.445   3.578   8.933 -0.0787  0.0140  2.0267
 7724SOL    HW235232   5.572   3.501   8.864 -1.6641  0.8982 -2.0573
 7725SOL     OW35233   0.558   6.685   0.934  0.7200  0.0737  0.6209
 7725SOL    HW135234   0.511   6.631   1.004  1.0840 -1.0192  0.0163
 7725SOL    HW235235   0.563   6.633   0.849  0.2941  1.3951 -0.2266
 7726SOL     OW35236   7.533   9.632   7.145  0.2967  0.1715 -0.1068
 7726SOL    HW135237   7.535   9.610   7.243  1.6047 -0.2930 -0.2370
 7726SOL    HW235238   7.542   9.549   7.092 -1.3208  0.3265 -0.6462
 7727SOL     OW35239   6.989   3.821   8.647 -0.1048 -0.5034 -0.2861
 7727SOL    HW135240   6.953   3.912   8.624 -1.0139 -0.4943  1.1376
 7727SOL    HW235241   6.914   3.764   8.681  0.9934 -0.8783  1.5394
 7728SOL     OW35242   0.155   5.801   9.278  0.5558  0.3598 -0.0900
 7728SOL    HW135243   0.240   5.774   9.322 -0.1101  0.1472  1.0801
 7728SOL    HW235244   0.172   5.818   9.181  1.4460 -2.0478 -0.3931
 7729SOL     OW35245   1.771   4.079   7.307 -0.0470 -0.5761 -0.5570
 7729SOL    HW135246   1.741   4.070   7.402 -1.0315 -1.1905 -0.9261
 7729SOL    HW235247   1.835   4.006   7.285  1.3699  0.4525  0.0837
 7730SOL     OW35248   3.330   6.218   9.057  0.3275 -0.3498  0.3360
 7730SOL    HW135249   3.277   6.202   9.140 -0.4494  2.4637  0.4585
 7730SOL    HW235250   3.274   6.196   8.977  0.5097 -1.5388  0.5373
 7731SOL     OW35251   1.556   0.700   7.259 -0.0427 -0.5389 -0.5829
 7731SOL    HW135252   1.644   0.693   7.211  0.1135  2.0810 -0.7838
 7731SOL    HW235253   1.482   0.698   7.192  0.0679  0.7462 -0.7736
 7732SOL     OW35254   0.953   5.949   2.168  0.0795 -0.1980 -0.0978
 7732SOL    HW135255   1.040   5.944   2.218 -0.3391 -1.4694  0.5155
 7732SOL    HW235256   0.889   6.007   2.218  0.4675  0.5083 -0.4049
 7733SOL     OW35257   1.706   7.707   2.397  0.8655  0.8375  0.2364
 7733SOL    HW135258   1.741   7.718   2.490  0.3898  0.3907  0.4667
 7733SOL    HW235259   1.769   7.649   2.344  1.0777  1.0012  0.3051
 7734SOL     OW35260   5.585   4.021   8.729 -0.2387 -0.3005 -0.2050
 7734SOL    HW135261   5.593   4.021   8.630 -0.1979 -0.4979 -0.2008
 7734SOL    HW235262   5.518   4.090   8.757 -0.2173 -0.2148 -0.3662
 7735SOL     OW35263   5.230   9.731   1.559  0.0906  0.5928 -0.1595
 7735SOL    HW135264   5.319   9.740   1.604  0.8633 -4.2636 -0.4788
 7735SOL    HW235265   5.157   9.738   1.628  0.8724  1.3157  0.6005
 7736SOL     OW35266   9.199   1.705   2.696  0.1533 -0.0722  0.0305
 7736SOL    HW135267   9.215   1.797   2.660 -0.7878  0.2920  0.5310
 7736SOL    HW235268   9.170   1.644   2.622  2.4261 -0.3991 -0.6289
 7737SOL     OW35269   7.900   1.131   6.550  0.2392 -0.6281  0.2377
 7737SOL    HW135270   7.976   1.070   6.526  0.7835  0.7220 -1.6751
 7737SOL    HW235271   7.936   1.217   6.586 -0.5240 -1.4210  3.0288
 7738SOL     OW35272   0.595   9.963   7.494 -0.0355 -0.0020 -0.2628
 7738SOL    HW135273   0.613   9.923   7.583  0.5135 -2.0105 -1.2362
 7738SOL    HW235274   0.676   9.953   7.436 -0.8188  0.0497 -1.4017
 7739SOL     OW35275   6.368   7.703   3.516 -0.4983 -0.1040  0.4146
 7739SOL    HW135276   6.331   7.639   3.448  0.6636 -1.6942  1.2431
 7739SOL    HW235277   6.448   7.662   3.560 -1.7603  0.5039  3.3863
 7740SOL     OW35278   0.794   3.038   3.208 -0.7336 -0.0226  0.0860
 7740SOL    HW135279   0.865   2.969   3.194  1.2758  1.8693  0.6154
 7740SOL    HW235280   0.760   3.033   3.302 -0.4103 -0.1285  0.1976
 7741SOL     OW35281   0.758   2.756   4.595 -0.3186 -0.2904 -0.5857
 7741SOL    HW135282   0.790   2.844   4.559 -1.6531 -0.7475 -3.0072
 7741SOL    HW235283   0.673   2.771   4.647 -2.0231 -0.4438 -3.2484
 7742SOL     OW35284   2.451   3.386   7.405  0.2322 -0.1244 -0.0724
 7742SOL    HW135285   2.515   3.311   7.386  0.1379 -0.8020  2.1507
 7742SOL    HW235286   2.396   3.404   7.323  0.1499 -2.6108 -0.6106
 7743SOL     OW35287   6.955   2.163   3.305  0.3722 -0.5029 -0.9966
 7743SOL    HW135288   7.020   2.197   3.374 -0.0912 -0.8542 -0.3805
 7743SOL    HW235289   6.893   2.097   3.347 -2.0829  1.7551 -0.9190
 7744SOL     OW35290   6.806   7.415   2.653 -0.2609 -0.8189  0.2418
 7744SOL    HW135291   6.810   7.318   2.677  0.6204 -0.2595  2.4927
 7744SOL    HW235292   6.850   7.430   2.565  0.1822 -2.3707  0.1843
 7745SOL     OW35293   1.361   9.764   7.956  0.2085 -0.0512 -0.0344
 7745SOL    HW135294   1.365   9.665   7.942 -1.5400 -0.4872  2.2197
 7745SOL    HW235295   1.325   9.808   7.873 -3.0364 -1.7734  0.3734
 7746SOL     OW35296   8.040   8.817   9.721  0.4714 -0.1307  0.6007
 7746SOL    HW135297   8.113   8.821   9.788  0.8285 -1.5720  0.3052
 7746SOL    HW235298   8.037   8.904   9.671  0.0836  1.0156  2.5633
 7747SOL     OW35299   1.166   8.833   3.304  0.1055 -0.0223 -0.2753
 7747SOL    HW135300   1.220   8.761   3.349  0.8324  0.6010 -0.1479
 7747SOL    HW235301   1.105   8.876   3.371  0.6255  0.3745 -0.0502
 7748SOL     OW35302   8.893   3.888   2.154  0.2549 -0.3087  0.0370
 7748SOL    HW135303   8.887   3.970   2.098 -1.8196 -0.5836 -0.1896
 7748SOL    HW235304   8.985   3.849   2.147 -0.0546 -0.5785 -3.5573
 7749SOL     OW35305   1.812   0.683   7.133 -0.1698  0.1437 -0.2428
 7749SOL    HW135306   1.885   0.722   7.189  0.9607  0.3350 -1.8179
 7749SOL    HW235307   1.848   0.604   7.082 -0.9878  0.3872 -1.2146
 7750SOL     OW35308   4.778   9.854   5.416 -0.6511 -0.6694 -0.6006
 7750SOL    HW135309   4.860   9.883   5.367  0.2572  0.7257  1.6956
 7750SOL    HW235310   4.790   9.761   5.450 -0.1832 -0.5971 -0.5747
 7751SOL     OW35311   8.924   6.182   0.233 -0.5932  0.2190  0.4465
 7751SOL    HW135312   8.845   6.126   0.258  0.0572 -0.3241  1.2917
 7751SOL    HW235313   9.008   6.135   0.260  0.0622  0.4068 -1.1924
 7752SOL     OW35314   8.416   7.419   8.609 -0.3288 -0.6316  0.5265
 7752SOL    HW135315   8.341   7.474   8.573 -0.0996  0.6031  1.8805
 7752SOL    HW235316   8.503   7.450   8.571 -0.4690 -2.0102 -0.9803
 7753SOL     OW35317   3.759   0.377   4.086 -0.1411  0.0152  0.1495
 7753SOL    HW135318   3.827   0.446   4.060  1.3923 -0.3560  2.9573
 7753SOL    HW235319   3.759   0.303   4.019 -0.0727  1.5428 -1.5799
 7754SOL     OW35320   9.448   1.525   0.799  0.8100 -0.0245 -0.5821
 7754SOL    HW135321   9.452   1.451   0.867  1.3750 -0.7248 -1.3689
 7754SOL    HW235322   9.419   1.488   0.711 -0.4852  0.9818 -0.5916
 7755SOL     OW35323   5.424   0.713   6.515  0.1648 -0.1328  0.5768
 7755SOL    HW135324   5.477   0.689   6.597 -0.3741  1.8637  1.5549
 7755SOL    HW235325   5.382   0.803   6.528 -1.8033 -0.7835 -0.9990
 7756SOL     OW35326   9.365   9.460   6.702 -0.2654  0.6192  0.4311
 7756SOL    HW135327   9.444   9.521   6.690 -0.3569  1.1430  2.3199
 7756SOL    HW235328   9.284   9.503   6.662 -0.2308  1.5625  1.3316
 7757SOL     OW35329   2.243   8.977   7.722 -0.2211 -0.0687 -0.0880
 7757SOL    HW135330   2.299   9.046   7.677 -0.7841  0.2697 -0.2762
 7757SOL    HW235331   2.294   8.935   7.797  0.6756 -0.5308 -0.9447
 7758SOL     OW35332   3.789   2.375   2.549 -0.0113 -0.3077  0.5612
 7758SOL    HW135333   3.700   2.349   2.585 -0.0108 -0.1467  0.6806
 7758SOL    HW235334   3.827   2.449   2.605  0.8101 -1.3063  1.3333
 7759SOL     OW35335   2.501   4.095   6.307  0.3124 -0.1998 -0.2458
 7759SOL    HW135336   2.414   4.113   6.354  0.1077 -1.4681 -0.1228
 7759SOL    HW235337   2.561   4.174   6.318 -1.4096  1.3478 -1.6811
 7760SOL     OW35338   3.874   9.743   7.894 -0.4063 -0.0799 -0.2124
 7760SOL    HW135339   3.932   9.766   7.973 -0.4730 -0.2260 -0.1213
 7760SOL    HW235340   3.784   9.714   7.926 -0.8775  1.1577 -0.3970
 7761SOL     OW35341   0.151   5.442   6.219  0.3706 -0.2030 -0.2395
 7761SOL    HW135342   0.174   5.392   6.302  3.0223  0.5278 -0.5147
 7761SOL    HW235343   0.198   5.402   6.141  0.6585  1.2569 -0.8381
 7762SOL     OW35344   3.649   2.976   9.344 -0.1745 -0.2875 -0.5263
 7762SOL    HW135345   3.675   2.951   9.250 -0.9046 -1.1514 -0.5073
 7762SOL    HW235346   3.730   2.975   9.403  0.7410  2.6541 -1.6343
 7763SOL     OW35347   1.751   8.656   3.990 -0.5178 -0.1910 -0.3514
 7763SOL    HW135348   1.851   8.656   3.992 -0.5232 -0.1992 -0.1056
 7763SOL    HW235349   1.718   8.564   4.008 -0.6090  0.1678  1.4212
 7764SOL     OW35350   6.837   5.411  10.085  0.0098  0.3154  0.0239
 7764SOL    HW135351   6.800   5.319  10.072 -0.2803  0.5754 -1.0579
 7764SOL    HW235352   6.822   5.464  10.002  0.0191  1.3933  0.7065
 7765SOL     OW35353   0.623   7.870   4.500 -0.1720 -0.1880  0.3502
 7765SOL    HW135354   0.575   7.876   4.412 -0.7521 -1.5054  0.5644
 7765SOL    HW235355   0.572   7.921   4.569 -0.2699 -0.0241  0.1584
 7766SOL     OW35356   0.074   0.955   9.273  0.2813 -0.1125  0.1711
 7766SOL    HW135357   0.147   0.950   9.341 -0.2706 -2.9251  0.6239
 7766SOL    HW235358   0.114   0.952   9.181  0.7931 -1.0493  0.4133
 7767SOL     OW35359   2.972   0.287   8.590  0.2199  0.3170 -0.1646
 7767SOL    HW135360   2.982   0.226   8.511  0.3122 -0.1097  0.1726
 7767SOL    HW235361   2.910   0.362   8.567  0.4611  0.3459 -0.7313
 7768SOL     OW35362   4.863   5.056   0.178  0.4235 -0.4317 -0.4450
 7768SOL    HW135363   4.830   5.100   0.094  1.3240 -0.8131 -0.9999
 7768SOL    HW235364   4.877   5.125   0.249  3.2695  0.3954 -1.7687
 7769SOL     OW35365   9.986   9.479   7.904 -0.4436  0.4209 -0.0978
 7769SOL    HW135366   9.889   9.497   7.887 -0.0952  2.1287 -0.4257
 7769SOL    HW235367   9.999   9.455   8.000 -1.2756 -0.5159 -0.2090
 7770SOL     OW35368   4.090   7.892   0.637 -0.3974 -0.3804 -0.3029
 7770SOL    HW135369   4.121   7.881   0.543  1.5785  3.0227 -0.1529
 7770SOL    HW235370   4.166   7.873   0.700 -1.2625 -1.1253  0.5265
 7771SOL     OW35371   9.974   9.022   0.666 -0.6192  0.0453 -0.0670
 7771SOL    HW135372   9.972   9.029   0.567 -1.3619  0.7474 -0.0082
 7771SOL    HW235373  10.038   9.089   0.704  0.0866 -0.6049 -0.1025
 7772SOL     OW35374   8.242   0.859   2.745  0.1446 -0.1518 -0.3283
 7772SOL    HW135375   8.224   0.942   2.798 -0.1647  0.7789 -1.8675
 7772SOL    HW235376   8.341   0.846   2.737  0.1995 -0.4899  0.7323
 7773SOL     OW35377   4.329   4.355   8.646  0.1103 -0.0553  0.4648
 7773SOL    HW135378   4.362   4.342   8.740  0.3426 -1.4795  0.1990
 7773SOL    HW235379   4.283   4.271   8.615 -3.0417  1.5841  0.5246
 7774SOL     OW35380   8.790   7.312   6.331 -0.0070  0.6359 -0.0181
 7774SOL    HW135381   8.710   7.316   6.391  0.5370 -0.2054  0.7785
 7774SOL    HW235382   8.833   7.402   6.327  1.1813  0.2510  2.5891
 7775SOL     OW35383   7.343   7.275   3.165  0.0586 -0.3264 -0.3242
 7775SOL    HW135384   7.414   7.307   3.228 -1.1852 -2.4814  2.2670
 7775SOL    HW235385   7.385   7.230   3.087  1.6443  2.6599 -1.2696
 7776SOL     OW35386   8.806   9.031   6.058  0.0585 -0.1464  0.1021
 7776SOL    HW135387   8.773   8.944   6.093  1.0163 -0.2433  0.7731
 7776SOL    HW235388   8.770   9.105   6.116 -1.5143 -0.0064 -1.0109
 7777SOL     OW35389   1.577   9.638   0.011  0.0365 -0.1983 -0.1496
 7777SOL    HW135390   1.496   9.693   0.031  1.2083  0.9353  1.5926
 7777SOL    HW235391   1.628   9.679  -0.065  0.8363  1.0543  1.0591
 7778SOL     OW35392   4.156   7.636   2.423 -0.4241 -0.4595  0.2221
 7778SOL    HW135393   4.158   7.703   2.497  0.0111  0.3594 -0.5272
 7778SOL    HW235394   4.168   7.544   2.461 -0.6257 -0.0805  1.2068
 7779SOL     OW35395   7.918   0.283   3.026  0.0266 -0.4902  0.1614
 7779SOL    HW135396   7.901   0.301   2.929 -1.4027 -0.5758  0.3955
 7779SOL    HW235397   7.949   0.367   3.070  0.1567 -0.3184 -0.2558
 7780SOL     OW35398   4.640   8.922   6.766  0.0054  0.4807 -0.0707
 7780SOL    HW135399   4.550   8.959   6.789 -0.4694 -0.8279  0.2084
 7780SOL    HW235400   4.652   8.922   6.666 -0.6682 -0.1766 -0.1538
 7781SOL     OW35401   8.309   6.140   7.311 -0.5039  0.0063 -0.3768
 7781SOL    HW135402   8.241   6.213   7.307 -1.1837 -0.5713  0.5078
 7781SOL    HW235403   8.279   6.069   7.374  0.7503 -0.4351 -0.2523
 7782SOL     OW35404   5.542   9.175   7.878  0.9311  0.2099 -0.1456
 7782SOL    HW135405   5.475   9.220   7.820  1.0832 -1.5762 -1.7472
 7782SOL    HW235406   5.499   9.096   7.923  0.9696  1.2411  1.7386
 7783SOL     OW35407   7.423   6.773   8.870 -0.1212  0.4270 -0.5481
 7783SOL    HW135408   7.411   6.846   8.803  1.3938  1.0937 -0.1035
 7783SOL    HW235409   7.334   6.748   8.908 -0.6923  1.7686 -0.9823
 7784SOL     OW35410   5.729   9.338   4.123  0.4609 -0.3277  0.7265
 7784SOL    HW135411   5.804   9.281   4.090  0.7535 -0.9243  2.3572
 7784SOL    HW235412   5.644   9.285   4.123 -0.5482  1.0942 -3.5345
 7785SOL     OW35413   0.091   3.961   0.900 -0.4108 -0.0298 -0.1883
 7785SOL    HW135414   0.149   4.000   0.971 -1.0439  0.8278 -0.1182
 7785SOL    HW235415   0.000   3.942   0.938 -1.2155  1.8147 -1.0937
 7786SOL     OW35416   3.445   9.550   8.412 -0.1031  0.0031 -0.4019
 7786SOL    HW135417   3.398   9.540   8.500  1.0276  0.3787  0.2454
 7786SOL    HW235418   3.450   9.461   8.367  0.5646 -0.4470  0.5555
 7787SOL     OW35419   3.037   2.431   3.236  0.1077 -0.6226  0.5867
 7787SOL    HW135420   3.115   2.427   3.298  0.8287  2.4355 -0.0475
 7787SOL    HW235421   3.067   2.457   3.144 -1.5264 -0.2917  0.1132
 7788SOL     OW35422   5.695   2.193   8.450 -0.1801 -0.1355  0.5911
 7788SOL    HW135423   5.661   2.280   8.415 -0.6862 -0.2128  0.8886
 7788SOL    HW235424   5.793   2.199   8.466 -0.1548  0.2730  0.2854
 7789SOL     OW35425   2.570   7.936   1.833  0.1277  0.3872  0.0858
 7789SOL    HW135426   2.646   7.999   1.846  0.7648 -0.8609  2.6692
 7789SOL    HW235427   2.517   7.929   1.918  0.7065 -3.3530  0.2260
 7790SOL     OW35428   3.320   5.569   5.020  0.3318 -1.1239 -0.7213
 7790SOL    HW135429   3.394   5.533   5.077 -0.4504 -1.1073  0.3222
 7790SOL    HW235430   3.336   5.666   5.002  0.9401 -1.2935 -1.1167
 7791SOL     OW35431   8.071   3.865   0.940  1.0963 -0.2014  0.0244
 7791SOL    HW135432   8.133   3.940   0.963  0.0998  0.7269 -0.2640
 7791SOL    HW235433   7.995   3.864   1.005  2.1437 -2.2489  1.2830
 7792SOL     OW35434   7.993   5.979   9.098  0.0765 -0.3175 -0.4934
 7792SOL    HW135435   7.904   6.013   9.069 -0.3594 -2.1927 -1.4210
 7792SOL    HW235436   7.984   5.937   9.189 -0.4404 -2.2912 -1.4291
 7793SOL     OW35437   0.018   6.835   5.875 -0.1352  0.3505 -0.2610
 7793SOL    HW135438  -0.011   6.749   5.918  2.4302 -0.8439 -0.8572
 7793SOL    HW235439   0.074   6.887   5.939 -0.5634  0.9732 -0.3845
 7794SOL     OW35440   9.931   6.438   1.524  0.0700 -0.1874  0.1402
 7794SOL    HW135441   9.873   6.515   1.549  1.4819  1.0138 -0.2452
 7794SOL    HW235442  10.020   6.447   1.569  1.6312  0.4899 -2.9522
 7795SOL     OW35443   4.681   3.955   8.574 -0.4280  0.2320 -0.2380
 7795SOL    HW135444   4.583   3.936   8.568  0.1593 -3.4150  0.4860
 7795SOL    HW235445   4.710   3.948   8.669  0.4437  1.8635 -0.3792
 7796SOL     OW35446   2.431   2.086   8.072 -0.1300 -0.5104  0.0897
 7796SOL    HW135447   2.475   2.147   8.006  0.7187 -0.7488  0.4414
 7796SOL    HW235448   2.366   2.139   8.128  1.6404  0.3625  1.3608
 7797SOL     OW35449   6.785   0.775   4.744 -0.0715  0.0773  0.0837
 7797SOL    HW135450   6.807   0.773   4.646 -0.3404 -0.4739  0.0295
 7797SOL    HW235451   6.703   0.830   4.758  0.0802  0.3184  0.0195
 7798SOL     OW35452   8.766   1.235   2.442  0.2162 -0.5740 -0.2456
 7798SOL    HW135453   8.856   1.232   2.485  0.9956  0.6347 -1.7063
 7798SOL    HW235454   8.695   1.236   2.512  1.4674  2.4035  1.0801
 7799SOL     OW35455   3.926   7.899   4.224 -0.1975 -0.7157 -0.3843
 7799SOL    HW135456   3.967   7.978   4.269 -0.4159 -1.8070  1.7964
 7799SOL    HW235457   3.895   7.925   4.133 -1.0049  1.9333  0.5976
 7800SOL     OW35458   6.429   0.637   2.176 -0.2324  0.6081  0.8310
 7800SOL    HW135459   6.423   0.727   2.133  1.2845  0.5810  0.5092
 7800SOL    HW235460   6.341   0.590   2.169 -0.3247  1.0553 -1.2560
 7801SOL     OW35461   3.417   9.874   0.979  0.1415  0.3606  0.7861
 7801SOL    HW135462   3.443   9.823   0.897 -0.5362 -0.4782  1.0921
 7801SOL    HW235463   3.477   9.954   0.988 -0.0409  0.7011 -0.7527
 7802SOL     OW35464   8.320   7.279   2.132 -0.6178  0.4956 -0.3736
 7802SOL    HW135465   8.287   7.372   2.112 -2.3822  0.0966  0.5151
 7802SOL    HW235466   8.419   7.275   2.118 -0.8686  1.8243 -2.9122
 7803SOL     OW35467   8.910   7.819   4.123  0.0915 -0.4169  0.4811
 7803SOL    HW135468   8.940   7.733   4.081 -0.0434 -0.4418  0.4376
 7803SOL    HW235469   8.990   7.872   4.150  0.1862 -0.1155 -0.3719
 7804SOL     OW35470   2.033   8.774   3.552 -0.5639  0.4452 -0.4160
 7804SOL    HW135471   2.064   8.868   3.569  1.4385 -0.3719  0.5945
 7804SOL    HW235472   2.087   8.734   3.478 -1.2403 -0.0027 -0.6715
 7805SOL     OW35473   8.464   0.436   6.780 -0.3446  0.7795 -0.6523
 7805SOL    HW135474   8.556   0.415   6.745 -0.5048 -3.2300  1.0442
 7805SOL    HW235475   8.396   0.389   6.725 -1.2229  1.7180 -0.3729
 7806SOL     OW35476   6.971   6.275   9.604 -0.0357 -0.1933 -0.2425
 7806SOL    HW135477   6.979   6.227   9.692 -0.2337 -1.1714 -0.7488
 7806SOL    HW235478   6.884   6.250   9.561 -0.3419  0.9788 -0.3060
 7807SOL     OW35479   3.984   6.874   3.012 -0.2953 -0.0925 -0.1972
 7807SOL    HW135480   3.948   6.924   3.091  1.2096  1.8661 -0.7369
 7807SOL    HW235481   3.908   6.833   2.962 -1.3813 -0.1495  1.4439
 7808SOL     OW35482   9.533   6.098   7.014  0.4173 -0.2739 -0.1932
 7808SOL    HW135483   9.462   6.030   7.027  0.6418 -0.5053 -0.1796
 7808SOL    HW235484   9.514   6.178   7.072 -0.6050  0.2717 -1.2599
 7809SOL     OW35485   4.376   8.475   2.712  0.1281 -0.0933  0.2420
 7809SOL    HW135486   4.309   8.530   2.662 -0.4056  0.6706  1.7886
 7809SOL    HW235487   4.468   8.500   2.682 -0.2659 -1.9531 -2.7173
 7810SOL     OW35488   2.434   3.189   9.605  0.1306  0.6418  0.0598
 7810SOL    HW135489   2.433   3.121   9.531 -1.4464  1.5343 -0.7617
 7810SOL    HW235490   2.466   3.276   9.569 -1.9628  1.4474  0.0765
 7811SOL     OW35491   2.242   4.218   8.210 -0.1213  0.0940 -0.1114
 7811SOL    HW135492   2.197   4.282   8.149  0.3247  0.8865  0.3649
 7811SOL    HW235493   2.217   4.239   8.305  0.4041 -0.1176  0.0818
 7812SOL     OW35494   9.919   2.626   5.439  0.2660 -0.0121 -0.5322
 7812SOL    HW135495   9.954   2.565   5.510  2.8360  0.7251 -1.1267
 7812SOL    HW235496   9.823   2.648   5.459  0.0891 -2.1032  1.1162
 7813SOL     OW35497   3.726   3.543  10.007  0.5598 -0.6401 -0.1988
 7813SOL    HW135498   3.641   3.511  10.048  0.8451 -0.0935  0.8398
 7813SOL    HW235499   3.802   3.487  10.040  0.4562 -1.8795 -2.0467
 7814SOL     OW35500   1.146   7.053   0.341  0.5530  0.0909 -0.3402
 7814SOL    HW135501   1.176   7.064   0.246  1.0290  0.6876 -0.1238
 7814SOL    HW235502   1.226   7.040   0.400  0.2706 -0.0648  0.0100
 7815SOL     OW35503   0.284   1.489   0.512  0.1547  0.2752 -0.2096
 7815SOL    HW135504   0.290   1.563   0.580 -1.1116  0.0015  0.2249
 7815SOL    HW235505   0.358   1.424   0.526  2.1188  2.2024 -1.4876
 7816SOL     OW35506   4.489   7.612   5.145 -0.0105 -0.2860 -0.1403
 7816SOL    HW135507   4.431   7.531   5.143 -1.0272  0.4660 -1.7345
 7816SOL    HW235508   4.574   7.591   5.192  0.1734 -2.5817 -1.4638
 7817SOL     OW35509   4.791   4.262   0.539  0.1208  0.0210 -0.1537
 7817SOL    HW135510   4.882   4.263   0.578 -0.0247  0.4835  0.1703
 7817SOL    HW235511   4.780   4.339   0.477 -0.2736  0.3486  0.3203
 7818SOL     OW35512   3.873   2.027   6.390  0.0377  0.2664 -0.1627
 7818SOL    HW135513   3.774   2.024   6.379  0.1629 -1.2464 -1.0264
 7818SOL    HW235514   3.911   1.937   6.370  1.5010  0.6043  1.0461
 7819SOL     OW35515   6.183   4.501   2.269 -0.0094  0.0899 -0.0110
 7819SOL    HW135516   6.273   4.521   2.309 -0.6641  0.2100  1.4328
 7819SOL    HW235517   6.194   4.437   2.193  1.7346  3.0170 -2.3522
 7820SOL     OW35518   9.460   7.237   6.201 -0.3516  0.1987 -0.0121
 7820SOL    HW135519   9.508   7.216   6.286 -1.5879  1.2577  0.9776
 7820SOL    HW235520   9.402   7.317   6.215  0.0465  0.8745 -2.1014
 7821SOL     OW35521   6.240   3.999   8.967 -0.1223 -0.1819 -0.4129
 7821SOL    HW135522   6.339   3.993   8.973 -0.1501 -0.2897 -0.0870
 7821SOL    HW235523   6.198   3.960   9.049 -0.3634  2.1633  0.6373
 7822SOL     OW35524   1.285   9.292   0.181  0.0189 -0.0940  0.1432
 7822SOL    HW135525   1.193   9.252   0.176  0.4287 -1.0284 -0.0449
 7822SOL    HW235526   1.338   9.247   0.253  0.6990 -0.3410 -0.5028
 7823SOL     OW35527   1.727   0.672   4.853 -0.0214  0.2893  0.4099
 7823SOL    HW135528   1.683   0.762   4.848  1.3378  0.9725  0.4443
 7823SOL    HW235529   1.826   0.683   4.845  0.2300 -1.1257  1.3225
 7824SOL     OW35530   0.201   9.833   6.618  0.0449 -0.1831  0.1296
 7824SOL    HW135531   0.229   9.756   6.675 -0.3340 -1.0160 -0.8091
 7824SOL    HW235532   0.203   9.807   6.522  0.4669  1.1497 -0.2460
 7825SOL     OW35533   0.087   3.624   7.506 -0.3180  0.4142  0.2027
 7825SOL    HW135534   0.077   3.545   7.567  1.7311  0.0599  0.1141
 7825SOL    HW235535   0.122   3.702   7.557 -0.3883  0.6697 -0.1351
 7826SOL     OW35536   3.808   8.842   0.282  0.4837  0.1230 -0.5471
 7826SOL    HW135537   3.718   8.865   0.246  1.0415 -0.2676 -2.2150
 7826SOL    HW235538   3.806   8.847   0.382 -0.8431  2.0686 -0.6488
 7827SOL     OW35539   1.959   8.171   6.364  0.0037  0.3996 -0.1156
 7827SOL    HW135540   2.005   8.248   6.409 -1.0800 -0.0232  1.7672
 7827SOL    HW235541   2.027   8.117   6.314  1.1251  1.3011  0.3930
 7828SOL     OW35542   4.753   5.547   2.774  0.0433  0.5437 -0.1961
 7828SOL    HW135543   4.749   5.584   2.681  0.0810  0.1780 -0.3422
 7828SOL    HW235544   4.719   5.616   2.839  0.1560  0.8522 -0.4629
 7829SOL     OW35545   9.699   5.386   5.548  0.0757 -0.1051 -0.5301
 7829SOL    HW135546   9.616   5.376   5.493  0.3968 -0.2568 -0.9888
 7829SOL    HW235547   9.673   5.398   5.644 -0.4481 -1.1712 -0.5280
 7830SOL     OW35548   8.071   0.374   4.934 -0.0376  0.1421 -0.1538
 7830SOL    HW135549   8.004   0.352   4.863  0.9806  0.1974 -1.1480
 7830SOL    HW235550   8.162   0.381   4.893  0.5001  0.6103  1.0887
 7831SOL     OW35551   3.844   1.738   5.300  0.1864  0.0215  0.3149
 7831SOL    HW135552   3.781   1.696   5.235  0.3511 -0.7717  0.6605
 7831SOL    HW235553   3.924   1.771   5.252  0.6757 -1.2868  0.2042
 7832SOL     OW35554   9.636   5.653   8.968 -0.4729 -0.1578 -0.6814
 7832SOL    HW135555   9.674   5.579   9.024  2.2943  0.9542 -1.0549
 7832SOL    HW235556   9.581   5.713   9.025  1.5116  0.4043  0.6591
 7833SOL     OW35557   6.589   9.679   7.757 -0.1569  0.0896  0.2960
 7833SOL    HW135558   6.629   9.703   7.845  1.5742  0.8583 -0.6725
 7833SOL    HW235559   6.649   9.616   7.708  1.0239  2.9351 -2.0946
 7834SOL     OW35560   7.602   2.504   3.969 -0.0884 -0.3102  0.2756
 7834SOL    HW135561   7.567   2.593   3.999  0.9966 -0.0905  0.8875
 7834SOL    HW235562   7.525   2.447   3.940 -0.5681  1.8272 -2.8591
 7835SOL     OW35563   0.592   2.748   1.377 -0.0506  0.1344  0.0599
 7835SOL    HW135564   0.567   2.654   1.351  1.9741 -0.5780  0.5987
 7835SOL    HW235565   0.621   2.750   1.472  0.7553  1.1473 -0.1986
 7836SOL     OW35566   8.437   2.817   9.667 -0.1949 -0.3685  0.0188
 7836SOL    HW135567   8.415   2.909   9.633  2.1491  0.1584 -0.1246
 7836SOL    HW235568   8.383   2.798   9.749 -0.8066  1.0881 -0.0355
 7837SOL     OW35569   6.729   0.114   3.068  0.2810 -0.1504  0.0671
 7837SOL    HW135570   6.704   0.031   3.118 -0.0952  0.0444  0.1989
 7837SOL    HW235571   6.679   0.117   2.982  0.2591 -0.0309  0.0849
 7838SOL     OW35572   2.338   4.271   0.727  0.5155  0.2431  0.1316
 7838SOL    HW135573   2.422   4.322   0.750 -0.0606  2.4492 -2.3988
 7838SOL    HW235574   2.258   4.327   0.749 -0.1704 -0.0882 -1.4476
 7839SOL     OW35575   8.303   1.694   5.972 -0.3160  0.5686  0.2075
 7839SOL    HW135576   8.257   1.646   5.897 -0.2436 -0.4319  0.7938
 7839SOL    HW235577   8.349   1.776   5.936  0.8412 -0.6076 -1.0854
 7840SOL     OW35578   3.793   1.290   8.092 -0.1419 -0.3789  0.1771
 7840SOL    HW135579   3.874   1.245   8.056 -1.2002 -2.1829  0.0034
 7840SOL    HW235580   3.772   1.255   8.183 -0.9100 -0.1679  0.0920
 7841SOL     OW35581   9.548   4.626   0.195 -0.3807 -0.0708  0.2823
 7841SOL    HW135582   9.451   4.618   0.173 -0.1495  0.1881 -0.8884
 7841SOL    HW235583   9.595   4.540   0.174  0.1622  0.7421 -2.0060
 7842SOL     OW35584   0.568   6.106   3.219  0.5364  0.0495 -0.1022
 7842SOL    HW135585   0.631   6.153   3.281  0.2623  1.6635 -1.0421
 7842SOL    HW235586   0.612   6.094   3.130 -0.0871  0.1878 -0.4281
 7843SOL     OW35587   3.439   1.517   3.966  0.0034 -0.2761  0.2031
 7843SOL    HW135588   3.407   1.518   3.871  2.4227 -1.2885 -0.6694
 7843SOL    HW235589   3.417   1.429   4.008  0.6779 -0.5785 -0.0664
 7844SOL     OW35590   3.687   1.493   7.262  0.2798  0.0861  0.1845
 7844SOL    HW135591   3.619   1.541   7.317  1.1548  0.5904  0.8332
 7844SOL    HW235592   3.748   1.559   7.219  0.0235 -0.3398 -0.8429
 7845SOL     OW35593   2.856   2.606   9.750 -0.2282 -0.0692 -0.4317
 7845SOL    HW135594   2.836   2.699   9.779  0.5181  0.1079 -0.4881
 7845SOL    HW235595   2.949   2.600   9.715 -0.5900 -0.6301 -1.3263
 7846SOL     OW35596   6.220   5.098   0.293  1.0166 -0.5271 -0.0894
 7846SOL    HW135597   6.308   5.060   0.267  0.3238 -2.7005  0.5597
 7846SOL    HW235598   6.148   5.056   0.238  0.2926  0.5353  0.0246
 7847SOL     OW35599   2.575   6.291   0.528  0.2072 -0.0062  0.3325
 7847SOL    HW135600   2.634   6.313   0.606  1.1373 -1.4755  0.0864
 7847SOL    HW235601   2.488   6.254   0.560  0.7182 -0.9195  0.6866
 7848SOL     OW35602   2.462   5.240   6.788  0.0043  0.2779  0.2712
 7848SOL    HW135603   2.548   5.208   6.749  0.2416 -0.4453  1.3755
 7848SOL    HW235604   2.406   5.281   6.716  0.7953 -0.2749 -0.6669
 7849SOL     OW35605   1.403   0.866   2.362 -0.0120  0.5281  0.0631
 7849SOL    HW135606   1.359   0.914   2.286  0.2669 -0.2010 -0.5743
 7849SOL    HW235607   1.371   0.771   2.365  1.3023  0.0538 -0.2612
 7850SOL     OW35608   8.434   1.636   0.708 -0.2675 -0.2695 -0.2913
 7850SOL    HW135609   8.361   1.658   0.643  1.4767  0.4389 -2.0672
 7850SOL    HW235610   8.505   1.705   0.702  0.7511 -1.1821  1.1029
 7851SOL     OW35611   2.744   6.943   2.081 -0.2897  0.1879 -0.2886
 7851SOL    HW135612   2.654   6.921   2.119 -1.7937  0.7504 -3.4137
 7851SOL    HW235613   2.780   6.865   2.031 -0.3990  0.9275 -1.5538
 7852SOL     OW35614   8.603   2.424   8.329 -0.0410  0.3082  0.1496
 7852SOL    HW135615   8.537   2.350   8.344  1.7864 -1.1928  0.9951
 7852SOL    HW235616   8.595   2.456   8.234 -3.7674  2.0067  0.9317
 7853SOL     OW35617   8.941   5.596   1.558  0.3915 -0.1456  0.3705
 7853SOL    HW135618   8.849   5.610   1.593  0.3786  1.5992 -0.3054
 7853SOL    HW235619   8.987   5.526   1.612 -1.6299 -1.7248  0.1272
 7854SOL     OW35620   0.691   1.658   8.277 -0.0556 -0.0310 -0.4356
 7854SOL    HW135621   0.772   1.688   8.226  0.8698 -1.1479  0.3394
 7854SOL    HW235622   0.681   1.559   8.268 -1.5446  0.1470 -0.7997
 7855SOL     OW35623   0.131   0.062   4.771 -0.4532 -0.6328  0.3386
 7855SOL    HW135624   0.085   0.011   4.698 -1.2019  0.8933 -0.2794
 7855SOL    HW235625   0.066   0.079   4.845 -1.5117  3.1310 -1.3284
 7856SOL     OW35626   2.702   8.852   6.412 -0.2369  0.3716  0.1321
 7856SOL    HW135627   2.722   8.755   6.396  0.5650  0.4361  0.7308
 7856SOL    HW235628   2.767   8.908   6.362 -0.8157  0.6034 -0.3595
 7857SOL     OW35629   7.036   1.075   1.798  0.2199 -0.0487 -0.1409
 7857SOL    HW135630   7.107   1.004   1.799  0.4109  0.0524 -3.0227
 7857SOL    HW235631   7.078   1.165   1.814  0.4242 -0.2210  0.2982
 7858SOL     OW35632   2.164   6.220   2.253  0.0134  0.0720  0.6144
 7858SOL    HW135633   2.166   6.190   2.348  0.5899 -1.6660  0.0735
 7858SOL    HW235634   2.255   6.252   2.226 -0.7557  3.1565  1.4066
 7859SOL     OW35635   4.041   1.986   8.765  0.3154 -0.1249 -0.2863
 7859SOL    HW135636   3.962   2.048   8.766  0.3606 -0.0738  0.1030
 7859SOL    HW235637   4.122   2.036   8.732  0.6114  0.3442  1.1097
 7860SOL     OW35638   3.789   9.591   3.619  0.2513  0.0751  0.4601
 7860SOL    HW135639   3.733   9.660   3.574 -0.0278  0.4513  1.3695
 7860SOL    HW235640   3.874   9.633   3.651 -0.0999  0.1038  1.3813
 7861SOL     OW35641   9.973   4.238   2.108 -0.3979 -0.5972  0.0892
 7861SOL    HW135642   9.979   4.292   2.024 -0.5352  0.8220  0.9685
 7861SOL    HW235643   9.878   4.215   2.126 -0.5787  0.5780  0.7406
 7862SOL     OW35644   1.609   6.680   6.695  0.4529 -0.3323  0.1032
 7862SOL    HW135645   1.531   6.663   6.754  3.0958 -1.4793  3.4740
 7862SOL    HW235646   1.589   6.754   6.631 -2.4693  1.0543  2.5659
 7863SOL     OW35647   3.530   9.278   8.333  0.0733  0.0905 -0.1896
 7863SOL    HW135648   3.629   9.291   8.343 -0.0690 -0.1295  1.6884
 7863SOL    HW235649   3.507   9.183   8.356 -0.4863 -0.0837 -1.4332
 7864SOL     OW35650   7.949   7.632   6.465  0.1605 -0.4827  0.2882
 7864SOL    HW135651   7.983   7.550   6.418 -1.8820 -1.4382  0.4544
 7864SOL    HW235652   7.887   7.682   6.404  0.8609  0.5819  0.4370
 7865SOL     OW35653   8.996   8.011   6.054  0.2064 -0.3846 -0.6940
 7865SOL    HW135654   9.071   8.067   6.088  0.4379  0.2827 -2.2456
 7865SOL    HW235655   9.027   7.917   6.043  0.1772 -0.5615  0.7499
 7866SOL     OW35656   3.683   5.693   0.376 -0.3685  0.1322  0.0941
 7866SOL    HW135657   3.597   5.731   0.410  0.5698  2.2681  0.1748
 7866SOL    HW235658   3.715   5.623   0.439 -0.2272  1.8919  2.0657
 7867SOL     OW35659   7.275   1.852   2.879 -0.1318  0.1293 -0.2267
 7867SOL    HW135660   7.213   1.927   2.902  0.7450  0.4809  1.0861
 7867SOL    HW235661   7.274   1.836   2.781 -0.4398  1.7600 -0.4990
 7868SOL     OW35662   2.080   0.086   4.990 -0.4267 -0.0323 -0.0561
 7868SOL    HW135663   2.088  -0.014   4.994  1.0015  0.0338 -0.9446
 7868SOL    HW235664   2.160   0.124   4.944 -1.1173  1.5095 -0.0137
 7869SOL     OW35665   0.009   3.249   2.398  0.1090  0.0690  0.3960
 7869SOL    HW135666   0.060   3.335   2.403 -1.7764  1.3353 -1.3470
 7869SOL    HW235667  -0.087   3.266   2.422 -0.4569 -1.3982 -0.7808
 7870SOL     OW35668   4.447   3.766   8.622 -0.0911 -0.1886 -0.2561
 7870SOL    HW135669   4.465   3.674   8.657 -0.1358  0.1809  0.7366
 7870SOL    HW235670   4.363   3.802   8.662 -0.2910  0.1313 -0.9491
 7871SOL     OW35671   4.162   2.523   9.212  0.1776  0.3774 -0.0254
 7871SOL    HW135672   4.209   2.535   9.125 -0.6732  1.4876 -0.3382
 7871SOL    HW235673   4.082   2.464   9.200  1.4034 -1.4249  0.4872
 7872SOL     OW35674   6.674   1.565   8.843  0.1448 -0.1555 -0.4800
 7872SOL    HW135675   6.738   1.639   8.859 -0.6718  0.5039 -0.2438
 7872SOL    HW235676   6.625   1.580   8.757 -1.1613  0.4305  0.3336
 7873SOL     OW35677   7.444   4.864   8.990  0.0140  0.6581  0.6865
 7873SOL    HW135678   7.404   4.938   9.044 -1.1649 -0.0213  0.7585
 7873SOL    HW235679   7.400   4.860   8.901  0.7014  0.6172  0.3454
 7874SOL     OW35680   9.759   4.648   0.436  0.5454  0.5779  0.2484
 7874SOL    HW135681   9.681   4.648   0.499  0.2687  0.3065 -0.0864
 7874SOL    HW235682   9.738   4.704   0.356  0.1089 -0.6718 -0.5365
 7875SOL     OW35683   8.040   8.382   6.061  0.0462 -0.0585 -0.9436
 7875SOL    HW135684   8.059   8.412   5.967 -0.6262 -2.6570 -1.9350
 7875SOL    HW235685   8.116   8.327   6.095  0.2032  0.7169 -0.0154
 7876SOL     OW35686   8.526   4.828   4.504 -0.0835 -0.4758 -1.1341
 7876SOL    HW135687   8.514   4.737   4.462 -0.5097 -0.1363 -1.7605
 7876SOL    HW235688   8.523   4.898   4.432  2.5958 -0.1219 -0.9448
 7877SOL     OW35689   9.252   3.625   6.011 -0.1117  0.0876  0.1537
 7877SOL    HW135690   9.152   3.627   6.018 -0.3096 -0.8856 -2.0251
 7877SOL    HW235691   9.282   3.532   5.990  1.0741  0.7940 -1.4222
 7878SOL     OW35692   6.293   0.759   3.919 -0.2735 -0.1114  0.8281
 7878SOL    HW135693   6.206   0.713   3.939  0.1662 -0.6651  1.4645
 7878SOL    HW235694   6.368   0.693   3.925 -0.0640 -0.2745 -2.3290
 7879SOL     OW35695   2.729   0.776   5.070 -0.2168 -0.1074 -0.0371
 7879SOL    HW135696   2.749   0.694   5.123 -0.2101 -0.0902 -0.0126
 7879SOL    HW235697   2.712   0.853   5.133 -1.4574 -0.3711 -0.0297
 7880SOL     OW35698   3.451   7.348   1.704  0.0719 -0.4863 -0.3985
 7880SOL    HW135699   3.548   7.372   1.702 -0.4237  1.5118 -1.3136
 7880SOL    HW235700   3.399   7.415   1.651 -1.7113 -2.0287 -0.6369
 7881SOL     OW35701   6.461   1.761   3.687  0.1386  0.1208  0.0105
 7881SOL    HW135702   6.430   1.696   3.757  1.3888  0.9375  1.3642
 7881SOL    HW235703   6.390   1.772   3.618 -0.6231 -1.6841  0.4616
 7882SOL     OW35704   0.587   0.956   8.897 -0.4372  0.0735 -0.0504
 7882SOL    HW135705   0.641   0.893   8.842  0.2790  0.4458  0.2164
 7882SOL    HW235706   0.496   0.966   8.857 -0.0122  0.1309 -1.0107
 7883SOL     OW35707   6.689   2.632   4.517 -0.2735  0.0612 -0.1219
 7883SOL    HW135708   6.750   2.554   4.529 -1.9849 -1.2002  0.4367
 7883SOL    HW235709   6.699   2.668   4.424  0.0476 -1.2108 -0.5826
 7884SOL     OW35710   0.404   0.333   3.560 -0.3396 -0.8289  0.5592
 7884SOL    HW135711   0.502   0.321   3.577  0.0337  1.5268  0.2497
 7884SOL    HW235712   0.354   0.260   3.604  1.6812 -3.1436 -0.8415
 7885SOL     OW35713   1.803   6.702   7.679  0.3831 -0.3459 -0.2339
 7885SOL    HW135714   1.864   6.665   7.750  0.0325  0.2898  0.4007
 7885SOL    HW235715   1.856   6.721   7.597  0.4007 -3.2825 -0.9700
 7886SOL     OW35716   4.598   5.452   1.826  0.1658 -0.0473 -0.8414
 7886SOL    HW135717   4.632   5.379   1.768 -0.0532 -0.0043 -1.0264
 7886SOL    HW235718   4.581   5.416   1.918  1.1121  0.0337 -0.6298
 7887SOL     OW35719   8.778   5.387   4.929 -0.4824  0.2616  0.3560
 7887SOL    HW135720   8.716   5.311   4.948 -0.8383  0.6026  0.5746
 7887SOL    HW235721   8.862   5.375   4.981 -0.9181  0.4981  1.1226
 7888SOL     OW35722   3.242   6.284   9.516 -0.0163 -0.3871 -1.0289
 7888SOL    HW135723   3.326   6.333   9.490 -0.6338  1.8256  0.9384
 7888SOL    HW235724   3.253   6.247   9.608 -1.3667  0.3741 -0.5502
 7889SOL     OW35725   4.167   7.899   6.491 -0.0235 -0.1243 -0.0104
 7889SOL    HW135726   4.244   7.843   6.522 -0.2667 -0.9403 -0.8595
 7889SOL    HW235727   4.081   7.852   6.514 -0.3741  1.9359  3.1952
 7890SOL     OW35728   4.907   7.843   1.670 -0.0645  0.1554  0.2223
 7890SOL    HW135729   4.860   7.806   1.590  1.0516  0.1057 -0.4128
 7890SOL    HW235730   5.005   7.825   1.663  0.1246  0.7378  1.2751
 7891SOL     OW35731   8.093   7.009   3.243 -0.4804  0.0840 -0.2913
 7891SOL    HW135732   8.128   6.962   3.162  0.0552  0.9179 -0.5385
 7891SOL    HW235733   7.997   7.035   3.228 -0.2201  0.7142 -0.8620
 7892SOL     OW35734   2.327   7.927   4.735 -0.7782 -0.6078  0.4942
 7892SOL    HW135735   2.385   7.936   4.816  1.3596 -0.8477 -0.9790
 7892SOL    HW235736   2.273   7.842   4.742  0.2725 -1.2321  1.1107
 7893SOL     OW35737   6.196   9.480   6.511 -0.4459 -0.4110  0.2010
 7893SOL    HW135738   6.242   9.550   6.457 -2.2400  1.4700  1.0457
 7893SOL    HW235739   6.144   9.419   6.451 -0.5711  0.2492 -0.3585
 7894SOL     OW35740   8.593   1.872   3.472 -0.3762  0.8154  0.0167
 7894SOL    HW135741   8.613   1.887   3.375 -0.0813 -2.8168 -0.5429
 7894SOL    HW235742   8.497   1.846   3.483  0.4751 -2.4887  0.1848
 7895SOL     OW35743   0.165   5.846   2.362  0.1807 -0.1620 -0.7039
 7895SOL    HW135744   0.202   5.793   2.287 -0.1093 -0.7956 -0.4002
 7895SOL    HW235745   0.068   5.865   2.346  0.4015  0.6864 -1.0440
 7896SOL     OW35746   6.143   9.714   2.635 -0.1968  0.4250 -0.4756
 7896SOL    HW135747   6.240   9.696   2.617  0.0404  1.4838 -0.3046
 7896SOL    HW235748   6.102   9.758   2.555 -0.2038  1.1991 -0.0503
 7897SOL     OW35749   0.356   0.390   8.183  0.5740  0.7464  0.6534
 7897SOL    HW135750   0.317   0.400   8.275 -0.4153  2.2584  0.0875
 7897SOL    HW235751   0.390   0.479   8.152  0.9155  0.2409 -0.4403
 7898SOL     OW35752   9.129   7.361   9.893  0.0616 -0.4605  0.5295
 7898SOL    HW135753   9.198   7.335   9.960 -0.4999 -0.8678  0.9554
 7898SOL    HW235754   9.070   7.283   9.874 -0.0723 -0.2111 -0.0873
 7899SOL     OW35755   2.826   3.519   5.358  0.1826  0.1448  0.2075
 7899SOL    HW135756   2.895   3.570   5.306 -0.9458 -0.7448 -2.2350
 7899SOL    HW235757   2.872   3.452   5.417  1.4090 -2.0166 -3.0595
 7900SOL     OW35758   4.079   9.171   6.684  0.5244  0.3800 -0.9610
 7900SOL    HW135759   4.161   9.150   6.737 -0.5160  0.1659  0.6045
 7900SOL    HW235760   4.048   9.089   6.636 -1.4818 -0.8646  2.2896
 7901SOL     OW35761   0.484   1.082   3.018 -0.1191  0.7419  0.0843
 7901SOL    HW135762   0.538   1.007   3.056  0.3015  0.5403 -0.8946
 7901SOL    HW235763   0.525   1.169   3.047  0.9641  0.5933 -0.9249
 7902SOL     OW35764   2.926   4.936   6.518  0.0328  0.6019 -0.2859
 7902SOL    HW135765   2.924   4.908   6.614  1.1005  0.6430 -0.2394
 7902SOL    HW235766   2.866   4.877   6.464  0.0678  0.0449  0.2794
 7903SOL     OW35767   0.985   3.083   6.937  0.1356  0.2656  0.0464
 7903SOL    HW135768   1.032   3.155   6.885  0.2254  0.3250  0.2119
 7903SOL    HW235769   0.913   3.043   6.880 -0.2060  0.7864  0.1068
 7904SOL     OW35770   0.443   3.036   8.698 -0.2904 -0.1028 -0.0690
 7904SOL    HW135771   0.484   3.031   8.789  1.0743 -0.0294 -0.6720
 7904SOL    HW235772   0.379   2.960   8.686 -0.3946 -0.1783  0.9053
 7905SOL     OW35773   6.015   5.126   1.507 -0.7108 -0.3811  0.2342
 7905SOL    HW135774   6.008   5.201   1.441 -1.7692 -0.3024  0.4281
 7905SOL    HW235775   6.088   5.145   1.572  0.8698 -0.8161 -1.3724
 7906SOL     OW35776   2.495   3.506   4.061 -0.8505  0.1864 -0.4395
 7906SOL    HW135777   2.558   3.502   3.984  0.1204 -0.2975  0.3744
 7906SOL    HW235778   2.538   3.555   4.137 -1.7881  0.6366 -0.1962
 7907SOL     OW35779   8.566   8.232   0.181  0.4561 -0.0758  0.3594
 7907SOL    HW135780   8.571   8.296   0.258  1.1073  0.8409 -0.4304
 7907SOL    HW235781   8.562   8.138   0.216 -0.2385  0.3745  1.5293
 7908SOL     OW35782   3.284   4.084   9.322  0.1300 -0.7175  0.1605
 7908SOL    HW135783   3.204   4.093   9.262 -0.3777  3.0278  1.2798
 7908SOL    HW235784   3.367   4.090   9.268 -0.3320 -0.8871 -0.5760
 7909SOL     OW35785   3.078   6.757   5.899 -0.3588 -0.3951 -0.2112
 7909SOL    HW135786   3.124   6.834   5.853 -3.1145 -0.0998 -2.6359
 7909SOL    HW235787   3.099   6.673   5.850  0.8385 -0.8656  1.0996
 7910SOL     OW35788   9.659   3.925   4.696  0.2198 -0.1254 -0.0608
 7910SOL    HW135789   9.744   3.876   4.718 -0.2416 -0.5465  0.8164
 7910SOL    HW235790   9.620   3.963   4.780 -0.2762  0.3635 -0.5113
 7911SOL     OW35791   7.449   4.642   3.504 -0.2805  0.0472 -0.3452
 7911SOL    HW135792   7.390   4.698   3.446  0.4780  0.1449 -1.0299
 7911SOL    HW235793   7.500   4.578   3.448 -0.3913 -0.6471  0.3402
 7912SOL     OW35794   4.851   4.904   9.587 -0.0488 -0.0628 -0.2309
 7912SOL    HW135795   4.767   4.849   9.592  0.3927 -0.7296  0.0175
 7912SOL    HW235796   4.865   4.935   9.494 -1.4909  1.5181  0.0667
 7913SOL     OW35797   8.931   3.355   4.145  0.1914  0.0141  0.3536
 7913SOL    HW135798   8.919   3.301   4.062  1.5547  0.3733 -0.0865
 7913SOL    HW235799   8.973   3.298   4.216 -2.4608 -0.7723  1.3651
 7914SOL     OW35800   2.500   3.701   6.026  0.5044 -0.0407  0.2855
 7914SOL    HW135801   2.565   3.625   6.038  0.6935  0.1837  0.6672
 7914SOL    HW235802   2.478   3.741   6.115 -0.8982 -0.7307  0.2754
 7915SOL     OW35803   3.994   2.335   5.845 -0.1390 -0.2908 -0.0428
 7915SOL    HW135804   4.064   2.264   5.834  1.0349  1.1005 -2.0301
 7915SOL    HW235805   3.951   2.353   5.757 -1.0505  0.8234  0.6180
 7916SOL     OW35806   8.487   7.941   0.825  0.5552 -0.0988  0.2683
 7916SOL    HW135807   8.401   7.892   0.838  0.5573 -0.5374 -1.3374
 7916SOL    HW235808   8.478   8.007   0.751  1.2490  0.7162  0.8894
 7917SOL     OW35809   6.850   0.330   4.414 -0.6008 -0.2400  0.1781
 7917SOL    HW135810   6.927   0.267   4.412 -1.0852 -0.9156  2.0014
 7917SOL    HW235811   6.784   0.300   4.482 -0.8169  2.2468  1.1254
 7918SOL     OW35812   9.275   1.062   0.814 -0.3841 -0.2747  0.2682
 7918SOL    HW135813   9.309   1.007   0.738  0.0412 -0.3080  0.4779
 7918SOL    HW235814   9.252   1.154   0.782 -2.0352 -0.8655 -0.2848
 7919SOL     OW35815   7.550   8.462   5.474 -0.1288 -0.1416  0.0379
 7919SOL    HW135816   7.479   8.481   5.542  0.1709 -1.2845  0.6817
 7919SOL    HW235817   7.507   8.435   5.388 -0.5196  1.7020 -0.3735
 7920SOL     OW35818   8.947   7.052   1.820  0.4662  0.3805 -0.3702
 7920SOL    HW135819   8.875   7.044   1.750  0.2414  0.0798 -0.1037
 7920SOL    HW235820   9.036   7.058   1.775  0.0947  3.0862 -0.7816
 7921SOL     OW35821   7.258   9.471   5.889  0.2019 -0.5371  0.5635
 7921SOL    HW135822   7.190   9.406   5.857  0.7564 -0.4914 -0.7575
 7921SOL    HW235823   7.229   9.511   5.976 -2.0248  0.3482 -0.5537
 7922SOL     OW35824   3.127   7.213   6.564 -0.0552  0.7706 -0.3824
 7922SOL    HW135825   3.161   7.166   6.483  0.2158  0.1525  0.0903
 7922SOL    HW235826   3.070   7.151   6.617  2.2334  0.2233  1.4934
 7923SOL     OW35827   1.061   8.167   4.085  0.6865 -0.2837 -0.4870
 7923SOL    HW135828   0.980   8.125   4.127  0.2473  0.0254 -1.0156
 7923SOL    HW235829   1.117   8.096   4.042  1.3607 -0.6608  0.9660
 7924SOL     OW35830   6.985   5.778   8.928 -0.1880  0.0631  0.0525
 7924SOL    HW135831   7.069   5.754   8.977 -1.7126  1.6728  3.6445
 7924SOL    HW235832   7.003   5.855   8.867  1.1953 -0.2895 -0.0001
 7925SOL     OW35833   3.858   2.684   8.654  0.2395 -0.4375 -0.1514
 7925SOL    HW135834   3.873   2.776   8.689  0.8692  0.2324 -2.1100
 7925SOL    HW235835   3.785   2.640   8.706 -0.0867  1.1699  0.7808
 7926SOL     OW35836   0.925   6.418   7.561  0.3294 -0.3098 -0.3760
 7926SOL    HW135837   1.004   6.473   7.585  0.4864 -1.3321  1.5029
 7926SOL    HW235838   0.879   6.386   7.644 -1.1088 -1.0722 -1.4341
 7927SOL     OW35839   2.480   4.551   5.147  0.4917 -0.5310  0.1988
 7927SOL    HW135840   2.452   4.633   5.096  0.3496 -0.8502 -0.2382
 7927SOL    HW235841   2.557   4.574   5.206  0.9175 -0.2519 -0.4547
 7928SOL     OW35842   8.866   1.269   8.841 -0.1654 -0.7305  0.1641
 7928SOL    HW135843   8.935   1.289   8.911 -0.2527 -0.7936  0.2667
 7928SOL    HW235844   8.775   1.291   8.876 -0.1913 -0.5724 -0.0017
 7929SOL     OW35845   4.502   8.954   4.579  0.5912 -0.2417  0.3396
 7929SOL    HW135846   4.545   9.043   4.565 -1.6407  0.8664  0.3546
 7929SOL    HW235847   4.459   8.924   4.494  0.7055 -0.9726  0.5342
 7930SOL     OW35848   2.818   7.695   0.341  0.0444 -0.1514 -0.4737
 7930SOL    HW135849   2.749   7.710   0.271 -1.0537  0.0807  0.6519
 7930SOL    HW235850   2.808   7.763   0.413  1.6233  0.0547 -0.4248
 7931SOL     OW35851   1.127   2.593   7.873 -0.7239 -0.2545  0.1890
 7931SOL    HW135852   1.186   2.645   7.811 -0.5364 -0.1131  0.4834
 7931SOL    HW235853   1.170   2.587   7.963 -1.3799  0.2726  0.5450
 7932SOL     OW35854   6.257   0.147   6.682 -0.4556 -0.7000 -0.4298
 7932SOL    HW135855   6.318   0.216   6.644  0.3914 -1.6833 -0.8385
 7932SOL    HW235856   6.258   0.154   6.782  1.9265 -2.0760 -0.3299
 7933SOL     OW35857   1.362   7.061   7.896 -0.0297  0.7523  0.6165
 7933SOL    HW135858   1.265   7.079   7.882 -0.1155  0.7254  1.1744
 7933SOL    HW235859   1.374   6.994   7.969  0.4288  1.1689  0.9333
 7934SOL     OW35860   2.105   2.520   5.276  0.0057 -0.4680  0.2555
 7934SOL    HW135861   2.181   2.584   5.263 -0.1095 -0.6222 -1.2586
 7934SOL    HW235862   2.035   2.563   5.334  0.9503 -0.0814  1.1177
 7935SOL     OW35863   3.382   8.579   7.106  0.6761 -0.2126  0.0731
 7935SOL    HW135864   3.284   8.568   7.122  0.4358  1.6182 -0.0982
 7935SOL    HW235865   3.432   8.515   7.165 -0.5900 -0.6660  0.6799
 7936SOL     OW35866   4.855   2.861   4.933 -0.4944  0.1069 -0.4695
 7936SOL    HW135867   4.908   2.787   4.890 -0.4231 -0.6616  0.9006
 7936SOL    HW235868   4.882   2.949   4.895 -0.2984 -0.5413 -1.8467
 7937SOL     OW35869   4.639   4.440   6.655 -0.1395 -0.4223 -0.3248
 7937SOL    HW135870   4.643   4.524   6.601  1.3827 -0.9981 -1.1057
 7937SOL    HW235871   4.543   4.420   6.677 -0.4216  2.3586  1.2246
 7938SOL     OW35872   2.311   4.768   5.041  0.2794  0.1412  0.6438
 7938SOL    HW135873   2.308   4.701   4.967  2.6021 -0.7608  1.3260
 7938SOL    HW235874   2.339   4.857   5.005 -2.0619  0.5735 -0.1378
 7939SOL     OW35875   4.006   2.198   2.234 -0.4802 -0.0130 -0.0021
 7939SOL    HW135876   3.913   2.198   2.272 -1.0775 -0.9960 -1.3933
 7939SOL    HW235877   4.023   2.111   2.188  1.4646 -0.1757  1.0036
 7940SOL     OW35878   2.080   4.166   3.918 -0.3103 -0.3541  0.0897
 7940SOL    HW135879   2.011   4.195   3.852  0.0991  2.1711  0.6979
 7940SOL    HW235880   2.061   4.073   3.948 -2.0990 -0.5210 -1.5028
 7941SOL     OW35881   1.810   9.335   0.575  0.3524 -0.5248 -0.3449
 7941SOL    HW135882   1.883   9.360   0.637 -1.0204  2.2125  0.2547
 7941SOL    HW235883   1.773   9.418   0.532 -1.6086 -1.9471 -1.4866
 7942SOL     OW35884   2.370   3.653   7.808 -0.3948 -0.0237  0.2344
 7942SOL    HW135885   2.302   3.617   7.871  0.0516 -0.3787  0.5182
 7942SOL    HW235886   2.333   3.655   7.715 -0.4657 -1.0902  0.2335
 7943SOL     OW35887   9.447   5.580   6.174 -0.0890  0.3687  0.4097
 7943SOL    HW135888   9.469   5.489   6.138 -0.8139 -0.0656  1.0344
 7943SOL    HW235889   9.521   5.643   6.154 -0.3349  0.0742 -1.5878
 7944SOL     OW35890   9.620   3.488   7.155 -0.5015  0.3060  0.0136
 7944SOL    HW135891   9.699   3.533   7.196 -2.3494  2.3035  1.4884
 7944SOL    HW235892   9.616   3.511   7.058  1.3531 -0.7559 -0.3410
 7945SOL     OW35893   4.326   9.386   3.841 -0.4873  0.4718 -0.0120
 7945SOL    HW135894   4.362   9.363   3.931  0.1715 -0.0590 -0.4026
 7945SOL    HW235895   4.387   9.453   3.797 -0.6372  0.4989 -0.1793
 7946SOL     OW35896   0.871   9.904   1.738 -0.1614  0.0643 -0.2247
 7946SOL    HW135897   0.881   9.973   1.809  0.6821 -0.4343  0.1507
 7946SOL    HW235898   0.776   9.872   1.734  0.0182 -0.6796  1.3941
 7947SOL     OW35899   8.731   3.097   5.594 -0.4242 -0.5412 -0.3912
 7947SOL    HW135900   8.732   3.066   5.499  1.1976 -0.4179 -0.4223
 7947SOL    HW235901   8.677   3.032   5.648 -0.6190 -1.0994 -1.2331
 7948SOL     OW35902   2.702   3.735   1.755  0.2888 -0.4480  0.1597
 7948SOL    HW135903   2.614   3.716   1.800 -0.9834  1.4786 -1.4489
 7948SOL    HW235904   2.717   3.833   1.752  1.7518 -0.7012 -1.0208
 7949SOL     OW35905   9.151   6.590   0.830 -0.2142 -0.2746 -0.2293
 7949SOL    HW135906   9.208   6.535   0.769 -0.4876 -0.6544 -0.1418
 7949SOL    HW235907   9.063   6.545   0.844 -0.5722  0.3521 -0.4276
 7950SOL     OW35908   9.605   2.179   5.439  0.2584  0.5190 -0.0899
 7950SOL    HW135909   9.693   2.220   5.466  0.4479  0.7044 -0.9694
 7950SOL    HW235910   9.621   2.086   5.407  0.5165  1.4373 -2.7388
 7951SOL     OW35911   7.137   5.256   8.806  0.2145 -0.0317 -0.1597
 7951SOL    HW135912   7.095   5.340   8.840  0.8503  0.0784  0.3687
 7951SOL    HW235913   7.222   5.278   8.758 -0.7267 -0.1783 -1.9236
 7952SOL     OW35914   9.737   6.155   0.329 -0.2218 -0.5391 -0.5280
 7952SOL    HW135915   9.773   6.090   0.396 -0.1679 -0.6792 -0.6919
 7952SOL    HW235916   9.641   6.135   0.310 -0.6567  0.4311  0.6299
 7953SOL     OW35917   3.480   8.650   4.804  0.1651 -0.0997  0.1023
 7953SOL    HW135918   3.501   8.604   4.718 -0.5829 -0.1584 -0.0589
 7953SOL    HW235919   3.516   8.743   4.803  1.0060 -0.4282  0.1173
 7954SOL     OW35920   9.423   5.490   7.918  0.1106  0.5191 -0.4443
 7954SOL    HW135921   9.423   5.557   7.992 -1.3508  0.2320 -0.1655
 7954SOL    HW235922   9.428   5.398   7.957 -0.4237  0.3773 -0.7017
 7955SOL     OW35923   1.415   8.156   4.986  0.3105 -0.3984 -0.1193
 7955SOL    HW135924   1.337   8.218   4.991  0.1380 -0.4677 -1.7456
 7955SOL    HW235925   1.398   8.087   4.916  1.6826 -0.6142 -0.2457
 7956SOL     OW35926   5.007   5.941   1.521 -0.0717 -0.3475 -0.6655
 7956SOL    HW135927   4.942   6.015   1.540 -1.7229 -2.3538  1.9172
 7956SOL    HW235928   4.957   5.858   1.498  1.5206 -1.9351  1.3840
 7957SOL     OW35929   6.474   7.765   2.474  0.1804  0.4907  0.3812
 7957SOL    HW135930   6.494   7.756   2.376 -2.2454  1.0942 -0.2011
 7957SOL    HW235931   6.508   7.684   2.522  0.2861 -0.3876 -1.1381
 7958SOL     OW35932   1.760   3.984   3.987 -0.9003 -0.3561 -0.6669
 7958SOL    HW135933   1.767   3.892   4.026  1.4451 -0.5592 -1.4743
 7958SOL    HW235934   1.761   4.051   4.061 -2.7504 -0.9645 -0.0660
 7959SOL     OW35935   4.677   3.381   7.145  0.1608  0.3493 -0.2028
 7959SOL    HW135936   4.688   3.468   7.098  0.7826  0.7126  0.6094
 7959SOL    HW235937   4.625   3.394   7.229 -0.6169 -0.2332 -0.5846
 7960SOL     OW35938   2.876   6.885   0.196  0.1693  0.1434 -0.9986
 7960SOL    HW135939   2.785   6.857   0.228  0.3674 -1.4387 -1.7673
 7960SOL    HW235940   2.888   6.983   0.211 -0.8208 -0.0409  1.1018
 7961SOL     OW35941   8.187   6.372   1.680 -0.0487 -0.1901 -0.0609
 7961SOL    HW135942   8.233   6.311   1.616  1.4551 -1.5808  2.2521
 7961SOL    HW235943   8.243   6.455   1.692  0.1804 -0.3911  0.2464
 7962SOL     OW35944   9.076   4.779   1.820  0.5550  0.0868  0.0638
 7962SOL    HW135945   9.042   4.696   1.864  0.0254  0.4552  0.3558
 7962SOL    HW235946   9.156   4.813   1.869 -0.7542  1.1794  1.5013
 7963SOL     OW35947   5.047   2.391   8.262  0.3439 -0.1752  0.4886
 7963SOL    HW135948   5.144   2.393   8.239  0.2823 -1.4617  0.0861
 7963SOL    HW235949   5.024   2.302   8.301 -0.9416 -0.3544 -0.6452
 7964SOL     OW35950   7.722   1.754   4.427  0.5557  0.6069  0.3351
 7964SOL    HW135951   7.701   1.851   4.432 -1.1584  0.1920  1.7775
 7964SOL    HW235952   7.703   1.711   4.516  2.4936 -0.8055  0.0957
 7965SOL     OW35953   5.572   5.454   8.591  0.3554  0.1979 -0.0188
 7965SOL    HW135954   5.509   5.416   8.659  1.3096  1.1387  1.4352
 7965SOL    HW235955   5.527   5.461   8.502 -1.5396  0.7287  0.9665
 7966SOL     OW35956   3.297   5.039   6.413 -0.3141  0.1476  0.4358
 7966SOL    HW135957   3.240   5.120   6.399  2.7378  2.2655 -0.3213
 7966SOL    HW235958   3.277   5.000   6.503 -1.8366  1.7342  0.8278
 7967SOL     OW35959   2.075   5.671   0.085 -0.2838 -0.2874 -0.2768
 7967SOL    HW135960   2.136   5.625   0.149  0.0247  0.2614 -0.1690
 7967SOL    HW235961   2.109   5.764   0.068 -0.9217 -0.0856 -0.4531
 7968SOL     OW35962   0.886   1.133   9.118  0.6984 -0.2808  0.0565
 7968SOL    HW135963   0.918   1.228   9.120  0.5415 -0.2522  2.1082
 7968SOL    HW235964   0.948   1.076   9.172 -1.5418 -0.5700  2.4152
 7969SOL     OW35965   3.707   5.990   5.875 -0.2607 -0.5226 -0.1842
 7969SOL    HW135966   3.723   5.891   5.883 -0.5898 -0.5320  0.3515
 7969SOL    HW235967   3.694   6.029   5.966  2.2598  0.4143 -0.1816
 7970SOL     OW35968   4.200   4.339   7.957 -0.1427  0.1868 -0.4371
 7970SOL    HW135969   4.225   4.258   8.009 -0.8269  0.8743  0.9927
 7970SOL    HW235970   4.186   4.416   8.019  2.9756  2.0941 -1.9533
 7971SOL     OW35971   4.395   5.461   2.317  0.3156  0.3670 -1.0356
 7971SOL    HW135972   4.460   5.389   2.343  0.6318  0.5059 -1.4371
 7971SOL    HW235973   4.352   5.498   2.399  2.2053  1.6349 -0.5653
 7972SOL     OW35974   2.484   8.265   8.462  0.2661 -0.6335  0.1715
 7972SOL    HW135975   2.435   8.352   8.460  0.0228 -0.7881 -0.4481
 7972SOL    HW235976   2.502   8.240   8.558  1.3911  0.6777  0.3117
 7973SOL     OW35977   7.583   5.904   0.933  0.4904  0.1570  0.7592
 7973SOL    HW135978   7.496   5.860   0.910  0.0853  0.8180  1.0401
 7973SOL    HW235979   7.571   5.967   1.009  0.6217  2.3004 -0.9298
 7974SOL     OW35980   9.706   5.868  10.025 -0.5281  0.8017  0.2380
 7974SOL    HW135981   9.689   5.827   9.935  0.1068 -0.7133  0.7976
 7974SOL    HW235982   9.623   5.862  10.081  0.1523 -1.5539  1.0207
 7975SOL     OW35983   8.295   5.412   4.857  0.3537  0.7793  0.1463
 7975SOL    HW135984   8.355   5.338   4.888  1.5785  2.4203  1.7681
 7975SOL    HW235985   8.243   5.447   4.935 -1.4218  0.5358 -0.9307
 7976SOL     OW35986   8.421   6.540   1.668  0.1890  0.0602 -0.4428
 7976SOL    HW135987   8.416   6.618   1.731 -2.2746 -2.2765  2.3488
 7976SOL    HW235988   8.473   6.466   1.710 -0.9397 -1.2993 -1.3768
 7977SOL     OW35989   9.594   3.574   6.908  0.3122 -0.1955 -0.1893
 7977SOL    HW135990   9.567   3.533   6.821  1.8347 -4.4653  1.1893
 7977SOL    HW235991   9.688   3.606   6.902  0.4903 -0.6849 -0.1065
 7978SOL     OW35992   2.305   2.534   9.708  0.5352  0.5611 -0.0628
 7978SOL    HW135993   2.325   2.585   9.791 -1.9402  1.6293 -0.1003
 7978SOL    HW235994   2.252   2.452   9.730  1.0590  0.1010 -0.4635
 7979SOL     OW35995   1.305   7.754   0.809  0.0818 -0.2052 -0.2314
 7979SOL    HW135996   1.353   7.674   0.771  0.5167 -0.3523  0.6096
 7979SOL    HW235997   1.232   7.782   0.746  0.6807 -0.5430 -1.0919
 7980SOL     OW35998   4.646   3.319   0.693 -0.1468 -0.7284 -0.7440
 7980SOL    HW135999   4.737   3.353   0.669 -0.7702  0.7807 -1.0697
 7980SOL    HW236000   4.639   3.222   0.670  0.9299 -0.5259 -1.9538
 7981SOL     OW36001   3.318   1.152   9.287  0.1267 -0.3613  0.0185
 7981SOL    HW136002   3.338   1.054   9.296  0.4943 -0.3681 -0.9038
 7981SOL    HW236003   3.225   1.164   9.252  1.3002 -0.4512 -3.2875
 7982SOL     OW36004   3.999   7.309   1.247 -0.4111 -0.5702  0.1630
 7982SOL    HW136005   3.921   7.372   1.247  0.4500  0.5084 -0.1819
 7982SOL    HW236006   4.084   7.360   1.257  0.2993 -1.6948  0.0257
 7983SOL     OW36007   4.241   6.553   8.785 -0.6916  0.2694  0.7559
 7983SOL    HW136008   4.181   6.633   8.786 -3.8720 -2.0543  0.3365
 7983SOL    HW236009   4.289   6.548   8.698 -1.7876  0.7828  0.1186
 7984SOL     OW36010   3.017   7.585   2.510  0.6134  0.2773  0.2294
 7984SOL    HW136011   2.950   7.653   2.479  1.5215  0.2913 -1.7615
 7984SOL    HW236012   3.046   7.529   2.433 -0.8420 -3.0962  2.0139
 7985SOL     OW36013   3.457   3.395   7.325 -0.0072 -0.0024 -0.6101
 7985SOL    HW136014   3.357   3.401   7.325  0.1264  3.5477  1.4805
 7985SOL    HW236015   3.486   3.321   7.386 -1.2987  0.4231  0.5245
 7986SOL     OW36016   9.004   4.588   3.658 -0.1908 -0.4727  0.2849
 7986SOL    HW136017   8.957   4.571   3.745 -0.1939 -0.9636  0.1896
 7986SOL    HW236018   8.971   4.524   3.589  0.4285 -0.6594  0.1530
 7987SOL     OW36019   6.410   0.143   6.957  0.0641 -0.1764 -0.3800
 7987SOL    HW136020   6.392   0.229   7.005 -0.6822 -0.1190 -0.7605
 7987SOL    HW236021   6.477   0.090   7.009 -1.0281 -0.3031  0.9495
 7988SOL     OW36022   8.919   3.463   7.356 -0.1677 -0.0535 -0.3288
 7988SOL    HW136023   8.840   3.413   7.323 -1.0474  0.9593  0.1827
 7988SOL    HW236024   8.944   3.430   7.448 -0.7555  0.4433  0.0131
 7989SOL     OW36025   7.860   9.354   6.687 -0.1819  0.3503 -0.8382
 7989SOL    HW136026   7.792   9.300   6.736  0.5081  0.8033  0.6476
 7989SOL    HW236027   7.882   9.309   6.600 -1.1814 -0.6330 -0.5938
 7990SOL     OW36028   0.521   5.148   5.817 -0.1874  0.2191  0.4152
 7990SOL    HW136029   0.540   5.095   5.900 -0.9503  0.1215  0.5374
 7990SOL    HW236030   0.467   5.092   5.754  0.2976  0.3343 -0.0990
 7991SOL     OW36031   4.354   2.627   5.138  0.4996  0.5021  0.1623
 7991SOL    HW136032   4.340   2.613   5.040 -0.1032  2.4683 -0.0445
 7991SOL    HW236033   4.430   2.570   5.169  0.3853 -0.4955 -1.3424
 7992SOL     OW36034   7.715   3.613   2.491  0.2598  0.0207  0.0578
 7992SOL    HW136035   7.666   3.662   2.563 -0.5018 -1.2155  0.3876
 7992SOL    HW236036   7.677   3.521   2.481  1.4482 -0.3900 -0.7916
 7993SOL     OW36037   6.122   2.741   8.830  0.2987 -0.0288 -0.5847
 7993SOL    HW136038   6.206   2.766   8.783 -0.9917  0.4620 -2.7274
 7993SOL    HW236039   6.100   2.645   8.810 -0.3639  0.2405 -1.1740
 7994SOL     OW36040   3.152   3.659   1.797 -0.3464  0.4046  0.1252
 7994SOL    HW136041   3.204   3.633   1.716  0.9935  2.1350  0.4052
 7994SOL    HW236042   3.193   3.741   1.839 -1.1024 -0.3686  2.4696
 7995SOL     OW36043   3.053   5.585   5.127  0.1434  0.0873  0.0700
 7995SOL    HW136044   3.038   5.560   5.223 -0.7734  1.7546  0.3898
 7995SOL    HW236045   3.130   5.534   5.091 -0.3898 -1.6074  1.2813
 7996SOL     OW36046   7.243   7.151   6.693 -0.3571  0.4694 -0.0924
 7996SOL    HW136047   7.312   7.180   6.759  0.7165  2.0181 -1.8475
 7996SOL    HW236048   7.221   7.227   6.632  0.2583 -1.5167 -2.8775
 7997SOL     OW36049   9.899   9.483   1.745  0.2213  0.0046  0.0300
 7997SOL    HW136050   9.877   9.548   1.671 -0.4068  0.0689  0.2684
 7997SOL    HW236051   9.821   9.422   1.759  0.5241 -0.3116  0.3202
 7998SOL     OW36052   9.974   0.632   0.638  0.1917  0.4372  0.0164
 7998SOL    HW136053   9.951   0.729   0.639  0.9966  0.6205  0.5779
 7998SOL    HW236054  10.067   0.620   0.603 -0.5202 -0.2643 -1.7306
 7999SOL     OW36055   8.995   6.820   5.881  0.3393  0.8480 -0.5422
 7999SOL    HW136056   8.974   6.912   5.913  2.6773  1.3961 -0.5291
 7999SOL    HW236057   9.080   6.789   5.923 -1.0672 -1.8477  0.4812
 8000SOL     OW36058   7.714   1.145   4.899  0.5599  0.1684 -0.1015
 8000SOL    HW136059   7.615   1.140   4.896  0.5500 -0.5230  1.0841
 8000SOL    HW236060   7.743   1.241   4.888 -0.3483  0.7020  1.8962
 8001SOL     OW36061   7.716   4.257   2.919 -0.0905 -0.3727 -0.0146
 8001SOL    HW136062   7.800   4.249   2.866  1.2460 -0.3403  2.0299
 8001SOL    HW236063   7.678   4.166   2.934  0.7490 -0.6037  0.8188
 8002SOL     OW36064   6.188   7.543   2.529  0.3593 -0.6243  0.3902
 8002SOL    HW136065   6.215   7.630   2.571  3.3494 -0.6618 -1.3287
 8002SOL    HW236066   6.126   7.561   2.452  0.9231 -0.0121  0.0770
 8003SOL     OW36067   0.243   0.316   7.916 -0.0502 -0.1654 -0.4366
 8003SOL    HW136068   0.314   0.329   7.847  0.7666  1.1908  0.6430
 8003SOL    HW236069   0.278   0.342   8.005 -1.8089  0.2251  0.1570
 8004SOL     OW36070   3.941   8.999   8.759 -0.3636 -0.3791 -0.4199
 8004SOL    HW136071   3.878   9.072   8.734  0.8708  1.1477  0.8103
 8004SOL    HW236072   3.891   8.928   8.809 -1.2688  0.4650 -0.1065
 8005SOL     OW36073   6.490   2.426   4.427 -0.7280  0.1356 -0.4134
 8005SOL    HW136074   6.522   2.520   4.434  0.0550 -0.1014 -0.7123
 8005SOL    HW236075   6.397   2.419   4.463 -0.8585  1.0566 -0.5780
 8006SOL     OW36076   2.584   8.474   7.310 -0.2306  0.0147 -0.0426
 8006SOL    HW136077   2.568   8.375   7.309 -1.4039  0.1976 -0.4820
 8006SOL    HW236078   2.542   8.515   7.230 -1.9838  1.1902  1.4324
 8007SOL     OW36079   9.045   4.166   4.051 -0.3279 -0.0899 -0.5609
 8007SOL    HW136080   8.995   4.178   4.137  0.0525 -1.2456 -0.1655
 8007SOL    HW236081   9.006   4.226   3.982  0.7032  2.4388  0.9592
 8008SOL     OW36082   1.194   1.098   6.471 -0.5728  0.5422 -0.1730
 8008SOL    HW136083   1.139   1.170   6.514 -0.6526 -0.2521  1.0670
 8008SOL    HW236084   1.291   1.120   6.482 -0.6042  0.9431 -0.6485
 8009SOL     OW36085   0.555   0.707   2.759  0.4924 -0.1020 -0.2054
 8009SOL    HW136086   0.548   0.773   2.683  2.5539 -0.4079 -0.6877
 8009SOL    HW236087   0.647   0.710   2.797 -0.1580 -0.8912  1.4572
 8010SOL     OW36088   4.222   7.910   4.118 -0.2508 -0.1293  0.3292
 8010SOL    HW136089   4.157   7.834   4.124  0.2027 -0.3638  2.6994
 8010SOL    HW236090   4.287   7.891   4.044 -1.5651 -0.9036 -0.6652
 8011SOL     OW36091   2.858   0.201   7.551 -0.3053  0.2686 -0.9733
 8011SOL    HW136092   2.829   0.288   7.590  0.6827  0.3956 -0.5288
 8011SOL    HW236093   2.799   0.179   7.473 -0.8492  1.1047 -0.8046
 8012SOL     OW36094   8.247   9.800   5.820  0.2730  0.4987  0.2128
 8012SOL    HW136095   8.182   9.875   5.805 -0.4477 -0.2997 -0.7439
 8012SOL    HW236096   8.336   9.824   5.780 -0.2573  0.4121 -1.0464
 8013SOL     OW36097   6.283   0.389   4.536 -0.6018  0.7319  0.1078
 8013SOL    HW136098   6.344   0.462   4.567 -1.2074  0.4718  1.9459
 8013SOL    HW236099   6.190   0.408   4.569 -1.1562  0.1576 -1.1018
 8014SOL     OW36100   9.808   9.333   9.657 -0.0787  0.3782 -0.8424
 8014SOL    HW136101   9.742   9.335   9.733  0.2452  0.9571 -0.5674
 8014SOL    HW236102   9.900   9.345   9.693  0.0208  1.2794 -1.3874
 8015SOL     OW36103   5.571   2.448   0.049 -0.2564 -0.2548 -0.2710
 8015SOL    HW136104   5.608   2.389   0.120  0.4947  1.9217  1.2085
 8015SOL    HW236105   5.484   2.412   0.017 -0.5380 -1.3396  1.6659
 8016SOL     OW36106   2.650   2.708   5.977  0.2874 -0.1913  0.3927
 8016SOL    HW136107   2.583   2.695   5.903 -1.4452 -0.1120  1.9138
 8016SOL    HW236108   2.741   2.724   5.937 -0.7094  0.4261 -1.7259
 8017SOL     OW36109   5.659   8.497   2.268 -0.5675 -0.6670  0.6368
 8017SOL    HW136110   5.713   8.434   2.212 -0.5435 -1.1524  1.1933
 8017SOL    HW236111   5.660   8.588   2.227  0.2464 -0.7951  0.3644
 8018SOL     OW36112   1.979   7.493   3.020 -0.6769  0.7896 -0.2333
 8018SOL    HW136113   2.072   7.506   2.987 -1.4202  3.8791 -1.2820
 8018SOL    HW236114   1.920   7.465   2.945 -1.0959  1.4934 -0.1768
 8019SOL     OW36115   6.264   2.198   1.747 -0.5080 -0.4786 -0.7620
 8019SOL    HW136116   6.180   2.229   1.791  0.0932  0.9178 -0.5579
 8019SOL    HW236117   6.271   2.239   1.656  0.3273  0.0438 -0.4717
 8020SOL     OW36118   9.396   5.589   1.246  0.6878  0.2315  0.0917
 8020SOL    HW136119   9.442   5.501   1.257  0.9675  0.1496 -1.6726
 8020SOL    HW236120   9.444   5.644   1.178 -0.7085  0.9136 -0.3579
 8021SOL     OW36121   7.786   4.107   8.098  0.3745  0.4309 -0.2568
 8021SOL    HW136122   7.793   4.013   8.063 -0.1723  0.5633 -0.7255
 8021SOL    HW236123   7.700   4.117   8.148  1.0541  0.3013  0.9733
 8022SOL     OW36124   9.205   9.824   9.275  0.4451 -0.3284 -0.3026
 8022SOL    HW136125   9.264   9.863   9.204  1.3454 -0.9954  0.0721
 8022SOL    HW236126   9.222   9.726   9.282 -1.5353 -0.7364 -0.9776
 8023SOL     OW36127   2.762   5.089   1.491 -0.2276 -0.0493  0.8065
 8023SOL    HW136128   2.772   5.002   1.442  0.2475 -0.3959  1.4981
 8023SOL    HW236129   2.673   5.092   1.537 -0.7925  0.4008 -0.3170
 8024SOL     OW36130   9.551   2.770   7.444  0.1585  0.2913 -0.1426
 8024SOL    HW136131   9.649   2.779   7.425  0.1709  0.5598  0.0472
 8024SOL    HW236132   9.528   2.673   7.452  0.1827  0.1756 -1.3811
 8025SOL     OW36133   4.089   0.153   9.149  0.1330 -0.1515  0.7007
 8025SOL    HW136134   4.002   0.197   9.173  0.0371  0.3597 -0.5395
 8025SOL    HW236135   4.164   0.213   9.175 -0.0217  1.2274 -1.8180
 8026SOL     OW36136   4.158   1.873   8.222  0.0200  0.0950 -0.2368
 8026SOL    HW136137   4.189   1.949   8.166 -1.7114  0.2816 -0.9829
 8026SOL    HW236138   4.186   1.887   8.317  0.3958  1.2493 -0.5141
 8027SOL     OW36139   3.629   1.784   1.706  0.2595  0.0318  0.4594
 8027SOL    HW136140   3.608   1.690   1.680  1.0415  0.3230 -1.3236
 8027SOL    HW236141   3.658   1.835   1.625  0.8390  1.5361  1.5879
 8028SOL     OW36142   3.855   1.018   9.456  0.1459 -0.3528 -0.5079
 8028SOL    HW136143   3.905   1.050   9.537 -0.7821  2.6313 -1.0637
 8028SOL    HW236144   3.775   0.966   9.486  1.6009 -2.1298  0.4222
 8029SOL     OW36145   7.409   7.539   2.238 -0.5481 -0.1299  0.7224
 8029SOL    HW136146   7.479   7.551   2.308 -0.1900  0.9579  0.1907
 8029SOL    HW236147   7.427   7.456   2.186  1.1984  0.9102 -0.3727
 8030SOL     OW36148   4.428   0.240   4.593  0.4118 -0.1390  0.1082
 8030SOL    HW136149   4.449   0.168   4.527  1.5374  0.5828 -0.3272
 8030SOL    HW236150   4.329   0.248   4.603  0.2701 -1.2914 -0.3455
 8031SOL     OW36151   9.753   2.451   9.433 -0.4204  0.6039 -0.3767
 8031SOL    HW136152   9.765   2.483   9.339 -0.5812  1.1496 -0.2159
 8031SOL    HW236153   9.698   2.368   9.434 -2.5034  1.9500 -0.5779
 8032SOL     OW36154   7.371   5.539   8.260  0.0649  1.0147  0.5292
 8032SOL    HW136155   7.280   5.502   8.280  0.5611 -0.5666 -0.0653
 8032SOL    HW236156   7.395   5.517   8.165  1.4985  0.4921  1.0040
 8033SOL     OW36157   0.813   8.023   4.193 -0.0162  0.2566 -0.5742
 8033SOL    HW136158   0.848   8.011   4.286  1.6847  0.2548 -1.1912
 8033SOL    HW236159   0.713   8.019   4.194  0.0416 -2.1239  0.9276
 8034SOL     OW36160   8.711   4.746   4.213 -0.6370  0.6424 -0.3033
 8034SOL    HW136161   8.773   4.823   4.232  0.2760  0.1747 -1.3495
 8034SOL    HW236162   8.628   4.781   4.170  0.0489  0.9977 -1.3716
 8035SOL     OW36163   5.284   0.615   6.119 -0.1432 -0.1357  0.1654
 8035SOL    HW136164   5.383   0.619   6.113 -0.1402 -0.2971  0.0698
 8035SOL    HW236165   5.249   0.692   6.172 -0.0295  0.4092 -0.5513
 8036SOL     OW36166   1.520   2.575   2.187  0.0680  0.0759 -0.1944
 8036SOL    HW136167   1.536   2.645   2.117 -0.5538 -1.4843 -1.9462
 8036SOL    HW236168   1.586   2.500   2.175 -0.0435 -0.2064  0.8945
 8037SOL     OW36169   7.586   2.912   0.301 -0.6303 -0.6643 -0.9915
 8037SOL    HW136170   7.614   2.816   0.294  0.1227 -0.6675  1.4240
 8037SOL    HW236171   7.656   2.969   0.258  1.1470 -0.9554  1.3779
 8038SOL     OW36172   4.224   1.215   9.518  0.6944  0.2260 -0.2133
 8038SOL    HW136173   4.161   1.166   9.457 -0.1697 -1.1845  1.7546
 8038SOL    HW236174   4.257   1.298   9.473 -1.7230  0.4122 -1.6966
 8039SOL     OW36175   6.200   0.581   4.284  0.3297 -0.6440 -0.0255
 8039SOL    HW136176   6.106   0.612   4.294  0.0417 -0.8016 -2.0463
 8039SOL    HW236177   6.216   0.501   4.342 -0.3370  0.2915  1.4577
 8040SOL     OW36178   7.487   6.664   7.076 -0.3993 -0.5186  0.4226
 8040SOL    HW136179   7.573   6.613   7.072 -0.2303 -0.2141  0.0562
 8040SOL    HW236180   7.482   6.714   7.162  0.4030  0.5111 -0.1144
 8041SOL     OW36181   0.377   0.054   1.626  0.0942  0.1473 -0.3159
 8041SOL    HW136182   0.359   0.062   1.528 -0.8068 -2.5075 -0.3948
 8041SOL    HW236183   0.295   0.080   1.677 -0.5915 -1.8460 -0.3803
 8042SOL     OW36184   4.477   3.745  10.026  0.1214 -0.2229  0.4065
 8042SOL    HW136185   4.393   3.730  10.078 -0.7471  1.8795 -0.3182
 8042SOL    HW236186   4.525   3.658  10.015 -1.5546 -1.3319  1.4989
 8043SOL     OW36187   7.850   0.410   6.772  0.2423 -0.3429  0.4199
 8043SOL    HW136188   7.769   0.404   6.831  0.9073  0.9718  1.4982
 8043SOL    HW236189   7.924   0.357   6.813  0.5199  0.0833  0.4809
 8044SOL     OW36190   4.282   3.036  10.076  0.7900  0.3273  0.8326
 8044SOL    HW136191   4.295   2.962  10.011  1.1646  2.3508 -1.4433
 8044SOL    HW236192   4.187   3.065  10.075  1.1370  1.4613 -0.0478
 8045SOL     OW36193   6.947   3.981   0.936  0.1696  0.1919  0.3891
 8045SOL    HW136194   6.853   3.966   0.966  0.2747 -0.0744  0.5866
 8045SOL    HW236195   6.961   4.078   0.916  0.4277  0.5617  2.2808
 8046SOL     OW36196   1.472   5.423   2.680  0.6928 -0.6002 -0.1048
 8046SOL    HW136197   1.567   5.434   2.650  0.7985  0.8615  0.7661
 8046SOL    HW236198   1.415   5.491   2.635 -0.0576 -1.8112 -1.0303
 8047SOL     OW36199   2.512   9.254   8.992 -0.4787  0.1749 -0.0855
 8047SOL    HW136200   2.441   9.325   8.992 -0.7092 -0.0544 -0.3580
 8047SOL    HW236201   2.469   9.164   8.991 -0.1861  0.0345 -1.4027
 8048SOL     OW36202   2.733   7.491   9.247 -0.4454 -0.1947 -0.5280
 8048SOL    HW136203   2.746   7.545   9.329 -0.9571 -0.8281 -0.0198
 8048SOL    HW236204   2.819   7.484   9.197 -0.1077  0.1011  0.0105
 8049SOL     OW36205   2.219   9.301   0.521  0.2688 -0.3250  0.0938
 8049SOL    HW136206   2.210   9.216   0.469 -0.8379 -0.1914  0.0457
 8049SOL    HW236207   2.312   9.336   0.513  0.2324 -0.5549 -1.4116
 8050SOL     OW36208   9.414   4.071   5.400  0.5010 -0.2629  0.2268
 8050SOL    HW136209   9.317   4.060   5.375  0.4121  0.0314  0.4387
 8050SOL    HW236210   9.423   4.065   5.499  0.5039  1.1206  0.3250
 8051SOL     OW36211   3.546   6.119   0.308 -0.0045  0.0542  0.3274
 8051SOL    HW136212   3.641   6.138   0.330  0.5152 -1.5672 -0.4264
 8051SOL    HW236213   3.492   6.203   0.316  1.1670  0.6431  2.3227
 8052SOL     OW36214   5.417   1.147   7.761  0.2288 -0.2981  0.1864
 8052SOL    HW136215   5.399   1.223   7.699 -0.9277 -1.6822 -1.2297
 8052SOL    HW236216   5.484   1.085   7.719 -1.7797 -2.0961 -0.4499
 8053SOL     OW36217   4.640   9.574   2.416 -0.0647 -0.1198 -0.0099
 8053SOL    HW136218   4.721   9.617   2.456  1.0335 -0.2177 -2.0500
 8053SOL    HW236219   4.586   9.642   2.367  0.0949 -0.4952 -0.7228
 8054SOL     OW36220   6.889   5.544   8.168  0.2869  0.1629  0.0696
 8054SOL    HW136221   6.796   5.575   8.186 -0.1246  0.1255 -1.8621
 8054SOL    HW236222   6.942   5.619   8.129  0.5694 -0.2966 -0.4398
 8055SOL     OW36223   5.539   2.913   9.121 -0.4863 -0.0131 -0.5066
 8055SOL    HW136224   5.538   3.013   9.117 -0.6159  0.0855  1.3087
 8055SOL    HW236225   5.633   2.881   9.125 -0.4562  0.0755 -0.4938
 8056SOL     OW36226   5.586   5.604   9.103 -0.1138  0.3199 -0.5203
 8056SOL    HW136227   5.587   5.523   9.162  2.5211  0.0639 -0.8483
 8056SOL    HW236228   5.494   5.642   9.100 -0.4292  0.0214  3.2903
 8057SOL     OW36229   4.523   5.030   3.159 -0.1877  0.5537 -0.3474
 8057SOL    HW136230   4.536   4.934   3.138 -0.5211  0.7486 -1.4903
 8057SOL    HW236231   4.608   5.080   3.144 -0.1475  0.5215 -0.2273
 8058SOL     OW36232   4.320   0.485   5.053  0.0678 -0.0159  0.2785
 8058SOL    HW136233   4.232   0.488   5.005  1.0651 -0.0694 -1.6098
 8058SOL    HW236234   4.371   0.570   5.034  1.1004 -0.6836  0.0043
 8059SOL     OW36235   4.601   1.912   9.048 -0.3459 -0.5480 -0.0193
 8059SOL    HW136236   4.611   1.999   9.097 -2.1640 -0.7187  0.6950
 8059SOL    HW236237   4.686   1.860   9.054  1.2932  1.7910 -1.7023
 8060SOL     OW36238   9.336   6.371   2.447  0.1867  0.1244  0.1415
 8060SOL    HW136239   9.427   6.379   2.406 -0.2110 -0.4909 -0.8517
 8060SOL    HW236240   9.320   6.450   2.507  0.8452  0.9171 -0.7125
 8061SOL     OW36241   8.202   3.722   4.302  0.1488  0.0641 -0.2068
 8061SOL    HW136242   8.221   3.781   4.381 -1.3010  0.0742  0.1468
 8061SOL    HW236243   8.285   3.672   4.277  1.3250  2.0293 -0.3285
 8062SOL     OW36244   4.775   1.200   8.587 -0.8122 -0.2274 -0.0063
 8062SOL    HW136245   4.676   1.213   8.595 -0.5543  2.1437 -0.2123
 8062SOL    HW236246   4.821   1.288   8.599  1.2623 -1.2417 -0.2926
 8063SOL     OW36247   0.787   8.979   6.667  0.5560 -0.2072 -0.0806
 8063SOL    HW136248   0.690   8.970   6.647  0.5359  0.8566 -0.5052
 8063SOL    HW236249   0.800   9.035   6.748  0.7716 -1.4988  0.7833
 8064SOL     OW36250   0.993   2.534   0.715  0.0065 -0.7004  0.6692
 8064SOL    HW136251   0.915   2.598   0.718 -0.3602 -1.1994  3.3788
 8064SOL    HW236252   1.068   2.572   0.768  0.9051 -1.1568 -0.2672
 8065SOL     OW36253   3.502   5.262   4.502  0.2428 -0.1312 -0.0197
 8065SOL    HW136254   3.442   5.267   4.582  0.7519  1.4136  0.2793
 8065SOL    HW236255   3.591   5.226   4.530 -0.5483 -2.5882 -0.4961
 8066SOL     OW36256   4.755   9.138   4.218 -0.0749 -0.7526 -0.2763
 8066SOL    HW136257   4.832   9.091   4.261  0.9231  0.7276 -0.4149
 8066SOL    HW236258   4.687   9.071   4.189  0.6043 -1.9851  0.9327
 8067SOL     OW36259   4.882   5.901   3.284 -0.3903  0.0426  0.4846
 8067SOL    HW136260   4.886   5.977   3.349 -0.2292  1.4749 -1.1833
 8067SOL    HW236261   4.920   5.930   3.196 -2.2019 -1.3595 -0.7841
 8068SOL     OW36262   2.569   0.136   5.132 -0.3306 -0.2120 -0.3469
 8068SOL    HW136263   2.617   0.099   5.212  0.8440 -0.9005 -1.3522
 8068SOL    HW236264   2.474   0.105   5.134 -0.0572 -1.0640  0.2648
 8069SOL     OW36265   9.507   2.354   3.307 -0.1839 -0.0647  0.0317
 8069SOL    HW136266   9.501   2.435   3.249  0.7654 -0.3806 -0.5224
 8069SOL    HW236267   9.581   2.366   3.373  1.0393 -1.1342 -1.1169
 8070SOL     OW36268   5.334   3.799   1.177 -0.1665 -0.2447  0.0416
 8070SOL    HW136269   5.242   3.783   1.214  0.3218 -1.2755  0.8193
 8070SOL    HW236270   5.402   3.785   1.248  0.5785  1.1021 -0.3795
 8071SOL     OW36271   2.262   8.399   9.328 -0.5492  0.0477 -0.1721
 8071SOL    HW136272   2.206   8.327   9.371 -0.0408  0.1334  0.6462
 8071SOL    HW236273   2.349   8.406   9.377 -0.1210  0.4176 -0.9906
 8072SOL     OW36274   0.588   0.497   6.671  0.0324  0.3091  0.5276
 8072SOL    HW136275   0.577   0.417   6.730 -1.7676 -0.2389 -0.5220
 8072SOL    HW236276   0.634   0.570   6.722  1.2284 -1.1949  1.6586
 8073SOL     OW36277   8.001   0.060   9.065 -0.0011 -0.0169 -0.1118
 8073SOL    HW136278   8.083   0.055   9.122  0.2241 -0.0488 -0.4300
 8073SOL    HW236279   7.933   0.120   9.107 -0.0523 -0.4689  0.4521
 8074SOL     OW36280   1.743   1.820   6.453 -0.0491 -0.5914 -0.0402
 8074SOL    HW136281   1.712   1.727   6.473 -0.1935 -0.7614 -1.0512
 8074SOL    HW236282   1.799   1.854   6.529 -0.2846 -1.3734  0.4819
 8075SOL     OW36283   1.040   7.957   3.079  0.2422 -0.2089  0.2111
 8075SOL    HW136284   0.945   7.960   3.109  0.4514  0.0889  0.8616
 8075SOL    HW236285   1.074   8.051   3.068  1.1618 -0.2564  2.2928
 8076SOL     OW36286   5.512   9.985   3.162  0.1832  0.2909  0.1285
 8076SOL    HW136287   5.538  10.054   3.094  0.4234 -0.9400 -1.0406
 8076SOL    HW236288   5.413   9.970   3.158  0.1762  0.3235  0.1640
 8077SOL     OW36289   2.147   5.553   4.506  0.3647  0.3556 -0.9892
 8077SOL    HW136290   2.206   5.488   4.556  1.4410 -0.7515 -3.5844
 8077SOL    HW236291   2.092   5.605   4.571 -0.1152 -2.7635  1.2369
 8078SOL     OW36292   0.966   2.387   0.491  0.4570  0.6338 -0.2795
 8078SOL    HW136293   1.048   2.402   0.436  2.4981 -1.0415  2.1911
 8078SOL    HW236294   0.975   2.437   0.577 -0.7607 -0.2381  0.3599
 8079SOL     OW36295   0.649   5.566   6.306  0.8934  0.2276 -0.7043
 8079SOL    HW136296   0.554   5.598   6.306  0.7253 -0.2291 -2.0968
 8079SOL    HW236297   0.680   5.553   6.212  1.1377 -3.1760 -0.2090
 8080SOL     OW36298   4.895   4.729   2.263  0.0737 -0.1571 -0.3936
 8080SOL    HW136299   4.965   4.681   2.210 -0.5004  1.5861 -2.8100
 8080SOL    HW236300   4.933   4.814   2.300  0.1461 -0.8196  1.0982
 8081SOL     OW36301   7.444   1.334   6.136 -0.2773  0.2795  0.4314
 8081SOL    HW136302   7.397   1.281   6.066  0.8072 -0.2211  0.0683
 8081SOL    HW236303   7.384   1.406   6.170 -1.4324 -0.5904  0.2589
 8082SOL     OW36304   2.229   7.831   5.673  0.2663  0.1045 -0.0612
 8082SOL    HW136305   2.255   7.765   5.603  1.1248 -0.2556  0.5779
 8082SOL    HW236306   2.140   7.869   5.652 -0.1876 -1.1760 -0.5142
 8083SOL     OW36307   0.267   2.425   7.384  0.3908 -0.2923  0.3638
 8083SOL    HW136308   0.263   2.469   7.294  0.2120 -1.4203 -0.1785
 8083SOL    HW236309   0.353   2.374   7.392  1.4527  1.6228  1.6891
 8084SOL     OW36310   0.389   0.910   6.647  0.2856 -0.0446  0.0689
 8084SOL    HW136311   0.443   0.927   6.730 -0.7679 -1.3868  1.0648
 8084SOL    HW236312   0.424   0.829   6.600 -0.2488 -0.3587  0.2037
 8085SOL     OW36313   9.411   7.220   0.846  0.1188  0.1959  0.0312
 8085SOL    HW136314   9.359   7.247   0.765  2.4021 -2.3847 -2.3943
 8085SOL    HW236315   9.351   7.173   0.910 -1.6952  2.1488 -0.1816
 8086SOL     OW36316   7.231   3.635   1.178  0.1396 -0.2964 -0.1675
 8086SOL    HW136317   7.204   3.715   1.124  2.3027  1.7696  1.7416
 8086SOL    HW236318   7.277   3.569   1.119  2.6569  2.0263 -0.8539
 8087SOL     OW36319   3.408   8.134   4.001  0.2114 -0.5463  0.6848
 8087SOL    HW136320   3.455   8.046   4.000 -1.0146 -1.1996 -0.4476
 8087SOL    HW236321   3.340   8.136   4.074 -1.2452 -1.3402 -0.6345
 8088SOL     OW36322   2.215   4.577   3.850 -0.5569  0.3253  0.2399
 8088SOL    HW136323   2.133   4.590   3.906 -0.9404  0.7455 -0.4217
 8088SOL    HW236324   2.206   4.628   3.765 -0.4732 -1.2177 -0.7171
 8089SOL     OW36325   1.156   8.676   4.210  0.2354 -0.0391 -0.0580
 8089SOL    HW136326   1.143   8.582   4.178  1.6193 -0.3276  0.2207
 8089SOL    HW236327   1.071   8.707   4.253 -0.3844 -0.9961 -0.5501
 8090SOL     OW36328   9.620   5.916   6.391 -0.0906 -0.0853 -0.5181
 8090SOL    HW136329   9.566   5.885   6.313  0.2118  1.8591 -1.5410
 8090SOL    HW236330   9.650   6.010   6.376 -0.2336  0.4303  2.0589
 8091SOL     OW36331   2.852   0.604   4.300  0.6014  0.0042  0.4828
 8091SOL    HW136332   2.895   0.577   4.214 -1.0229  1.3166 -0.7609
 8091SOL    HW236333   2.825   0.521   4.351  0.8158 -0.7739 -0.6569
 8092SOL     OW36334   1.078   9.639  10.077  0.1622 -0.0495  0.2044
 8092SOL    HW136335   1.070   9.613   9.981 -0.2870  0.7480  0.0212
 8092SOL    HW236336   1.109   9.734  10.083 -2.2982  0.7381  0.8091
 8093SOL     OW36337   1.435   8.459   4.333  0.2502 -0.0765 -0.3612
 8093SOL    HW136338   1.420   8.546   4.380 -0.4116  0.1801 -1.0359
 8093SOL    HW236339   1.404   8.384   4.392  1.5907  0.0848  0.5567
 8094SOL     OW36340   0.109   6.257   8.342 -0.2954 -0.1420 -0.6659
 8094SOL    HW136341   0.116   6.276   8.440 -0.2578 -0.0218 -0.6903
 8094SOL    HW236342   0.129   6.340   8.291  0.6136 -0.4359 -0.7979
 8095SOL     OW36343   6.393   5.457   2.570  0.9963  0.2694 -0.0937
 8095SOL    HW136344   6.490   5.479   2.568  1.1068 -0.2802 -1.1308
 8095SOL    HW236345   6.380   5.361   2.544  0.1452  0.4508 -0.3543
 8096SOL     OW36346   7.918   0.534   8.346 -0.1808  0.4097 -0.1553
 8096SOL    HW136347   7.818   0.525   8.354 -0.0997 -0.2409  0.1382
 8096SOL    HW236348   7.951   0.473   8.274  0.1740 -0.4564  0.7219
 8097SOL     OW36349   3.126   6.099   6.593 -0.2086 -0.1662 -0.4560
 8097SOL    HW136350   3.214   6.091   6.640 -0.1521 -1.3362 -0.7383
 8097SOL    HW236351   3.052   6.068   6.653 -0.4751  1.2273 -0.0675
 8098SOL     OW36352   3.705   5.756   3.522 -0.0330 -1.1358  0.2093
 8098SOL    HW136353   3.721   5.842   3.570  0.0263 -0.4509 -1.0207
 8098SOL    HW236354   3.793   5.711   3.504 -0.1666 -2.3494  2.4386
 8099SOL     OW36355   3.851   6.841   7.179  0.4227 -0.0243  0.2333
 8099SOL    HW136356   3.883   6.748   7.197  1.3433 -0.0848 -1.5549
 8099SOL    HW236357   3.799   6.875   7.257 -2.5068 -3.1677 -0.2140
 8100SOL     OW36358   3.722   8.133   2.166 -0.1718 -0.1310  0.0448
 8100SOL    HW136359   3.651   8.115   2.097 -1.8849 -2.9953  2.4190
 8100SOL    HW236360   3.705   8.223   2.208 -1.2118  0.0975 -0.8299
 8101SOL     OW36361   6.079   6.292   0.873  0.6594  0.2964  0.2878
 8101SOL    HW136362   5.990   6.276   0.915  0.7569  1.3397  0.8946
 8101SOL    HW236363   6.146   6.228   0.911  0.2158 -0.3855 -0.0577
 8102SOL     OW36364   5.388   2.112   7.799 -0.0064  0.3086  0.3365
 8102SOL    HW136365   5.439   2.042   7.850 -0.3396  0.0208  0.2712
 8102SOL    HW236366   5.290   2.092   7.804  0.0579 -0.7342 -1.8987
 8103SOL     OW36367   9.053   1.937   0.714 -0.3814 -0.4264  0.1384
 8103SOL    HW136368   9.104   2.022   0.702 -0.5107 -0.2841  0.5803
 8103SOL    HW236369   9.116   1.863   0.736 -0.1089 -0.7520 -1.6784
 8104SOL     OW36370   1.265   2.145   7.521 -0.1177  0.3206 -0.2512
 8104SOL    HW136371   1.239   2.056   7.560 -0.2932  0.1336 -0.7813
 8104SOL    HW236372   1.299   2.131   7.428 -0.6682  0.8692 -0.5356
 8105SOL     OW36373   9.177   0.797   2.974  0.2510 -0.3874 -0.1403
 8105SOL    HW136374   9.203   0.775   3.068 -1.8895  1.1416  0.8449
 8105SOL    HW236375   9.203   0.721   2.914  1.1298 -1.6323  1.7633
 8106SOL     OW36376   9.177   2.510   7.850 -0.0727 -0.3609 -0.0057
 8106SOL    HW136377   9.269   2.475   7.829  0.1866 -0.6792  1.5904
 8106SOL    HW236378   9.130   2.444   7.909 -1.5136 -0.4181 -1.1989
 8107SOL     OW36379   6.192   0.313   1.034  0.3949  0.3981  0.2105
 8107SOL    HW136380   6.131   0.345   1.106  1.3173 -0.9537  1.6300
 8107SOL    HW236381   6.186   0.213   1.027  3.5873  0.0578  1.4857
 8108SOL     OW36382   8.855   8.770   1.129 -0.0749 -0.0381  0.3776
 8108SOL    HW136383   8.761   8.798   1.149  0.2581  0.6612  0.9934
 8108SOL    HW236384   8.875   8.786   1.033  0.1034  1.8681  0.7163
 8109SOL     OW36385   8.671   3.350   6.989  0.1814  0.2245 -0.3312
 8109SOL    HW136386   8.713   3.340   6.899 -1.6942 -2.6445 -0.9533
 8109SOL    HW236387   8.579   3.387   6.980 -0.6089 -1.5255  0.2091
 8110SOL     OW36388   5.208   7.592   5.504 -0.2668  0.3848  0.1150
 8110SOL    HW136389   5.274   7.655   5.464 -1.1824  0.3586 -1.4895
 8110SOL    HW236390   5.179   7.627   5.593  0.2903  1.5089 -0.1328
 8111SOL     OW36391   9.432   0.214   9.882  0.0341 -0.0564  0.2544
 8111SOL    HW136392   9.414   0.312   9.894 -2.2032 -0.4312  0.2059
 8111SOL    HW236393   9.402   0.165   9.964  0.9417 -0.7329  0.1818
 8112SOL     OW36394   0.657   4.492   2.061  0.2803  0.7318  0.1074
 8112SOL    HW136395   0.631   4.399   2.039 -0.5921  1.0856 -0.3774
 8112SOL    HW236396   0.749   4.493   2.101  0.4372 -0.2862 -0.2308
 8113SOL     OW36397   8.537   0.331   5.488 -0.1239 -0.1687  0.5318
 8113SOL    HW136398   8.608   0.272   5.450  0.0809  0.0876  0.5149
 8113SOL    HW236399   8.500   0.389   5.416 -1.4642 -1.4119  0.2012
 8114SOL     OW36400   4.224   7.246   1.562 -0.0703 -0.1953 -0.2872
 8114SOL    HW136401   4.284   7.288   1.494  0.5543 -2.7566 -1.3486
 8114SOL    HW236402   4.245   7.283   1.653  1.6893  0.4206 -0.9318
 8115SOL     OW36403   0.284   2.347   7.807  0.1662  0.0561  0.2943
 8115SOL    HW136404   0.340   2.413   7.858  0.8015 -0.3389  0.1059
 8115SOL    HW236405   0.311   2.347   7.711  0.3934 -0.7215  0.3597
 8116SOL     OW36406   3.649   7.787   4.890 -0.6886  0.3717  0.0840
 8116SOL    HW136407   3.690   7.878   4.895  1.7487 -0.7016 -0.0967
 8116SOL    HW236408   3.720   7.718   4.879 -2.5436 -1.5395 -0.2961
 8117SOL     OW36409   5.111   8.840   0.780  0.6922  0.4255  0.0939
 8117SOL    HW136410   5.173   8.765   0.758  0.1640 -0.2129  0.7627
 8117SOL    HW236411   5.152   8.899   0.849  1.2873  1.0052 -0.7397
 8118SOL     OW36412   8.820   5.019   5.070 -0.4863  0.0079  0.5308
 8118SOL    HW136413   8.744   5.045   5.130 -0.3628  0.0612  0.6643
 8118SOL    HW236414   8.816   4.921   5.053 -0.2999 -0.0730  0.9358
 8119SOL     OW36415   4.172   6.694   2.721  0.6225 -0.4869 -0.3877
 8119SOL    HW136416   4.093   6.633   2.711  1.2640 -1.0792 -2.1707
 8119SOL    HW236417   4.156   6.777   2.667  0.3442  0.3061  0.9149
 8120SOL     OW36418   1.974   9.599  10.048  0.1904 -0.4159  0.5824
 8120SOL    HW136419   1.936   9.507  10.052 -1.0346 -0.0560 -1.5254
 8120SOL    HW236420   2.007   9.617   9.955 -1.5822  2.0132  0.3801
 8121SOL     OW36421   6.207   9.075   2.883 -0.0721 -0.5814 -0.2070
 8121SOL    HW136422   6.159   9.157   2.853  0.3585 -0.4343 -0.4937
 8121SOL    HW236423   6.305   9.084   2.865  0.1867 -0.5260  1.1761
 8122SOL     OW36424   7.022   2.495   2.237 -0.2161 -0.2840  0.2559
 8122SOL    HW136425   6.986   2.462   2.324 -0.3889 -0.9803 -0.0784
 8122SOL    HW236426   7.049   2.418   2.180 -1.1966  0.1186 -0.7697
 8123SOL     OW36427   7.223   9.462   6.158  0.0435 -0.2426  0.0051
 8123SOL    HW136428   7.143   9.416   6.121 -0.0744 -1.0570  1.2391
 8123SOL    HW236429   7.273   9.399   6.217  2.1117 -0.0219 -1.4901
 8124SOL     OW36430   8.963   3.038   1.669 -0.0429 -0.2251  0.4067
 8124SOL    HW136431   8.917   3.060   1.583 -0.5477 -2.2908  0.1175
 8124SOL    HW236432   8.932   2.948   1.701  2.8758 -1.1171  0.8531
 8125SOL     OW36433   3.544   8.997   6.546  0.2779 -0.0032 -0.1024
 8125SOL    HW136434   3.485   8.917   6.550  0.7409 -0.3634 -0.3467
 8125SOL    HW236435   3.574   9.012   6.451  2.4774 -1.2419  0.3537
 8126SOL     OW36436   3.703   5.434   2.635 -0.3246 -0.3310 -0.1822
 8126SOL    HW136437   3.767   5.431   2.711  1.2521 -0.1166 -1.4661
 8126SOL    HW236438   3.659   5.524   2.631 -0.8231 -0.5225  0.7748
 8127SOL     OW36439   6.913   2.148   4.110 -0.2542  0.3225  1.0185
 8127SOL    HW136440   6.872   2.130   4.020  0.3415 -0.6310  0.9314
 8127SOL    HW236441   6.858   2.106   4.181  0.7881 -1.3250  0.8672
 8128SOL     OW36442   3.882   8.703   8.951 -0.5018  0.3991 -0.4508
 8128SOL    HW136443   3.888   8.603   8.959  1.3031  0.7154  3.2369
 8128SOL    HW236444   3.954   8.737   8.891 -0.8449 -0.4409 -1.3585
 8129SOL     OW36445   4.237   9.518   6.953 -0.3143  0.3171 -0.0347
 8129SOL    HW136446   4.284   9.554   7.034 -0.0976 -0.5347  0.2171
 8129SOL    HW236447   4.140   9.507   6.974 -0.1158 -0.6575  0.3576
 8130SOL     OW36448   4.039   2.571   2.414  0.7310  0.2784 -0.0041
 8130SOL    HW136449   4.120   2.625   2.435 -0.1239  0.8809  1.7920
 8130SOL    HW236450   3.977   2.571   2.492 -1.4437  0.6058 -1.6767
 8131SOL     OW36451   9.863   3.277   1.923 -0.5967  0.4364  0.2986
 8131SOL    HW136452   9.786   3.326   1.965  0.7322  0.4634  2.8464
 8131SOL    HW236453   9.849   3.178   1.933  2.2538  0.3783  6.0613
 8132SOL     OW36454   5.154   8.854   8.039  0.0417  0.5562 -0.0469
 8132SOL    HW136455   5.094   8.925   8.077 -0.5083  0.0110  0.1145
 8132SOL    HW236456   5.098   8.776   8.010  0.7734 -0.4009  1.0981
 8133SOL     OW36457   0.396   1.937   2.559 -0.2961  0.1024 -0.5951
 8133SOL    HW136458   0.489   1.941   2.521  0.9000 -1.4269  2.0048
 8133SOL    HW236459   0.394   1.983   2.647 -1.9076 -0.2478 -0.4410
 8134SOL     OW36460   9.904   6.826   1.286  0.7365 -0.3361  0.8496
 8134SOL    HW136461   9.832   6.772   1.330  1.4148 -0.5459  1.7155
 8134SOL    HW236462   9.908   6.917   1.328  0.7798 -0.2210  0.5989
 8135SOL     OW36463   5.164   8.100   4.809 -0.1944  0.0323  0.2761
 8135SOL    HW136464   5.218   8.170   4.856  1.2837 -1.4962  0.8995
 8135SOL    HW236465   5.182   8.011   4.850  0.3200 -1.1938 -2.5045
 8136SOL     OW36466   1.987   2.473   8.368  0.0050 -0.7972  0.4923
 8136SOL    HW136467   1.953   2.435   8.453  1.7199 -1.3036  0.9779
 8136SOL    HW236468   2.085   2.455   8.360 -0.0961 -0.6023 -1.5053
 8137SOL     OW36469   0.158   4.117   9.793 -0.0423 -0.5481  0.3605
 8137SOL    HW136470   0.190   4.116   9.699 -1.4582 -0.9836 -0.1344
 8137SOL    HW236471   0.216   4.178   9.848  0.3804  0.2300 -0.9364
 8138SOL     OW36472   9.832   5.104   4.837 -0.4994  1.0085  0.5790
 8138SOL    HW136473   9.758   5.131   4.898 -1.6729  0.8890 -0.7794
 8138SOL    HW236474   9.919   5.139   4.872 -0.7708 -1.2093  3.7236
 8139SOL     OW36475   0.268   9.714   4.860  0.2268 -0.0298  0.6785
 8139SOL    HW136476   0.193   9.649   4.848  1.0387 -1.5686  3.4062
 8139SOL    HW236477   0.352   9.664   4.882  1.1581  1.8813  1.5969
 8140SOL     OW36478   0.121   9.004   3.893 -0.5042 -0.0463 -0.9664
 8140SOL    HW136479   0.052   8.967   3.956  1.4637  0.4942  1.6007
 8140SOL    HW236480   0.115   9.104   3.892 -0.6418 -0.0650 -1.7672
 8141SOL     OW36481   3.566   2.027   8.369 -0.0168  0.0721 -0.0368
 8141SOL    HW136482   3.543   2.101   8.305  1.6925  0.2476 -0.4941
 8141SOL    HW236483   3.648   2.053   8.420  0.5614 -1.4756 -0.1464
 8142SOL     OW36484   4.726   1.712   9.881 -0.1297  0.0637  0.0589
 8142SOL    HW136485   4.773   1.677   9.800  0.4393 -3.5436  1.8486
 8142SOL    HW236486   4.791   1.763   9.938  0.2917 -0.2555 -0.1310
 8143SOL     OW36487   3.405   7.821   7.239  0.9203  0.6407 -0.0037
 8143SOL    HW136488   3.323   7.791   7.191  1.1340  2.3928 -1.5068
 8143SOL    HW236489   3.480   7.758   7.218  0.3058 -0.2325  0.3594
 8144SOL     OW36490   4.003   3.314   1.332 -0.0651 -0.8052  0.2289
 8144SOL    HW136491   3.910   3.288   1.357  0.5828 -2.1167  1.3242
 8144SOL    HW236492   4.045   3.366   1.406  0.2572 -0.6810 -0.0383
 8145SOL     OW36493   7.861   5.171   3.694  0.2005  0.1937  0.3005
 8145SOL    HW136494   7.931   5.104   3.718 -1.0515 -0.8094  1.2124
 8145SOL    HW236495   7.792   5.128   3.636  0.9901  1.5076 -1.6876
 8146SOL     OW36496   2.051   8.239   9.449  0.5012 -0.2588  0.3698
 8146SOL    HW136497   1.984   8.310   9.425  2.9648  1.1970 -2.5509
 8146SOL    HW236498   2.019   8.151   9.415 -0.2430  0.2945 -0.3983
 8147SOL     OW36499   8.758   6.943   5.519  0.2950 -0.0607 -0.3197
 8147SOL    HW136500   8.811   6.981   5.443 -0.3227 -1.5071 -1.5045
 8147SOL    HW236501   8.661   6.942   5.494  0.0657 -0.3000  0.5931
 8148SOL     OW36502   8.722   3.287   7.242  0.1093 -0.3642  0.0165
 8148SOL    HW136503   8.723   3.329   7.151  0.5754 -2.4076 -0.9403
 8148SOL    HW236504   8.630   3.252   7.262  0.3512 -1.1634 -0.2576
 8149SOL     OW36505   2.915   5.566   5.412 -0.1946  0.1498  0.5679
 8149SOL    HW136506   2.837   5.509   5.386  0.3051  0.1488 -0.9910
 8149SOL    HW236507   2.883   5.645   5.464 -1.3423  0.6146 -0.8142
 8150SOL     OW36508   4.537   8.905   7.385  0.2891  0.2239  0.0858
 8150SOL    HW136509   4.570   8.994   7.353  0.1608  0.1220 -0.3219
 8150SOL    HW236510   4.475   8.919   7.463  0.7902  0.4541  0.4530
 8151SOL     OW36511   1.046   7.458   0.209  0.1155  0.5024 -0.5471
 8151SOL    HW136512   0.952   7.493   0.212  0.1953  0.6736  0.1140
 8151SOL    HW236513   1.056   7.385   0.277  1.0190  1.8955  0.8343
 8152SOL     OW36514   8.693   8.984   3.313  0.6413  0.3494  0.3612
 8152SOL    HW136515   8.654   9.030   3.233 -2.7726 -2.3222  0.3723
 8152SOL    HW236516   8.657   9.026   3.396 -0.7663 -0.9495  0.4037
 8153SOL     OW36517   0.781   4.267   6.050  0.5228 -0.5816  0.3720
 8153SOL    HW136518   0.837   4.334   6.001  2.4085 -2.7252 -0.4848
 8153SOL    HW236519   0.833   4.228   6.125 -1.2107  0.2266  2.0298
 8154SOL     OW36520   3.928   8.303   4.197 -0.2437 -0.4600 -0.3053
 8154SOL    HW136521   3.922   8.372   4.124  0.0065  0.6747  0.7203
 8154SOL    HW236522   4.006   8.243   4.181  0.5330  0.5430 -0.3391
 8155SOL     OW36523   0.132   2.818   5.507  0.4459  0.1525  0.5635
 8155SOL    HW136524   0.209   2.783   5.560  0.5462  0.2250  0.4674
 8155SOL    HW236525   0.074   2.742   5.477  0.3789  0.1130  0.7914
 8156SOL     OW36526   0.918   9.981   7.978  0.2112  0.5542  0.1033
 8156SOL    HW136527   0.895   9.981   7.881  2.6465  0.8144 -0.5012
 8156SOL    HW236528   0.939  10.075   8.008 -0.6982  0.5056  0.9376
 8157SOL     OW36529   8.262   6.705   4.069 -0.0010 -0.7396 -0.2100
 8157SOL    HW136530   8.303   6.614   4.061 -0.1280 -0.6668 -1.8123
 8157SOL    HW236531   8.230   6.735   3.980 -1.6679  0.0916  0.6481
 8158SOL     OW36532   0.589   0.819  10.075  0.4162 -0.2883  0.1334
 8158SOL    HW136533   0.638   0.844  10.159  0.6857 -2.3496  0.6102
 8158SOL    HW236534   0.569   0.721  10.076  0.4904 -0.3608 -2.2461
 8159SOL     OW36535   5.177   3.959   7.418  0.7571  0.1522  0.2796
 8159SOL    HW136536   5.200   4.038   7.361  0.2077 -0.1343 -0.3553
 8159SOL    HW236537   5.083   3.930   7.397 -0.8972  2.3811  4.0103
 8160SOL     OW36538   6.732   5.937   8.246 -0.2143 -0.4430  0.1605
 8160SOL    HW136539   6.705   5.963   8.339 -0.3314 -0.9691  0.2756
 8160SOL    HW236540   6.711   5.841   8.231  0.3222 -0.5045 -0.2228
 8161SOL     OW36541   8.462   6.044   8.546 -0.1965  0.3440  0.3940
 8161SOL    HW136542   8.493   6.081   8.634 -0.1483  0.8601  0.1598
 8161SOL    HW236543   8.381   5.988   8.561 -0.1566  0.3857  0.7755
 8162SOL     OW36544   3.572   2.299   2.717  0.1244 -0.6063 -0.1991
 8162SOL    HW136545   3.561   2.226   2.785 -0.6099 -0.9511 -0.6799
 8162SOL    HW236546   3.487   2.350   2.710 -0.0505 -1.0481 -1.3973
 8163SOL     OW36547   1.155   7.529   6.720 -0.2192 -0.0840 -0.4952
 8163SOL    HW136548   1.191   7.510   6.811  1.9125  0.4572 -1.2087
 8163SOL    HW236549   1.122   7.443   6.679 -1.7302 -0.2447  0.9698
 8164SOL     OW36550   8.208   8.015   5.780 -0.1657 -0.4416  0.4832
 8164SOL    HW136551   8.212   8.114   5.766 -3.2769 -0.3865 -0.4059
 8164SOL    HW236552   8.254   7.969   5.705  1.5865  0.3203  1.0642
 8165SOL     OW36553   3.879   3.275   7.448 -0.1765 -0.2261  0.1098
 8165SOL    HW136554   3.846   3.206   7.383 -1.7584 -0.6994  1.3987
 8165SOL    HW236555   3.878   3.365   7.405 -4.1295 -0.0626  0.4008
 8166SOL     OW36556   3.013   4.747   5.716  0.2674 -0.0133  0.2681
 8166SOL    HW136557   3.076   4.776   5.644  0.1602 -1.4678 -0.4184
 8166SOL    HW236558   2.927   4.718   5.675  0.1359 -0.6546  0.9950
 8167SOL     OW36559   7.088   2.848   4.045 -0.0689  0.3751 -0.0720
 8167SOL    HW136560   7.156   2.777   4.030  0.0177  0.6892 -1.1979
 8167SOL    HW236561   7.128   2.938   4.027 -0.3656  0.6706  0.6915
 8168SOL     OW36562   4.741   7.265   0.810 -0.1570  0.5872  0.5735
 8168SOL    HW136563   4.669   7.335   0.813  0.2247  0.9576  1.0089
 8168SOL    HW236564   4.818   7.293   0.866 -0.6829 -0.9581  2.1145
 8169SOL     OW36565   8.940   8.332   1.217 -0.0868  0.3589 -0.0439
 8169SOL    HW136566   8.956   8.428   1.238  1.4703  0.4423 -1.5690
 8169SOL    HW236567   8.850   8.305   1.253 -0.7358  2.4857  0.0007
 8170SOL     OW36568   9.299   6.322   6.285 -0.9348  0.4959  0.4370
 8170SOL    HW136569   9.351   6.399   6.322  0.9436 -0.9445  0.8635
 8170SOL    HW236570   9.273   6.261   6.359 -0.3381 -0.4952 -0.1546
 8171SOL     OW36571   4.399   9.790   6.511  0.2387 -0.1245 -0.1924
 8171SOL    HW136572   4.415   9.746   6.600 -0.4784 -0.0617 -0.0270
 8171SOL    HW236573   4.301   9.807   6.500  0.3337 -0.0732 -0.9712
 8172SOL     OW36574   0.430   3.025   3.252  0.0657  1.1005  0.0095
 8172SOL    HW136575   0.440   3.099   3.317  0.2813  2.0322 -1.0731
 8172SOL    HW236576   0.374   3.055   3.175  0.6669  0.3443 -0.7420
 8173SOL     OW36577   4.015   0.933   3.396 -0.1105  0.6475  0.7175
 8173SOL    HW136578   4.106   0.970   3.414  0.5254 -0.0021 -1.0535
 8173SOL    HW236579   3.947   0.988   3.443  1.2200  0.9565  2.3152
 8174SOL     OW36580   8.344   1.785   9.755 -0.1105 -0.7913 -0.4723
 8174SOL    HW136581   8.265   1.840   9.729  0.1924  0.0962  0.4766
 8174SOL    HW236582   8.394   1.758   9.673 -0.4916 -0.0135 -0.9631
 8175SOL     OW36583   2.095   9.712   9.319 -0.0903  0.2608 -0.2666
 8175SOL    HW136584   2.042   9.729   9.402  0.2631  2.5988 -0.4920
 8175SOL    HW236585   2.089   9.615   9.295  0.2600 -0.5648  2.7756
 8176SOL     OW36586   6.289   1.689   2.709 -0.0880 -0.3301  0.1949
 8176SOL    HW136587   6.246   1.726   2.791  0.7504 -0.0343  0.5086
 8176SOL    HW236588   6.336   1.604   2.731 -0.1650 -0.4387 -0.0558
 8177SOL     OW36589   3.275   8.385   6.069 -0.3469  0.2767  0.0731
 8177SOL    HW136590   3.284   8.379   5.970 -1.2969  0.3992 -0.0285
 8177SOL    HW236591   3.343   8.326   6.113 -0.6654 -0.6609 -0.6759
 8178SOL     OW36592   9.646   1.858   2.975 -0.8621 -0.6564 -0.6831
 8178SOL    HW136593   9.580   1.896   3.041  0.4122  1.1192 -0.4015
 8178SOL    HW236594   9.599   1.793   2.915 -2.6106 -0.3374  0.2985
 8179SOL     OW36595   2.682   9.649   6.359  0.3253 -0.4397 -0.3464
 8179SOL    HW136596   2.656   9.688   6.447 -0.8701  2.6646 -2.0206
 8179SOL    HW236597   2.709   9.553   6.372  1.4045  0.2924  3.5638
 8180SOL     OW36598   2.903   8.092   4.536  0.6271 -0.7411 -0.2088
 8180SOL    HW136599   2.898   8.116   4.439  0.4809 -1.9703 -0.5163
 8180SOL    HW236600   2.842   8.151   4.588 -0.6468 -1.2340 -1.1149
 8181SOL     OW36601   0.499   9.267   0.803 -0.0853 -0.3823  0.2442
 8181SOL    HW136602   0.461   9.336   0.865 -1.3855 -0.2217 -0.6931
 8181SOL    HW236603   0.542   9.312   0.725  0.9459 -0.5964  0.6869
 8182SOL     OW36604   4.110   8.615   0.759 -0.5302 -0.1295  0.1571
 8182SOL    HW136605   4.092   8.536   0.701 -1.1263  0.8316 -0.9710
 8182SOL    HW236606   4.201   8.651   0.739 -0.1970 -0.6111  0.7791
 8183SOL     OW36607   9.831   3.694   6.878 -0.2615  0.4718 -0.0228
 8183SOL    HW136608   9.836   3.679   6.780  0.7330 -0.4461  0.1541
 8183SOL    HW236609   9.920   3.727   6.911 -0.1964 -0.4823  0.7639
 8184SOL     OW36610   9.510   4.795   4.762 -0.3220 -0.0362  0.4625
 8184SOL    HW136611   9.505   4.710   4.710 -1.1264  0.2326  0.0905
 8184SOL    HW236612   9.560   4.779   4.847  1.6668 -0.3025 -0.7199
 8185SOL     OW36613   2.313   6.343   4.539 -0.0075  0.1289  0.1626
 8185SOL    HW136614   2.365   6.340   4.624 -0.6318  0.1891  0.5494
 8185SOL    HW236615   2.341   6.422   4.485  1.9181 -1.0764 -0.6805
 8186SOL     OW36616   9.541   5.223   8.109  0.8690 -0.1974  0.0712
 8186SOL    HW136617   9.497   5.293   8.165  2.6426 -0.0196  1.2902
 8186SOL    HW236618   9.482   5.143   8.103 -1.8631  1.9041 -2.6035
 8187SOL     OW36619   2.464   1.047   1.124 -0.1964  0.1929  0.1669
 8187SOL    HW136620   2.436   0.961   1.082 -3.8118  1.2973  0.1381
 8187SOL    HW236621   2.394   1.076   1.189  0.6195  3.4669 -0.3301
 8188SOL     OW36622   1.003   0.551   6.632  0.0148 -0.1910 -0.1852
 8188SOL    HW136623   0.957   0.506   6.709  1.1106  0.5876  0.9470
 8188SOL    HW236624   0.974   0.647   6.628 -1.7662 -0.7731 -2.1501
 8189SOL     OW36625   7.039   8.765   3.111  0.2504  0.0318  0.1941
 8189SOL    HW136626   6.970   8.742   3.043  1.6106  0.0538 -1.2415
 8189SOL    HW236627   7.070   8.859   3.096  0.9584 -0.1482  0.5014
 8190SOL     OW36628   4.855   4.551   7.872  0.0111 -0.2295 -0.3572
 8190SOL    HW136629   4.947   4.533   7.836 -0.6949 -3.1522 -0.8015
 8190SOL    HW236630   4.819   4.634   7.829  1.3393 -0.5946 -2.2710
 8191SOL     OW36631   4.752   0.971   4.126 -0.0236  0.1648  0.1122
 8191SOL    HW136632   4.829   1.024   4.162  1.4571 -1.9005  0.0818
 8191SOL    HW236633   4.679   0.967   4.195  0.9359  0.0115  1.1377
 8192SOL     OW36634   8.526   1.801   6.309 -0.3690 -0.2407 -0.1156
 8192SOL    HW136635   8.595   1.733   6.283 -0.4752 -0.0301 -0.9543
 8192SOL    HW236636   8.514   1.866   6.234  1.7100  2.3495  1.7046
 8193SOL     OW36637   0.838   0.310   7.450 -0.2033 -0.7005 -0.5743
 8193SOL    HW136638   0.917   0.367   7.473  1.5940 -3.7608  1.1319
 8193SOL    HW236639   0.763   0.368   7.419  1.1966  2.6740  2.0688
 8194SOL     OW36640   6.274   1.202   5.893  0.6757  0.3890 -0.1531
 8194SOL    HW136641   6.263   1.281   5.953  1.9078 -0.3126  1.0354
 8194SOL    HW236642   6.196   1.141   5.904  0.5960  0.5633  0.2774
 8195SOL     OW36643   1.634   6.195   3.109  0.1725  0.0485  0.2781
 8195SOL    HW136644   1.643   6.123   3.040 -1.7822 -1.4947  1.5697
 8195SOL    HW236645   1.677   6.279   3.076  0.1263 -0.9376 -2.3779
 8196SOL     OW36646   1.000   7.110   3.091  0.8417  0.0720 -0.1935
 8196SOL    HW136647   0.991   7.156   3.180  0.3833  0.0624 -0.2346
 8196SOL    HW236648   1.097   7.097   3.070  0.9407 -0.9032  0.8165
 8197SOL     OW36649   7.693   8.193   2.902 -0.0163 -0.4926  0.5802
 8197SOL    HW136650   7.751   8.159   2.828  0.0566  0.5753  0.1379
 8197SOL    HW236651   7.713   8.289   2.918 -2.1591  0.0883 -0.0662
 8198SOL     OW36652   7.595   5.958   8.230 -0.4297 -0.3752  0.1444
 8198SOL    HW136653   7.572   5.871   8.275  0.2376 -1.0588 -0.8103
 8198SOL    HW236654   7.565   5.954   8.135  0.9456 -0.1363 -0.3023
 8199SOL     OW36655   5.837   0.045   4.241 -0.1646  0.8726  0.1663
 8199SOL    HW136656   5.866   0.132   4.201  1.2775  0.9329  1.2941
 8199SOL    HW236657   5.815  -0.019   4.168  2.2870  1.0174 -0.7492
 8200SOL     OW36658   7.142   4.499   1.950  0.2050  0.0346  0.5714
 8200SOL    HW136659   7.046   4.483   1.924  0.1455  1.2376  0.0199
 8200SOL    HW236660   7.199   4.426   1.911 -0.4677 -0.6265  0.8070
 8201SOL     OW36661   5.219   5.709   9.155 -0.4183 -0.1673  0.2628
 8201SOL    HW136662   5.124   5.678   9.153 -0.7410  0.8408 -2.4244
 8201SOL    HW236663   5.223   5.808   9.138  1.0829 -0.1597  0.5611
 8202SOL     OW36664   3.551   5.604   0.133  0.0523 -0.2115  0.2742
 8202SOL    HW136665   3.592   5.621   0.223  0.4376  2.4848 -0.3444
 8202SOL    HW236666   3.621   5.616   0.062 -0.4075 -1.6346 -0.4265
 8203SOL     OW36667   9.358   5.593   5.202 -0.3127  0.2985 -0.0428
 8203SOL    HW136668   9.264   5.613   5.176 -0.0245 -0.8340 -2.0935
 8203SOL    HW236669   9.421   5.647   5.146  0.2662  0.6789  0.9597
 8204SOL     OW36670   5.121   9.885   8.213 -0.0390  0.5332  0.7724
 8204SOL    HW136671   5.138   9.787   8.209  0.0153  0.6042 -1.5936
 8204SOL    HW236672   5.030   9.902   8.250 -0.2843 -0.4312  0.6107
 8205SOL     OW36673   0.053   7.637   0.363  0.0289  0.0177 -0.4553
 8205SOL    HW136674   0.068   7.544   0.329 -1.2900 -0.0400 -0.9334
 8205SOL    HW236675   0.084   7.643   0.458 -0.9001 -1.2430 -0.0461
 8206SOL     OW36676   7.630   0.439   9.557 -0.3262 -0.2491  0.0116
 8206SOL    HW136677   7.553   0.476   9.506  0.0017 -0.3276 -0.5354
 8206SOL    HW236678   7.653   0.347   9.524  0.5074  0.0868 -0.3652
 8207SOL     OW36679   0.560   7.051   7.671  0.2648  0.2007  0.1320
 8207SOL    HW136680   0.582   7.142   7.635  0.5985  1.2451  2.8243
 8207SOL    HW236681   0.461   7.040   7.676  0.1721 -0.6568 -2.6836
 8208SOL     OW36682   8.494   5.862   4.380  0.0368  0.1074  0.3525
 8208SOL    HW136683   8.447   5.799   4.442  0.8885  0.2039  1.1132
 8208SOL    HW236684   8.493   5.954   4.420  0.7522  0.1319  0.3195
 8209SOL     OW36685   9.523   7.226   1.997  0.3194  0.4361  0.5656
 8209SOL    HW136686   9.445   7.240   1.936  0.8768 -0.7760 -0.4506
 8209SOL    HW236687   9.604   7.204   1.943  1.8504  3.5401  1.4634
 8210SOL     OW36688   4.378   6.502  10.012 -0.0673  0.8728  0.0494
 8210SOL    HW136689   4.359   6.463  10.102  0.2811  2.2589  0.7453
 8210SOL    HW236690   4.296   6.498   9.956 -0.9494  2.0057  1.2133
 8211SOL     OW36691   4.708   0.529   0.346  0.7577  0.2087 -0.5551
 8211SOL    HW136692   4.661   0.449   0.308  2.0607  0.3044 -2.3838
 8211SOL    HW236693   4.642   0.602   0.361 -0.1655 -0.6434 -0.3932
 8212SOL     OW36694   4.848   4.035   6.487 -0.4385 -0.0584  0.4580
 8212SOL    HW136695   4.774   4.065   6.547 -1.1985 -3.7492  1.4925
 8212SOL    HW236696   4.936   4.063   6.524 -1.1458  1.7280  0.8101
 8213SOL     OW36697   1.374   2.252   8.732  0.0495 -0.1310 -0.2814
 8213SOL    HW136698   1.282   2.288   8.748  0.2199 -0.2658  1.0830
 8213SOL    HW236699   1.368   2.154   8.714 -0.4910  0.6593 -4.8091
 8214SOL     OW36700   9.166   4.421   0.640  0.4689  0.9999  0.3021
 8214SOL    HW136701   9.078   4.452   0.605  1.0658  1.9363 -0.3811
 8214SOL    HW236702   9.155   4.331   0.682 -0.7661  1.0144  0.0304
 8215SOL     OW36703   2.936   2.537   3.958 -0.0968 -0.0248  0.6857
 8215SOL    HW136704   2.859   2.498   3.907 -0.7552  0.6057  1.1946
 8215SOL    HW236705   2.928   2.513   4.055 -0.8447  1.8733  1.1115
 8216SOL     OW36706   8.575   4.138   6.011  0.1389  0.0814  0.3659
 8216SOL    HW136707   8.563   4.040   6.024 -0.2626  0.2281  1.1677
 8216SOL    HW236708   8.511   4.170   5.941  0.6046 -0.3086 -0.2418
 8217SOL     OW36709   2.457   6.705   2.855 -0.2267  0.0833 -0.2417
 8217SOL    HW136710   2.482   6.690   2.759 -0.5177 -0.3269 -0.2530
 8217SOL    HW236711   2.406   6.790   2.863 -1.2234 -0.4706 -0.6278
 8218SOL     OW36712   0.737   2.554   8.048  0.9386  0.0687 -0.1663
 8218SOL    HW136713   0.744   2.581   8.144  1.4059  0.1469 -0.2189
 8218SOL    HW236714   0.785   2.621   7.991  1.5442 -0.5141 -0.3600
 8219SOL     OW36715   5.286   2.780   9.035 -0.5341  0.1429 -0.1272
 8219SOL    HW136716   5.372   2.829   9.022 -0.9599  0.8829 -0.1355
 8219SOL    HW236717   5.220   2.840   9.080 -1.2665 -0.2075 -0.7422
 8220SOL     OW36718   7.595   0.871   6.229  0.5889  0.1160 -0.2267
 8220SOL    HW136719   7.648   0.884   6.313  0.1084  1.5414 -0.1322
 8220SOL    HW236720   7.657   0.867   6.151  1.1559 -2.6590  0.3117
 8221SOL     OW36721   9.948   5.089   3.088  0.1124 -0.5514  0.3348
 8221SOL    HW136722  10.023   5.154   3.091 -0.8086  0.5944 -0.6007
 8221SOL    HW236723   9.899   5.099   3.001 -1.3493 -1.0063  1.0817
 8222SOL     OW36724   6.647   0.330   4.627 -0.2281  0.2259  0.0874
 8222SOL    HW136725   6.635   0.356   4.723  1.7311 -0.5339  0.5596
 8222SOL    HW236726   6.572   0.269   4.599 -0.7822  0.4199  1.1286
 8223SOL     OW36727   8.314   1.584   1.464  0.4817  0.1338  0.4707
 8223SOL    HW136728   8.256   1.662   1.439  0.1490 -0.2603  0.0285
 8223SOL    HW236729   8.386   1.572   1.396  1.2287  0.7566  1.1288
 8224SOL     OW36730   9.445   6.044   5.264 -0.3145 -0.3023 -0.4794
 8224SOL    HW136731   9.435   5.953   5.224  0.1908 -0.6321  0.1364
 8224SOL    HW236732   9.542   6.064   5.278 -0.5557 -1.0053  2.4001
 8225SOL     OW36733   1.283   6.827   6.617 -0.1973 -0.1260  0.0575
 8225SOL    HW136734   1.291   6.768   6.697  0.2472 -0.2756 -0.0963
 8225SOL    HW236735   1.280   6.922   6.646 -0.8543 -0.2194  0.3023
 8226SOL     OW36736   7.161   9.959   2.105  0.0018 -0.1662 -0.0619
 8226SOL    HW136737   7.131   9.952   2.010 -0.0827 -0.3592 -0.0220
 8226SOL    HW236738   7.189   9.869   2.138 -1.0707 -0.3215  0.4527
 8227SOL     OW36739   4.283   1.393   4.509  0.3032 -0.1572 -0.5680
 8227SOL    HW136740   4.317   1.332   4.581  1.3597  0.2073 -0.7542
 8227SOL    HW236741   4.184   1.406   4.521 -0.0073 -2.1733 -0.7237
 8228SOL     OW36742   1.521   5.503   3.456 -0.2187  0.2387  0.4639
 8228SOL    HW136743   1.429   5.529   3.486 -0.5155  0.8483 -0.9751
 8228SOL    HW236744   1.568   5.582   3.418  1.1765  0.0911  1.8115
 8229SOL     OW36745   7.599   7.709   2.034 -0.1599  0.4517  0.3578
 8229SOL    HW136746   7.527   7.678   2.096 -0.2654 -0.8598 -0.3986
 8229SOL    HW236747   7.676   7.746   2.087 -0.3287 -0.4803  1.2535
 8230SOL     OW36748   0.239   7.357   2.338  0.2503  0.3798 -0.2836
 8230SOL    HW136749   0.217   7.347   2.435  0.7095  0.6640 -0.1483
 8230SOL    HW236750   0.267   7.268   2.301 -0.3651  0.1773 -0.2673
 8231SOL     OW36751   0.006   7.829   2.004  0.9943  0.5610  0.7445
 8231SOL    HW136752  -0.073   7.777   2.038 -0.8190  0.9248 -2.6281
 8231SOL    HW236753   0.062   7.769   1.946  2.5240  0.6597  2.0875
 8232SOL     OW36754   4.392   5.591   7.609  0.8910  0.5189  0.1607
 8232SOL    HW136755   4.421   5.541   7.528 -0.3118 -0.1163  0.1079
 8232SOL    HW236756   4.471   5.608   7.668  1.5337 -0.2778 -0.4604
 8233SOL     OW36757   7.649   4.214   4.205 -0.6335 -0.0486  0.2783
 8233SOL    HW136758   7.621   4.265   4.124  0.9779 -1.7680 -1.4037
 8233SOL    HW236759   7.582   4.142   4.224  0.3281 -1.3356 -1.1221
 8234SOL     OW36760   7.799   0.129   6.646  0.1615  0.1398 -0.2234
 8234SOL    HW136761   7.898   0.136   6.659  0.2014  1.5331 -1.1608
 8234SOL    HW236762   7.770   0.197   6.578 -1.8795  2.0094  2.4301
 8235SOL     OW36763   3.183   2.522   3.788 -0.1284 -0.1929 -0.0562
 8235SOL    HW136764   3.091   2.506   3.826 -0.0381  0.7271  0.5591
 8235SOL    HW236765   3.192   2.617   3.761  0.1295 -0.6339 -1.5768
 8236SOL     OW36766   2.059   3.879   9.840  0.6470 -0.1276  0.0072
 8236SOL    HW136767   2.125   3.920   9.776  0.6984 -2.6982 -1.6694
 8236SOL    HW236768   2.107   3.849   9.923  1.4861 -1.2122 -0.8488
 8237SOL     OW36769   6.795   4.238   2.447  0.0956  0.3186  0.7286
 8237SOL    HW136770   6.826   4.249   2.353 -1.3061  1.9473  0.4363
 8237SOL    HW236771   6.841   4.304   2.506 -1.2492  1.3624  0.6412
 8238SOL     OW36772   4.375   4.245   8.897  0.5037 -0.6818  0.6411
 8238SOL    HW136773   4.469   4.233   8.929  0.4802 -2.1432  0.2075
 8238SOL    HW236774   4.338   4.331   8.933  2.8097  1.1233 -1.1758
 8239SOL     OW36775   3.819   4.665   5.402  0.0608 -0.1562 -0.0750
 8239SOL    HW136776   3.753   4.734   5.373  0.6862  0.2856 -0.4665
 8239SOL    HW236777   3.781   4.612   5.478 -0.1625  1.0775  0.6878
 8240SOL     OW36778   6.545   0.233   4.087  0.0915  0.2339 -0.3208
 8240SOL    HW136779   6.642   0.238   4.063  0.2043  1.0434  0.2523
 8240SOL    HW236780   6.509   0.326   4.094 -0.5167 -0.0487  0.2888
 8241SOL     OW36781   3.801   5.387   8.452  0.1800 -0.1963 -0.0717
 8241SOL    HW136782   3.706   5.408   8.476  0.1786 -1.8467  1.4635
 8241SOL    HW236783   3.803   5.321   8.377  0.0549 -2.0613  1.5301
 8242SOL     OW36784   5.290   1.199   4.205 -0.2621  0.1694  0.0203
 8242SOL    HW136785   5.256   1.109   4.231 -0.5709  0.5019  0.7667
 8242SOL    HW236786   5.268   1.265   4.276 -0.9384  1.0444 -0.9791
 8243SOL     OW36787   4.977   4.729   9.060  0.4805 -0.1556 -0.2651
 8243SOL    HW136788   5.020   4.639   9.052  0.7896 -0.2760  2.2558
 8243SOL    HW236789   5.044   4.799   9.034  1.2405 -0.5064  0.7007
 8244SOL     OW36790   4.510   0.257   4.176 -0.0456  0.3010  0.4171
 8244SOL    HW136791   4.490   0.173   4.225 -1.6851 -0.0177 -0.7477
 8244SOL    HW236792   4.425   0.297   4.142  0.8440  1.6931 -0.2300
 8245SOL     OW36793   7.435   9.256   5.584 -0.5496  0.1612 -0.6890
 8245SOL    HW136794   7.387   9.192   5.644  0.7346 -0.7689 -0.6172
 8245SOL    HW236795   7.384   9.341   5.577 -1.9036 -0.6000 -0.1693
 8246SOL     OW36796   2.106   8.917   7.273 -0.0900 -0.1521 -0.6974
 8246SOL    HW136797   2.160   8.996   7.244 -1.6673  0.5581 -1.7341
 8246SOL    HW236798   2.102   8.914   7.373  0.5571  0.6798 -0.6426
 8247SOL     OW36799   4.239   5.184   0.618 -0.0835 -0.4299 -0.1964
 8247SOL    HW136800   4.312   5.204   0.553 -0.4310  1.4671 -0.0175
 8247SOL    HW236801   4.183   5.266   0.632 -1.5945 -1.5569  0.4897
 8248SOL     OW36802   4.783   9.516   1.250 -0.2221 -0.0597 -0.5231
 8248SOL    HW136803   4.752   9.466   1.330 -0.1329 -0.5402 -0.7885
 8248SOL    HW236804   4.874   9.484   1.224  0.5637  1.4162  0.3271
 8249SOL     OW36805   0.754   3.179   0.922 -0.0957  0.0742 -0.3111
 8249SOL    HW136806   0.753   3.107   0.853  0.8699  0.2222 -0.4896
 8249SOL    HW236807   0.678   3.242   0.906  0.7317  0.7171 -1.9158
 8250SOL     OW36808   0.429   8.017   3.831  0.1588  0.0830 -0.0719
 8250SOL    HW136809   0.345   8.028   3.778 -0.9261 -0.4846  1.4828
 8250SOL    HW236810   0.482   8.102   3.828  0.3318 -0.0857 -2.3853
 8251SOL     OW36811   7.737   9.932   3.154 -0.3352  0.3483  0.2999
 8251SOL    HW136812   7.761   9.900   3.062 -0.7555  0.1696  0.2513
 8251SOL    HW236813   7.820   9.955   3.204 -0.0782  0.0209  0.0251
 8252SOL     OW36814   8.400   2.448   9.236  0.2397 -0.0517 -0.2021
 8252SOL    HW136815   8.355   2.466   9.324  0.8182 -0.5815  0.2157
 8252SOL    HW236816   8.454   2.364   9.244  1.2397  0.5373 -0.7151
 8253SOL     OW36817   9.932   9.742   9.045  0.1983 -0.3577 -0.2452
 8253SOL    HW136818   9.964   9.676   8.977 -0.9494  0.5602 -1.7166
 8253SOL    HW236819   9.849   9.707   9.088 -0.6310  0.2899 -1.3073
 8254SOL     OW36820   6.790   1.624   5.179  0.0399 -0.1958  0.2515
 8254SOL    HW136821   6.723   1.550   5.187  0.0234 -0.2235 -0.1107
 8254SOL    HW236822   6.810   1.640   5.082 -0.6512  0.8948  0.2737
 8255SOL     OW36823   3.684   7.048   8.583  0.3210  1.0593 -0.1678
 8255SOL    HW136824   3.626   7.084   8.510 -1.1707  0.6214  0.7969
 8255SOL    HW236825   3.663   7.094   8.669  0.4942 -0.0193  0.4608
 8256SOL     OW36826   8.871   7.289   5.148  0.6091  0.0564 -0.0892
 8256SOL    HW136827   8.833   7.368   5.195 -0.6974 -0.5054 -0.1693
 8256SOL    HW236828   8.807   7.212   5.155  0.2772  0.0311 -2.9839
 8257SOL     OW36829   6.384   1.878   8.525  0.0226  0.4336 -0.1308
 8257SOL    HW136830   6.432   1.958   8.563 -0.7614  1.3361 -1.0161
 8257SOL    HW236831   6.433   1.845   8.445 -1.1980  1.8089 -1.4754
 8258SOL     OW36832   5.379   9.203   6.108 -0.7256  0.6266  0.1380
 8258SOL    HW136833   5.400   9.242   6.019 -0.4942  0.2784  0.0411
 8258SOL    HW236834   5.399   9.270   6.179  2.0456 -0.1701  0.1537
 8259SOL     OW36835   7.029   9.970   6.186 -0.5715  0.1719  0.2287
 8259SOL    HW136836   6.997   9.942   6.276  1.5792 -0.2492  0.8800
 8259SOL    HW236837   7.113   9.922   6.163 -0.7949  0.6757 -1.7860
 8260SOL     OW36838   9.069   8.477   9.914  0.6448 -0.2301  0.4869
 8260SOL    HW136839   9.161   8.510   9.891  0.4162 -0.6550 -1.1028
 8260SOL    HW236840   9.012   8.555   9.941  0.8284  0.3563 -0.7596
 8261SOL     OW36841   8.367   9.385   7.836  0.1270  0.1552  0.1735
 8261SOL    HW136842   8.293   9.453   7.835  0.4576  0.5186  0.0111
 8261SOL    HW236843   8.383   9.354   7.929  0.9337  1.3691  0.4530
 8262SOL     OW36844   8.265   7.200   3.799 -0.0010  0.5231 -0.0974
 8262SOL    HW136845   8.315   7.206   3.712 -2.0127 -0.1844 -1.3358
 8262SOL    HW236846   8.219   7.287   3.816  0.1932  0.5803  0.1262
 8263SOL     OW36847   3.139   7.945   2.522  0.2703  0.2227  0.2924
 8263SOL    HW136848   3.142   8.041   2.494  0.8686  0.2186  0.3488
 8263SOL    HW236849   3.192   7.890   2.458  1.1848  0.1357  1.1215
 8264SOL     OW36850   7.519   6.110   2.309 -0.1459 -0.8570  0.0550
 8264SOL    HW136851   7.566   6.022   2.319 -0.7841 -0.9939  2.0530
 8264SOL    HW236852   7.533   6.145   2.216  1.2794 -2.3859 -0.3258
 8265SOL     OW36853   9.753   2.613   8.578  0.0975 -0.1661  0.2466
 8265SOL    HW136854   9.671   2.567   8.614  0.3679 -0.2055  0.8228
 8265SOL    HW236855   9.816   2.544   8.541  1.0646 -0.4165  2.2482
 8266SOL     OW36856   0.462   5.779   1.645  0.3299  0.2279  0.7143
 8266SOL    HW136857   0.378   5.804   1.598  0.2840 -0.3259  0.5004
 8266SOL    HW236858   0.503   5.861   1.687  0.2936  0.6915 -0.1483
 8267SOL     OW36859   5.258   4.110   0.847  0.4450 -0.0255 -0.2113
 8267SOL    HW136860   5.306   4.084   0.931  1.6528  0.1735 -0.8333
 8267SOL    HW236861   5.301   4.065   0.769 -1.1021 -0.7606 -0.6629
 8268SOL     OW36862   6.610   0.510   7.806 -0.2866  0.1320  0.0136
 8268SOL    HW136863   6.577   0.425   7.765 -0.3543  0.4486 -0.5938
 8268SOL    HW236864   6.707   0.521   7.784  0.4679 -1.2182  2.4903
 8269SOL     OW36865   7.053   5.120   3.388 -0.2979 -0.1036 -0.1545
 8269SOL    HW136866   6.980   5.054   3.372 -0.0038 -0.8716  1.5380
 8269SOL    HW236867   7.121   5.080   3.450  1.4147  0.7083 -1.4758
 8270SOL     OW36868   5.215   0.621   9.837  0.0990 -0.0062 -0.1387
 8270SOL    HW136869   5.186   0.564   9.760  2.2840 -1.6260  0.1869
 8270SOL    HW236870   5.139   0.633   9.900 -0.9760 -0.8610 -1.2540
 8271SOL     OW36871   0.459   7.101   9.074  0.1571  0.2758 -0.1995
 8271SOL    HW136872   0.524   7.031   9.044  1.9324  1.0635  1.6531
 8271SOL    HW236873   0.415   7.142   8.994  2.5080  0.2361 -1.5650
 8272SOL     OW36874   4.071   8.501   8.819  0.4920 -0.2153 -0.3253
 8272SOL    HW136875   4.107   8.594   8.817 -2.7106  1.1341  0.7867
 8272SOL    HW236876   4.080   8.463   8.911 -0.9611  0.2086  0.0183
 8273SOL     OW36877   7.715   4.217   1.428 -0.6037 -0.2400  0.0840
 8273SOL    HW136878   7.634   4.257   1.386 -1.0510  0.3446  1.5136
 8273SOL    HW236879   7.711   4.227   1.527  0.7194 -1.1340  0.2440
 8274SOL     OW36880   4.949   7.246   1.157 -0.1715  0.1078  0.2619
 8274SOL    HW136881   5.015   7.187   1.112 -1.0584 -0.1956 -0.6687
 8274SOL    HW236882   4.857   7.221   1.129 -0.6295  1.2125  0.7147
 8275SOL     OW36883   8.891   8.695   7.735 -0.3763  0.1302  0.4152
 8275SOL    HW136884   8.991   8.703   7.740 -0.4244  0.0330  1.9162
 8275SOL    HW236885   8.850   8.733   7.818 -1.6187  0.5419 -0.3711
 8276SOL     OW36886   5.524   0.537   2.254  0.3358  0.2890  0.2237
 8276SOL    HW136887   5.486   0.557   2.345  2.9694  0.3867  1.3470
 8276SOL    HW236888   5.532   0.438   2.243 -0.1684  0.2711  0.0226
 8277SOL     OW36889   5.186   5.813   2.563 -0.3540 -0.0999  0.2955
 8277SOL    HW136890   5.273   5.862   2.558 -1.1122  1.2530  0.2933
 8277SOL    HW236891   5.148   5.822   2.655 -0.0228 -1.5404  0.5954
 8278SOL     OW36892   0.714   0.320   4.077  0.4362 -0.1809  0.3814
 8278SOL    HW136893   0.759   0.316   4.167 -0.3472  1.6788  0.8603
 8278SOL    HW236894   0.768   0.377   4.016  0.5548 -0.8191 -0.1203
 8279SOL     OW36895   7.249   6.756   7.460  0.3642  0.3486  0.4628
 8279SOL    HW136896   7.295   6.769   7.547  0.5791 -0.3667  0.4642
 8279SOL    HW236897   7.201   6.839   7.434  0.5820  0.6720  1.0974
 8280SOL     OW36898   3.899   5.530   3.703 -0.0554 -0.0281  0.0503
 8280SOL    HW136899   3.963   5.454   3.709  0.6809  0.4742 -1.2422
 8280SOL    HW236900   3.949   5.616   3.708 -0.7609  0.3740  0.2657
 8281SOL     OW36901   8.192   6.675   7.863  0.8485  0.2399  0.5691
 8281SOL    HW136902   8.252   6.744   7.824  0.0816  0.0685 -0.9524
 8281SOL    HW236903   8.208   6.587   7.817 -0.5569  0.1968  0.1511
 8282SOL     OW36904   1.716   0.613   6.537  0.3515 -0.5753 -0.3053
 8282SOL    HW136905   1.783   0.546   6.505 -1.2362 -1.4168 -1.9691
 8282SOL    HW236906   1.715   0.613   6.637  1.6869 -1.6838 -0.2651
 8283SOL     OW36907   8.626   1.103   5.519 -0.6323 -0.1633  0.8164
 8283SOL    HW136908   8.546   1.050   5.488 -1.4146  0.7515  1.2393
 8283SOL    HW236909   8.707   1.071   5.471 -1.8696  1.4093 -2.4912
 8284SOL     OW36910   8.071   0.729   1.502 -0.8009  0.3099 -0.0592
 8284SOL    HW136911   8.109   0.637   1.492 -2.1370 -0.2834  0.1924
 8284SOL    HW236912   8.123   0.793   1.446 -0.0305 -0.6468 -0.4529
 8285SOL     OW36913   8.874   2.527   0.459 -0.3217 -0.0745 -0.0630
 8285SOL    HW136914   8.927   2.603   0.422  0.1922  0.4452  1.6931
 8285SOL    HW236915   8.786   2.561   0.492 -0.9266 -0.5932 -1.1186
 8286SOL     OW36916   2.062   5.970   9.579 -0.0353 -0.2134 -0.0277
 8286SOL    HW136917   2.123   5.912   9.633 -0.2067 -0.6577 -0.3025
 8286SOL    HW236918   2.107   6.057   9.559 -0.0814  0.0736  1.0737
 8287SOL     OW36919   7.062   4.019   1.312 -0.0295 -0.4582 -0.5014
 8287SOL    HW136920   7.066   4.113   1.280  1.0731 -1.0374 -2.1339
 8287SOL    HW236921   6.988   4.009   1.378 -1.6293  1.0409 -2.0282
 8288SOL     OW36922   8.945   4.627   8.706  0.2899 -0.1257 -0.2672
 8288SOL    HW136923   8.949   4.725   8.726 -1.7758 -0.4226  1.7277
 8288SOL    HW236924   8.880   4.611   8.631  1.5534  0.1224 -1.4389
 8289SOL     OW36925   4.860   9.362   4.535 -0.1638 -0.3230  0.1188
 8289SOL    HW136926   4.931   9.368   4.606  0.9173 -1.6511 -0.8039
 8289SOL    HW236927   4.855   9.449   4.486  1.1269 -0.3300 -0.0558
 8290SOL     OW36928   5.916   3.585   1.800  0.0961  0.4480  0.0869
 8290SOL    HW136929   5.980   3.641   1.853  0.1972  0.2746  0.1479
 8290SOL    HW236930   5.966   3.534   1.731  0.1844 -0.6587  0.9639
 8291SOL     OW36931   0.116   5.147   2.699  0.4996 -0.8414 -0.7108
 8291SOL    HW136932   0.120   5.055   2.661  1.4195 -0.5295 -1.3667
 8291SOL    HW236933   0.208   5.187   2.700  0.1114  0.0535 -0.3924
 8292SOL     OW36934   3.969   9.143   2.625  0.0694  0.2411 -0.1767
 8292SOL    HW136935   4.059   9.137   2.670  0.1685 -1.5441 -0.5738
 8292SOL    HW236936   3.899   9.160   2.694  0.7475  2.0014  0.0958
 8293SOL     OW36937   2.178   0.900   4.340 -0.0824 -0.5817 -0.1845
 8293SOL    HW136938   2.090   0.929   4.303  0.6596  2.3989  0.2755
 8293SOL    HW236939   2.179   0.914   4.439  0.7987 -0.8565 -0.1532
 8294SOL     OW36940   2.353   6.251   8.727 -0.0861  0.6720 -0.5704
 8294SOL    HW136941   2.434   6.200   8.758 -0.0744  0.5005 -0.8871
 8294SOL    HW236942   2.271   6.197   8.746 -0.0250  0.2328 -1.5392
 8295SOL     OW36943   8.017   2.688   8.935  0.3705  0.0295  0.1675
 8295SOL    HW136944   7.967   2.621   8.880  1.6105 -0.5215 -0.3041
 8295SOL    HW236945   8.078   2.741   8.877 -1.0257  2.0081  0.4477
 8296SOL     OW36946   1.345   6.294   1.704  0.1200 -0.0666  0.5161
 8296SOL    HW136947   1.253   6.279   1.668  0.5411  0.1370 -0.6721
 8296SOL    HW236948   1.404   6.218   1.677 -0.2294 -1.3461  3.2105
 8297SOL     OW36949   3.166   8.785   9.123  0.4871  0.1540 -0.1600
 8297SOL    HW136950   3.262   8.796   9.098  0.1319  0.2234 -1.5258
 8297SOL    HW236951   3.142   8.855   9.191  1.2407  0.5446 -0.2845
 8298SOL     OW36952   0.946   5.261   8.103  0.5988  0.4244  0.5392
 8298SOL    HW136953   0.939   5.254   8.202 -0.6268 -0.0323  0.4316
 8298SOL    HW236954   0.874   5.205   8.060  1.3727  0.2859 -0.6071
 8299SOL     OW36955   5.065   8.850   1.632 -0.0442  0.0376 -0.9181
 8299SOL    HW136956   5.107   8.895   1.554  2.7108 -0.0525  0.4525
 8299SOL    HW236957   5.106   8.760   1.645 -1.4715 -0.5228 -0.2129
 8300SOL     OW36958   6.310   1.166   3.358 -0.0055 -0.0353 -0.4513
 8300SOL    HW136959   6.391   1.109   3.362 -0.4857 -0.7075 -0.2415
 8300SOL    HW236960   6.307   1.213   3.270  1.0414  0.6421 -0.1267
 8301SOL     OW36961   1.471   1.542   4.091 -0.0382 -0.1703 -0.4676
 8301SOL    HW136962   1.392   1.577   4.040  0.2575  0.2280 -0.6616
 8301SOL    HW236963   1.523   1.619   4.128  0.7620 -0.3939 -1.1072
 8302SOL     OW36964   6.940   4.152   7.765 -0.6496  0.1180  0.1576
 8302SOL    HW136965   7.017   4.206   7.798  0.2812 -1.4352  0.5530
 8302SOL    HW236966   6.969   4.096   7.688 -0.9597 -1.6815  1.3237
 8303SOL     OW36967   1.770   2.621   6.954 -0.9176  1.0291 -1.0442
 8303SOL    HW136968   1.686   2.576   6.923 -2.7131  3.0398  0.7484
 8303SOL    HW236969   1.816   2.662   6.875 -2.8635  1.9097 -1.7513
 8304SOL     OW36970   9.012   2.908   6.135 -0.1403 -0.1513 -0.0219
 8304SOL    HW136971   8.998   2.809   6.141 -0.2849 -0.0824  0.8242
 8304SOL    HW236972   8.930   2.955   6.167 -0.2104  0.2495 -0.7718
 8305SOL     OW36973   4.274   0.588   5.463 -0.1849  0.2028  0.6972
 8305SOL    HW136974   4.211   0.569   5.387 -2.0000  1.6902  1.7823
 8305SOL    HW236975   4.226   0.640   5.534  2.1198  0.8322  1.8434
 8306SOL     OW36976   7.597   3.527   1.739  0.3250 -0.4138 -0.0047
 8306SOL    HW136977   7.584   3.431   1.715 -0.2498  0.1274 -1.9496
 8306SOL    HW236978   7.694   3.551   1.726  0.5487 -0.8273  0.8778
 8307SOL     OW36979   5.844   9.335   4.827 -0.0633  0.1425 -0.3605
 8307SOL    HW136980   5.764   9.313   4.772  0.3000  3.5619 -2.3268
 8307SOL    HW236981   5.816   9.391   4.905  0.4400  1.6437 -1.2481
 8308SOL     OW36982   6.133   3.815   8.776  0.7852  0.8156 -0.0179
 8308SOL    HW136983   6.187   3.850   8.698 -0.1946  0.3353 -0.9237
 8308SOL    HW236984   6.182   3.834   8.861  1.2638  2.5067 -0.6490
 8309SOL     OW36985   7.640   9.580   3.001 -0.5133  0.3393  0.1473
 8309SOL    HW136986   7.611   9.520   2.926 -0.0496  0.8001 -0.4121
 8309SOL    HW236987   7.611   9.542   3.088 -0.1529 -0.7431 -0.2016
 8310SOL     OW36988   9.175   7.215   1.464 -0.4175  0.8433  0.0186
 8310SOL    HW136989   9.090   7.163   1.473 -0.5456  0.9691 -0.4293
 8310SOL    HW236990   9.248   7.155   1.433 -0.2930  0.6914  0.6071
 8311SOL     OW36991   8.459   2.285   5.866 -0.0303  0.4201  0.9095
 8311SOL    HW136992   8.415   2.248   5.784  1.6213  1.6348 -0.5930
 8311SOL    HW236993   8.394   2.339   5.918 -1.0638 -0.2176  0.2892
 8312SOL     OW36994   0.896   5.916   1.533 -0.0922  0.4733 -0.5807
 8312SOL    HW136995   0.962   5.920   1.609 -0.4908 -0.1970 -0.1933
 8312SOL    HW236996   0.912   5.993   1.471 -0.4549  1.6568  0.7640
 8313SOL     OW36997   1.134   0.917   5.657 -1.0606 -0.7065  0.4382
 8313SOL    HW136998   1.180   0.943   5.741 -0.5139  0.9120 -0.3289
 8313SOL    HW236999   1.153   0.986   5.586 -2.7999 -1.1968 -0.5385
 8314SOL     OW37000   0.408   8.577   1.538  0.4722  0.4493  0.2330
 8314SOL    HW137001   0.407   8.670   1.574  0.8458  1.1229 -1.4478
 8314SOL    HW237002   0.315   8.540   1.537  0.3538  0.7008  1.1080
 8315SOL     OW37003   6.409   4.506   0.883 -0.0431 -0.5267  0.8149
 8315SOL    HW137004   6.340   4.535   0.817 -0.5171 -1.4992  0.8825
 8315SOL    HW237005   6.379   4.532   0.975  0.4267  0.4615  0.6963
 8316SOL     OW37006   9.382   1.802   2.329  0.5112 -0.3412 -0.0275
 8316SOL    HW137007   9.403   1.819   2.426 -1.0970 -2.6584  0.7828
 8316SOL    HW237008   9.353   1.887   2.286  0.2003  0.5204  1.8183
 8317SOL     OW37009   3.319   7.327   4.778  0.0535 -0.5293  0.2312
 8317SOL    HW137010   3.240   7.265   4.780  0.0940 -0.6100 -0.4511
 8317SOL    HW237011   3.376   7.310   4.858 -0.5019 -0.6343  0.6056
 8318SOL     OW37012   0.465   2.349   1.669  0.0728 -0.1183 -0.0726
 8318SOL    HW137013   0.454   2.448   1.684 -1.2074 -0.3145  0.3919
 8318SOL    HW237014   0.415   2.299   1.740  0.9598 -1.1046 -0.1359
 8319SOL     OW37015   1.255   7.448   7.770 -0.2069  0.4578 -0.2021
 8319SOL    HW137016   1.325   7.509   7.807 -0.1483  0.2183  0.0881
 8319SOL    HW237017   1.172   7.455   7.827 -0.8162  1.5863 -1.2038
 8320SOL     OW37018   0.057   8.595   9.111 -0.5048  0.0407 -0.2044
 8320SOL    HW137019  -0.037   8.566   9.125  0.1187 -0.8927  2.3680
 8320SOL    HW237020   0.093   8.633   9.196  2.0702 -1.5265 -0.5344
 8321SOL     OW37021   1.250   9.605   1.172 -0.1274  0.0164 -0.4531
 8321SOL    HW137022   1.254   9.616   1.271 -0.9125  0.2626 -0.4475
 8321SOL    HW237023   1.232   9.694   1.129 -0.4731 -0.2064 -0.7757
 8322SOL     OW37024   7.948   8.252   1.134  0.0925 -0.3238  0.4295
 8322SOL    HW137025   7.981   8.346   1.146  0.3114 -0.3076 -0.2607
 8322SOL    HW237026   8.024   8.193   1.106 -0.4697 -0.2688 -1.2727
 8323SOL     OW37027   1.842   8.768   4.789  0.1667  0.3399  0.2061
 8323SOL    HW137028   1.825   8.684   4.841 -0.2363  0.7724  0.7807
 8323SOL    HW237029   1.763   8.786   4.730  0.5904 -0.1083 -0.5127
 8324SOL     OW37030   3.480   4.307   3.679  0.4534  1.1933 -0.1774
 8324SOL    HW137031   3.484   4.406   3.662 -1.6133  1.0777 -1.4788
 8324SOL    HW237032   3.415   4.265   3.616  0.8283 -0.9141  0.8090
 8325SOL     OW37033   3.157   4.193   9.539  0.2056  0.2972  0.1109
 8325SOL    HW137034   3.144   4.292   9.540 -0.6687  0.1850  0.6467
 8325SOL    HW237035   3.222   4.168   9.467  3.0411  1.5800  2.1028
 8326SOL     OW37036   7.899   8.208   9.390  0.6646  0.1407  0.1528
 8326SOL    HW137037   7.888   8.111   9.413 -1.1569 -0.0751 -1.4933
 8326SOL    HW237038   7.885   8.221   9.292  1.7229  1.9792  0.2106
 8327SOL     OW37039   7.683   3.763   4.991 -0.9755 -0.1969  0.1670
 8327SOL    HW137040   7.751   3.690   4.987 -0.1185  0.5342  1.0323
 8327SOL    HW237041   7.730   3.852   4.993 -2.0032  0.4521 -2.1376
 8328SOL     OW37042   5.612   0.858   5.285  0.6761 -0.0085  0.3251
 8328SOL    HW137043   5.677   0.906   5.344  1.0905  0.0191 -0.1561
 8328SOL    HW237044   5.557   0.795   5.341 -1.1365  2.3158  1.2887
 8329SOL     OW37045   9.770   2.318   3.882  0.0487 -0.3104 -0.2760
 8329SOL    HW137046   9.809   2.368   3.806  0.1185 -1.4282 -0.9889
 8329SOL    HW237047   9.671   2.309   3.870 -0.3828  1.9116  1.1793
 8330SOL     OW37048   0.867   3.327   6.863  0.1837  0.5957 -0.3431
 8330SOL    HW137049   0.853   3.426   6.866 -0.7347  0.4511  0.3254
 8330SOL    HW237050   0.796   3.282   6.917  0.3312 -0.4553 -1.0184
 8331SOL     OW37051   7.343   6.227   5.740  1.0032 -0.3859  0.2324
 8331SOL    HW137052   7.284   6.305   5.759  0.1184 -1.3214  1.3937
 8331SOL    HW237053   7.428   6.237   5.791 -0.4771 -1.8102  3.0868
 8332SOL     OW37054   4.315   4.476   5.051 -0.5218  0.0295 -0.0507
 8332SOL    HW137055   4.228   4.525   5.058 -0.8265 -0.2295 -1.8104
 8332SOL    HW237056   4.306   4.399   4.988  0.8679 -0.2371  0.0480
 8333SOL     OW37057   9.464   1.279   9.004 -0.3929 -0.2328  0.2107
 8333SOL    HW137058   9.541   1.217   9.017  0.1564  0.4026 -0.0380
 8333SOL    HW237059   9.463   1.312   8.910 -1.5042 -0.9626 -0.0440
 8334SOL     OW37060   3.404   0.947   8.823  0.0586  0.0357 -0.3485
 8334SOL    HW137061   3.470   1.020   8.838  0.2824 -0.1785 -0.2925
 8334SOL    HW237062   3.400   0.926   8.725 -0.7072  0.7799 -0.4838
 8335SOL     OW37063   4.684   1.650   5.581  0.3664  0.4578  0.5206
 8335SOL    HW137064   4.654   1.573   5.526  1.6441 -0.1552  0.6679
 8335SOL    HW237065   4.783   1.650   5.588  0.2753  0.9752  2.1752
 8336SOL     OW37066   2.167   6.950   7.234 -0.5490  0.2169 -0.3470
 8336SOL    HW137067   2.207   6.949   7.143  0.1854  0.9453 -0.0348
 8336SOL    HW237068   2.068   6.963   7.227 -0.4572  0.5677 -1.0249
 8337SOL     OW37069   3.223   8.832   3.532 -0.1035  0.3119 -0.2440
 8337SOL    HW137070   3.262   8.922   3.553 -1.1612  0.3233  1.8185
 8337SOL    HW237071   3.259   8.764   3.596 -0.7836 -0.3527 -0.5623
 8338SOL     OW37072   0.405   5.642   9.003  0.3325  0.4354  0.1264
 8338SOL    HW137073   0.498   5.630   8.969  0.2830 -0.1235  0.1902
 8338SOL    HW237074   0.343   5.660   8.927  0.5539  1.2291  0.1224
 8339SOL     OW37075   7.755   3.867   0.151  0.7171  0.4911 -0.5764
 8339SOL    HW137076   7.700   3.877   0.068  0.8744  1.1776 -0.5976
 8339SOL    HW237077   7.849   3.897   0.133  1.2373 -1.1333 -0.6827
 8340SOL     OW37078   9.381   2.295   8.711 -0.2457 -0.1420 -0.1401
 8340SOL    HW137079   9.435   2.378   8.692 -0.1229  0.0293  0.8994
 8340SOL    HW237080   9.429   2.239   8.779 -1.8548  0.5262  1.6051
 8341SOL     OW37081   8.357   6.395   7.010  0.2312 -0.2181 -0.6131
 8341SOL    HW137082   8.284   6.445   6.963  0.2173  0.5929  0.2553
 8341SOL    HW237083   8.343   6.401   7.108  1.2700 -0.3721 -0.4501
 8342SOL     OW37084   7.803   4.925   0.599 -0.2339 -0.1439 -0.0604
 8342SOL    HW137085   7.726   4.869   0.628  0.4375  0.1219  2.2925
 8342SOL    HW237086   7.793   5.018   0.634  1.2741 -0.1777  0.5068
 8343SOL     OW37087   9.512   1.348   7.015  0.0233 -0.4665 -0.3649
 8343SOL    HW137088   9.547   1.256   7.003  1.5184  0.4163 -3.0762
 8343SOL    HW237089   9.416   1.351   6.987  0.1125 -1.0953 -0.7566
 8344SOL     OW37090   0.014   2.304   9.968 -0.2839  0.2501  0.0438
 8344SOL    HW137091   0.060   2.289  10.056  0.7396  0.5484 -0.4344
 8344SOL    HW237092  -0.085   2.295   9.980 -0.0877 -0.6303  1.0350
 8345SOL     OW37093   2.015   9.971   4.065  0.0577  0.6047  0.2263
 8345SOL    HW137094   1.943   9.922   4.114  0.1291 -0.0461 -0.3210
 8345SOL    HW237095   2.101   9.964   4.117  0.2854 -0.6419 -0.3250
 8346SOL     OW37096   9.613   7.876   8.398 -0.3814  0.1338  0.5678
 8346SOL    HW137097   9.691   7.815   8.415 -0.3658 -0.5250 -1.7040
 8346SOL    HW237098   9.643   7.971   8.399  0.5665 -0.1493 -0.8925
 8347SOL     OW37099   2.667   8.615   6.301 -0.5113  0.7467 -0.2607
 8347SOL    HW137100   2.712   8.608   6.212  0.2076 -2.4265  0.2777
 8347SOL    HW237101   2.568   8.611   6.289 -0.4182  0.2688 -0.9050
 8348SOL     OW37102   0.505   2.814   1.094  0.3692  0.0859  0.3535
 8348SOL    HW137103   0.537   2.896   1.141 -0.8307  0.4395  0.5730
 8348SOL    HW237104   0.439   2.766   1.153  0.2513 -0.4501 -0.2148
 8349SOL     OW37105   1.335   2.602   5.026 -0.4677  0.1899 -0.4435
 8349SOL    HW137106   1.250   2.575   5.071 -0.0286  0.7889  0.7714
 8349SOL    HW237107   1.324   2.598   4.927 -1.3096 -1.5884 -0.2835
 8350SOL     OW37108   8.805   6.301   3.728  0.4118 -0.0908 -0.2512
 8350SOL    HW137109   8.828   6.301   3.825 -1.7625 -1.7076  0.3010
 8350SOL    HW237110   8.784   6.394   3.698 -1.4869  0.0887  1.5153
 8351SOL     OW37111   2.790   4.010   1.789  0.6411 -0.0876  0.7532
 8351SOL    HW137112   2.717   4.073   1.764  0.0151 -1.0668  0.0879
 8351SOL    HW237113   2.797   4.005   1.888 -1.5379 -1.5157  0.8507
 8352SOL     OW37114   7.322   3.222   0.485 -0.0712 -0.2695 -0.1993
 8352SOL    HW137115   7.283   3.134   0.514 -1.0956 -0.0553 -0.8693
 8352SOL    HW237116   7.377   3.208   0.402  0.5620 -0.4346  0.2493
 8353SOL     OW37117   6.771   4.044   9.782 -0.4302 -0.2313 -0.4951
 8353SOL    HW137118   6.771   4.114   9.853 -0.2939 -0.7498  0.0188
 8353SOL    HW237119   6.860   3.998   9.780 -0.9055 -1.2025 -0.0090
 8354SOL     OW37120   4.079   0.510   0.260  0.7012  0.0782  0.2473
 8354SOL    HW137121   4.136   0.505   0.342 -1.1266 -0.4160  1.5230
 8354SOL    HW237122   4.084   0.602   0.221 -0.4628  1.1270  2.4703
 8355SOL     OW37123   2.410   6.297   6.618 -0.2130 -0.0221 -0.7746
 8355SOL    HW137124   2.383   6.283   6.523  0.3214  1.6111 -1.1788
 8355SOL    HW237125   2.330   6.288   6.677 -0.5817 -0.8339 -1.3816
 8356SOL     OW37126   1.773   8.023   0.631  0.0744 -0.0402 -0.3595
 8356SOL    HW137127   1.727   8.099   0.677  0.6767 -0.3891  0.8325
 8356SOL    HW237128   1.741   8.017   0.537  0.8379  2.3595 -0.7851
 8357SOL     OW37129   1.979   1.780   4.836 -0.2763 -0.7319  0.0639
 8357SOL    HW137130   1.897   1.796   4.782 -0.9117  1.1162  1.5228
 8357SOL    HW237131   2.048   1.849   4.814 -0.2810 -0.3924  1.0739
 8358SOL     OW37132   0.761   6.463   0.630  0.4140 -0.2289  0.3346
 8358SOL    HW137133   0.681   6.521   0.614  0.7552  0.3367  0.6248
 8358SOL    HW237134   0.764   6.437   0.727  1.7000  1.4820  0.7835
 8359SOL     OW37135   3.591   0.656   0.734 -0.2125 -0.0217  0.4082
 8359SOL    HW137136   3.531   0.615   0.802 -1.2201 -1.5893 -1.3724
 8359SOL    HW237137   3.664   0.591   0.710 -0.9802 -0.2768 -1.3720
 8360SOL     OW37138   7.615   1.402   0.199  0.0511  0.4621  0.7274
 8360SOL    HW137139   7.713   1.404   0.219  0.0513 -0.5339  0.8401
 8360SOL    HW237140   7.565   1.370   0.280 -0.1847 -0.9899  0.0228
 8361SOL     OW37141   4.560   3.970   9.323  0.1597 -0.5138 -0.5196
 8361SOL    HW137142   4.537   3.878   9.355  1.1248 -0.3576  0.6598
 8361SOL    HW237143   4.524   4.037   9.386 -2.1413  0.0239 -2.3439
 8362SOL     OW37144   1.613   7.924   2.124  0.2582  0.2641 -0.9572
 8362SOL    HW137145   1.578   7.870   2.047 -1.1405 -1.3657  0.7803
 8362SOL    HW237146   1.707   7.897   2.145  0.0128 -0.5751 -0.9337
 8363SOL     OW37147   9.935   6.653   6.736 -0.2973 -0.2088 -0.1481
 8363SOL    HW137148   9.995   6.661   6.656  0.5160 -0.8048  0.4010
 8363SOL    HW237149   9.949   6.565   6.780 -0.9050  0.0286  0.5331
 8364SOL     OW37150   9.359   3.042   5.497 -0.3563 -0.6258  0.0642
 8364SOL    HW137151   9.292   3.082   5.561  0.4709 -0.2136  0.6880
 8364SOL    HW237152   9.411   2.971   5.544 -0.3356 -0.9273 -0.4152
 8365SOL     OW37153   2.811   4.936   4.364 -0.0922  0.1980  0.2407
 8365SOL    HW137154   2.711   4.928   4.373 -0.1948 -0.2907 -1.2266
 8365SOL    HW237155   2.849   4.971   4.450 -1.6029  1.1170  0.5621
 8366SOL     OW37156   9.780   2.091   9.103  0.0258 -0.1190  0.2907
 8366SOL    HW137157   9.688   2.093   9.064 -0.2662  1.9888  0.9970
 8366SOL    HW237158   9.835   2.165   9.064  1.1829 -0.8816  0.4473
 8367SOL     OW37159   1.854   4.999   4.359  0.1444  0.8088  0.1437
 8367SOL    HW137160   1.836   5.082   4.306 -1.9344  0.4986  0.3263
 8367SOL    HW237161   1.839   4.919   4.301 -0.0716  0.5102  0.6114
 8368SOL     OW37162   8.613   1.802   6.979 -0.2646 -0.1149 -0.1166
 8368SOL    HW137163   8.607   1.834   7.074 -3.6555 -2.0966  0.4238
 8368SOL    HW237164   8.671   1.720   6.976 -0.1568 -0.0559  0.2729
 8369SOL     OW37165   7.822   9.662   8.120 -0.3980  0.2525 -0.6841
 8369SOL    HW137166   7.884   9.607   8.064 -1.8828 -2.9005  0.6449
 8369SOL    HW237167   7.858   9.670   8.213 -0.3750  1.2607 -0.7711
 8370SOL     OW37168   2.864   4.929   4.657 -0.1587  0.1876 -0.2555
 8370SOL    HW137169   2.785   4.877   4.627 -0.4116  0.6680 -0.4295
 8370SOL    HW237170   2.844   4.973   4.744 -0.1812  0.5269 -0.4298
 8371SOL     OW37171   8.163   0.856   6.016  0.0740 -0.0553  0.2004
 8371SOL    HW137172   8.193   0.904   6.098  0.2569  0.2524 -0.0415
 8371SOL    HW237173   8.161   0.921   5.939  0.4872 -0.4752 -0.1636
 8372SOL     OW37174   2.448   3.296   4.284  0.1211  0.2615  0.0467
 8372SOL    HW137175   2.526   3.260   4.233 -0.9172  0.0106 -1.4119
 8372SOL    HW237176   2.428   3.389   4.252 -3.6694 -1.6924 -3.7409
 8373SOL     OW37177   6.314   1.721   3.440 -0.1939 -0.1046  0.5699
 8373SOL    HW137178   6.390   1.763   3.390  0.7261 -2.4982 -0.0900
 8373SOL    HW237179   6.267   1.655   3.381 -0.3661 -1.4668  2.1992
 8374SOL     OW37180   7.636   4.832   3.592 -0.0510  0.5978  0.6622
 8374SOL    HW137181   7.566   4.777   3.547  0.7811 -0.8933  1.1495
 8374SOL    HW237182   7.605   4.855   3.684  0.3874 -0.6759  1.1399
 8375SOL     OW37183   3.141   0.445   3.673 -0.4918 -0.0113  0.3596
 8375SOL    HW137184   3.114   0.512   3.743 -0.6197 -0.4892  0.7662
 8375SOL    HW237185   3.198   0.375   3.714  1.1392  0.8259 -0.4300
 8376SOL     OW37186   1.017   2.678   1.144  0.0212  0.0052 -0.2854
 8376SOL    HW137187   0.935   2.734   1.131 -1.0072 -1.2275  0.8419
 8376SOL    HW237188   0.991   2.582   1.146  1.8001 -0.5457 -2.3855
 8377SOL     OW37189   9.065   9.884   9.030  0.7125 -0.4707  0.1161
 8377SOL    HW137190   9.059   9.789   8.999  1.1749 -0.5928  0.3876
 8377SOL    HW237191   9.020   9.893   9.119  0.2477 -0.3296 -0.1310
 8378SOL     OW37192   8.232   1.369   0.019 -0.4790 -0.5024  0.3280
 8378SOL    HW137193   8.265   1.329  -0.067 -0.5233 -2.7410  1.2949
 8378SOL    HW237194   8.147   1.418   0.003 -0.6359 -1.1340 -0.8629
 8379SOL     OW37195   7.937   9.132   3.761  0.1066 -0.2503  0.5447
 8379SOL    HW137196   8.005   9.060   3.746 -3.3255 -2.9014 -3.7584
 8379SOL    HW237197   7.973   9.219   3.729  1.7455 -1.4729 -1.0394
 8380SOL     OW37198   3.227   9.564   3.189  0.1649  0.4022 -0.2215
 8380SOL    HW137199   3.140   9.606   3.161 -0.9362 -0.5568  1.6909
 8380SOL    HW237200   3.295   9.636   3.202 -1.0881  1.4208  0.9090
 8381SOL     OW37201   9.764   3.722   1.582  0.2095  0.1572 -0.3697
 8381SOL    HW137202   9.778   3.623   1.577  1.9216  0.2619  1.9137
 8381SOL    HW237203   9.673   3.740   1.620  0.1744 -0.5158 -0.1216
 8382SOL     OW37204   4.316   9.287   5.802  0.5605 -0.4415 -0.6385
 8382SOL    HW137205   4.355   9.274   5.893 -1.3044 -0.8179  0.1240
 8382SOL    HW237206   4.356   9.221   5.739  1.3107 -0.6705  0.0658
 8383SOL     OW37207   5.184   1.746   0.256 -0.1923  0.3591 -0.0509
 8383SOL    HW137208   5.182   1.831   0.203  1.0073  0.7783  0.5642
 8383SOL    HW237209   5.137   1.761   0.343 -0.4336  0.2376 -0.1594
 8384SOL     OW37210   0.324   2.636   1.233 -0.0680  0.2159  0.1273
 8384SOL    HW137211   0.396   2.587   1.281 -0.1476  0.6226  0.6708
 8384SOL    HW237212   0.235   2.608   1.269 -0.0628  1.7089  1.3616
 8385SOL     OW37213   8.252   9.111   3.959  0.6602 -0.1420  0.2448
 8385SOL    HW137214   8.318   9.108   3.884 -1.1956 -2.2224 -1.4008
 8385SOL    HW237215   8.296   9.081   4.044  1.9804 -0.9124 -0.6917
 8386SOL     OW37216   2.270   8.161   2.121 -0.2707  0.2870 -0.2682
 8386SOL    HW137217   2.261   8.061   2.118  0.6406  0.1466  0.9876
 8386SOL    HW237218   2.182   8.201   2.148 -1.0254 -0.0672 -2.1179
 8387SOL     OW37219   7.442   5.357   7.369  0.5955 -0.1372  0.2082
 8387SOL    HW137220   7.429   5.327   7.463  3.1791 -1.7979  0.0934
 8387SOL    HW237221   7.505   5.435   7.368  0.6539 -0.1896 -0.1470
 8388SOL     OW37222   3.384   4.181   9.895 -0.5595  0.6201 -0.1918
 8388SOL    HW137223   3.484   4.182   9.890 -0.5642  0.4192 -0.3252
 8388SOL    HW237224   3.354   4.111   9.959 -0.6706 -0.6322 -1.5901
 8389SOL     OW37225   4.413   9.706   8.642  0.9046 -0.4588  0.3128
 8389SOL    HW137226   4.448   9.673   8.554  0.9609 -3.1740  1.2892
 8389SOL    HW237227   4.464   9.662   8.717 -1.0847 -0.4771  1.7096
 8390SOL     OW37228   5.499   8.675   7.588  0.3368 -0.6703  0.2469
 8390SOL    HW137229   5.423   8.678   7.652 -0.7006  2.9413 -1.0230
 8390SOL    HW237230   5.474   8.621   7.508 -0.4509 -0.4681  0.3564
 8391SOL     OW37231   2.906   6.192   5.095 -0.5100 -0.1534 -0.0230
 8391SOL    HW137232   2.827   6.153   5.048 -1.2852  1.6052 -0.1958
 8391SOL    HW237233   2.949   6.121   5.151 -2.3397 -1.0769  0.2628
 8392SOL     OW37234   8.455   8.358   8.799  0.2399  0.7404  0.0773
 8392SOL    HW137235   8.470   8.438   8.741 -3.2381  0.1213 -1.8373
 8392SOL    HW237236   8.366   8.366   8.845 -1.3362 -3.0471 -2.0673
 8393SOL     OW37237   2.354   5.659   5.408  0.0298 -0.1434  0.3798
 8393SOL    HW137238   2.289   5.624   5.475 -1.3964  0.6192 -0.5951
 8393SOL    HW237239   2.310   5.665   5.319  1.0785  1.5042 -0.0480
 8394SOL     OW37240   3.428   2.801   5.603 -0.2996 -0.5236 -0.1139
 8394SOL    HW137241   3.502   2.848   5.651 -1.1844 -0.9177  1.6584
 8394SOL    HW237242   3.417   2.709   5.640 -0.7934 -0.9438 -1.2893
 8395SOL     OW37243   2.451   6.699   7.229 -0.5941 -0.1670 -0.6355
 8395SOL    HW137244   2.402   6.777   7.269 -0.9204 -1.2162  1.0727
 8395SOL    HW237245   2.415   6.681   7.138 -0.4216  1.7546 -1.1099
 8396SOL     OW37246   6.879   3.214   0.438 -0.2908  0.1694 -0.0319
 8396SOL    HW137247   6.963   3.269   0.431 -1.4438  1.9630 -0.2797
 8396SOL    HW237248   6.814   3.260   0.498 -0.7788 -1.6392  0.8502
 8397SOL     OW37249   4.046   6.198   2.299  0.0442  0.3635 -0.1749
 8397SOL    HW137250   4.030   6.107   2.338 -1.7884  0.5195 -0.5144
 8397SOL    HW237251   4.099   6.253   2.363 -0.3819 -0.3582  0.8029
 8398SOL     OW37252   3.085   4.145   9.858  0.0681 -0.1797  0.2124
 8398SOL    HW137253   3.154   4.113   9.923  1.2605  1.1007 -0.4123
 8398SOL    HW237254   3.129   4.168   9.771 -1.4762 -1.6199 -0.9890
 8399SOL     OW37255   1.841   7.654   1.993  0.0951 -0.4761 -0.3277
 8399SOL    HW137256   1.909   7.723   1.969 -0.0257  0.0492  0.7860
 8399SOL    HW237257   1.749   7.690   1.976  0.0531 -0.7019 -0.5925
 8400SOL     OW37258   3.004   6.343   3.662  0.7511  0.1613  0.7093
 8400SOL    HW137259   2.949   6.324   3.582  2.5881 -0.0251 -0.5470
 8400SOL    HW237260   3.006   6.442   3.679 -0.6312  0.0998  1.2627
 8401SOL     OW37261   7.484   8.213   4.550 -0.2249  0.3150 -0.5121
 8401SOL    HW137262   7.407   8.217   4.613 -0.3182  1.0494 -0.6672
 8401SOL    HW237263   7.569   8.207   4.601 -0.2551  1.5988 -0.2952
 8402SOL     OW37264   2.442   1.805   2.293  0.0317 -0.5575  0.1004
 8402SOL    HW137265   2.446   1.798   2.392 -1.4715  0.3392  0.2468
 8402SOL    HW237266   2.410   1.896   2.267 -0.4578 -1.0798 -1.1713
 8403SOL     OW37267   6.636   1.609   9.769 -0.7718  0.5334 -0.0722
 8403SOL    HW137268   6.735   1.618   9.763 -0.1357 -5.1443 -0.5423
 8403SOL    HW237269   6.604   1.648   9.856  2.0499  1.1022  0.7520
 8404SOL     OW37270   8.318   3.286   5.136 -0.0800 -0.3578 -0.2442
 8404SOL    HW137271   8.348   3.364   5.082  1.4541 -1.1793 -0.6372
 8404SOL    HW237272   8.399   3.236   5.168 -1.0397 -2.4293 -0.9784
 8405SOL     OW37273   2.769   9.213   5.042  0.2991  0.1766 -0.1282
 8405SOL    HW137274   2.699   9.239   4.975  1.1011  1.2418 -0.5621
 8405SOL    HW237275   2.859   9.232   5.005  0.8256 -0.9998  0.5171
 8406SOL     OW37276   7.781   4.425   7.702 -0.2165  0.1894 -0.3500
 8406SOL    HW137277   7.826   4.499   7.652 -3.1339  1.0790 -1.7416
 8406SOL    HW237278   7.792   4.339   7.651  0.2167  0.3138 -0.4681
 8407SOL     OW37279   2.745   1.251   3.867  0.2353 -0.4606  0.0008
 8407SOL    HW137280   2.810   1.290   3.802  0.1837 -1.7314 -0.8313
 8407SOL    HW237281   2.652   1.275   3.839  0.2059 -1.1417 -0.4780
 8408SOL     OW37282   1.719   2.347   5.140 -0.6407 -0.1179  0.3248
 8408SOL    HW137283   1.661   2.428   5.131 -0.4899  0.0786  1.0736
 8408SOL    HW237284   1.686   2.290   5.215  0.4481  0.2802  1.1282
 8409SOL     OW37285   2.694   7.051   7.516  0.4903  0.4790 -0.1512
 8409SOL    HW137286   2.755   6.972   7.509 -0.3089 -0.1638  0.0475
 8409SOL    HW237287   2.599   7.019   7.519 -0.0029  1.5638 -2.7548
 8410SOL     OW37288   0.584   8.497   4.856  0.0137  0.2235  0.1056
 8410SOL    HW137289   0.589   8.418   4.796  1.5927  0.3219  0.0905
 8410SOL    HW237290   0.676   8.522   4.886 -0.6982  0.4962  2.1412
 8411SOL     OW37291   4.444   8.881   2.754  0.2151 -0.3297 -0.2671
 8411SOL    HW137292   4.387   8.913   2.678 -0.8650  1.8741  1.3921
 8411SOL    HW237293   4.494   8.958   2.793  0.3016 -1.2915  1.6018
 8412SOL     OW37294   4.498   2.062   5.316 -0.0681  0.4096 -0.0186
 8412SOL    HW137295   4.585   2.014   5.301 -0.1819  0.6358 -1.4654
 8412SOL    HW237296   4.426   1.996   5.335  0.2755  0.1847  0.5413
 8413SOL     OW37297   6.146   1.668   0.678 -0.0192  0.0842  0.4041
 8413SOL    HW137298   6.121   1.727   0.754  1.7506  0.7345  0.5211
 8413SOL    HW237299   6.160   1.723   0.595  2.1235 -0.0693  0.6343
 8414SOL     OW37300   1.409   8.156   0.457  0.1411 -0.1605  0.4799
 8414SOL    HW137301   1.323   8.104   0.450  0.5727 -0.9419  0.9615
 8414SOL    HW237302   1.485   8.093   0.470  0.6179  0.6154  1.5078
 8415SOL     OW37303   5.489   1.560   5.414  0.8117 -0.2452  0.3675
 8415SOL    HW137304   5.405   1.591   5.458  1.5234  0.6899  1.0926
 8415SOL    HW237305   5.561   1.552   5.482  2.0584  1.6816 -0.7117
 8416SOL     OW37306   0.196   0.324   8.733  0.4874  0.2689 -0.0742
 8416SOL    HW137307   0.262   0.251   8.715  0.2988 -0.0061  0.3281
 8416SOL    HW237308   0.181   0.378   8.650 -0.1597 -0.7923 -0.6608
 8417SOL     OW37309   3.753   8.421   1.746  0.0663  0.3440 -0.0217
 8417SOL    HW137310   3.765   8.323   1.732 -0.1992  0.1895  0.7891
 8417SOL    HW237311   3.656   8.443   1.753  0.1183  0.6810 -0.3340
 8418SOL     OW37312   1.116   6.647   7.600 -0.2238  0.6253  0.0461
 8418SOL    HW137313   1.149   6.707   7.673  0.1006  0.3221  0.1536
 8418SOL    HW237314   1.187   6.635   7.532 -0.0195 -0.2267  0.4004
 8419SOL     OW37315   6.766   0.909   0.497 -0.6582  0.2542 -0.4656
 8419SOL    HW137316   6.825   0.917   0.578  0.8781 -1.6964 -1.3516
 8419SOL    HW237317   6.803   0.964   0.423 -0.5247 -0.1439 -0.6960
 8420SOL     OW37318   4.166   8.967   5.159 -0.1907  0.6588 -0.2324
 8420SOL    HW137319   4.118   9.022   5.227 -2.6178 -1.7234  0.0620
 8420SOL    HW237320   4.264   8.989   5.162 -0.8889  3.9456  0.7584
 8421SOL     OW37321   3.339   9.766   3.431  0.5197  0.1919 -0.1656
 8421SOL    HW137322   3.374   9.686   3.384 -0.4735 -0.6211  0.4627
 8421SOL    HW237323   3.299   9.830   3.365  1.5488  0.3033 -0.6898
 8422SOL     OW37324   4.441   9.634   0.129  0.0705 -0.6038  0.5485
 8422SOL    HW137325   4.404   9.608   0.219  0.8151  1.2057  1.4095
 8422SOL    HW237326   4.512   9.703   0.141  1.1390 -1.3233 -1.3645
 8423SOL     OW37327   5.078   8.525   2.152  0.5969  0.0414 -0.6471
 8423SOL    HW137328   5.119   8.565   2.070  0.3535  0.1751 -0.7025
 8423SOL    HW237329   4.996   8.473   2.127  1.3547 -1.1695 -0.6824
 8424SOL     OW37330   9.858   6.752   1.716  0.0803  0.3990 -0.1723
 8424SOL    HW137331   9.941   6.730   1.665 -0.1821 -0.6405 -0.1447
 8424SOL    HW237332   9.778   6.717   1.668 -0.2319  0.1472  0.5183
 8425SOL     OW37333   3.735   4.083   5.338 -0.2470 -0.1516 -0.0894
 8425SOL    HW137334   3.785   4.157   5.294 -1.4775  0.7643  0.0332
 8425SOL    HW237335   3.642   4.113   5.360 -0.4069 -1.3666  0.9767
 8426SOL     OW37336   8.886   7.482   5.506  0.1743 -0.2566  0.1769
 8426SOL    HW137337   8.936   7.396   5.514 -0.5618 -0.6333  0.8065
 8426SOL    HW237338   8.928   7.551   5.566  1.6321  0.2559 -1.3904
 8427SOL     OW37339   2.212   2.468   7.862 -0.4241 -0.9969  0.0448
 8427SOL    HW137340   2.172   2.549   7.820 -1.3454 -0.6936  1.4790
 8427SOL    HW237341   2.271   2.496   7.939 -1.7657 -1.7358  1.3691
 8428SOL     OW37342   9.341   3.957   7.599  0.4053  0.6294  0.4885
 8428SOL    HW137343   9.267   3.913   7.649  0.1310  0.0656 -0.4265
 8428SOL    HW237344   9.427   3.944   7.650 -0.0961  1.2382  1.5140
 8429SOL     OW37345   7.913   2.259   9.123  0.2083 -0.2890  0.4451
 8429SOL    HW137346   7.856   2.212   9.190  1.9387 -0.4441  1.8354
 8429SOL    HW237347   7.990   2.200   9.097 -0.1382 -0.0139 -1.2760
 8430SOL     OW37348   1.325   7.859   5.974 -0.1411  0.1665 -0.3663
 8430SOL    HW137349   1.380   7.813   6.045  0.9578  0.6460 -0.9002
 8430SOL    HW237350   1.235   7.815   5.969 -0.3692  0.3512  1.5704
 8431SOL     OW37351   6.834   2.372   1.869  0.1202 -0.5501  0.2626
 8431SOL    HW137352   6.763   2.363   1.938  0.8424  0.3312  1.1381
 8431SOL    HW237353   6.836   2.290   1.811 -1.2695 -0.7814  0.5437
 8432SOL     OW37354   4.638   2.981   0.708  0.1032 -0.2679 -0.2069
 8432SOL    HW137355   4.632   2.886   0.739 -0.0661 -1.0739 -2.6287
 8432SOL    HW237356   4.734   3.011   0.711  0.3376 -0.9544 -0.6980
 8433SOL     OW37357   2.697   6.326   0.792 -0.5020  0.2211  0.2692
 8433SOL    HW137358   2.786   6.284   0.809 -0.5485 -1.1845 -2.6556
 8433SOL    HW237359   2.636   6.309   0.869  1.3781  0.2055  1.7891
 8434SOL     OW37360   0.488   8.560   2.099 -0.1386  0.1971  0.2570
 8434SOL    HW137361   0.415   8.622   2.130  0.6018  0.3904  1.6856
 8434SOL    HW237362   0.455   8.506   2.022 -2.0482 -0.2146  1.3109
 8435SOL     OW37363   1.399   6.503   2.815  0.1860  0.4131 -0.0355
 8435SOL    HW137364   1.314   6.461   2.847 -0.0614 -0.3357 -1.6525
 8435SOL    HW237365   1.381   6.556   2.732  1.0325  1.4561  0.4340
 8436SOL     OW37366   8.602   2.003   8.208  0.3674  0.3537  0.6014
 8436SOL    HW137367   8.577   1.966   8.118 -0.0815  0.6790  0.5944
 8436SOL    HW237368   8.679   2.066   8.198  0.1982  0.5308  0.4199
 8437SOL     OW37369   5.012   0.913   0.367  0.2631 -0.6955  0.3683
 8437SOL    HW137370   4.969   0.837   0.318 -1.6658  1.8530 -2.0163
 8437SOL    HW237371   5.104   0.928   0.330  0.7087 -1.8798  0.9333
 8438SOL     OW37372   1.151   9.094   1.973 -0.2429 -0.3005 -0.4555
 8438SOL    HW137373   1.067   9.100   2.027 -0.1966  0.3878 -0.4621
 8438SOL    HW237374   1.179   8.998   1.966  0.0834 -0.3347  1.2268
 8439SOL     OW37375   8.110   7.677   8.858 -0.2655  0.1204 -0.4009
 8439SOL    HW137376   8.130   7.759   8.912  1.0657 -0.2972 -0.2349
 8439SOL    HW237377   8.044   7.620   8.907  0.5633 -0.0173  0.5848
 8440SOL     OW37378   8.632   6.207   5.524 -0.4271  0.3713  0.0914
 8440SOL    HW137379   8.621   6.140   5.597 -0.2363 -0.4540 -0.6309
 8440SOL    HW237380   8.685   6.167   5.449  0.1688  1.5115 -0.1099
 8441SOL     OW37381   9.912   6.838   0.268  0.9417  0.0469 -0.3421
 8441SOL    HW137382   9.854   6.768   0.227  1.9713  0.0029 -1.7420
 8441SOL    HW237383   9.981   6.867   0.202  1.2697  1.5257  0.6391
 8442SOL     OW37384   8.721   7.024   9.586 -0.1223 -0.5777  0.9821
 8442SOL    HW137385   8.805   6.987   9.626  0.8675  0.8496  0.2369
 8442SOL    HW237386   8.728   7.123   9.580 -1.8078 -0.4655  0.7674
 8443SOL     OW37387   8.238   6.687   6.464  0.3247  0.3289 -0.0575
 8443SOL    HW137388   8.213   6.727   6.376  1.5922 -0.7368 -0.9353
 8443SOL    HW237389   8.337   6.697   6.478  0.3980 -0.9714  0.4690
 8444SOL     OW37390   4.037   4.490   1.435  0.0430 -0.3314  0.1277
 8444SOL    HW137391   3.955   4.540   1.406 -0.1722 -2.0740 -2.3998
 8444SOL    HW237392   4.018   4.439   1.519 -1.8403 -1.6881 -1.1114
 8445SOL     OW37393   1.181   0.211   6.753 -0.2105 -0.0709 -0.2850
 8445SOL    HW137394   1.152   0.121   6.722 -1.1723  0.8982 -2.2711
 8445SOL    HW237395   1.104   0.257   6.797 -0.1344  0.3529 -0.5975
 8446SOL     OW37396   8.655   7.646   8.640 -0.1911 -0.3653 -0.0171
 8446SOL    HW137397   8.715   7.586   8.693 -1.0715 -0.3462  1.0359
 8446SOL    HW237398   8.646   7.611   8.547  2.5107  0.3677 -0.6077
 8447SOL     OW37399   3.129   7.740  -0.003  0.2727  0.5593  0.6413
 8447SOL    HW137400   3.123   7.709   0.092  0.4366 -1.5489 -0.0089
 8447SOL    HW237401   3.225   7.752  -0.027  0.3473 -0.9770  0.1188
 8448SOL     OW37402   3.571   6.994   8.882 -0.4575  0.2106  0.0054
 8448SOL    HW137403   3.545   6.958   8.972  0.7313 -0.6645  0.0048
 8448SOL    HW237404   3.507   6.960   8.813 -1.5504  1.1150  0.5420
 8449SOL     OW37405   6.650   2.524   2.973  0.0935 -0.0970 -0.3132
 8449SOL    HW137406   6.636   2.476   2.887  0.2923  0.2229 -0.5253
 8449SOL    HW237407   6.671   2.457   3.045  3.0242 -0.1629 -1.1490
 8450SOL     OW37408   2.216   1.994   0.804 -0.7788  0.7463 -0.3871
 8450SOL    HW137409   2.291   1.927   0.801 -0.4244  1.2212 -3.4038
 8450SOL    HW237410   2.251   2.084   0.778 -2.0111  1.3634  0.0593
 8451SOL     OW37411   5.660   9.062   3.879 -0.2596  0.2400  1.0897
 8451SOL    HW137412   5.748   9.046   3.834  0.1949 -1.2446  2.4511
 8451SOL    HW237413   5.668   9.042   3.977 -2.4351 -1.0843  1.0313
 8452SOL     OW37414   4.346   4.245   4.873 -0.4229 -0.5241  0.3107
 8452SOL    HW137415   4.265   4.188   4.860  0.2867 -1.3055 -0.7127
 8452SOL    HW237416   4.413   4.196   4.929 -1.0359  0.4916  1.9462
 8453SOL     OW37417   2.283   9.958   2.117  0.2084 -0.0982 -0.4875
 8453SOL    HW137418   2.285  10.040   2.060  1.3024 -0.2844 -0.7327
 8453SOL    HW237419   2.188   9.931   2.134 -0.1509  0.9391 -0.8020
 8454SOL     OW37420   8.020   9.473   4.475 -0.2430  0.4395  0.1982
 8454SOL    HW137421   8.017   9.393   4.416 -0.0975 -0.3524  1.2488
 8454SOL    HW237422   7.992   9.447   4.568  0.4412  1.4615  0.7042
 8455SOL     OW37423   9.188   5.943   2.646  0.3334  0.2094  0.2559
 8455SOL    HW137424   9.236   5.909   2.727 -0.8379 -0.7874  0.5541
 8455SOL    HW237425   9.138   5.867   2.603  0.5793  0.8274 -1.1404
 8456SOL     OW37426   5.405   0.019   5.454 -0.7509 -1.0485  0.1657
 8456SOL    HW137427   5.349   0.101   5.445  1.6508  0.3742 -2.4689
 8456SOL    HW237428   5.461   0.025   5.537 -1.2889 -0.4895  0.4882
 8457SOL     OW37429   0.354   8.364   3.229  0.7697 -0.4681 -0.1444
 8457SOL    HW137430   0.274   8.326   3.184 -0.1583  0.2922  0.8370
 8457SOL    HW237431   0.415   8.289   3.258  0.4319 -1.0391 -0.9068
 8458SOL     OW37432   8.005   0.933   6.362 -0.5186  0.1274  0.0928
 8458SOL    HW137433   7.957   0.985   6.291 -0.1740  0.0734 -0.1812
 8458SOL    HW237434   7.969   0.840   6.364 -0.3477  0.0566 -0.1848
 8459SOL     OW37435   1.650   6.367   3.422  0.0444 -0.1886  0.2384
 8459SOL    HW137436   1.598   6.449   3.441 -0.0628 -0.5578  1.5759
 8459SOL    HW237437   1.641   6.302   3.498  1.3912 -0.7924 -0.0841
 8460SOL     OW37438   5.183   1.751   8.892 -0.4439  0.7056  0.7040
 8460SOL    HW137439   5.261   1.696   8.922  0.4456  1.8786  0.5983
 8460SOL    HW237440   5.192   1.771   8.795 -1.6640 -0.3915  0.3481
 8461SOL     OW37441   3.901   3.048   1.215  0.7421  0.0505 -0.2076
 8461SOL    HW137442   3.841   3.077   1.290 -0.0885 -2.1143 -0.0045
 8461SOL    HW237443   3.861   2.968   1.169  0.9452  1.6934 -3.3708
 8462SOL     OW37444   3.158   9.465   4.228  0.0112 -0.0452  0.1932
 8462SOL    HW137445   3.210   9.421   4.155  0.9639 -1.0722  1.4516
 8462SOL    HW237446   3.074   9.414   4.245  0.3181 -0.4478  0.5325
 8463SOL     OW37447   1.693   1.014   1.796 -0.7154 -0.2954 -0.0559
 8463SOL    HW137448   1.683   0.976   1.888 -0.8969 -0.9488 -0.3477
 8463SOL    HW237449   1.769   1.079   1.795  1.4289 -2.7673 -0.2447
 8464SOL     OW37450   3.274   7.712   1.335  0.0628  0.1681 -0.0930
 8464SOL    HW137451   3.278   7.663   1.423  1.6011  0.4774  0.0074
 8464SOL    HW237452   3.286   7.646   1.261 -0.4823  0.0218 -0.0600
 8465SOL     OW37453   5.635   5.046   9.940 -0.1419 -0.1549 -0.1991
 8465SOL    HW137454   5.639   4.964   9.883 -0.4193  0.9239 -1.8015
 8465SOL    HW237455   5.726   5.085   9.949 -0.2810  0.3686 -0.9653
 8466SOL     OW37456   4.857   3.317   9.108  0.2137 -0.1684  0.5775
 8466SOL    HW137457   4.808   3.361   9.183 -0.3813  0.0220  0.0842
 8466SOL    HW237458   4.793   3.298   9.034  0.8292 -0.1897  0.0499
 8467SOL     OW37459   3.655   4.188   9.887  0.4300  0.2859  0.6156
 8467SOL    HW137460   3.735   4.230   9.844  0.6506  0.5779  1.3043
 8467SOL    HW237461   3.678   4.162   9.981 -0.5005  1.0326  1.0586
 8468SOL     OW37462   8.863   3.358   2.917 -0.0638  0.0628 -0.0479
 8468SOL    HW137463   8.847   3.259   2.921 -2.3660  0.4096 -0.4338
 8468SOL    HW237464   8.909   3.381   2.832  0.3815 -0.6439 -0.0077
 8469SOL     OW37465   8.357   6.697   6.070 -0.0339 -0.2591 -0.1931
 8469SOL    HW137466   8.437   6.665   6.019 -0.2152  0.8709 -1.2141
 8469SOL    HW237467   8.377   6.698   6.168  1.0411 -0.4308 -0.4080
 8470SOL     OW37468   0.279   3.052   5.089  0.3588 -0.4449  0.2131
 8470SOL    HW137469   0.218   3.058   5.010 -0.5116  0.6081  0.9531
 8470SOL    HW237470   0.225   3.049   5.173  1.3346  1.6278  0.9485
 8471SOL     OW37471   2.040   3.716   3.802  0.0434  0.0069  0.4278
 8471SOL    HW137472   1.945   3.704   3.830 -0.1155 -0.6360 -0.3406
 8471SOL    HW237473   2.091   3.762   3.874 -0.3290 -1.6532  1.8001
 8472SOL     OW37474   9.673   0.338   3.054 -0.3469  0.0542 -0.6432
 8472SOL    HW137475   9.614   0.268   3.014 -0.5290  0.7607 -1.6333
 8472SOL    HW237476   9.621   0.423   3.064  0.4123  0.6042 -1.2677
 8473SOL     OW37477   7.967   0.671   5.404  0.0368 -0.0703  0.4271
 8473SOL    HW137478   8.013   0.737   5.344 -0.4566 -0.3627 -0.2740
 8473SOL    HW237479   8.010   0.582   5.395 -3.0176 -1.3142 -3.1382
 8474SOL     OW37480   5.770   3.018   9.628  0.2186  0.2579 -0.7564
 8474SOL    HW137481   5.813   3.083   9.565  0.3930  0.6203 -0.2644
 8474SOL    HW237482   5.686   3.059   9.665 -0.8102 -0.6177 -2.0622
 8475SOL     OW37483   6.611   0.436   5.972 -1.0204 -0.2442  0.0977
 8475SOL    HW137484   6.710   0.447   5.964 -0.9371 -2.4022 -2.6015
 8475SOL    HW237485   6.591   0.381   6.053 -0.0400  0.1926  0.6575
 8476SOL     OW37486   3.798   8.592   5.500  0.2503 -0.4020  0.1214
 8476SOL    HW137487   3.892   8.565   5.521  0.0061 -0.3187  1.3430
 8476SOL    HW237488   3.796   8.636   5.410  1.1040 -1.9165 -0.6701
 8477SOL     OW37489   7.948   7.816   3.442 -0.2858  0.1080  0.0061
 8477SOL    HW137490   7.894   7.821   3.358 -1.5063  2.4957  0.8616
 8477SOL    HW237491   8.039   7.780   3.422 -0.3557  1.2078 -2.4645
 8478SOL     OW37492   7.239   6.650   5.456  0.2277  0.0714  0.1554
 8478SOL    HW137493   7.264   6.586   5.383 -0.7688 -0.6990  0.4806
 8478SOL    HW237494   7.224   6.741   5.416  2.2878  0.2832 -0.2202
 8479SOL     OW37495   3.242   5.514   6.292 -0.1431  0.0519  0.4393
 8479SOL    HW137496   3.243   5.594   6.233 -0.3404 -0.3089 -0.0600
 8479SOL    HW237497   3.306   5.445   6.256 -1.6645 -0.9317 -0.4430
 8480SOL     OW37498   1.227   8.134   5.998  0.0256  0.4206 -0.1058
 8480SOL    HW137499   1.276   8.048   6.013  0.0591  0.0015 -2.4213
 8480SOL    HW237500   1.293   8.208   5.987  0.1387  0.0658 -1.9797
 8481SOL     OW37501   4.767   7.656   5.291 -0.0137 -0.1947  0.5559
 8481SOL    HW137502   4.786   7.752   5.271  0.8268 -0.3073  0.8054
 8481SOL    HW237503   4.774   7.641   5.390  1.2692 -0.8105  0.3809
 8482SOL     OW37504   0.742   0.709   5.372  0.4989  0.0912 -0.0992
 8482SOL    HW137505   0.690   0.703   5.457 -0.0630 -4.0073 -0.6097
 8482SOL    HW237506   0.678   0.703   5.294  1.2238  1.2123 -0.7886
 8483SOL     OW37507   9.105   6.761   6.223  0.0658 -0.2956 -0.1645
 8483SOL    HW137508   9.157   6.839   6.189  1.9416 -1.2078  0.5597
 8483SOL    HW237509   9.009   6.787   6.234  0.7171  1.9886  0.3091
 8484SOL     OW37510   2.969   8.960   2.622 -0.5742 -0.0252 -0.2138
 8484SOL    HW137511   2.974   9.023   2.700  0.6825  1.3454 -1.3652
 8484SOL    HW237512   2.931   8.873   2.652 -0.1326  0.4868  1.9425
 8485SOL     OW37513   0.001   3.743   0.033 -0.0241 -0.2723  0.3740
 8485SOL    HW137514   0.038   3.790   0.113  1.0268 -0.1680 -0.1733
 8485SOL    HW237515  -0.014   3.809  -0.041 -0.7531 -0.4136  0.3845
 8486SOL     OW37516   7.143   2.325  10.074 -0.2414 -0.6657 -0.4987
 8486SOL    HW137517   7.175   2.395  10.010  0.3789 -0.5220 -0.0355
 8486SOL    HW237518   7.221   2.289  10.125 -0.9085  0.1572  1.1158
 8487SOL     OW37519   1.024   1.786   0.637  0.2993 -0.2175  0.3699
 8487SOL    HW137520   1.004   1.796   0.539 -0.5591  0.1175  0.5748
 8487SOL    HW237521   0.983   1.702   0.671  0.6066 -0.3382  0.4447
 8488SOL     OW37522   0.519   3.298   3.012 -0.4721  0.9112 -0.0062
 8488SOL    HW137523   0.555   3.326   3.101 -1.2104 -0.4448  0.7449
 8488SOL    HW237524   0.421   3.278   3.020 -0.4679  0.4286 -1.0393
 8489SOL     OW37525   1.071   0.250   4.372  0.2823  0.8541  0.7575
 8489SOL    HW137526   1.091   0.165   4.323  0.3466  2.0853 -1.3996
 8489SOL    HW237527   1.118   0.250   4.460  4.4963  0.8964 -1.4135
 8490SOL     OW37528   4.970   7.202   2.655  0.7207 -0.3464 -0.5520
 8490SOL    HW137529   4.987   7.285   2.602 -1.0492 -0.7985 -1.9130
 8490SOL    HW237530   4.951   7.225   2.750 -2.1724  1.0542 -1.4172
 8491SOL     OW37531   4.673   9.530   7.072  0.4089 -0.3614 -0.0254
 8491SOL    HW137532   4.707   9.536   7.166 -2.3124 -0.7103  1.0576
 8491SOL    HW237533   4.632   9.440   7.057  0.8275 -0.3123 -1.5646
 8492SOL     OW37534   2.061   9.398   5.617  0.2096  0.6995  0.5240
 8492SOL    HW137535   1.967   9.363   5.621 -0.5942  2.8791  0.9791
 8492SOL    HW237536   2.094   9.418   5.709  1.0487  0.1599  0.3463
 8493SOL     OW37537   3.745   6.984   2.685 -0.5569  0.3827  0.2601
 8493SOL    HW137538   3.765   6.890   2.712 -1.5391  0.0029 -0.2889
 8493SOL    HW237539   3.830   7.035   2.673 -0.0665  0.1238  2.5059
 8494SOL     OW37540   2.959   2.911   3.580 -0.6535  0.4743 -0.2870
 8494SOL    HW137541   2.956   3.009   3.602  1.1898  0.3136  0.7634
 8494SOL    HW237542   2.890   2.863   3.634 -1.7530  1.2415 -1.0111
 8495SOL     OW37543   9.766   2.071   9.569  0.2281 -0.0621  0.0970
 8495SOL    HW137544   9.790   1.994   9.510 -0.9779  1.7823 -2.9281
 8495SOL    HW237545   9.785   2.157   9.520 -0.0523  1.5421  2.7418
 8496SOL     OW37546   1.841   2.077   2.651 -0.0718 -0.1243  0.8968
 8496SOL    HW137547   1.803   1.995   2.693  0.4005 -0.6325  0.3399
 8496SOL    HW237548   1.881   2.136   2.721 -2.2805  0.6425  1.5559
 8497SOL     OW37549   3.701   0.678   7.400 -0.0312 -0.0477 -0.3664
 8497SOL    HW137550   3.623   0.648   7.347  0.5798  0.0594 -1.3366
 8497SOL    HW237551   3.770   0.606   7.403  0.4942  0.4323 -0.8290
 8498SOL     OW37552   2.602   1.469   0.443 -0.0223 -0.3365 -0.3305
 8498SOL    HW137553   2.518   1.517   0.468  0.8365  1.0121  0.0235
 8498SOL    HW237554   2.602   1.449   0.345 -0.5261  0.1125 -0.4223
 8499SOL     OW37555   5.340   1.549   6.248  0.7931 -0.4908  0.1240
 8499SOL    HW137556   5.330   1.589   6.340  0.6390  2.8012 -1.2659
 8499SOL    HW237557   5.430   1.571   6.212  0.0086  0.2129 -1.4246
 8500SOL     OW37558   8.966   8.218   1.631 -0.1856  0.2158 -0.3522
 8500SOL    HW137559   8.912   8.169   1.698 -0.1842  0.3584 -0.2453
 8500SOL    HW237560   8.960   8.172   1.542 -0.8185  0.4643 -0.4425
 8501SOL     OW37561   8.825   0.738   2.185  0.5932  0.3086 -0.3239
 8501SOL    HW137562   8.819   0.695   2.095  2.1071 -0.6645  0.0058
 8501SOL    HW237563   8.801   0.671   2.256  1.0061  0.5839  0.0836
 8502SOL     OW37564   1.860   8.844   0.613 -0.2943 -0.0003  0.3277
 8502SOL    HW137565   1.885   8.938   0.638  0.0572  0.3293 -1.1950
 8502SOL    HW237566   1.935   8.803   0.561 -2.3742  0.5521 -3.1960
 8503SOL     OW37567   9.935   3.093   4.523  0.0202 -0.1718  0.3635
 8503SOL    HW137568  10.023   3.049   4.507 -0.0224  0.3927 -1.5331
 8503SOL    HW237569   9.869   3.026   4.556  0.3478 -1.2267 -1.0968
 8504SOL     OW37570   9.610   9.975   5.037  0.1190  0.5420 -0.1732
 8504SOL    HW137571   9.698   9.930   5.019 -0.2608 -0.3264  0.1037
 8504SOL    HW237572   9.536   9.916   5.006 -0.3140  2.7493 -3.6834
 8505SOL     OW37573   2.478   2.895   5.279 -0.5283  0.2245 -0.0987
 8505SOL    HW137574   2.445   2.990   5.281 -0.8336  0.1819 -1.7654
 8505SOL    HW237575   2.539   2.879   5.356  0.8832  2.2862 -0.7258
 8506SOL     OW37576   1.153   9.959   5.272 -0.8238  0.4712  0.4001
 8506SOL    HW137577   1.130   9.880   5.329  0.3348  1.0706  1.7451
 8506SOL    HW237578   1.232   9.937   5.214 -1.8950 -0.0842 -0.8473
 8507SOL     OW37579   0.524   8.575   8.651  0.4717  0.2033  0.1444
 8507SOL    HW137580   0.589   8.598   8.578 -1.4312  4.0163 -0.4915
 8507SOL    HW237581   0.431   8.591   8.618 -0.5845 -0.9965  2.4535
 8508SOL     OW37582   6.122   9.896   1.823  0.0743 -0.1436  0.4177
 8508SOL    HW137583   6.121   9.837   1.904  0.2495 -0.0188  0.5114
 8508SOL    HW237584   6.217   9.908   1.792  0.1175  0.7117  0.8545
 8509SOL     OW37585   8.441   5.818   2.124  0.4743  0.9144 -0.4652
 8509SOL    HW137586   8.386   5.789   2.202  1.5420  0.4253  0.1176
 8509SOL    HW237587   8.536   5.832   2.153  0.5297  2.4451 -1.2960
 8510SOL     OW37588   5.921   5.896   9.199 -0.4410 -0.0670 -0.1622
 8510SOL    HW137589   5.909   5.993   9.178  0.7600  0.2151  0.3883
 8510SOL    HW237590   5.859   5.870   9.272  1.5967  1.1673  2.1048
 8511SOL     OW37591   3.034   8.479   9.502 -0.0221  0.0506 -0.3122
 8511SOL    HW137592   3.076   8.451   9.416 -0.1029 -0.1191 -0.2972
 8511SOL    HW237593   3.104   8.518   9.562  0.2587 -0.9232  0.0036
 8512SOL     OW37594   5.199   0.129   4.888  0.7446 -0.3016 -0.2382
 8512SOL    HW137595   5.175   0.039   4.925  1.7519 -0.5407 -0.1440
 8512SOL    HW237596   5.298   0.142   4.895  0.6851  0.5283 -0.8953
 8513SOL     OW37597   2.235   0.525   6.626  0.2686  0.1317  0.0033
 8513SOL    HW137598   2.191   0.599   6.677  0.0321 -0.0364  0.0428
 8513SOL    HW237599   2.287   0.467   6.689 -0.1525 -0.1680  0.0769
 8514SOL     OW37600   3.799   2.111   2.885 -0.2861 -0.5514  0.3019
 8514SOL    HW137601   3.875   2.083   2.825 -1.1481 -1.0369 -0.5974
 8514SOL    HW237602   3.831   2.178   2.951  1.1770 -1.5320  0.6215
 8515SOL     OW37603   4.357   1.167   6.342  0.0802 -0.0123  0.6197
 8515SOL    HW137604   4.425   1.234   6.371  0.0690 -0.1060  0.8615
 8515SOL    HW237605   4.395   1.075   6.353 -0.3466 -0.0924  1.4172
 8516SOL     OW37606   6.926   1.902   4.713  0.2569  0.4428 -0.0632
 8516SOL    HW137607   7.015   1.873   4.750  1.1049  2.5700 -0.3616
 8516SOL    HW237608   6.861   1.910   4.788  0.8418  0.7024  0.4259
 8517SOL     OW37609   4.497   1.347   6.504 -0.1562 -0.1392 -0.0162
 8517SOL    HW137610   4.469   1.432   6.548 -0.0513 -0.7449  1.2501
 8517SOL    HW237611   4.582   1.314   6.545 -0.9258 -1.5762  0.4589
 8518SOL     OW37612   5.541   2.030   6.156  0.4212  0.6542 -0.2574
 8518SOL    HW137613   5.629   1.992   6.182 -0.3299 -0.8996  0.0450
 8518SOL    HW237614   5.523   2.012   6.060 -0.6140 -1.1578  0.2464
 8519SOL     OW37615   2.807   6.691  10.001 -0.3883 -0.2569  0.2313
 8519SOL    HW137616   2.900   6.715   9.975 -1.0052 -0.2357 -2.0332
 8519SOL    HW237617   2.751   6.774  10.004 -0.2579 -0.2088  2.0302
 8520SOL     OW37618   9.642   5.936   3.863  0.3616 -0.1517  0.1480
 8520SOL    HW137619   9.664   5.983   3.778 -1.5055 -0.8117 -0.7178
 8520SOL    HW237620   9.630   6.003   3.936  2.6232  0.3764  0.0842
 8521SOL     OW37621   4.011   0.192   7.113  0.9633 -0.1890 -0.7367
 8521SOL    HW137622   4.023   0.110   7.056  1.0288  1.1257 -2.6610
 8521SOL    HW237623   4.072   0.265   7.080  0.5572  0.8023  0.6507
 8522SOL     OW37624   2.911   5.626   8.677  0.6386 -0.4350 -0.1653
 8522SOL    HW137625   2.966   5.669   8.748  0.9955  3.2634 -2.5218
 8522SOL    HW237626   2.969   5.603   8.599 -0.3765 -0.8369 -0.8157
 8523SOL     OW37627   5.553   3.226   0.814 -0.7458  0.0774 -0.1179
 8523SOL    HW137628   5.598   3.299   0.762 -0.9008 -0.8507 -1.5858
 8523SOL    HW237629   5.484   3.265   0.874  0.9280  1.3781  1.0154
 8524SOL     OW37630   0.790   6.216   4.488  0.1210  0.0031 -0.6718
 8524SOL    HW137631   0.809   6.220   4.390 -0.0403 -0.6364 -0.7299
 8524SOL    HW237632   0.704   6.167   4.504  0.6979 -0.8515 -0.1517
 8525SOL     OW37633   1.204   1.660   4.035 -0.4528 -0.0848 -0.0819
 8525SOL    HW137634   1.186   1.734   3.969 -0.6851  0.3658  0.4832
 8525SOL    HW237635   1.200   1.697   4.128  1.6629 -0.3476  0.1258
 8526SOL     OW37636   7.697   0.303   5.845  0.2521  0.0419 -0.3979
 8526SOL    HW137637   7.599   0.317   5.834 -0.0624 -0.8823  1.0585
 8526SOL    HW237638   7.738   0.383   5.889 -0.1199 -0.1716  0.3537
 8527SOL     OW37639   0.072   6.415   6.868  0.2311  0.5334 -0.5536
 8527SOL    HW137640   0.106   6.470   6.944 -0.2346 -2.0503  1.6006
 8527SOL    HW237641   0.148   6.388   6.808  0.8574  1.1302 -0.0253
 8528SOL     OW37642   8.813   0.757   7.922 -0.3194  0.1535 -0.0677
 8528SOL    HW137643   8.870   0.714   7.852 -0.8091 -0.8476  0.1436
 8528SOL    HW237644   8.826   0.711   8.009 -0.3164  0.8899  0.3248
 8529SOL     OW37645   2.636   1.103   3.177 -0.2605  0.1501 -0.0459
 8529SOL    HW137646   2.693   1.185   3.177 -1.0448  0.7149  1.0492
 8529SOL    HW237647   2.636   1.062   3.269  1.3662 -1.9643 -0.9471
 8530SOL     OW37648   0.149   2.452   1.867  0.0327  0.5488 -0.5565
 8530SOL    HW137649   0.242   2.421   1.887 -0.2371 -0.8328 -1.3913
 8530SOL    HW237650   0.139   2.547   1.894  1.6968  0.7024 -0.4493
 8531SOL     OW37651   6.998   3.286   1.924 -0.6269  0.6053  0.5583
 8531SOL    HW137652   6.980   3.207   1.983 -0.5135 -0.8372 -1.2966
 8531SOL    HW237653   7.052   3.257   1.845 -0.3194  2.6178 -0.0031
 8532SOL     OW37654   2.565   8.279   6.198  0.2387  0.4158  0.4447
 8532SOL    HW137655   2.543   8.184   6.223 -1.3134  0.8020  0.6244
 8532SOL    HW237656   2.659   8.284   6.166  1.3439 -0.6601  3.2873
 8533SOL     OW37657   1.195   8.843   2.253  0.2576  0.0203  0.1752
 8533SOL    HW137658   1.208   8.930   2.300  0.3253  0.4661 -0.6674
 8533SOL    HW237659   1.121   8.793   2.297 -1.1566  1.4000 -0.5750
 8534SOL     OW37660   5.344   3.996   8.299  0.5789 -0.3726  0.4122
 8534SOL    HW137661   5.386   4.068   8.352 -0.4365  0.0601  0.6383
 8534SOL    HW237662   5.258   4.029   8.259  1.0171 -0.8748 -0.9922
 8535SOL     OW37663   3.501   4.089   1.361  0.0812 -0.2963  0.0135
 8535SOL    HW137664   3.430   4.025   1.329  2.5478 -2.7693 -0.6601
 8535SOL    HW237665   3.535   4.143   1.284 -0.1740  0.0003  0.1070
 8536SOL     OW37666   0.216   0.555   0.567 -0.2688 -0.6017 -0.1456
 8536SOL    HW137667   0.312   0.556   0.594 -0.9425 -0.2949  2.2905
 8536SOL    HW237668   0.191   0.462   0.539  0.2245 -1.1134  1.1031
 8537SOL     OW37669   8.491   3.178   7.266  0.2056 -0.5319 -0.5775
 8537SOL    HW137670   8.518   3.102   7.207  0.7462  0.7131 -1.9951
 8537SOL    HW237671   8.436   3.145   7.342  0.4148 -2.3202 -1.1931
 8538SOL     OW37672   1.851   1.180   7.935  0.1861  0.0368  0.2495
 8538SOL    HW137673   1.876   1.096   7.983  1.7503  1.2707  1.6549
 8538SOL    HW237674   1.916   1.196   7.860 -0.0543  0.0469  0.0412
 8539SOL     OW37675   0.884   4.085   7.707 -0.1315  0.0804  0.3606
 8539SOL    HW137676   0.859   4.130   7.622  1.5516  0.7195  0.1950
 8539SOL    HW237677   0.803   4.079   7.766 -1.1915  0.0693 -1.0685
 8540SOL     OW37678   9.551   1.630   5.451  0.3418  0.4535 -0.3298
 8540SOL    HW137679   9.502   1.544   5.468  0.6264  0.8232  2.5346
 8540SOL    HW237680   9.625   1.614   5.386  0.3776 -1.4826  0.1552
 8541SOL     OW37681   3.537   3.238   9.308 -0.5524 -0.2032 -0.4924
 8541SOL    HW137682   3.538   3.275   9.215 -0.0015  0.8074 -0.0896
 8541SOL    HW237683   3.580   3.147   9.308  0.3065  0.2008 -1.0564
 8542SOL     OW37684   6.687   1.233   0.723 -0.2656 -0.7488  0.2948
 8542SOL    HW137685   6.724   1.143   0.700 -0.7721 -0.7040 -0.7163
 8542SOL    HW237686   6.683   1.290   0.640 -1.3337 -0.2992  0.6427
 8543SOL     OW37687   3.989   6.127   0.933  0.3406  0.4773 -0.4603
 8543SOL    HW137688   4.020   6.203   0.877 -0.5405  1.9069  0.9559
 8543SOL    HW237689   3.983   6.155   1.029 -4.1581 -0.0244 -0.4708
 8544SOL     OW37690   2.781   4.933   5.830 -0.0801  0.1634 -0.1450
 8544SOL    HW137691   2.872   4.903   5.800 -0.1465 -0.2983  0.1292
 8544SOL    HW237692   2.715   4.860   5.815  0.0579 -0.4244  2.0300
 8545SOL     OW37693   9.542   8.402   2.923  0.7633 -0.2659  0.3641
 8545SOL    HW137694   9.445   8.383   2.938  0.9832 -0.1050  2.1233
 8545SOL    HW237695   9.560   8.498   2.945  0.9129  0.2878 -2.0748
 8546SOL     OW37696   0.691   7.792   2.675 -0.5062 -0.2924  0.0775
 8546SOL    HW137697   0.761   7.760   2.739 -0.5250  1.5684  1.0738
 8546SOL    HW237698   0.693   7.892   2.671 -1.5187 -0.3220 -1.7146
 8547SOL     OW37699   2.715   8.575   8.130 -0.0998 -0.3653  0.0537
 8547SOL    HW137700   2.702   8.623   8.217 -0.8222  1.2243 -0.9212
 8547SOL    HW237701   2.780   8.626   8.073  2.1470 -2.5960  0.5563
 8548SOL     OW37702   7.619   9.147   6.730 -0.5147 -0.3811 -0.7744
 8548SOL    HW137703   7.629   9.062   6.782 -0.0683 -0.3762 -0.8478
 8548SOL    HW237704   7.552   9.206   6.774 -2.2182 -1.5622 -1.7502
 8549SOL     OW37705   8.167   3.559   2.662 -0.2940  0.2351  0.2610
 8549SOL    HW137706   8.164   3.462   2.635 -0.8836  0.2800  0.1487
 8549SOL    HW237707   8.212   3.567   2.751  0.7920 -0.0143 -0.2631
 8550SOL     OW37708   6.127   8.658   4.056  0.1065 -0.0708 -0.0063
 8550SOL    HW137709   6.191   8.675   3.981  1.4844 -1.7205  0.7501
 8550SOL    HW237710   6.057   8.593   4.025  0.9139 -1.0743  0.2244
 8551SOL     OW37711   8.550   2.141   2.073  0.1528  0.4017  0.0175
 8551SOL    HW137712   8.599   2.097   1.997 -0.6630 -0.6304  0.0765
 8551SOL    HW237713   8.588   2.109   2.160  0.3695  0.7604  0.0564
 8552SOL     OW37714   2.266   0.787   6.757 -0.9842  0.0802  0.4479
 8552SOL    HW137715   2.308   0.803   6.667 -0.8577 -0.5723  0.3891
 8552SOL    HW237716   2.329   0.816   6.829 -1.6118  1.8454  0.3100
 8553SOL     OW37717   8.103   6.171   8.303  0.1678  0.3112  0.0718
 8553SOL    HW137718   8.186   6.167   8.247  0.1582 -1.1503  0.1366
 8553SOL    HW237719   8.023   6.153   8.246  0.0242  0.3496  0.2588
 8554SOL     OW37720   0.883   8.554   0.295  0.7006 -0.5076  0.6328
 8554SOL    HW137721   0.875   8.502   0.210 -0.6916  0.2386  0.2877
 8554SOL    HW237722   0.836   8.504   0.369  1.5359 -0.9444  0.8776
 8555SOL     OW37723   1.162   5.900   4.886 -0.4347  0.0724  0.1969
 8555SOL    HW137724   1.213   5.828   4.840  1.0934  1.2987 -0.0575
 8555SOL    HW237725   1.192   5.909   4.980  0.0983  1.0421 -0.0543
 8556SOL     OW37726   3.942   9.692   5.772 -0.1557 -0.9958  0.4533
 8556SOL    HW137727   3.960   9.790   5.765  2.2607 -1.4685 -0.2657
 8556SOL    HW237728   4.024   9.641   5.746 -0.9982 -3.2046  1.9778
 8557SOL     OW37729   8.796   5.492   4.324 -0.2650  0.2964 -0.3672
 8557SOL    HW137730   8.887   5.520   4.355  0.4006  0.1121 -2.0876
 8557SOL    HW237731   8.752   5.568   4.277  0.0864 -0.4103 -1.8700
 8558SOL     OW37732   2.380   1.107   3.417 -0.4364  0.5905 -0.4959
 8558SOL    HW137733   2.407   1.093   3.512 -3.0043  0.9912  0.3105
 8558SOL    HW237734   2.432   1.184   3.379 -1.8306  2.6854  1.6621
 8559SOL     OW37735   8.346   3.483   4.933 -0.6548  0.5991 -0.2912
 8559SOL    HW137736   8.368   3.548   5.006 -0.7268 -0.4931  0.7097
 8559SOL    HW237737   8.296   3.530   4.861  0.6419  2.0051 -0.2986
 8560SOL     OW37738   8.498   7.800   2.562  0.4524 -0.1712 -0.6063
 8560SOL    HW137739   8.468   7.821   2.469  1.5150 -1.6022 -1.2819
 8560SOL    HW237740   8.597   7.809   2.568  0.5759 -1.7819 -0.0699
 8561SOL     OW37741   7.787   3.003   2.593 -0.2392 -0.0741  0.1400
 8561SOL    HW137742   7.752   2.912   2.568 -2.2620  0.8299 -0.4291
 8561SOL    HW237743   7.836   3.042   2.515 -0.8210  0.0005 -0.1964
 8562SOL     OW37744   2.160   3.203   6.281  0.4736  0.1372 -0.7217
 8562SOL    HW137745   2.166   3.120   6.225 -0.2417  0.5286 -1.4029
 8562SOL    HW237746   2.143   3.281   6.221 -0.4143  0.5487  0.0642
 8563SOL     OW37747   3.517   7.944   4.279 -0.1396  0.3500 -0.2178
 8563SOL    HW137748   3.422   7.971   4.295 -0.1940 -0.1113  0.2571
 8563SOL    HW237749   3.570   8.024   4.253 -0.9657  0.3706 -1.8987
 8564SOL     OW37750   4.437   5.853   0.084 -0.1950 -0.3840  0.3379
 8564SOL    HW137751   4.390   5.796   0.015 -0.9822 -0.3840  0.8697
 8564SOL    HW237752   4.410   5.948   0.072  0.2460 -0.2803  0.1733
 8565SOL     OW37753   2.560   7.146   7.138 -0.3152 -0.0337  0.0037
 8565SOL    HW137754   2.521   7.093   7.213 -0.0417 -0.3807 -0.0935
 8565SOL    HW237755   2.502   7.224   7.118 -2.3187 -1.9128 -1.8216
 8566SOL     OW37756   1.642   8.252   3.543  0.0677 -0.3891  0.3737
 8566SOL    HW137757   1.572   8.275   3.475  0.1411 -1.4659 -0.0793
 8566SOL    HW237758   1.663   8.333   3.598 -1.2298  0.0550  0.2387
 8567SOL     OW37759   2.121   8.710   7.076  0.3273  0.1131 -0.2223
 8567SOL    HW137760   2.035   8.667   7.103  1.2869 -0.3266  2.2940
 8567SOL    HW237761   2.130   8.798   7.122  0.3011  1.0954 -2.0748
 8568SOL     OW37762   2.290   3.111   7.238  0.4652 -1.0114 -0.9644
 8568SOL    HW137763   2.368   3.056   7.265  1.9054  1.2812 -0.2798
 8568SOL    HW237764   2.300   3.204   7.273 -1.7394 -0.1990 -2.2987
 8569SOL     OW37765   1.323   6.810   3.465  0.2734  0.0204  0.0210
 8569SOL    HW137766   1.286   6.725   3.501 -0.9694  0.6054  0.1397
 8569SOL    HW237767   1.254   6.882   3.470  1.1904  0.9516 -0.4134
 8570SOL     OW37768   9.717   9.322   6.410  0.7300  0.3028  0.0319
 8570SOL    HW137769   9.759   9.307   6.321  0.1463  1.4318 -0.4370
 8570SOL    HW237770   9.782   9.367   6.471  0.4979  1.2541 -0.4182
 8571SOL     OW37771   1.805   5.651   8.056 -0.2811  0.2823 -0.9506
 8571SOL    HW137772   1.770   5.558   8.058  2.0427 -0.6239 -0.9631
 8571SOL    HW237773   1.855   5.666   7.971  2.4089  0.3509  0.5874
 8572SOL     OW37774   8.094   0.092   8.788  0.5365  0.0050 -0.2753
 8572SOL    HW137775   8.175   0.145   8.765  0.4579  0.2411 -0.0150
 8572SOL    HW237776   8.074   0.102   8.886 -0.5066  0.9221 -0.5633
 8573SOL     OW37777   3.912   4.292   3.768 -0.4100  0.3847 -0.4733
 8573SOL    HW137778   4.005   4.278   3.732 -0.5306  3.8041 -2.3147
 8573SOL    HW237779   3.858   4.210   3.751  1.4140 -0.5214 -2.2073
 8574SOL     OW37780   9.875   5.050   6.776 -0.0668  0.4491  0.0179
 8574SOL    HW137781   9.906   5.076   6.867 -0.1892 -0.1354  0.2262
 8574SOL    HW237782   9.782   5.013   6.781  0.1911 -0.2354 -0.2425
 8575SOL     OW37783   5.446   2.928   0.031  0.4721  0.0621 -0.2065
 8575SOL    HW137784   5.473   2.841   0.073 -0.9883  0.0550  0.7473
 8575SOL    HW237785   5.526   2.987   0.021  1.0150 -0.3449  1.6453
 8576SOL     OW37786   3.843   4.188   7.574  0.1481 -0.3905 -0.2408
 8576SOL    HW137787   3.831   4.090   7.586 -1.2360 -0.2072 -0.0286
 8576SOL    HW237788   3.940   4.209   7.560  0.5826 -1.6655  0.8264
 8577SOL     OW37789   1.545   4.330   3.159  0.1472  0.6969 -0.4060
 8577SOL    HW137790   1.495   4.401   3.208  1.3228 -0.3594  2.4161
 8577SOL    HW237791   1.481   4.275   3.105 -1.0520  2.4159 -0.7802
 8578SOL     OW37792   9.931   1.630   7.075  0.3301  0.5695  0.3797
 8578SOL    HW137793  10.000   1.601   7.009 -0.1910  0.2275 -0.0221
 8578SOL    HW237794   9.974   1.645   7.164  0.5981 -1.6542  0.6630
 8579SOL     OW37795   2.812   1.142   4.122 -0.0864 -0.4957 -0.3752
 8579SOL    HW137796   2.798   1.155   4.023 -2.5966  0.1740  0.0189
 8579SOL    HW237797   2.815   1.231   4.167 -1.5203 -0.8308  0.4301
 8580SOL     OW37798   2.718   2.512   4.670 -0.2715  0.3925  0.3150
 8580SOL    HW137799   2.633   2.559   4.695 -1.0525 -0.3699 -0.8477
 8580SOL    HW237800   2.696   2.419   4.639  0.9361  0.3852 -0.5288
 8581SOL     OW37801   2.310   8.920   6.152  0.0572  0.1498 -0.2439
 8581SOL    HW137802   2.400   8.948   6.118 -0.2772 -0.7096 -1.9109
 8581SOL    HW237803   2.317   8.828   6.191  0.2929  0.8590  1.4425
 8582SOL     OW37804   4.201   0.182   2.206 -0.3769 -0.0414 -0.0423
 8582SOL    HW137805   4.131   0.199   2.136  0.0034  1.3942 -0.0962
 8582SOL    HW237806   4.278   0.133   2.165 -0.6980 -0.2952 -0.3417
 8583SOL     OW37807   9.608   6.970   2.452 -0.2097  0.2033 -0.3462
 8583SOL    HW137808   9.573   7.011   2.367  0.5608 -0.5447 -1.0384
 8583SOL    HW237809   9.646   6.880   2.431  1.8934  0.8892  0.4255
 8584SOL     OW37810   5.048   6.714   9.334  0.0756  0.2850  0.0549
 8584SOL    HW137811   5.041   6.731   9.236  1.8033 -0.9022 -0.3097
 8584SOL    HW237812   5.063   6.616   9.349 -1.4270  0.2631  1.5914
 8585SOL     OW37813   4.093   2.764   7.671  0.9364  0.5800  0.0244
 8585SOL    HW137814   4.165   2.698   7.650  1.2149  0.3555  1.5946
 8585SOL    HW237815   4.112   2.850   7.624  1.9007  0.3253 -0.0735
 8586SOL     OW37816   5.673   7.731   4.887 -0.9436  0.0951  0.3493
 8586SOL    HW137817   5.606   7.696   4.953 -0.6931 -0.8725  0.1053
 8586SOL    HW237818   5.765   7.718   4.923 -0.7709 -1.1545 -0.5107
 8587SOL     OW37819   8.088   1.358   4.932 -0.1201  0.3565  0.3433
 8587SOL    HW137820   8.134   1.271   4.952  1.8041  1.6880  1.8441
 8587SOL    HW237821   8.019   1.376   5.003 -1.0025 -0.2578 -0.3462
 8588SOL     OW37822   0.617   0.569   0.480  0.1652  0.1033 -0.1143
 8588SOL    HW137823   0.642   0.547   0.385 -0.8456 -0.3043 -0.2938
 8588SOL    HW237824   0.619   0.668   0.493  0.6327  0.1425 -0.4729
 8589SOL     OW37825   7.549   4.498   9.490  0.5046 -0.1877 -0.2482
 8589SOL    HW137826   7.575   4.549   9.572 -2.0884  1.2023 -0.2613
 8589SOL    HW237827   7.607   4.416   9.483  1.5275  0.2557  2.3283
 8590SOL     OW37828   6.565   7.309   6.212 -0.3446  0.3526  0.4803
 8590SOL    HW137829   6.612   7.364   6.282 -1.3211 -0.6390  1.9487
 8590SOL    HW237830   6.466   7.312   6.229 -0.5141 -0.6585 -0.3078
 8591SOL     OW37831   8.779   9.585   1.066 -0.4273  0.2119 -0.2736
 8591SOL    HW137832   8.780   9.599   0.967 -1.5630 -1.7931 -0.5989
 8591SOL    HW237833   8.814   9.494   1.087 -1.5356  0.0737  1.0483
 8592SOL     OW37834   4.344   1.813   1.911  0.6692  0.4611  0.3642
 8592SOL    HW137835   4.377   1.730   1.867  2.2661 -0.0604  2.4588
 8592SOL    HW237836   4.408   1.888   1.895  0.2247  0.7930  0.1158
 8593SOL     OW37837   1.177   2.606   5.849 -0.0672 -0.1599  0.2348
 8593SOL    HW137838   1.261   2.584   5.899  0.0531 -0.4460 -0.0977
 8593SOL    HW237839   1.113   2.650   5.912  0.6635  0.8677  0.2810
 8594SOL     OW37840   0.922   8.311   3.471  0.1235  0.3224 -0.3904
 8594SOL    HW137841   0.846   8.377   3.471  0.8471  1.1765  1.0286
 8594SOL    HW237842   0.955   8.298   3.564  1.8807  0.1321 -1.0233
 8595SOL     OW37843   2.239   4.706   8.867 -0.4144 -0.2786  0.2084
 8595SOL    HW137844   2.334   4.677   8.852 -0.3721  0.1303 -0.3483
 8595SOL    HW237845   2.192   4.712   8.779 -0.7994  0.0473  0.4357
 8596SOL     OW37846   2.994   3.044   8.430  0.1980  0.1586 -0.2195
 8596SOL    HW137847   2.939   3.103   8.372  1.1147  0.4788 -0.7765
 8596SOL    HW237848   2.942   3.019   8.511 -1.2085 -0.5201 -1.3021
 8597SOL     OW37849   4.611   0.752   1.777 -0.0910 -0.0137  0.3365
 8597SOL    HW137850   4.572   0.844   1.782 -1.0006 -0.4458  1.2176
 8597SOL    HW237851   4.591   0.713   1.687 -2.8420 -0.7268  1.2158
 8598SOL     OW37852   1.459   5.493   5.440 -1.0077  0.3866  0.2991
 8598SOL    HW137853   1.417   5.528   5.356  0.4874  2.5091  0.4061
 8598SOL    HW237854   1.408   5.526   5.519 -0.9464  0.4422  0.3151
 8599SOL     OW37855   1.946   9.697   7.452  0.3816 -0.4248 -0.0575
 8599SOL    HW137856   1.909   9.617   7.498  0.7022 -1.0280 -0.8415
 8599SOL    HW237857   1.926   9.691   7.354  0.1875  0.5741 -0.0866
 8600SOL     OW37858   1.301   5.676   6.738 -0.6685 -0.1551  0.2011
 8600SOL    HW137859   1.253   5.670   6.651  0.9982  0.8725 -0.8323
 8600SOL    HW237860   1.290   5.768   6.775  1.2100  0.3796 -0.5054
 8601SOL     OW37861   6.603   1.921   4.950 -0.3479 -0.8154  0.5005
 8601SOL    HW137862   6.553   1.837   4.925 -2.0788  1.3588 -3.8644
 8601SOL    HW237863   6.545   1.979   5.006 -0.2686 -1.1269  0.9148
 8602SOL     OW37864   2.141   1.201   7.751  0.1065  0.4037  0.5193
 8602SOL    HW137865   2.196   1.274   7.791 -1.6014  1.7367  0.5267
 8602SOL    HW237866   2.197   1.119   7.739  1.2898  0.7553  3.2870
 8603SOL     OW37867   2.698   5.794   0.044  0.2650 -0.7339 -0.0484
 8603SOL    HW137868   2.607   5.798   0.085 -0.0128 -0.4207 -0.6772
 8603SOL    HW237869   2.768   5.800   0.115 -0.2070 -0.1818  0.3698
 8604SOL     OW37870   3.224   2.948   7.588  1.0218  0.3540 -0.0842
 8604SOL    HW137871   3.211   2.910   7.679 -1.2176  1.5851  0.1549
 8604SOL    HW237872   3.253   3.044   7.596  1.6205  0.2232 -0.6597
 8605SOL     OW37873   8.996   7.999   3.496 -0.4012  0.2309 -0.6372
 8605SOL    HW137874   8.980   7.975   3.592  0.1136 -1.1988 -0.8985
 8605SOL    HW237875   8.908   8.019   3.452 -0.7278  0.0259 -0.0894
 8606SOL     OW37876   9.464   5.730   3.824 -0.1383  0.4508  0.2272
 8606SOL    HW137877   9.495   5.716   3.730  1.4618 -0.2138  0.8319
 8606SOL    HW237878   9.507   5.813   3.860 -0.8164  0.7474  0.3496
 8607SOL     OW37879   6.429   1.614   2.041  0.2958  0.4859 -0.6478
 8607SOL    HW137880   6.469   1.630   2.131 -0.7536  2.1795 -0.4430
 8607SOL    HW237881   6.347   1.557   2.050  0.0037  0.9265 -0.4729
 8608SOL     OW37882   8.383   4.481   3.592  0.2402  0.0145  0.2967
 8608SOL    HW137883   8.414   4.570   3.627 -0.1805  0.2764  0.0096
 8608SOL    HW237884   8.298   4.494   3.541 -0.0408 -0.6171  0.6121
 8609SOL     OW37885   6.986   1.571   6.390  0.6729 -0.4696  0.3432
 8609SOL    HW137886   6.950   1.515   6.464  0.9100 -0.3218  0.5690
 8609SOL    HW237887   6.933   1.655   6.383  0.0310 -0.9191 -0.2855
 8610SOL     OW37888   8.518   3.681   4.235 -0.5967  0.1179  0.3437
 8610SOL    HW137889   8.567   3.602   4.200  0.3777  1.1278 -0.6226
 8610SOL    HW237890   8.487   3.738   4.158 -1.1248  0.7659  1.0277
 8611SOL     OW37891   2.817   4.019   2.042  0.0939  0.4898  0.1490
 8611SOL    HW137892   2.771   4.092   2.093 -0.3447 -0.9262  1.7987
 8611SOL    HW237893   2.879   3.970   2.103  1.1661  0.1396 -1.2100
 8612SOL     OW37894   8.637   8.689   5.764 -0.1714  0.2400 -0.4241
 8612SOL    HW137895   8.673   8.596   5.754  2.5152  1.1584  0.1886
 8612SOL    HW237896   8.643   8.736   5.677  0.8499  0.6454 -0.1350
 8613SOL     OW37897   8.390   6.974   9.263  0.2897  0.1291 -0.0349
 8613SOL    HW137898   8.437   6.910   9.324 -1.0417 -1.5713 -0.7405
 8613SOL    HW237899   8.423   6.959   9.169  1.0711  1.5380  0.0033
 8614SOL     OW37900   4.404   0.549   1.452 -0.0442  0.5452  0.2580
 8614SOL    HW137901   4.334   0.549   1.523 -1.3813  1.4675 -1.0237
 8614SOL    HW237902   4.477   0.613   1.478 -0.8448  1.3746  0.5243
 8615SOL     OW37903   3.284   2.199   4.302 -0.4153  0.2280 -0.3417
 8615SOL    HW137904   3.354   2.136   4.269 -0.5036  0.6094 -1.2914
 8615SOL    HW237905   3.246   2.166   4.388  1.3904  0.3448  0.5267
 8616SOL     OW37906   0.721   8.626   1.814 -0.4398  0.4386 -0.3021
 8616SOL    HW137907   0.820   8.622   1.824 -0.4835  1.7227  0.9246
 8616SOL    HW237908   0.683   8.534   1.815  0.6754 -0.0217  0.0311
 8617SOL     OW37909   2.782   8.304   8.973 -0.4439 -0.2348  0.3509
 8617SOL    HW137910   2.842   8.364   9.026  0.3049  0.1595 -0.9303
 8617SOL    HW237911   2.692   8.301   9.016 -0.2670  1.2154  0.8459
 8618SOL     OW37912   5.664   9.000   4.957 -0.4722  0.1333 -0.1633
 8618SOL    HW137913   5.692   8.910   4.922 -0.0845  0.0099  0.4537
 8618SOL    HW237914   5.723   9.026   5.033 -2.1971 -0.2757  1.3713
 8619SOL     OW37915   4.591   1.447   4.084 -0.5087  0.1793  0.0833
 8619SOL    HW137916   4.559   1.364   4.039 -0.5607  0.3764 -0.2488
 8619SOL    HW237917   4.555   1.451   4.177 -0.7872 -0.0010 -0.0164
 8620SOL     OW37918   1.202   3.116   7.565 -0.6221 -0.0913  0.2850
 8620SOL    HW137919   1.119   3.120   7.621 -0.0729 -1.5556  1.2088
 8620SOL    HW237920   1.199   3.191   7.498 -3.9492 -1.6423 -1.4501
 8621SOL     OW37921   6.725   3.050   9.568  0.1356 -0.6295 -0.1977
 8621SOL    HW137922   6.743   3.133   9.515 -3.2526  0.4169  0.1644
 8621SOL    HW237923   6.766   2.971   9.522  2.8463  1.1100 -0.9047
 8622SOL     OW37924   2.788   7.428   1.648  0.1711  0.5932  0.1750
 8622SOL    HW137925   2.868   7.369   1.641  1.1599  2.0371 -0.9149
 8622SOL    HW237926   2.797   7.505   1.585 -2.6510  0.1304 -0.8635
 8623SOL     OW37927   8.979   3.590   0.739 -0.1276  0.6009 -0.1241
 8623SOL    HW137928   8.881   3.573   0.730  0.0087 -0.4127  0.3019
 8623SOL    HW237929   8.994   3.687   0.757 -1.0327  0.8065 -0.4444
 8624SOL     OW37930   3.860   1.157   6.294  0.1232  0.1873 -0.1277
 8624SOL    HW137931   3.858   1.062   6.265 -1.7132  0.4354 -0.8639
 8624SOL    HW237932   3.769   1.197   6.283  0.6096  1.7072  1.2336
 8625SOL     OW37933   8.730   9.519   5.015 -0.3466 -0.3327 -0.6718
 8625SOL    HW137934   8.793   9.444   5.035  0.1731  0.4121  0.5559
 8625SOL    HW237935   8.770   9.576   4.943  1.3124  1.1961  1.3815
 8626SOL     OW37936   9.718   2.091   4.330 -0.2152  0.1100 -0.0112
 8626SOL    HW137937   9.815   2.102   4.308  0.2620 -1.2508  1.2972
 8626SOL    HW237938   9.689   1.998   4.307 -1.1253  0.4211 -0.1235
 8627SOL     OW37939   7.638   0.440   5.410  0.0591 -0.0565  0.0067
 8627SOL    HW137940   7.647   0.528   5.363 -0.7195 -0.1235 -0.2848
 8627SOL    HW237941   7.546   0.433   5.449 -0.4359 -1.4307 -1.3831
 8628SOL     OW37942   7.724   3.441   3.702 -0.7357  0.2033  0.2696
 8628SOL    HW137943   7.818   3.406   3.709 -0.7807 -0.2937 -1.2840
 8628SOL    HW237944   7.667   3.373   3.656 -2.3611 -0.3403  3.0402
 8629SOL     OW37945   5.528   4.465   9.113  0.9103 -0.0238 -0.5597
 8629SOL    HW137946   5.587   4.440   9.189 -1.0775 -0.8482  0.7520
 8629SOL    HW237947   5.578   4.454   9.027  2.0568 -2.5617  0.3770
 8630SOL     OW37948   9.365   8.023   1.633 -0.1157  0.2649 -0.3132
 8630SOL    HW137949   9.320   8.080   1.701  0.3910  0.0178  0.2315
 8630SOL    HW237950   9.355   8.065   1.543 -2.4554 -0.3803 -0.3902
 8631SOL     OW37951   2.519   2.402   9.938 -0.0587 -0.4429  0.4256
 8631SOL    HW137952   2.600   2.369   9.889 -0.3162  1.5424 -1.3832
 8631SOL    HW237953   2.445   2.417   9.873 -0.5380  1.8344  1.4524
 8632SOL     OW37954   4.301   1.268   1.999 -0.6898  0.3066  0.4597
 8632SOL    HW137955   4.253   1.340   2.051  1.3798  0.9301  1.5674
 8632SOL    HW237956   4.367   1.310   1.937 -1.3626 -0.5542 -0.8627
 8633SOL     OW37957   1.995   2.999   8.855 -1.2303 -0.3311 -0.0029
 8633SOL    HW137958   1.998   2.904   8.886 -4.3719  0.1264  1.9788
 8633SOL    HW237959   1.919   3.010   8.791 -1.9296  1.1255  1.0424
 8634SOL     OW37960   2.489   4.788   3.695 -0.4331 -0.3081  0.3484
 8634SOL    HW137961   2.534   4.785   3.606 -0.6748 -0.3408  0.2289
 8634SOL    HW237962   2.534   4.723   3.757 -0.1782 -0.1842  0.2938
 8635SOL     OW37963   0.268   1.172   7.151 -0.4698  0.1271 -0.2509
 8635SOL    HW137964   0.178   1.132   7.134 -0.3621 -0.2121 -0.0324
 8635SOL    HW237965   0.335   1.099   7.163 -0.4311  0.3529  0.9916
 8636SOL     OW37966   6.626   5.096   8.303  0.3044 -0.3612 -0.3113
 8636SOL    HW137967   6.537   5.142   8.301 -0.5808 -2.0809 -1.0356
 8636SOL    HW237968   6.689   5.143   8.240 -0.6196 -0.1944 -1.1282
 8637SOL     OW37969   4.168   7.192   5.084 -0.5230  0.1679  0.2735
 8637SOL    HW137970   4.185   7.117   5.148  2.3606 -0.7637 -1.4908
 8637SOL    HW237971   4.134   7.155   4.998  2.3931  0.6228 -1.1611
 8638SOL     OW37972   1.224   9.115   5.944  0.2663 -0.6050 -0.3521
 8638SOL    HW137973   1.318   9.092   5.918 -0.4091 -1.9731 -1.6756
 8638SOL    HW237974   1.212   9.104   6.042  1.3871 -0.8135 -0.2357
 8639SOL     OW37975   0.471   6.313   0.768  0.0739  0.1423  0.7675
 8639SOL    HW137976   0.521   6.316   0.854  1.6292 -0.5397 -0.0831
 8639SOL    HW237977   0.399   6.244   0.773 -0.9294  1.2687  2.0735
 8640SOL     OW37978   8.397   9.864   3.989 -0.2431  0.1449 -0.1005
 8640SOL    HW137979   8.389   9.777   4.038  0.3668  0.7247  1.0429
 8640SOL    HW237980   8.467   9.857   3.919  1.4319  0.4046  1.5246
 8641SOL     OW37981   0.304   9.380   1.433 -0.0922 -0.4171 -0.0493
 8641SOL    HW137982   0.308   9.388   1.333 -2.2590  0.0667 -0.1232
 8641SOL    HW237983   0.220   9.335   1.460  0.5235 -0.6402  1.5753
 8642SOL     OW37984   6.408   3.805   8.236  0.4601 -0.2066 -0.1313
 8642SOL    HW137985   6.464   3.877   8.277 -0.5413 -0.7021  2.1980
 8642SOL    HW237986   6.311   3.823   8.253  0.0983 -1.1742 -1.0801
 8643SOL     OW37987   0.916   7.729   8.662 -0.3272 -0.3992  0.0181
 8643SOL    HW137988   0.824   7.713   8.628 -1.2945  0.2133  2.2452
 8643SOL    HW237989   0.913   7.793   8.739  1.6651 -2.2837  1.7346
 8644SOL     OW37990   8.110   3.692   1.366  0.4506 -0.6112  0.0520
 8644SOL    HW137991   8.115   3.607   1.418 -3.0296  0.3371  2.1447
 8644SOL    HW237992   8.195   3.743   1.376  0.5101 -1.2482  3.4951
 8645SOL     OW37993   2.744   4.292   8.332  0.2461 -0.4132 -0.1675
 8645SOL    HW137994   2.685   4.364   8.297 -0.9909 -0.8604  0.9381
 8645SOL    HW237995   2.712   4.203   8.299  1.3007 -0.5203 -0.9062
 8646SOL     OW37996   5.490   4.368   9.593 -0.5526  0.0619 -0.3105
 8646SOL    HW137997   5.493   4.279   9.639  1.5265  1.0949  1.6250
 8646SOL    HW237998   5.406   4.416   9.619 -1.6696 -1.2695 -1.3384
 8647SOL     OW37999   2.029   3.424   5.102 -0.5815 -0.3255 -0.4688
 8647SOL    HW138000   2.001   3.346   5.158 -0.9612 -0.6817 -1.1618
 8647SOL    HW238001   2.076   3.491   5.161  0.6564 -1.5184 -0.0731
 8648SOL     OW38002   1.783   6.136   8.112  0.3646 -0.3968 -0.2500
 8648SOL    HW138003   1.761   6.039   8.101 -0.5935  0.1149 -3.4079
 8648SOL    HW238004   1.865   6.158   8.059 -1.6295  1.2403 -2.7925
 8649SOL     OW38005   5.022   4.559   8.485 -0.2889 -0.2939  0.8028
 8649SOL    HW138006   5.011   4.524   8.392  0.0033 -0.4238  0.8165
 8649SOL    HW238007   5.013   4.659   8.484  1.1134 -0.1544  0.4106
 8650SOL     OW38008   8.281   6.154   1.523  0.0853 -0.2553 -0.9257
 8650SOL    HW138009   8.287   6.116   1.615  0.2825 -0.0061 -0.8356
 8650SOL    HW238010   8.213   6.103   1.470 -2.7968  1.9179  0.5122
 8651SOL     OW38011   0.782   9.217   5.738  0.3644  0.1244 -0.4025
 8651SOL    HW138012   0.760   9.224   5.641 -1.1053 -0.8357 -0.1564
 8651SOL    HW238013   0.873   9.175   5.749 -0.3343 -1.7016 -1.3309
 8652SOL     OW38014   9.684   5.382   9.649 -0.3763  0.1400 -0.4737
 8652SOL    HW138015   9.712   5.337   9.564  0.3624 -0.3571  0.0214
 8652SOL    HW238016   9.752   5.451   9.674 -0.9312  0.7486 -0.6362
 8653SOL     OW38017   5.372   5.538   7.996 -0.1773 -0.2455 -0.1533
 8653SOL    HW138018   5.326   5.625   8.014 -1.6494 -1.2122  0.8171
 8653SOL    HW238019   5.465   5.556   7.964 -0.4426  1.6843  0.1055
 8654SOL     OW38020   3.303   8.224   1.323  0.8156  0.0289  0.2252
 8654SOL    HW138021   3.351   8.136   1.323 -0.2383 -0.5569 -0.4451
 8654SOL    HW238022   3.273   8.246   1.230  0.0182  0.5195  0.5892
 8655SOL     OW38023   5.088   4.575   2.171 -0.2273 -0.4664 -1.0046
 8655SOL    HW138024   5.127   4.546   2.259 -3.0374 -0.1102  0.4003
 8655SOL    HW238025   5.099   4.501   2.105  0.8704 -1.1977 -0.0490
 8656SOL     OW38026   8.904   4.049   9.363 -0.4813 -0.4193  0.3944
 8656SOL    HW138027   8.842   4.074   9.437 -0.9899 -0.5331  0.0042
 8656SOL    HW238028   8.852   4.015   9.285 -0.1764  2.4818 -1.1364
 8657SOL     OW38029   2.509   5.520   3.915  0.4023 -0.5898  0.2865
 8657SOL    HW138030   2.585   5.473   3.870  0.2603 -1.0432  0.5164
 8657SOL    HW238031   2.424   5.497   3.869  0.5094  0.6954 -0.5845
 8658SOL     OW38032   8.411   3.218   9.526 -0.1928  0.2180 -0.3110
 8658SOL    HW138033   8.418   3.159   9.606 -1.5194  1.6104  0.8692
 8658SOL    HW238034   8.320   3.210   9.486  0.2813 -0.0453 -1.3416
 8659SOL     OW38035   2.361   3.997   4.091 -0.4317 -0.0052 -0.1597
 8659SOL    HW138036   2.363   4.096   4.077 -0.4018  0.0108 -0.0335
 8659SOL    HW238037   2.444   3.968   4.140 -0.5007 -0.0767 -0.0855
 8660SOL     OW38038   8.810   0.340   8.621 -0.2113 -0.1837 -0.3081
 8660SOL    HW138039   8.784   0.260   8.567  1.4812 -1.6695  1.0125
 8660SOL    HW238040   8.790   0.324   8.717  1.3946  0.4024  0.1506
 8661SOL     OW38041   3.583   2.887   3.298  0.1786 -0.0184 -0.0729
 8661SOL    HW138042   3.649   2.949   3.255 -0.5163 -0.1524 -1.3768
 8661SOL    HW238043   3.517   2.857   3.229  0.0967 -1.6683  0.7126
 8662SOL     OW38044   3.764   7.979   4.605  0.1956 -0.3036 -0.3126
 8662SOL    HW138045   3.738   7.892   4.564 -0.7341  0.4811 -1.4436
 8662SOL    HW238046   3.808   7.963   4.694 -2.6736 -1.7930  0.9058
 8663SOL     OW38047   3.205   1.870   4.513  0.0489 -0.6099 -0.3394
 8663SOL    HW138048   3.156   1.896   4.430 -0.8847  0.3373  0.5017
 8663SOL    HW238049   3.140   1.836   4.581  0.7553 -0.9558  0.1645
 8664SOL     OW38050   5.556   9.683   5.125  0.0732 -0.3326 -0.3750
 8664SOL    HW138051   5.535   9.751   5.195  0.6447  0.5065 -1.0147
 8664SOL    HW238052   5.487   9.610   5.128 -1.4469  1.0589 -0.7136
 8665SOL     OW38053   2.065   2.992   9.863  0.8527  0.0606  0.1589
 8665SOL    HW138054   2.149   2.946   9.834  0.4274 -0.9996  0.6074
 8665SOL    HW238055   2.080   3.037   9.951  1.0475  0.1579  0.0765
 8666SOL     OW38056   5.143   5.043   2.011  0.3762 -0.0617 -0.4518
 8666SOL    HW138057   5.095   5.008   2.091  1.6896 -1.0564 -0.0794
 8666SOL    HW238058   5.126   4.983   1.933  0.6093 -0.1467 -0.4391
 8667SOL     OW38059   2.000   5.590   5.423  0.1433  0.1382  0.2703
 8667SOL    HW138060   1.901   5.586   5.417  0.0436  0.9910  1.2686
 8667SOL    HW238061   2.040   5.541   5.345 -1.0433 -0.8719  0.2840
 8668SOL     OW38062   9.250   7.855   0.731 -0.4294  0.0892 -0.2095
 8668SOL    HW138063   9.336   7.806   0.745  0.5968  1.0111 -3.0429
 8668SOL    HW238064   9.256   7.945   0.774 -1.0926 -0.9287  2.0993
 8669SOL     OW38065   5.123   1.077   9.815 -0.0453  0.5604  0.5059
 8669SOL    HW138066   5.037   1.055   9.860 -0.0235 -1.6502 -0.4906
 8669SOL    HW238067   5.190   1.005   9.833  1.1851  1.5972  0.1571
 8670SOL     OW38068   1.908   8.957   5.404 -0.4424  0.2813 -0.2863
 8670SOL    HW138069   1.816   8.961   5.365 -0.6323  0.7859  0.2056
 8670SOL    HW238070   1.960   9.038   5.376 -0.3281  0.2701 -0.1073
 8671SOL     OW38071   0.458   1.704   8.042  0.9734 -0.1175 -0.3805
 8671SOL    HW138072   0.529   1.720   8.111  1.4033 -0.4446 -0.7525
 8671SOL    HW238073   0.474   1.764   7.963  0.2603  0.5372 -0.0421
 8672SOL     OW38074   3.608   0.725   5.957 -0.2164 -0.7295 -0.0168
 8672SOL    HW138075   3.612   0.824   5.943 -1.4710 -0.5028  1.1113
 8672SOL    HW238076   3.557   0.683   5.882 -1.3600 -0.2868  0.5075
 8673SOL     OW38077   8.321   8.335   0.043 -0.3070  0.9566 -0.5521
 8673SOL    HW138078   8.257   8.385   0.101  0.5798  1.8618 -0.3353
 8673SOL    HW238079   8.412   8.335   0.085  0.6834  2.8514 -2.5567
 8674SOL     OW38080   2.910   5.603   6.991 -0.4180  0.5102  0.2307
 8674SOL    HW138081   2.926   5.618   6.893  1.3112  1.7925  0.6725
 8674SOL    HW238082   2.909   5.505   7.010  3.4480  0.2311 -0.4836
 8675SOL     OW38083   7.687   8.771   4.589 -0.3191  0.0007  0.2547
 8675SOL    HW138084   7.654   8.802   4.501 -0.6987 -2.3321 -0.4731
 8675SOL    HW238085   7.780   8.803   4.604 -0.0393 -0.0823 -1.2693
 8676SOL     OW38086   4.154   2.936   5.537 -0.1998  0.2113 -0.1451
 8676SOL    HW138087   4.155   2.880   5.454  1.5206 -0.0493  0.0162
 8676SOL    HW238088   4.097   2.892   5.606 -1.3392  0.2362 -1.0520
 8677SOL     OW38089   7.781   8.307   6.055  0.2133 -0.1374 -0.3114
 8677SOL    HW138090   7.716   8.341   5.988 -0.7669 -1.4321 -0.0379
 8677SOL    HW238091   7.871   8.348   6.038 -0.0529 -0.3242 -2.3223
 8678SOL     OW38092   7.127   9.760   3.222 -0.2314 -0.1344 -0.2304
 8678SOL    HW138093   7.110   9.853   3.255 -0.8302 -0.4875  0.4790
 8678SOL    HW238094   7.056   9.734   3.158  0.6525  0.3644 -1.4353
 8679SOL     OW38095   7.453   8.677   3.546  0.7503  0.4798  0.1845
 8679SOL    HW138096   7.481   8.756   3.492 -1.6373  0.4113 -1.2434
 8679SOL    HW238097   7.437   8.705   3.640  0.5399  1.5667 -0.1641
 8680SOL     OW38098   9.990   8.781  10.070  0.0435 -0.1016 -0.1615
 8680SOL    HW138099   9.953   8.774   9.977  0.5704  1.0694 -0.4614
 8680SOL    HW238100   9.935   8.845  10.123 -1.1537 -1.8732  0.7956
 8681SOL     OW38101   6.431   5.538   8.179 -0.5334 -0.4636  0.5935
 8681SOL    HW138102   6.368   5.576   8.110  0.1454  0.4866  0.4779
 8681SOL    HW238103   6.379   5.484   8.245 -1.6145  1.0126  0.9975
 8682SOL     OW38104   4.979   8.368   7.509 -0.4393 -0.1914 -0.1522
 8682SOL    HW138105   4.898   8.340   7.561 -0.8573  1.0390 -0.1275
 8682SOL    HW238106   4.957   8.368   7.411 -0.2174 -0.6558 -0.2046
 8683SOL     OW38107   4.939   2.388   5.200 -0.4664  0.0476 -0.0173
 8683SOL    HW138108   4.933   2.462   5.133  2.4964  0.3233 -0.0410
 8683SOL    HW238109   4.950   2.426   5.291 -0.0212 -0.3638  0.1005
 8684SOL     OW38110   2.091   1.653   7.661 -0.1900  0.1309  1.1797
 8684SOL    HW138111   2.086   1.744   7.702 -0.5795  0.6191  0.0657
 8684SOL    HW238112   2.002   1.608   7.667 -0.3552  0.3599  0.5359
 8685SOL     OW38113   4.607   0.333   6.757 -0.0156 -0.2351  0.0346
 8685SOL    HW138114   4.562   0.386   6.686  1.3798  0.0777 -0.6493
 8685SOL    HW238115   4.587   0.372   6.847 -1.2184 -0.2123 -0.2445
 8686SOL     OW38116   5.598   1.515   6.707  0.0759 -0.3836 -0.6215
 8686SOL    HW138117   5.510   1.550   6.738  0.5439 -0.7339  1.1729
 8686SOL    HW238118   5.670   1.581   6.730  0.2534  0.0804 -2.4266
 8687SOL     OW38119   8.041   7.477   4.303  0.3570 -0.2424  0.0274
 8687SOL    HW138120   8.057   7.388   4.261 -0.6932  0.3648 -1.7068
 8687SOL    HW238121   7.956   7.516   4.269  0.1615  0.8938  1.7123
 8688SOL     OW38122   5.559   5.055   0.113 -0.4543  0.6701 -0.0472
 8688SOL    HW138123   5.574   5.032   0.017  0.0295 -0.9003  0.3981
 8688SOL    HW238124   5.529   5.151   0.120  1.4963  1.4320 -1.6102
 8689SOL     OW38125   0.884   7.998   5.362 -0.4484 -0.6172  0.2974
 8689SOL    HW138126   0.801   7.978   5.310 -0.3934 -1.6000  0.5770
 8689SOL    HW238127   0.867   7.980   5.459 -0.0219 -0.4512  0.4027
 8690SOL     OW38128   0.108   3.689   9.028  0.0411 -0.1984  0.5479
 8690SOL    HW138129   0.073   3.618   9.089  0.3214 -1.0418 -0.2494
 8690SOL    HW238130   0.044   3.702   8.952  1.2272 -1.4899 -0.7167
 8691SOL     OW38131   4.583   8.532   5.970 -0.4787  0.4485  0.4050
 8691SOL    HW138132   4.518   8.551   6.043 -0.1710 -1.2008  1.1080
 8691SOL    HW238133   4.669   8.499   6.009 -0.5124 -1.0113 -0.7244
 8692SOL     OW38134   0.883   3.535   5.515 -0.2326  0.1907 -0.7610
 8692SOL    HW138135   0.961   3.527   5.453 -0.5721  0.2811 -1.2052
 8692SOL    HW238136   0.865   3.446   5.557 -0.2684  0.0273 -1.1230
 8693SOL     OW38137   1.516   6.613   3.423  0.6106  0.2543 -0.0563
 8693SOL    HW138138   1.569   6.623   3.507 -1.5817 -0.1394  1.4153
 8693SOL    HW238139   1.447   6.685   3.418 -0.4117 -0.7408 -0.6231
 8694SOL     OW38140   6.587   6.891   5.667  0.3812  0.2644 -0.1420
 8694SOL    HW138141   6.539   6.961   5.721  0.3782 -0.8266  1.2858
 8694SOL    HW238142   6.526   6.814   5.650  1.1180 -0.4152  0.2816
 8695SOL     OW38143   7.895   1.932   8.773  0.0834 -0.3649 -0.6172
 8695SOL    HW138144   7.980   1.921   8.825 -0.4785  0.5610  0.5021
 8695SOL    HW238145   7.914   1.983   8.689  0.2809  1.5575  0.5845
 8696SOL     OW38146   4.398   2.279   8.535 -0.3921  0.0502 -0.0958
 8696SOL    HW138147   4.420   2.203   8.596  0.1735 -0.2921 -0.7194
 8696SOL    HW238148   4.482   2.323   8.505 -0.7167  0.8683  0.1903
 8697SOL     OW38149   2.228   3.769   4.776 -0.2679 -0.7637  0.1612
 8697SOL    HW138150   2.319   3.736   4.800 -1.0459 -1.3255  2.4423
 8697SOL    HW238151   2.194   3.829   4.849 -0.8798  1.1217 -1.6447
 8698SOL     OW38152   0.249   8.667   7.694 -0.2042 -0.8745 -0.3298
 8698SOL    HW138153   0.182   8.740   7.685  0.6512  0.4425  3.0821
 8698SOL    HW238154   0.219   8.603   7.765  1.7317 -0.6863  0.6927
 8699SOL     OW38155   3.991   6.353   0.246 -0.7255 -0.2725  0.4807
 8699SOL    HW138156   4.033   6.299   0.320  1.6780 -1.2550 -1.5118
 8699SOL    HW238157   3.918   6.409   0.284  0.4253 -0.7390  3.6109
 8700SOL     OW38158   8.485   7.537   2.373 -0.0523  0.0621 -0.1506
 8700SOL    HW138159   8.553   7.528   2.446  0.5302  1.8315 -0.4453
 8700SOL    HW238160   8.509   7.616   2.315 -0.8765 -0.9178 -1.8530
 8701SOL     OW38161   7.420   4.190  10.014 -0.2241 -0.1622  0.4040
 8701SOL    HW138162   7.321   4.177  10.011  0.0608 -2.8022  1.4346
 8701SOL    HW238163   7.464   4.108  10.050  2.4602  0.5531 -1.0932
 8702SOL     OW38164   6.017   7.843   7.395 -0.2085  0.0285 -0.2662
 8702SOL    HW138165   5.993   7.857   7.299 -0.0094 -2.0245 -0.6306
 8702SOL    HW238166   6.099   7.896   7.417 -0.3792  0.6725 -1.1600
 8703SOL     OW38167   3.412   6.120   0.034 -0.3204  0.1182  0.1468
 8703SOL    HW138168   3.418   6.201  -0.025 -0.6326  0.1462  0.1528
 8703SOL    HW238169   3.478   6.128   0.108 -0.9579  0.7925  0.6551
 8704SOL     OW38170   7.864   9.734   7.611 -0.3648 -0.0953 -0.0789
 8704SOL    HW138171   7.881   9.745   7.709 -1.0728 -0.8381  0.1356
 8704SOL    HW238172   7.801   9.805   7.580  0.1856  0.3928 -0.0852
 8705SOL     OW38173   2.329   1.598   7.521  0.5623  0.2446  0.5286
 8705SOL    HW138174   2.239   1.622   7.557  0.6766  1.3065  0.1360
 8705SOL    HW238175   2.371   1.528   7.579 -0.5435 -0.3020  0.6629
 8706SOL     OW38176   4.489   4.416  10.076 -0.2348 -0.0834 -0.7255
 8706SOL    HW138177   4.435   4.353  10.131  0.8201  0.0931  0.5210
 8706SOL    HW238178   4.566   4.367  10.036 -0.0798  0.1506 -0.7158
 8707SOL     OW38179   9.253   7.989   6.333 -0.2333 -0.0989  0.4640
 8707SOL    HW138180   9.223   8.072   6.285  0.0937 -0.5169 -0.4737
 8707SOL    HW238181   9.321   8.013   6.402 -0.1325  0.4168  0.1886
 8708SOL     OW38182   6.484   2.486   2.192  0.5965  0.2386  0.3682
 8708SOL    HW138183   6.534   2.550   2.251  1.1358  1.1677 -1.0534
 8708SOL    HW238184   6.538   2.403   2.179 -0.1831 -0.6085  2.3668
 8709SOL     OW38185   1.077   4.303   9.224  0.0201 -0.3842 -0.4988
 8709SOL    HW138186   1.117   4.295   9.316 -0.7761 -0.7384 -0.1845
 8709SOL    HW238187   1.036   4.394   9.214  1.8124  0.3736 -1.1919
 8710SOL     OW38188   3.192   9.251   5.576 -0.3005  0.2736  0.0595
 8710SOL    HW138189   3.111   9.240   5.519 -1.2264 -0.4486  1.4857
 8710SOL    HW238190   3.264   9.297   5.524 -1.6498  0.9952 -1.1936
 8711SOL     OW38191   0.355   6.340   5.607  0.3956  0.2688 -0.1420
 8711SOL    HW138192   0.262   6.366   5.633  0.3061 -1.0079  0.8372
 8711SOL    HW238193   0.420   6.406   5.645 -0.0845  1.0561 -0.6686
 8712SOL     OW38194   1.763   0.118   5.695  0.4318 -0.2511  0.2426
 8712SOL    HW138195   1.723   0.051   5.633 -2.0320  1.5839 -0.2505
 8712SOL    HW238196   1.805   0.192   5.642  2.9719 -1.2531  0.7762
 8713SOL     OW38197   8.871   5.738   4.651  0.4372  0.4906 -0.0842
 8713SOL    HW138198   8.778   5.704   4.637  0.5403 -0.0804  0.6352
 8713SOL    HW238199   8.935   5.679   4.603  0.6355 -0.4794  1.3389
 8714SOL     OW38200   2.840   6.773   6.087  0.1618  0.2974 -0.0964
 8714SOL    HW138201   2.923   6.811   6.046  0.6581 -1.0279 -0.3556
 8714SOL    HW238202   2.865   6.714   6.164 -0.5700  0.0868 -0.0139
 8715SOL     OW38203   4.669   8.953   6.498  0.0978 -0.0469 -0.3563
 8715SOL    HW138204   4.766   8.947   6.523  0.0998  1.7586  0.1147
 8715SOL    HW238205   4.653   9.038   6.449 -1.2478 -0.3753 -0.4900
 8716SOL     OW38206   2.690   8.859   3.005  0.0947 -0.5287 -0.3578
 8716SOL    HW138207   2.658   8.942   2.960 -1.1019 -0.6592  0.2220
 8716SOL    HW238208   2.784   8.871   3.035  0.0324  0.5056 -0.5681
 8717SOL     OW38209   8.890   0.713   6.131 -0.0075 -0.1822  0.1018
 8717SOL    HW138210   8.975   0.757   6.100 -0.1273  0.2454  0.3760
 8717SOL    HW238211   8.887   0.715   6.231 -0.5674  0.2170  0.0748
 8718SOL     OW38212   0.731   4.332   4.586  0.3630  0.0937  0.3494
 8718SOL    HW138213   0.699   4.292   4.500 -2.0292 -0.0047  1.2589
 8718SOL    HW238214   0.683   4.419   4.602  2.1566  1.0527  0.6880
 8719SOL     OW38215   4.937   3.031   4.459  0.8018 -0.3550 -0.2023
 8719SOL    HW138216   4.942   2.939   4.498  1.2071  0.0501  0.6976
 8719SOL    HW238217   4.867   3.083   4.506 -0.0867 -0.5019 -1.3502
 8720SOL     OW38218   8.090   5.191   0.092 -0.5745  0.4815 -0.2459
 8720SOL    HW138219   8.027   5.114   0.097 -0.4709  0.3003 -1.5967
 8720SOL    HW238220   8.044   5.273   0.127 -0.8591 -0.0820  0.7048
 8721SOL     OW38221   1.855   5.620   7.475  0.1715  0.0242 -0.2624
 8721SOL    HW138222   1.927   5.585   7.415 -1.3562 -0.0307 -2.1009
 8721SOL    HW238223   1.773   5.565   7.464 -0.5084  0.7756  0.9875
 8722SOL     OW38224   1.432   3.642   2.927 -0.2075  0.1322  0.1269
 8722SOL    HW138225   1.527   3.662   2.903 -0.4541 -0.8019 -1.7160
 8722SOL    HW238226   1.427   3.554   2.974 -0.1059  0.4651  0.7727
 8723SOL     OW38227   0.625   9.190   4.729  0.0696 -0.2956  0.8647
 8723SOL    HW138228   0.720   9.165   4.712 -0.6858 -2.1525 -0.8308
 8723SOL    HW238229   0.576   9.112   4.767 -1.6843 -0.6028 -1.9246
 8724SOL     OW38230   5.292   9.394   2.518  0.0504  0.2304  0.5108
 8724SOL    HW138231   5.271   9.344   2.602  0.7173  1.4990  1.4643
 8724SOL    HW238232   5.375   9.356   2.476  1.0099  1.0036  1.6522
 8725SOL     OW38233   8.997   4.635   5.967  0.2106  0.6323  0.1484
 8725SOL    HW138234   8.932   4.620   5.893 -0.4769  0.6712  0.7440
 8725SOL    HW238235   8.997   4.557   6.029 -2.7163  2.5887  2.7411
 8726SOL     OW38236   6.483   0.898   2.085 -0.4028  0.3344  0.5260
 8726SOL    HW138237   6.583   0.907   2.089 -0.2104 -0.3818 -2.2249
 8726SOL    HW238238   6.441   0.988   2.100  0.7603  1.2315 -1.5145
 8727SOL     OW38239   4.210   2.558   9.775 -0.2694 -0.1174 -0.3640
 8727SOL    HW138240   4.240   2.463   9.780 -0.9141 -0.2997  0.1909
 8727SOL    HW238241   4.157   2.571   9.692  0.0378 -0.1816 -0.5696
 8728SOL     OW38242   8.547   9.646   1.185  0.4066  0.3094  0.5596
 8728SOL    HW138243   8.482   9.590   1.133 -0.1875  0.8591  0.7143
 8728SOL    HW238244   8.639   9.633   1.147 -0.2855  2.2299 -1.9343
 8729SOL     OW38245   1.814   2.583   7.718 -0.2710  0.5651  0.0323
 8729SOL    HW138246   1.875   2.660   7.703  1.0404 -0.1516  1.6341
 8729SOL    HW238247   1.855   2.500   7.682 -0.5516  0.1735  0.6069
 8730SOL     OW38248   8.517   9.278   4.951 -0.1484 -0.2353  0.5820
 8730SOL    HW138249   8.471   9.192   4.929 -2.1740  1.4725 -2.1578
 8730SOL    HW238250   8.468   9.324   5.025 -0.1050 -0.5790  0.8266
 8731SOL     OW38251   9.708   5.854   7.321  0.0648  0.4810  0.0908
 8731SOL    HW138252   9.795   5.832   7.366 -0.5675 -0.2170  0.9793
 8731SOL    HW238253   9.676   5.774   7.271 -0.2241  0.6420  0.0203
 8732SOL     OW38254   8.119   2.021   3.585  0.0261 -0.1173  0.0026
 8732SOL    HW138255   8.107   2.084   3.508  0.8749  0.2534  0.1619
 8732SOL    HW238256   8.163   2.070   3.660  0.4761 -0.8414  0.2121
 8733SOL     OW38257   0.783   9.376   2.181  0.9524  0.4059  0.0844
 8733SOL    HW138258   0.714   9.421   2.238  2.7885 -0.5847  3.2585
 8733SOL    HW238259   0.775   9.408   2.087 -1.4065  3.0743  1.1104
 8734SOL     OW38260   9.868   6.316   9.992  0.5972  1.0443 -0.6360
 8734SOL    HW138261   9.884   6.275  10.082 -1.6336  2.1912  0.3205
 8734SOL    HW238262   9.882   6.247   9.921 -0.6399 -0.7142  0.7767
 8735SOL     OW38263   8.073   4.036   2.654 -0.0797  0.1666 -0.1788
 8735SOL    HW138264   8.055   4.008   2.560  1.8467  1.5708 -1.0146
 8735SOL    HW238265   8.086   3.955   2.712 -1.1875 -0.7013 -1.1410
 8736SOL     OW38266   0.808   2.817   6.529 -0.1891  0.3578  0.6267
 8736SOL    HW138267   0.851   2.843   6.443 -0.2106 -1.7785 -0.0462
 8736SOL    HW238268   0.777   2.722   6.524  0.6489 -0.1041  3.3054
 8737SOL     OW38269   6.904   0.312   3.434 -0.0120 -0.1805  0.3428
 8737SOL    HW138270   6.859   0.313   3.345 -0.8971 -1.4280  0.7731
 8737SOL    HW238271   7.000   0.337   3.422 -0.6460  1.9130 -0.6588
 8738SOL     OW38272   8.314   1.978   2.639 -0.8410  0.4561  0.4669
 8738SOL    HW138273   8.367   2.051   2.682 -0.3330  0.3516  0.0258
 8738SOL    HW238274   8.309   1.993   2.540 -1.1393  0.1515  0.4333
 8739SOL     OW38275   8.495   4.616   7.011 -0.0113 -0.1278 -0.5629
 8739SOL    HW138276   8.540   4.528   7.025 -1.7532 -0.8327  0.8486
 8739SOL    HW238277   8.398   4.601   6.990  0.0633  1.3946 -2.1842
 8740SOL     OW38278   5.163   5.836   0.841  0.1319 -0.0270  0.6728
 8740SOL    HW138279   5.071   5.832   0.880 -0.1098 -1.7102 -0.0405
 8740SOL    HW238280   5.189   5.932   0.827 -1.1008  0.4943  1.8131
 8741SOL     OW38281   7.308   6.870   3.187 -0.0428 -0.8793  0.1728
 8741SOL    HW138282   7.365   6.934   3.238 -1.1707  0.5035 -0.2493
 8741SOL    HW238283   7.266   6.804   3.250 -1.8799  1.1621  1.1375
 8742SOL     OW38284   2.274   0.245   7.559 -0.6630 -0.2489 -0.3723
 8742SOL    HW138285   2.333   0.325   7.549  0.3550 -0.9976 -0.5300
 8742SOL    HW238286   2.214   0.257   7.637  0.6329 -0.0109  0.6113
 8743SOL     OW38287   2.337   1.365   0.475 -0.2657  0.5568 -0.0334
 8743SOL    HW138288   2.326   1.330   0.381  1.3183  0.7773 -0.3219
 8743SOL    HW238289   2.251   1.406   0.506 -0.9297  0.0964 -1.2325
 8744SOL     OW38290   0.024   8.863   2.434  0.1278  0.0166  0.9412
 8744SOL    HW138291   0.085   8.883   2.357  0.6000  1.6922  1.7139
 8744SOL    HW238292  -0.028   8.946   2.457 -3.1133 -1.5971 -0.2544
 8745SOL     OW38293   2.861   2.116   3.189 -0.5232  0.2174 -0.0098
 8745SOL    HW138294   2.949   2.080   3.160 -0.7856 -1.1914  0.8901
 8745SOL    HW238295   2.871   2.161   3.277 -0.5599  0.7533 -0.2749
 8746SOL     OW38296   7.816   2.148   0.889 -0.1030  0.2405 -0.2722
 8746SOL    HW138297   7.803   2.175   0.984 -0.5598  0.1539 -0.3091
 8746SOL    HW238298   7.730   2.158   0.839  0.5151  1.7848 -1.0649
 8747SOL     OW38299   0.942   7.235   7.976  0.1615 -0.0926  0.5554
 8747SOL    HW138300   0.957   7.212   8.072 -0.4523  1.7890  1.1294
 8747SOL    HW238301   1.012   7.191   7.920  0.0234 -1.8941  1.7586
 8748SOL     OW38302   3.241   5.621   4.685  0.4090  0.5085 -0.4466
 8748SOL    HW138303   3.228   5.553   4.758 -2.8585  2.5834  1.0330
 8748SOL    HW238304   3.294   5.698   4.720  0.9308  0.4050 -1.0066
 8749SOL     OW38305   9.248   5.252   5.369  0.7740 -0.0674  0.3285
 8749SOL    HW138306   9.194   5.205   5.299  4.0435 -1.8246 -1.1044
 8749SOL    HW238307   9.187   5.285   5.441 -2.2468 -1.5436 -1.4570
 8750SOL     OW38308   8.846   9.717   2.660 -0.8242 -0.3064 -0.2020
 8750SOL    HW138309   8.863   9.812   2.686  0.1704 -0.1186 -1.4478
 8750SOL    HW238310   8.837   9.661   2.742  0.2340  0.5897  0.5480
 8751SOL     OW38311   9.800   3.874   5.222 -0.3684 -0.2246 -0.5788
 8751SOL    HW138312   9.820   3.863   5.319  0.5354 -2.1012 -0.9626
 8751SOL    HW238313   9.701   3.886   5.210 -0.7080 -1.7828  0.4341
 8752SOL     OW38314   1.977   4.431   8.654 -0.0688  0.5891  0.0481
 8752SOL    HW138315   1.885   4.460   8.628  0.0084  0.6003 -0.2081
 8752SOL    HW238316   1.981   4.331   8.655 -0.4713  0.5612  1.3952
 8753SOL     OW38317   0.285   2.437   4.621 -0.9019  0.1093  0.0763
 8753SOL    HW138318   0.318   2.464   4.531  0.0963 -1.9074 -0.1782
 8753SOL    HW238319   0.348   2.470   4.691  0.3157 -1.5317 -0.2333
 8754SOL     OW38320   0.755   1.250   3.367  0.6417  0.1779  0.0684
 8754SOL    HW138321   0.709   1.298   3.442 -0.1957  2.3496 -1.7727
 8754SOL    HW238322   0.713   1.160   3.354 -2.8957  1.9382 -1.3222
 8755SOL     OW38323   3.111   5.037   2.453 -0.3259 -0.1585  0.4544
 8755SOL    HW138324   3.033   5.087   2.490 -0.7932 -1.2791  0.9803
 8755SOL    HW238325   3.157   4.987   2.526 -1.8369 -3.1763 -0.5901
 8756SOL     OW38326   2.536   1.064   7.547 -0.0604 -0.1123 -0.1065
 8756SOL    HW138327   2.582   0.982   7.513 -0.6167 -0.4998  0.0672
 8756SOL    HW238328   2.592   1.106   7.618 -0.4586 -1.1631  0.8436
 8757SOL     OW38329   4.103   4.340   1.089 -0.5839  0.1069  0.2405
 8757SOL    HW138330   4.156   4.417   1.051 -0.8890  0.9122  1.4348
 8757SOL    HW238331   4.119   4.259   1.033 -0.0748  0.9748 -0.9099
 8758SOL     OW38332   9.385   4.092   6.983  0.1893 -0.3530  0.0861
 8758SOL    HW138333   9.361   4.050   7.071 -0.5285  0.0495  0.0777
 8758SOL    HW238334   9.482   4.073   6.963 -0.0995 -1.9666  0.1089
 8759SOL     OW38335   2.475   3.938   9.156 -0.6226 -0.2105  0.0045
 8759SOL    HW138336   2.388   3.987   9.161 -0.4121  0.3188 -1.3028
 8759SOL    HW238337   2.551   4.003   9.156 -0.1855 -0.6865  1.6223
 8760SOL     OW38338   7.782   5.405   2.875 -0.1413  0.8107 -0.3750
 8760SOL    HW138339   7.725   5.370   2.801 -1.0469  1.4140  0.0397
 8760SOL    HW238340   7.879   5.388   2.853 -0.5185 -1.4911 -0.4266
 8761SOL     OW38341   7.176   9.586   6.454 -0.1859  0.0324 -0.1803
 8761SOL    HW138342   7.148   9.522   6.383 -1.3504  2.0524 -1.5922
 8761SOL    HW238343   7.263   9.628   6.430  0.0765 -0.2651  0.2439
 8762SOL     OW38344   1.593   8.616   0.998  0.1162  0.3047 -0.2367
 8762SOL    HW138345   1.634   8.673   0.926 -1.7229  1.4758 -0.4086
 8762SOL    HW238346   1.644   8.628   1.083  2.8307 -1.7473 -1.5246
 8763SOL     OW38347   9.108   7.675   0.884  0.0954 -0.0438 -0.3470
 8763SOL    HW138348   9.027   7.652   0.830 -1.5172  1.7886  1.2205
 8763SOL    HW238349   9.165   7.739   0.832 -0.5237  0.2979 -0.6108
 8764SOL     OW38350   7.675   3.141   4.145 -0.2885  1.0473  0.2168
 8764SOL    HW138351   7.748   3.113   4.207 -0.5659 -0.7745 -0.2507
 8764SOL    HW238352   7.713   3.199   4.073  1.3580 -2.5177 -1.9013
 8765SOL     OW38353   5.837   5.755   0.358 -0.4534 -0.4329  0.0541
 8765SOL    HW138354   5.896   5.711   0.290  0.6452 -1.7300  1.8092
 8765SOL    HW238355   5.825   5.851   0.335  0.7640 -0.6142 -1.3924
 8766SOL     OW38356   2.870   7.132   0.624  0.7421 -0.1796 -0.3296
 8766SOL    HW138357   2.789   7.106   0.677 -0.0509 -1.3995 -2.1344
 8766SOL    HW238358   2.944   7.068   0.643  1.1289  0.5802  0.8459
 8767SOL     OW38359   7.937   4.943   1.890 -0.1125 -0.4013 -0.0089
 8767SOL    HW138360   7.981   4.966   1.803 -0.5812  0.9681  0.0936
 8767SOL    HW238361   7.855   4.889   1.873  1.6555 -3.0938 -0.1906
 8768SOL     OW38362   0.652   9.904   2.666  0.0495 -0.0035  0.1358
 8768SOL    HW138363   0.577   9.964   2.693 -0.9623 -1.7591  1.3339
 8768SOL    HW238364   0.727   9.913   2.732  0.8363  1.5726 -0.9314
 8769SOL     OW38365   3.555   1.481   8.040  0.5668 -0.3067 -0.0102
 8769SOL    HW138366   3.529   1.523   8.127  0.8593 -1.0933  0.4656
 8769SOL    HW238367   3.627   1.414   8.056  0.5205 -0.5629 -0.8455
 8770SOL     OW38368   2.875   8.123   3.498 -0.1039 -0.3130 -0.0055
 8770SOL    HW138369   2.891   8.190   3.570  0.1063  0.6238 -0.9043
 8770SOL    HW238370   2.789   8.144   3.451 -0.2564 -0.9265 -0.0073
 8771SOL     OW38371   8.275   0.106   5.550  0.0401  0.0106 -0.4671
 8771SOL    HW138372   8.325   0.036   5.602  1.6511  2.4062  1.3095
 8771SOL    HW238373   8.315   0.112   5.458  0.8594 -0.3919 -0.1506
 8772SOL     OW38374   1.269   9.463   3.805  0.6453 -0.0550 -0.0820
 8772SOL    HW138375   1.280   9.503   3.713  0.1115 -0.0976 -0.1673
 8772SOL    HW238376   1.225   9.373   3.797  1.3076 -0.3970  0.1572
 8773SOL     OW38377   1.104   0.745   9.024  0.1869 -0.1346 -0.2085
 8773SOL    HW138378   1.066   0.660   8.988 -0.3138  0.5476 -1.2894
 8773SOL    HW238379   1.195   0.726   9.063  0.7586 -0.8746 -1.8584
 8774SOL     OW38380   6.273   3.314   1.776 -0.1843 -0.3461 -0.4663
 8774SOL    HW138381   6.291   3.297   1.873 -0.3919  0.8044 -0.2126
 8774SOL    HW238382   6.274   3.228   1.726 -0.2869 -0.9718  0.5953
 8775SOL     OW38383   9.301   8.763   6.419  0.3525  0.1074 -0.2270
 8775SOL    HW138384   9.369   8.795   6.485  1.2210 -0.1608 -0.9834
 8775SOL    HW238385   9.228   8.831   6.411  0.9803  0.8069 -0.0588
 8776SOL     OW38386   1.491   9.615   2.930  0.1479  0.3341  0.0191
 8776SOL    HW138387   1.446   9.526   2.944 -0.5937  1.0209  2.1644
 8776SOL    HW238388   1.519   9.652   3.018  3.3306  0.7910 -1.1265
 8777SOL     OW38389   9.935   9.174   5.253 -0.4556 -0.3261 -0.0591
 8777SOL    HW138390   9.863   9.159   5.185  1.4287  0.1504 -2.2383
 8777SOL    HW238391  10.024   9.153   5.213  0.7623  0.4197  2.1341
 8778SOL     OW38392   3.609   7.481   0.218 -0.7163  0.1175  0.4090
 8778SOL    HW138393   3.676   7.411   0.242  0.7307  1.4152  0.2750
 8778SOL    HW238394   3.657   7.562   0.185 -2.4617  0.1648 -2.1364
 8779SOL     OW38395   4.177   3.462   4.578  0.4582 -0.2602  0.7111
 8779SOL    HW138396   4.178   3.398   4.655 -0.9912 -0.9084  0.1995
 8779SOL    HW238397   4.188   3.412   4.492 -0.1957  0.2219  0.3411
 8780SOL     OW38398   7.640   0.857   5.530 -0.1445 -0.2082  0.1829
 8780SOL    HW138399   7.692   0.826   5.451  0.5350  0.4706  0.3504
 8780SOL    HW238400   7.557   0.802   5.540 -1.8459  1.6566 -2.8362
 8781SOL     OW38401   3.592   1.120   6.161 -0.3367 -0.2565  0.5678
 8781SOL    HW138402   3.540   1.203   6.141  0.7817  0.2449 -0.2583
 8781SOL    HW238403   3.616   1.074   6.076 -0.1822 -0.9539  0.9877
 8782SOL     OW38404   3.824   2.935   2.920  0.1822 -0.3783  0.3724
 8782SOL    HW138405   3.822   2.844   2.961  1.1484 -0.6444 -0.1551
 8782SOL    HW238406   3.863   2.929   2.828 -2.1963  0.1720 -0.6913
 8783SOL     OW38407   3.777   8.126   9.581  0.4120  0.5828 -0.2928
 8783SOL    HW138408   3.698   8.137   9.641 -0.6777 -0.6905 -1.4499
 8783SOL    HW238409   3.790   8.029   9.560  2.1169  0.8078 -0.3393
 8784SOL     OW38410   8.121   3.675   0.214 -0.6536 -0.1427 -0.1649
 8784SOL    HW138411   8.217   3.657   0.195 -1.2153 -2.0811 -1.2978
 8784SOL    HW238412   8.080   3.724   0.138 -0.7826 -0.1574 -0.1061
 8785SOL     OW38413   3.109   3.741   9.950  0.2894 -0.6668 -0.1356
 8785SOL    HW138414   3.113   3.781  10.041 -2.0151  0.1355 -0.3278
 8785SOL    HW238415   3.143   3.807   9.883 -1.1323  0.0524 -0.1798
 8786SOL     OW38416   0.114   4.974   0.426 -0.1491 -0.4795  0.0353
 8786SOL    HW138417   0.174   5.045   0.388 -0.3919 -0.7466 -0.8678
 8786SOL    HW238418   0.101   4.902   0.358 -0.3381 -1.1282  0.7541
 8787SOL     OW38419   7.330   3.142   1.715  1.0627  0.1262  0.1908
 8787SOL    HW138420   7.316   3.126   1.812 -0.5939 -1.1194 -0.2337
 8787SOL    HW238421   7.242   3.158   1.670  1.8981  1.6839 -0.9460
 8788SOL     OW38422   6.150   0.241   2.602  0.2009  0.4029  0.3922
 8788SOL    HW138423   6.118   0.335   2.612 -0.9680  0.0020  0.4283
 8788SOL    HW238424   6.182   0.227   2.508 -0.1901  0.6675  0.2177
 8789SOL     OW38425   1.534   6.298   1.330 -0.2627 -0.1101 -0.4889
 8789SOL    HW138426   1.522   6.202   1.308 -2.4550  0.0814 -0.2521
 8789SOL    HW238427   1.600   6.307   1.405 -1.1730 -1.5459  0.5129
 8790SOL     OW38428   8.101   6.187   9.587 -0.0540  0.2525 -0.2634
 8790SOL    HW138429   8.125   6.138   9.670  0.5389 -0.5114 -0.8712
 8790SOL    HW238430   8.024   6.249   9.604  0.7761  0.9237  1.1204
 8791SOL     OW38431   4.670   0.875   0.757  0.4226 -0.5520  0.0277
 8791SOL    HW138432   4.693   0.959   0.806 -0.7311 -0.0320 -0.2903
 8791SOL    HW238433   4.658   0.896   0.660 -2.7438 -0.4793  0.3695
 8792SOL     OW38434   1.593   0.716   2.622 -0.7284  0.3309  0.3882
 8792SOL    HW138435   1.563   0.734   2.716 -3.1336  0.6461 -0.4276
 8792SOL    HW238436   1.668   0.778   2.599 -0.0866  0.2237  2.0900
 8793SOL     OW38437   8.892   7.901   9.029  0.6632 -0.1368  0.3729
 8793SOL    HW138438   8.893   7.947   8.940 -0.1680  1.3029  1.1041
 8793SOL    HW238439   8.983   7.862   9.047  0.5355 -1.4463 -1.6023
 8794SOL     OW38440   4.403   4.218   0.708 -0.3787 -0.0842 -0.3557
 8794SOL    HW138441   4.412   4.125   0.673 -0.2173  0.3201 -1.3971
 8794SOL    HW238442   4.492   4.252   0.737 -0.6417 -0.7233  1.2600
 8795SOL     OW38443   4.032   2.015   4.309  0.8646  0.5984 -0.1354
 8795SOL    HW138444   4.034   2.113   4.285  0.3294  0.0869 -2.3749
 8795SOL    HW238445   3.970   2.002   4.386 -0.2317  1.8573 -0.7740
 8796SOL     OW38446   6.267   4.269   8.509 -0.1959  0.3705  0.1024
 8796SOL    HW138447   6.192   4.333   8.496 -0.8661 -0.5383 -0.5977
 8796SOL    HW238448   6.328   4.272   8.430  0.3732  0.9179  0.5524
 8797SOL     OW38449   3.930   3.257   8.779 -0.3289  0.1321  0.0493
 8797SOL    HW138450   3.993   3.181   8.767 -0.0265  0.7852 -2.8737
 8797SOL    HW238451   3.843   3.236   8.734  0.2491  2.0447 -2.0452
 8798SOL     OW38452   0.256   6.952   8.106 -0.1176  0.2730  0.2042
 8798SOL    HW138453   0.304   6.896   8.039  0.3717 -0.2523  0.9979
 8798SOL    HW238454   0.164   6.972   8.072 -0.3798 -1.1995  0.0144
 8799SOL     OW38455   4.408   0.285   7.187 -0.2983  0.4223  0.5261
 8799SOL    HW138456   4.405   0.185   7.180  1.5999  0.3826 -0.0190
 8799SOL    HW238457   4.441   0.310   7.278 -1.4469  0.5664  0.9043
 8800SOL     OW38458   2.601   6.927   3.894 -0.3872  0.8210 -0.0048
 8800SOL    HW138459   2.630   7.008   3.844  3.1253 -1.3737 -1.6798
 8800SOL    HW238460   2.619   6.940   3.992  1.2298  1.6499 -0.3914
 8801SOL     OW38461   1.474   5.783   1.834  0.2613  0.0196  0.2675
 8801SOL    HW138462   1.468   5.838   1.751 -2.5890  0.0822  0.4688
 8801SOL    HW238463   1.512   5.838   1.908  2.2831  0.1311 -0.8107
 8802SOL     OW38464   8.958   7.027   3.404 -0.1619 -0.1755  0.2843
 8802SOL    HW138465   9.024   7.038   3.330 -2.3918 -2.0271 -2.0925
 8802SOL    HW238466   8.912   7.115   3.421  0.4866  0.3037 -0.4158
 8803SOL     OW38467   9.628   9.777   9.310  0.1095 -0.0599 -0.3347
 8803SOL    HW138468   9.577   9.860   9.332  1.3532  0.9486 -1.2198
 8803SOL    HW238469   9.691   9.756   9.385  2.5164  1.9464 -1.7517
 8804SOL     OW38470   0.836   5.693   0.617 -0.1502 -0.2170 -0.1988
 8804SOL    HW138471   0.756   5.753   0.626  1.3351  1.7072  0.4693
 8804SOL    HW238472   0.887   5.720   0.535  0.0096 -1.2364 -0.4378
 8805SOL     OW38473   6.322   4.738   8.535  0.1734  0.0407 -0.0113
 8805SOL    HW138474   6.319   4.687   8.449 -0.5105 -2.0853  1.2246
 8805SOL    HW238475   6.229   4.761   8.564  0.2987 -0.5896  0.9167
 8806SOL     OW38476   4.795   1.912   1.526 -0.0417  0.0858  0.0594
 8806SOL    HW138477   4.715   1.851   1.531  0.1802 -0.2916 -0.8375
 8806SOL    HW238478   4.768   2.005   1.550 -0.5021 -0.2733  0.9312
 8807SOL     OW38479   9.587   0.594   1.649  0.0202 -0.3976  0.4358
 8807SOL    HW138480   9.659   0.661   1.666  0.8744 -1.0200 -0.7075
 8807SOL    HW238481   9.529   0.625   1.574  0.1719 -0.7327  0.1762
 8808SOL     OW38482   8.274   6.079   3.345 -0.2214 -0.5161 -0.0416
 8808SOL    HW138483   8.267   6.152   3.412 -1.8701 -1.8665  1.3012
 8808SOL    HW238484   8.187   6.067   3.298  0.3512 -0.9006 -1.0411
 8809SOL     OW38485   2.424   3.808   2.294  0.1128  0.0239 -0.6144
 8809SOL    HW138486   2.416   3.888   2.234 -1.4883 -0.5448 -1.1679
 8809SOL    HW238487   2.457   3.837   2.384  0.6952  1.1414 -1.1828
 8810SOL     OW38488   0.014   0.271   2.188  0.1617 -0.3240 -0.8456
 8810SOL    HW138489   0.107   0.279   2.152  0.0352 -1.5333 -1.4872
 8810SOL    HW238490   0.009   0.191   2.248 -0.5325 -0.4354 -1.0493
 8811SOL     OW38491   4.691   0.468   1.032  0.0605 -0.0038  0.0422
 8811SOL    HW138492   4.766   0.526   1.002 -2.5860  2.7427 -1.5814
 8811SOL    HW238493   4.672   0.484   1.129  0.4455  0.5700  0.0230
 8812SOL     OW38494   2.970   0.937   9.864  0.1971  0.0428 -0.0191
 8812SOL    HW138495   3.046   0.947   9.800  0.2627  1.2148  0.2279
 8812SOL    HW238496   3.006   0.909   9.953  0.1794 -0.8841 -0.2982
 8813SOL     OW38497   1.044   7.475   8.243  0.3379  0.1576  0.2385
 8813SOL    HW138498   0.968   7.419   8.276 -1.8540  2.7662 -0.1695
 8813SOL    HW238499   1.106   7.495   8.319 -1.7987  1.6725  1.6363
 8814SOL     OW38500   7.718   5.501   7.399 -0.7722 -0.5870  0.6742
 8814SOL    HW138501   7.684   5.572   7.460 -1.0085  2.0527 -2.4193
 8814SOL    HW238502   7.817   5.494   7.408 -0.8176 -0.3060  1.4236
 8815SOL     OW38503   7.330   0.403   0.705 -0.4716 -0.1311  0.0916
 8815SOL    HW138504   7.416   0.354   0.714 -1.2350 -1.5934 -0.3952
 8815SOL    HW238505   7.331   0.459   0.622 -0.5169 -1.2732 -0.6961
 8816SOL     OW38506   6.182   3.427   0.925  0.9975  0.2885 -0.2675
 8816SOL    HW138507   6.106   3.475   0.882  3.0958  2.6262 -1.4926
 8816SOL    HW238508   6.216   3.355   0.865  0.1185 -0.4064  0.0587
 8817SOL     OW38509   8.774   9.653   9.581  0.3034 -0.1896  0.0484
 8817SOL    HW138510   8.850   9.714   9.603  0.8179 -0.4014 -1.1204
 8817SOL    HW238511   8.688   9.697   9.606  0.6984  0.8191 -0.3487
 8818SOL     OW38512   6.323   0.336   0.794  0.4939 -0.2125  0.5071
 8818SOL    HW138513   6.295   0.347   0.889 -0.4877 -1.1487  0.3465
 8818SOL    HW238514   6.360   0.244   0.780  0.1802 -0.2547 -0.1086
 8819SOL     OW38515   9.057   6.932   2.706 -0.9570 -0.6163  0.0761
 8819SOL    HW138516   9.019   7.021   2.730 -2.0069 -1.0563  0.0559
 8819SOL    HW238517   9.026   6.864   2.773 -2.2424 -1.4608 -1.3516
 8820SOL     OW38518   4.397   1.259   0.437 -0.1401 -0.0847  0.1064
 8820SOL    HW138519   4.448   1.188   0.389  1.1373 -0.6113  2.1760
 8820SOL    HW238520   4.358   1.323   0.371  4.5416  1.2739 -1.5215
 8821SOL     OW38521   8.316   6.759   9.080  0.2083 -0.0186 -0.1324
 8821SOL    HW138522   8.383   6.742   9.008  0.5268  0.1104  0.1335
 8821SOL    HW238523   8.339   6.705   9.161 -1.7557 -2.3837 -1.0806
 8822SOL     OW38524   5.785   2.866   8.331  0.2045 -0.8280 -0.1303
 8822SOL    HW138525   5.715   2.900   8.393 -0.6453  0.5713 -1.8073
 8822SOL    HW238526   5.840   2.943   8.297  1.7352 -1.7613  0.1810
 8823SOL     OW38527   3.246   3.980   0.782  0.4171  0.3909  0.3952
 8823SOL    HW138528   3.228   3.894   0.733 -0.1180  0.5759  0.2600
 8823SOL    HW238529   3.255   4.055   0.716  1.0571  0.4110  0.5036
 8824SOL     OW38530   9.444   1.793   1.059 -0.1024 -0.2018 -0.1956
 8824SOL    HW138531   9.400   1.705   1.045  0.1545 -0.2870 -0.4795
 8824SOL    HW238532   9.542   1.779   1.076 -0.2818 -0.0489  0.9570
 8825SOL     OW38533   5.950   3.095   2.273 -0.5942 -0.2285  0.0644
 8825SOL    HW138534   5.940   3.035   2.194 -0.1299 -0.2698  0.0344
 8825SOL    HW238535   6.008   3.173   2.248  1.5739 -1.4785  1.0402
 8826SOL     OW38536   0.206   1.054   9.764 -0.5624  0.0669  0.0611
 8826SOL    HW138537   0.248   1.029   9.852 -0.7449  0.2300  0.1965
 8826SOL    HW238538   0.107   1.067   9.778 -0.5702  0.2138 -0.1453
 8827SOL     OW38539   2.320   5.284   4.996 -0.0847 -0.1659  0.2573
 8827SOL    HW138540   2.327   5.287   5.096 -0.6614  0.2859  0.2874
 8827SOL    HW238541   2.229   5.314   4.968 -0.4856 -1.8837 -0.3260
 8828SOL     OW38542   8.885   0.696   1.620 -0.0106 -0.4046  0.3380
 8828SOL    HW138543   8.911   0.717   1.526 -0.0007  0.1095  0.4547
 8828SOL    HW238544   8.821   0.619   1.621 -1.0116  0.4011 -0.1868
 8829SOL     OW38545   9.568   9.114   6.905  0.0049  0.0383 -0.1363
 8829SOL    HW138546   9.605   9.054   6.975  0.7996 -2.2653 -2.4262
 8829SOL    HW238547   9.469   9.124   6.918 -0.1767 -1.9725  0.1602
 8830SOL     OW38548   8.989   6.060   8.189 -0.3408 -0.2090  0.6052
 8830SOL    HW138549   8.966   5.963   8.181  2.7798 -0.8911 -0.5213
 8830SOL    HW238550   9.047   6.074   8.269 -0.9347  0.7990  0.8749
 8831SOL     OW38551   1.046   8.296   6.495  0.1876  0.3926 -0.2298
 8831SOL    HW138552   1.048   8.390   6.529  0.6282 -0.0784  1.0767
 8831SOL    HW238553   1.010   8.236   6.566 -0.7477 -0.3358 -1.2984
 8832SOL     OW38554   7.692   3.850   8.311 -0.0008  0.0652 -0.4433
 8832SOL    HW138555   7.662   3.810   8.397 -0.1968  0.9959 -0.0711
 8832SOL    HW238556   7.789   3.830   8.297  0.4024  1.1435  0.7130
 8833SOL     OW38557   7.696   9.122   3.293  0.2367  0.1086 -0.2281
 8833SOL    HW138558   7.792   9.100   3.311  0.4357  1.0282 -0.1629
 8833SOL    HW238559   7.665   9.193   3.356  0.0666  1.1791 -1.4985
 8834SOL     OW38560   2.521   8.657   6.049  0.2087  0.6118 -0.3349
 8834SOL    HW138561   2.554   8.572   6.008 -2.5820 -0.8462  0.3233
 8834SOL    HW238562   2.487   8.718   5.977 -1.5126 -0.5344 -0.5360
 8835SOL     OW38563   4.896   0.033   4.157 -0.2576 -0.3983  0.2505
 8835SOL    HW138564   4.861  -0.060   4.163 -1.9615  0.2897  1.5668
 8835SOL    HW238565   4.876   0.081   4.243  1.1159  1.0077 -0.1928
 8836SOL     OW38566   0.047   7.259   0.775  0.0491 -0.1352 -0.2818
 8836SOL    HW138567   0.102   7.300   0.848 -0.3811 -0.2423  0.0982
 8836SOL    HW238568  -0.042   7.304   0.770 -0.1116 -0.4627 -0.4169
 8837SOL     OW38569   4.289   6.287   9.217 -0.5484 -0.1903  0.2408
 8837SOL    HW138570   4.206   6.273   9.163 -0.5419  0.0532  0.1701
 8837SOL    HW238571   4.275   6.253   9.310 -1.0417  0.7132  0.4982
 8838SOL     OW38572   9.669   1.116   9.032 -0.1579  0.5731 -0.8920
 8838SOL    HW138573   9.650   1.076   9.122 -0.9052  0.7701 -0.9574
 8838SOL    HW238574   9.767   1.136   9.024  0.0398 -0.2129 -0.4359
 8839SOL     OW38575   5.587   5.919   0.537 -0.0080  0.0134 -0.5323
 8839SOL    HW138576   5.658   5.966   0.590 -0.4468 -0.1064  0.1626
 8839SOL    HW238577   5.504   5.975   0.535  0.5673  0.8087 -2.5534
 8840SOL     OW38578   5.199   1.857   1.230  0.0566 -0.2842  0.0079
 8840SOL    HW138579   5.120   1.890   1.281  0.1964  0.5495 -0.3008
 8840SOL    HW238580   5.177   1.854   1.132  0.2837 -0.3957 -0.0418
 8841SOL     OW38581   3.159   8.471   9.268 -0.0340 -0.6845  0.3437
 8841SOL    HW138582   3.222   8.549   9.266 -2.0411  1.0572  1.8676
 8841SOL    HW238583   3.195   8.398   9.211  3.1142  0.4173  0.7861
 8842SOL     OW38584   3.417   3.198   1.450 -0.4191  0.0469  0.1317
 8842SOL    HW138585   3.344   3.152   1.499  0.8502 -0.0153  2.0441
 8842SOL    HW238586   3.437   3.149   1.365 -1.7980 -0.6007  0.1790
 8843SOL     OW38587   3.423   5.219   7.576 -0.1042  0.2208 -0.0929
 8843SOL    HW138588   3.494   5.245   7.642 -1.1832  0.5736  0.9548
 8843SOL    HW238589   3.400   5.298   7.519 -0.0379  0.2525 -0.0749
 8844SOL     OW38590   8.431   3.275   7.960  0.2504 -0.4874  0.0474
 8844SOL    HW138591   8.497   3.252   8.031 -0.7800 -0.7297  0.9351
 8844SOL    HW238592   8.472   3.341   7.897  1.3754 -0.7312  0.5187
 8845SOL     OW38593   2.365   4.537   9.464  0.7307 -0.2464  0.0678
 8845SOL    HW138594   2.377   4.599   9.387  1.4596  0.8874  1.0774
 8845SOL    HW238595   2.319   4.585   9.539 -1.0546 -1.6651 -0.0665
 8846SOL     OW38596   9.043   2.761   3.452 -0.8191  0.3701  0.6047
 8846SOL    HW138597   9.104   2.816   3.509 -1.5907  0.1090  1.6965
 8846SOL    HW238598   8.965   2.817   3.423  0.6901  1.1812 -2.1195
 8847SOL     OW38599   2.346   7.420   2.460  0.4647 -0.5887  0.2996
 8847SOL    HW138600   2.296   7.382   2.538 -0.3658 -1.3921 -0.6076
 8847SOL    HW238601   2.282   7.434   2.384  1.1660  0.6757 -0.0651
 8848SOL     OW38602   5.234   6.484   9.001  0.9095  0.6118  0.7880
 8848SOL    HW138603   5.137   6.472   8.983  0.8790  0.0675  1.2986
 8848SOL    HW238604   5.256   6.445   9.090  1.8407 -0.4284  0.1144
 8849SOL     OW38605   1.618   1.726   1.419 -0.2739  1.4015 -0.0483
 8849SOL    HW138606   1.582   1.794   1.483 -0.3717  1.1607  0.1531
 8849SOL    HW238607   1.714   1.745   1.401 -0.2242  1.4225  0.2368
 8850SOL     OW38608   4.453   9.065   7.879 -0.1840 -0.0116 -0.3617
 8850SOL    HW138609   4.539   9.014   7.871 -0.0054  0.2668 -0.2428
 8850SOL    HW238610   4.376   9.001   7.880  0.1629 -0.4753  2.2027
 8851SOL     OW38611   6.260   5.560   9.060 -0.0917 -0.3147  0.1628
 8851SOL    HW138612   6.291   5.636   9.118 -2.2359  1.2584 -0.6919
 8851SOL    HW238613   6.234   5.483   9.117  2.0169 -0.4086  1.0528
 8852SOL     OW38614   9.612   3.130   0.231  0.0135  0.3372  0.3505
 8852SOL    HW138615   9.673   3.197   0.274  0.9849 -1.5810  2.0136
 8852SOL    HW238616   9.579   3.066   0.300  0.3102 -1.8475 -1.4896
 8853SOL     OW38617   0.264   3.938   0.488  0.9053 -0.0977 -0.2493
 8853SOL    HW138618   0.326   3.860   0.483  0.7002 -0.2105 -1.0771
 8853SOL    HW238619   0.298   4.012   0.431 -1.0400 -1.0978 -2.8091
 8854SOL     OW38620   1.693   6.024   9.295  0.0640  0.6430 -0.0335
 8854SOL    HW138621   1.758   6.095   9.270 -0.5987  0.8422 -1.1959
 8854SOL    HW238622   1.734   5.965   9.365  2.0882 -0.1897 -1.8863
 8855SOL     OW38623   8.953   4.398   6.114  0.2551 -0.3803  0.4979
 8855SOL    HW138624   9.049   4.372   6.104  0.4417 -0.6820  2.9220
 8855SOL    HW238625   8.894   4.323   6.083  0.7823 -0.0931 -1.2383
 8856SOL     OW38626   6.569   8.059   2.523  0.4296 -0.3244  0.6718
 8856SOL    HW138627   6.554   7.963   2.549 -1.8302  0.3723  2.1536
 8856SOL    HW238628   6.664   8.085   2.542  0.7306 -1.9219  1.4050
 8857SOL     OW38629   4.540   4.843   6.935  0.5935 -0.2273 -0.6986
 8857SOL    HW138630   4.442   4.858   6.935  0.4691 -0.9721 -1.5254
 8857SOL    HW238631   4.566   4.792   7.017  0.1110 -1.1085 -1.0857
 8858SOL     OW38632   3.568   7.582   9.260 -0.1526 -0.3596 -0.3433
 8858SOL    HW138633   3.549   7.487   9.236  2.4867 -0.8167 -0.8567
 8858SOL    HW238634   3.536   7.601   9.353 -1.8395 -1.3658 -0.7031
 8859SOL     OW38635   9.399   1.439   6.419  0.4329  0.3734  0.2672
 8859SOL    HW138636   9.437   1.530   6.408  0.1952  0.3777 -0.5756
 8859SOL    HW238637   9.377   1.401   6.329 -0.6187 -0.0255  0.6797
 8860SOL     OW38638   0.155   8.555   1.158 -0.8116  0.0701  0.3857
 8860SOL    HW138639   0.055   8.569   1.160 -0.8308  0.1453 -0.7875
 8860SOL    HW238640   0.176   8.467   1.115 -0.3490  0.3996 -0.0734
 8861SOL     OW38641   6.738   6.702   4.706  0.2859  0.3678 -0.5562
 8861SOL    HW138642   6.796   6.644   4.763 -0.5237 -1.1036 -1.2154
 8861SOL    HW238643   6.655   6.727   4.756  0.4777  0.7017 -0.3975
 8862SOL     OW38644   0.139   9.347   7.542 -0.4991  0.0640  0.1876
 8862SOL    HW138645   0.146   9.445   7.557  1.1046  0.2251 -1.2885
 8862SOL    HW238646   0.121   9.329   7.445 -0.1367 -1.0897  0.3164
 8863SOL     OW38647   9.229   5.268   9.363  0.3237  0.0650  0.1577
 8863SOL    HW138648   9.290   5.333   9.318  2.2657 -1.7528  0.0592
 8863SOL    HW238649   9.173   5.222   9.294  1.6490 -1.0608 -0.1822
 8864SOL     OW38650   2.897   5.701   1.305  0.2776  0.7114  0.5052
 8864SOL    HW138651   2.874   5.782   1.252 -0.4380  1.4887  2.0015
 8864SOL    HW238652   2.969   5.650   1.258  0.6438  2.1394 -0.4920
 8865SOL     OW38653   8.617   9.439   0.293 -0.0543 -0.3616 -0.1178
 8865SOL    HW138654   8.699   9.408   0.244 -1.1590 -1.0248 -1.5919
 8865SOL    HW238655   8.576   9.362   0.342  0.6634  0.1542  1.3230
 8866SOL     OW38656   2.803   5.613   9.006 -0.1773 -0.0594 -0.1707
 8866SOL    HW138657   2.847   5.595   9.094  0.7172  0.4820 -0.4935
 8866SOL    HW238658   2.830   5.704   8.974 -2.7555  0.9056  0.3320
 8867SOL     OW38659   7.179   4.764   1.972 -0.2858 -0.1924  0.2547
 8867SOL    HW138660   7.157   4.824   1.895 -0.5061 -1.0592 -0.3692
 8867SOL    HW238661   7.152   4.671   1.950 -0.6975 -0.3857  1.5454
 8868SOL     OW38662   9.443   8.134   3.497 -0.3028  0.9216 -0.1468
 8868SOL    HW138663   9.423   8.064   3.565  0.5815 -1.0564 -1.8612
 8868SOL    HW238664   9.540   8.156   3.498 -0.1175  0.2222 -1.3539
 8869SOL     OW38665   7.431   7.005   1.716  0.8739  0.1911  0.0383
 8869SOL    HW138666   7.389   6.920   1.684 -0.7892  1.0669 -0.1144
 8869SOL    HW238667   7.426   7.009   1.815 -0.7222  0.9719 -0.0690
 8870SOL     OW38668   2.058   2.826   1.198 -0.1002 -0.6124  0.2969
 8870SOL    HW138669   2.098   2.917   1.188 -0.1736 -0.2049  3.1137
 8870SOL    HW238670   1.959   2.832   1.195 -0.1717 -0.2770  2.3470
 8871SOL     OW38671   7.202   2.210   2.353  0.6793 -0.6397 -0.4267
 8871SOL    HW138672   7.249   2.196   2.441  0.9706 -0.2152 -0.5081
 8871SOL    HW238673   7.198   2.308   2.334 -1.5618 -0.5664  0.2828
 8872SOL     OW38674   7.710   1.216   7.117  0.5165  0.6065 -0.1488
 8872SOL    HW138675   7.653   1.267   7.182  2.0379  1.4769  0.5294
 8872SOL    HW238676   7.685   1.120   7.120 -0.0624  0.7833  1.0614
 8873SOL     OW38677   1.800   0.305   4.837 -0.2538  1.2106 -0.0835
 8873SOL    HW138678   1.727   0.349   4.888 -1.3814  0.3687 -0.9497
 8873SOL    HW238679   1.862   0.374   4.800 -0.0234  1.8757  1.5200
 8874SOL     OW38680   7.511   1.408   9.295  0.1352 -0.2165 -0.0845
 8874SOL    HW138681   7.544   1.417   9.389 -1.2280 -1.6599  0.5581
 8874SOL    HW238682   7.580   1.360   9.240  0.7831  0.3055  0.2693
 8875SOL     OW38683   0.638   2.084   6.430  0.0868 -0.4493 -0.6024
 8875SOL    HW138684   0.624   2.065   6.527 -0.6846  2.2235 -0.1617
 8875SOL    HW238685   0.553   2.072   6.380 -0.0425  0.3101 -0.5724
 8876SOL     OW38686   7.579   7.832   5.144 -0.4191 -0.1255 -0.1474
 8876SOL    HW138687   7.616   7.916   5.183 -2.2702 -0.1441  1.8011
 8876SOL    HW238688   7.599   7.755   5.204 -2.9114 -0.2420  0.6166
 8877SOL     OW38689   7.365   4.049   2.121 -0.1370 -0.3250  0.3947
 8877SOL    HW138690   7.339   4.000   2.204 -0.4870  0.1441  0.5569
 8877SOL    HW238691   7.425   3.990   2.066 -1.7189 -1.5125 -0.1143
 8878SOL     OW38692   9.449   2.964   6.034 -0.5255 -0.3434 -0.5608
 8878SOL    HW138693   9.428   2.883   6.089 -2.2137  0.6487  0.3014
 8878SOL    HW238694   9.367   3.020   6.026  0.7507  1.5259 -0.7440
 8879SOL     OW38695   9.224   7.846   0.097  0.1380 -0.2576  0.0540
 8879SOL    HW138696   9.163   7.921   0.074  0.3399 -0.2702 -0.5285
 8879SOL    HW238697   9.188   7.760   0.062  1.3161 -0.0313 -1.7706
 8880SOL     OW38698   9.224   5.173   7.895 -0.1781  0.0602 -0.2986
 8880SOL    HW138699   9.133   5.132   7.883  0.7480 -1.9635 -0.5668
 8880SOL    HW238700   9.267   5.184   7.806 -0.0736  0.8398 -0.1522
 8881SOL     OW38701   3.299   1.558   2.394 -0.0132  0.2390 -0.2792
 8881SOL    HW138702   3.306   1.464   2.360 -0.6164  0.0707  0.0487
 8881SOL    HW238703   3.324   1.561   2.491 -0.9643  0.2348 -0.0266
 8882SOL     OW38704   6.089   0.895   5.204 -0.0530  0.0399  0.1873
 8882SOL    HW138705   6.130   0.805   5.223 -0.4887 -0.1900  0.0513
 8882SOL    HW238706   6.020   0.885   5.132  0.5605  0.6431 -0.5004
 8883SOL     OW38707   7.682   2.985   2.879 -0.2242  0.1082 -0.1331
 8883SOL    HW138708   7.607   2.987   2.812  0.7777  0.7305 -1.2546
 8883SOL    HW238709   7.685   3.072   2.928 -0.0754  0.1839 -0.2752
 8884SOL     OW38710   2.425   2.991   9.413 -0.3894 -0.0034 -0.5690
 8884SOL    HW138711   2.410   3.009   9.316  2.7150  0.2841 -1.0459
 8884SOL    HW238712   2.457   2.897   9.425 -0.6003  0.0143  0.1489
 8885SOL     OW38713   8.058   7.367   3.970  0.1845 -0.0489 -0.0532
 8885SOL    HW138714   8.116   7.321   4.037 -0.6707  0.3621  0.9973
 8885SOL    HW238715   8.078   7.465   3.970 -0.1769  0.0287 -0.0104
 8886SOL     OW38716   5.118   8.950   3.839 -0.1706 -0.1955  0.0977
 8886SOL    HW138717   5.123   8.888   3.761  1.0071  0.1602 -0.1133
 8886SOL    HW238718   5.143   9.042   3.810 -1.6032  0.3328  0.4826
 8887SOL     OW38719   3.249   4.546   7.638 -0.0993  0.2302 -0.1753
 8887SOL    HW138720   3.301   4.461   7.647 -1.5641 -0.8441 -1.4481
 8887SOL    HW238721   3.302   4.613   7.587  0.0008 -0.9068 -1.5957
 8888SOL     OW38722   6.243   8.870   4.327 -0.0601 -0.1325  0.6551
 8888SOL    HW138723   6.282   8.786   4.366 -0.5149  0.1937  1.8239
 8888SOL    HW238724   6.275   8.949   4.379 -0.6664  0.3108  0.3605
 8889SOL     OW38725   4.866   3.808   1.721 -0.1730 -0.7515 -0.2747
 8889SOL    HW138726   4.908   3.719   1.705  0.7538 -0.6452  1.4598
 8889SOL    HW238727   4.892   3.842   1.811 -0.4469  1.3207 -0.9391
 8890SOL     OW38728   2.924   3.465   0.637  0.1897  0.2404  0.3417
 8890SOL    HW138729   2.936   3.480   0.539 -0.1098 -3.2311 -0.3077
 8890SOL    HW238730   2.832   3.493   0.665 -1.2372 -2.5346 -1.3018
 8891SOL     OW38731   1.398   6.235   2.064  0.0360 -0.1400 -0.2784
 8891SOL    HW138732   1.338   6.185   2.001 -0.7992  0.1249  0.2928
 8891SOL    HW238733   1.346   6.260   2.146  0.4851  1.5110 -0.4738
 8892SOL     OW38734   3.505   1.576   5.902  0.4087  0.3281 -0.6871
 8892SOL    HW138735   3.466   1.649   5.845  0.7460  1.9579  1.1235
 8892SOL    HW238736   3.469   1.583   5.995  0.0020 -2.2086 -0.6144
 8893SOL     OW38737   9.927   2.662   4.740 -0.4235 -0.1393  0.5514
 8893SOL    HW138738   9.934   2.565   4.763 -2.5180 -0.9724 -2.1214
 8893SOL    HW238739   9.831   2.686   4.728  0.0497  2.3758  1.5427
 8894SOL     OW38740   4.843   4.240   5.574  0.2928  0.1695 -0.4380
 8894SOL    HW138741   4.877   4.267   5.664  1.7009  0.2627 -0.9872
 8894SOL    HW238742   4.896   4.162   5.540  1.0148  1.2907 -1.9738
 8895SOL     OW38743   1.584   4.356   7.094  0.2317 -0.0975 -0.0880
 8895SOL    HW138744   1.571   4.342   7.192  0.4919  0.8464  0.0827
 8895SOL    HW238745   1.682   4.355   7.072  0.2357  0.9939 -0.1383
 8896SOL     OW38746   0.568   5.274   8.431 -0.1682  0.2392 -0.0223
 8896SOL    HW138747   0.632   5.264   8.507 -0.4715 -0.4514  0.1506
 8896SOL    HW238748   0.609   5.238   8.348 -0.9552 -1.8148  0.4342
 8897SOL     OW38749   3.641   9.671   5.160  0.4467 -0.1109  0.3442
 8897SOL    HW138750   3.681   9.754   5.122 -0.0112  0.0007  0.0997
 8897SOL    HW238751   3.669   9.662   5.256  0.5744  0.2767  0.3458
 8898SOL     OW38752   8.345   0.122   4.273 -0.3984  0.0956  0.1598
 8898SOL    HW138753   8.425   0.160   4.320 -0.9914  2.0888 -0.3718
 8898SOL    HW238754   8.344   0.153   4.178 -1.8569  0.1879  0.1852
 8899SOL     OW38755   5.255   6.288   0.382  0.1258  0.4299  0.0233
 8899SOL    HW138756   5.220   6.380   0.399 -0.4112 -0.1080  1.9784
 8899SOL    HW238757   5.182   6.221   0.397  1.6253 -0.6241  3.0650
 8900SOL     OW38758   9.575   4.915   6.097 -0.2614  0.9257 -0.5941
 8900SOL    HW138759   9.581   4.815   6.087  0.5528  1.0675 -1.6559
 8900SOL    HW238760   9.506   4.937   6.166 -0.0682 -0.3839  0.0477
 8901SOL     OW38761   9.779   7.843   5.945 -0.0189 -0.7310  0.7373
 8901SOL    HW138762   9.838   7.924   5.936  0.7354 -1.4248 -0.8990
 8901SOL    HW238763   9.826   7.774   6.000 -0.1708 -0.4993  1.1561
 8902SOL     OW38764   9.042   0.972   8.806  0.4538 -0.1821  0.2454
 8902SOL    HW138765   9.035   0.920   8.721 -0.7890 -0.0172  0.2410
 8902SOL    HW238766   8.994   0.923   8.879  3.1650 -1.3102  1.3458
 8903SOL     OW38767   2.993   8.751   1.827 -0.2005 -0.6113  0.2231
 8903SOL    HW138768   2.983   8.690   1.748 -1.0572  0.4262 -0.4795
 8903SOL    HW238769   3.076   8.806   1.816 -1.1536  0.6479 -0.7272
 8904SOL     OW38770   2.444   7.607   1.890 -0.8606 -0.2898  0.0784
 8904SOL    HW138771   2.479   7.513   1.894  0.9777  0.3624 -0.4958
 8904SOL    HW238772   2.405   7.631   1.978  0.6750 -0.8314  0.9204
 8905SOL     OW38773   2.581   3.388   3.088 -0.1049 -0.5384 -0.7661
 8905SOL    HW138774   2.639   3.310   3.115 -0.1651 -1.9981 -4.6196
 8905SOL    HW238775   2.639   3.465   3.064  0.0518 -0.4627 -0.1743
 8906SOL     OW38776   0.994   5.987   8.245  0.4924 -0.0753  0.4516
 8906SOL    HW138777   1.083   5.945   8.260  0.3403 -0.3488  0.5933
 8906SOL    HW238778   1.006   6.077   8.203  0.8015 -0.4663 -0.3140
 8907SOL     OW38779   9.902   8.442   7.360 -0.3468 -0.1720  0.2573
 8907SOL    HW138780   9.877   8.538   7.347  0.2209 -0.2154 -1.2547
 8907SOL    HW238781  10.002   8.434   7.363 -0.4143 -0.5182  2.0348
 8908SOL     OW38782   9.465   7.425   6.557  0.4449  0.1035 -0.1466
 8908SOL    HW138783   9.414   7.415   6.642  1.1337  0.2998  0.2834
 8908SOL    HW238784   9.400   7.429   6.480 -0.2757  2.0697  0.5370
 8909SOL     OW38785   6.425   9.263   7.050 -0.2679  0.2383 -0.0978
 8909SOL    HW138786   6.441   9.303   6.959 -2.4943 -0.4519 -0.8118
 8909SOL    HW238787   6.352   9.313   7.096  0.0133 -0.1968  0.8344
 8910SOL     OW38788   7.916   0.706   3.581  0.2042  0.3692 -0.3934
 8910SOL    HW138789   7.845   0.775   3.564 -0.6193 -0.2037  0.6959
 8910SOL    HW238790   7.926   0.692   3.679  0.9017 -0.5197 -0.5877
 8911SOL     OW38791   5.426   9.805   5.993  0.1874  0.0070 -0.3097
 8911SOL    HW138792   5.397   9.881   6.052  1.0473 -0.2181  0.4152
 8911SOL    HW238793   5.357   9.789   5.923 -1.5155 -0.6488  1.4933
 8912SOL     OW38794   8.383   7.153   6.620  0.2338 -0.0093 -0.4091
 8912SOL    HW138795   8.402   7.128   6.715  0.6851  1.3648 -0.1298
 8912SOL    HW238796   8.284   7.157   6.605  0.1658 -0.1945  0.0015
 8913SOL     OW38797   7.073   5.646   7.745 -0.7123  0.3549  0.4253
 8913SOL    HW138798   7.118   5.593   7.673 -0.2138 -0.2090  1.1333
 8913SOL    HW238799   7.044   5.734   7.709  2.4649  1.4318  0.3482
 8914SOL     OW38800   7.518   4.200   7.623 -0.0260 -0.3506 -0.0191
 8914SOL    HW138801   7.520   4.162   7.531 -0.9223  1.8864 -1.0062
 8914SOL    HW238802   7.551   4.295   7.620 -2.0717  0.4397  1.6082
 8915SOL     OW38803   2.164   6.363   5.874 -0.9334  0.8641 -0.5401
 8915SOL    HW138804   2.163   6.280   5.930 -1.6249  1.9569  1.1091
 8915SOL    HW238805   2.243   6.362   5.814  0.6749  0.3465  1.5201
 8916SOL     OW38806   8.777   2.959   5.345 -0.2334 -0.2962  0.0538
 8916SOL    HW138807   8.696   2.918   5.303  0.1843 -0.2506 -0.8187
 8916SOL    HW238808   8.860   2.918   5.306  0.1839  1.0274 -0.4899
 8917SOL     OW38809   1.229   9.533   9.869 -0.7924 -0.5087  0.1410
 8917SOL    HW138810   1.259   9.521   9.774 -0.4718  0.2793  0.1390
 8917SOL    HW238811   1.300   9.501   9.931  0.6495  2.5759  0.1519
 8918SOL     OW38812   3.913   1.863   6.758 -0.4163 -0.6316 -0.0280
 8918SOL    HW138813   3.845   1.789   6.756 -2.2134  1.0095 -0.6939
 8918SOL    HW238814   3.903   1.915   6.842  0.0099 -0.3386 -0.1567
 8919SOL     OW38815   7.397   8.574   4.839  0.5889  1.5151 -0.2821
 8919SOL    HW138816   7.371   8.583   4.743 -1.8127  1.2203  0.3091
 8919SOL    HW238817   7.466   8.503   4.849 -0.7250  0.0262 -1.5457
 8920SOL     OW38818   1.779   1.300   6.254  0.5374  0.4195 -0.0894
 8920SOL    HW138819   1.777   1.243   6.172  0.2644  1.3556 -0.7434
 8920SOL    HW238820   1.715   1.376   6.244  1.1109  1.0151  0.6462
 8921SOL     OW38821   0.865   9.525   0.138 -0.3376  0.0418 -0.3778
 8921SOL    HW138822   0.960   9.531   0.107 -0.3013 -0.7215 -0.4182
 8921SOL    HW238823   0.804   9.561   0.068 -0.0804  0.5340 -0.3501
 8922SOL     OW38824   0.479   2.208   5.211  0.0488 -0.2221  0.5988
 8922SOL    HW138825   0.529   2.285   5.170  0.0658 -0.6534 -0.1863
 8922SOL    HW238826   0.542   2.153   5.266  0.7563 -1.5504 -1.4893
 8923SOL     OW38827   9.918   9.706   6.708  0.1375  0.9600  0.7311
 8923SOL    HW138828   9.917   9.614   6.670 -1.8550  0.6427  1.5260
 8923SOL    HW238829  10.012   9.742   6.706  0.9158 -1.0577  0.4064
 8924SOL     OW38830   9.191   3.213   7.021 -0.0189  0.0606 -0.2140
 8924SOL    HW138831   9.255   3.150   7.065 -0.2336  0.0493  0.0928
 8924SOL    HW238832   9.100   3.199   7.061 -0.7308 -1.6072 -2.3138
 8925SOL     OW38833   6.061   5.750   1.598 -0.3323 -0.5413  0.3030
 8925SOL    HW138834   6.146   5.744   1.650 -0.4175  0.8922  0.6287
 8925SOL    HW238835   5.986   5.779   1.658 -0.8536 -0.8773 -0.1762
 8926SOL     OW38836   7.891   4.920   7.725 -0.3780 -0.3714  0.5368
 8926SOL    HW138837   7.963   4.851   7.724  0.8723  0.9217 -0.9501
 8926SOL    HW238838   7.806   4.879   7.758  0.3708 -2.5617 -0.1967
 8927SOL     OW38839   4.528   4.694   9.297  0.7780  0.1349  0.3810
 8927SOL    HW138840   4.498   4.634   9.223 -1.9221  1.7123  0.1127
 8927SOL    HW238841   4.517   4.646   9.385 -1.5120  0.2636  0.1891
 8928SOL     OW38842   2.611   0.448   8.778 -0.3076  0.5054  0.0075
 8928SOL    HW138843   2.623   0.432   8.876  0.6176  0.7677 -0.0643
 8928SOL    HW238844   2.516   0.427   8.753  0.1916 -2.4242  0.4053
 8929SOL     OW38845   5.520   4.306   2.553 -0.2486 -0.2306  0.0541
 8929SOL    HW138846   5.544   4.396   2.515 -0.1460 -0.2871 -0.0189
 8929SOL    HW238847   5.578   4.288   2.632 -0.1423 -0.3107 -0.0416
 8930SOL     OW38848   7.550   6.872   4.070  0.6026  0.1468 -0.1246
 8930SOL    HW138849   7.588   6.839   3.984 -0.5720 -0.6823 -0.3440
 8930SOL    HW238850   7.533   6.971   4.064 -0.4725 -0.0922 -1.2395
 8931SOL     OW38851   9.207   8.145   1.851 -0.5356 -0.6536 -0.1094
 8931SOL    HW138852   9.116   8.103   1.857 -1.6358  1.9372  2.5215
 8931SOL    HW238853   9.260   8.120   1.932 -0.6887  1.7343  0.7704
 8932SOL     OW38854   4.916   0.835   6.734  0.1428 -0.2934 -0.0088
 8932SOL    HW138855   5.010   0.805   6.722 -0.0503 -0.7040 -0.5047
 8932SOL    HW238856   4.908   0.885   6.820  0.7258 -0.6034  0.2277
 8933SOL     OW38857   9.969   1.363   0.238  0.1798  0.7278 -0.5934
 8933SOL    HW138858  10.065   1.338   0.227 -0.1385 -0.1257 -1.4686
 8933SOL    HW238859   9.914   1.317   0.169 -1.0842 -0.1369  0.9419
 8934SOL     OW38860   0.997   6.276   6.535 -0.0825 -0.1305  0.3727
 8934SOL    HW138861   1.061   6.205   6.508  0.1205  1.0002 -2.2539
 8934SOL    HW238862   0.915   6.271   6.478  0.0476  1.9040 -0.0413
 8935SOL     OW38863   0.506   3.598   6.755  0.2798  0.0355  0.6528
 8935SOL    HW138864   0.504   3.528   6.684 -1.8042  0.7967 -0.0813
 8935SOL    HW238865   0.531   3.686   6.715  0.4703  0.1901  1.1110
 8936SOL     OW38866   6.371   9.325   2.079  0.2673  0.5992  0.2455
 8936SOL    HW138867   6.332   9.268   2.006 -0.1681  0.3285  0.6881
 8936SOL    HW238868   6.348   9.286   2.168 -0.2170  1.5910  0.5584
 8937SOL     OW38869   3.316   5.903   9.390  0.2888  0.1459 -0.2858
 8937SOL    HW138870   3.374   5.968   9.439 -0.3326  1.9827 -1.9383
 8937SOL    HW238871   3.373   5.834   9.345  1.0060  0.1482  0.6045
 8938SOL     OW38872   6.862   0.628   0.836 -0.3265 -0.5605  0.0389
 8938SOL    HW138873   6.786   0.595   0.779 -0.1393 -0.7221 -0.1208
 8938SOL    HW238874   6.947   0.589   0.802 -0.2618 -1.0124  0.7076
 8939SOL     OW38875   3.798   7.489   1.254 -0.2768  0.3048 -0.1521
 8939SOL    HW138876   3.801   7.587   1.271 -0.7414  0.4690 -0.9935
 8939SOL    HW238877   3.731   7.446   1.316 -1.6472  0.8322 -1.2522
 8940SOL     OW38878   9.350   0.903   6.868  0.0596  0.3242 -0.1956
 8940SOL    HW138879   9.273   0.888   6.930 -0.8696  2.5148 -0.7760
 8940SOL    HW238880   9.349   0.833   6.797 -0.7561 -0.2858  0.3955
 8941SOL     OW38881   0.972   4.860   9.666  0.2817  0.3047 -0.5671
 8941SOL    HW138882   1.023   4.794   9.722 -0.8641  0.0617  0.2088
 8941SOL    HW238883   0.990   4.952   9.699  0.6002  0.2581 -0.6062
 8942SOL     OW38884   2.940   1.946   8.381  0.3241  0.2309 -0.1602
 8942SOL    HW138885   2.919   2.026   8.437  1.2964  0.0934  0.4015
 8942SOL    HW238886   2.868   1.934   8.312 -0.2193  1.1363  0.2426
 8943SOL     OW38887   8.349   8.834   6.150 -0.1842  0.3244  0.5374
 8943SOL    HW138888   8.422   8.880   6.099  0.1257 -0.8282 -0.0928
 8943SOL    HW238889   8.344   8.872   6.242  0.8044  0.8424  0.3908
 8944SOL     OW38890   8.358   8.117   7.354 -0.3817 -0.1017 -0.5987
 8944SOL    HW138891   8.385   8.022   7.369 -1.4156 -0.7379 -2.5772
 8944SOL    HW238892   8.439   8.172   7.337  0.1629 -0.7716 -0.2081
 8945SOL     OW38893   3.326   9.900   6.230 -0.0567 -0.0717  0.8686
 8945SOL    HW138894   3.360   9.849   6.151 -1.0080  1.6351 -0.6907
 8945SOL    HW238895   3.403   9.923   6.290  0.5349 -2.2565  0.9931
 8946SOL     OW38896   6.861   4.684   8.699  0.0777  0.1060  0.0608
 8946SOL    HW138897   6.901   4.605   8.745 -1.4086 -0.3440  0.5975
 8946SOL    HW238898   6.781   4.655   8.646  0.3834  1.0145 -0.9205
 8947SOL     OW38899   2.270   8.243   5.737  0.2109  0.1922 -0.2686
 8947SOL    HW138900   2.327   8.312   5.692  1.6242  1.0013  2.6663
 8947SOL    HW238901   2.322   8.158   5.746 -0.2076 -0.0903 -0.5084
 8948SOL     OW38902   9.517   0.124   2.992 -0.3149  0.5901  0.5890
 8948SOL    HW138903   9.570   0.096   3.073 -1.7902  0.4677  1.5203
 8948SOL    HW238904   9.510   0.047   2.928  0.1281  0.4303  0.7305
 8949SOL     OW38905   9.594   2.202   5.955 -0.5762 -0.2760 -0.8163
 8949SOL    HW138906   9.564   2.116   5.913 -0.3564 -0.2364 -1.0612
 8949SOL    HW238907   9.665   2.183   6.023  0.1771 -0.2052 -1.5696
 8950SOL     OW38908   0.040   6.376   3.598 -0.1709 -0.6292 -0.0606
 8950SOL    HW138909   0.107   6.446   3.572 -2.1064  0.7203 -1.6174
 8950SOL    HW238910   0.086   6.288   3.607  1.8670  0.3229 -0.7636
 8951SOL     OW38911   4.836   5.796   7.486  0.1159 -0.3419 -0.7775
 8951SOL    HW138912   4.787   5.708   7.489 -0.3146 -0.2299 -3.1594
 8951SOL    HW238913   4.769   5.871   7.485  0.4223 -0.0696 -0.7975
 8952SOL     OW38914   8.188   1.297   3.985 -0.0989 -0.4020 -0.2259
 8952SOL    HW138915   8.167   1.245   3.902 -2.5622 -2.0920  1.4035
 8952SOL    HW238916   8.156   1.391   3.973  0.7934 -0.2664 -1.6939
 8953SOL     OW38917   0.011   5.530   4.491 -0.0744  0.2859  0.3457
 8953SOL    HW138918  -0.048   5.478   4.428  0.6855  0.9637 -0.9565
 8953SOL    HW238919  -0.037   5.612   4.521 -0.9816 -0.7596  1.7909
 8954SOL     OW38920   2.219   2.329   2.848  0.0461 -0.1805 -0.9463
 8954SOL    HW138921   2.228   2.232   2.870 -1.4608 -0.1117  0.1021
 8954SOL    HW238922   2.294   2.380   2.891 -1.6917 -0.3280  2.4495
 8955SOL     OW38923   3.455   5.268   1.184 -0.0256 -0.4287 -0.2504
 8955SOL    HW138924   3.363   5.275   1.146 -0.1668  0.5918  0.2508
 8955SOL    HW238925   3.496   5.181   1.157 -0.9500 -0.6761 -0.8828
 8956SOL     OW38926   1.612   8.000   8.297 -0.1565 -0.4190 -0.3089
 8956SOL    HW138927   1.659   7.931   8.241  2.2598 -0.1067  1.2454
 8956SOL    HW238928   1.594   8.081   8.241  0.9543 -0.6364 -1.0051
 8957SOL     OW38929   7.629   5.878   7.352 -0.7691 -0.0939 -0.1246
 8957SOL    HW138930   7.643   5.844   7.259  0.4155  0.8118 -0.2869
 8957SOL    HW238931   7.706   5.853   7.409 -1.0982  0.0857  0.4043
 8958SOL     OW38932   9.772   5.255   1.800 -0.7154  0.7167  0.0525
 8958SOL    HW138933   9.869   5.267   1.824 -0.6962  1.3349 -0.3168
 8958SOL    HW238934   9.716   5.300   1.870 -0.7497  0.0243  0.4738
 8959SOL     OW38935   8.161   2.395   1.100 -0.0552 -0.1929  0.3544
 8959SOL    HW138936   8.226   2.356   1.165  0.1173  1.7715  1.3984
 8959SOL    HW238937   8.211   2.447   1.031 -0.4587  0.7314  0.7522
 8960SOL     OW38938   2.550   7.058   9.452 -0.2143 -0.1147  0.7256
 8960SOL    HW138939   2.489   6.997   9.401 -0.9433 -0.4257  1.9568
 8960SOL    HW238940   2.617   7.097   9.389 -0.2965 -1.4868 -0.2466
 8961SOL     OW38941   3.553   8.691   5.083  0.5917  0.2663  0.0181
 8961SOL    HW138942   3.530   8.604   5.039 -1.6692  0.5319  0.6068
 8961SOL    HW238943   3.552   8.764   5.015 -0.0468  0.2227 -0.0230
 8962SOL     OW38944   4.061   3.089   7.880 -0.5996  0.3334 -0.1752
 8962SOL    HW138945   3.995   3.048   7.943 -1.8479  1.8722 -0.4336
 8962SOL    HW238946   4.095   3.175   7.920  1.1291 -0.3555 -0.1256
 8963SOL     OW38947   1.954   3.604   1.441  0.0427  0.4298  0.0088
 8963SOL    HW138948   1.962   3.689   1.495  0.2539 -1.4269  3.0432
 8963SOL    HW238949   2.044   3.577   1.407  0.4024  0.1269  1.1705
 8964SOL     OW38950   1.918   8.605   2.254 -0.6602  0.0005 -0.0423
 8964SOL    HW138951   1.980   8.640   2.325 -0.7939  0.3678 -0.1072
 8964SOL    HW238952   1.965   8.535   2.201 -0.9278 -1.0902  1.1335
 8965SOL     OW38953   8.188   5.040   7.194 -0.6114  0.6437 -0.3164
 8965SOL    HW138954   8.245   5.012   7.272 -1.8763 -1.7683 -0.1880
 8965SOL    HW238955   8.242   5.093   7.130  1.4256 -0.4142  0.4816
 8966SOL     OW38956   0.714   2.485   1.891 -0.5380  0.0327 -0.0566
 8966SOL    HW138957   0.772   2.456   1.967  0.6734 -0.9199 -1.3241
 8966SOL    HW238958   0.670   2.405   1.850 -0.4821  0.4458 -0.9266
 8967SOL     OW38959   2.561   5.436   8.186  0.1248 -0.7258 -0.0816
 8967SOL    HW138960   2.557   5.527   8.226  1.5532 -0.5066 -0.3980
 8967SOL    HW238961   2.483   5.382   8.218  0.3769 -0.0502  1.7607
 8968SOL     OW38962   6.104   1.379   0.666  0.0518  0.0973  0.0041
 8968SOL    HW138963   6.073   1.473   0.682  0.5365  0.5991 -1.8809
 8968SOL    HW238964   6.200   1.371   0.690 -0.1844 -0.1247  0.8960
 8969SOL     OW38965   7.545   6.775   5.400 -0.6550 -0.1408 -0.3651
 8969SOL    HW138966   7.494   6.747   5.481 -0.1591 -0.2385 -0.0837
 8969SOL    HW238967   7.616   6.708   5.380  0.9802  1.2236  0.7066
 8970SOL     OW38968   9.237   0.372   9.364 -0.0079  0.6751  0.4398
 8970SOL    HW138969   9.207   0.294   9.309  0.5410  0.2080  0.8009
 8970SOL    HW238970   9.282   0.439   9.305 -0.0048  0.4762  0.2159
 8971SOL     OW38971   1.486   4.237   1.817  0.2214  0.0004 -0.2623
 8971SOL    HW138972   1.460   4.324   1.860  1.2630 -0.0069  0.3923
 8971SOL    HW238973   1.474   4.163   1.883  0.9557 -0.1287 -0.2764
 8972SOL     OW38974   4.024   2.297   9.168 -0.0444 -0.9154  0.0373
 8972SOL    HW138975   4.088   2.257   9.233  0.0239 -0.1983  0.4148
 8972SOL    HW238976   4.044   2.263   9.076  1.2118 -0.2744  0.0744
 8973SOL     OW38977   3.710   4.223   4.983  0.6121 -0.3972 -0.1662
 8973SOL    HW138978   3.751   4.299   5.034 -1.7085  0.6727  0.1962
 8973SOL    HW238979   3.723   4.237   4.885 -2.4418  2.1429 -0.2777
 8974SOL     OW38980   2.172   9.203   8.678  0.3300  0.5278  0.1206
 8974SOL    HW138981   2.223   9.135   8.731  0.2693  0.0829 -0.3861
 8974SOL    HW238982   2.234   9.249   8.615 -0.3228 -1.8659 -2.3974
 8975SOL     OW38983   6.980   4.790   8.446 -0.1062 -0.2553 -0.1942
 8975SOL    HW138984   6.951   4.733   8.522 -0.1307 -0.3759 -0.2930
 8975SOL    HW238985   6.958   4.886   8.466 -0.4778 -0.3332 -0.2228
 8976SOL     OW38986   2.851   3.657   4.566 -0.1915  0.8457 -0.6892
 8976SOL    HW138987   2.833   3.727   4.497  0.9667  0.7356 -1.1130
 8976SOL    HW238988   2.765   3.612   4.591 -0.8882  2.1346 -0.7083
 8977SOL     OW38989   7.092   3.763   7.992 -0.3458  0.0111 -0.0132
 8977SOL    HW138990   7.028   3.836   7.971  1.0789  2.0347  2.4429
 8977SOL    HW238991   7.181   3.783   7.949 -0.1072 -0.5824  0.1924
 8978SOL     OW38992   9.319   2.254   5.633  0.4988 -0.1831 -0.3915
 8978SOL    HW138993   9.313   2.267   5.534 -3.0915 -2.2883 -0.5281
 8978SOL    HW238994   9.300   2.340   5.680  0.7138  0.4731 -1.4977
 8979SOL     OW38995   3.461   8.374   9.370 -0.2285  0.4487  0.7073
 8979SOL    HW138996   3.416   8.340   9.453 -0.1644  1.5670  1.2184
 8979SOL    HW238997   3.550   8.414   9.396 -0.9016  2.2332  0.3311
 8980SOL     OW38998   0.312   6.288   6.247  0.1227  0.4933  0.0856
 8980SOL    HW138999   0.233   6.292   6.308  1.8393  0.9979  2.3989
 8980SOL    HW239000   0.359   6.377   6.248  0.7085  0.2112 -1.2703
 8981SOL     OW39001   8.601   8.829   7.575 -0.0553  0.2636 -0.2020
 8981SOL    HW139002   8.693   8.792   7.585  0.6631  1.5937 -1.5551
 8981SOL    HW239003   8.536   8.771   7.622  0.9397 -2.9637 -2.6207
 8982SOL     OW39004   3.276   8.782   1.291  0.0158  0.0612  0.5798
 8982SOL    HW139005   3.310   8.709   1.232 -1.1041  0.4180 -0.5258
 8982SOL    HW239006   3.349   8.849   1.307  0.5832 -0.4889  0.3287
 8983SOL     OW39007   8.268   4.935   7.436  0.0776 -0.5295 -0.1505
 8983SOL    HW139008   8.202   4.862   7.452  0.6949 -0.8179  1.1979
 8983SOL    HW239009   8.332   4.940   7.513  0.3029  1.1565 -0.4164
 8984SOL     OW39010   8.845   7.313   4.639  0.1427  0.3256 -0.0816
 8984SOL    HW139011   8.746   7.315   4.627  0.1595 -0.3071 -0.3915
 8984SOL    HW239012   8.889   7.355   4.560  0.1412 -0.1089 -0.3143
 8985SOL     OW39013   4.016   5.567   2.573  0.6496  0.2602  0.2522
 8985SOL    HW139014   3.958   5.533   2.500  0.2155  1.0178  0.2420
 8985SOL    HW239015   3.992   5.523   2.659  1.0272 -0.4839 -0.0209
 8986SOL     OW39016   3.048   9.408   7.098  0.1437 -0.5664 -0.3834
 8986SOL    HW139017   2.989   9.362   7.031 -1.3063  0.7935 -0.0698
 8986SOL    HW239018   3.130   9.442   7.051  0.0520 -1.2888 -1.0916
 8987SOL     OW39019   2.706   8.869   9.876  0.3151  0.0822 -0.7246
 8987SOL    HW139020   2.675   8.777   9.851 -1.0717  0.1033  0.8352
 8987SOL    HW239021   2.628   8.923   9.909  1.4373  1.2398  0.0985
 8988SOL     OW39022   3.463   6.530   8.105 -0.2939 -0.6509 -0.0383
 8988SOL    HW139023   3.451   6.629   8.100 -1.6648 -0.7862  0.2993
 8988SOL    HW239024   3.498   6.496   8.018  2.2286  0.3759  0.5369
 8989SOL     OW39025   9.806   5.648   6.930  0.3774 -0.2470 -0.1104
 8989SOL    HW139026   9.729   5.637   6.868 -0.9691  0.4958  1.3672
 8989SOL    HW239027   9.890   5.661   6.878 -0.6762  0.0877 -1.7644
 8990SOL     OW39028   2.437   9.734   1.497 -0.1792  0.2402 -0.4882
 8990SOL    HW139029   2.351   9.769   1.460 -0.6950  0.6966  1.1054
 8990SOL    HW239030   2.502   9.810   1.508  0.5245 -0.1382 -1.9094
 8991SOL     OW39031   3.904   2.808   8.151  0.0954  0.8726  0.0922
 8991SOL    HW139032   3.900   2.898   8.194  1.3693  0.1300  1.8145
 8991SOL    HW239033   3.884   2.816   8.053 -0.0115  2.9829  0.2800
 8992SOL     OW39034   7.269   8.462   5.796  0.3022  0.3604 -0.4556
 8992SOL    HW139035   7.312   8.511   5.720  1.9928 -0.5476 -0.0976
 8992SOL    HW239036   7.320   8.479   5.880  1.4144 -2.6316 -0.4680
 8993SOL     OW39037   9.902   6.813   3.825  0.0229 -0.1802  0.1895
 8993SOL    HW139038   9.958   6.784   3.747 -1.2447 -0.5583 -0.5965
 8993SOL    HW239039   9.863   6.732   3.868  0.6719  0.0368  1.1921
 8994SOL     OW39040   1.499   3.289  10.003 -0.4366  0.1296 -0.1292
 8994SOL    HW139041   1.499   3.316   9.906  2.4621 -0.4450 -0.3313
 8994SOL    HW239042   1.552   3.355  10.056  0.8089 -1.3775  0.5199
 8995SOL     OW39043   8.131   6.728   5.228 -0.3981  0.1013 -0.0357
 8995SOL    HW139044   8.082   6.745   5.143 -0.3200  0.5847  0.0175
 8995SOL    HW239045   8.077   6.761   5.305 -0.2132  0.1791  0.0615
 8996SOL     OW39046   3.263   0.570   9.710  0.4417  0.0326  1.0492
 8996SOL    HW139047   3.288   0.632   9.784  1.6958  1.1706 -0.2939
 8996SOL    HW239048   3.344   0.519   9.682 -0.3531 -1.4661  1.4279
 8997SOL     OW39049   5.374   9.664   6.570 -0.5334  0.2365  0.0197
 8997SOL    HW139050   5.440   9.592   6.546 -0.1421  0.1136  1.4417
 8997SOL    HW239051   5.405   9.711   6.653 -1.3535  1.3257 -0.2880
 8998SOL     OW39052   7.550   3.165   3.093 -0.4260 -0.1216  0.4785
 8998SOL    HW139053   7.572   3.100   3.166 -0.2982 -1.4570 -0.7260
 8998SOL    HW239054   7.553   3.258   3.129 -0.7406 -0.7869  2.2592
 8999SOL     OW39055   0.917   4.383   6.845  0.0718  0.4769  0.0759
 8999SOL    HW139056   1.008   4.343   6.836 -0.3942 -0.5499 -0.2605
 8999SOL    HW239057   0.898   4.402   6.941 -0.0242 -0.9423  0.3593
 9000SOL     OW39058   9.885   8.219   0.265  0.2556  0.7370  0.1197
 9000SOL    HW139059   9.856   8.229   0.361  1.1546  0.6477  0.4105
 9000SOL    HW239060   9.815   8.257   0.205 -1.5935 -1.6892  0.6687
 9001SOL     OW39061   7.934   2.386   4.342 -0.1222 -0.3900  0.2100
 9001SOL    HW139062   7.920   2.479   4.375  0.6109 -0.6502  1.2732
 9001SOL    HW239063   7.867   2.366   4.270 -1.4061  0.3495  1.1722
 9002SOL     OW39064   6.154   1.153   6.945  0.4792 -0.7025 -0.0651
 9002SOL    HW139065   6.240   1.190   6.982  0.1199  1.0528 -0.9323
 9002SOL    HW239066   6.137   1.193   6.855 -0.5788 -2.0692 -0.4830
 9003SOL     OW39067   7.622   5.257   1.271  0.0572  0.2160 -0.1985
 9003SOL    HW139068   7.543   5.202   1.244 -0.0833  0.4735 -0.3151
 9003SOL    HW239069   7.592   5.332   1.329  0.0942  0.8374 -0.9738
 9004SOL     OW39070   0.722   9.378   8.883  0.2704 -0.2770  0.2387
 9004SOL    HW139071   0.693   9.289   8.847  0.1802 -0.8117  1.5952
 9004SOL    HW239072   0.779   9.364   8.964  0.3397  0.9080  0.4011
 9005SOL     OW39073   9.402   5.440   9.216  0.2751 -0.8906  0.6399
 9005SOL    HW139074   9.376   5.524   9.264 -0.9513 -0.9840  0.1594
 9005SOL    HW239075   9.498   5.445   9.190 -0.0460  0.8080 -0.3049
 9006SOL     OW39076   1.025   0.851   7.044 -0.5065 -0.0987 -0.4465
 9006SOL    HW139077   1.007   0.917   6.971 -3.7003 -0.3557  0.0333
 9006SOL    HW239078   1.097   0.886   7.104  0.0953  1.4629 -2.0403
 9007SOL     OW39079   7.992   7.931   2.027 -0.0639  0.1179 -0.5136
 9007SOL    HW139080   7.959   7.843   1.994  0.9198 -0.4602  0.0199
 9007SOL    HW239081   8.062   7.917   2.097 -1.2306  1.3087  0.9466
 9008SOL     OW39082   9.127   5.488   4.257 -0.1483 -0.4243  0.0101
 9008SOL    HW139083   9.078   5.402   4.246 -2.0859  0.6845 -0.3369
 9008SOL    HW239084   9.090   5.556   4.193  0.5061  1.0109  1.1191
 9009SOL     OW39085   4.079   5.949   9.297 -0.1483  0.2742  0.1722
 9009SOL    HW139086   4.016   5.971   9.371  0.6533  0.9633  0.6499
 9009SOL    HW239087   4.077   6.022   9.228 -1.3045 -0.6302 -0.7599
 9010SOL     OW39088   9.086   3.826   2.862  0.1369  0.4948  0.3434
 9010SOL    HW139089   9.159   3.758   2.873  0.0885  0.7244  2.0749
 9010SOL    HW239090   9.027   3.826   2.942 -1.4301  0.7529 -0.7845
 9011SOL     OW39091   1.314   9.059   9.657 -0.3340 -0.3743  0.5022
 9011SOL    HW139092   1.248   9.051   9.732 -0.8496 -2.4268 -0.1374
 9011SOL    HW239093   1.268   9.094   9.576 -0.5893 -1.4814  0.1549
 9012SOL     OW39094   0.477   9.868   9.757  0.7234  0.5816  0.1468
 9012SOL    HW139095   0.576   9.865   9.775  1.2213  1.3166 -2.2441
 9012SOL    HW239096   0.434   9.787   9.796  2.5819 -0.7436 -0.4610
 9013SOL     OW39097   3.538   0.364   4.581  0.1192 -0.7306  0.0846
 9013SOL    HW139098   3.514   0.339   4.675 -2.8544  1.4354 -0.0486
 9013SOL    HW239099   3.595   0.446   4.582  0.7408 -1.1523 -0.0040
 9014SOL     OW39100   1.559   1.161   0.852  0.2230 -0.0185 -0.5951
 9014SOL    HW139101   1.645   1.198   0.888  0.6995 -3.8940  2.6301
 9014SOL    HW239102   1.578   1.105   0.772  0.2863  1.4469 -1.6276
 9015SOL     OW39103   1.666   1.169   3.119  0.1841 -0.0860  0.5735
 9015SOL    HW139104   1.666   1.230   3.198 -0.5726 -0.5404  0.9277
 9015SOL    HW239105   1.617   1.213   3.043  0.1597 -0.0035  0.6376
 9016SOL     OW39106   3.655   4.847   9.826  0.3018  0.1893 -0.0278
 9016SOL    HW139107   3.724   4.774   9.829 -0.6544 -0.7081  0.2864
 9016SOL    HW239108   3.654   4.894   9.914  2.5432  2.1333 -0.9763
 9017SOL     OW39109   1.991   3.274   2.501 -0.0563 -0.3423  0.1278
 9017SOL    HW139110   1.917   3.275   2.568 -0.5246  1.0237 -0.4098
 9017SOL    HW239111   2.073   3.316   2.541 -0.2528  0.2199 -0.0597
 9018SOL     OW39112   2.449   7.392   7.526  0.8006 -0.5469 -0.7232
 9018SOL    HW139113   2.437   7.377   7.625 -0.8985  0.1429 -0.7996
 9018SOL    HW239114   2.455   7.491   7.508  0.8445 -0.6596 -1.3314
 9019SOL     OW39115   2.849   9.629   8.840 -0.1561 -0.0045  0.4948
 9019SOL    HW139116   2.871   9.625   8.937  0.8637  2.3676  0.3973
 9019SOL    HW239117   2.806   9.717   8.819  1.3047  0.2726 -1.5168
 9020SOL     OW39118   7.344   8.497   6.424  0.0523 -0.0386 -0.0193
 9020SOL    HW139119   7.339   8.429   6.351 -0.9089  1.6211 -1.5384
 9020SOL    HW239120   7.264   8.557   6.420 -0.5537 -0.5211  3.0457
 9021SOL     OW39121   9.066   4.572   2.008 -0.6179  0.5471  0.2292
 9021SOL    HW139122   9.016   4.599   2.090 -0.3395  0.5528  0.4002
 9021SOL    HW239123   9.156   4.536   2.035 -0.5677  0.4540 -0.0666
 9022SOL     OW39124   1.701   3.803   9.223  0.7820 -0.1653 -0.0634
 9022SOL    HW139125   1.753   3.785   9.307  4.3469  1.9764 -1.6913
 9022SOL    HW239126   1.672   3.899   9.222  1.9063  0.1819 -1.8105
 9023SOL     OW39127   2.962   4.289   0.655 -0.1331  0.1438  0.5745
 9023SOL    HW139128   2.936   4.305   0.750 -0.5873  0.2142  0.4395
 9023SOL    HW239129   2.960   4.376   0.605  0.0945  0.1051  0.5005
 9024SOL     OW39130   9.082   3.463   1.109 -0.1610  0.3672 -0.3004
 9024SOL    HW139131   9.000   3.511   1.139 -0.3445 -0.4007  0.4299
 9024SOL    HW239132   9.162   3.520   1.126 -0.3149  0.1693  1.1536
 9025SOL     OW39133   0.550   1.513   5.699  0.8847 -0.7309  0.4773
 9025SOL    HW139134   0.535   1.600   5.652  1.0408 -1.6107 -1.2364
 9025SOL    HW239135   0.488   1.444   5.662  0.7853 -1.3772  1.8048
 9026SOL     OW39136   3.256   1.601   6.762  0.1906  0.2882  0.0260
 9026SOL    HW139137   3.163   1.597   6.798  0.5736 -0.2972  0.9797
 9026SOL    HW239138   3.262   1.671   6.690 -0.9101  0.5140  0.1512
 9027SOL     OW39139   9.176   4.158   2.675 -0.2076  0.5467 -0.4249
 9027SOL    HW139140   9.086   4.132   2.640 -0.5354  0.7514  0.2580
 9027SOL    HW239141   9.247   4.120   2.616 -0.6911 -1.2979  0.1262
 9028SOL     OW39142   2.174   8.671   3.343  0.9585  0.0166 -0.4737
 9028SOL    HW139143   2.243   8.742   3.331  1.0316  0.0709  0.2721
 9028SOL    HW239144   2.215   8.581   3.328  1.0132  0.0932 -0.7870
 9029SOL     OW39145   0.962   8.184   2.463  0.2431  0.1905 -0.7177
 9029SOL    HW139146   1.017   8.157   2.542  1.0800  0.1712 -1.3001
 9029SOL    HW239147   0.941   8.103   2.408 -0.3309  0.2048 -0.5235
 9030SOL     OW39148   4.022   6.956   2.292  0.7311 -0.3506  0.1908
 9030SOL    HW139149   4.111   6.981   2.331  0.2963  3.2155 -0.9080
 9030SOL    HW239150   4.034   6.933   2.195  0.3912  0.5601 -0.0665
 9031SOL     OW39151   2.295   1.362   2.617 -0.4450  0.6150  0.5575
 9031SOL    HW139152   2.221   1.297   2.633  0.0331 -0.1601 -0.3559
 9031SOL    HW239153   2.360   1.324   2.551 -0.7700  2.4715 -0.8822
 9032SOL     OW39154   3.296   9.405   5.228 -0.1504  0.6964  0.0485
 9032SOL    HW139155   3.201   9.430   5.249 -0.5475  0.2538 -1.1563
 9032SOL    HW239156   3.350   9.407   5.312 -1.4227  0.1036  0.9125
 9033SOL     OW39157   7.697   6.184   6.497 -0.4846 -0.2416  0.3423
 9033SOL    HW139158   7.649   6.162   6.582 -1.6963  0.0649 -0.2493
 9033SOL    HW239159   7.650   6.140   6.421  0.0274  0.2883 -0.2769
 9034SOL     OW39160   0.207   7.558   5.380 -0.1406 -0.2411  0.5757
 9034SOL    HW139161   0.304   7.556   5.404  0.3440 -0.8958 -1.3925
 9034SOL    HW239162   0.179   7.653   5.363  0.1589 -0.0567  1.0838
 9035SOL     OW39163   2.537   1.222   0.916 -0.2115  0.3837 -0.8755
 9035SOL    HW139164   2.516   1.197   0.821  2.1859 -1.1048 -1.0422
 9035SOL    HW239165   2.509   1.148   0.977 -1.3344  1.1490 -0.4495
 9036SOL     OW39166   0.632   8.878   1.826 -0.3180  0.2113 -0.5376
 9036SOL    HW139167   0.657   8.915   1.915 -0.1820 -2.1221  0.4335
 9036SOL    HW239168   0.675   8.789   1.813 -2.3516 -0.6316 -1.8573
 9037SOL     OW39169   0.687   3.755   1.914 -0.4535  0.2590  0.0929
 9037SOL    HW139170   0.709   3.678   1.975 -0.7700 -0.1844 -0.3478
 9037SOL    HW239171   0.643   3.720   1.832  0.3820  0.8112 -0.6014
 9038SOL     OW39172   4.536   4.929   2.049 -0.0672  0.3833  0.0558
 9038SOL    HW139173   4.565   4.837   2.077  0.9840  0.1973 -1.6291
 9038SOL    HW239174   4.482   4.923   1.965  0.9014  1.4138 -0.6427
 9039SOL     OW39175   0.453   8.682   0.762 -0.8597  0.1311 -0.0526
 9039SOL    HW139176   0.362   8.648   0.785 -1.2775  1.9433  1.0638
 9039SOL    HW239177   0.492   8.728   0.842  1.6874 -1.9772 -0.0133
 9040SOL     OW39178   4.103   3.472   5.348  0.3796 -0.6178  0.1730
 9040SOL    HW139179   4.102   3.568   5.321 -0.2729 -0.4582  0.7300
 9040SOL    HW239180   4.115   3.415   5.267  2.6076 -0.0131  0.0449
 9041SOL     OW39181   2.283   0.271   7.028  0.3800  0.0946 -0.2510
 9041SOL    HW139182   2.261   0.309   7.117  0.0171 -3.2525  1.1613
 9041SOL    HW239183   2.376   0.235   7.029  0.1813 -0.4650 -1.0433
 9042SOL     OW39184   9.504   1.196   6.551  0.0603 -0.0276  0.1973
 9042SOL    HW139185   9.467   1.283   6.520 -0.0043  0.1688  0.8135
 9042SOL    HW239186   9.434   1.147   6.604 -0.1923 -0.8415 -0.8842
 9043SOL     OW39187   4.299   1.021   3.401  0.0862 -0.1110  0.9686
 9043SOL    HW139188   4.336   1.037   3.310 -2.0666 -0.6567 -0.0251
 9043SOL    HW239189   4.315   1.102   3.458  1.7885  0.0754  0.2342
 9044SOL     OW39190   9.503   7.661   8.179  0.3082  0.1741  0.0659
 9044SOL    HW139191   9.430   7.613   8.130  0.0400 -0.2009  0.8233
 9044SOL    HW239192   9.545   7.599   8.246  1.4881  0.3120 -0.5333
 9045SOL     OW39193   1.091   4.016   7.095  0.3161  0.3846  0.1619
 9045SOL    HW139194   1.030   4.009   7.174  1.0320  0.3994  0.7176
 9045SOL    HW239195   1.166   3.951   7.104  0.9779  1.1163  0.0024
 9046SOL     OW39196   7.835   5.576   1.778  0.1795  0.6633  0.0139
 9046SOL    HW139197   7.908   5.514   1.749 -1.2788 -0.9706 -0.2686
 9046SOL    HW239198   7.852   5.606   1.872  0.7878 -0.3602  0.2413
 9047SOL     OW39199   3.827   0.474   8.468 -0.0827 -0.3126 -0.2286
 9047SOL    HW139200   3.844   0.512   8.560 -1.4663  0.7768 -0.4088
 9047SOL    HW239201   3.862   0.381   8.464 -0.2607 -0.4759  1.5011
 9048SOL     OW39202   4.463   8.262   6.315 -0.3209  0.6597  0.4088
 9048SOL    HW139203   4.388   8.207   6.351 -0.5042  1.1121  0.7305
 9048SOL    HW239204   4.539   8.203   6.287 -2.1524 -0.1381 -3.2726
 9049SOL     OW39205   2.045   4.712   3.664 -0.7097 -0.4348 -0.1159
 9049SOL    HW139206   2.100   4.747   3.588 -1.1563  2.2201  0.7376
 9049SOL    HW239207   1.948   4.723   3.643 -0.8593 -0.8043  0.3526
 9050SOL     OW39208   9.338   2.226   9.383  1.0335 -0.8274 -0.0287
 9050SOL    HW139209   9.254   2.182   9.414 -0.5065  2.6453  0.9500
 9050SOL    HW239210   9.317   2.310   9.333  3.8597 -0.7516 -1.2112
 9051SOL     OW39211   7.911   9.444   8.683  0.0186 -0.7709 -0.5822
 9051SOL    HW139212   7.839   9.377   8.664  0.9919 -1.8004 -0.6914
 9051SOL    HW239213   7.962   9.416   8.764 -0.0229  0.2188 -0.2157
 9052SOL     OW39214   0.203   5.463   9.248 -0.0290  0.4214 -0.4042
 9052SOL    HW139215   0.140   5.541   9.251  0.9173  1.1809  0.1948
 9052SOL    HW239216   0.297   5.497   9.244  0.5781 -0.6237  3.0316
 9053SOL     OW39217   6.889   3.388   3.407  0.2819  0.2240  0.2498
 9053SOL    HW139218   6.912   3.302   3.452 -0.0302 -0.3490 -0.6530
 9053SOL    HW239219   6.906   3.464   3.469  0.5331 -0.4916  1.0729
 9054SOL     OW39220   9.189   8.759   6.137  0.6384  0.1203 -0.6274
 9054SOL    HW139221   9.205   8.850   6.175  0.4680 -0.6708  1.3605
 9054SOL    HW239222   9.236   8.752   6.049  0.0276  2.3691 -1.1686
 9055SOL     OW39223   7.829   6.477   0.270  0.2940  0.1074 -0.1570
 9055SOL    HW139224   7.873   6.398   0.312 -0.1884 -0.9693 -1.6503
 9055SOL    HW239225   7.878   6.503   0.187 -0.7194  0.1472 -0.7433
 9056SOL     OW39226   0.544   2.683   6.775  0.2118 -0.1019 -0.2133
 9056SOL    HW139227   0.491   2.631   6.842 -0.6044  1.2460  0.1841
 9056SOL    HW239228   0.484   2.742   6.723  1.0614 -0.0255 -1.1135
 9057SOL     OW39229   0.887   1.416   4.149 -0.1406 -0.1037  0.0146
 9057SOL    HW139230   0.894   1.495   4.088 -0.5580  0.4349  0.6630
 9057SOL    HW239231   0.968   1.411   4.208  0.4635 -0.8684 -0.8677
 9058SOL     OW39232   3.320   1.254   5.614  0.4266 -0.2958  0.1986
 9058SOL    HW139233   3.390   1.183   5.612  0.2114 -0.4647 -1.9700
 9058SOL    HW239234   3.235   1.219   5.576 -0.5393  0.2562  1.8011
 9059SOL     OW39235   2.812   3.598   7.554 -1.0674  0.1159  0.2877
 9059SOL    HW139236   2.855   3.650   7.627 -0.8366 -0.9477  0.9160
 9059SOL    HW239237   2.722   3.566   7.583 -0.9311 -0.4020  0.1558
 9060SOL     OW39238   8.299   2.011   5.996  0.0707 -0.5759 -0.4211
 9060SOL    HW139239   8.390   2.002   6.037  0.3814  3.1128 -0.1263
 9060SOL    HW239240   8.232   2.030   6.067 -0.0799  1.6498 -1.1142
 9061SOL     OW39241   7.521   1.737   8.789  0.2568 -0.0406  0.2966
 9061SOL    HW139242   7.496   1.642   8.807  1.3377 -0.3997 -0.0457
 9061SOL    HW239243   7.438   1.790   8.769 -0.3589 -0.8903  0.5584
 9062SOL     OW39244   9.197   5.871   7.664  0.1489  0.1339 -0.2850
 9062SOL    HW139245   9.285   5.916   7.673  0.9058 -1.9859  4.2016
 9062SOL    HW239246   9.198   5.809   7.585  2.5182  0.4439 -0.5098
 9063SOL     OW39247   3.702   8.796   8.760  0.4243 -0.0988 -0.5085
 9063SOL    HW139248   3.617   8.744   8.752 -0.5098  1.4003 -0.4659
 9063SOL    HW239249   3.753   8.764   8.839 -0.3256 -0.6818 -0.2511
 9064SOL     OW39250   3.291   2.238   2.028 -0.1375  0.8152 -0.1334
 9064SOL    HW139251   3.231   2.310   2.064 -1.6031 -0.5043  0.1172
 9064SOL    HW239252   3.282   2.156   2.084  0.7548  0.1106 -1.0080
 9065SOL     OW39253   0.254   7.631   3.945  0.5634  0.0816  0.0993
 9065SOL    HW139254   0.332   7.569   3.941  1.5379  1.3639 -1.5209
 9065SOL    HW239255   0.179   7.593   3.891  0.7002 -0.2696  0.1512
 9066SOL     OW39256   7.368   4.610   0.725 -0.0294  0.9072  0.4829
 9066SOL    HW139257   7.282   4.635   0.770 -0.6938 -0.6956  0.1471
 9066SOL    HW239258   7.396   4.518   0.756  1.0158  0.9978 -0.1933
 9067SOL     OW39259   2.569   2.174   1.849  0.6046 -0.3804 -0.0566
 9067SOL    HW139260   2.536   2.091   1.805 -0.7980 -0.3358  0.8505
 9067SOL    HW239261   2.501   2.205   1.916  0.6804  2.0077 -1.0196
 9068SOL     OW39262   1.269   9.937   9.298  0.2385 -0.4145  0.6433
 9068SOL    HW139263   1.300  10.031   9.311 -0.0868 -0.4616  1.7441
 9068SOL    HW239264   1.177   9.938   9.260 -0.4540 -0.2882  2.3060
 9069SOL     OW39265   6.730   5.672   1.982 -0.3451  0.0844 -0.0238
 9069SOL    HW139266   6.827   5.648   1.970 -0.3574  0.6667 -1.3316
 9069SOL    HW239267   6.721   5.771   1.986 -0.9383  0.0356 -0.2473
 9070SOL     OW39268   9.629   3.610   2.272 -0.3636 -0.2684 -0.4647
 9070SOL    HW139269   9.705   3.673   2.287 -0.4094 -0.0515 -1.1201
 9070SOL    HW239270   9.637   3.533   2.335  0.5262 -0.3676 -0.6854
 9071SOL     OW39271   8.905   1.699   8.742  0.3721  0.1834 -0.0526
 9071SOL    HW139272   8.964   1.646   8.681 -0.3251  0.5840 -1.0918
 9071SOL    HW239273   8.810   1.689   8.713  0.0382  0.4266  0.9380
 9072SOL     OW39274   7.370   3.652   1.626 -0.0235 -0.1541 -0.2472
 9072SOL    HW139275   7.372   3.716   1.550  2.1228  0.7097  0.4732
 9072SOL    HW239276   7.464   3.634   1.656 -0.7693 -1.4305  1.3894
 9073SOL     OW39277   6.654   5.692   6.818  0.1799 -0.4053 -0.3531
 9073SOL    HW139278   6.733   5.632   6.804 -0.1333 -1.3959  2.0222
 9073SOL    HW239279   6.684   5.787   6.811  1.1059 -0.7764 -1.8418
 9074SOL     OW39280   2.395   4.046   4.512  0.0113  0.2797  0.3816
 9074SOL    HW139281   2.343   3.983   4.454 -1.2468  1.3432  0.3292
 9074SOL    HW239282   2.423   3.998   4.595 -1.0822 -0.3160  0.4236
 9075SOL     OW39283   8.380   9.987   2.653 -1.0293  0.0124  0.0553
 9075SOL    HW139284   8.478   9.998   2.638 -1.1683  4.0004  1.2679
 9075SOL    HW239285   8.330  10.016   2.571 -1.2401 -0.3078  0.0685
 9076SOL     OW39286   2.519   9.521   8.654  0.9733  0.1729 -0.8324
 9076SOL    HW139287   2.563   9.459   8.720 -1.3501 -0.1537  0.4762
 9076SOL    HW239288   2.565   9.514   8.566  1.4240 -2.6395 -0.4279
 9077SOL     OW39289   4.792   9.242   3.027  0.3002  0.2024  0.0797
 9077SOL    HW139290   4.714   9.302   3.046 -0.1794 -0.9874  1.9626
 9077SOL    HW239291   4.837   9.272   2.943 -1.6054  1.4938 -0.5201
 9078SOL     OW39292   4.629   8.235   7.181 -0.1828 -0.2221  0.5614
 9078SOL    HW139293   4.543   8.206   7.139 -0.5174  1.6728 -0.1249
 9078SOL    HW239294   4.698   8.246   7.110 -0.1131  0.7859  0.7796
 9079SOL     OW39295   4.431   7.126   0.777  0.0504 -0.0991 -0.3032
 9079SOL    HW139296   4.452   7.223   0.792 -1.0538 -0.3338  3.3528
 9079SOL    HW239297   4.364   7.117   0.704 -1.4514  2.1029  0.7376
 9080SOL     OW39298   3.971   3.959   8.560  0.5739 -0.1408  0.5970
 9080SOL    HW139299   3.984   3.883   8.496 -0.5568  0.7475 -0.7211
 9080SOL    HW239300   3.928   3.926   8.643 -1.4382 -0.6737 -0.6298
 9081SOL     OW39301   1.605   8.714   9.901 -0.0957 -0.2200 -0.2333
 9081SOL    HW139302   1.557   8.789   9.855 -0.8376 -0.3837  0.2654
 9081SOL    HW239303   1.583   8.716   9.998 -0.5987 -1.4767 -0.3239
 9082SOL     OW39304   7.270   2.657   9.504 -0.6607  0.6924 -0.2265
 9082SOL    HW139305   7.304   2.699   9.420  3.0326 -1.8327 -0.1071
 9082SOL    HW239306   7.216   2.576   9.481  0.2891  0.0435 -0.2122
 9083SOL     OW39307   4.825   5.578   9.392  0.1717  0.0603  0.3950
 9083SOL    HW139308   4.813   5.507   9.461 -0.1338 -2.2593 -1.9675
 9083SOL    HW239309   4.918   5.575   9.356  0.2606  1.1105  0.5071
 9084SOL     OW39310   3.684   4.727   3.058 -0.5469  0.3852 -0.2605
 9084SOL    HW139311   3.738   4.644   3.049  0.9914  1.2993  0.2103
 9084SOL    HW239312   3.600   4.719   3.005 -0.7715 -1.7462  0.3888
 9085SOL     OW39313   3.213   8.632   5.230  0.4085 -0.0507  0.9369
 9085SOL    HW139314   3.298   8.683   5.244  0.0295  0.8586 -0.0513
 9085SOL    HW239315   3.184   8.641   5.135 -1.1369  0.1591  1.4161
 9086SOL     OW39316   3.555   2.668   7.963  0.4635  0.0420 -0.7833
 9086SOL    HW139317   3.563   2.588   7.903  1.2026 -0.2070 -0.3545
 9086SOL    HW239318   3.602   2.650   8.049 -1.1180  0.1695  0.1234
 9087SOL     OW39319   5.198   2.460   7.635 -0.1431 -0.2464 -0.1291
 9087SOL    HW139320   5.236   2.552   7.644 -2.3554  0.6893 -0.2401
 9087SOL    HW239321   5.183   2.422   7.727  2.7845 -1.3920 -0.0584
 9088SOL     OW39322   5.738   6.702   9.716 -0.1592 -0.0052 -0.5214
 9088SOL    HW139323   5.646   6.664   9.702 -0.4639  0.5433 -0.0433
 9088SOL    HW239324   5.801   6.629   9.741 -0.7013 -0.2172  0.2427
 9089SOL     OW39325   4.014   3.384   6.790  0.8042  0.4900 -0.5536
 9089SOL    HW139326   3.925   3.387   6.745  0.2094 -2.0005  0.3654
 9089SOL    HW239327   4.069   3.311   6.750  0.4262 -1.4933  2.4076
 9090SOL     OW39328   3.692   4.069   0.376  0.4730 -0.2333  0.2421
 9090SOL    HW139329   3.687   4.163   0.410  0.4953 -0.0600 -0.2272
 9090SOL    HW239330   3.600   4.033   0.364  0.4437  0.1781 -0.8037
 9091SOL     OW39331   1.277   7.560   1.325  0.1920 -0.5165  0.2698
 9091SOL    HW139332   1.355   7.599   1.276 -0.4959  1.2776  0.5669
 9091SOL    HW239333   1.283   7.460   1.323  1.4793 -0.4345 -1.3573
 9092SOL     OW39334   1.134   7.993   6.903 -0.3907 -0.1100  0.6475
 9092SOL    HW139335   1.128   8.062   6.831  0.5977  0.5773  1.2075
 9092SOL    HW239336   1.206   8.019   6.968  0.1399 -1.7839  0.7488
 9093SOL     OW39337   7.439   9.623   3.666 -0.3934 -0.0875  0.0840
 9093SOL    HW139338   7.465   9.544   3.610  0.7221 -1.5780  2.5901
 9093SOL    HW239339   7.522   9.669   3.697 -1.0285  1.3170 -0.2873
 9094SOL     OW39340   5.469   9.674   8.126 -0.3897  0.8009  0.5071
 9094SOL    HW139341   5.532   9.605   8.161 -1.1137  0.4548  1.1403
 9094SOL    HW239342   5.377   9.635   8.119 -0.0990  0.5546 -2.7590
 9095SOL     OW39343   7.070   1.428   8.402 -0.4888 -0.2208 -0.0041
 9095SOL    HW139344   6.995   1.428   8.468  0.2090  2.8755  0.8877
 9095SOL    HW239345   7.148   1.379   8.439  0.7738  3.5886  2.6456
 9096SOL     OW39346   3.058   1.157   9.193 -1.0141  0.3581  0.2860
 9096SOL    HW139347   3.006   1.078   9.161  1.5996 -1.1400 -0.4087
 9096SOL    HW239348   3.051   1.231   9.127 -1.8833 -0.0029 -0.0267
 9097SOL     OW39349   0.224   0.531   9.993  0.3264  0.3906  0.0313
 9097SOL    HW139350   0.136   0.562   9.957  0.3878  2.6508  1.7532
 9097SOL    HW239351   0.216   0.515  10.091  1.7143  0.1539  0.1101
 9098SOL     OW39352   3.808   8.744   7.213  0.0254 -0.2240  0.3581
 9098SOL    HW139353   3.839   8.821   7.157 -0.6099  0.6492  1.1964
 9098SOL    HW239354   3.888   8.695   7.248  0.4593  0.7449  0.7623
 9099SOL     OW39355   8.071   6.316   4.190 -0.2903 -0.1743  0.3127
 9099SOL    HW139356   8.019   6.295   4.108  1.6448  1.6296 -1.4486
 9099SOL    HW239357   8.062   6.413   4.211 -0.0103 -0.4356  1.6830
 9100SOL     OW39358   0.362   0.596   1.236  0.4015 -0.2881  0.2729
 9100SOL    HW139359   0.361   0.516   1.176  2.4460 -0.6414  0.6664
 9100SOL    HW239360   0.457   0.623   1.253 -0.2092  0.8828  1.9152
 9101SOL     OW39361   7.984   6.687   5.020  0.3469 -0.1878 -0.3442
 9101SOL    HW139362   8.020   6.596   5.001 -0.7662 -0.2679 -2.1626
 9101SOL    HW239363   8.041   6.756   4.975 -0.5963 -0.1895 -1.5585
 9102SOL     OW39364   9.097   2.655   8.260 -0.6535  0.0880 -0.4637
 9102SOL    HW139365   9.101   2.662   8.160  0.2668 -0.1138 -0.4463
 9102SOL    HW239366   9.075   2.560   8.286  1.5538 -0.4427 -0.4429
 9103SOL     OW39367   0.621   4.625   0.374 -0.4307 -0.6457  0.1160
 9103SOL    HW139368   0.677   4.674   0.307  0.7051 -0.8588  0.8908
 9103SOL    HW239369   0.535   4.597   0.332 -0.4545  0.7252 -0.7528
 9104SOL     OW39370   1.101   9.282   0.950  0.3349 -0.1267  0.3897
 9104SOL    HW139371   1.112   9.323   1.041  2.4523  0.1062  0.0508
 9104SOL    HW239372   1.056   9.347   0.889  0.7841  0.4940  0.7174
 9105SOL     OW39373   2.774   5.833   2.402  0.6583 -0.4968  0.0235
 9105SOL    HW139374   2.694   5.782   2.434  0.4411 -0.4697 -0.4666
 9105SOL    HW239375   2.795   5.906   2.467  1.1713 -1.4061  0.8988
 9106SOL     OW39376   4.447   1.305   3.287  0.3990  0.6611  0.3655
 9106SOL    HW139377   4.356   1.335   3.258  0.1630 -0.6968 -0.3747
 9106SOL    HW239378   4.457   1.207   3.266  2.3559  1.0131 -0.3620
 9107SOL     OW39379   0.443   2.548   8.593 -0.0291 -0.2111 -0.4789
 9107SOL    HW139380   0.426   2.457   8.630  0.9248 -0.7542 -1.3741
 9107SOL    HW239381   0.497   2.602   8.658 -1.1480 -0.0475  0.3379
 9108SOL     OW39382   4.601   3.137   7.167 -0.4321 -0.2424  0.2972
 9108SOL    HW139383   4.661   3.067   7.126  1.5995  0.3528  2.1887
 9108SOL    HW239384   4.644   3.226   7.160  0.3633 -0.2122  4.3695
 9109SOL     OW39385   7.940   2.174   5.668 -0.3944 -0.7335  0.2557
 9109SOL    HW139386   7.982   2.108   5.730 -1.4824 -2.3494 -0.7074
 9109SOL    HW239387   8.009   2.210   5.605  0.2504 -0.7523  0.9479
 9110SOL     OW39388   1.534   9.700   1.275  0.1682 -0.1228 -0.4831
 9110SOL    HW139389   1.458   9.678   1.214  0.8913 -1.5378 -0.9192
 9110SOL    HW239390   1.587   9.775   1.236 -0.2478 -0.0077 -0.8400
 9111SOL     OW39391   9.947   2.996   6.504 -0.1482  0.1938 -0.3378
 9111SOL    HW139392   9.909   3.005   6.412 -0.2086 -0.3345 -0.3689
 9111SOL    HW239393  10.023   2.930   6.502  0.4728  0.8987 -0.1925
 9112SOL     OW39394   4.200   7.386   2.878  0.0135 -0.0613 -0.2902
 9112SOL    HW139395   4.249   7.305   2.846  2.4003  2.1902 -2.5287
 9112SOL    HW239396   4.201   7.388   2.978 -0.8906 -3.2225 -0.1549
 9113SOL     OW39397   0.914   2.493   5.586 -0.1767  0.0828 -0.3924
 9113SOL    HW139398   0.863   2.575   5.610 -1.2755 -0.6346 -0.2440
 9113SOL    HW239399   1.012   2.511   5.596 -0.5090  0.3579  2.9865
 9114SOL     OW39400   1.048   3.385   1.199  0.3366  0.3677 -0.5895
 9114SOL    HW139401   1.040   3.394   1.298  0.0425 -1.3444 -0.4356
 9114SOL    HW239402   0.963   3.413   1.156  0.0030 -0.1205 -0.2548
 9115SOL     OW39403   1.674   6.197   8.916  0.1448 -0.2884 -0.3995
 9115SOL    HW139404   1.578   6.174   8.933  0.1531 -1.2177 -1.5642
 9115SOL    HW239405   1.688   6.217   8.819  0.9381  0.8063 -0.0663
 9116SOL     OW39406   6.339   9.680   7.654 -0.6878 -0.6227 -0.3128
 9116SOL    HW139407   6.281   9.734   7.714 -1.1101 -1.7339  0.2995
 9116SOL    HW239408   6.428   9.666   7.697  0.2123  1.4325 -1.4277
 9117SOL     OW39409   6.849   6.871   1.911  0.0710 -0.0342  0.2193
 9117SOL    HW139410   6.917   6.944   1.905 -1.3945  1.3720  0.1978
 9117SOL    HW239411   6.865   6.804   1.838  1.7263 -0.0137  0.5385
 9118SOL     OW39412   7.184   5.573   0.909  0.8559 -0.6416 -0.0939
 9118SOL    HW139413   7.282   5.568   0.930  0.7263 -0.6587  0.5092
 9118SOL    HW239414   7.134   5.515   0.973  0.7510 -3.2709 -2.4273
 9119SOL     OW39415   2.120   2.275  10.037  0.1227 -0.8272 -0.3365
 9119SOL    HW139416   2.113   2.374  10.046 -0.7859 -1.1081  2.7746
 9119SOL    HW239417   2.196   2.242  10.093 -0.6302 -2.0242 -0.0099
 9120SOL     OW39418   0.835   6.901   3.084  0.1546 -0.3031 -0.5573
 9120SOL    HW139419   0.893   6.981   3.100  0.8398 -0.8490 -0.3028
 9120SOL    HW239420   0.739   6.929   3.084  0.1898  0.0110  2.8425
 9121SOL     OW39421   2.800   7.919   1.564 -0.7360 -0.6327 -0.1934
 9121SOL    HW139422   2.786   7.932   1.662  0.5731  1.0139 -0.2070
 9121SOL    HW239423   2.763   7.831   1.536 -1.8907 -0.7285  1.6217
 9122SOL     OW39424   6.240   4.939   7.698  0.0151 -0.2648  0.7983
 9122SOL    HW139425   6.227   4.878   7.776  1.6023 -1.0371  0.4893
 9122SOL    HW239426   6.290   5.020   7.727  1.1356 -0.8317  0.4792
 9123SOL     OW39427   7.772   1.356   8.034 -0.1189 -0.5114 -0.4778
 9123SOL    HW139428   7.793   1.441   7.986  1.4378 -1.0338 -0.7334
 9123SOL    HW239429   7.682   1.322   8.005 -0.6649  0.9343 -0.5119
 9124SOL     OW39430   1.933   3.557   1.116  0.0678  0.3220  0.2783
 9124SOL    HW139431   1.894   3.643   1.149 -1.5909 -0.0326 -0.6991
 9124SOL    HW239432   1.869   3.483   1.133 -0.5868  0.0309 -3.1328
 9125SOL     OW39433   1.310   8.225   2.528  0.2072  0.2020 -0.0731
 9125SOL    HW139434   1.325   8.252   2.623  0.7895  1.4231 -0.5104
 9125SOL    HW239435   1.262   8.298   2.479 -0.2868 -0.5115 -0.6689
 9126SOL     OW39436   3.676   8.194   1.615  0.1589  0.3101  0.2769
 9126SOL    HW139437   3.737   8.117   1.594 -0.3486  0.4063 -1.6679
 9126SOL    HW239438   3.585   8.175   1.578  0.4198  2.4777 -1.6224
 9127SOL     OW39439   2.857   3.738   2.804 -0.4010  0.4420 -0.2487
 9127SOL    HW139440   2.946   3.754   2.846 -0.9392  1.7366  0.4444
 9127SOL    HW239441   2.807   3.824   2.799 -2.6680 -0.6904  1.8496
 9128SOL     OW39442   3.619   1.888   8.821 -0.5789  0.2865  0.6703
 9128SOL    HW139443   3.534   1.837   8.822 -0.0855 -0.5462  0.4910
 9128SOL    HW239444   3.647   1.909   8.914 -1.6607  1.7191  0.6889
 9129SOL     OW39445   3.468   8.638   8.833 -0.0208 -0.9323  0.1857
 9129SOL    HW139446   3.475   8.573   8.908  0.3638  0.1280  1.0941
 9129SOL    HW239447   3.374   8.638   8.798 -0.4468 -0.7616  1.2971
 9130SOL     OW39448   3.620   7.771   4.079 -0.2136 -0.6126  0.1335
 9130SOL    HW139449   3.626   7.812   4.170 -0.4594  0.2760 -0.2415
 9130SOL    HW239450   3.697   7.801   4.024 -0.1253 -1.0625  0.0106
 9131SOL     OW39451   0.236   1.126   6.543 -0.0660 -0.0240 -0.2940
 9131SOL    HW139452   0.308   1.060   6.565  1.3200  1.2966 -0.8636
 9131SOL    HW239453   0.226   1.133   6.444  1.0546  1.9672 -0.2800
 9132SOL     OW39454   9.551   9.321   2.406 -0.1309 -0.7485 -0.0374
 9132SOL    HW139455   9.615   9.245   2.393  2.2076  1.0782  0.6395
 9132SOL    HW239456   9.544   9.374   2.322 -0.9836 -1.0867 -0.1903
 9133SOL     OW39457   1.437   9.585   3.313 -0.3718  0.5655  0.0635
 9133SOL    HW139458   1.372   9.655   3.283 -0.1706  0.4206 -0.7162
 9133SOL    HW239459   1.526   9.603   3.272 -0.3817 -0.2842 -0.3327
 9134SOL     OW39460   0.637   2.167   0.712  0.1556  0.3633 -0.1908
 9134SOL    HW139461   0.560   2.230   0.706 -0.4450 -0.2780  0.6072
 9134SOL    HW239462   0.669   2.144   0.621 -0.6548  0.5628 -0.5256
 9135SOL     OW39463   1.873   9.124   9.007 -0.0041  0.4849  0.1970
 9135SOL    HW139464   1.806   9.073   9.060 -0.2428  0.7581  0.1550
 9135SOL    HW239465   1.829   9.164   8.926  0.5316 -0.6603 -0.6809
 9136SOL     OW39466   2.093   7.178   2.900  0.0140  0.3866  0.3416
 9136SOL    HW139467   2.125   7.217   2.986  1.5316 -2.1203  0.9831
 9136SOL    HW239468   2.133   7.229   2.823  2.6425 -0.3785  1.1420
 9137SOL     OW39469   2.571   0.013   9.667  0.3030  0.1205  0.3712
 9137SOL    HW139470   2.620   0.069   9.734  1.6929 -0.4225 -0.1903
 9137SOL    HW239471   2.483  -0.016   9.707  1.4640 -0.8828  2.2837
 9138SOL     OW39472   2.279   2.687  10.067  0.0595 -0.2262 -0.2423
 9138SOL    HW139473   2.286   2.702  10.165 -1.9062  0.5725 -0.2149
 9138SOL    HW239474   2.196   2.635  10.046  0.5996 -0.6317 -1.4582
 9139SOL     OW39475   1.418   5.885   2.488  0.1557 -0.0875  0.4011
 9139SOL    HW139476   1.443   5.975   2.525 -1.4521 -0.0818  1.5298
 9139SOL    HW239477   1.492   5.851   2.431  0.3695  2.4275 -0.9098
 9140SOL     OW39478   0.630   3.282   9.405  0.1641 -0.5786  0.0720
 9140SOL    HW139479   0.588   3.274   9.315 -0.8839 -0.5568  0.5493
 9140SOL    HW239480   0.664   3.375   9.418  0.0701 -0.5056 -0.1967
 9141SOL     OW39481   4.638   9.643   9.720 -0.0053 -0.3757 -0.1988
 9141SOL    HW139482   4.718   9.646   9.661  0.0927  2.8955 -0.0219
 9141SOL    HW239483   4.569   9.706   9.686  0.4150  2.3217  3.5506
 9142SOL     OW39484   1.337   7.701   8.608 -0.0203  0.1553 -0.3526
 9142SOL    HW139485   1.319   7.780   8.549 -1.0228  1.7252  2.0082
 9142SOL    HW239486   1.255   7.644   8.612  1.0526 -1.7091 -2.9695
 9143SOL     OW39487   0.604   2.134   4.605 -0.4903  0.0638  0.0560
 9143SOL    HW139488   0.532   2.166   4.666 -0.5677  0.5403 -0.2813
 9143SOL    HW239489   0.573   2.053   4.556 -0.5285 -0.1587  0.4532
 9144SOL     OW39490   7.321   0.992   1.753  0.2505 -0.1755  0.0314
 9144SOL    HW139491   7.376   1.064   1.795  0.8325  0.0076 -1.0127
 9144SOL    HW239492   7.306   1.014   1.656 -0.6261 -0.8352  0.0084
 9145SOL     OW39493   8.997   5.146   7.015 -0.0668  0.4430 -0.2424
 9145SOL    HW139494   8.931   5.160   7.090  1.7067  1.3768  1.1853
 9145SOL    HW239495   8.998   5.226   6.956  0.8293  1.0516  0.5823
 9146SOL     OW39496   9.887   6.131   4.450 -0.8087  0.5125  0.3836
 9146SOL    HW139497   9.872   6.084   4.538 -0.1064  0.7441  0.6352
 9146SOL    HW239498   9.886   6.064   4.376  0.0444  0.1021  0.7302
 9147SOL     OW39499   7.569   2.450   2.849  0.0890 -0.2597 -0.4975
 9147SOL    HW139500   7.472   2.469   2.837 -0.4695 -2.1568  0.8204
 9147SOL    HW239501   7.614   2.453   2.759 -1.2715  0.0657 -1.1925
 9148SOL     OW39502   1.118   1.541   3.799  0.7758 -0.1030  0.0691
 9148SOL    HW139503   1.127   1.558   3.897 -0.3977  0.6963  0.0550
 9148SOL    HW239504   1.021   1.544   3.774  0.9143 -2.2389 -0.7809
 9149SOL     OW39505   7.422   9.063   6.530  0.0793  0.2973 -0.8293
 9149SOL    HW139506   7.398   9.106   6.617  2.1866  1.5248 -0.8317
 9149SOL    HW239507   7.487   8.990   6.547 -0.6242 -0.4341 -1.2421
 9150SOL     OW39508   3.796   5.149   6.672 -0.0258  0.2774 -0.2419
 9150SOL    HW139509   3.733   5.210   6.720  1.4391  0.7249  1.1399
 9150SOL    HW239510   3.745   5.072   6.633 -1.4036  0.5534  0.9853
 9151SOL     OW39511   8.136   4.569   2.541  0.2834  0.2052  0.1163
 9151SOL    HW139512   8.151   4.629   2.462  0.2784  0.0642  0.0067
 9151SOL    HW239513   8.062   4.505   2.520 -0.1386  0.5736  0.4693
 9152SOL     OW39514   8.674   8.538   0.152  0.0784 -0.0416 -0.2070
 9152SOL    HW139515   8.743   8.607   0.172  0.6014 -1.2929  2.5622
 9152SOL    HW239516   8.706   8.479   0.079  1.1770  0.4778 -0.1611
 9153SOL     OW39517   0.586   5.531   2.909  0.3850  0.0219 -0.0967
 9153SOL    HW139518   0.517   5.517   2.838  0.6495  0.0598 -0.3633
 9153SOL    HW239519   0.543   5.572   2.989  0.2166  0.6363 -0.4957
 9154SOL     OW39520   9.803   9.719   9.523 -0.6307  0.2170 -0.4863
 9154SOL    HW139521   9.814   9.716   9.623 -0.1449 -1.2754 -0.5719
 9154SOL    HW239522   9.881   9.674   9.480 -1.0235  0.5378 -1.5341
 9155SOL     OW39523   2.633   9.787   0.605 -0.0652  0.0708 -0.1062
 9155SOL    HW139524   2.612   9.720   0.677 -0.4164  0.6165  0.2977
 9155SOL    HW239525   2.732   9.804   0.603 -0.2534  1.4231  1.4595
 9156SOL     OW39526   2.997   7.550   5.863  0.0106 -0.8505  1.1474
 9156SOL    HW139527   2.986   7.453   5.841 -0.0580 -0.1650 -2.2039
 9156SOL    HW239528   2.910   7.597   5.848  0.7586  0.1815 -0.0670
 9157SOL     OW39529   7.899   4.630   8.037 -0.2261 -0.1436  0.4867
 9157SOL    HW139530   7.853   4.715   8.062 -1.6294 -0.6872 -0.1902
 9157SOL    HW239531   7.985   4.651   7.990 -0.0396  0.8890  1.2804
 9158SOL     OW39532   2.337   4.869   8.159  0.1666  0.0394 -0.2614
 9158SOL    HW139533   2.419   4.920   8.183  0.4727 -0.1965 -0.7929
 9158SOL    HW239534   2.343   4.777   8.198 -0.1128  0.2073  0.1876
 9159SOL     OW39535   1.007   0.323   1.149 -0.0935  0.3250 -0.1709
 9159SOL    HW139536   1.012   0.371   1.062 -0.1595  0.7355  0.0523
 9159SOL    HW239537   1.099   0.296   1.178 -0.2991 -2.1274 -1.6558
 9160SOL     OW39538   9.290   8.378   6.561 -0.2323  0.1346  0.7542
 9160SOL    HW139539   9.238   8.409   6.482 -1.2905 -0.8604  1.0426
 9160SOL    HW239540   9.244   8.406   6.645 -0.1511 -0.4870  1.0122
 9161SOL     OW39541   6.042   3.971   0.371 -0.2154  0.5711 -0.2332
 9161SOL    HW139542   6.047   3.922   0.284 -0.2920 -1.0031  0.6347
 9161SOL    HW239543   6.134   3.984   0.407 -0.2612  0.0578  0.0789
 9162SOL     OW39544   0.420   9.416  10.035  0.0173  0.1504  0.3479
 9162SOL    HW139545   0.333   9.426  10.082  0.5087 -1.2054  1.5792
 9162SOL    HW239546   0.494   9.409  10.102  1.0083  0.6172 -0.6704
 9163SOL     OW39547   3.321   3.983  10.069  0.2049  1.0160 -0.4544
 9163SOL    HW139548   3.254   3.949  10.135  2.2525 -1.9208  0.2278
 9163SOL    HW239549   3.413   3.960  10.101  1.4478  3.0827 -2.4170
 9164SOL     OW39550   1.465   1.310   2.010 -0.0386  0.3068  0.3899
 9164SOL    HW139551   1.367   1.320   2.024  0.0735  2.6422 -0.3046
 9164SOL    HW239552   1.513   1.327   2.096 -0.2486 -1.7042  0.9451
 9165SOL     OW39553   3.601   0.323   3.494  0.1033  0.3094 -0.0857
 9165SOL    HW139554   3.624   0.290   3.585  1.2219  0.8821 -0.1478
 9165SOL    HW239555   3.504   0.345   3.489 -0.1908 -0.8127  0.6233
 9166SOL     OW39556   8.489   6.814   8.858 -0.4515 -0.5906  1.2552
 9166SOL    HW139557   8.581   6.796   8.824 -0.9024  1.3316 -1.1473
 9166SOL    HW239558   8.491   6.890   8.924 -0.5482  0.9423 -0.4596
 9167SOL     OW39559   0.422   7.840   2.138 -0.0269 -0.0898  0.2197
 9167SOL    HW139560   0.401   7.822   2.234  0.3798  1.7941  0.6931
 9167SOL    HW239561   0.521   7.837   2.125  0.3562  4.5788  1.0124
 9168SOL     OW39562   0.091   9.468   9.179  0.0680 -0.6237  1.2305
 9168SOL    HW139563   0.071   9.507   9.269  0.4204  0.7339  0.7352
 9168SOL    HW239564   0.006   9.455   9.128  0.0612  1.2585  0.7048
 9169SOL     OW39565   7.823   5.783   7.972 -0.2640 -0.5855  0.0666
 9169SOL    HW139566   7.865   5.782   7.882 -1.2041 -3.6759 -0.3826
 9169SOL    HW239567   7.791   5.876   7.993  0.9191  0.3863 -2.3050
 9170SOL     OW39568   3.682   2.849   0.470 -0.7493 -0.5082  0.1294
 9170SOL    HW139569   3.712   2.940   0.496 -1.4342  0.0360 -0.9438
 9170SOL    HW239570   3.761   2.787   0.470 -0.3736 -0.0468  1.3601
 9171SOL     OW39571   4.536   5.066   9.876  0.2982 -0.8188  0.1863
 9171SOL    HW139572   4.468   5.071   9.803  1.2367  1.6802 -0.5532
 9171SOL    HW239573   4.620   5.110   9.846  0.5483  0.6632  2.9527
 9172SOL     OW39574   8.267   2.572   2.031 -0.3520  0.3456  0.1486
 9172SOL    HW139575   8.262   2.659   2.080 -0.5015  0.2457  0.3112
 9172SOL    HW239576   8.359   2.561   1.992  0.7662 -0.9619  2.9826
 9173SOL     OW39577   6.854   1.077  10.036 -0.1240  0.2917 -0.5742
 9173SOL    HW139578   6.919   1.039   9.969  1.2657  0.6732  0.5239
 9173SOL    HW239579   6.816   1.163  10.002 -0.4189 -0.1766 -1.4359
 9174SOL     OW39580   9.443   3.865   3.102 -0.2823 -0.0240 -0.9075
 9174SOL    HW139581   9.521   3.927   3.111  0.1134 -0.7687  1.0252
 9174SOL    HW239582   9.360   3.911   3.131 -0.1375 -0.0886 -0.3876
 9175SOL     OW39583   0.046   8.003   0.352 -0.3488 -0.2530 -0.6181
 9175SOL    HW139584   0.011   8.090   0.315 -1.2286  0.0201  0.8080
 9175SOL    HW239585  -0.003   7.927   0.309 -0.2929 -0.0064 -1.1289
 9176SOL     OW39586   2.862   8.979   7.204 -0.0305 -0.7735 -0.0727
 9176SOL    HW139587   2.769   8.955   7.177  0.5238  0.4269 -3.2326
 9176SOL    HW239588   2.922   8.901   7.187 -0.1421 -0.9121  0.1699
 9177SOL     OW39589   0.441   0.777   4.565  0.1134 -0.1365 -0.4717
 9177SOL    HW139590   0.444   0.840   4.487 -0.4471 -1.1598 -1.3382
 9177SOL    HW239591   0.383   0.816   4.636 -0.4212  0.2365 -1.0999
 9178SOL     OW39592   0.921   5.630   2.335  0.0392 -0.3757  0.2746
 9178SOL    HW139593   0.967   5.709   2.294 -0.7168 -0.4504 -0.7224
 9178SOL    HW239594   0.851   5.596   2.273 -1.3430 -0.2995  1.7639
 9179SOL     OW39595   1.842   2.013   8.823  0.6715 -0.1909  0.7841
 9179SOL    HW139596   1.788   2.081   8.873  1.2852  1.2661 -0.4898
 9179SOL    HW239597   1.790   1.980   8.745  1.7113  1.4580 -0.6355
 9180SOL     OW39598   9.270   8.305   4.911  0.0919  0.1496  0.2211
 9180SOL    HW139599   9.365   8.329   4.892 -0.5639  2.8197  0.0934
 9180SOL    HW239600   9.247   8.334   5.004 -1.5570  2.7701 -0.9406
 9181SOL     OW39601   3.203   8.864   9.775 -0.0412 -0.1015  0.6643
 9181SOL    HW139602   3.108   8.883   9.749 -0.4435  0.1569  2.3030
 9181SOL    HW239603   3.204   8.803   9.854  1.1686 -0.4482  0.3815
 9182SOL     OW39604   3.708   2.356   6.164 -0.6123  0.1956  0.6109
 9182SOL    HW139605   3.674   2.376   6.257 -1.7001 -0.3845  0.3493
 9182SOL    HW239606   3.769   2.277   6.167  1.8433  2.0356  1.2908
 9183SOL     OW39607   2.757   5.107   0.803  0.1300 -0.5054  0.1121
 9183SOL    HW139608   2.749   5.162   0.886  0.9660  0.7618 -0.6184
 9183SOL    HW239609   2.676   5.123   0.746  0.1624 -0.3669  0.1032
 9184SOL     OW39610   8.492   3.583   5.160 -0.2199 -0.2225  0.2208
 9184SOL    HW139611   8.475   3.600   5.257  1.3137 -0.2562  0.5099
 9184SOL    HW239612   8.564   3.645   5.128 -1.6102  0.6615 -1.2117
 9185SOL     OW39613   3.670   1.098   1.501  0.0820  0.0656  0.3165
 9185SOL    HW139614   3.716   1.187   1.499  0.5478 -0.1047  2.2713
 9185SOL    HW239615   3.592   1.099   1.438 -0.4963  2.1641  1.0228
 9186SOL     OW39616   2.881   4.033   0.613  0.0142  0.4634  1.2056
 9186SOL    HW139617   2.935   3.986   0.543 -2.4618  1.7973 -1.7106
 9186SOL    HW239618   2.906   4.130   0.614 -0.8081  0.6779  1.3287
 9187SOL     OW39619   2.621   9.025   4.479 -0.3763 -0.0082  0.3045
 9187SOL    HW139620   2.567   8.941   4.475  1.2023 -1.0675  0.6644
 9187SOL    HW239621   2.695   9.014   4.546 -0.8952  2.1266  1.2771
 9188SOL     OW39622   4.275   4.314   9.355 -0.2696  0.4473  0.0434
 9188SOL    HW139623   4.218   4.244   9.312 -1.3409  0.6654  1.1069
 9188SOL    HW239624   4.239   4.336   9.445  1.1806  0.9883  0.5016
 9189SOL     OW39625   3.018   5.883   5.744 -0.4345 -0.0238  0.1261
 9189SOL    HW139626   3.108   5.926   5.746 -0.8784  0.9298  3.0422
 9189SOL    HW239627   2.985   5.877   5.650  1.6175  1.8647 -0.7497
 9190SOL     OW39628   9.828   3.966   0.348 -0.1584 -0.1339 -0.1563
 9190SOL    HW139629   9.841   4.035   0.277  1.5211 -0.4169 -0.1501
 9190SOL    HW239630   9.745   3.986   0.399 -0.3750  1.1496 -0.9876
 9191SOL     OW39631   4.275   3.447   8.767 -0.3298  0.3809 -0.4362
 9191SOL    HW139632   4.356   3.470   8.713 -0.7444 -0.5286 -1.4613
 9191SOL    HW239633   4.195   3.495   8.731 -0.1706  1.7202  0.9226
 9192SOL     OW39634   9.602   8.211   8.132 -0.1185 -0.1289 -0.0548
 9192SOL    HW139635   9.597   8.200   8.032  0.9062 -2.0988  0.0791
 9192SOL    HW239636   9.698   8.207   8.161 -0.4007  0.5858  0.9947
 9193SOL     OW39637   1.786   4.063   0.417  0.5714  0.1399  0.1077
 9193SOL    HW139638   1.740   4.145   0.383  0.7899  0.8276  1.4182
 9193SOL    HW239639   1.859   4.037   0.354 -1.0900 -0.5219 -1.6051
 9194SOL     OW39640   8.194   9.282   2.725  0.1048 -0.2983  0.7616
 9194SOL    HW139641   8.123   9.226   2.682 -0.2449  2.0628 -1.8249
 9194SOL    HW239642   8.255   9.319   2.655  2.2417 -0.0005  2.7124
 9195SOL     OW39643   6.564   1.779   3.257  0.0874  0.0249  0.0944
 9195SOL    HW139644   6.563   1.679   3.261 -0.1597  0.0535  0.7630
 9195SOL    HW239645   6.643   1.809   3.204 -0.7047 -0.5738 -1.4904
 9196SOL     OW39646   6.119   3.404   0.522  0.0074 -0.3360 -0.1562
 9196SOL    HW139647   6.081   3.495   0.511 -0.7941 -0.5144  0.9710
 9196SOL    HW239648   6.175   3.401   0.605  0.4705 -0.7140 -0.4833
 9197SOL     OW39649   0.437   2.328   5.642  0.2162  0.2856  0.3271
 9197SOL    HW139650   0.478   2.241   5.672 -0.0134  0.3190  0.7391
 9197SOL    HW239651   0.388   2.370   5.719 -1.6568 -0.3704 -0.4793
 9198SOL     OW39652   7.682   4.421   7.210 -0.1599  0.0746 -0.0447
 9198SOL    HW139653   7.752   4.352   7.192  0.2761  0.0421  1.7417
 9198SOL    HW239654   7.672   4.434   7.309  0.5738  3.3867 -0.3446
 9199SOL     OW39655   1.454   8.054   5.232 -0.3562 -0.0033  0.3745
 9199SOL    HW139656   1.431   8.103   5.148 -1.3823  0.9058  1.1710
 9199SOL    HW239657   1.549   8.072   5.256  0.3825 -1.4295 -1.3630
 9200SOL     OW39658   6.732   0.309   7.088 -0.4218  0.0275  0.1034
 9200SOL    HW139659   6.762   0.214   7.072  0.4623  0.3390 -0.1537
 9200SOL    HW239660   6.808   0.371   7.068 -0.7588  0.7436  1.0130
 9201SOL     OW39661   9.560   8.446   6.437  0.4240 -0.1038 -0.9589
 9201SOL    HW139662   9.646   8.428   6.390  2.4703  2.5359  1.6278
 9201SOL    HW239663   9.518   8.359   6.465  1.9157 -1.4380 -2.7354
 9202SOL     OW39664   2.075   1.232   2.267 -0.7867  0.7953 -0.7869
 9202SOL    HW139665   1.988   1.261   2.307 -0.3320  1.0442  0.0573
 9202SOL    HW239666   2.130   1.313   2.247 -0.2869  0.5988 -0.2306
 9203SOL     OW39667   1.907   0.290   1.284  0.0272  0.0492  0.5167
 9203SOL    HW139668   1.952   0.201   1.296  0.0641 -0.0002  0.0199
 9203SOL    HW239669   1.808   0.279   1.293 -0.1081 -0.3443 -1.1695
 9204SOL     OW39670   8.145   1.516   7.664  0.3008 -0.4745  0.0801
 9204SOL    HW139671   8.184   1.573   7.591 -0.4903 -0.9971 -0.7703
 9204SOL    HW239672   8.215   1.496   7.731  0.5376  1.6988  0.5232
 9205SOL     OW39673   3.823   6.746   4.528  0.0431  0.2850  0.6848
 9205SOL    HW139674   3.776   6.834   4.536 -0.3929  0.2889 -1.4866
 9205SOL    HW239675   3.770   6.685   4.470  2.4391  0.1119 -1.4393
 9206SOL     OW39676   9.031   9.085   4.111  0.3084  0.4789 -0.1601
 9206SOL    HW139677   8.982   9.164   4.149 -0.4784  0.5441 -1.2774
 9206SOL    HW239678   9.071   9.110   4.023  0.9311 -0.0759 -0.0345
 9207SOL     OW39679   0.239   3.537   2.829 -0.1433  0.2301  0.2275
 9207SOL    HW139680   0.245   3.634   2.807 -0.7148  0.3003  0.3782
 9207SOL    HW239681   0.143   3.511   2.841  0.0793 -0.0986  1.3512
 9208SOL     OW39682   8.716   0.578   3.645  0.0472  0.1869 -0.9946
 9208SOL    HW139683   8.760   0.609   3.562  0.8454 -0.3948 -0.7935
 9208SOL    HW239684   8.769   0.503   3.686 -1.0144 -0.4029 -0.6554
 9209SOL     OW39685   8.751   1.441   2.255  0.3809  0.1332  0.7663
 9209SOL    HW139686   8.782   1.368   2.317  0.9588  0.0712  0.4041
 9209SOL    HW239687   8.651   1.441   2.252  0.3802 -0.7598  0.6387
 9210SOL     OW39688   2.302   0.767   5.081  0.2089 -0.0014  0.1248
 9210SOL    HW139689   2.345   0.777   5.171  0.3627  1.7364 -0.1320
 9210SOL    HW239690   2.203   0.773   5.091  0.2020 -0.2421  0.2219
 9211SOL     OW39691   5.443   1.856   9.124  0.5689  0.1976 -0.0680
 9211SOL    HW139692   5.438   1.760   9.150 -0.6745  0.4486  0.6557
 9211SOL    HW239693   5.506   1.866   9.047  0.5954 -1.2057 -0.2448
 9212SOL     OW39694   1.929   4.355   4.649 -0.2733 -0.3441  0.3103
 9212SOL    HW139695   1.962   4.297   4.575 -3.3585 -0.2199 -1.2421
 9212SOL    HW239696   1.922   4.449   4.617 -0.5741 -0.0978  1.0896
 9213SOL     OW39697   4.192   0.048   2.447 -0.3079 -0.8046  0.0128
 9213SOL    HW139698   4.127   0.057   2.523  1.4363  0.0595  1.4569
 9213SOL    HW239699   4.186   0.129   2.388  0.2110 -0.2066  0.7688
 9214SOL     OW39700   8.836   8.482   8.795  0.1185 -0.8102 -0.0221
 9214SOL    HW139701   8.775   8.560   8.781 -0.4221 -1.4460 -1.3800
 9214SOL    HW239702   8.854   8.471   8.892  0.3222  1.0928  0.1727
 9215SOL     OW39703   3.205   2.057   3.853  0.7955 -0.5526  0.1777
 9215SOL    HW139704   3.257   1.991   3.907  0.0210 -1.2709  0.0598
 9215SOL    HW239705   3.164   2.125   3.913  2.6337  0.5585  0.1837
 9216SOL     OW39706   5.509   9.286   2.404 -0.1374  0.0663  0.4837
 9216SOL    HW139707   5.602   9.312   2.428  0.2943  0.4580 -1.5727
 9216SOL    HW239708   5.504   9.186   2.394 -0.3309 -0.1072  2.1683
 9217SOL     OW39709   8.927   2.382   6.775 -0.7885  0.4562 -0.2613
 9217SOL    HW139710   8.959   2.368   6.681 -3.9974 -0.6901 -1.2855
 9217SOL    HW239711   8.849   2.444   6.775 -2.4786 -1.5554  1.2623
 9218SOL     OW39712   4.208   6.667   0.712 -0.0699  0.1578 -0.1214
 9218SOL    HW139713   4.280   6.678   0.781 -0.5455 -0.5287  0.4991
 9218SOL    HW239714   4.241   6.700   0.624  1.5507 -1.5085 -0.1811
 9219SOL     OW39715   3.134   3.710   2.416 -0.7638 -0.1298  0.3799
 9219SOL    HW139716   3.206   3.665   2.362  0.7839  1.3326  1.1594
 9219SOL    HW239717   3.147   3.688   2.513  0.1504  2.1158  0.7976
 9220SOL     OW39718   4.124   2.610   9.510 -0.4993 -0.0068 -0.1694
 9220SOL    HW139719   4.121   2.628   9.412 -2.5271 -0.0024 -0.1176
 9220SOL    HW239720   4.032   2.612   9.548  0.2892  0.4058  1.8259
 9221SOL     OW39721   1.428   0.957   6.691  0.2895  0.2290 -0.5316
 9221SOL    HW139722   1.503   0.938   6.755 -0.9218 -1.1891  0.5113
 9221SOL    HW239723   1.431   1.053   6.664  0.6076  0.9764  1.9721
 9222SOL     OW39724   1.180   3.750   2.938  0.4601  0.1925 -0.2086
 9222SOL    HW139725   1.264   3.695   2.944  0.9488  0.9358 -0.2062
 9222SOL    HW239726   1.101   3.690   2.943  0.9922 -0.7005 -1.8844
 9223SOL     OW39727   0.740   5.119   4.066  0.6787  0.4296 -0.3662
 9223SOL    HW139728   0.738   5.020   4.056 -1.4476  0.3081  1.0227
 9223SOL    HW239729   0.830   5.148   4.100  1.3814 -0.9733 -1.0119
 9224SOL     OW39730   9.562   0.853   1.008  0.4179  0.0832 -0.2721
 9224SOL    HW139731   9.637   0.800   1.046  1.4438  0.1687 -2.1350
 9224SOL    HW239732   9.596   0.942   0.978 -0.8818  1.0140  0.9321
 9225SOL     OW39733   2.677   1.076   6.000  0.1202 -0.0025  0.3055
 9225SOL    HW139734   2.686   1.161   5.948 -1.8652  0.1094  0.1130
 9225SOL    HW239735   2.761   1.059   6.051  1.0207  1.3898 -0.6827
 9226SOL     OW39736   8.260   6.920   0.712  0.3066  0.3776 -0.3880
 9226SOL    HW139737   8.162   6.900   0.720  0.4907 -0.8848 -1.1111
 9226SOL    HW239738   8.279   6.961   0.623  0.3385  1.2803  0.0294
 9227SOL     OW39739   0.761   0.973   4.727 -0.1598 -0.0545 -1.0951
 9227SOL    HW139740   0.703   0.931   4.798  0.7328  1.1624  0.3816
 9227SOL    HW239741   0.855   0.944   4.741 -0.2647 -1.4327 -3.0518
 9228SOL     OW39742   8.310   0.559   7.463  0.0516 -0.2107 -0.2247
 9228SOL    HW139743   8.286   0.462   7.464 -1.4085  0.1252 -1.0080
 9228SOL    HW239744   8.229   0.613   7.441  0.8914  1.1809  0.0368
 9229SOL     OW39745   4.999   3.615   8.335 -0.0724  0.4413  0.2646
 9229SOL    HW139746   5.075   3.554   8.311 -1.3305 -0.7298 -0.8876
 9229SOL    HW239747   4.989   3.686   8.265 -0.0518  0.5767  0.3999
 9230SOL     OW39748   3.250   9.458   7.781  0.0457  0.2301 -0.7422
 9230SOL    HW139749   3.329   9.400   7.760  1.0413  1.7923 -1.3414
 9230SOL    HW239750   3.237   9.524   7.708  0.1712  2.1078  0.8996
 9231SOL     OW39751   1.974   9.021   0.780 -0.1578 -0.4759  0.0952
 9231SOL    HW139752   2.060   9.070   0.769  0.5903 -1.4530  1.3917
 9231SOL    HW239753   1.919   9.066   0.850 -0.4833 -0.1486 -0.3689
 9232SOL     OW39754   1.423   9.957   6.680 -0.2973  0.0917 -0.5315
 9232SOL    HW139755   1.481   9.953   6.599  0.0967  2.4345 -0.3942
 9232SOL    HW239756   1.328   9.972   6.652 -0.1158  1.2154 -0.5517
 9233SOL     OW39757   0.146   8.201   4.920  0.0593 -0.1860 -0.4013
 9233SOL    HW139758   0.172   8.144   4.843 -0.4107 -0.9332 -0.0156
 9233SOL    HW239759   0.227   8.224   4.974  0.1544 -1.1415 -0.1195
 9234SOL     OW39760   2.210   2.591   1.273 -0.3686 -0.0292  0.3501
 9234SOL    HW139761   2.147   2.659   1.235 -2.7319 -1.0206  2.3720
 9234SOL    HW239762   2.201   2.506   1.222 -0.2292 -0.0183  0.3051
 9235SOL     OW39763   4.852   9.454   8.782 -0.6167 -0.1678 -0.1796
 9235SOL    HW139764   4.806   9.366   8.772  0.5994 -0.8043 -0.3441
 9235SOL    HW239765   4.893   9.460   8.873  0.0176 -0.1366 -0.4647
 9236SOL     OW39766   3.430   2.609   8.800 -0.8372 -0.5373  0.3439
 9236SOL    HW139767   3.370   2.646   8.871  1.0107  2.4556  0.4311
 9236SOL    HW239768   3.408   2.651   8.712  1.0965  0.6556  0.3892
 9237SOL     OW39769   9.879   2.106   4.709  0.7708 -0.3434  0.7267
 9237SOL    HW139770   9.904   2.025   4.657 -0.1949 -0.8118  0.9770
 9237SOL    HW239771   9.956   2.171   4.710  0.1764  0.5417 -2.9428
 9238SOL     OW39772   3.782   4.976   2.090  0.1848  0.0068 -1.0059
 9238SOL    HW139773   3.767   5.058   2.035  1.5516  0.7331 -0.3122
 9238SOL    HW239774   3.856   4.922   2.050  0.1483 -0.2403 -0.7440
 9239SOL     OW39775   0.851   1.836   5.055  0.0743  0.2552 -0.2516
 9239SOL    HW139776   0.941   1.812   5.019 -0.4536  1.1636 -2.2623
 9239SOL    HW239777   0.812   1.910   5.000 -1.3828  0.7144  1.3587
 9240SOL     OW39778   1.290   3.078   4.867 -0.6057 -0.0165  0.0499
 9240SOL    HW139779   1.322   3.113   4.780  0.0238 -1.8019 -0.4616
 9240SOL    HW239780   1.265   3.154   4.927 -1.2118  1.2215 -1.7412
 9241SOL     OW39781   0.912   8.342   2.223 -0.1046  0.1041 -0.2831
 9241SOL    HW139782   0.834   8.352   2.161 -0.2359  0.1000 -0.1191
 9241SOL    HW239783   0.884   8.290   2.304 -0.3844  1.5972  0.5799
 9242SOL     OW39784   1.228   9.159   4.274  0.2469 -0.6796 -0.2090
 9242SOL    HW139785   1.249   9.068   4.310  1.4906 -0.1058  0.5625
 9242SOL    HW239786   1.202   9.151   4.178  1.2783 -1.7575 -0.4144
 9243SOL     OW39787   1.605   0.865   9.142 -0.5451  0.2698 -0.1122
 9243SOL    HW139788   1.598   0.783   9.084 -1.7427  0.2119  0.0963
 9243SOL    HW239789   1.697   0.871   9.179  0.4825  0.7055 -2.6054
 9244SOL     OW39790   2.089   7.497  10.041 -0.3874  0.1426 -0.4356
 9244SOL    HW139791   2.159   7.533  10.104 -1.2230  0.6779  0.1953
 9244SOL    HW239792   2.108   7.401  10.023 -0.0823  0.0063  0.5609
 9245SOL     OW39793   5.031   4.054   9.239 -0.1405 -0.2128 -0.2095
 9245SOL    HW139794   5.056   4.044   9.143 -0.2632  2.1853 -0.5187
 9245SOL    HW239795   5.078   4.132   9.278 -1.7661  0.1499  1.1034
 9246SOL     OW39796   9.133   8.383   5.133  0.2590 -0.3649  0.2961
 9246SOL    HW139797   9.194   8.429   5.198  0.1199 -0.8345  0.7576
 9246SOL    HW239798   9.085   8.452   5.079  0.3237  0.0298  0.7362
 9247SOL     OW39799   8.464   1.788   5.754  0.3690 -0.0694 -0.2843
 9247SOL    HW139800   8.415   1.705   5.727  1.9842 -0.5330 -1.8840
 9247SOL    HW239801   8.447   1.860   5.687 -0.5030  0.7012  0.7531
 9248SOL     OW39802   0.672   1.596   0.367  0.4554  0.4870 -0.4660
 9248SOL    HW139803   0.673   1.588   0.466  1.5596 -0.3909 -0.5381
 9248SOL    HW239804   0.642   1.688   0.341 -2.1691 -0.0077  0.6152
 9249SOL     OW39805   1.633   3.369   5.693 -0.5464  0.3705 -0.1532
 9249SOL    HW139806   1.628   3.458   5.738  0.1724 -0.5168  1.7329
 9249SOL    HW239807   1.541   3.341   5.665 -0.9620  1.0780  0.4671
 9250SOL     OW39808   9.940   1.180   9.052 -0.5790 -0.1365 -0.2039
 9250SOL    HW139809   9.934   1.192   9.151 -1.0573 -0.3405 -0.2077
 9250SOL    HW239810  10.022   1.128   9.030 -0.2908  0.2034  0.0574
 9251SOL     OW39811   4.085   7.020   9.779 -0.5177 -0.2817  0.0074
 9251SOL    HW139812   4.047   7.024   9.686 -0.5019  0.8955  0.0451
 9251SOL    HW239813   4.175   7.064   9.780  1.0022 -3.2579 -0.1319
 9252SOL     OW39814   0.726   6.112   6.043 -0.0553 -0.1652  1.0250
 9252SOL    HW139815   0.807   6.056   6.060  0.5001 -0.4275 -2.1410
 9252SOL    HW239816   0.754   6.207   6.030 -0.5248  0.1336  2.1632
 9253SOL     OW39817   3.044   4.175   8.615  0.1665  0.1255  0.2184
 9253SOL    HW139818   3.007   4.140   8.701 -0.8592 -1.2712 -0.7659
 9253SOL    HW239819   3.087   4.100   8.565 -1.8517  0.2896 -1.8179
 9254SOL     OW39820   8.923   9.027   9.995  0.2381  0.5767 -0.3116
 9254SOL    HW139821   8.954   8.941  10.037 -0.6305  0.6800  0.5796
 9254SOL    HW239822   8.957   9.033   9.902  0.2027 -0.8067 -0.4271
 9255SOL     OW39823   2.943   4.445   7.528 -0.6254 -0.1700 -0.1076
 9255SOL    HW139824   3.038   4.471   7.547 -0.9555  0.4523  0.6925
 9255SOL    HW239825   2.909   4.385   7.600 -1.2192  0.5674  0.2399
 9256SOL     OW39826   4.480   2.730   0.535  0.4562  0.2974 -0.1683
 9256SOL    HW139827   4.456   2.651   0.479 -1.6275 -0.3772  1.5933
 9256SOL    HW239828   4.469   2.706   0.632  0.9644  2.3798  0.4238
 9257SOL     OW39829   0.108   7.380   2.605 -0.0761 -0.5404  0.9174
 9257SOL    HW139830   0.058   7.295   2.587  0.5421 -0.9760  1.2218
 9257SOL    HW239831   0.053   7.438   2.665 -0.5116 -0.7135  0.6940
 9258SOL     OW39832   7.557   2.164   5.011  0.1602  0.0851 -0.4591
 9258SOL    HW139833   7.460   2.150   5.034  0.3839  0.2364  0.6099
 9258SOL    HW239834   7.581   2.109   4.931 -0.3302 -1.4474  0.4387
 9259SOL     OW39835   9.616   5.095   9.342 -0.0981  0.1941 -0.5002
 9259SOL    HW139836   9.644   5.004   9.311  0.9204  0.0240  0.8740
 9259SOL    HW239837   9.696   5.147   9.370 -0.9598  0.3052  1.8851
 9260SOL     OW39838   6.964   7.061   2.290  0.6283 -0.1067 -0.3350
 9260SOL    HW139839   6.994   6.965   2.286 -1.4910 -0.7710 -0.7728
 9260SOL    HW239840   6.993   7.108   2.206  1.3258 -0.4710 -0.3020
 9261SOL     OW39841   6.583   8.835   7.870 -0.0510  0.8013  0.0118
 9261SOL    HW139842   6.659   8.782   7.906 -0.1138 -1.7356 -3.3243
 9261SOL    HW239843   6.518   8.773   7.825 -2.3694  3.2750 -0.1350
 9262SOL     OW39844   9.175   5.471   7.836  0.1694 -0.1435 -0.1950
 9262SOL    HW139845   9.135   5.421   7.913 -0.5846 -1.1115 -1.2095
 9262SOL    HW239846   9.269   5.497   7.858 -0.4071  0.5553  1.4922
 9263SOL     OW39847   3.646   5.182   2.579 -0.0303 -0.1330  0.2672
 9263SOL    HW139848   3.683   5.140   2.496  0.6098 -0.6879  0.8232
 9263SOL    HW239849   3.685   5.273   2.590  1.5385 -0.8944  1.0940
 9264SOL     OW39850   6.292   6.177   9.299  0.8640  0.4304  0.4263
 9264SOL    HW139851   6.213   6.138   9.346  2.2865 -1.0955  1.6201
 9264SOL    HW239852   6.292   6.149   9.203  1.1786 -1.5006  0.9709
 9265SOL     OW39853   3.700   3.983   2.232  0.1438  0.6316 -0.5660
 9265SOL    HW139854   3.640   3.916   2.277  1.9671 -1.0552 -0.5626
 9265SOL    HW239855   3.647   4.036   2.166 -1.2516 -1.2307 -0.9882
 9266SOL     OW39856   2.797   7.742   8.096  0.1412 -0.3959 -0.3398
 9266SOL    HW139857   2.748   7.757   8.010 -1.3162  1.8761  0.8324
 9266SOL    HW239858   2.893   7.723   8.076 -0.0980  0.4306 -2.4767
 9267SOL     OW39859   0.476   5.996   6.351  0.4112 -0.5200  0.4955
 9267SOL    HW139860   0.566   5.995   6.394  0.3369 -0.5573  0.6540
 9267SOL    HW239861   0.441   6.090   6.347  0.8253 -0.4013 -0.3532
 9268SOL     OW39862   1.821   6.039   1.316 -0.1597  0.0121  0.6348
 9268SOL    HW139863   1.726   6.014   1.329 -0.4619 -0.8728 -2.6801
 9268SOL    HW239864   1.879   5.959   1.327 -0.1608 -0.1603 -0.4888
 9269SOL     OW39865   8.977   3.036   8.790 -0.0459 -0.3394 -0.3602
 9269SOL    HW139866   8.991   3.134   8.808  4.0960 -0.5741 -1.6702
 9269SOL    HW239867   8.994   2.984   8.874  0.6922 -0.1104 -0.3597
 9270SOL     OW39868   5.284   4.336   9.036 -0.1064  0.1329  0.1037
 9270SOL    HW139869   5.357   4.398   9.064  0.3365 -0.1378 -0.4397
 9270SOL    HW239870   5.279   4.259   9.099  0.1166  0.1192  0.1038
 9271SOL     OW39871   2.566   3.788   1.057  0.3232  0.3882 -0.7093
 9271SOL    HW139872   2.495   3.775   1.126 -0.0463  0.5292 -1.0651
 9271SOL    HW239873   2.644   3.730   1.079 -0.3611 -0.6345 -0.9577
 9272SOL     OW39874   3.105   3.429   1.274 -0.0734 -0.4529 -0.1972
 9272SOL    HW139875   3.093   3.524   1.302  1.7501 -0.0835 -0.6132
 9272SOL    HW239876   3.054   3.369   1.336 -2.2417  0.8691 -0.6935
 9273SOL     OW39877   4.693   6.481   8.877  0.3594  0.3988 -0.3748
 9273SOL    HW139878   4.627   6.548   8.909 -0.6378 -0.9529  0.4582
 9273SOL    HW239879   4.665   6.390   8.906  3.3550 -0.0677  1.2755
 9274SOL     OW39880   2.593   1.900   6.184 -1.0436 -0.0663  0.8415
 9274SOL    HW139881   2.544   1.889   6.270 -3.0426  1.2549 -0.1061
 9274SOL    HW239882   2.551   1.841   6.114  1.1184 -1.8204  0.9432
 9275SOL     OW39883   1.826   3.009   6.619 -0.6056  0.0824  0.6000
 9275SOL    HW139884   1.854   3.020   6.715 -1.9933  0.5256  0.9677
 9275SOL    HW239885   1.857   3.088   6.566  0.1560 -0.1588  0.6814
 9276SOL     OW39886   3.549   6.377   0.919  0.1589 -0.0112 -0.5311
 9276SOL    HW139887   3.540   6.456   0.981 -1.4283  0.4535 -1.3465
 9276SOL    HW239888   3.517   6.295   0.965 -0.5031  0.2406 -0.5412
 9277SOL     OW39889   7.560   3.898   8.913 -0.8901  0.2703  0.1827
 9277SOL    HW139890   7.532   3.815   8.865 -2.5513  0.8243  0.1473
 9277SOL    HW239891   7.618   3.873   8.992 -0.6447 -0.8425 -0.3340
 9278SOL     OW39892   1.426   3.126   0.919  0.3146  0.0618  0.3852
 9278SOL    HW139893   1.459   3.168   0.834  1.0012 -0.2834  0.4832
 9278SOL    HW239894   1.339   3.168   0.944  0.3801  0.5583 -0.1922
 9279SOL     OW39895   1.456   5.233   7.654 -0.5968  0.0818 -0.2393
 9279SOL    HW139896   1.526   5.177   7.609  0.2340 -0.0157  1.1395
 9279SOL    HW239897   1.442   5.317   7.601  1.3721  0.6223  0.0227
 9280SOL     OW39898   7.324   7.881   4.772 -0.2112 -0.6444  0.1547
 9280SOL    HW139899   7.308   7.894   4.674  2.1305 -3.8011 -0.7224
 9280SOL    HW239900   7.241   7.846   4.815 -0.9291 -0.2619 -0.8989
 9281SOL     OW39901   8.492   9.775   7.172 -0.0431  0.2230 -0.2841
 9281SOL    HW139902   8.561   9.769   7.245  0.7150  0.3381 -0.9893
 9281SOL    HW239903   8.524   9.839   7.102 -1.5696  1.4755  0.1470
 9282SOL     OW39904   1.269   9.646   4.709 -0.5578 -0.6006 -0.5844
 9282SOL    HW139905   1.275   9.546   4.713 -0.2987 -0.5362  0.7600
 9282SOL    HW239906   1.306   9.685   4.793  0.4105  0.6794 -1.5912
 9283SOL     OW39907   7.092   7.643   3.190  0.3357 -0.4114 -0.1353
 9283SOL    HW139908   7.139   7.602   3.269 -0.9460  0.1033  0.9239
 9283SOL    HW239909   7.134   7.610   3.106 -0.1014 -3.2187  0.6882
 9284SOL     OW39910   9.640   2.579   3.902 -0.2834 -0.2665 -0.1994
 9284SOL    HW139911   9.693   2.505   3.944 -0.8700 -1.0297 -0.7879
 9284SOL    HW239912   9.546   2.577   3.936 -0.4432 -0.1285 -0.6254
 9285SOL     OW39913   1.531   8.563   9.183 -0.1205 -0.1486 -0.0650
 9285SOL    HW139914   1.505   8.624   9.257 -0.2499 -0.9352  0.5467
 9285SOL    HW239915   1.482   8.477   9.192  1.6184 -1.1320  0.2946
 9286SOL     OW39916   8.968   6.408   6.622  0.4657 -0.0492 -0.3023
 9286SOL    HW139917   8.957   6.309   6.613 -0.1312 -0.0234  0.1371
 9286SOL    HW239918   9.053   6.428   6.671 -0.3494 -0.3949  1.2676
 9287SOL     OW39919   9.739   5.754   0.700  0.2765  0.3386 -0.4910
 9287SOL    HW139920   9.673   5.732   0.772 -0.0022  0.1327 -0.8064
 9287SOL    HW239921   9.710   5.711   0.614 -0.0834  1.6321 -1.0330
 9288SOL     OW39922   8.307   0.872   4.763  0.2139 -0.2827  0.4430
 9288SOL    HW139923   8.258   0.785   4.765  2.1498 -1.5038 -2.3358
 9288SOL    HW239924   8.281   0.924   4.682  1.8533  0.0568  0.1145
 9289SOL     OW39925   6.972   8.856   4.524  0.6799 -0.3493 -0.0635
 9289SOL    HW139926   7.000   8.761   4.520 -0.1903 -0.6062 -0.2280
 9289SOL    HW239927   6.931   8.876   4.613  0.8780 -0.1290 -0.0215
 9290SOL     OW39928   7.333   2.450   8.909 -0.1308 -0.2141  0.6177
 9290SOL    HW139929   7.325   2.383   8.836 -1.1444 -1.3644  1.7584
 9290SOL    HW239930   7.408   2.513   8.888 -0.9284 -0.0113 -1.7880
 9291SOL     OW39931   9.177   3.838   8.747  0.1865 -0.5117  0.2193
 9291SOL    HW139932   9.154   3.836   8.844 -0.6237 -0.2829  0.0335
 9291SOL    HW239933   9.179   3.933   8.715 -1.6027 -0.6760 -0.4632
 9292SOL     OW39934   6.574   8.100   4.647 -0.3304  0.6333 -0.1067
 9292SOL    HW139935   6.503   8.062   4.588 -0.6401 -2.4772  2.1461
 9292SOL    HW239936   6.664   8.068   4.616 -0.2366  1.3540 -0.5928
 9293SOL     OW39937   0.858   2.683   3.163  0.1560 -0.4150 -0.3546
 9293SOL    HW139938   0.781   2.620   3.152  0.8205 -1.3754  0.5351
 9293SOL    HW239939   0.867   2.738   3.079 -0.0797 -1.8611 -1.3522
 9294SOL     OW39940   9.191   3.370   2.645 -0.1996  0.1378  0.1122
 9294SOL    HW139941   9.254   3.438   2.682 -0.2705 -0.1978  0.8695
 9294SOL    HW239942   9.097   3.396   2.668 -0.6114  2.2285 -3.5843
 9295SOL     OW39943   3.125   0.603   2.179 -0.3392 -0.0529  0.4177
 9295SOL    HW139944   3.201   0.609   2.243  0.7614  1.2318 -0.9824
 9295SOL    HW239945   3.039   0.612   2.229  0.3658 -2.3120  2.1210
 9296SOL     OW39946   8.786   4.284   9.620 -0.1260  0.1394 -0.0845
 9296SOL    HW139947   8.783   4.365   9.561 -1.0982 -0.6522 -1.1293
 9296SOL    HW239948   8.696   4.241   9.624  0.1662 -0.3978  1.1869
 9297SOL     OW39949   4.198   1.663   5.432  0.2740  0.4494 -0.8254
 9297SOL    HW139950   4.263   1.605   5.382 -1.2688 -1.0440 -1.1538
 9297SOL    HW239951   4.109   1.618   5.435 -0.7655  2.4840 -0.3959
 9298SOL     OW39952   7.638   2.059   3.618 -0.0308 -0.1937 -0.0754
 9298SOL    HW139953   7.650   1.963   3.592  0.3845  0.0021 -0.5988
 9298SOL    HW239954   7.705   2.115   3.570  2.0039 -0.0475  2.7979
 9299SOL     OW39955   0.936   8.986   3.836 -0.0763  0.4759 -0.2417
 9299SOL    HW139956   0.971   9.067   3.788  0.0873  0.7325  0.3033
 9299SOL    HW239957   0.938   8.907   3.774  0.9319  0.6124 -0.3982
 9300SOL     OW39958   2.644   8.691   2.070 -0.7220 -0.1656  0.1901
 9300SOL    HW139959   2.703   8.702   2.150  2.1068  1.7312 -2.0252
 9300SOL    HW239960   2.609   8.781   2.043 -0.2233 -0.5190 -1.6771
 9301SOL     OW39961   9.024   7.795   7.803 -0.4531  0.3345  0.4222
 9301SOL    HW139962   9.028   7.695   7.794  1.1768  0.2940  1.3056
 9301SOL    HW239963   8.930   7.826   7.788 -0.6821 -1.1611 -1.4663
 9302SOL     OW39964   2.939   6.017   8.877  0.2025  0.1387 -0.4345
 9302SOL    HW139965   2.889   6.103   8.874 -1.5540 -0.8953 -1.3219
 9302SOL    HW239966   2.894   5.953   8.938  1.1723 -0.3678 -0.2315
 9303SOL     OW39967   7.664   0.097   2.000  0.9395  0.0910  0.9250
 9303SOL    HW139968   7.564   0.104   1.998  0.9342 -0.1456 -0.1819
 9303SOL    HW239969   7.692   0.008   1.964  1.5711  0.3689  0.7139
 9304SOL     OW39970   8.828   2.756   8.129 -0.2863 -0.0688 -0.3071
 9304SOL    HW139971   8.924   2.729   8.122 -0.9299 -2.4843  0.0217
 9304SOL    HW239972   8.792   2.774   8.037  0.3020  0.2897 -0.4728
 9305SOL     OW39973   8.840   5.862   5.046  0.3167  0.4384 -0.2102
 9305SOL    HW139974   8.777   5.865   4.969  0.5990  0.9478 -0.4292
 9305SOL    HW239975   8.793   5.890   5.129 -0.0866 -0.4685 -0.1222
 9306SOL     OW39976   5.595   5.293   1.338  0.4178 -0.6115  0.1832
 9306SOL    HW139977   5.631   5.256   1.424 -1.5583 -3.4621 -0.1334
 9306SOL    HW239978   5.507   5.337   1.356 -0.5633 -2.2319 -0.5083
 9307SOL     OW39979   4.096   6.281   8.309 -0.1881  0.1113  0.2793
 9307SOL    HW139980   4.107   6.183   8.293 -1.0636  0.1818 -0.8478
 9307SOL    HW239981   4.000   6.301   8.328  0.0626  0.6948  0.9446
 9308SOL     OW39982   5.251   2.149   1.124  0.1251  1.0761 -0.3493
 9308SOL    HW139983   5.231   2.084   1.198 -1.3730  0.2774 -1.4200
 9308SOL    HW239984   5.343   2.131   1.088  0.3125  0.5511  0.3728
 9309SOL     OW39985   4.818   9.442   3.801  0.0584 -0.8439 -0.6655
 9309SOL    HW139986   4.876   9.404   3.729  1.3934 -0.0241 -0.0643
 9309SOL    HW239987   4.797   9.371   3.868  0.6539 -1.0842 -0.7292
 9310SOL     OW39988   3.746   8.449   9.007 -0.2357  0.2690  0.2700
 9310SOL    HW139989   3.735   8.441   8.908  3.4875  1.1747 -0.3033
 9310SOL    HW239990   3.657   8.461   9.050 -2.1135 -2.1287 -2.7415
 9311SOL     OW39991   9.153   6.703   7.239  0.1860 -0.3545 -0.8607
 9311SOL    HW139992   9.063   6.692   7.281  0.0076 -2.0266 -1.6446
 9311SOL    HW239993   9.147   6.771   7.165  0.1318  1.3227  0.6565
 9312SOL     OW39994   1.539   5.599   4.516 -0.0995 -0.3736  0.6169
 9312SOL    HW139995   1.537   5.681   4.574 -0.8552  0.9816 -1.2443
 9312SOL    HW239996   1.470   5.608   4.444 -0.9202 -3.1597  1.0149
 9313SOL     OW39997   1.062   1.772   4.895 -0.3146 -0.1256 -0.3811
 9313SOL    HW139998   1.069   1.857   4.843  1.3886  1.1882  1.8661
 9313SOL    HW239999   1.132   1.708   4.864  1.0078  0.8334  0.5824
 9314SOL     OW40000   2.593   2.794   5.525  0.5309  0.1653 -0.3118
 9314SOL    HW140001   2.688   2.761   5.521  0.4364 -0.4819  2.2707
 9314SOL    HW240002   2.589   2.880   5.575 -0.2946  0.0183 -0.1185
 9315SOL     OW40003   1.113   7.580   7.989 -0.4779  0.2307  0.0529
 9315SOL    HW140004   1.073   7.534   8.068 -0.2972  1.6463  0.9827
 9315SOL    HW240005   1.042   7.628   7.938 -0.1424  1.9224  1.1437
 9316SOL     OW40006   1.810   3.137   5.602  0.1868 -0.7386 -0.3859
 9316SOL    HW140007   1.769   3.228   5.602 -2.2393 -1.7590 -2.8308
 9316SOL    HW240008   1.899   3.140   5.647 -0.2936  2.6188  0.4354
 9317SOL     OW40009   3.290   8.768   2.214 -0.4012  0.1711 -0.0375
 9317SOL    HW140010   3.343   8.723   2.142 -1.0364 -3.3640  1.6033
 9317SOL    HW240011   3.192   8.762   2.193 -0.5925 -0.8938  1.0613
 9318SOL     OW40012   0.689   8.579   3.571  0.1482 -0.4950  0.4221
 9318SOL    HW140013   0.748   8.597   3.650 -0.9180  1.5865  0.7725
 9318SOL    HW240014   0.737   8.605   3.487  0.6956 -1.2424  0.5028
 9319SOL     OW40015   0.960   7.988   0.589 -0.1174 -0.0658  0.1232
 9319SOL    HW140016   0.910   8.008   0.505  3.2690  2.3509 -1.4538
 9319SOL    HW240017   0.980   8.073   0.638  1.4191 -1.0377  1.2524
 9320SOL     OW40018   8.348   4.734   1.765 -0.2268 -0.0831  0.5584
 9320SOL    HW140019   8.413   4.808   1.786  1.3538 -1.3753  0.3199
 9320SOL    HW240020   8.345   4.721   1.666  0.1598 -0.9270  0.6591
 9321SOL     OW40021   6.229   4.697   9.720  0.3562 -0.2770 -1.1087
 9321SOL    HW140022   6.205   4.714   9.625 -0.4675 -1.2657 -1.0880
 9321SOL    HW240023   6.147   4.666   9.770  1.4681 -2.9152 -0.8397
 9322SOL     OW40024   8.029   1.709   5.047 -0.2247  0.0062 -0.2621
 9322SOL    HW140025   8.109   1.649   5.049  0.5407  0.9981 -0.6548
 9322SOL    HW240026   7.969   1.681   4.972  1.5838  1.5337 -2.3729
 9323SOL     OW40027   4.939   2.871   1.548  0.3506 -0.1268 -0.1282
 9323SOL    HW140028   4.920   2.936   1.474 -1.6678  0.6468  1.0015
 9323SOL    HW240029   4.866   2.802   1.550  0.2187  0.0387  1.2968
 9324SOL     OW40030   8.336   4.576   9.968  0.4042  0.4201  0.6659
 9324SOL    HW140031   8.284   4.658   9.946 -1.5062 -0.9696 -0.2349
 9324SOL    HW240032   8.348   4.569  10.067 -1.0366  0.8544  0.8876
 9325SOL     OW40033   1.549   4.066   7.152 -0.8749  0.0415 -0.0580
 9325SOL    HW140034   1.523   4.159   7.126  0.2127 -0.0928 -1.7187
 9325SOL    HW240035   1.622   4.070   7.221  0.6351  0.4424 -1.6551
 9326SOL     OW40036   9.320   0.790   6.209 -0.1419  0.2356  0.1976
 9326SOL    HW140037   9.399   0.850   6.206  1.1085 -1.4009 -0.3423
 9326SOL    HW240038   9.255   0.823   6.277  0.7536  1.8976  0.2549
 9327SOL     OW40039   1.208   3.325   8.193  0.2180  0.0943 -0.1958
 9327SOL    HW140040   1.255   3.398   8.243  0.5408 -0.0740 -0.2533
 9327SOL    HW240041   1.274   3.273   8.139 -0.2206  0.7064 -1.3430
 9328SOL     OW40042   0.141   3.095   4.234 -0.2931 -0.2547  0.4950
 9328SOL    HW140043   0.045   3.124   4.240 -0.8190 -1.8259  0.1061
 9328SOL    HW240044   0.170   3.060   4.323 -0.5409 -1.1227  0.2391
 9329SOL     OW40045   6.529   1.915   9.691  0.1920 -0.7652 -0.3072
 9329SOL    HW140046   6.532   2.013   9.709 -0.1127 -0.2983 -2.5820
 9329SOL    HW240047   6.549   1.865   9.775 -1.4946  1.2038  1.3510
 9330SOL     OW40048   5.197   9.351   6.672  0.0832  0.2979  0.1890
 9330SOL    HW140049   5.270   9.293   6.637 -0.6423 -0.7468  0.3687
 9330SOL    HW240050   5.200   9.351   6.772  1.0140  1.7950  0.1703
 9331SOL     OW40051   4.710   8.404   6.991  0.0390 -0.2773 -0.1106
 9331SOL    HW140052   4.712   8.503   7.004 -0.5648 -0.2650 -0.0759
 9331SOL    HW240053   4.768   8.379   6.914 -0.6152  0.2189 -0.7793
 9332SOL     OW40054   7.763   6.813   1.861 -0.5029  0.3052  0.0046
 9332SOL    HW140055   7.709   6.865   1.928 -0.5885 -0.0643  0.2239
 9332SOL    HW240056   7.709   6.802   1.777 -0.5979  0.3185  0.0631
 9333SOL     OW40057   5.940   0.207   4.647  0.1164  0.3726  0.6128
 9333SOL    HW140058   5.862   0.173   4.594  0.6548 -0.1777  0.1712
 9333SOL    HW240059   5.978   0.288   4.602  0.3548  0.1122  0.3433
 9334SOL     OW40060   1.202   4.050   8.084 -0.1142  0.6505  0.3735
 9334SOL    HW140061   1.282   3.997   8.056 -0.4245  0.2994  0.1515
 9334SOL    HW240062   1.154   4.000   8.157  0.0638  1.0242  0.7463
 9335SOL     OW40063   3.259   6.769   2.272 -0.2949  0.9441 -0.4190
 9335SOL    HW140064   3.338   6.752   2.214 -0.9605 -2.3750 -0.4460
 9335SOL    HW240065   3.179   6.721   2.236 -0.7661 -1.0963  3.0683
 9336SOL     OW40066   5.265   3.152   9.719  0.1075 -0.0212 -0.6349
 9336SOL    HW140067   5.240   3.114   9.808  0.9411 -0.8687 -0.7555
 9336SOL    HW240068   5.211   3.234   9.701  0.0332  0.2317  0.7186
 9337SOL     OW40069   3.809   6.503   7.496  0.5811 -0.4686  0.3844
 9337SOL    HW140070   3.746   6.443   7.546 -0.6492  1.6985  1.5179
 9337SOL    HW240071   3.893   6.514   7.549  0.2602 -0.1161  0.8221
 9338SOL     OW40072   8.027   9.387   6.915 -1.1534  0.6345 -0.1729
 9338SOL    HW140073   7.952   9.395   6.980 -1.1833  0.5756 -0.1997
 9338SOL    HW240074   7.992   9.394   6.822 -0.9564  1.9116 -0.1590
 9339SOL     OW40075   1.964   9.117   7.967  0.3977 -0.5007  0.1526
 9339SOL    HW140076   2.030   9.109   7.891  0.3252 -1.0452  0.1470
 9339SOL    HW240077   1.924   9.209   7.965 -0.0965 -0.7254 -0.8809
 9340SOL     OW40078   2.990   9.284   4.663  0.3134 -0.4945  0.1946
 9340SOL    HW140079   3.003   9.299   4.761 -0.8010  0.3184  0.2222
 9340SOL    HW240080   3.033   9.198   4.637 -0.6708 -1.4647  1.6778
 9341SOL     OW40081   1.314   7.851   3.832  0.5240  0.1742 -0.5316
 9341SOL    HW140082   1.391   7.788   3.829  0.9315  0.4706  1.9372
 9341SOL    HW240083   1.342   7.941   3.799  0.6845 -0.2479 -1.5324
 9342SOL     OW40084   6.558   3.981   2.616 -0.1740  0.3206  0.3000
 9342SOL    HW140085   6.532   3.929   2.697 -0.7942  0.9821  0.5307
 9342SOL    HW240086   6.656   3.971   2.600 -0.1844 -0.4283  0.6893
 9343SOL     OW40087   2.754   5.851   3.193  0.3682 -0.1076  0.3240
 9343SOL    HW140088   2.670   5.857   3.140  0.1245 -1.0953  0.5972
 9343SOL    HW240089   2.761   5.931   3.253  0.5432  0.9000 -1.0176
 9344SOL     OW40090   2.789   8.976   6.009  0.6261  0.6576 -0.4290
 9344SOL    HW140091   2.829   8.988   6.100 -2.4855 -0.9466  1.2301
 9344SOL    HW240092   2.844   8.911   5.957  2.4523  1.6053  0.2372
 9345SOL     OW40093   9.238   1.759   9.686 -0.4982  0.2327  0.1502
 9345SOL    HW140094   9.205   1.666   9.697 -4.5753  1.6735  1.0732
 9345SOL    HW240095   9.316   1.775   9.747  1.1236 -2.8728 -1.0131
 9346SOL     OW40096   8.596   8.500   9.040 -0.6994 -0.1452 -0.2679
 9346SOL    HW140097   8.628   8.584   9.084 -0.4572 -0.7643  0.7479
 9346SOL    HW240098   8.576   8.431   9.110 -2.0220 -0.5439 -1.0333
 9347SOL     OW40099   2.861   7.724   9.786  0.0657 -0.3996 -0.3004
 9347SOL    HW140100   2.832   7.681   9.700 -1.8134  0.2374 -0.0155
 9347SOL    HW240101   2.929   7.794   9.767 -4.0871  3.4775 -2.0199
 9348SOL     OW40102   2.411   3.252   7.808  0.3219 -0.3692  0.5077
 9348SOL    HW140103   2.378   3.332   7.858  0.3275  1.3662 -2.1762
 9348SOL    HW240104   2.491   3.277   7.753  0.1535 -2.1514 -0.5876
 9349SOL     OW40105   8.841   9.287   1.093  0.4133 -0.4381  0.1484
 9349SOL    HW140106   8.855   9.282   1.192  0.5937  1.5582  0.2398
 9349SOL    HW240107   8.877   9.204   1.050  2.0198 -0.4997  1.5746
 9350SOL     OW40108   4.447   6.502   8.610  0.1633  0.2457 -0.1389
 9350SOL    HW140109   4.406   6.431   8.552  1.4428 -0.0470 -0.7255
 9350SOL    HW240110   4.477   6.461   8.696  2.9148 -0.4555 -1.3626
 9351SOL     OW40111   7.723   6.928   3.085 -0.4367 -0.2476  0.3120
 9351SOL    HW140112   7.796   6.879   3.037 -0.4144 -0.4038  0.5056
 9351SOL    HW240113   7.639   6.873   3.083 -0.9649  0.5738 -1.1940
 9352SOL     OW40114   2.977   4.064   0.916 -0.2605 -0.2662  0.3592
 9352SOL    HW140115   3.052   4.064   0.849  0.4814 -1.6996  1.1843
 9352SOL    HW240116   2.899   4.013   0.879 -1.0565  1.6522 -0.7095
 9353SOL     OW40117   7.260   6.211   6.868  0.1148 -0.2397  0.4153
 9353SOL    HW140118   7.301   6.270   6.798 -1.3146 -1.1789 -1.2508
 9353SOL    HW240119   7.177   6.254   6.903 -0.7309 -1.0806 -0.5390
 9354SOL     OW40120   8.683   8.729   6.030 -0.2562 -0.1508  0.0149
 9354SOL    HW140121   8.615   8.666   6.068  0.6720 -1.7931 -0.9838
 9354SOL    HW240122   8.665   8.742   5.933 -0.1487  0.7616  0.1150
 9355SOL     OW40123   1.914   8.970   2.659 -0.5516  0.2154  0.0652
 9355SOL    HW140124   1.960   8.948   2.573 -1.6802  0.6458 -0.6501
 9355SOL    HW240125   1.909   9.069   2.670  0.3979  0.1723  1.0807
 9356SOL     OW40126   3.800   7.869   2.081 -0.2280  0.0154 -0.7012
 9356SOL    HW140127   3.767   7.960   2.108  1.0452  0.5050 -0.7770
 9356SOL    HW240128   3.879   7.844   2.137 -0.5643 -1.0545 -0.6870
 9357SOL     OW40129   7.397   8.559   4.577  0.5502  0.2687  0.4101
 9357SOL    HW140130   7.490   8.547   4.540  0.2409  0.0778 -0.3191
 9357SOL    HW240131   7.336   8.591   4.504 -0.8314 -3.4058 -0.1568
 9358SOL     OW40132   5.331   9.760   3.119 -0.0783  0.3357  0.3622
 9358SOL    HW140133   5.332   9.747   3.218 -1.7441  0.2552  0.3790
 9358SOL    HW240134   5.236   9.765   3.086  0.4343 -1.3507 -1.4568
 9359SOL     OW40135   0.373   5.858   5.756  0.0500  0.8468 -0.3001
 9359SOL    HW140136   0.426   5.942   5.761  1.9659 -0.2244 -1.9608
 9359SOL    HW240137   0.425   5.784   5.799 -1.6342  0.4966  1.1823
 9360SOL     OW40138   7.338   2.125   4.491  0.1058 -0.2676 -0.1836
 9360SOL    HW140139   7.407   2.154   4.425 -0.4127 -0.2966 -0.7413
 9360SOL    HW240140   7.247   2.133   4.450 -0.2294 -0.1711  0.5669
 9361SOL     OW40141   4.482   8.263  10.036 -0.3778 -0.2422  0.4815
 9361SOL    HW140142   4.434   8.302   9.958 -2.0963 -1.1110  1.0724
 9361SOL    HW240143   4.416   8.236  10.106  0.9201 -2.0713  1.0535
 9362SOL     OW40144   5.773   4.973   1.510  0.2929 -0.4813  0.4716
 9362SOL    HW140145   5.841   5.046   1.521 -0.1770  0.4974 -2.5737
 9362SOL    HW240146   5.805   4.891   1.557  2.0536  0.8946  1.7880
 9363SOL     OW40147   9.866   1.623   2.796  0.5738  0.7510  0.1474
 9363SOL    HW140148   9.796   1.556   2.818  0.5733  0.5183 -0.5885
 9363SOL    HW240149   9.946   1.608   2.855  0.0306  0.9846  0.9461
 9364SOL     OW40150   4.177   4.668   9.765 -0.0311 -0.0313  0.1607
 9364SOL    HW140151   4.219   4.753   9.736 -0.1964 -0.3035 -0.8901
 9364SOL    HW240152   4.114   4.686   9.841  0.3703  0.6905  0.3236
 9365SOL     OW40153   7.976   6.927   0.754 -0.3967  0.4135 -0.1627
 9365SOL    HW140154   7.924   6.849   0.791 -2.7261  0.5175 -2.9849
 9365SOL    HW240155   7.985   6.997   0.825 -2.0016 -0.6536  1.1535
 9366SOL     OW40156   2.014   2.894   0.549  0.7114 -0.1950  0.4345
 9366SOL    HW140157   2.032   2.900   0.647  1.1872 -1.3945  0.4340
 9366SOL    HW240158   2.100   2.898   0.499  0.5498 -0.4943  0.1267
 9367SOL     OW40159   3.842   1.946   5.641 -0.4107  0.1115 -0.1377
 9367SOL    HW140160   3.917   1.882   5.657  0.8395  1.0130 -2.2316
 9367SOL    HW240161   3.808   1.979   5.729  1.1933 -0.8240  0.8580
 9368SOL     OW40162   8.757   2.096   0.451 -0.2275  0.2568 -0.0216
 9368SOL    HW140163   8.786   2.010   0.410  0.7996  0.8144 -0.5191
 9368SOL    HW240164   8.658   2.107   0.442 -0.1591 -0.1469 -1.3942
 9369SOL     OW40165   7.236   0.495   3.139 -0.0869  0.2478  0.6003
 9369SOL    HW140166   7.269   0.529   3.227 -0.1429  1.3477  0.2045
 9369SOL    HW240167   7.153   0.544   3.114 -0.2502 -0.2915  0.0840
 9370SOL     OW40168   7.160   3.026   3.144  0.3050  0.5887 -0.0906
 9370SOL    HW140169   7.150   3.109   3.198  0.2377  0.6394 -0.1807
 9370SOL    HW240170   7.216   3.045   3.063  1.5868  0.1833  0.6742
 9371SOL     OW40171   2.721   8.148   6.983 -0.2658 -0.7369  0.6014
 9371SOL    HW140172   2.703   8.236   6.940  0.0007 -0.7785  0.4024
 9371SOL    HW240173   2.819   8.128   6.978 -0.4180 -1.3400  0.0834
 9372SOL     OW40174   3.647   3.425   5.128  0.1368 -0.1123  0.5043
 9372SOL    HW140175   3.548   3.415   5.137 -0.2611  1.4900 -1.6886
 9372SOL    HW240176   3.679   3.493   5.195 -0.8780  2.3526 -1.4427
 9373SOL     OW40177   6.011   9.884   6.165  0.0292 -0.4540 -0.0013
 9373SOL    HW140178   6.017   9.882   6.265  0.4394  0.7000  0.0022
 9373SOL    HW240179   5.916   9.901   6.138  0.0447 -0.0374  0.2028
 9374SOL     OW40180   8.569   2.887   4.330 -0.3956 -0.3731 -0.3658
 9374SOL    HW140181   8.520   2.804   4.304 -1.0441  0.3923 -1.5886
 9374SOL    HW240182   8.511   2.967   4.316  0.8940  0.4691 -1.0386
 9375SOL     OW40183   8.832   1.302   7.161  0.2065  0.0048  0.4800
 9375SOL    HW140184   8.733   1.317   7.161  0.1820 -0.0910 -0.9213
 9375SOL    HW240185   8.855   1.236   7.232 -0.6077  0.8398  1.5356
 9376SOL     OW40186   4.194   0.546   1.744 -0.3934 -0.1834 -0.0856
 9376SOL    HW140187   4.187   0.513   1.838  1.8873 -0.5567 -0.0127
 9376SOL    HW240188   4.158   0.477   1.681  2.6571 -2.1035  0.1959
 9377SOL     OW40189   5.442   0.557   7.007 -0.2501 -0.7630  0.6657
 9377SOL    HW140190   5.359   0.500   7.008 -0.8419  0.0984  1.1664
 9377SOL    HW240191   5.416   0.653   7.011  0.7271 -0.4329 -0.5855
 9378SOL     OW40192   6.877   0.078   1.617  0.2512  0.4452  0.0508
 9378SOL    HW140193   6.791   0.027   1.616  0.5758 -0.0895 -0.7220
 9378SOL    HW240194   6.879   0.144   1.542  1.8994 -1.8906 -2.0567
 9379SOL     OW40195   7.126   9.543   5.002 -0.2052  0.6253 -0.3528
 9379SOL    HW140196   7.168   9.599   4.931  1.5142 -0.5832 -0.3200
 9379SOL    HW240197   7.115   9.449   4.968  2.1718 -0.3843  1.4715
 9380SOL     OW40198   4.611   0.857   3.348 -0.5150 -0.9251 -0.2926
 9380SOL    HW140199   4.623   0.943   3.397 -0.1267  0.4172 -2.6663
 9380SOL    HW240200   4.690   0.798   3.365  1.1428  0.8037 -1.8022
 9381SOL     OW40201   4.719   4.181   6.665 -0.1373  0.3495  0.1081
 9381SOL    HW140202   4.719   4.276   6.637  0.2698  1.3900  3.4439
 9381SOL    HW240203   4.625   4.153   6.688 -0.0672  0.3886  0.4555
 9382SOL     OW40204   8.119   4.135   3.016 -0.2703 -0.7397  0.1931
 9382SOL    HW140205   8.067   4.090   2.944  2.2818  1.0590 -2.8825
 9382SOL    HW240206   8.077   4.222   3.039 -0.1139 -0.5231 -0.3522
 9383SOL     OW40207   7.565   2.168   0.792  0.2001  0.1633  0.2195
 9383SOL    HW140208   7.528   2.152   0.700 -0.0769 -0.8730  0.5032
 9383SOL    HW240209   7.547   2.263   0.819 -1.2627 -0.0081 -0.1060
 9384SOL     OW40210   2.553   3.651   9.088 -0.0205 -0.7186  0.3798
 9384SOL    HW140211   2.596   3.678   9.002  0.5187 -0.5917  0.6874
 9384SOL    HW240212   2.519   3.732   9.135 -0.9261 -0.8464 -0.0256
 9385SOL     OW40213   0.296   4.303   1.947 -0.4097 -0.1958 -0.1515
 9385SOL    HW140214   0.351   4.377   1.908 -1.1944 -0.9774 -2.7778
 9385SOL    HW240215   0.201   4.333   1.956 -0.6609 -0.7595 -0.8959
 9386SOL     OW40216   5.442   2.879   5.224  0.0005  0.1327  0.0595
 9386SOL    HW140217   5.378   2.806   5.201  0.3945  0.2762 -1.5724
 9386SOL    HW240218   5.392   2.961   5.250 -0.4434 -0.8223  2.2866
 9387SOL     OW40219   4.209   9.838   2.952  0.0292  0.1823  0.3700
 9387SOL    HW140220   4.207   9.849   3.051 -0.5395  1.1037  0.2554
 9387SOL    HW240221   4.149   9.762   2.926  1.0343 -0.7789  0.8188
 9388SOL     OW40222   6.429   5.133   1.359 -0.0485  0.1590  0.3991
 9388SOL    HW140223   6.387   5.210   1.311 -0.0487  1.7789  2.9393
 9388SOL    HW240224   6.357   5.078   1.402 -0.1964 -2.3032 -2.7868
 9389SOL     OW40225   0.499   1.548   9.406  0.1008  0.3234 -0.1470
 9389SOL    HW140226   0.442   1.560   9.487 -1.9259 -0.6380 -1.3951
 9389SOL    HW240227   0.456   1.594   9.328  2.1135  1.3857 -0.6727
 9390SOL     OW40228   8.267   1.250   6.824  0.2666 -0.0993 -0.3705
 9390SOL    HW140229   8.341   1.312   6.796  1.5823 -1.5737 -0.2549
 9390SOL    HW240230   8.264   1.245   6.924 -1.0172  1.1492 -0.3375
 9391SOL     OW40231   4.007   8.567   7.246 -0.0289 -0.3757 -0.2101
 9391SOL    HW140232   4.003   8.585   7.344 -2.2107 -1.5008 -0.0604
 9391SOL    HW240233   4.094   8.522   7.224 -0.4012 -2.0434  1.5574
 9392SOL     OW40234   0.931   6.377   1.573  0.0676 -0.0515 -0.2460
 9392SOL    HW140235   0.967   6.287   1.596 -0.3478 -0.1625 -0.0342
 9392SOL    HW240236   1.007   6.438   1.549  0.1657 -1.1599 -2.8908
 9393SOL     OW40237   9.080   3.651   6.521 -0.1054 -0.6818  0.5178
 9393SOL    HW140238   9.089   3.743   6.483 -0.4789 -1.0299 -0.4383
 9393SOL    HW240239   9.125   3.586   6.460 -1.8289 -1.4025 -0.0130
 9394SOL     OW40240   9.458   8.807   8.354  0.2999  0.2057 -0.2070
 9394SOL    HW140241   9.385   8.868   8.385  0.6268  0.3086  0.3720
 9394SOL    HW240242   9.497   8.759   8.433 -0.4785 -1.3491 -0.7447
 9395SOL     OW40243   7.574   0.288   0.712  0.4136  0.1413  0.3299
 9395SOL    HW140244   7.588   0.292   0.811 -0.5686  1.1757  0.4259
 9395SOL    HW240245   7.663   0.295   0.666  0.8371  0.0246  1.1205
 9396SOL     OW40246   6.885   7.581   5.815  0.0152  0.2767 -0.5145
 9396SOL    HW140247   6.866   7.494   5.860  0.3368  0.9986  1.0427
 9396SOL    HW240248   6.982   7.585   5.788  0.2042  0.5005  0.1932
 9397SOL     OW40249   5.769   4.081   1.429 -0.0452 -0.6483 -0.5284
 9397SOL    HW140250   5.751   3.988   1.397 -0.4918 -0.4857 -0.7607
 9397SOL    HW240251   5.686   4.136   1.419  0.2757 -0.1714 -0.5785
 9398SOL     OW40252   6.839   0.652   8.497  0.4010  0.4531  0.1064
 9398SOL    HW140253   6.836   0.553   8.492 -1.7417  0.6065 -2.6181
 9398SOL    HW240254   6.818   0.682   8.590  2.1273 -1.6426  1.2063
 9399SOL     OW40255   9.318   9.210   2.224  0.0949  0.2847 -0.6150
 9399SOL    HW140256   9.219   9.216   2.211 -0.0927 -0.1422  0.6191
 9399SOL    HW240257   9.345   9.262   2.305  0.6343 -1.2183  0.1745
 9400SOL     OW40258   2.300   1.554   3.082 -0.1455 -0.0053  0.3443
 9400SOL    HW140259   2.247   1.471   3.096 -2.1549  1.2439  0.3359
 9400SOL    HW240260   2.368   1.539   3.011 -0.3466 -1.7069  0.5086
 9401SOL     OW40261   9.929   0.922   8.818  0.6635  0.0213 -0.0491
 9401SOL    HW140262   9.992   0.994   8.791 -1.9276  1.9609 -1.1232
 9401SOL    HW240263   9.859   0.910   8.748 -1.0870 -0.9634  1.8016
 9402SOL     OW40264   0.024   0.931   3.107  0.1688  0.1393  0.2068
 9402SOL    HW140265   0.018   1.004   3.175  0.7766 -0.1086  0.5241
 9402SOL    HW240266   0.003   0.843   3.150  1.2610 -0.1117  0.2326
 9403SOL     OW40267   9.829   9.843   4.308  0.0732 -0.0682  0.1026
 9403SOL    HW140268   9.896   9.867   4.238 -0.4660 -0.7415 -0.6612
 9403SOL    HW240269   9.812   9.922   4.367 -0.3075  0.8535 -1.2274
 9404SOL     OW40270   5.360   4.176   9.323 -0.1444 -0.2889  0.4854
 9404SOL    HW140271   5.355   4.080   9.295 -0.6774 -0.2807  0.5419
 9404SOL    HW240272   5.455   4.201   9.341  0.2064 -0.3091 -1.2719
 9405SOL     OW40273   1.843   8.212   4.031  0.0899  0.7191  0.3042
 9405SOL    HW140274   1.790   8.132   4.058 -0.2039  0.7845 -0.0732
 9405SOL    HW240275   1.780   8.282   3.995  0.4985  0.5499 -0.7599
 9406SOL     OW40276   0.092   3.440   3.387 -0.4853  0.2145 -0.4304
 9406SOL    HW140277   0.134   3.352   3.409 -0.7880  0.0047 -0.6727
 9406SOL    HW240278   0.042   3.432   3.300  0.0709  0.8190 -0.8152
 9407SOL     OW40279   7.924   3.044   9.561  0.2113 -0.2275 -0.3397
 9407SOL    HW140280   7.901   2.955   9.600  0.3194 -0.9487 -1.8795
 9407SOL    HW240281   7.879   3.116   9.614 -0.9543 -1.2735  0.1146
 9408SOL     OW40282   8.781   0.097   8.197 -0.5140 -0.0471 -0.2603
 9408SOL    HW140283   8.811   0.003   8.183 -1.0768 -0.3943  0.8864
 9408SOL    HW240284   8.709   0.100   8.266  2.0290  1.6131  2.4268
 9409SOL     OW40285   6.851   5.461   7.609 -0.0818 -0.2275 -0.5561
 9409SOL    HW140286   6.854   5.544   7.664  1.3983 -0.2056 -0.6364
 9409SOL    HW240287   6.935   5.454   7.555  1.6784 -3.7385  2.3920
 9410SOL     OW40288   3.729   9.421   9.110 -0.2944  0.1816  0.2590
 9410SOL    HW140289   3.673   9.339   9.125  1.8177 -1.1982  0.9978
 9410SOL    HW240290   3.801   9.400   9.043 -1.2407  2.2058 -1.4302
 9411SOL     OW40291   0.565   4.257   1.951  0.0073  0.0693  0.0036
 9411SOL    HW140292   0.472   4.253   1.988 -0.3882  1.3004 -0.8234
 9411SOL    HW240293   0.592   4.166   1.919 -1.9714  0.2464 -2.3050
 9412SOL     OW40294   9.708   8.376   5.142 -0.0200 -0.3465  0.3151
 9412SOL    HW140295   9.618   8.392   5.101  0.8897  1.0254 -1.2249
 9412SOL    HW240296   9.716   8.430   5.225 -0.3233  0.1659  0.0170
 9413SOL     OW40297   4.509   0.920   6.372  0.3655  0.4401  0.0907
 9413SOL    HW140298   4.590   0.903   6.428  0.5147  0.9892  0.0530
 9413SOL    HW240299   4.536   0.924   6.276  0.6482  2.6877  0.2401
 9414SOL     OW40300   4.132   5.280   7.063 -0.0073  0.2597  0.3328
 9414SOL    HW140301   4.189   5.313   6.987 -0.0622 -0.2545  0.0674
 9414SOL    HW240302   4.165   5.320   7.148  0.8686 -0.1544  0.2017
 9415SOL     OW40303   0.755   7.191   0.114  0.5358  0.0666  0.4532
 9415SOL    HW140304   0.787   7.163   0.024  0.1469  0.1219  0.2938
 9415SOL    HW240305   0.722   7.285   0.110 -2.1815 -0.8648 -0.0482
 9416SOL     OW40306   3.771   3.728   0.329 -0.1829 -0.5077 -1.0467
 9416SOL    HW140307   3.700   3.714   0.399  1.4773 -0.7015  0.6309
 9416SOL    HW240308   3.817   3.641   0.311  0.8753  0.0005 -0.7763
 9417SOL     OW40309   2.743   7.418   8.133  0.9891  0.6991  0.2732
 9417SOL    HW140310   2.718   7.327   8.164  2.2592  0.2764  0.0675
 9417SOL    HW240311   2.771   7.415   8.037  2.1968  1.0798  0.5967
 9418SOL     OW40312   7.940   6.765   2.991  0.3205 -0.2377 -0.4116
 9418SOL    HW140313   7.922   6.704   3.068  1.6770  0.4632  0.4887
 9418SOL    HW240314   7.921   6.717   2.906 -0.7607 -1.1797  0.3455
 9419SOL     OW40315   3.420   9.607   4.553  0.0149 -0.5701  0.5515
 9419SOL    HW140316   3.506   9.649   4.527 -0.2257  0.0688  0.7687
 9419SOL    HW240317   3.404   9.621   4.651  0.0098 -1.3109  0.6599
 9420SOL     OW40318   9.287   7.646   4.670  0.0554 -0.0481  0.1462
 9420SOL    HW140319   9.264   7.741   4.650  2.6081  0.6206  0.2824
 9420SOL    HW240320   9.355   7.613   4.605  0.8945 -1.0559  1.5045
 9421SOL     OW40321   8.245   4.205   1.723  0.6167 -0.7487  0.1160
 9421SOL    HW140322   8.274   4.249   1.638  0.5439 -0.8732  0.0270
 9421SOL    HW240323   8.321   4.151   1.761  0.5748 -0.8829  0.0075
 9422SOL     OW40324   1.872   8.615   7.157  0.1262  0.2999 -0.2481
 9422SOL    HW140325   1.840   8.540   7.098  1.1002 -1.0283  0.8897
 9422SOL    HW240326   1.889   8.580   7.249  2.2750  1.5530 -0.1522
 9423SOL     OW40327   9.875   2.579   2.327 -0.2324  0.0375 -0.0162
 9423SOL    HW140328   9.852   2.591   2.423 -1.3418  0.4189 -0.3212
 9423SOL    HW240329   9.876   2.669   2.282 -1.5834 -0.3102 -0.7690
 9424SOL     OW40330   8.275   1.539   7.277  0.1552 -0.5441 -0.7058
 9424SOL    HW140331   8.358   1.578   7.316  0.7419 -0.2014 -2.2791
 9424SOL    HW240332   8.196   1.593   7.307  0.5987 -0.2383 -0.0655
 9425SOL     OW40333   8.447   0.134   6.741 -0.0431 -0.4057  0.2207
 9425SOL    HW140334   8.408   0.043   6.757  0.1667 -0.6314 -0.5533
 9425SOL    HW240335   8.374   0.196   6.713  0.1294 -0.8021 -1.1185
 9426SOL     OW40336   3.532   3.292   4.788 -0.0741  0.5605 -0.3258
 9426SOL    HW140337   3.623   3.331   4.777  0.2647 -0.6297 -1.9354
 9426SOL    HW240338   3.464   3.364   4.779  0.7193  1.7556  2.5232
 9427SOL     OW40339   1.756   5.328   3.017 -0.4398  0.3142  0.0349
 9427SOL    HW140340   1.850   5.360   3.009 -0.1448 -0.6041 -0.2416
 9427SOL    HW240341   1.717   5.360   3.103  0.7725 -0.9397  1.0670
 9428SOL     OW40342   5.162   0.378   8.763 -0.1816 -0.4138  0.1865
 9428SOL    HW140343   5.171   0.462   8.818 -1.0508  0.4962 -1.0326
 9428SOL    HW240344   5.201   0.393   8.673 -0.5826 -1.2447 -0.1285
 9429SOL     OW40345   1.045   5.822   8.968  0.4082  0.0990  0.6281
 9429SOL    HW140346   1.078   5.912   9.000  0.2699  0.2987  0.2080
 9429SOL    HW240347   0.973   5.790   9.030 -0.5132  0.9174 -0.0084
 9430SOL     OW40348   5.331   1.350   9.288  0.2374  0.2503  0.3853
 9430SOL    HW140349   5.321   1.303   9.200  0.4316  0.2638  0.3551
 9430SOL    HW240350   5.241   1.371   9.325  0.1481  1.5347 -0.5076
 9431SOL     OW40351   0.424   8.597   8.953 -0.1285 -0.2757 -0.0303
 9431SOL    HW140352   0.426   8.591   8.854 -0.9991  0.2959 -0.0868
 9431SOL    HW240353   0.358   8.531   8.989 -0.0014 -0.3054  0.1449
 9432SOL     OW40354   1.371   0.094   8.749 -0.0042  0.0408  0.0790
 9432SOL    HW140355   1.452   0.038   8.731  1.0436  0.7958  2.2783
 9432SOL    HW240356   1.290   0.036   8.753  0.7758 -1.0411  0.1906
 9433SOL     OW40357   9.720   8.161   3.440 -0.0100 -0.2790 -0.0455
 9433SOL    HW140358   9.776   8.080   3.423  0.2099  0.3332 -2.5352
 9433SOL    HW240359   9.736   8.229   3.368 -1.0537  1.5143  1.3481
 9434SOL     OW40360   0.172   1.838   1.037 -0.0606 -0.4896  0.5737
 9434SOL    HW140361   0.222   1.890   0.967 -0.7555  0.0314  0.4536
 9434SOL    HW240362   0.078   1.823   1.006 -0.4947  0.1032  1.5755
 9435SOL     OW40363   3.135   0.979   8.834  0.0042 -0.5341 -0.1652
 9435SOL    HW140364   3.234   0.973   8.847  0.1263  0.7652 -0.4503
 9435SOL    HW240365   3.106   0.910   8.768  1.2693  1.5498 -2.9867
 9436SOL     OW40366   5.991   2.910   2.013 -0.1006 -0.0650 -0.3514
 9436SOL    HW140367   6.079   2.951   2.036 -0.2365  0.0272  0.0089
 9436SOL    HW240368   5.994   2.812   2.034 -0.9613  0.4224  2.2004
 9437SOL     OW40369   2.853   8.355   4.669 -0.5773  0.6553 -0.3075
 9437SOL    HW140370   2.848   8.450   4.636  1.2966  0.7177 -0.4392
 9437SOL    HW240371   2.936   8.343   4.724 -0.2909 -1.1660 -1.1128
 9438SOL     OW40372   8.050   0.950   0.078 -0.0672 -0.0857  0.0396
 9438SOL    HW140373   8.074   0.926   0.172 -0.3723 -0.1532  0.1004
 9438SOL    HW240374   8.013   0.870   0.031  1.8085 -0.5335 -0.7075
 9439SOL     OW40375   1.383   1.273   0.377 -0.1139 -0.2444 -0.2403
 9439SOL    HW140376   1.382   1.174   0.362 -0.6291 -0.4055  0.8566
 9439SOL    HW240377   1.293   1.311   0.354  0.3915  0.1360 -1.6806
 9440SOL     OW40378   0.614   9.532   1.591  0.5400 -0.4293 -0.0111
 9440SOL    HW140379   0.704   9.546   1.632  0.5504 -0.6885  0.0514
 9440SOL    HW240380   0.552   9.494   1.659  0.3069  0.0125  0.0224
 9441SOL     OW40381   3.233   2.384   8.397 -0.2728 -0.1355  0.3775
 9441SOL    HW140382   3.327   2.383   8.429  0.2497 -2.4946 -1.1137
 9441SOL    HW240383   3.194   2.292   8.405 -0.9394 -0.2283 -3.2382
 9442SOL     OW40384   7.811   4.624   2.023  0.0613 -0.2604  0.0362
 9442SOL    HW140385   7.746   4.696   2.046  0.6189  0.0213  0.7917
 9442SOL    HW240386   7.792   4.543   2.079 -0.0754 -0.4168 -0.2402
 9443SOL     OW40387   3.944   8.129   5.874  0.5556 -0.3705 -0.3214
 9443SOL    HW140388   3.859   8.182   5.865  0.2133 -1.1252 -1.5592
 9443SOL    HW240389   4.021   8.185   5.843  0.2165 -0.5055 -1.4351
 9444SOL     OW40390   0.599   0.166   8.885 -0.1082 -0.5668 -0.0561
 9444SOL    HW140391   0.580   0.068   8.883  0.9946 -0.7754 -3.4242
 9444SOL    HW240392   0.628   0.197   8.794 -2.4619  3.3005  0.3667
 9445SOL     OW40393   8.518   6.544   9.869  0.0752 -0.0377 -0.3819
 9445SOL    HW140394   8.588   6.479   9.840 -0.2621 -0.2401 -0.7477
 9445SOL    HW240395   8.522   6.556   9.969  1.2603  0.6878 -0.5075
 9446SOL     OW40396   5.188   4.472   0.322 -0.0448 -0.2778 -0.6895
 9446SOL    HW140397   5.285   4.483   0.301  0.2361  0.1729  0.7477
 9446SOL    HW240398   5.177   4.468   0.422 -1.7649  2.2349 -0.7588
 9447SOL     OW40399   4.867   5.324   8.824 -0.0816 -0.2865 -0.0368
 9447SOL    HW140400   4.861   5.224   8.818  0.2232 -0.3851  1.1221
 9447SOL    HW240401   4.827   5.355   8.911  2.7160  0.2908  1.1131
 9448SOL     OW40402   2.080   7.774   9.157  0.2814 -0.2980 -0.3816
 9448SOL    HW140403   2.140   7.810   9.086 -0.3944  0.2924 -0.6588
 9448SOL    HW240404   1.996   7.740   9.115 -0.0606 -0.0748  0.1190
 9449SOL     OW40405   0.275   4.265   2.733  0.3412  0.5898 -0.1979
 9449SOL    HW140406   0.210   4.196   2.700  3.9403 -2.1748 -1.8589
 9449SOL    HW240407   0.236   4.312   2.812 -3.7802 -0.6940 -1.3265
 9450SOL     OW40408   1.356   2.396   1.176 -0.0191  0.1438  0.1311
 9450SOL    HW140409   1.288   2.324   1.191  0.2556 -0.0940  0.2261
 9450SOL    HW240410   1.447   2.361   1.198  0.3740 -0.1526 -1.8345
 9451SOL     OW40411   5.508   7.655   4.304 -0.8497 -0.4506 -0.4418
 9451SOL    HW140412   5.427   7.659   4.246 -2.0077  0.5821  1.2137
 9451SOL    HW240413   5.522   7.561   4.336 -0.7684 -0.8328 -1.5613
 9452SOL     OW40414   3.907   4.535   7.607  0.0102 -0.1744  0.0682
 9452SOL    HW140415   3.903   4.584   7.694 -0.0785  0.5380 -0.3269
 9452SOL    HW240416   3.984   4.472   7.607 -0.8770 -1.2662  1.2197
 9453SOL     OW40417   0.273   0.560   6.277 -0.1522  0.0892 -0.4261
 9453SOL    HW140418   0.174   0.555   6.280 -0.1218 -1.7361 -1.2613
 9453SOL    HW240419   0.311   0.521   6.361 -0.1275  0.0433 -0.4586
 9454SOL     OW40420   1.476   1.929   7.149 -0.3791  0.2468 -0.4016
 9454SOL    HW140421   1.457   1.937   7.246 -2.4634 -0.2026 -0.7518
 9454SOL    HW240422   1.573   1.911   7.135 -0.2663 -0.7608  1.6394
 9455SOL     OW40423   8.481   5.525   2.939  0.2641  0.3965 -0.5831
 9455SOL    HW140424   8.452   5.618   2.963 -0.7681 -0.1861  0.4359
 9455SOL    HW240425   8.415   5.485   2.875 -0.8362 -0.6822  1.2082
 9456SOL     OW40426   6.765   5.359   0.282 -0.0903 -0.7214 -0.3967
 9456SOL    HW140427   6.780   5.362   0.183  0.4437 -0.6549 -0.3113
 9456SOL    HW240428   6.666   5.364   0.301 -0.1059  1.2320 -0.8490
 9457SOL     OW40429   8.821   7.355   6.717 -0.1847 -0.1658 -0.1303
 9457SOL    HW140430   8.844   7.293   6.792 -1.0242 -0.9072 -0.4754
 9457SOL    HW240431   8.904   7.379   6.667  0.3709  0.2695  0.9827
 9458SOL     OW40432   6.601   5.757   1.241  0.1882 -0.1867 -0.0949
 9458SOL    HW140433   6.529   5.749   1.173 -1.0565  0.8080  1.0891
 9458SOL    HW240434   6.676   5.813   1.204  0.3456 -1.1713 -1.3005
 9459SOL     OW40435   3.267   9.153   1.833  0.4133 -0.0472  0.5750
 9459SOL    HW140436   3.252   9.152   1.932 -0.3406 -1.7873  0.4703
 9459SOL    HW240437   3.266   9.247   1.799  0.7879  0.5629  2.2347
 9460SOL     OW40438   0.196   6.681   5.448 -0.0741  0.0397 -0.1962
 9460SOL    HW140439   0.132   6.751   5.416 -1.0110 -1.1192 -0.8974
 9460SOL    HW240440   0.146   6.611   5.500  0.7821 -0.3401  0.1299
 9461SOL     OW40441   5.439   1.726   9.402 -0.1102 -0.3670 -0.4148
 9461SOL    HW140442   5.534   1.704   9.379 -0.1553  0.9992 -1.9730
 9461SOL    HW240443   5.378   1.678   9.339 -0.3790  0.1531 -0.5519
 9462SOL     OW40444   9.546   7.640   2.228 -0.6081  0.1929 -0.2420
 9462SOL    HW140445   9.462   7.651   2.281 -1.4732  0.9815 -1.7511
 9462SOL    HW240446   9.566   7.543   2.215 -1.2560  0.0087  0.1303
 9463SOL     OW40447   1.780   0.896   4.484  0.1292  0.3462  0.0539
 9463SOL    HW140448   1.831   0.936   4.407 -0.3385  1.0906  0.1242
 9463SOL    HW240449   1.774   0.797   4.472  0.7664  0.3666 -0.4481
 9464SOL     OW40450   1.200   2.411  10.077  0.6154  0.3441  0.0523
 9464SOL    HW140451   1.156   2.490  10.034  0.6197  1.4372  1.9890
 9464SOL    HW240452   1.297   2.431  10.092  0.5384  0.1212  0.8696
 9465SOL     OW40453   9.604   9.039   9.712  0.2750 -0.2697  0.0601
 9465SOL    HW140454   9.671   9.073   9.645 -1.6633  1.8302 -0.8872
 9465SOL    HW240455   9.526   8.999   9.663  0.3945 -1.8239  1.1268
 9466SOL     OW40456   6.631   8.000   3.211  0.1266  0.4169 -0.3950
 9466SOL    HW140457   6.693   7.928   3.243 -0.3305  0.3120  0.2858
 9466SOL    HW240458   6.536   7.969   3.224 -0.0634  0.4785 -1.6337
 9467SOL     OW40459   1.455   7.443   7.278 -0.5069 -0.3838 -0.2744
 9467SOL    HW140460   1.408   7.524   7.313 -1.0615 -0.9047  0.1711
 9467SOL    HW240461   1.541   7.472   7.235 -0.1569  0.3317  0.8747
 9468SOL     OW40462   6.897   9.798   4.461  0.2279 -0.0937  0.6113
 9468SOL    HW140463   6.856   9.807   4.370  1.4738 -2.1083 -0.1859
 9468SOL    HW240464   6.825   9.797   4.530 -0.9374 -1.2872 -0.5769
 9469SOL     OW40465   4.046   5.913   2.297 -0.2631 -0.2329  0.6845
 9469SOL    HW140466   4.142   5.902   2.325  0.5474  1.1569 -1.4794
 9469SOL    HW240467   4.037   5.888   2.201 -1.6652  1.6644  0.3073
 9470SOL     OW40468   0.140   4.099   8.980 -0.1141  0.2987  0.3910
 9470SOL    HW140469   0.158   4.169   8.910 -0.2278 -0.7054 -0.6465
 9470SOL    HW240470   0.075   4.032   8.944  2.2172 -1.9674  0.2929
 9471SOL     OW40471   7.720   0.382   7.750 -0.3012  0.1402  0.1636
 9471SOL    HW140472   7.637   0.415   7.795 -0.5232 -0.8877  0.5270
 9471SOL    HW240473   7.801   0.420   7.796 -0.5670  2.5410 -1.2757
 9472SOL     OW40474   1.154   9.296   8.242  0.5571  0.1917  0.1104
 9472SOL    HW140475   1.201   9.254   8.320  0.1182  0.1694  0.3683
 9472SOL    HW240476   1.127   9.389   8.265  0.5506  0.2337 -0.0660
 9473SOL     OW40477   1.820   8.262   8.369  0.2837 -0.4124  0.5638
 9473SOL    HW140478   1.899   8.207   8.342  0.1660 -0.6924  0.7908
 9473SOL    HW240479   1.736   8.212   8.347  0.0896  1.1279 -2.4570
 9474SOL     OW40480   2.029   0.960   5.212 -0.4226 -0.4565 -0.4273
 9474SOL    HW140481   2.078   1.025   5.153  1.8612 -0.2540  1.6249
 9474SOL    HW240482   2.029   0.870   5.169  1.8125 -0.4638 -0.4811
 9475SOL     OW40483   2.383   4.339   2.696 -0.0760 -0.5234 -0.4418
 9475SOL    HW140484   2.345   4.247   2.707  1.0661 -1.2244 -2.0586
 9475SOL    HW240485   2.318   4.396   2.646 -2.5282  0.8041  3.9968
 9476SOL     OW40486   4.081   8.171   0.578 -0.2775  0.2821 -0.6411
 9476SOL    HW140487   4.059   8.083   0.621 -1.3073  0.5243 -0.6606
 9476SOL    HW240488   4.176   8.170   0.547 -0.0929 -0.5940 -0.0727
 9477SOL     OW40489   3.546   6.405   9.012 -0.6984  0.0568  0.1379
 9477SOL    HW140490   3.627   6.372   9.062  0.4159 -1.1488 -2.3918
 9477SOL    HW240491   3.491   6.327   8.983 -0.8836  0.7000 -1.2413
 9478SOL     OW40492   9.554   0.189   8.600  0.1434  0.2193  0.3196
 9478SOL    HW140493   9.564   0.132   8.519 -0.2249 -0.2752  0.6224
 9478SOL    HW240494   9.631   0.253   8.605  1.1174 -0.9437  0.5411
 9479SOL     OW40495   1.247   3.268   4.026 -0.1959 -0.2715 -0.0706
 9479SOL    HW140496   1.338   3.227   4.024  0.1134  0.4512 -1.3361
 9479SOL    HW240497   1.235   3.317   4.112  0.6440 -0.3227  0.0817
 9480SOL     OW40498   5.784   7.869   6.601  0.1951  0.1593  0.0960
 9480SOL    HW140499   5.868   7.921   6.583  0.7415 -0.6584  0.2209
 9480SOL    HW240500   5.767   7.866   6.700 -0.1521  0.5894  0.0485
 9481SOL     OW40501   0.800   5.666   2.778 -0.3226 -0.2540 -0.1042
 9481SOL    HW140502   0.722   5.647   2.838  1.3838 -0.3431  2.1484
 9481SOL    HW240503   0.872   5.599   2.796 -0.3052 -1.1410 -3.2750
 9482SOL     OW40504   6.134   5.973   9.461 -0.5260 -0.5058  0.3889
 9482SOL    HW140505   6.159   5.934   9.550  0.9840 -0.1698  0.1177
 9482SOL    HW240506   6.048   6.023   9.470 -0.1200 -0.0350  1.7814
 9483SOL     OW40507   2.145   5.061   9.920  0.8525 -0.1782  0.0731
 9483SOL    HW140508   2.072   5.040   9.855  1.8588 -1.9496 -0.5254
 9483SOL    HW240509   2.130   5.010  10.004  0.2114  1.1706  0.7809
 9484SOL     OW40510   2.784   4.703   5.070  0.3583  0.1075 -0.2496
 9484SOL    HW140511   2.823   4.732   5.157  1.9426 -0.6746 -0.6911
 9484SOL    HW240512   2.843   4.635   5.027 -1.5378 -1.1888 -0.8846
 9485SOL     OW40513   5.196   6.054   1.342 -0.3135 -0.7025  0.4732
 9485SOL    HW140514   5.128   5.997   1.389 -0.5922  0.3151  1.3115
 9485SOL    HW240515   5.236   6.002   1.267 -1.4586 -1.5914  0.4592
 9486SOL     OW40516   2.799   6.162   7.625  0.3803 -0.4709 -0.0415
 9486SOL    HW140517   2.876   6.149   7.689  0.3213  1.4724  0.4607
 9486SOL    HW240518   2.808   6.097   7.549  1.3085 -1.7621  1.1298
 9487SOL     OW40519   1.538   7.017   6.910 -0.3139  0.3377 -1.0949
 9487SOL    HW140520   1.524   6.926   6.872  0.1322 -0.1296 -0.1559
 9487SOL    HW240521   1.453   7.049   6.952  0.1877 -0.6567  0.7033
 9488SOL     OW40522   3.315   4.512   2.319 -0.2374  0.0282  0.9524
 9488SOL    HW140523   3.307   4.596   2.373 -0.9065 -0.3121  1.3876
 9488SOL    HW240524   3.224   4.485   2.286  0.0908 -0.0768  0.1322
 9489SOL     OW40525   2.191   9.429   7.146 -0.2203 -0.0969  0.1624
 9489SOL    HW140526   2.120   9.388   7.203  0.7429 -1.3392  0.5055
 9489SOL    HW240527   2.223   9.362   7.079  0.6125  0.4498  0.0075
 9490SOL     OW40528   2.127   7.994   8.179 -0.3247  0.2171 -0.3363
 9490SOL    HW140529   2.187   8.060   8.224 -1.3996  1.3294 -0.5218
 9490SOL    HW240530   2.173   7.905   8.175  0.6517  0.6412  0.9981
 9491SOL     OW40531   9.625   0.994   7.867  0.1731  0.6983  0.4196
 9491SOL    HW140532   9.705   0.981   7.809  1.2481  0.6550  1.8784
 9491SOL    HW240533   9.563   1.060   7.825  0.8084  0.4627 -0.8905
 9492SOL     OW40534   5.693   2.756   4.922 -0.0528  0.0405 -0.1752
 9492SOL    HW140535   5.680   2.724   4.828  1.6932 -1.0313 -0.0803
 9492SOL    HW240536   5.643   2.696   4.985 -0.7861  0.4404 -0.3730
 9493SOL     OW40537   0.163   0.330   0.848  0.3107 -0.6671 -0.1834
 9493SOL    HW140538   0.141   0.327   0.750  0.0184 -0.2260 -0.1296
 9493SOL    HW240539   0.262   0.328   0.859  0.3377 -1.2007 -0.4716
 9494SOL     OW40540   8.305   9.378   6.333 -0.1944  0.0478  0.0390
 9494SOL    HW140541   8.308   9.368   6.433 -0.3936  1.6145  0.2037
 9494SOL    HW240542   8.310   9.474   6.309  0.3142 -0.3537 -1.4959
 9495SOL     OW40543   1.842   7.479   0.459  0.3793 -0.4022 -0.5349
 9495SOL    HW140544   1.923   7.535   0.474  0.6327 -0.5161 -1.4183
 9495SOL    HW240545   1.869   7.391   0.420 -0.2351 -0.1017 -1.6720
 9496SOL     OW40546   5.849   2.518   1.060 -0.6340  0.1704 -0.0076
 9496SOL    HW140547   5.812   2.610   1.057 -3.3489 -0.8876 -0.0694
 9496SOL    HW240548   5.857   2.482   0.967 -1.3185 -0.3297  0.1268
 9497SOL     OW40549   4.169   2.836   1.023  0.5951 -0.0967 -0.2062
 9497SOL    HW140550   4.245   2.860   0.962  0.9148 -0.7625 -0.0722
 9497SOL    HW240551   4.083   2.836   0.972  0.2456  3.5216  0.2275
 9498SOL     OW40552   5.466   9.432   5.914 -0.1824  0.4254  0.2483
 9498SOL    HW140553   5.465   9.510   5.976 -0.5068  0.5741  0.0593
 9498SOL    HW240554   5.551   9.380   5.926 -0.4473  0.1870  1.1496
 9499SOL     OW40555   5.711   2.983   0.897  0.0124 -0.3767  0.0552
 9499SOL    HW140556   5.666   3.071   0.880  0.3960 -0.4278 -1.2951
 9499SOL    HW240557   5.706   2.926   0.815  1.3167 -0.9292  0.3362
 9500SOL     OW40558   6.208   1.378   4.812  0.1705  0.4211 -0.2609
 9500SOL    HW140559   6.119   1.394   4.768  1.3697  3.6709 -1.6764
 9500SOL    HW240560   6.276   1.355   4.742  0.7509 -0.5884  0.6363
 9501SOL     OW40561   3.750   3.677   3.123  0.0865 -0.1572  0.3167
 9501SOL    HW140562   3.843   3.676   3.088  0.1347  0.5754  0.4074
 9501SOL    HW240563   3.732   3.766   3.167 -0.9662  0.0836 -0.5838
 9502SOL     OW40564   2.262   7.012   4.363 -0.1324 -0.0517 -0.3575
 9502SOL    HW140565   2.278   6.916   4.337 -0.7760  0.1975 -1.7209
 9502SOL    HW240566   2.264   7.020   4.462  3.1949 -0.9154 -0.2810
 9503SOL     OW40567   2.654   1.143   6.351  0.2386 -0.1007  0.5182
 9503SOL    HW140568   2.638   1.136   6.449  0.4549  1.2367  0.6544
 9503SOL    HW240569   2.669   1.239   6.326  1.7776 -0.5935 -0.5638
 9504SOL     OW40570   1.699   5.167   7.902  0.1019 -0.6114  0.6844
 9504SOL    HW140571   1.718   5.146   7.998 -1.0988 -1.8576  0.6624
 9504SOL    HW240572   1.676   5.264   7.894  1.3254 -0.2397  1.4753
 9505SOL     OW40573   5.523   0.217   2.973  0.3299 -0.0908 -0.3583
 9505SOL    HW140574   5.448   0.255   2.919 -2.1819 -4.0848  0.0833
 9505SOL    HW240575   5.521   0.254   3.065 -2.2733 -1.4366  0.1724
 9506SOL     OW40576   3.133   8.363   1.505 -0.4072 -0.0445  0.4094
 9506SOL    HW140577   3.192   8.322   1.435  0.6037 -0.8824  1.7419
 9506SOL    HW240578   3.096   8.450   1.471 -1.5734 -1.4171 -1.9571
 9507SOL     OW40579   3.555   1.892   6.038  0.6589 -0.5292 -0.0435
 9507SOL    HW140580   3.485   1.963   6.036  1.1953  0.0305  0.7339
 9507SOL    HW240581   3.519   1.809   6.079  0.0772 -0.6558 -0.8056
 9508SOL     OW40582   4.313   5.695   8.093 -0.6011 -0.0393 -0.2721
 9508SOL    HW140583   4.292   5.609   8.047 -0.5813  0.4652 -1.2392
 9508SOL    HW240584   4.228   5.742   8.117 -0.6470 -1.0113  1.6113
 9509SOL     OW40585   3.985   9.860   6.066  0.0580  1.1068 -0.5710
 9509SOL    HW140586   3.948   9.769   6.079  0.0565  1.2091  0.1550
 9509SOL    HW240587   4.012   9.872   5.970 -1.3421  0.8769 -0.9934
 9510SOL     OW40588   3.503   6.582   2.672 -0.5704 -0.3950  0.2758
 9510SOL    HW140589   3.405   6.560   2.676 -0.9438  1.1548  0.0722
 9510SOL    HW240590   3.535   6.575   2.578 -0.8895  0.7325  0.0770
 9511SOL     OW40591   1.427   4.009   1.131  0.0260  0.8936  0.0938
 9511SOL    HW140592   1.456   4.103   1.111  0.6709  0.4259 -1.2478
 9511SOL    HW240593   1.493   3.946   1.092 -1.4716 -0.1657 -0.7540
 9512SOL     OW40594   1.133   1.404   7.901  0.4814  0.0874 -0.0398
 9512SOL    HW140595   1.052   1.383   7.956 -0.4266 -0.9152 -1.7042
 9512SOL    HW240596   1.212   1.354   7.937  0.1076  0.1611  0.8954
 9513SOL     OW40597   0.744   1.761   6.697  0.2977  0.7754 -0.1867
 9513SOL    HW140598   0.841   1.740   6.684  0.4077  1.1006  0.1103
 9513SOL    HW240599   0.695   1.677   6.724  0.9622  1.1362  2.2520
 9514SOL     OW40600   9.466   6.745   4.716  0.1688  0.4388 -0.5295
 9514SOL    HW140601   9.528   6.807   4.668  0.7827 -0.0450 -0.3682
 9514SOL    HW240602   9.395   6.798   4.763  0.9424  1.0493 -0.0395
 9515SOL     OW40603   3.920   0.486   3.538  0.0107 -0.4290  0.5091
 9515SOL    HW140604   3.936   0.560   3.473 -2.8737 -0.7152 -0.6096
 9515SOL    HW240605   3.879   0.524   3.621  0.1358 -0.5428  0.6216
 9516SOL     OW40606   0.490   8.035   4.675  0.3724  0.1378  0.0699
 9516SOL    HW140607   0.571   8.094   4.666  0.5613  0.0694  1.2610
 9516SOL    HW240608   0.414   8.075   4.625  0.9671  0.5408 -0.5194
 9517SOL     OW40609   6.891   8.143   2.324  0.4393  0.0232  0.0957
 9517SOL    HW140610   6.864   8.227   2.370 -0.0429  0.0099 -0.1654
 9517SOL    HW240611   6.813   8.104   2.276  1.1774  0.6444 -1.6735
 9518SOL     OW40612   2.598   5.273   7.759  0.4438 -0.1080 -0.3483
 9518SOL    HW140613   2.587   5.194   7.698  0.2948  0.1081 -0.6011
 9518SOL    HW240614   2.646   5.346   7.710  1.5835 -0.4462  0.2317
 9519SOL     OW40615   9.878   3.232   2.926  0.1825  0.4391 -0.2189
 9519SOL    HW140616   9.842   3.149   2.969 -0.0018  0.8384  0.4055
 9519SOL    HW240617   9.940   3.207   2.851  1.1909 -0.2733  0.8310
 9520SOL     OW40618   9.965   9.772   6.303 -0.2580  0.3748  0.0484
 9520SOL    HW140619  10.015   9.697   6.345  1.5505 -0.1482 -2.8248
 9520SOL    HW240620   9.881   9.738   6.261 -1.1872  0.6032  1.6802
 9521SOL     OW40621   4.596   6.421   9.713  0.1125 -0.0316  0.1295
 9521SOL    HW140622   4.593   6.322   9.707 -0.6842 -0.0682  1.0112
 9521SOL    HW240623   4.670   6.449   9.774  0.6252 -0.0605 -0.4705
 9522SOL     OW40624   9.343   0.478   9.834 -0.2108 -0.5060  0.6793
 9522SOL    HW140625   9.256   0.444   9.800 -0.6042 -0.3561  1.5124
 9522SOL    HW240626   9.351   0.576   9.815 -0.6834 -0.3001  1.5223
 9523SOL     OW40627   4.324   2.501   1.203  0.4139 -0.3125  0.2288
 9523SOL    HW140628   4.273   2.561   1.265 -0.7119 -0.7203 -0.2698
 9523SOL    HW240629   4.280   2.502   1.113  2.2328  0.5339 -0.6685
 9524SOL     OW40630   3.780   8.030   4.878  0.3528  0.4365 -0.2785
 9524SOL    HW140631   3.752   8.115   4.921  0.3596  0.8588 -1.1024
 9524SOL    HW240632   3.869   8.001   4.915  0.2130  0.6346  0.2070
 9525SOL     OW40633   6.398   4.249   8.840 -0.2644 -0.5585  0.1493
 9525SOL    HW140634   6.301   4.266   8.829 -0.3603 -0.5994  0.9587
 9525SOL    HW240635   6.424   4.256   8.936  1.0656  2.3012 -0.3450
 9526SOL     OW40636   9.173   9.639   5.284  0.3542 -0.4752 -0.2706
 9526SOL    HW140637   9.104   9.711   5.277  0.3418 -0.2843  1.5213
 9526SOL    HW240638   9.207   9.617   5.193  1.4179  2.8214 -0.7567
 9527SOL     OW40639   8.966   8.199   2.253  0.8825  0.4417  0.0457
 9527SOL    HW140640   8.975   8.102   2.228  1.7201  0.6552 -0.5348
 9527SOL    HW240641   8.949   8.252   2.170 -0.6345  0.6677  0.5047
 9528SOL     OW40642   4.051   4.581   2.698  0.0900  0.1253  0.3022
 9528SOL    HW140643   4.081   4.673   2.723  0.7931  0.0094 -0.1030
 9528SOL    HW240644   4.056   4.522   2.778 -1.0401  0.6072  0.7372
 9529SOL     OW40645   7.430   1.517   4.906  0.2423  0.8818 -0.0410
 9529SOL    HW140646   7.407   1.608   4.870 -1.5947 -0.1236 -1.4946
 9529SOL    HW240647   7.408   1.448   4.837  1.6617 -0.6700  1.0405
 9530SOL     OW40648   4.059   3.450   2.153 -0.2384  0.4177 -0.4224
 9530SOL    HW140649   4.086   3.534   2.199 -1.8434  0.3210  0.7267
 9530SOL    HW240650   4.116   3.374   2.185 -0.8154  0.5035  0.8608
 9531SOL     OW40651   6.578   5.732   2.234  0.1886 -0.2826  0.0723
 9531SOL    HW140652   6.550   5.752   2.328 -1.4673 -2.0482 -0.0108
 9531SOL    HW240653   6.497   5.723   2.176  1.1536 -0.1910 -1.3274
 9532SOL     OW40654   3.348   5.922   1.203  0.7792 -0.3150  0.0885
 9532SOL    HW140655   3.357   5.823   1.207  2.7189 -0.1385  1.1510
 9532SOL    HW240656   3.393   5.956   1.120  1.1744 -0.2508  0.3234
 9533SOL     OW40657   4.089   1.052   2.177  0.6645  0.8474  0.0879
 9533SOL    HW140658   4.112   1.149   2.169  0.7708  0.9127  1.1163
 9533SOL    HW240659   3.995   1.043   2.211  0.5720  0.5831 -0.2314
 9534SOL     OW40660   3.762   7.401   0.948  0.7886 -0.3588  0.0340
 9534SOL    HW140661   3.861   7.398   0.934  0.5159 -0.0565 -2.1673
 9534SOL    HW240662   3.742   7.398   1.046  2.8821 -2.9049  0.4491
 9535SOL     OW40663   3.493   9.694   2.200 -0.1067 -0.2033  0.2203
 9535SOL    HW140664   3.404   9.732   2.225  0.0592 -1.1990  2.5235
 9535SOL    HW240665   3.522   9.629   2.271  2.4170  0.0558 -0.5196
 9536SOL     OW40666   8.628   5.199   2.577  0.2972  0.0057  0.1379
 9536SOL    HW140667   8.705   5.246   2.620 -0.1664  1.6981 -0.8484
 9536SOL    HW240668   8.661   5.149   2.496  0.5439 -0.2027  0.3648
 9537SOL     OW40669   3.030   8.256   6.835  0.2248 -0.8753 -0.6771
 9537SOL    HW140670   2.938   8.260   6.797 -0.2185 -0.4100  0.4327
 9537SOL    HW240671   3.029   8.204   6.920  0.4822  1.3392  0.7274
 9538SOL     OW40672   3.713   4.062   0.078 -0.0243  0.3921 -0.0182
 9538SOL    HW140673   3.764   4.050   0.163 -0.4543  2.5158  0.5621
 9538SOL    HW240674   3.664   3.977   0.055  0.5622 -0.3635  1.5356
 9539SOL     OW40675   1.162   6.176   8.056  0.1374 -0.3484  0.1665
 9539SOL    HW140676   1.246   6.166   8.109 -0.2093  0.2886  0.8408
 9539SOL    HW240677   1.147   6.273   8.035  0.0937 -0.5568 -0.8087
 9540SOL     OW40678   2.796   7.845   6.078  0.1583  0.3751  0.4054
 9540SOL    HW140679   2.776   7.942   6.092  2.0909  0.7622  0.6809
 9540SOL    HW240680   2.713   7.797   6.049 -0.1529  2.6576 -2.6602
 9541SOL     OW40681   7.359   7.886   7.251 -0.4787 -0.7714 -0.3184
 9541SOL    HW140682   7.439   7.896   7.193 -0.2212 -0.3385  0.1066
 9541SOL    HW240683   7.316   7.975   7.265 -0.3407 -0.8155  0.4211
 9542SOL     OW40684   8.857   0.763   6.412  0.1463  0.5274 -0.6326
 9542SOL    HW140685   8.865   0.773   6.511 -0.1803  0.0724 -0.5631
 9542SOL    HW240686   8.766   0.729   6.389  0.0582  1.0886 -1.1202
 9543SOL     OW40687   8.258   8.680   9.882 -0.5318  0.0569  0.2663
 9543SOL    HW140688   8.346   8.642   9.911 -0.7829 -3.1115 -2.8248
 9543SOL    HW240689   8.185   8.637   9.935 -0.6175 -1.8761 -1.3749
 9544SOL     OW40690   1.879   9.638   9.625 -0.5574 -0.1728  0.0055
 9544SOL    HW140691   1.910   9.543   9.632 -0.2124 -0.2019 -1.6786
 9544SOL    HW240692   1.779   9.640   9.629 -0.4986 -0.4225  1.8879
 9545SOL     OW40693   1.251   4.231   2.061 -0.1882 -0.2274 -0.6460
 9545SOL    HW140694   1.313   4.309   2.065 -2.2624  1.4570 -0.2823
 9545SOL    HW240695   1.264   4.174   2.143 -1.5144  2.0273  1.2042
 9546SOL     OW40696   0.078   4.944   5.535 -0.1467 -0.0296  0.7379
 9546SOL    HW140697   0.157   4.905   5.582  0.8789 -0.2818 -1.1885
 9546SOL    HW240698   0.040   5.019   5.591  2.1584  0.9038  1.1074
 9547SOL     OW40699   3.983   1.727   9.437  0.2015  0.6240 -0.6764
 9547SOL    HW140700   3.983   1.686   9.528  0.1548  0.3100 -0.8174
 9547SOL    HW240701   4.039   1.811   9.439  0.7019  0.2910 -0.5079
 9548SOL     OW40702   5.652   0.500   1.616 -0.1921  0.1423 -0.4630
 9548SOL    HW140703   5.697   0.560   1.549  0.6722 -0.6101 -0.5753
 9548SOL    HW240704   5.722   0.449   1.667 -0.7884  1.6027  1.8788
 9549SOL     OW40705   3.933   3.953   0.326 -0.0115 -0.1241 -0.0334
 9549SOL    HW140706   3.860   4.016   0.353 -1.5970 -1.3044 -1.4650
 9549SOL    HW240707   3.897   3.860   0.321  1.9666 -0.9570  0.6779
 9550SOL     OW40708   9.391   0.526   0.039 -0.0784 -0.4727  0.3443
 9550SOL    HW140709   9.345   0.539  -0.049 -0.0468  0.0551  0.3995
 9550SOL    HW240710   9.392   0.613   0.088 -0.1752 -0.7867  0.9045
 9551SOL     OW40711   6.701   1.108   6.833 -0.4168  0.5450  0.6695
 9551SOL    HW140712   6.786   1.077   6.789 -2.2879 -1.8791 -1.3294
 9551SOL    HW240713   6.722   1.184   6.895  3.2563 -0.2177  0.4667
 9552SOL     OW40714   3.550   6.689   4.757  0.1135 -0.1337  0.1358
 9552SOL    HW140715   3.650   6.688   4.760  0.1499 -2.9490 -0.8701
 9552SOL    HW240716   3.520   6.754   4.687  1.2641 -0.0599 -0.3006
 9553SOL     OW40717   5.314   5.132   1.396  0.5057 -0.5668 -0.3637
 9553SOL    HW140718   5.327   5.094   1.487 -1.6077  0.7333  0.5117
 9553SOL    HW240719   5.325   5.231   1.399 -0.6805 -0.3967 -1.2932
 9554SOL     OW40720   1.905   0.898   0.970  0.1226 -0.1196  0.2677
 9554SOL    HW140721   1.972   0.824   0.980 -0.9605 -0.8996  1.9355
 9554SOL    HW240722   1.938   0.980   1.016 -0.2378 -0.6395  1.4863
 9555SOL     OW40723   2.678   9.527   7.512 -0.0625 -0.0709 -0.3597
 9555SOL    HW140724   2.638   9.619   7.508  1.2874  0.5891  0.9633
 9555SOL    HW240725   2.661   9.480   7.426  0.6620  2.0362 -1.6996
 9556SOL     OW40726   5.355   0.272   8.524 -0.3898  0.1122 -0.0168
 9556SOL    HW140727   5.349   0.372   8.525 -2.1459  0.0260  0.8725
 9556SOL    HW240728   5.451   0.243   8.522  0.1156  1.8139 -1.8286
 9557SOL     OW40729   0.167   6.126   6.845 -0.7432 -0.6310  0.2749
 9557SOL    HW140730   0.211   6.198   6.898 -0.9881 -0.9261  0.8982
 9557SOL    HW240731   0.125   6.060   6.908  1.0120 -2.2979 -0.2335
 9558SOL     OW40732   6.646   3.895   8.001 -0.1227 -0.2889  0.0058
 9558SOL    HW140733   6.678   3.984   8.035  1.5040 -1.1371  0.7234
 9558SOL    HW240734   6.621   3.837   8.078  1.2813 -1.3542 -0.3237
 9559SOL     OW40735   1.430   9.921   7.263  0.1924  0.6642 -0.2834
 9559SOL    HW140736   1.408   9.871   7.179 -2.4078  1.7584 -0.2813
 9559SOL    HW240737   1.468  10.010   7.241 -1.2233  1.2669 -0.3184
 9560SOL     OW40738   2.951   5.184   7.455  0.0828  0.2480 -0.0575
 9560SOL    HW140739   2.976   5.099   7.502 -1.0783 -0.0661  0.0118
 9560SOL    HW240740   2.903   5.162   7.370  0.7287  0.8314 -0.5801
 9561SOL     OW40741   8.187   0.985   7.424  0.3245 -0.2410  0.8456
 9561SOL    HW140742   8.170   0.979   7.522  1.1584 -1.9327  0.8981
 9561SOL    HW240743   8.278   1.024   7.409  0.5709 -0.8547  0.7561
 9562SOL     OW40744   1.186   3.776   3.485  0.3211  0.3419  0.0245
 9562SOL    HW140745   1.100   3.747   3.443 -0.2955  3.2151 -0.8388
 9562SOL    HW240746   1.262   3.738   3.433 -0.4545  0.1415 -0.9976
 9563SOL     OW40747   1.210   5.867   9.822 -0.1419  0.3029 -0.3552
 9563SOL    HW140748   1.161   5.907   9.899  1.2901 -0.4746  0.9789
 9563SOL    HW240749   1.275   5.799   9.855  0.9359  0.4008 -2.1965
 9564SOL     OW40750   8.324   7.567   6.151  0.1320 -0.5172  0.3706
 9564SOL    HW140751   8.415   7.582   6.189  0.0368 -1.8247  1.1423
 9564SOL    HW240752   8.327   7.580   6.052  0.8917  0.5740  0.5200
 9565SOL     OW40753   3.443   4.292   5.308  0.3398  0.1023 -0.6244
 9565SOL    HW140754   3.479   4.254   5.393 -0.3064  0.4374 -0.2017
 9565SOL    HW240755   3.419   4.388   5.321 -1.6079 -0.3638 -0.6162
 9566SOL     OW40756   0.099   6.105   3.486 -0.0944 -0.3462 -0.1308
 9566SOL    HW140757   0.078   6.107   3.389  1.1703 -1.0826 -0.4322
 9566SOL    HW240758   0.194   6.076   3.499  0.0218  0.6305  1.2863
 9567SOL     OW40759   2.606   8.917   7.088 -0.2018 -0.0327  0.3412
 9567SOL    HW140760   2.547   8.897   7.167  1.3648 -0.1192  1.5209
 9567SOL    HW240761   2.578   8.860   7.011 -2.0620  0.3746  0.6688
 9568SOL     OW40762   4.927   2.452   0.860  0.6216 -0.8667 -0.2929
 9568SOL    HW140763   4.996   2.518   0.829  1.5774 -2.1529 -0.9993
 9568SOL    HW240764   4.973   2.375   0.905 -0.5380 -0.6161  1.3594
 9569SOL     OW40765   4.232   0.994   7.939 -0.1909 -0.6481  0.5967
 9569SOL    HW140766   4.292   0.918   7.962  1.3872  1.1363  2.6586
 9569SOL    HW240767   4.224   1.003   7.840  2.6484 -1.1640  0.2893
 9570SOL     OW40768   2.541   7.759   6.024 -0.1325  0.0378  0.1591
 9570SOL    HW140769   2.518   7.679   5.969 -0.6519 -0.3907  0.9786
 9570SOL    HW240770   2.508   7.842   5.980  2.2399  0.0311 -1.7587
 9571SOL     OW40771   0.010   8.306   1.925  0.3478  0.3558  0.6230
 9571SOL    HW140772   0.052   8.361   1.997  1.0832 -0.0627  0.5269
 9571SOL    HW240773  -0.036   8.227   1.965  0.7270  0.1415  0.6451
 9572SOL     OW40774   8.692   7.580   0.939 -0.5074  0.8773  0.2712
 9572SOL    HW140775   8.670   7.630   0.855 -0.1172  1.0764  0.2883
 9572SOL    HW240776   8.705   7.644   1.014  1.2284  0.8311  0.0179
 9573SOL     OW40777   8.273   4.162   0.168  0.4561  0.6769 -0.2814
 9573SOL    HW140778   8.246   4.157   0.264  1.7303 -1.0999  0.0183
 9573SOL    HW240779   8.192   4.177   0.111 -0.7488 -1.2379  0.8561
 9574SOL     OW40780   1.572   3.046   0.448  0.1151  0.3672 -0.0268
 9574SOL    HW140781   1.507   2.987   0.400 -0.6313  1.4295 -0.3507
 9574SOL    HW240782   1.659   3.047   0.399 -0.3234  0.6540 -0.7979
 9575SOL     OW40783   6.137   9.132   6.697 -0.2487  0.3446 -0.5168
 9575SOL    HW140784   6.116   9.177   6.784 -0.8039 -0.0137 -0.4605
 9575SOL    HW240785   6.211   9.180   6.651 -2.2637  2.6522 -1.4796
 9576SOL     OW40786   4.420   9.936   7.673  0.6716 -0.0939 -0.0975
 9576SOL    HW140787   4.423   9.990   7.588  0.2401  0.4867  0.2490
 9576SOL    HW240788   4.491   9.969   7.736  1.3969 -0.9294 -0.4629
 9577SOL     OW40789   0.096   3.076   2.214 -0.4207  0.3304 -0.1423
 9577SOL    HW140790   0.045   3.132   2.279 -0.6051  0.8343 -0.7178
 9577SOL    HW240791   0.083   3.112   2.121  0.4521  0.0788 -0.3713
 9578SOL     OW40792   4.323   4.335   1.347 -0.3198 -0.1229 -0.2664
 9578SOL    HW140793   4.342   4.245   1.389  1.4601 -0.3862 -1.5662
 9578SOL    HW240794   4.228   4.339   1.318 -0.7980 -1.0438  1.1441
 9579SOL     OW40795   6.527   1.907   2.471  0.1045  0.0469  0.0963
 9579SOL    HW140796   6.510   1.835   2.404 -3.2170  0.8182  0.0188
 9579SOL    HW240797   6.550   1.866   2.559 -0.9360 -1.0846 -0.1523
 9580SOL     OW40798   0.176   7.403   2.011 -0.0040 -0.3219 -0.2699
 9580SOL    HW140799   0.182   7.358   2.100 -0.6530 -0.2254 -0.1781
 9580SOL    HW240800   0.212   7.495   2.017  0.2994 -0.4459 -0.1946
 9581SOL     OW40801   9.620   2.097   4.633 -0.0160  0.1385 -0.0184
 9581SOL    HW140802   9.593   2.109   4.538  0.2733 -1.3550 -0.2954
 9581SOL    HW240803   9.719   2.100   4.641 -0.0264 -0.0111  0.1905
 9582SOL     OW40804   5.717   0.954   1.948  0.0996 -0.5246  0.3465
 9582SOL    HW140805   5.715   1.051   1.974  1.1606 -0.6900  1.1228
 9582SOL    HW240806   5.626   0.914   1.958 -0.1195  0.1441  1.0381
 9583SOL     OW40807   6.948   1.445   3.712 -0.1780  0.4877  0.0510
 9583SOL    HW140808   6.849   1.427   3.708 -0.1294  0.4948 -1.6948
 9583SOL    HW240809   6.967   1.511   3.784 -1.3610 -0.0697  0.8922
 9584SOL     OW40810   5.128   9.616   9.627  0.5096  0.0407  0.0467
 9584SOL    HW140811   5.084   9.651   9.544 -1.0851  0.7447  1.1735
 9584SOL    HW240812   5.226   9.631   9.621  0.5124 -0.6395 -2.0728
 9585SOL     OW40813   0.021   3.025   5.665 -1.2546  0.9419 -0.6632
 9585SOL    HW140814   0.029   3.116   5.626  1.3016  0.9428 -0.2155
 9585SOL    HW240815   0.049   2.956   5.598 -0.3463  0.6955 -0.0406
 9586SOL     OW40816   3.897   7.481   3.941  0.6837  0.5672  0.5223
 9586SOL    HW140817   3.801   7.496   3.964  0.4036 -1.4514  0.7579
 9586SOL    HW240818   3.941   7.427   4.013  1.0053 -1.7645 -1.3488
 9587SOL     OW40819   2.837   9.725   0.103  0.1547 -0.3580  0.5843
 9587SOL    HW140820   2.862   9.651   0.164 -1.4638 -0.1912  1.4819
 9587SOL    HW240821   2.782   9.689   0.027 -2.0440  0.1192  1.9064
 9588SOL     OW40822   9.303   7.382   5.697  0.0117 -0.3852 -0.6078
 9588SOL    HW140823   9.396   7.381   5.734  0.0387 -1.0495 -0.6854
 9588SOL    HW240824   9.290   7.303   5.637 -0.2428  0.3157 -1.4932
 9589SOL     OW40825   0.188   0.779   2.650  0.4246  0.0662 -0.0319
 9589SOL    HW140826   0.111   0.816   2.598 -0.9163 -3.3241 -0.5878
 9589SOL    HW240827   0.274   0.803   2.603 -0.6838 -1.8810 -3.2667
 9590SOL     OW40828   0.045   0.210   0.401  0.1383 -0.4467  0.1300
 9590SOL    HW140829   0.003   0.205   0.492 -1.6069 -0.2167 -0.6374
 9590SOL    HW240830   0.004   0.286   0.350  0.3287 -1.2429 -1.2260
 9591SOL     OW40831   8.814   2.734   1.207 -0.2756 -0.2848 -0.6174
 9591SOL    HW140832   8.768   2.705   1.291  2.0318  2.1845  1.6296
 9591SOL    HW240833   8.898   2.681   1.195 -1.7452 -2.2013 -2.6541
 9592SOL     OW40834   8.366   0.888   1.709  0.4597  0.2161  0.2878
 9592SOL    HW140835   8.266   0.879   1.715  0.5150  0.1353  1.2334
 9592SOL    HW240836   8.407   0.797   1.711  0.5212  0.2216 -0.7463
 9593SOL     OW40837   2.506   7.856   8.350  0.0646  0.5920 -0.3427
 9593SOL    HW140838   2.444   7.893   8.419  0.5381  0.8158 -0.0323
 9593SOL    HW240839   2.594   7.834   8.392 -0.5264 -1.8314 -0.2991
 9594SOL     OW40840   4.800   4.785   0.325 -0.0388 -0.2648 -0.2524
 9594SOL    HW140841   4.820   4.875   0.288  0.7998 -0.1004  0.5912
 9594SOL    HW240842   4.713   4.787   0.374  1.4384  0.8645  2.4025
 9595SOL     OW40843   7.249   0.805   0.997 -0.0540 -0.0557  0.5456
 9595SOL    HW140844   7.315   0.877   1.019  0.0990 -0.2015  0.5630
 9595SOL    HW240845   7.267   0.725   1.053  0.9601 -0.7856 -0.8087
 9596SOL     OW40846   8.931   6.685   7.452  0.9757 -0.2244  0.5607
 9596SOL    HW140847   9.017   6.691   7.501  1.2343 -1.2546  0.2514
 9596SOL    HW240848   8.855   6.695   7.516  1.3153  1.0281  0.7828
 9597SOL     OW40849   2.039   2.536   7.040 -0.3836 -0.3624  0.0155
 9597SOL    HW140850   2.071   2.471   6.972  0.4951  0.7881 -0.6914
 9597SOL    HW240851   1.940   2.527   7.051 -0.3188 -1.5435 -0.3537
 9598SOL     OW40852   4.199   7.103   0.643 -0.4349 -0.3858  0.6544
 9598SOL    HW140853   4.120   7.053   0.609 -0.9005  0.2797  0.7412
 9598SOL    HW240854   4.180   7.202   0.639  0.0593 -0.2539  1.4883
 9599SOL     OW40855   9.616   0.770   8.644 -0.4707 -0.5835 -0.8730
 9599SOL    HW140856   9.561   0.841   8.687 -1.5466 -1.5491 -0.6282
 9599SOL    HW240857   9.600   0.683   8.690 -0.1458 -1.2340 -1.9643
 9600SOL     OW40858   3.551   4.501   9.195 -0.2246  0.2204  0.1849
 9600SOL    HW140859   3.562   4.446   9.277 -0.5985 -0.3358 -0.1372
 9600SOL    HW240860   3.454   4.514   9.175 -0.1526  1.7745  0.7744
 9601SOL     OW40861   2.786   1.368   4.304  0.1923 -0.4098  0.8476
 9601SOL    HW140862   2.724   1.322   4.368 -0.1161 -0.2185  0.6862
 9601SOL    HW240863   2.753   1.461   4.287 -0.1358 -0.7111 -0.1661
 9602SOL     OW40864   7.163   2.113   9.224  0.4120 -0.2450  0.1374
 9602SOL    HW140865   7.255   2.139   9.253 -0.2620  0.9345  1.2672
 9602SOL    HW240866   7.167   2.026   9.175  1.6886 -2.0073  3.2384
 9603SOL     OW40867   4.119   2.857   8.356 -0.0952 -0.2509  0.5841
 9603SOL    HW140868   4.147   2.906   8.274  1.4003  0.5040  1.5382
 9603SOL    HW240869   4.028   2.889   8.385 -0.4630 -0.2544 -0.5453
 9604SOL     OW40870   8.365   5.844   1.270 -0.1382 -0.3175  0.0049
 9604SOL    HW140871   8.357   5.790   1.186  1.1439 -0.8926  0.2421
 9604SOL    HW240872   8.298   5.918   1.268 -0.9014 -1.0176 -1.0006
 9605SOL     OW40873   3.769   0.466   0.989  0.2056  0.3978 -0.8958
 9605SOL    HW140874   3.807   0.464   0.896  1.2626  3.0969 -0.5541
 9605SOL    HW240875   3.729   0.555   1.007 -2.7717 -1.1140  0.2095
 9606SOL     OW40876   2.337   1.703   4.003  0.2018  0.1783 -0.3895
 9606SOL    HW140877   2.314   1.618   3.955 -0.4843 -0.1341  0.4841
 9606SOL    HW240878   2.264   1.770   3.990  0.4185  0.3938 -0.4989
 9607SOL     OW40879   2.968   2.466  -0.001  0.0870 -0.2528  0.5691
 9607SOL    HW140880   2.976   2.546  -0.061 -3.6727 -0.0079  0.2746
 9607SOL    HW240881   2.923   2.492   0.084 -0.8701 -1.9896  0.6051
 9608SOL     OW40882   1.274   9.636   6.916  0.8251  0.6445 -0.2633
 9608SOL    HW140883   1.320   9.701   6.977 -1.7276  1.5802  0.7414
 9608SOL    HW240884   1.234   9.686   6.840 -0.7688  0.1867  0.2683
 9609SOL     OW40885   0.659   7.976   2.319  0.0155 -0.1776 -0.4339
 9609SOL    HW140886   0.593   8.047   2.291  1.5175  1.1710 -0.6276
 9609SOL    HW240887   0.658   7.968   2.419 -1.4083 -1.1473 -0.4976
 9610SOL     OW40888   9.592   2.372   1.253 -0.1631 -0.4225 -0.2071
 9610SOL    HW140889   9.646   2.312   1.312  0.1831  1.7559  1.7698
 9610SOL    HW240890   9.494   2.356   1.270 -0.1018 -1.8406 -1.1676
 9611SOL     OW40891   2.603   4.616   8.418 -0.7235  0.3093  0.1414
 9611SOL    HW140892   2.624   4.552   8.344 -0.6191  1.0204 -0.4447
 9611SOL    HW240893   2.578   4.564   8.500 -1.5902 -0.4845 -0.6006
 9612SOL     OW40894   2.739   1.436   6.176  0.0572 -0.3749 -0.2277
 9612SOL    HW140895   2.771   1.519   6.129 -1.0978 -1.1751 -2.4522
 9612SOL    HW240896   2.817   1.392   6.221  1.3899 -0.1481 -2.2431
 9613SOL     OW40897   9.574   3.375   1.234 -0.4201 -0.2701  0.1766
 9613SOL    HW140898   9.634   3.450   1.205 -2.4817  1.1487 -0.5580
 9613SOL    HW240899   9.528   3.400   1.319 -0.8989 -0.8253  0.0828
 9614SOL     OW40900   4.218   1.378   5.062  0.0217  0.0420 -0.1531
 9614SOL    HW140901   4.133   1.350   5.108 -0.1451  1.5402  0.4884
 9614SOL    HW240902   4.206   1.371   4.963 -0.8390  0.1953 -0.0678
 9615SOL     OW40903   6.329   3.635   2.379  0.1976 -0.1362 -0.7330
 9615SOL    HW140904   6.350   3.574   2.303  1.5501 -2.7963  1.6635
 9615SOL    HW240905   6.233   3.623   2.406  0.7080 -2.0604  0.3707
 9616SOL     OW40906   5.584   5.294   1.803  0.3791  0.3355 -0.4644
 9616SOL    HW140907   5.508   5.317   1.864  1.2821  1.2869  0.3300
 9616SOL    HW240908   5.632   5.378   1.778  2.4222 -0.4519  0.7137
 9617SOL     OW40909   5.430   3.024   2.361  0.2850 -0.1985  0.5722
 9617SOL    HW140910   5.521   3.013   2.400 -0.8096 -1.6575  2.8638
 9617SOL    HW240911   5.379   3.092   2.414 -0.0983  0.3566 -0.4808
 9618SOL     OW40912   2.076   8.738   1.814 -0.0335  0.7587 -0.0063
 9618SOL    HW140913   1.997   8.680   1.836 -0.4348  1.4265  0.3540
 9618SOL    HW240914   2.122   8.765   1.899  1.1400 -0.3902 -0.2714
 9619SOL     OW40915   9.500   7.990   2.549 -0.7887 -0.0054 -0.3816
 9619SOL    HW140916   9.468   8.084   2.559  0.8084  0.6379 -1.1367
 9619SOL    HW240917   9.516   7.969   2.453  1.1591 -0.2478 -0.0270
 9620SOL     OW40918   5.727   6.406   0.777 -0.4904  0.6079  0.0176
 9620SOL    HW140919   5.775   6.358   0.850  0.1811  2.2654  0.6961
 9620SOL    HW240920   5.760   6.374   0.688  0.3194  0.1912  0.4683
 9621SOL     OW40921   3.266   1.881   4.057  0.3331 -0.0099 -0.2136
 9621SOL    HW140922   3.216   1.797   4.034 -0.5893  0.8528 -1.4151
 9621SOL    HW240923   3.364   1.862   4.055  0.1658 -0.8485 -1.3867
 9622SOL     OW40924   6.623   7.555   4.076 -0.2468  0.0735 -0.9104
 9622SOL    HW140925   6.595   7.472   4.125 -1.1499  0.5186 -0.6521
 9622SOL    HW240926   6.552   7.580   4.010  0.5080  0.0458 -1.7362
 9623SOL     OW40927   8.061   8.366   2.432  0.4735 -0.1776  0.0235
 9623SOL    HW140928   8.082   8.306   2.355 -0.4061 -0.2050 -0.1962
 9623SOL    HW240929   8.145   8.413   2.462  0.8342 -0.2454 -0.8771
 9624SOL     OW40930   0.377   6.746   0.171  0.6581  0.4104 -0.2632
 9624SOL    HW140931   0.365   6.722   0.075  1.2719  3.0890 -1.0368
 9624SOL    HW240932   0.423   6.834   0.178  0.8173  0.1503  2.5020
 9625SOL     OW40933   7.564   6.242   7.983  0.0311  0.0606  0.2242
 9625SOL    HW140934   7.594   6.254   8.077  0.0256  0.0315  0.2291
 9625SOL    HW240935   7.582   6.326   7.931 -0.2130  0.1712  0.3170
 9626SOL     OW40936   8.328   3.787   7.252 -0.0281  0.2339 -0.4100
 9626SOL    HW140937   8.415   3.779   7.202 -0.3431  0.0367 -0.9326
 9626SOL    HW240938   8.335   3.739   7.339  0.7238  1.0765  0.0036
 9627SOL     OW40939   1.326   7.064   9.417 -0.4115  0.3469  0.2675
 9627SOL    HW140940   1.375   7.022   9.341  0.2093  1.4751  0.0346
 9627SOL    HW240941   1.351   7.017   9.502 -0.0169 -0.0037 -0.0404
 9628SOL     OW40942   5.684   2.339   0.267 -0.0496  0.1958  0.0899
 9628SOL    HW140943   5.651   2.300   0.353  2.4217 -2.3558 -0.0320
 9628SOL    HW240944   5.741   2.271   0.220  0.7049  2.4417 -2.3541
 9629SOL     OW40945   9.782   2.943   9.770 -0.7069  0.2696  0.4810
 9629SOL    HW140946   9.766   3.040   9.788 -0.1776  0.7147 -1.2901
 9629SOL    HW240947   9.763   2.924   9.673  4.4901 -0.2312 -0.5731
 9630SOL     OW40948   9.214   1.790   8.751 -0.2015 -0.2617  0.5175
 9630SOL    HW140949   9.221   1.700   8.795  1.4364  0.0225  0.8888
 9630SOL    HW240950   9.208   1.778   8.652 -2.7020 -0.8632  0.7094
 9631SOL     OW40951   7.771   3.503   0.562 -0.1034  0.1293 -0.0171
 9631SOL    HW140952   7.775   3.459   0.472 -1.9660 -1.6963  0.7575
 9631SOL    HW240953   7.714   3.585   0.557 -2.6035 -1.5492  0.0826
 9632SOL     OW40954   9.770   8.435   5.475  0.1881  0.0550 -0.1747
 9632SOL    HW140955   9.817   8.503   5.419 -1.4156 -0.2636 -1.9601
 9632SOL    HW240956   9.836   8.367   5.508  1.2217  0.4596 -1.3713
 9633SOL     OW40957   3.284   1.210  10.069 -0.3989 -0.4486 -0.1320
 9633SOL    HW140958   3.236   1.163  10.144  0.2927 -0.0774  0.5492
 9633SOL    HW240959   3.325   1.143  10.008  0.4121 -0.7509  0.7253
 9634SOL     OW40960   6.790   4.951   9.068  0.4377 -0.6559  0.1923
 9634SOL    HW140961   6.838   4.906   8.992  0.2044 -2.8610  1.3214
 9634SOL    HW240962   6.823   5.046   9.076  0.7952 -0.5322 -2.3474
 9635SOL     OW40963   1.725   7.902   7.478 -0.1249  0.1867  0.5120
 9635SOL    HW140964   1.691   7.991   7.447  0.4237  0.8952  1.8761
 9635SOL    HW240965   1.798   7.916   7.544 -0.6358 -1.2673  1.4109
 9636SOL     OW40966   0.948   2.582   9.670  0.2136 -0.4598 -0.4359
 9636SOL    HW140967   1.015   2.590   9.744  0.1995  0.2614 -0.5006
 9636SOL    HW240968   0.959   2.494   9.625  0.7918 -0.5464 -0.1299
 9637SOL     OW40969   3.879   7.214   6.680 -0.3559  0.1681  0.0388
 9637SOL    HW140970   3.976   7.191   6.682 -0.6112 -0.9424  0.3021
 9637SOL    HW240971   3.865   7.298   6.629  0.6348 -0.2426 -0.9082
 9638SOL     OW40972   9.047   9.991   3.861  0.3859 -0.6809 -0.0807
 9638SOL    HW140973   9.101  10.039   3.930  0.2154 -0.2673 -0.2352
 9638SOL    HW240974   9.084  10.008   3.770 -0.8579  0.7860 -0.3281
 9639SOL     OW40975   6.153   7.659   6.163  0.2012  0.1467  0.5706
 9639SOL    HW140976   6.236   7.617   6.124 -0.2628 -0.1305 -0.1352
 9639SOL    HW240977   6.179   7.730   6.228  1.0219  2.2652 -2.0057
 9640SOL     OW40978   1.361   8.661   5.708 -0.1562 -0.2462 -0.1792
 9640SOL    HW140979   1.349   8.725   5.633  0.2276 -1.3264 -1.1780
 9640SOL    HW240980   1.421   8.701   5.778  0.1615  0.4290 -0.8395
 9641SOL     OW40981   2.582   4.525   1.726 -0.6166 -0.7722 -0.6112
 9641SOL    HW140982   2.572   4.612   1.677 -0.8084 -0.8106 -0.6409
 9641SOL    HW240983   2.593   4.451   1.660 -3.0894 -1.1265 -0.6905
 9642SOL     OW40984   5.742   3.327   0.628 -0.3366  0.9109  0.6531
 9642SOL    HW140985   5.775   3.375   0.547 -0.7452  1.0523  0.5700
 9642SOL    HW240986   5.721   3.232   0.604 -0.5654  0.9821  0.5614
 9643SOL     OW40987   2.316   0.854   0.167 -0.4448  0.1020  0.0413
 9643SOL    HW140988   2.281   0.767   0.200 -0.7936  0.5556  0.9145
 9643SOL    HW240989   2.275   0.928   0.220  2.0598  0.6437  1.3381
 9644SOL     OW40990   3.345   3.717   2.744 -0.1558  0.2323  0.2342
 9644SOL    HW140991   3.348   3.620   2.719  1.2464  0.3368 -0.0960
 9644SOL    HW240992   3.391   3.730   2.833  0.3698  0.6900 -0.0980
 9645SOL     OW40993   8.030   4.249   9.166  0.2927  0.3494 -0.1255
 9645SOL    HW140994   7.935   4.236   9.140  0.4847  2.1817 -1.8596
 9645SOL    HW240995   8.036   4.323   9.233  0.5132  0.3761 -0.1728
 9646SOL     OW40996   8.364   9.534   3.433 -0.2574  0.3708 -0.0862
 9646SOL    HW140997   8.382   9.559   3.338  0.4563  0.3396  0.0392
 9646SOL    HW240998   8.266   9.518   3.445 -0.6866  2.7028 -0.2665
 9647SOL     OW40999   3.233   7.771   9.633 -0.2485  0.4101 -0.2987
 9647SOL    HW141000   3.318   7.727   9.659 -0.2189 -0.4161 -1.7308
 9647SOL    HW241001   3.235   7.793   9.535 -2.3829 -1.3138 -0.7755
 9648SOL     OW41002   1.352   3.892   6.830 -0.4567 -0.6856 -0.1988
 9648SOL    HW141003   1.446   3.883   6.801 -0.3730 -2.6711  0.6356
 9648SOL    HW241004   1.314   3.978   6.795  1.4313 -0.2031 -1.0940
 9649SOL     OW41005   6.912   8.703   3.363  0.1925 -0.4212  0.4047
 9649SOL    HW141006   6.863   8.621   3.337  0.5992 -0.4134 -0.4061
 9649SOL    HW241007   6.948   8.748   3.281  1.9741 -0.7053  1.0072
 9650SOL     OW41008   1.631   3.453   9.799  0.2490 -0.1031  0.3293
 9650SOL    HW141009   1.690   3.434   9.877  1.0482  2.1557  0.3122
 9650SOL    HW241010   1.686   3.463   9.716 -0.2004  1.2192  0.1708
 9651SOL     OW41011   8.297   8.124   6.803  0.0408  0.7892  0.6161
 9651SOL    HW141012   8.243   8.109   6.719  0.8153 -2.0497  0.5661
 9651SOL    HW241013   8.269   8.057   6.872  1.9167  0.7557  1.3698
 9652SOL     OW41014   9.290   6.124   4.533  0.2292 -0.2427 -0.2961
 9652SOL    HW141015   9.256   6.094   4.622 -3.5461  0.5133 -1.3976
 9652SOL    HW241016   9.312   6.221   4.536  0.4411 -0.2950 -0.1212
 9653SOL     OW41017   2.595   8.154   4.100 -0.6050  0.0502 -0.0821
 9653SOL    HW141018   2.667   8.224   4.099 -0.0627 -0.4835  0.8109
 9653SOL    HW241019   2.550   8.151   4.011 -0.5561  1.4549 -0.1722
 9654SOL     OW41020   2.955   1.809   2.566 -0.0160 -0.1815  0.1179
 9654SOL    HW141021   2.992   1.872   2.498  0.8721  1.2053  1.8672
 9654SOL    HW241022   2.860   1.832   2.585 -0.8221 -1.6429 -1.8666
 9655SOL     OW41023   1.166   5.468   4.706  0.1610  0.1595  0.0457
 9655SOL    HW141024   1.098   5.509   4.767  0.8152  1.6934 -0.2264
 9655SOL    HW241025   1.224   5.405   4.758 -2.2006 -2.0714  0.0354
 9656SOL     OW41026   0.413   5.905   0.484 -0.1840  0.0525  0.2009
 9656SOL    HW141027   0.356   5.841   0.433 -0.8697  0.9259 -0.1369
 9656SOL    HW241028   0.404   5.997   0.445  1.6542  0.1635 -0.0323
 9657SOL     OW41029   8.245   9.404   7.471 -0.4255 -0.3231 -0.0773
 9657SOL    HW141030   8.233   9.499   7.498 -0.2178  0.3904 -2.3996
 9657SOL    HW241031   8.327   9.395   7.414 -0.0030 -2.0363  0.7442
 9658SOL     OW41032   3.570   0.285   6.448  0.0574 -0.2344 -0.3156
 9658SOL    HW141033   3.560   0.223   6.370 -1.3938 -1.4246  0.7854
 9658SOL    HW241034   3.551   0.379   6.420  1.7849 -0.3269 -1.8967
 9659SOL     OW41035   3.347   1.373   6.507  0.0072 -0.9597 -0.5624
 9659SOL    HW141036   3.287   1.375   6.587  0.7077  0.2734 -0.0521
 9659SOL    HW241037   3.366   1.278   6.482  0.6802 -1.3731  1.4091
 9660SOL     OW41038   8.784   1.307   0.711 -0.0680  0.6031 -0.3723
 9660SOL    HW141039   8.832   1.384   0.753 -1.6641  0.5904  1.5620
 9660SOL    HW241040   8.818   1.221   0.750  0.6993  0.4111 -1.4670
 9661SOL     OW41041   3.417   1.014   9.852 -0.0198  0.5760 -0.1032
 9661SOL    HW141042   3.493   0.956   9.881 -0.2654  0.0939 -0.4254
 9661SOL    HW241043   3.411   1.016   9.752 -1.2627 -0.4754 -0.0627
 9662SOL     OW41044   3.047   1.685   1.492  0.4734  0.1414  0.1067
 9662SOL    HW141045   3.088   1.724   1.409  0.4546  0.8061  0.4095
 9662SOL    HW241046   2.955   1.724   1.505  0.3190 -0.2585  0.2280
 9663SOL     OW41047   7.876   7.559   2.186 -0.3386  0.3419  0.0285
 9663SOL    HW141048   7.860   7.474   2.136 -0.3898 -0.1337  0.8425
 9663SOL    HW241049   7.967   7.557   2.228 -0.1562  0.8838 -0.3333
 9664SOL     OW41050   4.317   8.096   3.124  0.2266  0.3521  0.2682
 9664SOL    HW141051   4.389   8.088   3.055  1.2833 -1.0849  1.4938
 9664SOL    HW241052   4.344   8.166   3.191  0.1660  0.2975  0.3491
 9665SOL     OW41053   4.416   5.957   3.138 -1.0218  0.1629  0.4647
 9665SOL    HW141054   4.421   5.928   3.233 -2.5224 -1.2607  0.1515
 9665SOL    HW241055   4.327   5.931   3.100 -0.2032  0.1069 -1.5099
 9666SOL     OW41056   4.354   2.461   8.158  0.0224 -0.5884  0.4336
 9666SOL    HW141057   4.338   2.523   8.235 -0.1135 -1.1315  0.8424
 9666SOL    HW241058   4.270   2.451   8.105  0.4885  0.8675 -0.5783
 9667SOL     OW41059   1.996   1.890   0.604  0.6215  0.5331  0.1663
 9667SOL    HW141060   1.972   1.793   0.605 -0.1720  0.7168 -0.2758
 9667SOL    HW241061   1.925   1.942   0.651 -0.1285  1.1439 -1.5876
 9668SOL     OW41062   6.631   4.373   2.807  0.3255  0.2066 -0.2528
 9668SOL    HW141063   6.628   4.293   2.866 -0.8550  0.2561 -0.2289
 9668SOL    HW241064   6.584   4.352   2.721 -2.3552  1.6647  0.7745
 9669SOL     OW41065   4.534   1.762   8.089  0.0158  0.3472 -0.0848
 9669SOL    HW141066   4.530   1.744   8.188 -1.8138  0.4729 -0.1122
 9669SOL    HW241067   4.534   1.861   8.074 -1.2270  0.3375 -0.2322
 9670SOL     OW41068   8.340   8.248   2.054  0.1481 -0.5507  0.0327
 9670SOL    HW141069   8.308   8.342   2.045  0.2114 -0.3561  1.7757
 9670SOL    HW241070   8.421   8.235   1.997  0.1573  0.4384 -0.1932
 9671SOL     OW41071   3.683   6.173   2.060 -0.3459  0.1582 -0.7523
 9671SOL    HW141072   3.678   6.130   2.150 -0.3405 -0.3433 -0.9863
 9671SOL    HW241073   3.713   6.268   2.069 -0.2979  0.0944 -0.2337
 9672SOL     OW41074   0.090   5.703   7.216 -0.3074 -0.5039 -0.3618
 9672SOL    HW141075   0.166   5.638   7.220 -0.2459 -0.3850  0.6550
 9672SOL    HW241076   0.003   5.653   7.214 -0.2190 -0.6334 -1.1029
 9673SOL     OW41077   0.454   4.654   5.145  0.3460  0.5587 -0.7183
 9673SOL    HW141078   0.540   4.674   5.098  0.8755  1.9087  0.8106
 9673SOL    HW241079   0.467   4.577   5.207  0.1251 -0.0480 -1.4265
 9674SOL     OW41080   8.627   0.078   2.506 -0.4106 -0.1373 -0.7771
 9674SOL    HW141081   8.706   0.075   2.445 -1.3248 -0.2322 -1.9784
 9674SOL    HW241082   8.581   0.166   2.498 -0.5760 -0.1730 -0.2694
 9675SOL     OW41083   4.944   5.201   0.923  0.1786  0.2420 -0.6111
 9675SOL    HW141084   4.846   5.214   0.931  0.1160 -0.6931  0.2966
 9675SOL    HW241085   4.992   5.279   0.963 -0.1791  1.6763 -2.8750
 9676SOL     OW41086   2.301   5.941   7.098  0.4079  0.4238  0.5186
 9676SOL    HW141087   2.401   5.951   7.096  0.6020 -0.3914  3.4446
 9676SOL    HW241088   2.265   5.979   7.183 -1.4015 -2.0266  0.9282
 9677SOL     OW41089   0.460   3.065   8.211  0.1097 -0.1611 -0.1143
 9677SOL    HW141090   0.511   3.150   8.226  1.1056 -0.2348 -2.7539
 9677SOL    HW241091   0.510   2.989   8.252 -0.9629  0.5274  2.5722
 9678SOL     OW41092   0.030   8.538   3.621 -0.0734  0.5856  0.2471
 9678SOL    HW141093   0.082   8.514   3.539  0.0008  1.1739  0.1194
 9678SOL    HW241094  -0.053   8.587   3.594 -0.5415 -0.0844  0.4682
 9679SOL     OW41095   7.030   0.993   9.828  0.2797 -0.4110  0.2411
 9679SOL    HW141096   7.066   0.925   9.764  0.1425 -0.0459 -0.2270
 9679SOL    HW241097   7.077   1.080   9.813 -1.7598  0.4399 -1.3147
 9680SOL     OW41098   3.305   3.670   8.869  0.2046 -0.5259  0.1181
 9680SOL    HW141099   3.375   3.725   8.824  1.3299 -1.2521  0.9350
 9680SOL    HW241100   3.319   3.673   8.968 -0.3578 -1.4368  0.2337
 9681SOL     OW41101   5.569   0.171   3.444  0.1066  0.1465  0.5673
 9681SOL    HW141102   5.535   0.182   3.538  0.1496  1.2606  0.4619
 9681SOL    HW241103   5.669   0.174   3.444  0.0860  1.2853  0.3694
 9682SOL     OW41104   7.313   4.441   3.011 -0.1018 -0.2403 -0.1534
 9682SOL    HW141105   7.279   4.413   3.101 -0.0012  0.6417  0.1632
 9682SOL    HW241106   7.389   4.505   3.022 -0.3571  0.1972 -0.8644
 9683SOL     OW41107   5.994   4.357   1.544  0.3128 -0.3911 -0.0612
 9683SOL    HW141108   5.936   4.414   1.602  1.0283  2.0836 -1.6479
 9683SOL    HW241109   5.961   4.363   1.449  1.4288 -1.2664 -0.5072
 9684SOL     OW41110   5.009   9.014   4.696  0.1767  0.0216  0.0529
 9684SOL    HW141111   5.088   9.066   4.727  0.4402  0.9824 -2.1605
 9684SOL    HW241112   4.930   9.034   4.754  1.7133 -1.5579  2.7837
 9685SOL     OW41113   2.705   4.251   8.629  0.0153  0.0737  1.1471
 9685SOL    HW141114   2.764   4.198   8.690  0.6587 -0.9014 -0.2837
 9685SOL    HW241115   2.755   4.275   8.546 -1.0240  0.8664  0.7290
 9686SOL     OW41116   3.085   9.935   7.730 -0.8789  0.2556 -0.4313
 9686SOL    HW141117   3.067  10.032   7.749  1.3961  0.3265  1.5594
 9686SOL    HW241118   3.052   9.879   7.806  0.3947 -0.2698 -0.2518
 9687SOL     OW41119   4.124   0.670   2.154 -0.3673  0.0287 -0.3801
 9687SOL    HW141120   4.063   0.742   2.123 -0.6906 -0.1898 -0.2514
 9687SOL    HW241121   4.167   0.698   2.241 -0.3108  0.1654 -0.4521
 9688SOL     OW41122   3.274   6.628   1.316 -0.0510  0.4035  0.2689
 9688SOL    HW141123   3.237   6.719   1.296  1.5290  0.7492 -1.1914
 9688SOL    HW241124   3.362   6.638   1.364  0.2188 -0.3586 -0.0751
 9689SOL     OW41125   4.470   9.767   3.591 -0.3877 -0.4588 -0.3168
 9689SOL    HW141126   4.508   9.696   3.651 -0.5535 -0.4154 -0.1602
 9689SOL    HW241127   4.541   9.799   3.529 -1.2258 -3.3136 -2.8418
 9690SOL     OW41128   9.442   5.847   0.055 -0.2961 -0.1289 -0.0761
 9690SOL    HW141129   9.354   5.876   0.018 -0.0553  0.4370 -0.2116
 9690SOL    HW241130   9.451   5.748   0.048 -1.2785 -0.2817  0.7210
 9691SOL     OW41131   1.634   9.366   9.441 -0.2774 -0.1320  0.2453
 9691SOL    HW141132   1.623   9.430   9.517 -2.7024 -1.3950  1.0374
 9691SOL    HW241133   1.618   9.272   9.474 -1.7588 -0.6608 -1.8839
 9692SOL     OW41134   7.052   0.508   5.494  0.2582 -0.5710  0.5558
 9692SOL    HW141135   6.986   0.487   5.421  1.0105 -0.6683 -0.1027
 9692SOL    HW241136   7.090   0.599   5.479 -1.1952  0.3053  2.0534
 9693SOL     OW41137   8.010   5.986   0.376 -0.1292  0.1773 -0.3819
 9693SOL    HW141138   8.005   6.057   0.305 -2.0512  0.7107  0.2657
 9693SOL    HW241139   8.088   5.926   0.357 -0.2625  0.6613 -2.6235
 9694SOL     OW41140   8.930   1.235   8.048  0.2426  0.0214  0.2794
 9694SOL    HW141141   8.949   1.267   8.141  0.0454  2.0918 -0.3787
 9694SOL    HW241142   8.984   1.288   7.983  0.3438 -1.3862 -0.8000
 9695SOL     OW41143   5.568   5.752   8.841  0.4344  0.7753 -0.3060
 9695SOL    HW141144   5.658   5.768   8.882  2.0084  0.7019 -3.5465
 9695SOL    HW241145   5.528   5.839   8.813  0.0481  0.6974 -0.0016
 9696SOL     OW41146   6.033   7.367   4.589  0.1779  0.4323  0.1816
 9696SOL    HW141147   6.107   7.317   4.634 -1.8553 -0.9905  2.0322
 9696SOL    HW241148   6.037   7.349   4.490 -0.8994 -4.0790  0.8517
 9697SOL     OW41149   7.504   7.445   3.294 -0.4098 -0.1871  0.2845
 9697SOL    HW141150   7.589   7.400   3.266 -0.3491  0.4414 -0.5642
 9697SOL    HW241151   7.506   7.541   3.265 -1.9691 -0.4936 -0.8896
 9698SOL     OW41152   4.532   8.653   4.212  0.0807 -0.4959 -0.9564
 9698SOL    HW141153   4.582   8.606   4.286 -2.6426 -0.2724  1.0982
 9698SOL    HW241154   4.491   8.585   4.152 -0.9810 -0.7222  0.0195
 9699SOL     OW41155   1.602   5.774   7.745 -0.4749  0.0897 -0.8648
 9699SOL    HW141156   1.582   5.872   7.740  0.1653  0.1968 -1.6928
 9699SOL    HW241157   1.521   5.722   7.720 -1.2877  0.3679  1.1861
 9700SOL     OW41158   3.936   8.911   7.907  0.3897  0.7170  0.3804
 9700SOL    HW141159   3.889   8.971   7.843  0.0383 -0.5473 -0.5806
 9700SOL    HW241160   3.868   8.856   7.957  0.8153 -1.6524 -1.5497
 9701SOL     OW41161   8.369   3.703   8.400 -0.5311  0.1306  0.4294
 9701SOL    HW141162   8.322   3.783   8.363 -0.3623  0.4289  0.8558
 9701SOL    HW241163   8.352   3.624   8.341 -1.2853  0.3154  0.3948
 9702SOL     OW41164   1.003   0.524   3.924 -0.9330 -0.0949 -0.3196
 9702SOL    HW141165   0.954   0.439   3.906 -0.7087 -0.2010 -0.4334
 9702SOL    HW241166   1.081   0.506   3.983  0.9355 -0.5205 -2.8120
 9703SOL     OW41167   2.051   8.464   3.051  0.2763  0.4803 -0.2598
 9703SOL    HW141168   2.125   8.447   3.116  0.1084 -1.0577 -0.4500
 9703SOL    HW241169   1.979   8.396   3.063 -1.3044  2.2041  0.1746
 9704SOL     OW41170   2.045   7.615   2.655 -0.0738  0.0540  0.6570
 9704SOL    HW141171   2.020   7.712   2.656  0.1253  0.0969  1.8126
 9704SOL    HW241172   2.142   7.605   2.677 -0.1258 -0.4214  0.6781
 9705SOL     OW41173   4.990   7.949   3.437  0.6879  0.1199  0.4201
 9705SOL    HW141174   5.090   7.944   3.438  0.9101  2.2427 -2.7194
 9705SOL    HW241175   4.959   8.019   3.500  1.3557  1.0336 -0.2489
 9706SOL     OW41176   3.126   2.101   7.126  0.0034 -0.0398  0.3081
 9706SOL    HW141177   3.168   2.179   7.171 -0.1243  0.1931  0.0230
 9706SOL    HW241178   3.127   2.022   7.188 -0.1823  0.2814  0.7226
 9707SOL     OW41179   5.572   9.208   5.289  0.1033 -0.4733 -0.2578
 9707SOL    HW141180   5.665   9.229   5.258 -0.1514  0.6454 -0.2686
 9707SOL    HW241181   5.532   9.139   5.229  0.2126  0.4776 -1.4350
 9708SOL     OW41182   1.711   3.379   8.068  0.1178 -0.3242  0.2992
 9708SOL    HW141183   1.743   3.432   7.989  1.6750 -1.9348 -0.1845
 9708SOL    HW241184   1.691   3.441   8.144 -1.3126  1.2455 -1.3158
 9709SOL     OW41185   4.443   8.402   6.561  0.2611  0.0046 -0.5062
 9709SOL    HW141186   4.482   8.494   6.558 -1.3551  0.7791  1.3940
 9709SOL    HW241187   4.425   8.371   6.468  1.9173  1.1140 -1.2254
 9710SOL     OW41188   8.922   2.625  10.046 -0.1013 -0.5364 -0.2522
 9710SOL    HW141189   8.951   2.663   9.958  0.2877 -2.3546 -0.9369
 9710SOL    HW241190   8.826   2.600  10.042 -0.4800  0.7951  0.3522
 9711SOL     OW41191   8.710   0.272   0.460 -0.4924  0.1412  0.0988
 9711SOL    HW141192   8.733   0.318   0.374  0.2248 -0.5864 -0.1004
 9711SOL    HW241193   8.612   0.282   0.478 -0.3518  1.7360  0.0524
 9712SOL     OW41194   1.699   2.560   8.629 -0.1338  0.0920 -0.2820
 9712SOL    HW141195   1.749   2.474   8.624  0.4229  0.4131 -0.3099
 9712SOL    HW241196   1.726   2.610   8.711 -1.8828 -0.6312  0.7696
 9713SOL     OW41197   5.813   9.049   5.195  0.0978 -0.1504  0.5759
 9713SOL    HW141198   5.870   8.972   5.225  1.2210  0.3191 -0.3061
 9713SOL    HW241199   5.862   9.100   5.123 -2.3421 -1.0437 -1.7989
 9714SOL     OW41200   8.866   9.590   1.644  0.1250  0.0398  0.1503
 9714SOL    HW141201   8.780   9.585   1.695 -0.2282 -0.9228 -0.5261
 9714SOL    HW241202   8.858   9.659   1.573 -0.1460 -0.1523 -0.0086
 9715SOL     OW41203   0.204   1.533   9.879 -0.2733  0.0113  0.3639
 9715SOL    HW141204   0.186   1.440   9.845 -2.4701  0.2468  0.8354
 9715SOL    HW241205   0.194   1.534   9.979 -0.2631  0.7697  0.3573
 9716SOL     OW41206   3.779   4.804   7.644  0.3852  0.1493  0.0897
 9716SOL    HW141207   3.839   4.855   7.705  0.6189  0.7843 -0.6634
 9716SOL    HW241208   3.720   4.744   7.698  2.0854 -0.9241  0.8145
 9717SOL     OW41209   9.580   2.697   7.138 -0.1324  0.2330  0.4036
 9717SOL    HW141210   9.639   2.617   7.124  0.3308  0.8744 -1.5047
 9717SOL    HW241211   9.618   2.753   7.211  1.7331  0.7053 -0.8865
 9718SOL     OW41212   8.823   3.203   6.755 -0.4859  0.2363  0.7646
 9718SOL    HW141213   8.833   3.272   6.684  1.2955 -1.0426 -0.2592
 9718SOL    HW241214   8.911   3.189   6.801 -0.6963 -1.6991  0.6229
 9719SOL     OW41215   5.306   1.348   7.580 -0.3603 -0.6155 -0.1517
 9719SOL    HW141216   5.359   1.304   7.507 -0.7636 -1.3404 -0.0156
 9719SOL    HW241217   5.354   1.429   7.612  0.7130 -1.2964  0.0171
 9720SOL     OW41218   0.967   9.775   3.569  0.0089 -0.2704 -0.3155
 9720SOL    HW141219   0.995   9.710   3.640  0.2344 -0.5957 -0.7066
 9720SOL    HW241220   0.868   9.783   3.569  0.0732  0.8557  1.0541
 9721SOL     OW41221   0.533   7.410   8.894 -0.1490  0.1475  0.4469
 9721SOL    HW141222   0.455   7.348   8.902  0.1835 -0.3617 -0.1808
 9721SOL    HW241223   0.603   7.385   8.961  0.8737 -1.5006 -1.1682
 9722SOL     OW41224   5.811   9.604   1.645 -0.0401 -0.3110 -0.5625
 9722SOL    HW141225   5.865   9.522   1.666 -1.6135 -1.6107 -1.4514
 9722SOL    HW241226   5.726   9.602   1.698 -0.3055  0.5011 -0.9500
 9723SOL     OW41227   8.989   4.031   9.066  0.2315 -0.4760  0.0844
 9723SOL    HW141228   9.030   4.120   9.086  1.5503 -0.6860 -1.5687
 9723SOL    HW241229   8.898   4.027   9.107  0.8759  0.9257  1.7538
 9724SOL     OW41230   2.829   7.185   3.927  0.5941  0.4476 -0.0592
 9724SOL    HW141231   2.800   7.179   4.022  0.5100 -2.1247 -0.2041
 9724SOL    HW241232   2.780   7.260   3.882 -0.5693  0.6497  1.5041
 9725SOL     OW41233   4.664   1.517   4.758  1.2570 -0.3305  0.3067
 9725SOL    HW141234   4.657   1.585   4.684 -1.6674 -0.5457  0.3040
 9725SOL    HW241235   4.756   1.518   4.795  2.1141  1.5201 -1.7211
 9726SOL     OW41236   2.387   3.766   5.612  1.1532  0.3834  0.2275
 9726SOL    HW141237   2.423   3.816   5.690  0.9311  2.2201 -0.8163
 9726SOL    HW241238   2.454   3.697   5.583  1.4784  0.0828  1.6517
 9727SOL     OW41239   3.867   3.379   4.256 -0.0045 -0.5182 -0.6740
 9727SOL    HW141240   3.802   3.369   4.181 -0.7985 -1.5336  0.1275
 9727SOL    HW241241   3.847   3.310   4.326  0.3861  0.7529  0.7103
 9728SOL     OW41242   3.086   9.534   9.716  0.5517  0.2936 -0.3575
 9728SOL    HW141243   3.147   9.486   9.779  0.1786  0.1310 -0.1123
 9728SOL    HW241244   3.130   9.543   9.627  0.5087 -0.7791 -0.4989
 9729SOL     OW41245   8.499   7.451   4.639 -0.3046 -0.7973 -0.3879
 9729SOL    HW141246   8.485   7.440   4.737  0.7817  1.7346  0.0902
 9729SOL    HW241247   8.441   7.525   4.605  1.2227  0.0519 -1.1641
 9730SOL     OW41248   1.665   2.430   0.549  0.1361  0.4434 -0.3006
 9730SOL    HW141249   1.668   2.470   0.641  0.7121  3.8917 -1.7563
 9730SOL    HW241250   1.735   2.358   0.542  0.2473  0.3079  1.8693
 9731SOL     OW41251   9.478   4.334   4.889 -0.0341  0.3749  0.3218
 9731SOL    HW141252   9.507   4.318   4.983 -0.1520  0.1158  0.3134
 9731SOL    HW241253   9.427   4.255   4.855 -3.9641  2.2453  1.5672
 9732SOL     OW41254   4.580   1.450   8.724  0.0232 -0.1151  0.3188
 9732SOL    HW141255   4.534   1.538   8.740  2.1905  1.0084  0.6110
 9732SOL    HW241256   4.678   1.466   8.710  0.4709 -2.5160  0.4887
 9733SOL     OW41257   0.393   6.769   3.888  0.4165 -0.1372 -0.4867
 9733SOL    HW141258   0.410   6.719   3.973 -0.8000 -0.8045 -0.6177
 9733SOL    HW241259   0.408   6.708   3.810  1.8622  0.5684 -0.7709
 9734SOL     OW41260   2.660   7.166   8.146 -0.0373  0.0863 -0.3476
 9734SOL    HW141261   2.564   7.170   8.117 -1.2237  0.7605  3.3755
 9734SOL    HW241262   2.673   7.088   8.207  0.9402  1.9037  1.8549
 9735SOL     OW41263   8.767   3.730   2.560 -0.0909 -0.3668 -0.4039
 9735SOL    HW141264   8.714   3.813   2.579  0.6964 -0.3765  2.0788
 9735SOL    HW241265   8.731   3.685   2.479 -3.0399  0.3206  0.4507
 9736SOL     OW41266   2.290   3.229   9.823  0.4126 -0.7511 -0.2813
 9736SOL    HW141267   2.306   3.161   9.895 -0.0480  0.6510  1.1720
 9736SOL    HW241268   2.347   3.208   9.744 -0.7331 -3.6268 -0.3934
 9737SOL     OW41269   2.142   2.317   0.747 -0.1447  0.2172 -0.7705
 9737SOL    HW141270   2.215   2.353   0.806 -0.3277 -1.2456  0.3896
 9737SOL    HW241271   2.110   2.389   0.686  1.7249  1.1038 -0.7490
 9738SOL     OW41272   3.592   5.239   8.186  0.0325 -0.4905  0.1840
 9738SOL    HW141273   3.639   5.182   8.119  0.7399  0.6568 -0.3005
 9738SOL    HW241274   3.573   5.184   8.268  2.2465 -0.9811  0.4066
 9739SOL     OW41275   8.224   2.774   9.332  0.0676  0.0446 -0.0042
 9739SOL    HW141276   8.160   2.810   9.265  1.3805 -0.9733 -1.8350
 9739SOL    HW241277   8.278   2.849   9.371 -0.4796  0.6032 -0.3113
 9740SOL     OW41278   8.069   1.184   9.633 -0.1305  0.1891  0.3636
 9740SOL    HW141279   7.971   1.168   9.633 -0.1153 -0.0326 -1.9900
 9740SOL    HW241280   8.117   1.098   9.618  0.4153  0.4014  0.8608
 9741SOL     OW41281   0.347   6.558   7.421  0.4367  0.3381 -0.4961
 9741SOL    HW141282   0.261   6.607   7.406  0.2841  0.2526  0.1141
 9741SOL    HW241283   0.410   6.579   7.346 -0.1211  0.3856 -0.9512
 9742SOL     OW41284   2.856   0.608   8.809 -0.2939 -0.2938  0.1866
 9742SOL    HW141285   2.811   0.646   8.890  0.7997  0.2267  0.5653
 9742SOL    HW241286   2.792   0.549   8.760 -0.6273 -1.5783  2.0827
 9743SOL     OW41287   3.162   5.504   3.807  0.0717 -0.5781  0.2200
 9743SOL    HW141288   3.204   5.560   3.878 -0.8831 -2.0871  1.9898
 9743SOL    HW241289   3.081   5.551   3.770 -1.1244 -1.0692  2.1724
 9744SOL     OW41290   3.217   8.977   5.464 -0.1312 -0.6666 -0.2660
 9744SOL    HW141291   3.302   9.004   5.419  0.0948  0.4067  0.7817
 9744SOL    HW241292   3.165   9.059   5.490 -0.1809 -1.2441  1.5660
 9745SOL     OW41293   6.978   5.196   0.716  0.2726  0.2499 -0.0533
 9745SOL    HW141294   6.944   5.196   0.622 -0.3635  0.6059  0.1702
 9745SOL    HW241295   7.071   5.232   0.718  0.0224  0.9360 -0.4598
 9746SOL     OW41296   9.340   4.924   9.030  0.0877  0.3572  0.0147
 9746SOL    HW141297   9.384   4.845   9.071  1.0321 -0.2239 -2.0464
 9746SOL    HW241298   9.387   5.008   9.058  2.2312 -0.2137 -1.7223
 9747SOL     OW41299   0.261   7.361   7.514  0.0926  0.1384  0.8680
 9747SOL    HW141300   0.297   7.371   7.422 -1.9256  4.6659  0.4092
 9747SOL    HW241301   0.168   7.323   7.510 -0.2852  1.0364  0.9387
 9748SOL     OW41302   0.969   4.432   3.371  0.1678 -0.2893  0.0660
 9748SOL    HW141303   0.908   4.498   3.327  0.7298 -0.2233 -0.6186
 9748SOL    HW241304   0.949   4.429   3.469  1.0700  1.9193  0.3446
 9749SOL     OW41305   6.446   3.363   8.471  0.5369 -0.4471 -0.4064
 9749SOL    HW141306   6.373   3.299   8.448  1.1258 -0.4913 -2.2330
 9749SOL    HW241307   6.470   3.416   8.390  0.5132  1.6443  0.9119
 9750SOL     OW41308   8.118   7.289   1.399  0.7304  0.3751 -0.1682
 9750SOL    HW141309   8.111   7.379   1.356 -1.7811 -0.6569 -2.0677
 9750SOL    HW241310   8.186   7.234   1.350  0.3691  0.3731 -0.6771
 9751SOL     OW41311   7.524   3.608   9.826 -0.5515  0.4883  0.0869
 9751SOL    HW141312   7.450   3.540   9.817 -0.0794  0.3275 -3.1558
 9751SOL    HW241313   7.597   3.570   9.883 -1.1936 -0.9704 -0.0313
 9752SOL     OW41314   7.130   8.691   6.505  0.1559  0.5387 -0.2027
 9752SOL    HW141315   7.109   8.778   6.548 -0.1882  1.1663 -1.6012
 9752SOL    HW241316   7.046   8.646   6.477  0.3517 -0.0872  0.1946
 9753SOL     OW41317   1.487   2.673   8.196 -0.5076  0.6626 -0.1969
 9753SOL    HW141318   1.561   2.624   8.242  0.4055  1.2863 -0.9830
 9753SOL    HW241319   1.511   2.770   8.190 -1.2442  0.8068 -0.7502
 9754SOL     OW41320   9.651   1.684   0.776 -0.4041 -0.8053  0.0834
 9754SOL    HW141321   9.621   1.780   0.768  0.8609 -0.4312 -0.2011
 9754SOL    HW241322   9.571   1.626   0.794 -0.9413  0.5522  2.3120
 9755SOL     OW41323   1.781   7.153   0.600 -0.2674 -0.2717 -0.0893
 9755SOL    HW141324   1.733   7.237   0.624 -1.2187 -1.0716  0.8522
 9755SOL    HW241325   1.759   7.127   0.506  0.9504  1.1528 -0.7774
 9756SOL     OW41326   8.981   1.702   7.558 -0.2025  0.8547  0.3896
 9756SOL    HW141327   9.075   1.714   7.524 -0.4553  0.6416 -0.3850
 9756SOL    HW241328   8.966   1.765   7.634  0.6028  0.8289  0.5793
 9757SOL     OW41329   9.985   0.198   2.846  0.3447 -0.3362  0.0123
 9757SOL    HW141330  10.046   0.210   2.768 -0.9725  0.2654 -0.9481
 9757SOL    HW241331   9.993   0.105   2.880  0.1745 -0.9273 -1.5038
 9758SOL     OW41332   4.500   0.703   5.533  0.2865 -0.2867  0.3616
 9758SOL    HW141333   4.564   0.641   5.578  0.0498 -0.8615 -0.0918
 9758SOL    HW241334   4.415   0.655   5.513  0.1197  0.1684 -0.0381
 9759SOL     OW41335   7.857   5.215   9.555 -0.2599  0.1416 -0.5218
 9759SOL    HW141336   7.764   5.195   9.586 -0.5546  0.8199 -0.9603
 9759SOL    HW241337   7.890   5.142   9.496 -0.9575  0.4735 -1.3211
 9760SOL     OW41338   6.199   2.329   4.026 -0.5406  0.0279 -0.1314
 9760SOL    HW141339   6.201   2.397   3.952  0.5746  0.8017  0.6005
 9760SOL    HW241340   6.147   2.249   3.996 -1.1073  0.8322 -1.3252
 9761SOL     OW41341   3.080   3.790   2.957 -0.0740  0.1850  0.1391
 9761SOL    HW141342   3.008   3.836   3.010 -0.4878 -1.3777  0.9513
 9761SOL    HW241343   3.154   3.763   3.018 -0.4232 -1.3876 -0.1204
 9762SOL     OW41344   0.485   7.472   2.219 -0.3820  0.3446  0.2121
 9762SOL    HW141345   0.457   7.555   2.170  0.6234  0.5867  0.0368
 9762SOL    HW241346   0.406   7.436   2.269 -0.6100  1.9366  1.0492
 9763SOL     OW41347   1.988   8.493   9.261  0.7310 -0.3082  0.0064
 9763SOL    HW141348   1.954   8.584   9.287  1.8526  0.6518 -1.7162
 9763SOL    HW241349   2.085   8.486   9.284  0.4831 -1.3165  0.7338
 9764SOL     OW41350   0.892   1.960   7.545  0.1593 -0.5821 -0.2064
 9764SOL    HW141351   0.923   2.053   7.529 -0.5279 -0.0431  1.5067
 9764SOL    HW241352   0.825   1.959   7.619  1.4885 -2.6678  1.0098
 9765SOL     OW41353   3.870   3.609   1.479 -0.1986  0.1854  0.1653
 9765SOL    HW141354   3.875   3.702   1.515 -0.7708 -0.0419  0.8343
 9765SOL    HW241355   3.873   3.612   1.379 -0.4976  0.9396  0.1776
 9766SOL     OW41356   1.499   3.065   0.086 -0.3681  0.3365  0.0333
 9766SOL    HW141357   1.428   3.002   0.055  0.5416  0.1512 -1.7245
 9766SOL    HW241358   1.498   3.147   0.029  1.0080  0.2071 -0.1958
 9767SOL     OW41359   7.977   3.467   8.285 -0.1758 -0.2107 -0.6102
 9767SOL    HW141360   7.896   3.454   8.228 -0.5552  2.0824 -0.6205
 9767SOL    HW241361   8.059   3.449   8.230 -0.6210 -1.6287 -0.8460
 9768SOL     OW41362   6.627   6.209   1.665  0.2151 -0.4373 -0.1831
 9768SOL    HW141363   6.707   6.266   1.685  1.2838 -2.4904  1.5319
 9768SOL    HW241364   6.559   6.221   1.738 -0.1866 -0.2625 -0.5812
 9769SOL     OW41365   3.190   6.859   1.962 -0.2414 -0.1081  0.0607
 9769SOL    HW141366   3.283   6.830   1.986 -0.5998  2.0218  4.4867
 9769SOL    HW241367   3.124   6.795   1.999 -0.6719  0.1923 -0.1835
 9770SOL     OW41368   7.053   5.680   9.842 -0.2631 -0.4927 -0.8124
 9770SOL    HW141369   7.116   5.603   9.846 -0.6291 -0.7819 -0.5945
 9770SOL    HW241370   6.959   5.647   9.847 -0.3849  0.1132  1.7958
 9771SOL     OW41371   4.772   2.313   8.057  0.8769  0.3819  0.1121
 9771SOL    HW141372   4.699   2.315   8.125  0.2643 -0.5436 -0.4919
 9771SOL    HW241373   4.792   2.405   8.026  0.4784  0.7142  0.8346
 9772SOL     OW41374   0.584   6.031   8.999 -0.1350  0.3573  0.4585
 9772SOL    HW141375   0.655   5.973   8.959 -0.4606 -0.5118  1.1113
 9772SOL    HW241376   0.501   6.026   8.944 -0.4932 -0.6199  1.0645
 9773SOL     OW41377   1.040   5.107   6.949 -1.0153  0.2072 -0.3117
 9773SOL    HW141378   1.039   5.169   6.870 -0.1656  0.5256 -0.0785
 9773SOL    HW241379   1.133   5.074   6.964 -1.5883 -1.7527 -0.9067
 9774SOL     OW41380   2.951   1.816   4.595  0.0569  0.5323 -0.1691
 9774SOL    HW141381   2.857   1.833   4.567  0.2486  1.9201 -0.0236
 9774SOL    HW241382   2.957   1.816   4.695  0.6697  3.3780 -0.1505
 9775SOL     OW41383   2.305   6.992   4.654 -0.6778 -0.0725 -0.4028
 9775SOL    HW141384   2.337   6.898   4.654 -0.4527 -0.0045  1.3970
 9775SOL    HW241385   2.375   7.051   4.696  0.1188  1.2345 -3.4306
 9776SOL     OW41386   0.801   5.242   4.888 -0.3117  0.4410  1.0542
 9776SOL    HW141387   0.741   5.239   4.808  1.2186  1.1126 -0.1515
 9776SOL    HW241388   0.820   5.149   4.919 -1.3321  0.1967  0.9608
 9777SOL     OW41389   5.103   4.032   8.991 -0.0533 -0.5244 -0.3049
 9777SOL    HW141390   5.165   3.964   8.952 -1.7238 -2.0130 -0.4030
 9777SOL    HW241391   5.027   4.048   8.929 -0.5699  0.1567  0.4883
 9778SOL     OW41392   0.518   7.868   5.772 -0.3137  0.6779 -0.0044
 9778SOL    HW141393   0.576   7.790   5.796  0.0216  0.9553  0.0908
 9778SOL    HW241394   0.523   7.937   5.844 -1.3112  0.4053  0.3308
 9779SOL     OW41395   4.584   7.989   6.436 -0.4890  0.1252 -0.4245
 9779SOL    HW141396   4.659   7.926   6.459 -2.3463 -1.5003  1.4045
 9779SOL    HW241397   4.528   7.949   6.364  0.9799  1.8510 -2.6039
 9780SOL     OW41398   8.560   7.142   5.412 -0.1468  0.1541  1.0820
 9780SOL    HW141399   8.487   7.133   5.480 -0.2362  0.6791  1.0596
 9780SOL    HW241400   8.520   7.163   5.323 -0.1642 -2.2871  0.4690
 9781SOL     OW41401   5.986   7.578   2.988  0.0465 -0.1575 -0.5839
 9781SOL    HW141402   6.049   7.554   2.915 -2.2332  0.0307 -2.6734
 9781SOL    HW241403   5.958   7.674   2.979  0.9904  0.3465  1.5104
 9782SOL     OW41404   0.878   7.863   7.250 -0.1824 -0.3370  0.0537
 9782SOL    HW141405   0.896   7.802   7.172  3.4833  1.2153 -0.4036
 9782SOL    HW241406   0.861   7.956   7.217 -1.5472 -0.2469  0.9756
 9783SOL     OW41407   4.521   1.118   1.112 -0.1516 -0.1370  0.4743
 9783SOL    HW141408   4.533   1.213   1.142  1.7319 -0.5992  1.2662
 9783SOL    HW241409   4.434   1.109   1.063 -0.1508  2.0868  0.0162
 9784SOL     OW41410   1.389   2.818   9.475 -0.4062  0.2832 -0.3094
 9784SOL    HW141411   1.343   2.892   9.424  0.0403  0.8331  0.0865
 9784SOL    HW241412   1.330   2.737   9.475 -0.7038  0.4868 -1.1407
 9785SOL     OW41413   6.065   5.957   1.438 -0.1504 -0.2349  0.2052
 9785SOL    HW141414   6.052   5.875   1.493 -0.4241  0.2822  0.9104
 9785SOL    HW241415   6.133   5.939   1.367  0.2058 -0.8900  0.7146
 9786SOL     OW41416   1.555   9.010   1.351  0.1611  0.2524  0.3051
 9786SOL    HW141417   1.526   9.105   1.361 -0.5130  0.0758  0.0761
 9786SOL    HW241418   1.480   8.957   1.311  1.5583  0.2418 -2.4588
 9787SOL     OW41419   9.582   0.038   9.675  0.5157  0.2539  0.1282
 9787SOL    HW141420   9.679   0.063   9.672  0.7352 -0.5515  0.4226
 9787SOL    HW241421   9.530   0.112   9.719  1.1199  0.3268  0.7240
 9788SOL     OW41422   2.236   9.194   3.299 -0.2311 -0.1299 -0.0550
 9788SOL    HW141423   2.220   9.293   3.296  0.6632  0.0480  0.8692
 9788SOL    HW241424   2.159   9.150   3.345  1.1418  0.5569  2.9714
 9789SOL     OW41425   3.860   0.036  10.071 -0.4295  0.3285 -0.0685
 9789SOL    HW141426   3.947   0.042  10.119 -1.9082 -0.6399  2.8537
 9789SOL    HW241427   3.812   0.124  10.078 -1.1118 -0.1256  1.2395
 9790SOL     OW41428   2.774   2.272   6.653  0.2838 -0.0258 -0.0825
 9790SOL    HW141429   2.793   2.278   6.751  2.4386  1.0508 -0.5505
 9790SOL    HW241430   2.788   2.361   6.611 -1.2020 -0.3420 -1.2918
 9791SOL     OW41431   2.333   5.600   6.728  0.3230  0.4395  0.2086
 9791SOL    HW141432   2.277   5.682   6.727  0.0211  0.2360  0.0762
 9791SOL    HW241433   2.322   5.552   6.815  0.4224  0.4881  0.2472
 9792SOL     OW41434   6.362   4.806   9.001 -0.4699 -0.2119  0.4010
 9792SOL    HW141435   6.283   4.866   8.991 -0.0501  0.2944  0.1313
 9792SOL    HW241436   6.399   4.784   8.911 -0.3802 -0.5606  0.5191
 9793SOL     OW41437   8.508   0.539   0.334  0.6301 -0.3602 -0.0181
 9793SOL    HW141438   8.579   0.496   0.278 -0.6767 -1.4587 -0.8742
 9793SOL    HW241439   8.474   0.474   0.402 -0.8793 -0.5001 -0.8710
 9794SOL     OW41440   4.592   0.642   8.708 -0.0915  0.2418  0.0776
 9794SOL    HW141441   4.596   0.723   8.649 -0.6284 -0.5942 -1.1278
 9794SOL    HW241442   4.510   0.589   8.687  0.3706 -0.7390  0.7051
 9795SOL     OW41443   7.962   1.310   9.193 -0.0695  0.0497  0.9391
 9795SOL    HW141444   7.922   1.391   9.236 -1.3576  0.7238 -1.4562
 9795SOL    HW241445   8.057   1.330   9.167  0.1950  0.1720  1.9670
 9796SOL     OW41446   1.103   9.619   0.451 -0.2610  0.2696  0.1390
 9796SOL    HW141447   1.087   9.716   0.469  0.4555  0.3195  0.5207
 9796SOL    HW241448   1.156   9.608   0.367 -0.4219  0.2043  0.0455
 9797SOL     OW41449   1.994   3.172   3.013 -0.5566  0.3700  0.0352
 9797SOL    HW141450   1.997   3.183   2.913 -0.8852 -0.8001 -0.1072
 9797SOL    HW241451   1.977   3.261   3.055  0.6037  1.0528 -0.9027
 9798SOL     OW41452   1.057   4.682   7.416  0.5726  0.3998  0.0706
 9798SOL    HW141453   1.140   4.664   7.468  2.0126  2.0216 -1.6127
 9798SOL    HW241454   1.015   4.767   7.449  0.3857  0.3595 -0.0598
 9799SOL     OW41455   2.362   9.998   8.068  0.2764  0.4722  0.5082
 9799SOL    HW141456   2.396   9.919   8.017  2.4919  0.5192  1.8667
 9799SOL    HW241457   2.280  10.034   8.023  1.5375 -0.1535 -2.4117
 9800SOL     OW41458   7.000   3.268   1.152 -0.2682  0.1293  0.1712
 9800SOL    HW141459   6.960   3.260   1.243 -1.7195 -0.6820 -0.5301
 9800SOL    HW241460   6.951   3.337   1.100 -0.0790 -0.1252 -0.3444
 9801SOL     OW41461   2.793   9.408   0.115  0.6849 -0.5075 -0.2029
 9801SOL    HW141462   2.831   9.400   0.023  1.6697  0.8914  0.0809
 9801SOL    HW241463   2.697   9.436   0.109  0.7843 -0.2942 -0.7889
 9802SOL     OW41464   8.703   5.771   2.585  0.4841  0.2631  0.3184
 9802SOL    HW141465   8.614   5.800   2.551  0.9495  0.8741 -0.3928
 9802SOL    HW241466   8.719   5.675   2.561  0.1179  0.2154  0.2608
 9803SOL     OW41467   9.201   7.720   1.142  0.4872 -0.0711 -0.2546
 9803SOL    HW141468   9.184   7.671   1.228 -2.4183  2.2511  0.5956
 9803SOL    HW241469   9.146   7.680   1.069 -2.5996  2.3137  0.6427
 9804SOL     OW41470   4.704   3.530   9.442 -0.3354 -0.6389  0.3022
 9804SOL    HW141471   4.781   3.560   9.385 -1.5622  1.9278 -0.0837
 9804SOL    HW241472   4.721   3.555   9.537 -0.9956  0.6163  0.1027
 9805SOL     OW41473   9.658   4.054   6.444  0.4820  0.1710 -0.1041
 9805SOL    HW141474   9.676   4.149   6.466  0.0376 -0.1051  1.5106
 9805SOL    HW241475   9.743   4.009   6.415  0.7572  0.9576 -0.5156
 9806SOL     OW41476   1.024   0.688   8.330 -0.0303  0.1053 -0.1974
 9806SOL    HW141477   1.026   0.743   8.413  0.0665  0.7597 -0.6306
 9806SOL    HW241478   1.111   0.696   8.281 -0.8874  1.5255 -1.5188
 9807SOL     OW41479   1.847   3.716   8.703 -0.1928 -0.4187 -0.2177
 9807SOL    HW141480   1.864   3.766   8.789 -0.2446  2.0882 -1.6070
 9807SOL    HW241481   1.749   3.714   8.685 -0.2208 -1.3755  0.0057
 9808SOL     OW41482   1.388   7.319   9.394  0.0543  0.5650  0.1263
 9808SOL    HW141483   1.366   7.223   9.404  2.4584 -0.0699 -0.2880
 9808SOL    HW241484   1.408   7.339   9.298  0.6468  1.2219  0.3840
 9809SOL     OW41485   0.250   6.549   1.725  0.1012  0.6744 -0.6456
 9809SOL    HW141486   0.316   6.551   1.800 -2.0527  1.2798  1.3248
 9809SOL    HW241487   0.229   6.454   1.701 -0.0844  0.4469  0.3767
 9810SOL     OW41488   1.475   8.135   6.247 -0.1442  0.0271  0.4428
 9810SOL    HW141489   1.434   8.194   6.177  0.4368  1.4380  1.2823
 9810SOL    HW241490   1.569   8.112   6.220 -0.2601 -0.2593  0.2761
 9811SOL     OW41491   0.012   7.756   6.714  0.1862 -0.0855 -0.4971
 9811SOL    HW141492  -0.076   7.783   6.753  0.3487  1.1560 -0.9600
 9811SOL    HW241493   0.036   7.818   6.639  0.3920 -1.7615 -1.8616
 9812SOL     OW41494   9.861   0.767   4.716 -0.0043  0.6852  0.4781
 9812SOL    HW141495   9.798   0.767   4.638 -0.2570  0.4167  0.6788
 9812SOL    HW241496   9.947   0.723   4.690  0.2116  1.3279  0.1138
 9813SOL     OW41497   4.355   1.279   6.777  0.2601 -0.5496 -0.1244
 9813SOL    HW141498   4.338   1.243   6.685 -0.5415 -1.1609  0.2544
 9813SOL    HW241499   4.268   1.309   6.818  0.6617  0.0636  0.2887
 9814SOL     OW41500   9.125  -0.000   7.651  0.0067  0.4781  0.1766
 9814SOL    HW141501   9.137   0.043   7.562 -1.0316 -1.0177 -0.7197
 9814SOL    HW241502   9.205   0.016   7.707  0.1178  2.5914 -0.5293
 9815SOL     OW41503   5.004   0.224   8.919 -0.3874  0.1347 -0.0448
 9815SOL    HW141504   4.907   0.238   8.901 -0.5369 -1.5086 -0.5623
 9815SOL    HW241505   5.057   0.255   8.840 -0.4175  1.8552  0.5911
 9816SOL     OW41506   7.744   1.794   9.467 -0.3790 -0.1057  0.6391
 9816SOL    HW141507   7.749   1.705   9.511 -1.2361  0.4323  1.8655
 9816SOL    HW241508   7.678   1.851   9.516 -0.8595  0.7343 -0.9599
 9817SOL     OW41509   3.841   8.546   4.764  0.2815  0.8569  0.5208
 9817SOL    HW141510   3.879   8.546   4.671 -0.4950 -0.8665  0.1718
 9817SOL    HW241511   3.742   8.559   4.759  0.2805  1.1068  1.1396
 9818SOL     OW41512   3.032   4.486   5.857 -0.1363  0.4838  0.3136
 9818SOL    HW141513   3.053   4.575   5.817 -0.0894  0.1967 -0.3001
 9818SOL    HW241514   3.017   4.497   5.956  0.0154  1.1458  0.2671
 9819SOL     OW41515   9.641   7.394   2.293 -0.8205  0.2919  0.2670
 9819SOL    HW141516   9.739   7.399   2.272 -0.8517 -0.3090 -0.0293
 9819SOL    HW241517   9.628   7.402   2.391 -0.5537  1.4929  0.2164
 9820SOL     OW41518   7.094   4.924   7.211  0.0919  0.2151  0.2952
 9820SOL    HW141519   7.046   5.010   7.229 -0.7186 -0.4532  1.4117
 9820SOL    HW241520   7.111   4.877   7.298  2.2773  0.1776 -0.1394
 9821SOL     OW41521   3.031   9.543   3.527 -0.2597 -0.5989 -0.3615
 9821SOL    HW141522   3.055   9.623   3.581  0.0110 -0.7406 -0.2692
 9821SOL    HW241523   2.948   9.562   3.474  2.0637  1.1572 -3.4841
 9822SOL     OW41524   8.180   6.507   2.282  0.5034  0.0797  0.2697
 9822SOL    HW141525   8.264   6.513   2.228  0.3880  0.4389  0.1279
 9822SOL    HW241526   8.141   6.415   2.274  0.4973  0.1274 -0.2462
 9823SOL     OW41527   8.855   1.603   4.576  0.8995  0.1326  0.2619
 9823SOL    HW141528   8.892   1.645   4.659  0.6464  0.5919  0.1429
 9823SOL    HW241529   8.883   1.657   4.497  0.0651  0.4104  0.1610
 9824SOL     OW41530   8.509   1.115   1.046 -0.3545 -0.0816 -0.4450
 9824SOL    HW141531   8.596   1.117   0.997 -0.5554  0.7006 -0.7869
 9824SOL    HW241532   8.520   1.155   1.137 -0.6454  1.2825 -0.9939
 9825SOL     OW41533   6.433   2.265   3.850  0.2130 -0.2253  0.1128
 9825SOL    HW141534   6.427   2.300   3.943 -1.0583 -0.2217  0.0431
 9825SOL    HW241535   6.485   2.329   3.794  0.2744  0.1841  0.6347
 9826SOL     OW41536   9.261   0.077   6.677 -0.0516 -0.0594 -0.4006
 9826SOL    HW141537   9.337   0.127   6.717  0.9909 -1.7801 -0.1541
 9826SOL    HW241538   9.232   0.005   6.740 -1.8524  0.5423 -0.5215
 9827SOL     OW41539   4.565   0.128   8.813  0.0751  0.4344 -0.1913
 9827SOL    HW141540   4.628   0.147   8.888 -1.0768  1.7414  0.4827
 9827SOL    HW241541   4.607   0.065   8.748  1.2584 -0.3437  1.3155
 9828SOL     OW41542   1.031   9.001   8.184  0.6398  0.1495 -0.0717
 9828SOL    HW141543   0.937   8.968   8.172  0.3570  0.0249  2.2537
 9828SOL    HW241544   1.030   9.099   8.204  0.9594  0.0156  0.6045
 9829SOL     OW41545   7.954   6.159   5.096  0.0815  0.0994 -0.2229
 9829SOL    HW141546   7.979   6.233   5.033  1.1098  0.9686  1.1649
 9829SOL    HW241547   7.870   6.182   5.144  1.0553  0.9713  1.1130
 9830SOL     OW41548   0.572   6.628   7.264  0.0074  0.2492 -0.5749
 9830SOL    HW141549   0.583   6.721   7.299  0.0181 -0.3056  0.9477
 9830SOL    HW241550   0.659   6.580   7.272  0.0034  0.1154 -1.3693
 9831SOL     OW41551   8.618   9.229   4.574  0.2683  0.1207  0.4964
 9831SOL    HW141552   8.603   9.306   4.636  2.3591  1.4201 -0.5612
 9831SOL    HW241553   8.681   9.163   4.617  1.0025  0.5754  0.1211
 9832SOL     OW41554   7.620   6.065   9.255  0.6634  0.2811 -0.7618
 9832SOL    HW141555   7.653   6.008   9.180 -1.1601  1.7803 -2.7656
 9832SOL    HW241556   7.579   6.148   9.218  1.1045  1.7831  1.9989
 9833SOL     OW41557   3.009   2.098   0.333  0.0990 -0.2863 -0.5057
 9833SOL    HW141558   3.044   2.079   0.424  2.7427 -1.7922 -1.7737
 9833SOL    HW241559   2.917   2.060   0.324  0.0869 -0.7277  1.2987
 9834SOL     OW41560   8.931   5.232   5.321  0.1724  0.1474 -0.1131
 9834SOL    HW141561   8.956   5.141   5.288  1.3051 -0.0032  1.1367
 9834SOL    HW241562   8.899   5.288   5.244  1.8917 -0.4876 -1.3192
 9835SOL     OW41563   0.161   2.760   6.883  0.6273 -0.2283 -0.0641
 9835SOL    HW141564   0.234   2.757   6.951 -0.0672 -2.0943  0.6185
 9835SOL    HW241565   0.173   2.685   6.817 -0.6461 -0.5515  0.0490
 9836SOL     OW41566   3.957   0.775   5.453  0.4495  0.1398  0.0154
 9836SOL    HW141567   4.029   0.741   5.393  2.6471  2.8706  1.0001
 9836SOL    HW241568   3.950   0.717   5.534  0.3240 -1.1338 -0.8913
 9837SOL     OW41569   8.486   7.454   7.953 -0.6647 -0.3465 -0.2698
 9837SOL    HW141570   8.455   7.507   7.874 -0.6402 -1.8844 -1.3241
 9837SOL    HW241571   8.586   7.457   7.957 -0.6635 -0.2979 -0.3284
 9838SOL     OW41572   9.460   4.722  10.004  0.1532  0.0226 -0.0322
 9838SOL    HW141573   9.551   4.682  10.014 -0.0504 -0.9335 -1.8391
 9838SOL    HW241574   9.418   4.689   9.920 -0.9075  2.3400 -0.4684
 9839SOL     OW41575   9.137   7.341   4.199 -0.0559 -0.1336  0.1984
 9839SOL    HW141576   9.092   7.378   4.280  0.7290 -1.7150  1.3723
 9839SOL    HW241577   9.235   7.331   4.216  0.1821 -0.1209 -1.0927
 9840SOL     OW41578   0.987   8.983   3.455  0.1709 -0.2127  0.0504
 9840SOL    HW141579   0.932   9.053   3.500 -1.6592 -1.3906 -0.3312
 9840SOL    HW241580   1.002   8.906   3.518  1.5069  0.1448  0.1946
 9841SOL     OW41581   4.110   9.539   1.561  0.3251  0.2243  0.3702
 9841SOL    HW141582   4.190   9.579   1.518  0.7150 -0.6468  0.2867
 9841SOL    HW241583   4.030   9.598   1.544  1.0108  1.2956  0.8006
 9842SOL     OW41584   4.223   5.450   2.081  0.0626  0.3933 -0.6101
 9842SOL    HW141585   4.258   5.450   2.175 -1.0032 -0.3631 -0.2036
 9842SOL    HW241586   4.229   5.358   2.043  0.7033  0.7457 -1.3704
 9843SOL     OW41587   9.817   5.231   9.425 -0.3779 -0.3321 -0.0178
 9843SOL    HW141588   9.888   5.294   9.393 -1.1517  0.8439  0.5164
 9843SOL    HW241589   9.859   5.148   9.461  0.6912  0.1480 -0.1437
 9844SOL     OW41590   0.717   2.751   2.737  0.8584  0.2483 -0.1633
 9844SOL    HW141591   0.767   2.766   2.651 -2.0783  2.6653 -1.5740
 9844SOL    HW241592   0.749   2.817   2.805  1.7463 -0.2986 -0.0374
 9845SOL     OW41593   1.720   6.684   8.087  0.3072  0.0223  0.3514
 9845SOL    HW141594   1.787   6.610   8.072  1.6558  0.7889  2.3235
 9845SOL    HW241595   1.758   6.770   8.053 -0.9713 -0.0521 -1.3039
 9846SOL     OW41596   8.575   7.357   6.570 -0.8206 -0.0058 -0.0947
 9846SOL    HW141597   8.658   7.341   6.624  1.1491 -0.8756 -3.2764
 9846SOL    HW241598   8.514   7.279   6.580 -0.6865  0.0399  1.2113
 9847SOL     OW41599   2.500   5.557   6.520  0.4590 -0.1742 -0.3213
 9847SOL    HW141600   2.434   5.583   6.590  1.0896 -0.9548  0.5905
 9847SOL    HW241601   2.589   5.540   6.563  1.2475  0.8152 -1.5182
 9848SOL     OW41602   4.710   8.791   4.588  0.3513  0.0477 -0.2330
 9848SOL    HW141603   4.673   8.712   4.539 -0.0449  0.7022 -0.9971
 9848SOL    HW241604   4.637   8.859   4.601  1.2790  1.3626 -1.7746
 9849SOL     OW41605   4.154   3.205   1.938 -0.4379 -0.2880  0.0750
 9849SOL    HW141606   4.102   3.239   1.860 -0.4418  0.6588  0.4766
 9849SOL    HW241607   4.244   3.248   1.940  0.3187 -1.8166 -0.5375
 9850SOL     OW41608   1.803   9.207   0.927 -0.1677  0.3790  0.4881
 9850SOL    HW141609   1.762   9.170   1.010 -1.4126  1.2459  0.2822
 9850SOL    HW241610   1.835   9.300   0.945  3.1486 -0.8217  1.0741
 9851SOL     OW41611   1.723   3.571   7.436  0.1366  0.1082 -0.3722
 9851SOL    HW141612   1.701   3.609   7.346 -0.4659 -0.4558 -0.4631
 9851SOL    HW241613   1.710   3.472   7.435 -1.6267  0.3039  0.8509
 9852SOL     OW41614   9.837   3.933   5.505 -0.4498 -0.1636 -0.1432
 9852SOL    HW141615   9.863   4.026   5.482  0.7250  0.2289  2.6149
 9852SOL    HW241616   9.767   3.934   5.576 -1.6270 -1.3866 -1.2498
 9853SOL     OW41617   8.332   5.704   3.107 -0.3268  0.0569 -0.0890
 9853SOL    HW141618   8.332   5.804   3.111 -0.5537 -0.0029  2.4362
 9853SOL    HW241619   8.313   5.667   3.198  1.4380 -2.3034 -0.6221
 9854SOL     OW41620   3.294   6.705   9.227  0.3511 -0.6395 -0.0975
 9854SOL    HW141621   3.320   6.730   9.320  2.3700 -1.5984 -0.3936
 9854SOL    HW241622   3.256   6.612   9.228  0.2545 -0.6005 -0.2192
 9855SOL     OW41623   3.821   9.060   7.697 -0.8734 -0.5176 -0.7373
 9855SOL    HW141624   3.875   9.117   7.635 -2.2847  2.1491  0.4096
 9855SOL    HW241625   3.747   9.016   7.646 -0.4155 -0.5106 -1.4195
 9856SOL     OW41626   1.897   4.149   4.818  0.7741  0.4647  0.1774
 9856SOL    HW141627   1.887   4.224   4.753 -0.3945  0.2717  0.1098
 9856SOL    HW241628   1.940   4.182   4.902  2.3626  0.7023 -0.7059
 9857SOL     OW41629   0.209   3.055   1.307  0.4252 -0.1647 -0.4287
 9857SOL    HW141630   0.249   3.105   1.230 -0.2514  0.9703 -0.0429
 9857SOL    HW241631   0.280   2.999   1.350  0.5473 -1.8471 -2.6638
 9858SOL     OW41632   0.230   6.180   1.455 -0.6075  0.1221 -0.0220
 9858SOL    HW141633   0.212   6.097   1.509  0.6358  0.0245  0.2747
 9858SOL    HW241634   0.303   6.233   1.500 -0.6448  0.8235 -0.7896
 9859SOL     OW41635   8.599   2.615   0.966 -0.5528  0.0989 -0.0195
 9859SOL    HW141636   8.599   2.545   1.038  1.7675  0.2154  0.1382
 9859SOL    HW241637   8.646   2.697   1.000  0.1792  0.3102 -1.5137
 9860SOL     OW41638   8.889   6.985   4.880 -0.0802  0.0362 -0.1351
 9860SOL    HW141639   8.819   6.986   4.808 -0.0455 -0.8038 -0.1872
 9860SOL    HW241640   8.844   6.980   4.970 -0.0915 -0.3039 -0.1598
 9861SOL     OW41641   8.256   1.258   8.059 -0.9154  0.8030 -0.3283
 9861SOL    HW141642   8.166   1.259   8.102 -0.3238 -0.6136  0.9783
 9861SOL    HW241643   8.311   1.184   8.098  0.2885  0.6818 -2.2037
 9862SOL     OW41644   2.602   1.967   3.822  0.2435  0.0604  0.1716
 9862SOL    HW141645   2.593   1.944   3.725 -1.7791  1.1026  0.0946
 9862SOL    HW241646   2.638   2.060   3.830 -0.4219  0.3001  0.4084
 9863SOL     OW41647   8.217   9.205   8.224 -0.8569 -0.2046 -0.7253
 9863SOL    HW141648   8.284   9.271   8.189  1.4628 -2.8319 -1.4203
 9863SOL    HW241649   8.165   9.247   8.298  1.8450  1.8289  0.1359
 9864SOL     OW41650   9.947   1.998  10.045 -0.0567 -0.3413  0.6133
 9864SOL    HW141651  10.005   2.002   9.964  1.1292 -1.5949  1.3917
 9864SOL    HW241652   9.860   2.045  10.025  1.2342  1.6535 -0.5069
 9865SOL     OW41653   8.882   4.111   4.637 -0.5328  0.5762  0.5712
 9865SOL    HW141654   8.882   4.048   4.560  0.5510  0.2089  0.8553
 9865SOL    HW241655   8.789   4.123   4.671 -0.5621 -2.1430  1.5441
 9866SOL     OW41656   7.892   3.134   8.329 -0.5230 -0.1291  0.2002
 9866SOL    HW141657   7.896   3.231   8.305 -0.5695 -0.0430  0.5361
 9866SOL    HW241658   7.883   3.079   8.246  0.0640  0.1174 -0.0274
 9867SOL     OW41659   6.229   8.849   2.667 -0.2919 -0.0819 -0.2710
 9867SOL    HW141660   6.227   8.750   2.682  0.6161 -0.0604  0.0183
 9867SOL    HW241661   6.239   8.895   2.756  0.7036  0.2137 -0.5310
 9868SOL     OW41662   9.358   1.442   7.509  0.5709  0.1450 -0.0987
 9868SOL    HW141663   9.341   1.344   7.498  1.9888 -0.0451 -0.7624
 9868SOL    HW241664   9.456   1.457   7.524  0.4898  1.5210 -0.8377
 9869SOL     OW41665   5.100   0.167   6.600  0.3284 -0.3705 -0.8533
 9869SOL    HW141666   5.178   0.107   6.580  0.0343 -0.1739 -2.6888
 9869SOL    HW241667   5.038   0.121   6.663  1.2361 -1.0833 -0.4669
 9870SOL     OW41668   0.143   5.078   8.218  0.3574 -0.3830  1.0796
 9870SOL    HW141669   0.191   5.073   8.130 -0.3483  0.8585  0.6126
 9870SOL    HW241670   0.065   5.140   8.210 -0.1127 -0.7884  2.4042
 9871SOL     OW41671   9.225   0.829   2.321  0.5552  0.1999  0.2035
 9871SOL    HW141672   9.288   0.849   2.397  0.7350 -1.1289  0.4113
 9871SOL    HW241673   9.268   0.763   2.260 -1.7522 -2.9773  1.8765
 9872SOL     OW41674   9.408   3.441   4.358 -0.2027 -0.4815 -0.3139
 9872SOL    HW141675   9.488   3.383   4.339  0.8610  0.6247  0.7151
 9872SOL    HW241676   9.415   3.478   4.450 -1.8598 -0.2609 -0.2643
 9873SOL     OW41677   1.993   2.407   6.476  0.2678 -0.2832 -0.6277
 9873SOL    HW141678   1.994   2.339   6.549 -1.3725 -0.2385 -0.5294
 9873SOL    HW241679   1.980   2.361   6.388 -0.2069 -0.1586 -0.6259
 9874SOL     OW41680   1.138   1.126   9.671  0.0355  0.6050 -0.4250
 9874SOL    HW141681   1.147   1.135   9.572  0.2427  0.0510 -0.4542
 9874SOL    HW241682   1.077   1.198   9.705  1.7613  2.2169 -0.6546
 9875SOL     OW41683   7.149   4.061   8.212 -0.5544 -0.1105  0.3764
 9875SOL    HW141684   7.187   4.051   8.304 -1.0281 -1.6090  0.4116
 9875SOL    HW241685   7.213   4.024   8.145  0.5362  2.4564 -0.0816
 9876SOL     OW41686   7.916   5.377   9.275  0.4575  0.5002 -0.0590
 9876SOL    HW141687   7.826   5.419   9.262  1.2776  2.8247  1.5788
 9876SOL    HW241688   7.907   5.299   9.338 -0.4506  0.6168 -0.0380
 9877SOL     OW41689   7.714   0.687   5.314 -0.2243 -0.1809  0.1363
 9877SOL    HW141690   7.806   0.708   5.347 -0.0293  0.2419 -0.6949
 9877SOL    HW241691   7.718   0.657   5.219 -0.9698  0.0266  0.0370
 9878SOL     OW41692   4.000   2.112   0.894  0.0434  0.4169 -0.0561
 9878SOL    HW141693   4.077   2.085   0.836  0.9489 -2.5930  2.3565
 9878SOL    HW241694   4.029   2.184   0.957  0.0537  1.2324 -0.9783
 9879SOL     OW41695   6.699   5.306   9.763 -0.1552  0.3760  0.1858
 9879SOL    HW141696   6.686   5.245   9.841  0.5202 -0.8983 -0.6885
 9879SOL    HW241697   6.612   5.352   9.742 -0.6130 -0.1218  0.9830
 9880SOL     OW41698   1.128   9.138   7.623  0.0020 -0.0154 -0.0997
 9880SOL    HW141699   1.038   9.177   7.604  0.7086  1.5208 -0.3084
 9880SOL    HW241700   1.117   9.057   7.682 -1.6248 -0.7790 -1.4142
 9881SOL     OW41701   8.291   4.861   7.848  0.1657 -0.0646 -0.0335
 9881SOL    HW141702   8.343   4.872   7.932  0.0711  0.1136  0.0007
 9881SOL    HW241703   8.335   4.911   7.774  0.7952 -1.0312 -0.3249
 9882SOL     OW41704   1.541   2.406   9.449 -0.1715  0.2951  0.5395
 9882SOL    HW141705   1.568   2.502   9.448  1.2236 -0.0847  0.1815
 9882SOL    HW241706   1.441   2.399   9.445 -0.2261  1.6933 -1.0610
 9883SOL     OW41707   1.319   5.151   7.910  0.0939  0.0020  0.3307
 9883SOL    HW141708   1.396   5.174   7.850  0.2480  1.3018  1.0148
 9883SOL    HW241709   1.329   5.057   7.942  2.7853  0.9416  2.4589
 9884SOL     OW41710   3.919   7.343   5.084 -0.4928 -0.4227  0.1041
 9884SOL    HW141711   3.978   7.359   5.005  0.1951 -2.8948  0.0638
 9884SOL    HW241712   3.976   7.337   5.166 -1.2193  2.3245  0.8616
 9885SOL     OW41713   0.381   9.944   9.419 -0.3698 -0.1950 -0.2390
 9885SOL    HW141714   0.353  10.038   9.397 -0.5066 -0.4597 -1.2012
 9885SOL    HW241715   0.473   9.946   9.458 -0.8483  0.4581  0.9057
 9886SOL     OW41716   1.702   9.127   1.156  0.1461  0.1957 -0.2930
 9886SOL    HW141717   1.626   9.091   1.211 -1.2543 -0.9802 -2.9407
 9886SOL    HW241718   1.784   9.072   1.173 -0.6133 -0.9642 -0.3412
 9887SOL     OW41719   8.461   3.007   6.567 -0.2967 -0.6241 -0.3285
 9887SOL    HW141720   8.517   3.049   6.496 -0.4518 -1.3472 -0.8857
 9887SOL    HW241721   8.385   3.068   6.590  0.0202 -0.1845 -0.4490
 9888SOL     OW41722   6.493   3.085   3.004 -0.1972  0.0600  0.2178
 9888SOL    HW141723   6.401   3.122   3.017  0.3891  2.8745 -2.9118
 9888SOL    HW241724   6.501   3.052   2.910  2.0810  0.1083  0.3869
 9889SOL     OW41725   9.480   8.074   4.760 -0.2024  0.3088  0.2083
 9889SOL    HW141726   9.502   8.171   4.771  0.3465  0.1638  0.4267
 9889SOL    HW241727   9.564   8.020   4.767 -0.3849 -0.1131 -0.7502
 9890SOL     OW41728   9.767   2.976   3.054  0.6384 -0.0708 -0.0311
 9890SOL    HW141729   9.804   3.002   3.143  1.7347  0.6857 -0.6972
 9890SOL    HW241730   9.671   2.948   3.064  0.6420  0.3869  1.3148
 9891SOL     OW41731   7.093   7.933   3.149 -0.2728  0.2562 -0.1497
 9891SOL    HW141732   7.078   7.843   3.191  0.6382 -0.0765 -0.5254
 9891SOL    HW241733   7.163   7.925   3.078  1.4086  1.7037  1.3231
 9892SOL     OW41734   2.561   7.581   1.424 -0.0803  0.2755  0.0398
 9892SOL    HW141735   2.585   7.638   1.502  1.3515  0.6944 -0.6749
 9892SOL    HW241736   2.606   7.617   1.342  1.3340 -2.1927 -0.3152
 9893SOL     OW41737   4.342   8.976   2.518  0.5063  0.1191 -0.3665
 9893SOL    HW141738   4.307   8.999   2.427 -2.4173 -1.9387  0.1910
 9893SOL    HW241739   4.319   9.050   2.581 -2.4962 -0.9757 -0.1187
 9894SOL     OW41740   0.221   1.521   4.026  0.0696 -0.1076  0.4358
 9894SOL    HW141741   0.186   1.528   3.932  0.5853  0.1431  0.2581
 9894SOL    HW241742   0.297   1.456   4.028 -0.1503 -0.3514  0.7393
 9895SOL     OW41743   1.376   8.272   8.987  0.3985  0.1296 -0.1596
 9895SOL    HW141744   1.332   8.300   9.072 -1.6707 -1.2845 -0.7308
 9895SOL    HW241745   1.339   8.326   8.911  1.3078  0.4956 -0.3544
 9896SOL     OW41746   3.800   2.382   4.253 -0.3281 -0.1702 -0.4955
 9896SOL    HW141747   3.781   2.285   4.237  1.7817 -1.3258  3.3650
 9896SOL    HW241748   3.891   2.404   4.218 -0.6782  0.3102 -1.0887
 9897SOL     OW41749   0.014   1.017   6.313  0.1218  0.3554 -0.4857
 9897SOL    HW141750  -0.026   1.021   6.221  0.1075  1.1015 -0.4553
 9897SOL    HW241751   0.109   1.046   6.310  0.2607 -0.0867 -0.3405
 9898SOL     OW41752   5.927   9.716   7.701 -0.3555 -0.1917  0.0051
 9898SOL    HW141753   5.980   9.785   7.653 -1.0501  0.5433  0.2905
 9898SOL    HW241754   5.984   9.635   7.718  0.5286  0.4171 -0.0759
 9899SOL     OW41755   0.373   8.238   9.291 -0.2460 -0.1648  0.0524
 9899SOL    HW141756   0.440   8.198   9.354  1.5892  1.4527 -0.8042
 9899SOL    HW241757   0.352   8.331   9.321 -1.4102 -0.3433 -0.2174
 9900SOL     OW41758   0.352   8.802   2.242  0.4906  0.2992  0.1085
 9900SOL    HW141759   0.286   8.770   2.174  1.9699 -2.3065 -0.1799
 9900SOL    HW241760   0.370   8.900   2.228 -0.9831  0.3246 -1.7542
 9901SOL     OW41761   5.823   1.985   4.399  0.1222 -0.4734  0.1064
 9901SOL    HW141762   5.825   2.085   4.406 -0.6377 -0.4192 -0.4968
 9901SOL    HW241763   5.849   1.946   4.487 -1.4597  0.2555  0.9139
 9902SOL     OW41764   1.228   7.704   3.375 -0.5590 -0.5520  0.0044
 9902SOL    HW141765   1.296   7.767   3.337  0.3063  0.1031  2.5965
 9902SOL    HW241766   1.153   7.694   3.309  2.1347 -1.5514 -3.0521
 9903SOL     OW41767   8.222   5.646   3.356 -0.4644 -0.5547 -0.1661
 9903SOL    HW141768   8.281   5.672   3.433 -0.4664  0.3451 -0.4678
 9903SOL    HW241769   8.247   5.555   3.324 -0.6225 -1.0421  1.0598
 9904SOL     OW41770   9.849   4.052   8.552 -0.0406 -0.3712  0.3956
 9904SOL    HW141771   9.804   3.970   8.516  0.0252  0.3330 -1.3693
 9904SOL    HW241772   9.805   4.080   8.637 -1.6522 -0.8454 -0.2651
 9905SOL     OW41773   5.058   1.338   8.917 -0.0473  0.5825  0.7955
 9905SOL    HW141774   5.012   1.400   8.981 -2.7553 -0.7724  0.2269
 9905SOL    HW241775   4.989   1.285   8.868  2.0944  0.0595 -1.6994
 9906SOL     OW41776   4.107   5.906   3.050 -0.1229  0.2406  0.1498
 9906SOL    HW141777   4.104   5.928   3.148 -0.3280 -1.1054  0.4620
 9906SOL    HW241778   4.076   5.984   2.997 -0.7860  0.7007  1.2079
 9907SOL     OW41779   5.075   7.529   4.292  0.4440  0.1321  0.3548
 9907SOL    HW141780   5.036   7.542   4.383 -0.1153 -0.3380  0.1793
 9907SOL    HW241781   5.012   7.564   4.223 -1.1711 -3.5154 -0.1535
 9908SOL     OW41782   0.355   3.109   5.715  0.2685 -0.5787 -0.2404
 9908SOL    HW141783   0.268   3.129   5.671 -0.3759 -3.0876 -0.1508
 9908SOL    HW241784   0.348   3.126   5.814 -0.3911 -1.6061 -0.1064
 9909SOL     OW41785   1.644   6.202   5.850  0.7231  0.0920  0.5674
 9909SOL    HW141786   1.708   6.146   5.902 -0.6649 -0.9379  1.2054
 9909SOL    HW241787   1.673   6.207   5.754 -0.0738 -3.2267  0.0868
 9910SOL     OW41788   8.791   9.002   2.931  0.0481  0.0537  0.2205
 9910SOL    HW141789   8.785   8.905   2.910  1.4845  0.3394 -1.6116
 9910SOL    HW241790   8.880   9.022   2.973 -0.4685  0.4881  1.1294
 9911SOL     OW41791   4.599   0.740   1.505  0.0876 -0.2243 -0.5133
 9911SOL    HW141792   4.637   0.686   1.430  1.3675  0.3705 -0.2978
 9911SOL    HW241793   4.605   0.837   1.484  1.2136 -0.0075  0.6833
 9912SOL     OW41794   6.731   9.668   6.743 -0.2462 -0.1975 -0.0374
 9912SOL    HW141795   6.818   9.626   6.714 -0.5098  0.4263 -1.7684
 9912SOL    HW241796   6.727   9.762   6.711 -1.5521 -0.1996  0.0950
 9913SOL     OW41797   3.950   8.115   0.334  0.0915 -0.5723 -0.5817
 9913SOL    HW141798   4.034   8.075   0.371  0.9653  0.6545 -1.1978
 9913SOL    HW241799   3.970   8.159   0.246 -0.8760  1.0655 -0.0153
 9914SOL     OW41800   3.077   7.831   3.256 -0.1826 -0.4291 -0.0051
 9914SOL    HW141801   3.133   7.879   3.187  0.5228  1.3819  1.7665
 9914SOL    HW241802   3.123   7.747   3.284 -0.0459 -0.7244 -1.1068
 9915SOL     OW41803   2.545   9.694   0.351  0.0822  0.0009 -0.4448
 9915SOL    HW141804   2.584   9.720   0.439  1.9025  1.7067 -1.7089
 9915SOL    HW241805   2.447   9.715   0.350 -0.2274 -1.1680  1.5680
 9916SOL     OW41806   4.019   8.326   1.508 -0.2147 -0.2298 -0.3623
 9916SOL    HW141807   4.054   8.244   1.464 -1.9727 -0.1345 -1.9573
 9916SOL    HW241808   3.999   8.307   1.604 -1.4830 -1.9018 -0.9586
 9917SOL     OW41809   4.207   2.722   7.311  0.3426 -0.0648  0.2309
 9917SOL    HW141810   4.137   2.768   7.365  1.6900 -0.4294  2.3137
 9917SOL    HW241811   4.230   2.779   7.232  1.0461  2.2303  2.0363
 9918SOL     OW41812   6.060   0.584   4.957  0.0380 -0.2668  0.2332
 9918SOL    HW141813   6.020   0.662   5.006  0.3888 -1.3099  2.2470
 9918SOL    HW241814   6.068   0.606   4.860  0.6227  2.4094  0.8389
 9919SOL     OW41815   0.601   8.016   6.003  0.5158  0.5611 -0.3925
 9919SOL    HW141816   0.595   8.115   6.020 -1.1945  0.1136  1.7962
 9919SOL    HW241817   0.690   7.982   6.032 -0.0310  0.9466  1.8455
 9920SOL     OW41818   0.006   7.954   1.325 -0.3507  0.5974  0.1096
 9920SOL    HW141819  -0.009   7.863   1.366 -1.8020  0.2539 -1.1170
 9920SOL    HW241820  -0.069   8.014   1.352 -0.7809  0.6566 -1.2246
 9921SOL     OW41821   8.781   0.431   1.611 -0.6808 -0.1398 -0.6689
 9921SOL    HW141822   8.874   0.400   1.591 -0.3510  0.1316  0.4259
 9921SOL    HW241823   8.720   0.403   1.536  0.0330 -1.4595 -0.7756
 9922SOL     OW41824   0.368   7.269   7.257 -0.3224 -0.0400  0.2490
 9922SOL    HW141825   0.430   7.347   7.259 -1.0227  0.5088  0.9884
 9922SOL    HW241826   0.362   7.232   7.164 -2.0620  2.4667 -0.6875
 9923SOL     OW41827   0.446   1.814   0.018 -0.3100  0.2543 -0.0078
 9923SOL    HW141828   0.381   1.818  -0.058  1.0654  0.8669 -1.1724
 9923SOL    HW241829   0.487   1.723   0.022 -0.3141  0.2498 -0.0603
 9924SOL     OW41830   5.320   0.777   2.318 -0.5184 -0.0478 -0.4087
 9924SOL    HW141831   5.287   0.731   2.401 -1.3668  0.4839 -0.4519
 9924SOL    HW241832   5.399   0.834   2.341 -0.5953 -0.0975 -0.0112
 9925SOL     OW41833   8.640   8.049   7.127  0.1105 -0.1344  0.6655
 9925SOL    HW141834   8.635   7.967   7.070 -1.6882  0.5206 -0.1534
 9925SOL    HW241835   8.643   8.130   7.068  0.8640  0.4449  1.4807
 9926SOL     OW41836   4.710   3.575   2.064 -0.9513 -0.2659  0.3165
 9926SOL    HW141837   4.625   3.619   2.037 -1.1172 -0.6674  0.1820
 9926SOL    HW241838   4.709   3.479   2.036  0.0940  0.0535 -0.9218
 9927SOL     OW41839   7.921   9.943   1.885  0.5896  0.5258 -0.1278
 9927SOL    HW141840   7.939   9.894   1.800 -0.4135  2.5288 -1.5539
 9927SOL    HW241841   7.944  10.040   1.873  0.3741  0.8530  1.8731
 9928SOL     OW41842   8.903   4.857   0.611  1.0274  0.0180 -0.6315
 9928SOL    HW141843   8.824   4.898   0.566 -0.6281  0.0865  2.2402
 9928SOL    HW241844   8.940   4.920   0.678  0.7772 -1.6610  1.1460
 9929SOL     OW41845   7.491   0.222   8.081  0.4796  0.1908 -0.0734
 9929SOL    HW141846   7.478   0.308   8.032  0.2512  0.4415  0.4293
 9929SOL    HW241847   7.458   0.146   8.024  0.0705  0.4962 -0.2474
 9930SOL     OW41848   0.280   9.322   5.292  0.2170  0.1504 -0.2745
 9930SOL    HW141849   0.328   9.259   5.230  2.1206  0.8098  0.4756
 9930SOL    HW241850   0.321   9.413   5.285 -1.8113  1.0510 -0.5548
 9931SOL     OW41851   5.517   0.161   8.120 -0.0541 -0.4578 -0.0020
 9931SOL    HW141852   5.418   0.169   8.131  0.0348  2.4810 -1.0973
 9931SOL    HW241853   5.540   0.066   8.099 -2.5127 -1.3840  1.2454
 9932SOL     OW41854   5.176   3.134   1.433 -0.0706 -0.8004 -0.2058
 9932SOL    HW141855   5.109   3.137   1.507  0.5999 -2.6788  0.5044
 9932SOL    HW241856   5.132   3.098   1.350 -0.9232  1.6818 -0.8651
 9933SOL     OW41857   2.969   9.540   4.940  0.1026  0.3134 -0.2383
 9933SOL    HW141858   2.970   9.568   4.845  2.6796 -0.3123 -0.4391
 9933SOL    HW241859   3.029   9.599   4.993 -1.4089  0.7382  1.0566
 9934SOL     OW41860   0.221   8.698   2.572 -0.1642  0.2976  0.3691
 9934SOL    HW141861   0.169   8.732   2.494 -1.3196  0.3666  1.1480
 9934SOL    HW241862   0.299   8.758   2.589  0.7174 -0.3289 -1.3914
 9935SOL     OW41863   4.441   0.909   7.595  0.4274 -0.5243  0.7860
 9935SOL    HW141864   4.449   0.819   7.553  1.7562  0.1872 -0.4991
 9935SOL    HW241865   4.485   0.908   7.685 -0.3359 -1.3816  1.1627
 9936SOL     OW41866   1.120   9.747   5.899  0.3922  0.6223 -0.5439
 9936SOL    HW141867   1.176   9.729   5.818  2.2680 -0.4875  0.9544
 9936SOL    HW241868   1.178   9.784   5.971 -1.1171  0.8678  0.5731
 9937SOL     OW41869   9.449   2.325   7.047 -0.4621 -0.0094  0.4700
 9937SOL    HW141870   9.468   2.338   6.949 -1.4322 -2.1356 -0.0180
 9937SOL    HW241871   9.398   2.403   7.081  1.7324  1.7898 -0.1878
 9938SOL     OW41872   5.027   8.397   3.449 -0.0913  0.0337 -0.5021
 9938SOL    HW141873   5.045   8.452   3.368 -0.7013  1.4787  0.3238
 9938SOL    HW241874   4.962   8.325   3.427 -1.1950  1.1691 -1.0248
 9939SOL     OW41875   9.563   7.308   5.708 -0.0200 -0.1171 -0.3381
 9939SOL    HW141876   9.540   7.246   5.783  2.0492 -0.5092  0.0093
 9939SOL    HW241877   9.610   7.388   5.745  1.9437 -0.8047 -1.3138
 9940SOL     OW41878   4.639   4.693   2.143 -0.6062  0.3380  0.1656
 9940SOL    HW141879   4.727   4.690   2.191 -0.0031 -0.9997 -1.0024
 9940SOL    HW241880   4.566   4.663   2.205  0.2189 -1.7522  0.1738
 9941SOL     OW41881   3.095   7.637   1.005 -0.1961 -0.0068  0.1934
 9941SOL    HW141882   3.007   7.685   1.007 -0.3275 -0.1885 -0.7217
 9941SOL    HW241883   3.103   7.588   0.918  0.7680 -0.0648  0.3135
 9942SOL     OW41884   8.343   2.281   1.257  0.2819  0.4907 -0.2096
 9942SOL    HW141885   8.387   2.213   1.315  0.1818  0.1343 -0.5496
 9942SOL    HW241886   8.266   2.322   1.306  0.5788  0.6361  0.1374
 9943SOL     OW41887   6.761   8.356   5.059 -0.7954 -0.2443 -0.3435
 9943SOL    HW141888   6.702   8.327   4.983 -3.3758 -1.8021  2.1596
 9943SOL    HW241889   6.717   8.430   5.109  0.4210  0.0715  0.2706
 9944SOL     OW41890   0.146   0.568   7.948 -0.0008  0.0319 -0.3295
 9944SOL    HW141891   0.196   0.482   7.934  0.9706  0.5773 -0.2410
 9944SOL    HW241892   0.128   0.610   7.860 -0.1424 -0.0749 -0.3510
 9945SOL     OW41893   9.624   4.176   3.980  0.3551 -0.0228  0.3554
 9945SOL    HW141894   9.680   4.183   4.063  0.7203 -1.7623  0.2695
 9945SOL    HW241895   9.567   4.094   3.985 -0.3915  0.4214 -0.6618
 9946SOL     OW41896   1.883   4.723   8.389 -0.0824 -0.1199 -0.8453
 9946SOL    HW141897   1.817   4.677   8.449 -0.1737 -1.5883 -2.0476
 9946SOL    HW241898   1.972   4.727   8.434 -0.6372  0.6155  0.2109
 9947SOL     OW41899   5.755   8.714   3.968  0.0534  0.4249  0.1378
 9947SOL    HW141900   5.706   8.773   4.032 -0.2186 -0.3036  0.6006
 9947SOL    HW241901   5.797   8.770   3.897 -0.3322  1.1646  0.4898
 9948SOL     OW41902   6.105   4.385   9.435  0.7048  0.3946 -0.1582
 9948SOL    HW141903   6.034   4.447   9.401  1.1050  0.0483 -1.6775
 9948SOL    HW241904   6.076   4.345   9.522  0.5781  2.9491  1.0130
 9949SOL     OW41905   0.935   7.537   5.831  0.0298 -0.4972 -0.1024
 9949SOL    HW141906   0.984   7.491   5.757  0.0701  1.8216 -1.5844
 9949SOL    HW241907   0.837   7.524   5.819  0.1092 -1.5874  0.4340
 9950SOL     OW41908   4.564   1.136   8.829  0.2473 -0.4142  0.4272
 9950SOL    HW141909   4.540   1.230   8.805  2.0206  0.2538  1.1396
 9950SOL    HW241910   4.544   1.121   8.926  0.0940 -0.7316  0.3466
 9951SOL     OW41911   2.910   9.502   6.488 -0.0087  0.2355  0.2645
 9951SOL    HW141912   2.856   9.448   6.423 -0.4650  0.6796  0.2694
 9951SOL    HW241913   2.965   9.569   6.438 -0.8099  0.9776  0.3690
 9952SOL     OW41914   0.003   4.316   1.008 -0.5126 -0.2478 -0.2363
 9952SOL    HW141915   0.101   4.330   0.994 -0.4225 -0.6919 -0.0680
 9952SOL    HW241916  -0.035   4.265   0.931 -0.2883 -1.4908  0.4660
 9953SOL     OW41917   4.210   1.930   4.664 -0.4673 -0.5999  0.1731
 9953SOL    HW141918   4.115   1.900   4.666 -0.1547 -1.6236  0.1194
 9953SOL    HW241919   4.270   1.850   4.672  0.3671  0.2538  3.1999
 9954SOL     OW41920   4.159   7.829   5.307  0.6691 -1.0856  0.4144
 9954SOL    HW141921   4.161   7.732   5.285 -1.0241 -0.9981 -0.1493
 9954SOL    HW241922   4.064   7.861   5.312  1.2401  1.1767 -2.1991
 9955SOL     OW41923   2.951   4.380   8.160 -0.0619 -0.5166  0.3003
 9955SOL    HW141924   2.894   4.366   8.241  0.0101 -0.9395  0.2815
 9955SOL    HW241925   3.034   4.325   8.168  0.1384 -0.2395  0.1294
 9956SOL     OW41926   7.129   2.424   9.438  0.7357  0.7081 -0.1944
 9956SOL    HW141927   7.095   2.381   9.355  1.0197  0.2339 -0.0657
 9956SOL    HW241928   7.056   2.426   9.507  1.1469 -0.9383  0.3223
 9957SOL     OW41929   0.564   9.692   5.409  0.3134 -0.2879  0.7194
 9957SOL    HW141930   0.656   9.662   5.434 -0.1086 -0.7270  1.7906
 9957SOL    HW241931   0.567   9.787   5.378  1.2811 -0.6374 -0.2990
 9958SOL     OW41932   9.457   6.398   5.837  0.6187 -0.2545  0.0236
 9958SOL    HW141933   9.483   6.495   5.836  0.7227 -0.2674  0.7695
 9958SOL    HW241934   9.358   6.390   5.825  0.6089 -0.0560 -0.0350
 9959SOL     OW41935   8.352   9.622   9.750 -0.4673 -0.2397 -0.4749
 9959SOL    HW141936   8.261   9.659   9.734 -0.6024 -0.0127  0.7678
 9959SOL    HW241937   8.351   9.523   9.733 -0.8916 -0.1954 -0.7092
 9960SOL     OW41938   7.761   8.939   5.182  0.2697  0.2163 -0.6184
 9960SOL    HW141939   7.784   9.035   5.196  1.4452  0.0215 -1.1109
 9960SOL    HW241940   7.671   8.919   5.221  0.1506  1.4455 -0.2669
 9961SOL     OW41941   0.506   8.519   5.550 -0.4168  0.8816 -0.0517
 9961SOL    HW141942   0.478   8.605   5.592 -1.9375  0.2388  0.2949
 9961SOL    HW241943   0.431   8.452   5.558  1.1034 -0.7754  0.5739
 9962SOL     OW41944   0.514   2.613   0.417  0.0471  0.4503  0.5073
 9962SOL    HW141945   0.427   2.659   0.433 -0.3498  0.0897 -0.6108
 9962SOL    HW241946   0.528   2.599   0.319  1.8000  1.3397  0.5932
 9963SOL     OW41947   6.999   4.244   0.761  0.4754 -0.0672  0.2020
 9963SOL    HW141948   7.049   4.183   0.700  0.8746 -0.2221  0.6805
 9963SOL    HW241949   6.972   4.326   0.712 -0.3711 -0.7816 -0.5498
 9964SOL     OW41950   8.537   1.378   8.387 -0.4262 -0.2645 -0.4665
 9964SOL    HW141951   8.587   1.358   8.304 -0.4079  1.8927 -1.0113
 9964SOL    HW241952   8.581   1.333   8.465  1.9756  1.0372 -1.0267
 9965SOL     OW41953   3.905   4.788   9.208  0.4842  0.0592 -0.3517
 9965SOL    HW141954   3.834   4.719   9.197 -0.1025  0.5733  0.1936
 9965SOL    HW241955   3.954   4.799   9.122 -1.0818  0.7809 -1.1687
 9966SOL     OW41956   2.270   8.323   0.481  0.5273 -0.2740 -0.0302
 9966SOL    HW141957   2.350   8.279   0.441  2.2123  1.6883  1.1100
 9966SOL    HW241958   2.241   8.399   0.422 -0.9376 -1.3751 -0.7776
 9967SOL     OW41959   3.687   9.697   1.352 -0.3555  0.1972 -0.2246
 9967SOL    HW141960   3.718   9.604   1.329  0.4655  0.7207 -1.3274
 9967SOL    HW241961   3.594   9.711   1.318 -0.5562 -0.2863  0.1223
 9968SOL     OW41962   6.653   4.382   1.531 -0.4585  1.0534 -0.3141
 9968SOL    HW141963   6.597   4.435   1.467  0.0860 -0.0214 -1.7146
 9968SOL    HW241964   6.702   4.311   1.480  0.0870  0.2719  1.2964
 9969SOL     OW41965   2.365   9.747   1.964 -0.3704 -0.0062  0.0581
 9969SOL    HW141966   2.346   9.836   2.004 -0.0799 -0.8382  2.1440
 9969SOL    HW241967   2.462   9.724   1.977 -0.8642 -1.4684  1.3645
 9970SOL     OW41968   8.534   1.637   2.893 -0.0924  0.0706  0.8091
 9970SOL    HW141969   8.513   1.557   2.949  1.2450 -0.6122  0.3703
 9970SOL    HW241970   8.499   1.624   2.801  0.9880 -0.4683  0.4595
 9971SOL     OW41971   2.637   6.406   9.025 -0.1194  0.1718  0.2433
 9971SOL    HW141972   2.667   6.481   9.083 -0.7689 -0.8952  2.0251
 9971SOL    HW241973   2.542   6.419   8.999  0.1667  0.6416 -0.5791
 9972SOL     OW41974   2.190   3.835   6.163 -0.4124 -0.0790 -0.2229
 9972SOL    HW141975   2.180   3.771   6.087  1.1198  0.0687 -0.5800
 9972SOL    HW241976   2.108   3.892   6.170  0.1877  1.2770 -3.0576
 9973SOL     OW41977   7.019   3.507   7.965 -0.0033 -0.2491 -0.2885
 9973SOL    HW141978   7.035   3.606   7.957 -2.5572  0.2809  0.5413
 9973SOL    HW241979   6.980   3.487   8.055 -0.9387 -1.7939 -1.0098
 9974SOL     OW41980   8.965   9.809   7.764  0.1362  0.1169 -0.6920
 9974SOL    HW141981   9.003   9.886   7.713  2.2094 -1.1496 -1.0896
 9974SOL    HW241982   9.002   9.808   7.856 -2.1796  1.3030  0.3064
 9975SOL     OW41983   3.332   3.783   5.771 -0.3837 -0.5023  0.2075
 9975SOL    HW141984   3.239   3.756   5.749  0.6011 -0.8256 -3.8366
 9975SOL    HW241985   3.390   3.702   5.777 -0.1367 -0.2294  1.7713
 9976SOL     OW41986   1.984   0.804   4.815  0.3067 -0.1788 -0.0049
 9976SOL    HW141987   1.962   0.900   4.796  1.0433 -0.0588 -0.2469
 9976SOL    HW241988   2.038   0.766   4.740  0.9756 -0.4620  0.6193
 9977SOL     OW41989   2.375   1.450   5.329  0.0771  0.2260  0.0950
 9977SOL    HW141990   2.367   1.447   5.229  0.5032  0.4398  0.0547
 9977SOL    HW241991   2.460   1.496   5.354  1.6168 -2.7051  0.5046
 9978SOL     OW41992   3.598   7.962   6.693 -0.0590  0.3506  0.0074
 9978SOL    HW141993   3.570   8.015   6.773 -0.0984 -1.3418  1.1413
 9978SOL    HW241994   3.553   7.872   6.695  1.3016 -0.3685 -0.9557
 9979SOL     OW41995   7.248   0.855   6.165 -0.1135 -0.1281 -0.5996
 9979SOL    HW141996   7.287   0.916   6.234 -1.7694  2.0570 -1.5167
 9979SOL    HW241997   7.314   0.843   6.091  0.5783 -0.1632  0.0187
 9980SOL     OW41998   2.263   7.262   0.151 -0.1586  0.2909 -0.3643
 9980SOL    HW141999   2.360   7.284   0.160 -0.0209  0.3917 -1.8812
 9980SOL    HW242000   2.220   7.265   0.241  1.4658 -0.8743  0.4801
 9981SOL     OW42001   0.687   9.130   4.270 -0.3101  0.5063 -0.0516
 9981SOL    HW142002   0.776   9.085   4.274 -1.6247 -2.1228  0.8095
 9981SOL    HW242003   0.668   9.175   4.357 -0.6382 -0.5734  0.4408
 9982SOL     OW42004   9.626   6.048   3.029 -0.0172  0.0306  0.0489
 9982SOL    HW142005   9.589   5.969   3.080  1.2201 -0.7286 -0.2196
 9982SOL    HW242006   9.550   6.098   2.987 -0.8016 -1.1392  0.0416
 9983SOL     OW42007   1.283   4.136   3.518 -0.1120  0.0109 -0.0110
 9983SOL    HW142008   1.205   4.073   3.520 -1.1482  1.2842  0.5088
 9983SOL    HW242009   1.322   4.144   3.609  1.1067 -1.1810 -0.4097
 9984SOL     OW42010   2.664   9.787   6.658 -0.1866  0.5788 -0.0961
 9984SOL    HW142011   2.582   9.770   6.713 -1.0297 -2.1889 -2.0921
 9984SOL    HW242012   2.735   9.825   6.716 -1.3164 -1.4633  2.7457
 9985SOL     OW42013   1.570   2.506   2.611  0.2661 -0.3424  0.8564
 9985SOL    HW142014   1.559   2.428   2.549  0.7803 -0.8021  1.3328
 9985SOL    HW242015   1.606   2.473   2.699  0.0424  0.3737  1.2140
 9986SOL     OW42016   0.297   8.988   9.848  0.4873  0.9310  0.0626
 9986SOL    HW142017   0.330   8.924   9.918 -3.2058 -0.1085  0.9748
 9986SOL    HW242018   0.282   8.939   9.762 -2.0912  0.5856  0.6870
 9987SOL     OW42019   7.879   1.435   0.983 -0.1305 -0.3190  0.2008
 9987SOL    HW142020   7.884   1.530   0.954 -1.4322 -0.2178  0.3030
 9987SOL    HW242021   7.870   1.376   0.902 -2.3781 -0.1327  0.2963
 9988SOL     OW42022   2.651   8.985   5.171  0.2182 -0.1119 -0.3385
 9988SOL    HW142023   2.551   8.995   5.174  0.1005 -1.1960 -0.5451
 9988SOL    HW242024   2.692   9.070   5.138 -0.4857  1.1799  1.9263
 9989SOL     OW42025   0.183   9.226   2.014  0.4109  1.0277 -0.6558
 9989SOL    HW142026   0.281   9.226   2.030  0.0585 -1.1065  1.8841
 9989SOL    HW242027   0.153   9.135   1.987 -1.0160  1.4368 -0.5204
 9990SOL     OW42028   9.943   0.992   9.912  0.0098 -0.2735  0.0794
 9990SOL    HW142029   9.921   0.927   9.840  0.1093  1.2470 -1.3547
 9990SOL    HW242030   9.881   1.070   9.908  2.0691  1.3927 -0.4781
 9991SOL     OW42031   1.764   5.929   1.677 -0.6148 -0.0516 -0.2694
 9991SOL    HW142032   1.804   5.851   1.725  0.2937  0.3514 -0.3647
 9991SOL    HW242033   1.790   6.013   1.724  0.2419  0.3431 -1.4309
 9992SOL     OW42034   6.118   9.203   5.880 -0.0867 -0.3904  0.1044
 9992SOL    HW142035   6.030   9.192   5.833 -0.2789 -1.1797  0.6326
 9992SOL    HW242036   6.102   9.228   5.975  0.2797  0.2907 -0.0144
 9993SOL     OW42037   9.596   8.650   0.157 -0.0987  0.1445 -0.3620
 9993SOL    HW142038   9.555   8.577   0.212  0.3363 -0.8872 -1.3894
 9993SOL    HW242039   9.600   8.734   0.211  0.2887 -0.8381  1.1780
 9994SOL     OW42040   2.677   0.433   0.997 -0.0954 -0.0159  0.2458
 9994SOL    HW142041   2.707   0.512   0.943  0.9856 -0.0330  0.8028
 9994SOL    HW242042   2.707   0.444   1.092 -2.6151  0.3665  1.0489
 9995SOL     OW42043   9.955   7.886   1.025  0.1926 -0.2665  0.4966
 9995SOL    HW142044   9.970   7.838   1.112  0.1640  1.1365  1.2869
 9995SOL    HW242045   9.861   7.920   1.022 -0.2942 -1.6953 -0.7842
 9996SOL     OW42046   8.277   7.243   4.807  0.1157  0.2705 -0.7703
 9996SOL    HW142047   8.301   7.201   4.720  1.0045  0.7935 -0.7930
 9996SOL    HW242048   8.196   7.299   4.797 -0.8415 -1.1127 -0.8319
 9997SOL     OW42049   8.224   6.700   3.297  0.0183 -0.0341  0.6061
 9997SOL    HW142050   8.271   6.731   3.215  1.2918 -0.0315  1.3303
 9997SOL    HW242051   8.156   6.630   3.272  0.6289 -0.2814 -0.3956
 9998SOL     OW42052   3.708   5.721   3.956  0.4515 -0.3532  0.0230
 9998SOL    HW142053   3.660   5.687   3.875 -0.6267  0.8859  0.1309
 9998SOL    HW242054   3.647   5.716   4.036  0.8675  0.2090  0.3806
 9999SOL     OW42055   2.876   6.881   4.147 -0.8661 -0.3126 -0.0690
 9999SOL    HW142056   2.782   6.915   4.147  0.0665  2.3958 -0.7904
 9999SOL    HW242057   2.931   6.934   4.211  0.0777 -2.2037  0.7220
10000SOL     OW42058   4.042   4.165   4.370  0.2193  0.5927  0.6231
10000SOL    HW142059   3.998   4.168   4.281 -0.6945 -0.1519  1.0404
10000SOL    HW242060   4.007   4.240   4.427  0.4370  0.7670  0.5306
10001SOL     OW42061   2.309   4.998   3.022  0.0328  0.1762  0.0953
10001SOL    HW142062   2.289   4.900   3.024 -1.4745  0.4851  0.8002
10001SOL    HW242063   2.241   5.045   2.965 -0.1098  0.9999  0.9351
10002SOL     OW42064   6.091   8.901   3.311  0.0427  0.1861  0.2166
10002SOL    HW142065   6.167   8.864   3.365  1.7571  2.7171 -0.3746
10002SOL    HW242066   6.087   8.854   3.223  1.2184  0.3137  0.0807
10003SOL     OW42067   1.000   5.701   8.173 -0.0998  0.7039 -0.2335
10003SOL    HW142068   0.928   5.699   8.242  0.7353  1.3693  0.6760
10003SOL    HW242069   1.015   5.795   8.142  0.2642  0.5531 -0.5234
10004SOL     OW42070   0.941   0.431   6.317  0.6920 -0.1851 -0.3423
10004SOL    HW142071   0.970   0.526   6.326 -2.2568  0.7735 -0.3695
10004SOL    HW242072   0.920   0.412   6.221  1.5015 -0.9434 -0.3729
10005SOL     OW42073   0.861   8.593   4.892  0.1454  0.0775 -0.6561
10005SOL    HW142074   0.878   8.516   4.953 -0.3598 -2.0300 -3.1069
10005SOL    HW242075   0.947   8.644   4.878  0.5304 -0.1457  0.7603
10006SOL     OW42076   4.160   6.996   6.559  0.1425 -0.0061 -0.4319
10006SOL    HW142077   4.259   7.007   6.561  0.4233 -2.0566  3.2183
10006SOL    HW242078   4.137   6.902   6.587 -2.7734 -0.1830 -3.1749
10007SOL     OW42079   4.081   8.232   6.162  0.3289 -0.1916 -0.1079
10007SOL    HW142080   3.982   8.232   6.169  0.3759  0.0477  0.5569
10007SOL    HW242081   4.112   8.143   6.127 -0.0493 -0.6368  0.6832
10008SOL     OW42082   4.635   8.738   5.819  0.3210  0.2799  0.5095
10008SOL    HW142083   4.622   8.661   5.882 -1.6132  1.5683  1.7524
10008SOL    HW242084   4.564   8.735   5.748  1.5506 -0.2816 -0.7184
10009SOL     OW42085   2.465   1.953   1.728 -0.4235 -0.1220  0.3939
10009SOL    HW142086   2.390   1.953   1.794 -0.2584  0.9421  0.5925
10009SOL    HW242087   2.438   1.902   1.647 -0.6239 -1.4624  1.2855
10010SOL     OW42088   9.168   1.308   0.727  0.2550 -0.2745  0.2617
10010SOL    HW142089   9.082   1.330   0.682  0.9270  1.1756 -0.3523
10010SOL    HW242090   9.202   1.387   0.777  2.8451  0.2465 -2.1820
10011SOL     OW42091   9.418   9.393   6.116  0.2920 -1.0802  0.2975
10011SOL    HW142092   9.455   9.468   6.061  1.5622 -1.4054  0.7025
10011SOL    HW242093   9.326   9.418   6.149  0.4501  0.0325 -0.0951
10012SOL     OW42094   4.606   2.858   4.620 -0.1574 -0.2084 -0.0723
10012SOL    HW142095   4.656   2.942   4.598 -0.5006  0.1893  0.6305
10012SOL    HW242096   4.566   2.820   4.537  2.2915 -1.1766 -0.8509
10013SOL     OW42097   3.355   7.597   1.077  0.1720 -0.1591 -0.1132
10013SOL    HW142098   3.270   7.632   1.036  0.3721  1.2148  0.6225
10013SOL    HW242099   3.433   7.639   1.032  0.4341 -0.3438  0.1733
10014SOL     OW42100   3.734   7.475   4.747  0.0764  0.4650 -0.5288
10014SOL    HW142101   3.834   7.474   4.754  0.2104 -1.0557 -2.2115
10014SOL    HW242102   3.705   7.417   4.670 -2.0265  2.0456 -0.9980
10015SOL     OW42103   7.666   5.977   4.057  0.4105 -0.1448 -0.0929
10015SOL    HW142104   7.722   5.935   4.128  0.0638 -0.3432  0.0659
10015SOL    HW242105   7.622   6.059   4.092 -0.4528 -0.7240  0.1927
10016SOL     OW42106   9.811   7.134   7.177 -0.4863  0.1170 -0.4081
10016SOL    HW142107   9.868   7.063   7.135 -0.4673  0.2375 -0.5794
10016SOL    HW242108   9.723   7.094   7.203 -0.0237 -0.2740  0.5970
10017SOL     OW42109   2.839   6.498   0.167  0.1732 -0.9531 -0.1013
10017SOL    HW142110   2.854   6.563   0.093 -2.7512 -1.0132 -0.8351
10017SOL    HW242111   2.910   6.427   0.165  2.6651  1.4635 -0.0659
10018SOL     OW42112   4.445   3.467   7.323 -0.8170 -0.4325  0.2562
10018SOL    HW142113   4.377   3.394   7.309  0.8985 -2.0142 -0.0286
10018SOL    HW242114   4.492   3.452   7.410  0.2607 -0.2537 -0.2863
10019SOL     OW42115   3.241   1.802   9.704  0.8910 -0.1555  0.3323
10019SOL    HW142116   3.177   1.814   9.780  0.6701 -1.6792  0.4105
10019SOL    HW242117   3.328   1.845   9.727 -0.5468  3.2964 -0.4188
10020SOL     OW42118   3.167   3.060   4.875 -0.2849 -0.0621 -0.6703
10020SOL    HW142119   3.151   3.050   4.777 -0.6461  0.8107 -0.7004
10020SOL    HW242120   3.165   2.970   4.919  0.2079 -0.4883 -1.5127
10021SOL     OW42121   8.742   4.632   2.711  0.2307  0.4524  0.1559
10021SOL    HW142122   8.810   4.662   2.777 -1.4262  0.8205  1.7372
10021SOL    HW242123   8.707   4.542   2.737 -0.5205  0.6503 -0.1412
10022SOL     OW42124   9.000   3.772   7.905 -0.0797 -0.0583 -0.1422
10022SOL    HW142125   8.905   3.782   7.936  0.7580  2.7945  1.6859
10022SOL    HW242126   9.050   3.714   7.970 -0.0494  0.1909  0.0575
10023SOL     OW42127   4.649   5.890   3.591  1.0891  0.6090 -0.3962
10023SOL    HW142128   4.663   5.861   3.685 -2.6202  0.9002  0.3508
10023SOL    HW242129   4.612   5.814   3.538  0.5003  1.2202 -0.8725
10024SOL     OW42130   5.672   4.607   2.169  0.6566  0.2907  0.0757
10024SOL    HW142131   5.770   4.626   2.181  0.4396  1.4378  0.0547
10024SOL    HW242132   5.659   4.554   2.086  1.0834  1.6807 -0.8844
10025SOL     OW42133   7.305   8.131   5.313 -0.1337 -0.1901  0.1611
10025SOL    HW142134   7.333   8.082   5.230 -0.3528  0.1801 -0.1336
10025SOL    HW242135   7.321   8.073   5.393 -1.2527 -1.0869 -0.2651
10026SOL     OW42136   4.240   1.534   6.541  0.3720  0.3645 -0.3249
10026SOL    HW142137   4.189   1.619   6.553 -0.0556 -0.2029  2.1558
10026SOL    HW242138   4.332   1.545   6.578  0.2788 -0.3031  0.0968
10027SOL     OW42139   6.661   1.322   3.100 -0.5057  0.1470 -0.3836
10027SOL    HW142140   6.748   1.333   3.052  0.4721  0.3939  1.3964
10027SOL    HW242141   6.669   1.248   3.167 -1.7938 -0.0882 -0.4771
10028SOL     OW42142   9.320   8.111   2.127  0.2980 -0.3779  0.0979
10028SOL    HW142143   9.316   8.198   2.176 -0.9262 -0.0383 -0.5881
10028SOL    HW242144   9.386   8.051   2.172  2.5439  1.5515 -0.4989
10029SOL     OW42145   7.539   6.116   1.609  0.3255 -0.4908  0.4253
10029SOL    HW142146   7.588   6.180   1.549  0.5772 -1.5905 -0.5507
10029SOL    HW242147   7.445   6.147   1.621  0.4572  0.0842 -0.0055
10030SOL     OW42148   5.170   6.056   8.219 -0.3034  0.6263 -0.7253
10030SOL    HW142149   5.260   6.013   8.207 -1.3060 -1.6168 -0.3888
10030SOL    HW242150   5.172   6.113   8.302  0.3214 -0.7257  0.2054
10031SOL     OW42151   0.689   5.309   0.566  0.1983 -0.0037 -0.3143
10031SOL    HW142152   0.663   5.235   0.628 -2.2661  2.0918  1.2608
10031SOL    HW242153   0.607   5.352   0.529  1.5124  3.0401  0.1283
10032SOL     OW42154   7.747   2.961   5.444 -0.0798 -0.0616 -0.2747
10032SOL    HW142155   7.810   3.010   5.504 -0.3459  0.0893 -0.1132
10032SOL    HW242156   7.767   2.864   5.446  0.4351  0.0353 -0.5729
10033SOL     OW42157   4.485   5.327   3.918 -0.3439  0.2973 -0.0936
10033SOL    HW142158   4.534   5.398   3.867 -0.7226 -0.1270 -1.0690
10033SOL    HW242159   4.414   5.369   3.974 -1.0984  0.6164 -1.2843
10034SOL     OW42160   9.859   9.413   3.995 -0.0546  0.1851  0.2949
10034SOL    HW142161   9.878   9.491   4.055 -2.1275  0.2528  0.8993
10034SOL    HW242162   9.762   9.413   3.970  0.4652 -0.7209 -1.8291
10035SOL     OW42163   6.956   9.574   2.496  0.3229  0.3669 -0.3535
10035SOL    HW142164   7.004   9.662   2.484 -0.6718  1.2948  2.1727
10035SOL    HW242165   6.879   9.587   2.559  1.1854 -2.6810  1.4066
10036SOL     OW42166   3.750   6.110   4.083 -0.2623  0.0847  0.2188
10036SOL    HW142167   3.661   6.082   4.046  0.1683 -1.4518  0.3419
10036SOL    HW242168   3.782   6.191   4.033 -1.3611  0.1842 -0.3524
10037SOL     OW42169   0.652   8.892   5.070  0.4747  0.4687 -0.4116
10037SOL    HW142170   0.618   8.860   5.158 -1.4042  2.4565 -0.3611
10037SOL    HW242171   0.742   8.851   5.052 -0.8791 -3.0729  0.5505
10038SOL     OW42172   4.499   6.046   3.852  0.5312 -0.0798 -0.2316
10038SOL    HW142173   4.587   6.091   3.839 -0.1109  1.5774  0.9777
10038SOL    HW242174   4.442   6.060   3.771  0.4309  1.1126  0.0286
10039SOL     OW42175   4.296   9.108   8.212 -0.1837  0.4606 -0.0498
10039SOL    HW142176   4.348   9.026   8.194  1.0939  0.8278  1.7883
10039SOL    HW242177   4.288   9.163   8.129  0.8472 -0.4570 -0.7553
10040SOL     OW42178   3.691   1.599   3.467  0.0972 -0.4169 -0.4577
10040SOL    HW142179   3.772   1.631   3.516 -0.1514  0.1019 -0.3869
10040SOL    HW242180   3.691   1.499   3.464  0.5445 -0.4262 -0.1271
10041SOL     OW42181   5.416   0.466   9.031 -0.2132 -0.1252  0.1128
10041SOL    HW142182   5.443   0.523   9.109  0.7900 -2.1133  1.2544
10041SOL    HW242183   5.384   0.378   9.064  0.0240 -0.9226 -1.7350
10042SOL     OW42184   1.178   5.689   3.689 -0.8373 -0.3149 -0.2383
10042SOL    HW142185   1.232   5.769   3.716 -0.7931 -1.1475  2.2902
10042SOL    HW242186   1.230   5.606   3.710 -3.2677 -1.1584  2.7669
10043SOL     OW42187   4.628   5.433   0.023  0.2328 -0.1380 -0.8416
10043SOL    HW142188   4.706   5.374   0.046  0.1932 -0.1453 -0.7281
10043SOL    HW242189   4.573   5.449   0.105 -0.7238 -1.3682 -1.2174
10044SOL     OW42190   7.909   8.801   7.990 -0.3449  0.2584 -0.2848
10044SOL    HW142191   7.888   8.772   7.896  0.1127 -0.4378 -0.1754
10044SOL    HW242192   7.926   8.899   7.991  0.9618  0.0586 -1.1704
10045SOL     OW42193   4.068   2.977   3.437 -0.2024  0.0409  0.6821
10045SOL    HW142194   4.094   2.890   3.396 -0.6099 -0.7133  1.9784
10045SOL    HW242195   4.045   2.963   3.534  2.6580  2.0922  1.7337
10046SOL     OW42196   8.601   3.876   3.540 -0.3802  0.2422 -0.0263
10046SOL    HW142197   8.526   3.926   3.497  0.0423  0.3059 -0.7005
10046SOL    HW242198   8.625   3.797   3.484  1.0155  1.0393 -0.5663
10047SOL     OW42199   2.470   5.371   0.814  0.0052 -0.3630  0.3656
10047SOL    HW142200   2.412   5.317   0.875 -0.4325  0.3431  0.5790
10047SOL    HW242201   2.458   5.339   0.720 -1.1578  0.1510  0.3339
10048SOL     OW42202  10.001   7.291   7.491  0.1683 -0.0346 -0.0923
10048SOL    HW142203   9.959   7.327   7.408 -0.8832 -2.1051 -0.4745
10048SOL    HW242204   9.947   7.319   7.570  1.5244  2.4828  0.0005
10049SOL     OW42205   8.799   2.577   5.335 -0.3426 -0.0117 -0.6191
10049SOL    HW142206   8.853   2.654   5.368 -1.2395  0.6521 -0.6569
10049SOL    HW242207   8.839   2.543   5.250  1.5110 -1.2224  0.7061
10050SOL     OW42208   0.550   9.636   8.303 -0.0949 -0.0062  0.2089
10050SOL    HW142209   0.461   9.675   8.327 -0.4729 -0.1573 -0.8996
10050SOL    HW242210   0.537   9.562   8.237  0.6720 -1.5355  1.7295
10051SOL     OW42211   4.233   1.923   0.574  0.2165  0.5771 -0.2506
10051SOL    HW142212   4.205   1.834   0.539 -1.4487  0.5301  1.1458
10051SOL    HW242213   4.330   1.920   0.596 -0.0482 -1.2525  0.8166
10052SOL     OW42214   8.122   5.513   5.050 -0.2013 -0.3263  0.3870
10052SOL    HW142215   8.150   5.579   5.118 -0.3897 -0.1773  0.3183
10052SOL    HW242216   8.023   5.516   5.038 -0.2463 -0.8155  0.5866
10053SOL     OW42217   5.755   2.804   2.403 -0.6143  0.6895 -0.5875
10053SOL    HW142218   5.735   2.900   2.419 -3.0485 -0.0012  0.9004
10053SOL    HW242219   5.678   2.748   2.436 -0.5418 -1.6026 -4.0324
10054SOL     OW42220   8.373   0.767   9.689  0.2178  0.3811 -0.1516
10054SOL    HW142221   8.416   0.789   9.777  0.1152  0.2129 -0.0604
10054SOL    HW242222   8.444   0.751   9.621  0.3117  2.1534 -0.5043
10055SOL     OW42223   3.567   2.883   9.030  0.1515 -0.1268 -0.1834
10055SOL    HW142224   3.579   2.786   9.052 -0.1940 -0.2900 -0.6864
10055SOL    HW242225   3.469   2.904   9.029  0.2188  0.1748 -0.2817
10056SOL     OW42226   5.276   4.397   1.716  0.1938  0.5629 -0.0231
10056SOL    HW142227   5.186   4.383   1.675  0.6857 -0.8016 -0.6617
10056SOL    HW242228   5.305   4.491   1.700 -1.5155  1.2881  1.0048
10057SOL     OW42229   0.877   1.608   6.320  0.0333  0.4365 -0.5022
10057SOL    HW142230   0.887   1.620   6.419  1.5773  0.1668 -0.6182
10057SOL    HW242231   0.780   1.607   6.297 -0.4265 -1.8464  1.3185
10058SOL     OW42232   3.464   7.675   7.573 -0.1860  0.4388 -0.2055
10058SOL    HW142233   3.495   7.607   7.507 -0.6448 -0.9798  1.0221
10058SOL    HW242234   3.365   7.687   7.563 -0.2985  0.0121  0.4257
10059SOL     OW42235   3.543   0.143   1.345 -0.1025 -0.1649 -0.2960
10059SOL    HW142236   3.477   0.071   1.367 -2.3825  1.8352 -0.4121
10059SOL    HW242237   3.532   0.219   1.408  1.2186  0.7728 -1.1657
10060SOL     OW42238   5.479   8.568   3.857 -0.1626 -0.7085 -0.2276
10060SOL    HW142239   5.496   8.665   3.841 -0.2392 -0.6761 -0.1119
10060SOL    HW242240   5.519   8.514   3.783 -0.5109 -0.5589 -0.5271
10061SOL     OW42241   8.751   0.400   9.613  0.2602  1.1942 -0.2607
10061SOL    HW142242   8.779   0.452   9.693 -1.5135  0.1133  1.0867
10061SOL    HW242243   8.653   0.383   9.617  0.7725 -2.1633 -0.7310
10062SOL     OW42244   8.180   6.021   2.758 -0.4073 -0.1677  0.0043
10062SOL    HW142245   8.175   6.083   2.680 -0.7484  1.1576  1.0533
10062SOL    HW242246   8.274   6.020   2.793 -0.7048  0.8471  0.8442
10063SOL     OW42247   0.375   8.547   0.092 -0.3018 -0.3022  0.3377
10063SOL    HW142248   0.322   8.622   0.132  0.0527 -1.0293  2.2241
10063SOL    HW242249   0.320   8.464   0.093 -0.4754 -0.2173 -1.2013
10064SOL     OW42250   1.692   4.557   0.561  0.4583 -0.1280  0.1954
10064SOL    HW142251   1.624   4.483   0.565 -0.2565  0.4593 -0.7561
10064SOL    HW242252   1.692   4.597   0.469  1.5601  0.3930  0.4060
10065SOL     OW42253   4.011   4.576   4.764 -0.2991  0.1907 -0.7287
10065SOL    HW142254   4.032   4.487   4.805 -0.6173  0.8651  0.8981
10065SOL    HW242255   4.074   4.592   4.687  1.4892 -0.2817  0.6021
10066SOL     OW42256   4.785   8.595   6.624  0.0764 -0.5449  0.0896
10066SOL    HW142257   4.704   8.614   6.569  0.4485  3.5503  0.7509
10066SOL    HW242258   4.867   8.607   6.568  0.3422  0.2535  0.6367
10067SOL     OW42259   3.045   5.321   2.238 -0.4373  0.6434 -0.3020
10067SOL    HW142260   3.051   5.365   2.149  1.3434  1.2569  0.0990
10067SOL    HW242261   3.133   5.277   2.259 -1.7756 -2.0397 -0.1438
10068SOL     OW42262   1.678   1.180   9.689  0.5871  0.8852  0.0686
10068SOL    HW142263   1.667   1.140   9.597  0.7049  0.4965  0.2197
10068SOL    HW242264   1.747   1.252   9.685  0.1102  1.3255 -0.2823
10069SOL     OW42265   9.930   6.470   9.001 -0.0707 -0.3154  0.2476
10069SOL    HW142266   9.959   6.538   9.068  1.1141  0.3004 -0.8573
10069SOL    HW242267   9.836   6.443   9.019  0.3390 -0.4023  2.3329
10070SOL     OW42268   0.434   6.476   5.920  0.4920 -0.1545  0.0856
10070SOL    HW142269   0.391   6.561   5.951  1.7561  0.1974  0.8723
10070SOL    HW242270   0.469   6.489   5.827 -0.5711 -0.2688 -0.3415
10071SOL     OW42271   3.699   7.486   5.011  0.3533  0.1440  0.5704
10071SOL    HW142272   3.694   7.475   4.912  1.1917 -0.3337  0.5728
10071SOL    HW242273   3.760   7.416   5.049 -0.4942 -0.1144  1.5019
10072SOL     OW42274   4.406   8.650   3.757 -0.0978 -0.1622  0.4993
10072SOL    HW142275   4.368   8.572   3.806 -0.9144  0.6534  1.1864
10072SOL    HW242276   4.472   8.697   3.815 -0.0370  0.0022  0.2967
10073SOL     OW42277   0.515   3.017   2.844  0.2394  0.9738 -0.2012
10073SOL    HW142278   0.518   3.052   2.751  1.8186  2.1392  0.2730
10073SOL    HW242279   0.593   3.051   2.896  1.2977 -2.4512  0.5821
10074SOL     OW42280   0.580   8.390   0.299 -0.3703  0.2713  0.0246
10074SOL    HW142281   0.544   8.410   0.390 -1.0372  1.2287 -0.4309
10074SOL    HW242282   0.518   8.429   0.230 -0.7029 -1.7653 -0.8754
10075SOL     OW42283   7.688   6.081   0.174  0.1964 -0.2755 -0.0055
10075SOL    HW142284   7.633   6.142   0.117  0.4107 -1.1779 -1.2032
10075SOL    HW242285   7.690   6.115   0.268 -2.3533 -0.1760  0.0547
10076SOL     OW42286   6.367   7.923   3.047  0.7217  0.5657 -0.2261
10076SOL    HW142287   6.312   8.006   3.048 -1.1947 -0.6816  0.0452
10076SOL    HW242288   6.448   7.938   2.991  0.1353  2.4538 -0.6003
10077SOL     OW42289   3.494   3.514   5.710 -0.2786 -0.0054  0.1984
10077SOL    HW142290   3.587   3.518   5.747  0.0972 -0.3931 -0.6974
10077SOL    HW242291   3.494   3.460   5.626 -1.6892 -1.9870  1.4006
10078SOL     OW42292   6.865   2.529   3.376  0.3453  0.1089 -1.0689
10078SOL    HW142293   6.902   2.474   3.301  0.5576 -0.0434 -0.8507
10078SOL    HW242294   6.864   2.625   3.349 -0.8238 -0.0860 -1.7825
10079SOL     OW42295   5.990   7.446   5.067  0.2903 -0.1537  0.4235
10079SOL    HW142296   5.972   7.516   4.998 -0.1402  0.8774  1.5618
10079SOL    HW242297   5.907   7.393   5.084  0.0920  0.3187  0.9444
10080SOL     OW42298   7.077   6.082   3.383 -0.4535  0.0619 -0.5426
10080SOL    HW142299   7.152   6.082   3.317  0.7720  1.0844  0.8340
10080SOL    HW242300   7.024   6.166   3.372 -0.2286  0.2481 -0.2016
10081SOL     OW42301   2.744   4.734   6.798 -0.3621 -0.2771  0.2185
10081SOL    HW142302   2.786   4.729   6.889  0.2814  1.6126  0.0567
10081SOL    HW242303   2.679   4.810   6.796  1.3665  1.2018 -1.5600
10082SOL     OW42304   3.980   2.608   4.764 -0.1741 -0.6453  0.1049
10082SOL    HW142305   3.952   2.512   4.772 -0.6144 -0.8374 -3.1277
10082SOL    HW242306   4.033   2.621   4.680  2.6170  1.3652  2.0546
10083SOL     OW42307   3.242   2.829   3.715 -0.6588  0.1389 -0.1224
10083SOL    HW142308   3.233   2.801   3.619 -1.8545 -0.9107  0.2738
10083SOL    HW242309   3.153   2.859   3.749 -0.6673 -1.3451  1.2121
10084SOL     OW42310   0.748   0.669   6.791 -0.5756  0.0642  0.3534
10084SOL    HW142311   0.785   0.741   6.732 -1.9964 -0.2693 -0.9833
10084SOL    HW242312   0.719   0.709   6.878 -1.9653  1.2585 -0.6297
10085SOL     OW42313   9.866   0.016   3.487 -0.1542  0.0510 -0.3869
10085SOL    HW142314   9.786   0.071   3.510  0.2920  0.5074  0.0545
10085SOL    HW242315   9.884   0.024   3.389  0.1338  0.9834 -0.2601
10086SOL     OW42316   6.327   2.451   8.952 -0.4105  0.2530  0.0013
10086SOL    HW142317   6.342   2.395   9.034 -0.5518 -2.5619 -1.8248
10086SOL    HW242318   6.229   2.465   8.939 -0.3727  1.0202  0.4931
10087SOL     OW42319   1.043   8.657   7.899  0.0125 -0.1062 -0.0474
10087SOL    HW142320   1.029   8.755   7.911 -1.0417  0.4804 -4.8747
10087SOL    HW242321   1.117   8.642   7.833 -1.4195 -2.4512 -1.2038
10088SOL     OW42322   2.474   2.557   1.236  0.0841  0.6929  0.3449
10088SOL    HW142323   2.380   2.559   1.270  0.2729 -1.6818  1.1124
10088SOL    HW242324   2.478   2.602   1.146 -2.4002 -1.7890 -1.0887
10089SOL     OW42325   3.187   1.811  10.013  0.0781  0.0659 -0.1674
10089SOL    HW142326   3.198   1.713   9.994  0.7936  0.3804 -1.4808
10089SOL    HW242327   3.275   1.850  10.039  0.2424  0.7695 -1.7104
10090SOL     OW42328   3.968   2.037   2.462 -0.5971 -0.0732 -1.0529
10090SOL    HW142329   4.019   2.088   2.393 -0.2273 -0.8289 -1.3428
10090SOL    HW242330   3.893   1.988   2.418 -0.1854 -0.7897 -0.9648
10091SOL     OW42331   6.078   7.852   5.795 -0.2931  0.1799  0.1592
10091SOL    HW142332   6.095   7.826   5.890  1.8254 -1.1665 -0.5508
10091SOL    HW242333   6.081   7.771   5.737  1.2594  1.3102 -1.4206
10092SOL     OW42334   8.982   4.992   6.445 -0.5152  0.1270 -0.0054
10092SOL    HW142335   8.892   5.026   6.471 -0.7332  0.5467 -1.2655
10092SOL    HW242336   9.006   4.915   6.503 -1.7223 -0.0327  0.3022
10093SOL     OW42337   9.449   2.505   4.950 -0.3850  0.4458  0.2158
10093SOL    HW142338   9.482   2.479   5.041  0.6358  2.0341  0.3148
10093SOL    HW242339   9.491   2.445   4.881 -1.3198 -0.8931  0.7891
10094SOL     OW42340   2.740   0.173   7.320  0.0270 -0.2723 -0.1113
10094SOL    HW142341   2.645   0.196   7.300  0.3052  0.3019 -0.7859
10094SOL    HW242342   2.769   0.099   7.259  0.1138 -0.2313 -0.1187
10095SOL     OW42343   3.269   2.571   7.773 -0.0802  0.0684 -0.2895
10095SOL    HW142344   3.262   2.595   7.870 -0.1626  1.8861 -0.7273
10095SOL    HW242345   3.260   2.472   7.762 -2.4504  0.0713  1.3389
10096SOL     OW42346   9.906   1.418   7.269 -0.2867 -0.2854 -0.2033
10096SOL    HW142347   9.900   1.457   7.178  0.8381 -0.3264 -0.3065
10096SOL    HW242348   9.995   1.440   7.309 -0.5803 -0.6795  0.6920
10097SOL     OW42349   2.098   3.321   4.197  1.0697  0.3496 -0.1840
10097SOL    HW142350   2.048   3.242   4.231 -0.0860  1.3881  0.5745
10097SOL    HW242351   2.174   3.290   4.140 -0.6300 -1.2592 -1.6495
10098SOL     OW42352   3.450   2.403   6.114 -0.4673 -0.1243 -0.1719
10098SOL    HW142353   3.438   2.429   6.210 -0.6586 -1.8576  0.2873
10098SOL    HW242354   3.543   2.368   6.101  0.0267  1.4350 -0.9420
10099SOL     OW42355   0.731   7.471   7.004 -0.1270  0.3291  0.1672
10099SOL    HW142356   0.639   7.509   6.991  0.0606  0.2604 -1.3997
10099SOL    HW242357   0.737   7.382   6.959 -0.8317 -2.0485  4.5469
10100SOL     OW42358   8.095   8.485   8.874 -0.6241  0.0733 -0.7353
10100SOL    HW142359   8.172   8.542   8.902  0.2209 -1.6613  0.5752
10100SOL    HW242360   8.074   8.502   8.778  0.0580  2.0597 -0.5440
10101SOL     OW42361   4.889   0.601   8.405  0.6301  0.1939 -0.1400
10101SOL    HW142362   4.932   0.608   8.495 -0.2163 -1.7702  0.4394
10101SOL    HW242363   4.916   0.515   8.362  0.2392  0.6665 -1.3530
10102SOL     OW42364   8.891   3.815   4.742 -0.3239  0.3635 -0.0063
10102SOL    HW142365   8.938   3.844   4.660  0.0929 -0.4966 -0.0762
10102SOL    HW242366   8.924   3.868   4.821  2.7680 -2.0693  0.4283
10103SOL     OW42367   3.499   3.937   5.622 -0.1212  0.1463 -0.6376
10103SOL    HW142368   3.591   3.907   5.646 -0.2220  0.2478 -0.1064
10103SOL    HW242369   3.433   3.895   5.684 -0.1561  2.3047  0.8441
10104SOL     OW42370   1.476   1.505   0.224 -0.8177  0.0826  0.5921
10104SOL    HW142371   1.484   1.421   0.278 -0.4151 -0.0830  0.2767
10104SOL    HW242372   1.496   1.486   0.128  0.8619  0.8408  0.7694
10105SOL     OW42373   8.106   3.076   8.499 -0.1069 -0.4915  0.0176
10105SOL    HW142374   8.110   3.090   8.598 -1.2371 -2.7700  0.4191
10105SOL    HW242375   8.024   3.120   8.462  0.6137  0.8509 -0.0155
10106SOL     OW42376   8.607   6.545   5.324  0.2618 -0.2020 -0.0620
10106SOL    HW142377   8.507   6.543   5.330  0.2949  0.3237  0.7302
10106SOL    HW242378   8.645   6.561   5.415  1.0208  0.9396 -0.5721
10107SOL     OW42379   8.716   5.741   1.103 -0.4731  0.3947 -0.4643
10107SOL    HW142380   8.796   5.796   1.127  0.8721 -0.1776 -3.3977
10107SOL    HW242381   8.726   5.649   1.141 -0.1831  0.6204  0.0008
10108SOL     OW42382   4.086   5.460   3.217  0.0502  0.0210 -0.3470
10108SOL    HW142383   4.180   5.447   3.248 -0.2346  0.5000  0.7503
10108SOL    HW242384   4.031   5.380   3.242  0.2225 -0.3851 -1.2425
10109SOL     OW42385   3.541   6.155   9.268 -0.7871  0.0596 -0.2978
10109SOL    HW142386   3.454   6.149   9.220 -0.2519 -1.8594 -1.0776
10109SOL    HW242387   3.562   6.251   9.289 -0.9621  0.9753 -4.0294
10110SOL     OW42388   6.367   5.784   2.088  0.0456  0.0807  0.1365
10110SOL    HW142389   6.284   5.787   2.144 -0.1245  0.4335 -0.1349
10110SOL    HW242390   6.355   5.717   2.014  0.2008 -0.2488  0.4043
10111SOL     OW42391   4.355   2.697   6.149 -0.2328  0.0238 -0.6062
10111SOL    HW142392   4.296   2.766   6.107 -0.9040 -1.2701 -1.8471
10111SOL    HW242393   4.433   2.679   6.089 -1.1239 -1.7400 -1.2754
10112SOL     OW42394   1.566   4.517   1.486  0.2985  0.3094  0.3698
10112SOL    HW142395   1.620   4.545   1.407 -0.8406  1.4231 -0.0289
10112SOL    HW242396   1.611   4.549   1.570  1.1475 -0.2832  0.1524
10113SOL     OW42397   9.083   2.417   9.560  0.3471  0.5993 -0.3437
10113SOL    HW142398   9.147   2.445   9.633  0.7348 -1.0407 -0.0459
10113SOL    HW242399   9.114   2.455   9.473  1.5510  0.0810 -0.1478
10114SOL     OW42400   7.319   4.874   2.478 -0.3935  0.3495 -0.1533
10114SOL    HW142401   7.388   4.944   2.460  0.4112 -0.9261 -2.1458
10114SOL    HW242402   7.282   4.840   2.392 -3.1467  0.6167  0.8786
10115SOL     OW42403   2.494   0.767   9.383  0.3552 -0.6006 -0.3954
10115SOL    HW142404   2.561   0.840   9.394 -0.6066  0.2346  0.1065
10115SOL    HW242405   2.494   0.710   9.465  1.0479 -1.1100 -0.7511
10116SOL     OW42406   3.222   6.221   7.511 -0.0170 -0.5448  0.4320
10116SOL    HW142407   3.165   6.294   7.550  0.6935  0.7527 -0.9408
10116SOL    HW242408   3.171   6.174   7.439  0.2606 -0.1055 -0.0467
10117SOL     OW42409   4.459   6.008   1.487  0.5142 -0.3788  0.3373
10117SOL    HW142410   4.360   5.992   1.482  0.5641 -0.0509 -2.3696
10117SOL    HW242411   4.503   5.929   1.532 -0.6532 -1.9394 -1.1948
10118SOL     OW42412   1.851   1.622   4.541 -0.6540  0.8753 -0.3192
10118SOL    HW142413   1.930   1.561   4.546 -1.3846 -0.1209 -0.6730
10118SOL    HW242414   1.811   1.631   4.632 -0.9409  0.2804 -0.3808
10119SOL     OW42415   0.009   8.179   2.461  0.4563 -0.1408 -0.7909
10119SOL    HW142416  -0.027   8.086   2.456 -0.2244  0.1013 -0.4027
10119SOL    HW242417  -0.063   8.244   2.437  0.5972  0.3470  0.0833
10120SOL     OW42418   9.454   4.570   1.947  0.5544  0.1481  0.1850
10120SOL    HW142419   9.543   4.586   1.904  0.7272 -0.2969  0.3716
10120SOL    HW242420   9.394   4.523   1.882 -0.0122  1.6925 -0.4234
10121SOL     OW42421   2.567   5.667   2.444  0.5044 -0.1593 -0.8297
10121SOL    HW142422   2.505   5.664   2.365  1.2107  0.1529 -1.4100
10121SOL    HW242423   2.618   5.581   2.450  1.3440  0.2735 -1.4689
10122SOL     OW42424   6.238   1.402   1.231  0.4307 -0.0262  0.0984
10122SOL    HW142425   6.291   1.323   1.200  2.3693  1.5005 -0.5391
10122SOL    HW242426   6.266   1.425   1.325  1.2675  1.0881 -0.4203
10123SOL     OW42427   5.806   5.495   8.911 -0.5094 -0.2471  0.0453
10123SOL    HW142428   5.822   5.478   8.814 -1.0874  1.5024 -0.3880
10123SOL    HW242429   5.709   5.519   8.924 -0.1810  0.6725  0.8576
10124SOL     OW42430   3.344   0.885   9.319 -0.6047  0.5602 -0.1931
10124SOL    HW142431   3.408   0.877   9.243 -0.4220 -0.1563  0.0296
10124SOL    HW242432   3.303   0.795   9.337 -0.0676  0.5518  1.0521
10125SOL     OW42433   2.401   1.037   8.718 -0.0062  0.2714 -0.0271
10125SOL    HW142434   2.477   1.012   8.777 -0.0333  0.0247 -0.0920
10125SOL    HW242435   2.383   0.962   8.654 -0.2776  0.3445 -0.0364
10126SOL     OW42436   0.255   2.005   4.544  0.1560 -0.0671 -0.3030
10126SOL    HW142437   0.206   1.993   4.631 -0.7275  0.4351 -0.7279
10126SOL    HW242438   0.348   1.969   4.553 -0.4722 -1.5944  0.3391
10127SOL     OW42439   0.778   0.185   9.795  0.1271  0.4104  0.4355
10127SOL    HW142440   0.853   0.190   9.728  0.1306  0.1403  0.4180
10127SOL    HW242441   0.692   0.205   9.749  0.0135 -0.7343  0.1379
10128SOL     OW42442   7.133   2.274   3.994 -0.5730  0.1287  0.5836
10128SOL    HW142443   7.064   2.214   4.037  1.7746 -3.2965 -0.2122
10128SOL    HW242444   7.134   2.258   3.896  1.2745  0.2193  0.5780
10129SOL     OW42445   3.080   3.563   6.438  0.7501  0.9026 -0.3482
10129SOL    HW142446   3.070   3.465   6.422 -4.0417  0.6325  3.3320
10129SOL    HW242447   3.058   3.613   6.354 -3.5350 -1.0397 -0.5206
10130SOL     OW42448   2.694   5.912   9.394 -0.0536  0.5398  0.1399
10130SOL    HW142449   2.733   5.873   9.477 -0.7702  0.0243  0.2418
10130SOL    HW242450   2.596   5.893   9.391  0.2293 -0.8988 -1.6034
10131SOL     OW42451   1.734   1.658   9.335  0.2181  0.2077  0.7923
10131SOL    HW142452   1.757   1.581   9.395  1.9711 -1.0027 -1.3288
10131SOL    HW242453   1.814   1.717   9.323 -0.1720  0.5711 -0.1195
10132SOL     OW42454   8.559   8.815   9.631  0.2154  0.1097  0.1593
10132SOL    HW142455   8.631   8.872   9.590 -2.2018  1.2284 -2.7608
10132SOL    HW242456   8.574   8.720   9.607 -0.0748  0.5265 -1.7616
10133SOL     OW42457   7.628   0.309   6.517 -0.3706 -0.4664 -0.0414
10133SOL    HW142458   7.593   0.216   6.501 -0.3883 -0.4147 -0.3015
10133SOL    HW242459   7.580   0.349   6.595 -1.1954 -0.2494 -0.6400
10134SOL     OW42460   3.680   6.057   0.923  1.0139 -0.0747 -0.6469
10134SOL    HW142461   3.722   6.058   0.832  2.9242  1.6851  0.2289
10134SOL    HW242462   3.744   6.093   0.990 -1.3852  1.3172  0.9731
10135SOL     OW42463   0.118   6.486   5.025  0.2864  0.1039 -0.5704
10135SOL    HW142464   0.038   6.450   4.977  1.0553 -3.3659  0.5524
10135SOL    HW242465   0.201   6.463   4.973  0.7403  1.2158 -0.3436
10136SOL     OW42466   3.703   5.777   1.014 -0.2380 -0.2892 -0.1643
10136SOL    HW142467   3.752   5.803   1.097 -1.7670  0.0067  0.6751
10136SOL    HW242468   3.678   5.859   0.963 -0.2968 -0.4056 -0.3217
10137SOL     OW42469   9.819   9.477   4.744 -0.1633 -0.3946  1.0732
10137SOL    HW142470   9.906   9.436   4.770  0.3801 -0.1239 -0.2814
10137SOL    HW242471   9.745   9.437   4.799  0.8969 -0.0579  2.7901
10138SOL     OW42472   7.733   9.408   7.907  0.0782  0.1620  0.0201
10138SOL    HW142473   7.642   9.418   7.947  0.2526 -0.7749  0.6661
10138SOL    HW242474   7.785   9.493   7.921 -0.5279  0.5227  0.0831
10139SOL     OW42475   6.618   8.904   2.654 -0.2051  0.4803 -0.1232
10139SOL    HW142476   6.582   8.961   2.728  2.1755  2.5017 -0.4448
10139SOL    HW242477   6.630   8.810   2.687  0.9736  1.3827  2.1287
10140SOL     OW42478   1.273   8.325   7.230  0.3856 -0.0019  0.0336
10140SOL    HW142479   1.232   8.242   7.192 -0.7095  0.5501  0.0228
10140SOL    HW242480   1.222   8.353   7.311 -0.2253  1.6041 -0.9079
10141SOL     OW42481   6.205   1.696   1.647  0.3705  0.9511 -0.1287
10141SOL    HW142482   6.154   1.752   1.582 -0.3328  0.4865  0.0256
10141SOL    HW242483   6.196   1.734   1.739  0.7332  1.1668 -0.1808
10142SOL     OW42484   0.904   1.559   5.977  0.5159  0.0428 -0.2457
10142SOL    HW142485   0.884   1.647   6.020  0.6349  1.0538 -2.1815
10142SOL    HW242486   0.950   1.576   5.889  0.6519 -1.9661 -0.5665
10143SOL     OW42487   0.044   1.869   6.261  0.4015  0.3601 -0.0322
10143SOL    HW142488  -0.037   1.890   6.315 -0.0013  1.1000 -0.9158
10143SOL    HW242489   0.027   1.786   6.207  0.9703 -0.6486  1.3019
10144SOL     OW42490   6.323   3.259   2.446 -0.4007 -0.3044 -0.2026
10144SOL    HW142491   6.350   3.334   2.507 -0.1909 -0.0325 -0.6242
10144SOL    HW242492   6.302   3.178   2.500  1.8228 -0.6943  0.0959
10145SOL     OW42493   3.055   8.226   8.406  0.9897 -0.5976  0.1380
10145SOL    HW142494   3.044   8.127   8.417 -2.4489 -0.3502 -0.3880
10145SOL    HW242495   3.055   8.249   8.309 -1.2650  0.1357  0.2759
10146SOL     OW42496   3.553   1.938   3.213  0.4489  0.3133 -0.1393
10146SOL    HW142497   3.582   1.986   3.295 -1.0818  0.7560  0.1547
10146SOL    HW242498   3.601   1.850   3.207  1.9264  1.0769  0.2536
10147SOL     OW42499   4.959   1.771  10.029 -0.0524  0.0648  0.3873
10147SOL    HW142500   5.022   1.718   9.972 -0.7034 -1.0214  0.6439
10147SOL    HW242501   4.941   1.721  10.114 -1.6512  0.0919  0.0886
10148SOL     OW42502   1.291   6.384   2.533  0.1133 -0.6175  0.3899
10148SOL    HW142503   1.198   6.363   2.560  0.7957 -0.4607  3.0301
10148SOL    HW242504   1.307   6.483   2.543  0.2030 -0.4478 -1.2737
10149SOL     OW42505   8.995   9.709   8.498  0.1556 -0.4512  0.3196
10149SOL    HW142506   8.915   9.767   8.514  0.1128 -0.4541  0.1172
10149SOL    HW242507   8.969   9.634   8.437  0.3291 -0.4114  0.1958
10150SOL     OW42508   8.734   2.831   7.882  0.6073 -0.1389 -0.1506
10150SOL    HW142509   8.635   2.844   7.884  0.7707  1.1145  2.2274
10150SOL    HW242510   8.764   2.808   7.789 -2.0529 -1.8912 -0.6122
10151SOL     OW42511   2.354   9.517   7.932 -0.0948 -0.4033  0.0141
10151SOL    HW142512   2.394   9.472   7.852 -1.2116 -0.0991 -0.7199
10151SOL    HW242513   2.325   9.448   7.998  0.7219 -0.6592  0.1040
10152SOL     OW42514   9.691   1.454   6.503  0.5050 -0.6194 -0.4407
10152SOL    HW142515   9.701   1.405   6.416  2.1875 -0.1423 -0.5317
10152SOL    HW242516   9.598   1.442   6.537 -0.0479 -1.2010 -2.0783
10153SOL     OW42517   0.022   7.219   0.522 -0.4617 -0.2652  0.0003
10153SOL    HW142518   0.023   7.246   0.619 -1.0936 -0.3654  0.0396
10153SOL    HW242519   0.089   7.274   0.472 -0.1357 -0.2051  0.4927
10154SOL     OW42520   8.797   3.970   1.668 -0.4722  0.2352  0.4075
10154SOL    HW142521   8.804   3.880   1.712 -1.5374  0.1808  0.4795
10154SOL    HW242522   8.857   3.972   1.588 -0.0052 -0.3399  0.7332
10155SOL     OW42523   5.271   3.360   0.055 -0.0044  0.1910  0.0344
10155SOL    HW142524   5.342   3.290   0.060  1.1636  1.3930  0.4984
10155SOL    HW242525   5.232   3.375   0.146 -1.9153 -1.5076 -0.4566
10156SOL     OW42526   3.931   2.523   1.121 -0.2747 -0.0088 -0.3563
10156SOL    HW142527   4.020   2.529   1.074  1.0086 -0.9024  1.9035
10156SOL    HW242528   3.910   2.611   1.163  0.0992 -0.1264  0.0818
10157SOL     OW42529   1.631   9.393   8.951  0.0361  0.0713  0.1498
10157SOL    HW142530   1.601   9.422   9.042 -0.5703  0.1772 -0.0852
10157SOL    HW242531   1.722   9.430   8.932 -0.8424  2.0624 -0.2659
10158SOL     OW42532   6.758   9.834   4.208 -0.0137 -0.6726 -0.2206
10158SOL    HW142533   6.795   9.840   4.116  3.9956 -1.2943  1.2559
10158SOL    HW242534   6.703   9.915   4.227  0.0518  0.0067 -2.7382
10159SOL     OW42535   8.536   2.697   6.165 -0.3460  0.4901  0.1687
10159SOL    HW142536   8.501   2.653   6.082 -1.2614  2.7207 -0.6769
10159SOL    HW242537   8.551   2.628   6.236 -0.2053 -1.3624 -1.6133
10160SOL     OW42538   7.834   1.926   1.884 -0.3569  0.4049 -0.0595
10160SOL    HW142539   7.826   1.982   1.802 -0.7270  0.9065  0.3206
10160SOL    HW242540   7.877   1.839   1.860  0.8983  1.1340 -0.5188
10161SOL     OW42541   4.586   2.300   5.919 -0.3396 -0.0815 -0.2612
10161SOL    HW142542   4.668   2.344   5.955 -0.1310  0.2793 -1.1729
10161SOL    HW242543   4.592   2.201   5.934  0.4898 -0.1127 -0.7650
10162SOL     OW42544   1.125   0.847   2.576  0.3167  0.2426 -0.5818
10162SOL    HW142545   1.141   0.779   2.505 -0.9336 -0.6525 -0.0133
10162SOL    HW242546   1.178   0.823   2.657 -1.2139 -0.8586  0.1161
10163SOL     OW42547   4.755   6.238   3.069 -0.5259  0.0183 -0.1908
10163SOL    HW142548   4.720   6.256   3.161  1.3132  0.9327  0.3600
10163SOL    HW242549   4.816   6.313   3.042  2.0229 -2.1312 -0.5913
10164SOL     OW42550   8.892   5.422   9.643 -0.4499  0.1203 -0.0395
10164SOL    HW142551   8.918   5.484   9.717 -0.2661  0.7920 -0.6609
10164SOL    HW242552   8.793   5.422   9.633 -0.4458  0.3664 -0.0825
10165SOL     OW42553   4.441   8.518   6.200 -0.1499 -0.2646  0.2174
10165SOL    HW142554   4.391   8.582   6.258 -1.8809 -0.5577 -0.9369
10165SOL    HW242555   4.454   8.432   6.248 -1.0520 -0.3017  0.3962
10166SOL     OW42556   3.342   7.184   0.304 -0.3368 -1.1835 -0.2044
10166SOL    HW142557   3.396   7.127   0.243 -1.4768  0.6976 -3.0863
10166SOL    HW242558   3.255   7.139   0.324  0.4697 -2.2734  0.9489
10167SOL     OW42559   0.773   1.843   1.625 -0.2850  0.1985 -0.1238
10167SOL    HW142560   0.710   1.846   1.548 -1.0166 -0.6496  0.4310
10167SOL    HW242561   0.724   1.815   1.707  0.5423  0.8316  0.5963
10168SOL     OW42562   1.542   6.628   0.858  0.0007  0.1766  0.3969
10168SOL    HW142563   1.507   6.601   0.769 -1.2319 -1.6432  1.4185
10168SOL    HW242564   1.506   6.719   0.882 -0.7322  0.0913 -0.3665
10169SOL     OW42565   8.528   6.757   3.828  0.2059  0.3615 -0.0249
10169SOL    HW142566   8.451   6.785   3.771  0.4997  1.0339 -0.1104
10169SOL    HW242567   8.518   6.662   3.856 -1.3386  0.8522  1.1037
10170SOL     OW42568   1.516   0.244   1.714  0.5998 -0.6524  0.1517
10170SOL    HW142569   1.554   0.336   1.704  0.1878 -0.6797 -1.8903
10170SOL    HW242570   1.438   0.247   1.778  1.6429  0.0785  1.4189
10171SOL     OW42571   7.904   2.920   5.039  0.3458  0.2574  0.0602
10171SOL    HW142572   7.850   2.871   4.970  1.3721  0.4834 -0.9236
10171SOL    HW242573   7.847   2.989   5.083 -0.6297 -0.6328  0.2336
10172SOL     OW42574   0.523   4.168   0.731  0.2042 -0.2739  0.1836
10172SOL    HW142575   0.597   4.102   0.726 -1.6906 -2.3913 -0.6774
10172SOL    HW242576   0.508   4.209   0.641  1.3447  1.3169  0.7040
10173SOL     OW42577   8.154   5.609   1.985 -0.0395 -0.4177 -0.1572
10173SOL    HW142578   8.206   5.667   1.922  0.7167 -1.0566 -0.1348
10173SOL    HW242579   8.208   5.527   2.007 -0.2928 -0.2125  1.3098
10174SOL     OW42580   8.653   4.662   0.328 -0.4520  0.5715  0.2558
10174SOL    HW142581   8.680   4.586   0.387  2.2279  1.0472 -0.2969
10174SOL    HW242582   8.683   4.644   0.234 -3.3725  0.4907 -0.7111
10175SOL     OW42583   5.677   1.437   7.694 -0.2497 -0.0848 -0.2986
10175SOL    HW142584   5.672   1.533   7.720 -0.6360 -0.4970  1.1648
10175SOL    HW242585   5.712   1.430   7.600  0.9209  1.4301 -0.0028
10176SOL     OW42586   6.765   2.716   4.258 -0.4687  0.2886 -0.4682
10176SOL    HW142587   6.855   2.692   4.224  0.5020  0.7554  1.6701
10176SOL    HW242588   6.714   2.765   4.188  0.7354 -0.4274 -1.8659
10177SOL     OW42589   7.661   6.294   3.857 -0.4050  0.3018  0.4743
10177SOL    HW142590   7.715   6.219   3.819 -1.8100 -1.0106  1.0147
10177SOL    HW242591   7.698   6.320   3.946 -1.0496 -1.0405  1.1436
10178SOL     OW42592   8.632   8.588   4.433  0.3019 -0.2184 -0.0950
10178SOL    HW142593   8.626   8.492   4.408 -0.0666  0.1388 -1.4455
10178SOL    HW242594   8.539   8.625   4.447  0.4846 -0.3063  1.4346
10179SOL     OW42595   2.448   7.117   0.870  0.0629  0.4229  0.1937
10179SOL    HW142596   2.518   7.049   0.893  1.6248  1.1284 -2.3053
10179SOL    HW242597   2.469   7.203   0.917  0.6251  0.4851 -0.1579
10180SOL     OW42598   3.028   4.909   7.082  0.8274  0.2678  0.2289
10180SOL    HW142599   2.965   4.846   7.125 -0.3874  0.5557 -1.0873
10180SOL    HW242600   3.051   4.876   6.990 -0.3171  2.0233 -0.7216
10181SOL     OW42601   4.779   1.967   5.353  0.6368  0.3341  0.0541
10181SOL    HW142602   4.866   1.995   5.311  0.2038  1.3238 -0.2075
10181SOL    HW242603   4.770   2.010   5.443 -0.5897  2.0547 -0.8680
10182SOL     OW42604   3.147   4.951   7.366 -0.0981 -0.3794 -0.8320
10182SOL    HW142605   3.234   4.952   7.415  0.0232 -0.7047 -1.0419
10182SOL    HW242606   3.165   4.954   7.267 -0.3185 -0.7989 -0.8827
10183SOL     OW42607   0.660   4.758   8.189  0.2700 -0.1385  0.2281
10183SOL    HW142608   0.725   4.731   8.260 -0.5582 -1.4986  0.4880
10183SOL    HW242609   0.582   4.804   8.230 -0.6863 -1.8117  0.3355
10184SOL     OW42610   8.210   4.304   0.613 -0.0720  0.1868  0.1650
10184SOL    HW142611   8.213   4.250   0.530  1.4417  0.9607 -0.2982
10184SOL    HW242612   8.255   4.254   0.687 -2.7104 -1.1519  0.9510
10185SOL     OW42613   2.072   1.142   9.756 -0.7961 -0.6162 -0.5054
10185SOL    HW142614   2.011   1.136   9.677 -0.2385  0.2738 -1.0161
10185SOL    HW242615   2.030   1.097   9.835 -1.6354 -0.9507 -1.1394
10186SOL     OW42616   9.098   1.115   5.213 -0.2614  0.4363  0.4533
10186SOL    HW142617   9.045   1.113   5.128 -0.4070  1.4726  0.5122
10186SOL    HW242618   9.174   1.051   5.207 -0.7059 -0.0350 -0.1754
10187SOL     OW42619   9.088   0.993   8.144  0.4304 -0.0362  0.0874
10187SOL    HW142620   8.988   0.988   8.142  0.3953  0.4705  0.4181
10187SOL    HW242621   9.119   1.072   8.091  0.7271 -0.9555 -1.1175
10188SOL     OW42622   3.855   0.463   0.442  0.1807 -0.2277  0.2079
10188SOL    HW142623   3.786   0.448   0.371 -0.2476 -0.4514  0.6710
10188SOL    HW242624   3.945   0.475   0.399 -0.1820  0.2919 -0.4072
10189SOL     OW42625   9.000   9.579   8.724  0.0380  0.3142 -0.0678
10189SOL    HW142626   9.002   9.652   8.656 -1.1267  0.5384  0.1212
10189SOL    HW242627   8.962   9.496   8.683 -0.9658  0.5420  0.3784
10190SOL     OW42628   5.441   8.305   4.481 -0.1059 -0.0992 -0.0109
10190SOL    HW142629   5.524   8.330   4.531  0.0145  0.8778 -0.6853
10190SOL    HW242630   5.454   8.215   4.438  0.7704  0.2326 -0.4617
10191SOL     OW42631   2.953   9.609   8.230  0.0388  0.4272  0.1756
10191SOL    HW142632   2.875   9.555   8.200 -0.1803  0.5030  0.6065
10191SOL    HW242633   3.030   9.595   8.167 -0.0138 -0.3987  0.2919
10192SOL     OW42634   3.327   8.865   0.884 -0.1956 -0.2372  0.6191
10192SOL    HW142635   3.319   8.767   0.898 -0.4394 -0.0678  1.6885
10192SOL    HW242636   3.306   8.913   0.969 -1.7793  0.8198 -0.3438
10193SOL     OW42637   9.471   4.019   6.687 -0.3730  0.3974 -0.4991
10193SOL    HW142638   9.490   4.015   6.589  0.1257 -2.0269 -0.3538
10193SOL    HW242639   9.545   4.067   6.734  1.4871 -2.0286 -0.8690
10194SOL     OW42640   2.484   1.940   9.219 -0.0430 -0.7496 -0.1785
10194SOL    HW142641   2.450   1.944   9.313  0.9132  0.8276  0.1140
10194SOL    HW242642   2.407   1.923   9.157 -0.9943  0.2435  0.7077
10195SOL     OW42643   2.967   7.407   4.149  0.1635  0.2383  0.3844
10195SOL    HW142644   3.017   7.457   4.220 -0.1575 -0.0606  0.8333
10195SOL    HW242645   2.891   7.464   4.116 -0.2722  0.0150  0.9771
10196SOL     OW42646   3.941   8.208   2.020  0.4069 -0.0249 -0.2971
10196SOL    HW142647   3.865   8.143   2.019  1.6641 -1.5192 -0.9532
10196SOL    HW242648   3.905   8.301   2.030 -1.3530 -0.8849  1.9487
10197SOL     OW42649   3.153   5.290   3.418  0.2865 -0.0954  0.8078
10197SOL    HW142650   3.224   5.223   3.396  1.7024  2.3205 -2.3156
10197SOL    HW242651   3.063   5.251   3.400  1.1086 -0.9920 -1.5420
10198SOL     OW42652   8.698   5.994   6.508 -0.2051 -0.2623  0.1336
10198SOL    HW142653   8.724   5.973   6.603  1.2349  0.8812  0.0048
10198SOL    HW242654   8.613   6.046   6.507 -0.3746 -0.5228  0.7865
10199SOL     OW42655   7.859   8.467   8.329  0.0567 -0.1681  0.4440
10199SOL    HW142656   7.938   8.467   8.268  0.4763  2.2140  0.9328
10199SOL    HW242657   7.869   8.394   8.397  1.5555 -0.2467  0.1635
10200SOL     OW42658   1.489   5.504   1.440  0.0097 -0.5640  0.0527
10200SOL    HW142659   1.410   5.539   1.491  0.1085 -0.7539  0.3375
10200SOL    HW242660   1.569   5.502   1.500  0.4169  0.3491 -0.4543
10201SOL     OW42661   4.834   5.290   2.316 -0.2015  0.4239  0.3378
10201SOL    HW142662   4.865   5.242   2.398  0.5728  0.3352 -0.0061
10201SOL    HW242663   4.789   5.226   2.254  0.0166  0.3231  0.2856
10202SOL     OW42664   7.237   1.202   1.124 -0.4817 -0.1226  0.1431
10202SOL    HW142665   7.249   1.279   1.060 -1.6761  1.5173  1.8603
10202SOL    HW242666   7.145   1.166   1.115  0.3041 -1.8633 -1.1702
10203SOL     OW42667   2.764   8.146   0.964 -0.7325 -0.2085  0.6453
10203SOL    HW142668   2.805   8.102   1.043 -0.5981 -0.2113  0.5741
10203SOL    HW242669   2.766   8.245   0.976  5.1563  0.1819 -2.1865
10204SOL     OW42670   1.431   0.938   3.499 -0.2227  0.0227  0.1706
10204SOL    HW142671   1.337   0.959   3.474 -0.4075  1.0537  1.6927
10204SOL    HW242672   1.432   0.870   3.572  0.2321 -0.4443 -0.2638
10205SOL     OW42673   2.586   5.738   3.591  0.0009  0.1739 -0.0098
10205SOL    HW142674   2.626   5.648   3.573 -0.5602  0.1333 -1.1358
10205SOL    HW242675   2.487   5.729   3.602 -0.1113  0.7103 -0.5718
10206SOL     OW42676   3.332   1.371   8.774  0.0852 -0.5610  0.3581
10206SOL    HW142677   3.426   1.370   8.808 -0.1980 -0.8564  1.1463
10206SOL    HW242678   3.269   1.386   8.851 -0.4924 -0.1322 -0.2002
10207SOL     OW42679   7.131   8.413   2.503 -0.1161  0.3232  0.1922
10207SOL    HW142680   7.078   8.402   2.419  0.0488 -1.5418  0.3023
10207SOL    HW242681   7.223   8.446   2.481 -0.3381  0.6396 -0.2710
10208SOL     OW42682   9.516   9.747   8.711 -0.4753 -0.7128  0.9455
10208SOL    HW142683   9.590   9.790   8.763  0.2450 -1.0356  0.1812
10208SOL    HW242684   9.431   9.797   8.729 -0.4294 -1.3610  3.1599
10209SOL     OW42685   1.624   9.917   4.014 -0.2561 -0.0343 -0.0644
10209SOL    HW142686   1.653   9.823   3.996 -1.9195 -0.7305  0.7523
10209SOL    HW242687   1.583   9.956   3.931 -0.7951 -0.5000 -0.0166
10210SOL     OW42688   8.979   9.591   5.868  0.5981  0.5038  0.1408
10210SOL    HW142689   9.076   9.571   5.856  0.2925 -0.9051  0.0023
10210SOL    HW242690   8.925   9.532   5.809 -0.3474  1.3645  0.1264
10211SOL     OW42691   1.472   8.696   0.381  0.0447  0.0566 -0.1190
10211SOL    HW142692   1.570   8.709   0.397  0.3757 -2.6511  0.2280
10211SOL    HW242693   1.448   8.599   0.391 -2.3052  0.3540 -2.2092
10212SOL     OW42694   2.819   8.788   2.333  0.3263 -0.7944 -0.0786
10212SOL    HW142695   2.828   8.888   2.342 -1.4954 -0.6913  0.8585
10212SOL    HW242696   2.830   8.745   2.422  2.0979 -1.5468 -0.6355
10213SOL     OW42697   4.087   6.567   7.553  0.2130  0.0846  0.4175
10213SOL    HW142698   4.114   6.561   7.457 -2.1838 -0.5783 -0.2560
10213SOL    HW242699   4.130   6.493   7.605  0.4900 -0.3446 -0.4231
10214SOL     OW42700   4.569   6.699   9.684  0.0690  0.0062 -0.1502
10214SOL    HW142701   4.650   6.735   9.638  0.6187 -0.5023  0.4196
10214SOL    HW242702   4.555   6.604   9.656 -1.7408  0.7974 -2.1452
10215SOL     OW42703   8.859   0.802   8.359  0.4075  0.5684  0.7452
10215SOL    HW142704   8.855   0.778   8.261  1.2435 -0.2976  0.9140
10215SOL    HW242705   8.822   0.725   8.412 -2.2969  1.9804  0.9982
10216SOL     OW42706   6.272   0.226   3.723 -0.4180  0.0134  0.0329
10216SOL    HW142707   6.222   0.163   3.664  0.1627  1.1573 -1.7259
10216SOL    HW242708   6.237   0.319   3.709 -0.4947  0.2607  1.7542
10217SOL     OW42709   6.841   8.360   3.040 -0.0320 -0.3305 -0.0070
10217SOL    HW142710   6.860   8.262   3.046 -1.6095 -0.8409 -2.5937
10217SOL    HW242711   6.742   8.375   3.036  0.2268  1.2680 -0.9964
10218SOL     OW42712   9.342   3.350   1.924  0.0676 -0.3831  0.4658
10218SOL    HW142713   9.277   3.288   1.967  0.9078 -1.1701  0.6165
10218SOL    HW242714   9.378   3.413   1.993  0.0472 -0.4598  0.5465
10219SOL     OW42715   5.327   5.635   1.784  0.0780  0.0373  0.2478
10219SOL    HW142716   5.298   5.721   1.741  0.7165 -0.6658 -1.6245
10219SOL    HW242717   5.247   5.586   1.818 -0.4994  0.2902 -0.7341
10220SOL     OW42718   8.231   2.769   8.755 -0.5049 -0.0660 -0.3174
10220SOL    HW142719   8.264   2.688   8.804  0.0087  0.4274  0.1735
10220SOL    HW242720   8.309   2.827   8.730 -0.8777  0.3651 -0.4926
10221SOL     OW42721   9.862   7.082   3.798 -0.1076 -0.6029  0.1895
10221SOL    HW142722   9.931   7.106   3.731 -1.1256 -0.6284 -0.8929
10221SOL    HW242723   9.866   6.983   3.817  0.5583 -0.4996  0.6156
10222SOL     OW42724   1.866   9.349  10.053 -0.3191 -0.0376  0.9507
10222SOL    HW142725   1.838   9.257  10.025 -0.4093  0.1901  0.2761
10222SOL    HW242726   1.955   9.345  10.098  0.5336 -0.2502 -0.6882
10223SOL     OW42727   5.705   0.496   5.328  0.0611 -0.1303  0.3701
10223SOL    HW142728   5.709   0.453   5.238 -0.1030 -2.5509  1.4949
10223SOL    HW242729   5.623   0.553   5.335  0.0355 -0.0016 -0.9628
10224SOL     OW42730   9.259   2.495   5.752  0.2885  0.2412  0.2646
10224SOL    HW142731   9.296   2.572   5.805 -1.0198  1.2892 -0.3029
10224SOL    HW242732   9.159   2.501   5.751  0.1832 -1.4982  0.2387
10225SOL     OW42733   6.066   1.217   0.071  0.1407  0.4494 -0.1274
10225SOL    HW142734   6.052   1.136   0.128 -0.2397 -0.4084 -1.4263
10225SOL    HW242735   6.028   1.297   0.117  1.3810  0.0665  1.6087
10226SOL     OW42736   4.900   1.624   4.588  0.4863 -0.4693  0.1140
10226SOL    HW142737   4.815   1.676   4.578 -1.0354 -2.5247  1.8826
10226SOL    HW242738   4.887   1.532   4.552  1.5749 -1.1589  1.4413
10227SOL     OW42739   5.728   1.497  10.032 -0.5683  0.0865 -0.1205
10227SOL    HW142740   5.760   1.537   9.946  2.1125 -1.2347  0.2051
10227SOL    HW242741   5.670   1.418  10.012  2.2781 -1.9152 -0.7884
10228SOL     OW42742   9.588   5.283   7.101 -0.4045 -0.5169 -0.8717
10228SOL    HW142743   9.613   5.186   7.099 -1.8499 -0.8949 -1.0083
10228SOL    HW242744   9.577   5.313   7.196  1.7427 -0.0108 -0.7373
10229SOL     OW42745   2.009   1.646   1.584 -0.2611 -0.7181 -0.0601
10229SOL    HW142746   2.072   1.570   1.569  1.8525  1.2856 -1.5528
10229SOL    HW242747   1.957   1.663   1.500 -1.6464 -1.3190  0.6638
10230SOL     OW42748   1.307   2.683   1.247  0.6998 -0.3996  0.8026
10230SOL    HW142749   1.214   2.706   1.276  1.1215 -0.3229  2.1161
10230SOL    HW242750   1.318   2.584   1.245  0.3666 -0.4176 -0.0640
10231SOL     OW42751   3.907   0.709   2.401 -0.1111 -0.2475 -0.0743
10231SOL    HW142752   3.835   0.762   2.356 -0.5028 -0.9858 -0.3223
10231SOL    HW242753   3.978   0.771   2.434 -0.9128  0.5011  0.2771
10232SOL     OW42754   0.441   4.553   8.068  0.5305  0.5668  0.4910
10232SOL    HW142755   0.523   4.604   8.093  0.1764  0.2713  2.3633
10232SOL    HW242756   0.363   4.588   8.122 -0.4355  0.3963 -0.7702
10233SOL     OW42757   4.321   5.403   9.733  0.0126  0.2057  0.2808
10233SOL    HW142758   4.325   5.502   9.748  1.2067  0.0247  1.3037
10233SOL    HW242759   4.380   5.378   9.656  1.3542  0.0791  1.3172
10234SOL     OW42760   4.556   0.435   7.034  0.3585  0.2201  0.1665
10234SOL    HW142761   4.648   0.434   7.075 -0.2534  2.6339  1.7291
10234SOL    HW242762   4.494   0.383   7.093  0.2590  0.4951  0.3038
10235SOL     OW42763   8.849   9.565   3.875 -0.2008 -0.3558  0.2540
10235SOL    HW142764   8.860   9.656   3.915  2.1320 -0.6761  0.3820
10235SOL    HW242765   8.800   9.506   3.940 -2.0989  0.8779  0.0055
10236SOL     OW42766   8.895   3.247   0.370 -0.4345  0.3958  0.3037
10236SOL    HW142767   8.890   3.269   0.273 -2.2921  1.0875  0.5303
10236SOL    HW242768   8.988   3.261   0.403  0.6278 -1.6682 -1.7810
10237SOL     OW42769   4.363   8.920   7.600  0.3688 -0.3496 -0.2586
10237SOL    HW142770   4.414   8.978   7.664  0.0109 -0.5309  0.1890
10237SOL    HW242771   4.298   8.976   7.548 -0.8295 -0.5288  1.0185
10238SOL     OW42772   3.271   8.888   6.598  0.4835 -0.0939  0.6323
10238SOL    HW142773   3.257   8.800   6.644  0.7080  0.2950  1.4466
10238SOL    HW242774   3.190   8.945   6.611 -0.0637 -0.5343 -0.7190
10239SOL     OW42775   0.476   5.279   3.256 -0.4276 -0.0369 -0.1467
10239SOL    HW142776   0.521   5.190   3.261  0.1602  0.1762 -1.4897
10239SOL    HW242777   0.474   5.321   3.347  4.3921  1.0666 -0.4291
10240SOL     OW42778   6.078   0.690   6.924 -0.3343  0.7541  0.6096
10240SOL    HW142779   5.987   0.648   6.924 -0.5661  1.1961 -2.4456
10240SOL    HW242780   6.147   0.619   6.911 -0.4519  0.8125 -0.3274
10241SOL     OW42781   1.877   2.902   9.671  0.8312 -0.0703  0.2960
10241SOL    HW142782   1.947   2.926   9.739  0.5646  0.9928  0.1982
10241SOL    HW242783   1.834   2.816   9.698  0.8669  0.2347  1.3862
10242SOL     OW42784   9.617   5.524   4.944 -0.3600  0.6802 -0.0022
10242SOL    HW142785   9.523   5.546   4.919 -0.4993 -0.2190 -0.2639
10242SOL    HW242786   9.619   5.439   4.996  0.1693  1.3892  1.1542
10243SOL     OW42787   2.341   0.165   3.448 -0.1298 -0.1247  0.1630
10243SOL    HW142788   2.401   0.164   3.528  0.6177 -1.2313 -0.3990
10243SOL    HW242789   2.367   0.240   3.387 -0.0925  0.1335  0.4926
10244SOL     OW42790   0.326   9.614   9.822 -0.1880 -0.3401 -0.2289
10244SOL    HW142791   0.378   9.561   9.889  1.7291  1.4725 -0.2232
10244SOL    HW242792   0.259   9.671   9.870  0.5197  0.2384  0.0753
10245SOL     OW42793   2.776   7.047   2.977  0.4829  0.2571 -0.6421
10245SOL    HW142794   2.782   6.972   2.911 -0.9707 -1.7757  1.4703
10245SOL    HW242795   2.833   7.025   3.056  2.9967  3.1251 -1.5697
10246SOL     OW42796   7.114   5.820   2.845  0.6635  0.9481 -0.0264
10246SOL    HW142797   7.083   5.742   2.792  0.2627  1.5694 -0.7185
10246SOL    HW242798   7.147   5.789   2.934  1.4862 -0.1074 -0.6972
10247SOL     OW42799   3.547   7.282   3.352 -0.7742 -0.4087  0.0685
10247SOL    HW142800   3.582   7.205   3.299  0.3871 -0.6199  1.1339
10247SOL    HW242801   3.614   7.309   3.420 -1.9820  0.3038  0.9943
10248SOL     OW42802   0.910   8.142   7.633 -0.1208 -0.5122  0.4355
10248SOL    HW142803   0.921   8.059   7.579  1.2594  0.1984 -0.4036
10248SOL    HW242804   0.813   8.166   7.637 -0.5492 -2.2495  0.8483
10249SOL     OW42805   0.315   2.274   6.036  0.2980  0.3982 -0.2676
10249SOL    HW142806   0.281   2.304   6.125  0.9808  0.4641 -0.0289
10249SOL    HW242807   0.388   2.207   6.049 -0.1676 -0.2106 -0.7844
10250SOL     OW42808   2.526   8.293   6.472  0.3721  0.2541 -0.1725
10250SOL    HW142809   2.505   8.321   6.378  1.5605  1.2683 -0.1358
10250SOL    HW242810   2.477   8.207   6.492 -0.0047  0.1018 -1.6580
10251SOL     OW42811   8.088   4.886   6.178 -0.2650  0.1257  0.1375
10251SOL    HW142812   8.020   4.826   6.222 -2.5219  2.3133 -0.2658
10251SOL    HW242813   8.132   4.943   6.247 -2.7864  2.5488 -0.1877
10252SOL     OW42814   0.512   8.320   5.265  0.3494 -0.2585 -0.0310
10252SOL    HW142815   0.601   8.297   5.306 -0.4043 -1.3398  1.0273
10252SOL    HW242816   0.452   8.356   5.337 -0.8243 -1.6922 -0.2733
10253SOL     OW42817   0.123   9.258   9.582  0.3406 -0.1475  0.1986
10253SOL    HW142818   0.168   9.220   9.663  1.9860  0.1566 -0.5586
10253SOL    HW242819   0.153   9.353   9.570 -1.1839  0.3467  0.1732
10254SOL     OW42820   2.019   8.303   3.514  0.5716 -0.4039 -0.3505
10254SOL    HW142821   2.011   8.368   3.589  0.7234 -0.4526 -0.2917
10254SOL    HW242822   1.942   8.314   3.451  1.3830  0.8859 -1.1547
10255SOL     OW42823   1.279   4.006   4.290  0.8109 -0.1659  0.6086
10255SOL    HW142824   1.229   3.996   4.377  0.1551  0.5544  0.3269
10255SOL    HW242825   1.293   4.103   4.272  2.8336 -0.3836  0.9578
10256SOL     OW42826   8.227   6.016   1.770  0.6162  0.1487 -0.2236
10256SOL    HW142827   8.160   5.948   1.739  1.2546 -0.1876 -0.8824
10256SOL    HW242828   8.314   5.970   1.788  0.2824  0.3423  2.0294
10257SOL     OW42829   9.613   5.021   0.556 -0.5326 -0.3617 -0.2400
10257SOL    HW142830   9.603   5.045   0.460  1.2730 -1.7008 -0.7826
10257SOL    HW242831   9.595   4.924   0.569 -0.7904 -0.1855  0.7786
10258SOL     OW42832   2.675   9.642   5.019 -0.0406  0.1466 -0.3550
10258SOL    HW142833   2.697   9.622   4.924  2.4853 -0.6148  0.3456
10258SOL    HW242834   2.723   9.577   5.078 -1.7191  0.4855  1.4464
10259SOL     OW42835   5.045   1.660   6.810 -0.2684  0.9063 -0.3992
10259SOL    HW142836   5.145   1.668   6.816 -0.3615  1.1014  1.0662
10259SOL    HW242837   5.003   1.710   6.886 -1.5002  1.2272 -1.2838
10260SOL     OW42838   4.122   0.456   1.999  0.2390 -0.2256  0.1756
10260SOL    HW142839   4.035   0.408   2.012  0.8499 -1.6482 -0.8790
10260SOL    HW242840   4.123   0.538   2.056 -1.0497 -1.1777  1.6276
10261SOL     OW42841   4.347   2.177   5.072  0.2429 -0.0304 -0.2868
10261SOL    HW142842   4.428   2.172   5.131 -0.2606 -0.6856  0.3583
10261SOL    HW242843   4.265   2.173   5.129 -0.2519 -0.8123 -1.0592
10262SOL     OW42844   3.801   4.435   6.324 -0.1215  0.0024  0.6839
10262SOL    HW142845   3.757   4.512   6.279 -0.0855 -0.9653 -1.0330
10262SOL    HW242846   3.745   4.353   6.312  0.9837 -0.7419  0.4733
10263SOL     OW42847   8.640   4.014   0.719 -0.3205 -0.2002 -0.1247
10263SOL    HW142848   8.660   3.940   0.784 -1.6179  0.3440  0.9280
10263SOL    HW242849   8.627   4.100   0.769 -0.0718  0.4908 -1.2260
10264SOL     OW42850   2.017   1.195   6.310 -0.0293 -0.7040  0.0691
10264SOL    HW142851   1.922   1.225   6.308 -0.0712 -0.9092 -1.0308
10264SOL    HW242852   2.057   1.204   6.219  1.0033 -0.6334  0.5221
10265SOL     OW42853   9.843   3.413   0.823  0.3639 -0.2212  0.3956
10265SOL    HW142854   9.748   3.444   0.822  0.2845 -0.3350  2.6751
10265SOL    HW242855   9.849   3.324   0.777 -0.2238  0.8132 -1.7666
10266SOL     OW42856   1.153   6.228   9.546 -0.2376  0.2443  0.0428
10266SOL    HW142857   1.172   6.130   9.552  2.9381  0.7149 -1.2345
10266SOL    HW242858   1.225   6.279   9.593 -0.9423  2.0345 -0.7427
10267SOL     OW42859   3.929   9.299   8.962 -0.2264 -0.2453 -0.2308
10267SOL    HW142860   4.009   9.338   8.917 -1.1485  2.5789  0.4743
10267SOL    HW242861   3.958   9.241   9.038  1.1593 -0.8628 -1.1990
10268SOL     OW42862   3.643   4.393   2.850 -0.3120 -0.1021  0.0686
10268SOL    HW142863   3.652   4.431   2.758 -0.2902 -0.9108 -0.2708
10268SOL    HW242864   3.711   4.435   2.910  0.5135 -0.4790 -0.5893
10269SOL     OW42865   2.715   7.189   5.812 -0.4245  0.2822 -0.1471
10269SOL    HW142866   2.657   7.239   5.876  0.5157  0.5042  0.5343
10269SOL    HW242867   2.724   7.094   5.842 -1.7901 -0.1949 -1.1636
10270SOL     OW42868   2.570   9.973   0.948  0.1943 -0.2241 -0.0291
10270SOL    HW142869   2.548  10.053   1.004 -1.5648 -1.0916  0.5499
10270SOL    HW242870   2.487   9.937   0.907  0.9207 -1.9473 -0.0509
10271SOL     OW42871   7.936   4.851   2.378 -0.4075  0.1768 -0.1760
10271SOL    HW142872   7.985   4.806   2.302 -0.1699 -0.3670  0.2958
10271SOL    HW242873   8.002   4.899   2.436 -0.4455 -0.4609  0.3983
10272SOL     OW42874   0.236   0.732   8.440 -0.1242 -0.2378  0.2345
10272SOL    HW142875   0.174   0.788   8.496 -0.3061  0.7184 -0.9084
10272SOL    HW242876   0.211   0.741   8.344  2.5644  1.1622 -0.3757
10273SOL     OW42877   2.298   2.840   3.776  0.5418 -0.2179  0.1149
10273SOL    HW142878   2.271   2.890   3.694 -0.2205 -1.2139 -0.2609
10273SOL    HW242879   2.271   2.744   3.766  0.6306 -0.3873  1.4446
10274SOL     OW42880   2.035   5.812   3.790 -0.1900  0.1945  0.1445
10274SOL    HW142881   2.022   5.879   3.717 -3.6423 -0.6655 -0.1287
10274SOL    HW242882   1.990   5.843   3.873  0.6055 -0.5053  0.8469
10275SOL     OW42883   0.529   2.708   6.230  0.7297  0.2077 -0.1017
10275SOL    HW142884   0.558   2.661   6.313 -1.4436 -0.8971  0.0753
10275SOL    HW242885   0.573   2.667   6.151  0.5166 -0.7200  0.2573
10276SOL     OW42886   7.701   4.554   8.901 -0.5482  0.0772 -0.8971
10276SOL    HW142887   7.731   4.461   8.879 -0.6553 -0.2593  0.3013
10276SOL    HW242888   7.726   4.575   8.996  1.0867  1.9391 -1.7203
10277SOL     OW42889   9.614   6.228   4.760 -0.1659 -0.3139  0.1369
10277SOL    HW142890   9.575   6.311   4.720 -0.5539  0.0794  1.3168
10277SOL    HW242891   9.609   6.234   4.859  2.9933 -0.2019  0.3360
10278SOL     OW42892   0.452   1.307   8.424  0.0072 -0.3300  0.1361
10278SOL    HW142893   0.389   1.235   8.396  0.3469 -0.7390  0.4386
10278SOL    HW242894   0.413   1.358   8.501  0.0827 -0.6292  0.3712
10279SOL     OW42895   9.771   7.077   0.191 -0.1501 -0.0838 -0.2243
10279SOL    HW142896   9.811   6.993   0.226  1.8976  0.6056 -0.8821
10279SOL    HW242897   9.779   7.149   0.261 -0.1671  0.0791 -0.3895
10280SOL     OW42898   5.179   0.143   7.190 -0.0817 -0.2156  0.2510
10280SOL    HW142899   5.130   0.056   7.197 -0.9766  0.3002  0.4196
10280SOL    HW242900   5.173   0.176   7.095 -1.0961  0.4380  0.5298
10281SOL     OW42901   9.339   8.094   4.477  0.4861  0.5922 -0.0290
10281SOL    HW142902   9.376   8.074   4.387  2.0410  0.0356  0.7141
10281SOL    HW242903   9.412   8.086   4.545 -0.0852  3.3690  0.9812
10282SOL     OW42904   4.739   1.941   7.848 -0.2257  0.5614 -0.2940
10282SOL    HW142905   4.750   1.853   7.895 -0.7003  0.2112 -0.8334
10282SOL    HW242906   4.681   1.928   7.767  1.5724  0.9231 -1.6553
10283SOL     OW42907   1.250   6.661   8.933  0.1930 -0.0334 -0.3065
10283SOL    HW142908   1.273   6.707   8.847 -1.2894 -0.4899 -0.9624
10283SOL    HW242909   1.311   6.583   8.946  0.4962  0.1030 -0.8853
10284SOL     OW42910   3.543   3.343   5.473 -0.0017 -0.1516 -0.7384
10284SOL    HW142911   3.522   3.263   5.417 -0.6541 -0.2670 -0.3357
10284SOL    HW242912   3.500   3.424   5.433 -2.0152 -0.5335  0.5671
10285SOL     OW42913   5.765   1.071   0.569 -0.6106 -0.6887  0.4747
10285SOL    HW142914   5.781   1.140   0.640 -1.9026 -2.1964  2.2862
10285SOL    HW242915   5.809   0.985   0.595  0.0015 -0.9065 -1.2032
10286SOL     OW42916   0.415   7.039   8.328  0.5143 -0.1848 -0.1367
10286SOL    HW142917   0.513   7.022   8.335  0.0728 -2.0652  2.0928
10286SOL    HW242918   0.380   6.997   8.245  1.3004 -1.1019 -0.0180
10287SOL     OW42919   6.905   3.917   7.896 -0.0515  0.0598  0.2087
10287SOL    HW142920   6.820   3.905   7.946 -0.8214 -0.5051 -1.1963
10287SOL    HW242921   6.905   4.007   7.851 -0.1087 -0.1196 -0.1531
10288SOL     OW42922   9.927   2.762   1.726  0.3155  0.0367  0.4469
10288SOL    HW142923   9.866   2.684   1.714  1.2651 -0.8165  1.1562
10288SOL    HW242924   9.999   2.760   1.656 -0.4660  1.0568 -0.4068
10289SOL     OW42925   0.633   4.107   8.559 -0.0680  0.3371  0.5041
10289SOL    HW142926   0.600   4.149   8.643  0.7499  0.5666  0.7126
10289SOL    HW242927   0.580   4.142   8.481  0.8711  2.0627  0.6209
10290SOL     OW42928   0.227   3.209   0.021  0.3023 -0.2265  0.1910
10290SOL    HW142929   0.277   3.229  -0.063  0.2581 -0.5653  0.0830
10290SOL    HW242930   0.142   3.262   0.022 -0.0983 -0.8522 -0.3740
10291SOL     OW42931   3.033   4.079   6.169 -0.0881  0.1889  0.3708
10291SOL    HW142932   2.987   4.084   6.080 -0.3393  0.3042  0.5045
10291SOL    HW242933   3.097   4.003   6.170 -0.1860  0.1037  0.1348
10292SOL     OW42934   1.272   2.805   6.079  0.0842 -0.7124  0.2948
10292SOL    HW142935   1.334   2.797   6.157 -1.6463 -1.4189  1.6344
10292SOL    HW242936   1.325   2.805   5.994  1.8944 -1.5908  1.3903
10293SOL     OW42937   1.729   0.214   0.688  0.4030 -0.1583 -0.4065
10293SOL    HW142938   1.717   0.120   0.719  0.1895 -0.2301 -0.7076
10293SOL    HW242939   1.748   0.273   0.766 -0.6603 -0.2498 -0.0706
10294SOL     OW42940   0.317   2.899   1.901 -0.1923  0.0088 -0.4298
10294SOL    HW142941   0.316   2.966   1.826  0.7794  0.3324 -0.1628
10294SOL    HW242942   0.350   2.943   1.984 -0.9115 -0.4479  0.1004
10295SOL     OW42943   0.786   5.923   7.527  0.2448  0.1698 -0.1350
10295SOL    HW142944   0.693   5.959   7.537  0.6085  1.0150  0.2803
10295SOL    HW242945   0.818   5.939   7.434  0.2832  0.6347 -0.0438
10296SOL     OW42946   2.717   6.052   6.587  0.1351 -0.0520 -0.1221
10296SOL    HW142947   2.688   5.956   6.576  1.0741 -0.4940  1.1113
10296SOL    HW242948   2.639   6.112   6.574 -0.5278 -1.0085 -0.6377
10297SOL     OW42949   8.256   3.789   6.315  0.1937 -0.2579  0.3938
10297SOL    HW142950   8.298   3.761   6.401 -0.7472  1.6576  1.5081
10297SOL    HW242951   8.214   3.879   6.326 -0.0113 -0.0211 -2.0542
10298SOL     OW42952   3.522   7.786   8.841 -0.5912 -0.4770 -0.0204
10298SOL    HW142953   3.453   7.798   8.769 -1.9412 -1.5046  1.0814
10298SOL    HW242954   3.580   7.867   8.845 -2.7350  1.0990  0.0925
10299SOL     OW42955   1.073   7.722   1.451  0.0556  0.0305 -0.2783
10299SOL    HW142956   0.989   7.702   1.502  1.1243  1.6497  2.2047
10299SOL    HW242957   1.105   7.638   1.406 -0.5499 -1.6380  2.2969
10300SOL     OW42958   6.490   2.666   2.002 -0.1770 -0.8873 -0.2245
10300SOL    HW142959   6.505   2.633   1.909  3.0433 -0.3429  0.0351
10300SOL    HW242960   6.484   2.588   2.065  0.9942 -1.1679 -0.4540
10301SOL     OW42961   3.872   2.426   3.721 -0.4495 -0.1198 -0.0991
10301SOL    HW142962   3.780   2.458   3.700 -0.4821  0.2926  0.6538
10301SOL    HW242963   3.867   2.336   3.764 -0.5010 -0.0960 -0.0555
10302SOL     OW42964   4.142   0.632   7.581  0.1423  0.1136 -0.6420
10302SOL    HW142965   4.063   0.575   7.557  0.6388 -0.2370 -1.4759
10302SOL    HW242966   4.127   0.726   7.550  0.0869  0.0230 -0.8924
10303SOL     OW42967   8.531   5.273   3.078 -0.2683 -0.0488  0.4638
10303SOL    HW142968   8.465   5.208   3.040 -0.0392 -0.1911  0.3041
10303SOL    HW242969   8.494   5.365   3.073  0.9379  0.3132 -2.8639
10304SOL     OW42970   8.288   2.712   4.510 -0.0505  0.0600  0.0383
10304SOL    HW142971   8.294   2.797   4.563  0.3976 -1.1528  2.0081
10304SOL    HW242972   8.271   2.636   4.573 -0.6324 -1.2768 -1.7264
10305SOL     OW42973   0.709   8.360   7.674  0.5405 -0.4029 -0.0222
10305SOL    HW142974   0.642   8.380   7.745  1.2599  0.0030  0.5451
10305SOL    HW242975   0.778   8.433   7.671  1.5549 -1.3347  0.1149
10306SOL     OW42976   1.325   3.868   7.089 -0.1441  0.4664 -0.0305
10306SOL    HW142977   1.342   3.869   6.991  0.0928  2.3934  0.0174
10306SOL    HW242978   1.391   3.927   7.136  1.0340 -2.0005  1.5195
10307SOL     OW42979   1.824   9.608   3.491  0.4169  0.2899 -0.4101
10307SOL    HW142980   1.874   9.653   3.417  0.3235  0.7756 -0.1798
10307SOL    HW242981   1.885   9.594   3.569  0.6060 -0.5202 -0.6885
10308SOL     OW42982   1.926   7.095   7.144 -0.6196  0.1696  0.0535
10308SOL    HW142983   1.946   7.132   7.053  1.6392  0.6429  0.7062
10308SOL    HW242984   1.889   7.168   7.201  0.0005  0.4218  0.1402
10309SOL     OW42985   3.085   5.072   7.972  0.2173 -0.2320 -0.2475
10309SOL    HW142986   3.025   5.073   7.892  0.3049 -1.1615 -0.3294
10309SOL    HW242987   3.030   5.085   8.055 -0.0924 -0.9513 -0.3317
10310SOL     OW42988   1.910   4.621   1.581  0.2735  0.0927  0.3875
10310SOL    HW142989   1.963   4.608   1.665  0.9166 -0.5143 -0.1030
10310SOL    HW242990   1.816   4.646   1.604  0.4784  0.0657  1.2810
10311SOL     OW42991   3.271   6.584   0.080  0.5446  0.0961  0.8088
10311SOL    HW142992   3.224   6.664   0.042 -0.6240 -1.0661 -0.2656
10311SOL    HW242993   3.353   6.613   0.129  0.4415  1.9012 -0.0474
10312SOL     OW42994   2.376   6.324   7.598 -0.3439  0.4053 -0.0814
10312SOL    HW142995   2.324   6.363   7.522 -0.6304 -0.2680 -0.2285
10312SOL    HW242996   2.469   6.362   7.597  0.1289 -0.7369 -1.6732
10313SOL     OW42997   1.956   1.993   1.660 -0.3176 -0.1093 -0.2972
10313SOL    HW142998   1.941   1.987   1.759 -1.6931  0.7533 -0.4489
10313SOL    HW242999   2.042   2.040   1.642  0.5125 -1.2866  0.5048
10314SOL     OW43000   5.225   8.942   1.005 -0.0089 -0.0554  0.8080
10314SOL    HW143001   5.138   8.925   1.052  0.4223 -0.4998  1.4416
10314SOL    HW243002   5.283   8.861   1.011  0.5943  0.3650  0.6882
10315SOL     OW43003   9.461   1.798   9.841  0.3387  0.4519  0.7035
10315SOL    HW143004   9.485   1.866   9.772 -1.7516 -1.1736 -1.6891
10315SOL    HW243005   9.420   1.845   9.920  1.1854  2.1769  0.1514
10316SOL     OW43006   1.788   8.211   6.639 -0.2973  0.0967  0.2552
10316SOL    HW143007   1.845   8.200   6.558 -0.9591 -0.7981 -0.1094
10316SOL    HW243008   1.835   8.268   6.706 -0.1631  1.6946 -1.1586
10317SOL     OW43009   4.654   0.442   1.321  0.8080 -0.0888  0.5279
10317SOL    HW143010   4.565   0.415   1.357  0.6592  1.6671  1.5207
10317SOL    HW243011   4.719   0.366   1.334 -0.4133 -1.2211  0.1600
10318SOL     OW43012   1.159   4.929   1.753  0.6198  0.2603 -0.6375
10318SOL    HW143013   1.254   4.960   1.748  0.3164  1.8342  2.0787
10318SOL    HW243014   1.102   4.989   1.698  0.8610  0.9027 -0.1975
10319SOL     OW43015   9.740   4.419   7.039 -0.5411  0.1061 -0.8782
10319SOL    HW143016   9.767   4.497   7.094 -0.9487  0.5117 -1.2415
10319SOL    HW243017   9.789   4.337   7.069 -0.5867  0.3700 -0.0749
10320SOL     OW43018   0.122   5.903   0.448  0.2302 -0.2710 -0.0481
10320SOL    HW143019   0.157   5.821   0.494  1.0469  0.4086  0.5644
10320SOL    HW243020   0.122   5.979   0.513  0.2388  0.4087 -0.8473
10321SOL     OW43021   4.170   6.455   9.827  0.2514  0.7959 -0.1655
10321SOL    HW143022   4.099   6.424   9.889 -0.4372  0.4224 -1.1321
10321SOL    HW243023   4.150   6.424   9.734  2.2080 -0.2046 -0.2828
10322SOL     OW43024   3.111   3.578   0.781  0.0615 -0.0212 -0.1868
10322SOL    HW143025   3.042   3.525   0.731  0.0890 -0.9685  0.7385
10322SOL    HW243026   3.069   3.614   0.865  1.1770 -2.2331  1.3635
10323SOL     OW43027   3.049   6.409   1.944 -0.2785  0.0885  0.2804
10323SOL    HW143028   2.952   6.425   1.923 -0.5276 -1.3242  0.3189
10323SOL    HW243029   3.067   6.311   1.946  1.2710  0.3489 -0.2242
10324SOL     OW43030   6.403   1.125   6.160 -0.4096  0.6467  0.2125
10324SOL    HW143031   6.310   1.101   6.188 -0.1000  0.7893  1.4133
10324SOL    HW243032   6.407   1.133   6.061 -1.2107 -1.3445 -0.0056
10325SOL     OW43033   0.948   1.362   2.898  0.4326  0.3988 -0.1191
10325SOL    HW143034   0.932   1.335   2.992  0.6079 -0.0518 -0.2177
10325SOL    HW243035   0.954   1.462   2.892  0.4315  0.4260  0.3448
10326SOL     OW43036   4.730   0.726   3.693 -0.0433  0.1225 -0.6949
10326SOL    HW143037   4.731   0.644   3.751 -1.1344 -0.2106 -1.1370
10326SOL    HW243038   4.778   0.800   3.740 -0.3574 -0.3273  0.3696
10327SOL     OW43039   6.960   2.474   8.364 -0.5604  0.5027 -0.6282
10327SOL    HW143040   6.927   2.504   8.454 -2.5430 -1.1136 -0.8013
10327SOL    HW243041   6.896   2.409   8.324  2.6775 -2.6190 -1.0695
10328SOL     OW43042   2.286   5.982   6.545 -0.1029 -0.3484  0.1172
10328SOL    HW143043   2.247   5.908   6.600  1.4415 -0.0008  1.7256
10328SOL    HW243044   2.322   5.944   6.460 -1.0484 -1.1438  0.0555
10329SOL     OW43045   2.525   4.888   6.846 -0.1505 -0.1848 -0.2327
10329SOL    HW143046   2.537   4.939   6.761 -0.1318 -0.0192 -0.1299
10329SOL    HW243047   2.552   4.945   6.923 -0.7187 -0.1376 -0.0734
10330SOL     OW43048   5.988   8.616   2.727 -0.8572 -0.0049  0.0472
10330SOL    HW143049   6.075   8.613   2.677  0.2826  0.9296  1.9022
10330SOL    HW243050   5.984   8.700   2.780 -2.0522 -0.9617  1.4930
10331SOL     OW43051   4.063   0.993   0.380 -0.0103 -0.4617  0.1247
10331SOL    HW143052   4.127   1.047   0.435 -0.0288 -0.2969 -0.0133
10331SOL    HW243053   4.035   1.046   0.300  0.4194 -0.8903 -0.3201
10332SOL     OW43054   3.531   0.137   6.234  0.0064 -0.1816  0.1981
10332SOL    HW143055   3.440   0.137   6.194  0.0021 -0.6714  0.2128
10332SOL    HW243056   3.594   0.084   6.177  0.4000  0.5656 -0.0782
10333SOL     OW43057   2.523   9.181   7.106 -0.0473  0.3098 -0.1260
10333SOL    HW143058   2.573   9.095   7.101 -1.8812 -0.8893  1.5166
10333SOL    HW243059   2.463   9.190   7.027  0.4124  0.2403 -0.4812
10334SOL     OW43060   6.847   1.214   9.661  0.0362  0.1525 -0.3741
10334SOL    HW143061   6.886   1.294   9.614  0.3233  0.2588  0.0402
10334SOL    HW243062   6.878   1.131   9.616 -1.1220  0.2980 -1.4712
10335SOL     OW43063   0.831   5.979   0.402  0.1316  0.4032 -0.0602
10335SOL    HW143064   0.895   6.052   0.379  1.3386 -0.8625 -0.8325
10335SOL    HW243065   0.786   6.000   0.489 -0.1169  2.4184 -0.6575
10336SOL     OW43066   3.045   5.185   9.575 -0.1126 -0.1749  0.4059
10336SOL    HW143067   3.064   5.093   9.540 -0.3863  0.0023 -0.2285
10336SOL    HW243068   3.116   5.248   9.544 -0.7424  0.1290 -0.4670
10337SOL     OW43069   1.361   6.638   9.704  0.1391  0.1866 -0.1516
10337SOL    HW143070   1.272   6.593   9.702 -0.4374  1.2450  1.2593
10337SOL    HW243071   1.401   6.631   9.795  0.4615  1.7148 -0.1612
10338SOL     OW43072   6.498   2.926   8.905  0.1318 -0.1757 -0.1626
10338SOL    HW143073   6.588   2.960   8.934  0.1688  0.3625 -0.8879
10338SOL    HW243074   6.457   2.992   8.842  0.0571 -1.3320 -1.3251
10339SOL     OW43075   3.708   7.528   1.673  0.7984  0.2483 -0.0766
10339SOL    HW143076   3.651   7.584   1.613 -0.5788 -0.6332  0.3843
10339SOL    HW243077   3.692   7.556   1.768  0.6978 -0.4038  0.0964
10340SOL     OW43078   8.139   0.053   4.836  0.2373  0.0961 -0.0561
10340SOL    HW143079   8.190  -0.023   4.796  0.4576 -1.5889  3.2620
10340SOL    HW243080   8.044   0.028   4.848  0.8698 -0.7434  3.6023
10341SOL     OW43081   7.278   2.173   5.057 -0.2813 -0.5630 -0.4404
10341SOL    HW143082   7.255   2.268   5.036  0.3555 -0.0024  1.3022
10341SOL    HW243083   7.212   2.136   5.122  0.0045 -1.0109 -0.3979
10342SOL     OW43084   9.652   1.968   2.723  0.0770  0.1872  0.2589
10342SOL    HW143085   9.711   2.049   2.724 -0.5876  0.7041 -1.2574
10342SOL    HW243086   9.671   1.912   2.804  1.2714  1.3298  0.7860
10343SOL     OW43087   0.879   0.296   3.828 -0.0178 -0.2581  0.0131
10343SOL    HW143088   0.957   0.256   3.781  0.4336  0.3727  0.2132
10343SOL    HW243089   0.806   0.314   3.762  0.7564  0.9798 -0.5334
10344SOL     OW43090   4.488   4.700   7.942 -0.3561  0.7306  0.0364
10344SOL    HW143091   4.497   4.753   7.857  0.4785  0.2131 -0.2102
10344SOL    HW243092   4.543   4.617   7.934 -1.4934 -0.0755  0.4961
10345SOL     OW43093   9.241   3.351   6.798  0.1124  0.3435 -0.6730
10345SOL    HW143094   9.211   3.277   6.738  2.0659 -0.4777 -0.6840
10345SOL    HW243095   9.242   3.319   6.892  1.0640  0.2931 -0.6897
10346SOL     OW43096   3.536   5.504   9.437  0.4432  0.0483 -0.2698
10346SOL    HW143097   3.543   5.407   9.458  0.2531  0.4926  1.9114
10346SOL    HW243098   3.626   5.539   9.410  0.5141 -0.7033 -1.0423
10347SOL     OW43099   4.543   4.885   5.275  0.4231  0.4043 -0.3854
10347SOL    HW143100   4.495   4.838   5.201  0.7462  0.2642 -0.5064
10347SOL    HW243101   4.605   4.821   5.321 -0.8424  0.1015  0.9460
10348SOL     OW43102   2.410   2.046   4.039 -0.0992 -0.5387 -0.0629
10348SOL    HW143103   2.441   1.984   3.968  0.9476 -1.0557  0.8304
10348SOL    HW243104   2.351   2.116   3.999 -0.4719 -1.5131 -1.2309
10349SOL     OW43105   1.386   7.375   3.447 -0.4099 -0.4000  0.2038
10349SOL    HW143106   1.444   7.373   3.366  0.0995 -0.8257  0.5690
10349SOL    HW243107   1.366   7.469   3.472 -1.5261 -0.2969 -1.0892
10350SOL     OW43108   4.527   0.685   4.225  0.1932 -0.3409 -0.3968
10350SOL    HW143109   4.531   0.602   4.282  0.8496  0.0136  0.0849
10350SOL    HW243110   4.545   0.660   4.130 -3.3469 -1.3121 -0.8979
10351SOL     OW43111   0.505   5.043   7.930 -0.2916  0.1459  0.3502
10351SOL    HW143112   0.463   5.038   8.020 -1.6758 -0.5868 -0.3253
10351SOL    HW243113   0.478   5.128   7.885  1.5244  1.1866  1.1523
10352SOL     OW43114   9.075   2.975   7.510 -0.3660  0.3050 -0.2820
10352SOL    HW143115   9.148   2.916   7.545 -0.3843  0.4339 -0.0270
10352SOL    HW243116   9.115   3.062   7.480 -0.2554 -0.0415 -1.1833
10353SOL     OW43117   0.005   2.285   5.185  0.0044 -0.5156  0.9977
10353SOL    HW143118   0.037   2.373   5.221  1.2787 -0.6156  0.1480
10353SOL    HW243119  -0.094   2.287   5.173  0.2876  1.5766 -1.1394
10354SOL     OW43120   7.877   2.254   8.689 -0.3716 -0.5113 -0.0747
10354SOL    HW143121   7.960   2.198   8.693 -0.6095 -0.8580  0.0140
10354SOL    HW243122   7.820   2.224   8.612  0.5228  1.0348 -1.3708
10355SOL     OW43123   4.572   3.125   9.904  0.4494 -0.2741 -0.3242
10355SOL    HW143124   4.500   3.091   9.965  0.9951 -0.9233 -0.0455
10355SOL    HW243125   4.627   3.193   9.952  1.7314 -1.7707  0.3753
10356SOL     OW43126   3.744   5.468   7.628 -0.1510 -0.1193 -0.0721
10356SOL    HW143127   3.698   5.451   7.541 -0.4783  1.2374 -0.1882
10356SOL    HW243128   3.843   5.474   7.614 -0.1292 -0.7631 -0.2015
10357SOL     OW43129   1.079   8.580   5.689 -0.1790  0.2047  0.3558
10357SOL    HW143130   1.176   8.598   5.672 -0.0514  0.6911  1.5298
10357SOL    HW243131   1.050   8.499   5.638  1.1547 -0.6735  0.9796
10358SOL     OW43132   2.120   5.549   2.567 -0.1414  0.2277 -0.1624
10358SOL    HW143133   2.024   5.557   2.593 -0.0404  0.0565  0.2680
10358SOL    HW243134   2.164   5.480   2.624  0.4965  1.0605  0.3704
10359SOL     OW43135   1.684   1.239   2.822 -0.1935 -0.3496 -0.6549
10359SOL    HW143136   1.624   1.313   2.789 -2.5299 -1.9160 -0.0507
10359SOL    HW243137   1.635   1.152   2.816  2.0239 -1.6604 -0.0216
10360SOL     OW43138   1.566   5.024   7.339  0.1542 -0.9532 -0.2834
10360SOL    HW143139   1.572   4.988   7.431 -0.4131 -1.5850 -0.4946
10360SOL    HW243140   1.653   5.010   7.292  0.4546 -0.5980  0.1616
10361SOL     OW43141   0.865   3.477   3.131 -0.8188  0.3549 -0.6772
10361SOL    HW143142   0.790   3.422   3.167 -0.6341  0.2270 -0.4856
10361SOL    HW243143   0.884   3.552   3.194 -0.9098  0.4950 -0.8178
10362SOL     OW43144   1.191   8.504   2.374 -0.0647  0.2776  0.2874
10362SOL    HW143145   1.189   8.443   2.295  1.4320  0.9809 -0.3187
10362SOL    HW243146   1.106   8.495   2.425 -0.4257 -1.3059 -0.5501
10363SOL     OW43147   0.115   1.547   3.378  0.2350 -0.6450  0.2462
10363SOL    HW143148   0.197   1.502   3.414  0.1735 -0.3867  0.7148
10363SOL    HW243149   0.065   1.590   3.453 -0.7563 -1.4752  0.0724
10364SOL     OW43150   2.239   6.680   1.330  0.1204  0.3841  0.0132
10364SOL    HW143151   2.237   6.778   1.308 -0.4198  0.3982  0.1193
10364SOL    HW243152   2.207   6.628   1.251 -0.3197  0.3399  0.2189
10365SOL     OW43153   4.280   2.290   6.749 -0.6141 -0.2615  0.3053
10365SOL    HW143154   4.240   2.221   6.689 -0.0073  0.6051 -1.1337
10365SOL    HW243155   4.252   2.381   6.720  0.3438  0.2194  0.8276
10366SOL     OW43156   9.590   9.925   0.383 -0.6392 -0.3404  0.0287
10366SOL    HW143157   9.612  10.022   0.368 -0.1248 -0.3070  0.9802
10366SOL    HW243158   9.675   9.873   0.394 -0.9084 -0.9295 -0.6345
10367SOL     OW43159   8.748   2.664   8.363 -0.3537 -0.4884 -0.1831
10367SOL    HW143160   8.781   2.686   8.271  0.3502  0.0195  0.1899
10367SOL    HW243161   8.706   2.573   8.362  1.4370 -1.3431 -0.5804
10368SOL     OW43162   2.521   1.158   0.573  0.8941  0.2133 -0.6049
10368SOL    HW143163   2.461   1.232   0.542  2.0721  0.8121 -1.5076
10368SOL    HW243164   2.614   1.193   0.583  0.9801 -0.5387  1.4505
10369SOL     OW43165   0.861   3.225   7.162 -0.2118  0.1057  0.4344
10369SOL    HW143166   0.912   3.305   7.193  2.0818 -1.2891  0.3098
10369SOL    HW243167   0.912   3.178   7.090 -1.1604 -1.9204  1.0569
10370SOL     OW43168   3.398   2.821   2.489  0.0354  0.0090 -0.1472
10370SOL    HW143169   3.379   2.903   2.543 -1.6610 -0.2053 -0.3644
10370SOL    HW243170   3.371   2.837   2.394  1.9779  0.0115 -0.7135
10371SOL     OW43171   0.968   8.829   5.593  0.2709 -0.5496  0.0619
10371SOL    HW143172   0.998   8.739   5.623  0.9188 -0.7618 -1.1811
10371SOL    HW243173   0.926   8.822   5.502  1.9561  0.6410 -0.8473
10372SOL     OW43174   2.997   0.852   9.375 -0.3369  0.0627  0.3379
10372SOL    HW143175   3.040   0.922   9.432 -1.9623  1.2337  0.1594
10372SOL    HW243176   3.004   0.878   9.278 -0.7682 -0.1097  0.2570
10373SOL     OW43177   4.874   9.469   6.044  0.0534 -0.0244 -0.0059
10373SOL    HW143178   4.945   9.518   6.095 -1.0588  0.9928  0.5970
10373SOL    HW243179   4.904   9.455   5.950  0.9215  0.6801  0.1623
10374SOL     OW43180   3.607   4.767   5.048 -0.4541 -0.0610 -0.2866
10374SOL    HW143181   3.657   4.775   4.961  1.7312 -3.4900  0.5354
10374SOL    HW243182   3.549   4.686   5.045 -0.9637  0.2506  1.1567
10375SOL     OW43183   6.302   1.297   9.436  0.0230  0.0225 -0.2854
10375SOL    HW143184   6.299   1.397   9.431  0.9668  0.0456 -0.5103
10375SOL    HW243185   6.351   1.270   9.519 -1.1527 -0.2630  0.3243
10376SOL     OW43186   8.759   5.113   8.678  0.4740  0.2911  0.2853
10376SOL    HW143187   8.706   5.094   8.596  0.9559  1.2533 -0.2521
10376SOL    HW243188   8.698   5.118   8.757 -0.6556  4.4515 -0.7555
10377SOL     OW43189   0.999   6.643   6.466  0.2456  0.0261 -0.1899
10377SOL    HW143190   0.932   6.571   6.487  0.8625  0.1323  2.2595
10377SOL    HW243191   0.950   6.728   6.446 -0.3901  0.7823  4.1267
10378SOL     OW43192   0.900   1.662   4.038  0.3656  0.1491  0.1959
10378SOL    HW143193   0.971   1.704   3.982 -0.1066 -0.2998 -0.7555
10378SOL    HW243194   0.810   1.689   4.004  0.0757 -0.2144  0.6681
10379SOL     OW43195   9.199   7.037   4.337 -0.4573  0.5074  0.0629
10379SOL    HW143196   9.222   7.118   4.390 -1.9209  1.0831 -0.1363
10379SOL    HW243197   9.190   7.062   4.240 -0.5943  0.0445 -0.0445
10380SOL     OW43198   0.185   3.673   2.230 -0.0835 -0.3085  0.0532
10380SOL    HW143199   0.114   3.705   2.167 -0.3380  0.3564  0.6602
10380SOL    HW243200   0.258   3.741   2.236 -0.3198 -0.1117  0.8710
10381SOL     OW43201   0.544   8.136   8.119 -0.4198  0.5974 -0.1736
10381SOL    HW143202   0.526   8.177   8.208  1.2668 -0.4828  0.6955
10381SOL    HW243203   0.458   8.123   8.070 -1.1585  3.2680  0.3486
10382SOL     OW43204   8.178   0.396   0.342  0.1637 -0.0849  0.6014
10382SOL    HW143205   8.117   0.457   0.293 -0.8079 -1.3641  0.1917
10382SOL    HW243206   8.273   0.415   0.316 -0.1223  1.2487  0.5061
10383SOL     OW43207   2.202   9.771   2.512 -0.8828  0.4570  0.2517
10383SOL    HW143208   2.235   9.698   2.571 -0.2689  1.5790  1.3118
10383SOL    HW243209   2.118   9.741   2.466 -0.1920 -1.1961  0.0405
10384SOL     OW43210   9.795   5.367   3.709  0.3137 -0.8131  0.1307
10384SOL    HW143211   9.852   5.438   3.751 -3.0715  1.6195  0.9016
10384SOL    HW243212   9.765   5.303   3.779  0.4780 -0.9305  0.0941
10385SOL     OW43213   4.867   2.468   8.647 -0.5587 -0.4397  0.0181
10385SOL    HW143214   4.962   2.439   8.648 -0.7766 -1.1691 -0.4041
10385SOL    HW243215   4.849   2.520   8.563 -1.3030 -2.9377 -1.4285
10386SOL     OW43216   8.600   9.378   3.693 -0.1153 -0.5408 -0.0643
10386SOL    HW143217   8.598   9.353   3.790  2.0465 -2.4961 -0.4932
10386SOL    HW243218   8.611   9.477   3.685  0.8732 -0.4895  1.6750
10387SOL     OW43219   9.122   3.889   4.568 -0.5208 -0.1597 -0.1576
10387SOL    HW143220   9.103   3.974   4.520 -0.3183 -0.1631 -0.2459
10387SOL    HW243221   9.195   3.904   4.636 -3.3664  0.7652  2.8343
10388SOL     OW43222   2.722   2.185   5.632  0.3720 -0.3321 -0.5685
10388SOL    HW143223   2.628   2.189   5.599  0.1836 -1.6924 -0.2456
10388SOL    HW243224   2.728   2.121   5.708  1.5847 -0.3530 -0.6639
10389SOL     OW43225   1.449   7.617   5.487 -0.0301  0.0714 -0.2209
10389SOL    HW143226   1.425   7.667   5.405 -0.1383 -0.3321 -0.4388
10389SOL    HW243227   1.525   7.663   5.534  0.1254  0.2229 -0.6218
10390SOL     OW43228   8.798   3.730   1.810 -0.3623 -0.0483  0.5475
10390SOL    HW143229   8.788   3.644   1.761  1.1797  0.1631 -0.1723
10390SOL    HW243230   8.845   3.715   1.897  2.1923  0.3727 -0.6991
10391SOL     OW43231   2.312   5.993   8.982 -0.0584  0.5429 -0.1363
10391SOL    HW143232   2.236   6.020   8.924  0.0072  2.4013  0.6184
10391SOL    HW243233   2.330   6.064   9.050  2.3462  0.1451 -0.2977
10392SOL     OW43234   4.551   8.931   4.191 -0.1131  0.3350 -0.7004
10392SOL    HW143235   4.575   8.835   4.199 -0.9077  0.2107  0.3041
10392SOL    HW243236   4.494   8.944   4.109 -2.3042 -0.5362  0.6432
10393SOL     OW43237   9.163   1.459   3.589  0.9495 -0.3580 -0.3018
10393SOL    HW143238   9.208   1.391   3.647  1.6927  1.1391  0.9056
10393SOL    HW243239   9.107   1.412   3.521 -0.1024 -2.1638  1.7294
10394SOL     OW43240   1.854   1.519   7.599  0.2158  0.2550  0.5607
10394SOL    HW143241   1.886   1.426   7.617 -0.1232  0.2127  0.9458
10394SOL    HW243242   1.811   1.556   7.681 -0.9657  0.2147 -0.0317
10395SOL     OW43243   4.649   1.737   0.800  0.2021 -0.3422  0.1968
10395SOL    HW143244   4.621   1.739   0.896  0.9465 -2.5795  0.4798
10395SOL    HW243245   4.598   1.666   0.752  1.0696 -0.3979 -0.6529
10396SOL     OW43246   1.260   9.919   0.933 -0.1921 -0.0522  0.0046
10396SOL    HW143247   1.230   9.915   1.029  1.2149  0.2208  0.4654
10396SOL    HW243248   1.253  10.013   0.900 -2.6547 -0.4830 -0.8327
10397SOL     OW43249   1.442   1.780   2.290 -0.5994 -0.3358 -0.5332
10397SOL    HW143250   1.388   1.861   2.267  0.6355  0.3407 -1.0433
10397SOL    HW243251   1.467   1.731   2.206  1.1443  0.3652 -0.4386
10398SOL     OW43252   0.150   8.372   3.837  0.5823 -0.0430 -0.1728
10398SOL    HW143253   0.105   8.424   3.909  1.1978 -1.1242  1.0008
10398SOL    HW243254   0.129   8.413   3.748  3.1341  3.7422  0.8787
10399SOL     OW43255   3.198   5.835   4.368  0.2866 -0.3506 -0.0774
10399SOL    HW143256   3.262   5.822   4.443  0.0922 -0.2692  0.1030
10399SOL    HW243257   3.248   5.859   4.285  0.5774 -1.3405 -0.1995
10400SOL     OW43258   4.427   0.885   0.585 -0.1655  0.7220  0.1124
10400SOL    HW143259   4.454   0.972   0.627 -0.0567  0.8956 -0.3211
10400SOL    HW243260   4.398   0.822   0.657  2.5266  0.1174  0.6897
10401SOL     OW43261   7.342   1.344   2.133  0.3446  0.3152 -0.0168
10401SOL    HW143262   7.435   1.379   2.146  0.4304 -0.5741  1.9477
10401SOL    HW243263   7.344   1.260   2.081  0.8075 -0.5355  1.3519
10402SOL     OW43264   6.528   0.779   6.508  0.5451 -0.0390  0.6664
10402SOL    HW143265   6.498   0.784   6.412  1.0345 -0.9352  0.4606
10402SOL    HW243266   6.464   0.830   6.565  0.9322  1.5506 -0.2854
10403SOL     OW43267   9.926   3.682   8.821 -1.0883 -0.3297 -0.2901
10403SOL    HW143268   9.846   3.622   8.822 -0.5982 -0.9852  1.6445
10403SOL    HW243269   9.981   3.662   8.740 -0.7327 -2.8313  0.5018
10404SOL     OW43270   6.921   2.264   1.325  0.0235 -0.0773 -0.3786
10404SOL    HW143271   6.905   2.167   1.343  1.1170  0.0732  1.6608
10404SOL    HW243272   6.845   2.302   1.273 -2.6141 -1.0117  2.6039
10405SOL     OW43273   9.051   7.449   6.632  0.0855  0.4595 -0.3864
10405SOL    HW143274   9.144   7.417   6.615  0.1101  1.0181 -1.3094
10405SOL    HW243275   9.054   7.542   6.667 -0.0269 -0.2436  1.6003
10406SOL     OW43276   3.092   9.552   7.991 -0.3392 -0.7830  0.1531
10406SOL    HW143277   3.154   9.528   7.916 -0.6017  1.2146 -0.7362
10406SOL    HW243278   3.071   9.470   8.045  0.3013 -2.1326 -1.6137
10407SOL     OW43279   9.230   9.808   0.495 -0.4356 -0.4632  0.2655
10407SOL    HW143280   9.285   9.742   0.546  2.0331  0.9766 -0.4572
10407SOL    HW243281   9.222   9.893   0.548 -0.2903  0.0266 -0.4867
10408SOL     OW43282   6.188   2.005   5.142 -0.3597 -0.3343 -0.3388
10408SOL    HW143283   6.193   1.914   5.101 -0.2649 -0.5263  0.0965
10408SOL    HW243284   6.107   2.011   5.200  1.3092 -1.2195  2.1905
10409SOL     OW43285   2.689   0.593   0.277 -0.3734 -0.1714 -0.4172
10409SOL    HW143286   2.742   0.519   0.236 -0.1716  0.0547 -0.5705
10409SOL    HW243287   2.649   0.563   0.363 -0.6245 -0.5842 -0.6783
10410SOL     OW43288   8.379   8.930   1.793 -0.5835  0.2892 -0.4402
10410SOL    HW143289   8.300   8.991   1.790 -0.1790  0.9191  1.2449
10410SOL    HW243290   8.451   8.965   1.733 -0.5360  1.2205  0.1474
10411SOL     OW43291   0.249   7.944   0.595  0.7959  0.3202  0.4960
10411SOL    HW143292   0.194   8.003   0.536  2.7919  0.5742 -1.1568
10411SOL    HW243293   0.320   7.998   0.640  0.6739 -0.2705  1.4215
10412SOL     OW43294   1.983   5.377   1.276  0.7286  0.1680 -0.4664
10412SOL    HW143295   2.073   5.379   1.321  1.2350 -0.9129 -1.3780
10412SOL    HW243296   1.930   5.457   1.303  1.4821  0.1590  1.0868
10413SOL     OW43297   9.810   6.525   8.243 -0.6310  0.2883  0.5616
10413SOL    HW143298   9.876   6.499   8.173 -0.8567 -0.4139  0.6118
10413SOL    HW243299   9.763   6.609   8.215 -0.6874  0.0356 -0.1073
10414SOL     OW43300   3.499   6.882   9.122 -0.1881  0.1256 -0.3145
10414SOL    HW143301   3.547   6.927   9.197 -1.6512  2.9597 -1.0139
10414SOL    HW243302   3.439   6.812   9.159  0.8301 -0.1029  0.9608
10415SOL     OW43303   8.088   2.860   4.805 -0.4640  0.2309 -0.3750
10415SOL    HW143304   8.081   2.763   4.784  0.6038 -0.3350  1.6917
10415SOL    HW243305   8.013   2.887   4.866  0.0579  0.3327  0.2385
10416SOL     OW43306   1.718   2.375   3.118 -0.1320 -0.7056 -0.3147
10416SOL    HW143307   1.810   2.341   3.141  0.7249  0.8331 -1.3751
10416SOL    HW243308   1.721   2.474   3.109 -1.7397 -0.7262 -1.1856
10417SOL     OW43309   2.545   8.230   9.109 -0.0120 -0.2416 -0.4855
10417SOL    HW143310   2.541   8.202   9.205  0.0099 -1.2176 -0.7644
10417SOL    HW243311   2.505   8.321   9.100 -2.1442 -1.0735  0.1070
10418SOL     OW43312   8.086   6.771   5.718 -0.4570 -0.2823 -0.1179
10418SOL    HW143313   8.126   6.826   5.792  0.8557 -0.6043 -0.5779
10418SOL    HW243314   8.094   6.674   5.741 -0.2121 -0.3771 -0.6069
10419SOL     OW43315   4.894   5.290   1.528  0.4565 -0.5778 -0.3936
10419SOL    HW143316   4.820   5.260   1.588  0.8005 -0.6016  0.0151
10419SOL    HW243317   4.942   5.367   1.569  0.9464 -0.8522 -0.4460
10420SOL     OW43318   6.730   0.559   8.229  0.0445  0.3396 -0.5397
10420SOL    HW143319   6.651   0.542   8.171  0.1139  0.7818 -0.7658
10420SOL    HW243320   6.703   0.552   8.325  0.0824 -1.0805 -0.6181
10421SOL     OW43321   3.926   8.926   4.145 -0.6578 -0.2335 -0.7408
10421SOL    HW143322   3.914   8.852   4.078 -0.2931 -1.9288  1.0042
10421SOL    HW243323   3.993   8.991   4.110  0.5404 -1.8121 -1.4736
10422SOL     OW43324   6.049   1.435   4.453  0.2618  0.3775 -0.0018
10422SOL    HW143325   6.102   1.356   4.423 -0.1181  0.0854  0.0895
10422SOL    HW243326   6.063   1.511   4.389 -1.6417 -0.6852 -1.7379
10423SOL     OW43327   0.734   9.801   4.002 -0.4437  0.0286  0.4498
10423SOL    HW143328   0.726   9.797   4.102 -0.8963 -0.5039  0.3915
10423SOL    HW243329   0.795   9.877   3.977 -0.9003  0.6141  1.0974
10424SOL     OW43330   2.127   9.958   2.721  0.3751  0.6696  0.1536
10424SOL    HW143331   2.031   9.936   2.739 -0.2149  1.2899 -2.1896
10424SOL    HW243332   2.156   9.918   2.634  1.2727  3.2817 -0.8049
10425SOL     OW43333   2.532   6.456   4.144  0.7933 -0.5303 -0.4421
10425SOL    HW143334   2.616   6.496   4.106  0.7791  0.2229  0.3193
10425SOL    HW243335   2.553   6.365   4.180  0.8701 -1.1409 -1.9767
10426SOL     OW43336   6.463   0.175   1.631  0.0803  0.1076  0.1788
10426SOL    HW143337   6.423   0.241   1.567 -0.5133 -0.5140 -0.1012
10426SOL    HW243338   6.501   0.098   1.580  0.0205 -0.1693  0.5454
10427SOL     OW43339   2.971   9.666   2.377 -0.1457  0.2043  0.8465
10427SOL    HW143340   2.916   9.734   2.424 -0.2134  1.2635 -0.7342
10427SOL    HW243341   2.942   9.660   2.281  3.1887  1.5887 -0.3194
10428SOL     OW43342   8.456   8.329   4.777  0.1082 -0.3479  0.2670
10428SOL    HW143343   8.550   8.326   4.746  0.2060  0.0392  0.5227
10428SOL    HW243344   8.411   8.411   4.740  0.0807 -0.1528  0.7306
10429SOL     OW43345   2.753   1.842   6.692 -0.3133 -0.0870  0.2226
10429SOL    HW143346   2.803   1.897   6.759 -0.4467 -0.4225  0.5952
10429SOL    HW243347   2.678   1.896   6.654  0.4529  0.5062 -0.5076
10430SOL     OW43348   2.053   8.673   9.623  0.5326  0.6389  0.2095
10430SOL    HW143349   2.008   8.691   9.535  0.5199 -0.0520  0.0690
10430SOL    HW243350   2.017   8.735   9.692  0.5997  1.2458 -0.2898
10431SOL     OW43351   7.967   3.182   3.236  0.3391 -1.0043  0.2635
10431SOL    HW143352   7.911   3.221   3.163  0.8324  0.3104  0.5746
10431SOL    HW243353   8.018   3.104   3.200  0.3404 -0.5663 -0.7189
10432SOL     OW43354   9.665   3.745   3.343  0.7107  0.1451 -0.4306
10432SOL    HW143355   9.567   3.761   3.352  0.9700  1.3499  0.3915
10432SOL    HW243356   9.685   3.709   3.251 -0.2080  2.3588 -1.5469
10433SOL     OW43357   8.586   8.816   1.146 -0.9064  0.0928  0.2754
10433SOL    HW143358   8.568   8.782   1.238  0.9280  0.2111  0.6949
10433SOL    HW243359   8.538   8.760   1.079 -1.5637 -0.5093  1.2510
10434SOL     OW43360   9.726   3.343   2.392  0.3097  0.4013 -0.4496
10434SOL    HW143361   9.682   3.293   2.467 -0.9344  1.0545 -0.7321
10434SOL    HW243362   9.688   3.312   2.305  1.8354 -0.4363 -0.8453
10435SOL     OW43363   9.913   1.440   4.552 -0.6094  0.1317 -0.3117
10435SOL    HW143364   9.813   1.432   4.561 -0.7834  1.4368 -0.9162
10435SOL    HW243365   9.935   1.527   4.508  0.8267  0.0655  0.2624
10436SOL     OW43366   0.114   9.121   3.549 -0.6904  0.3529 -0.3596
10436SOL    HW143367   0.184   9.191   3.562  0.9161 -1.0194 -1.4194
10436SOL    HW243368   0.153   9.031   3.565 -2.8067 -0.3225  1.2524
10437SOL     OW43369   0.547   5.861   3.445 -0.3424  0.0621 -0.4266
10437SOL    HW143370   0.576   5.834   3.353 -0.3440 -1.3436 -0.0177
10437SOL    HW243371   0.467   5.808   3.472 -0.3272  0.4507  0.4012
10438SOL     OW43372   2.545   6.748   7.884  0.5968  0.2253  0.2368
10438SOL    HW143373   2.507   6.839   7.865  1.6399  0.7719  0.7279
10438SOL    HW243374   2.637   6.742   7.845  0.2275 -0.9048 -0.4938
10439SOL     OW43375   4.509   1.299   7.027  0.0814  0.3001  0.3992
10439SOL    HW143376   4.475   1.290   6.934  2.1347 -2.4004 -0.1578
10439SOL    HW243377   4.546   1.391   7.041 -0.4794  0.8027 -1.3571
10440SOL     OW43378   0.937   4.283   2.589 -0.1085  0.2721 -0.1107
10440SOL    HW143379   0.937   4.383   2.581 -0.6973  0.3077  0.2732
10440SOL    HW243380   0.929   4.242   2.498  0.3124  0.5714 -0.2843
10441SOL     OW43381   5.936   0.030   7.795 -0.1678 -0.3379 -0.3316
10441SOL    HW143382   5.860   0.093   7.784 -0.5668 -0.6994  0.3195
10441SOL    HW243383   5.929  -0.043   7.726  1.6198  1.6184 -2.6489
10442SOL     OW43384   0.327   1.515   8.896 -0.2318  0.1762  0.2361
10442SOL    HW143385   0.420   1.505   8.931 -0.1670 -0.8470 -0.2248
10442SOL    HW243386   0.267   1.542   8.971 -0.0532 -1.8378  1.1380
10443SOL     OW43387   0.148   3.255   5.573  0.7441 -0.1258  0.1971
10443SOL    HW143388   0.131   3.322   5.645  1.6622  0.6811 -0.3163
10443SOL    HW243389   0.106   3.287   5.488  0.4223 -0.6343  0.1680
10444SOL     OW43390   7.503   0.750   3.817 -0.3125 -0.1591 -0.0153
10444SOL    HW143391   7.539   0.779   3.906 -2.0173  0.0391  0.6270
10444SOL    HW243392   7.563   0.680   3.778 -0.4118 -1.4245  2.0292
10445SOL     OW43393   3.470   3.359   8.812  0.0351  0.6353 -0.2767
10445SOL    HW143394   3.376   3.372   8.843  0.6932  0.6576  1.8239
10445SOL    HW243395   3.474   3.285   8.746 -1.2078 -0.6037  1.0092
10446SOL     OW43396   8.653   4.424   3.362  0.0715 -0.1119 -0.1294
10446SOL    HW143397   8.675   4.522   3.364  1.7182 -0.5004  1.3428
10446SOL    HW243398   8.642   4.391   3.456 -0.5631 -1.3405 -0.6281
10447SOL     OW43399   8.233   6.100   1.214 -0.1068 -0.2072 -0.0319
10447SOL    HW143400   8.231   6.199   1.206  1.4630 -0.2436 -1.2536
10447SOL    HW243401   8.187   6.060   1.134  0.3856 -0.4657 -0.1862
10448SOL     OW43402   0.529   1.173   5.086  0.7028 -0.1905 -0.1137
10448SOL    HW143403   0.616   1.202   5.127  1.2499 -2.9515  0.8544
10448SOL    HW243404   0.453   1.212   5.138  1.3928 -0.1437  0.8853
10449SOL     OW43405   2.388   0.848   0.657  0.3643  0.4858 -0.0296
10449SOL    HW143406   2.479   0.877   0.629  0.5185  1.0097  0.9879
10449SOL    HW243407   2.394   0.791   0.738 -0.2859  1.4096  0.6828
10450SOL     OW43408   4.478   0.922   5.715 -0.6160 -0.1977  0.2018
10450SOL    HW143409   4.456   0.850   5.650 -0.4000 -1.0304  1.0465
10450SOL    HW243410   4.401   0.937   5.777  0.5904 -2.1107  2.2282
10451SOL     OW43411   8.832   2.485   6.413  0.2015 -0.7434  0.3895
10451SOL    HW143412   8.889   2.433   6.476  0.8142 -0.2291  0.2615
10451SOL    HW243413   8.889   2.545   6.358 -0.6981  2.1487  2.4675
10452SOL     OW43414   0.729   9.093   3.046  0.1859  0.1801  0.5683
10452SOL    HW143415   0.744   9.001   3.009  0.3130 -0.9509  3.3287
10452SOL    HW243416   0.798   9.112   3.117 -1.7947  1.1288  2.2882
10453SOL     OW43417   1.377   3.766   2.645 -0.4585  0.1615  0.3506
10453SOL    HW143418   1.334   3.687   2.600 -1.1646  0.3249  0.7370
10453SOL    HW243419   1.410   3.739   2.735  0.7369 -0.1021 -0.1609
10454SOL     OW43420   4.165   2.798   0.420 -0.3352 -0.2240  0.1111
10454SOL    HW143421   4.252   2.771   0.378 -0.3287  1.1952 -0.8270
10454SOL    HW243422   4.101   2.828   0.349 -0.9598  0.4604  0.9490
10455SOL     OW43423   1.611   1.327   5.754 -0.6856 -0.2496  0.2033
10455SOL    HW143424   1.526   1.339   5.701 -0.5101 -1.1415 -0.2825
10455SOL    HW243425   1.623   1.406   5.815 -1.7349  0.0049  0.0970
10456SOL     OW43426   1.620   7.779   5.599 -0.3270 -0.4235  0.2889
10456SOL    HW143427   1.703   7.784   5.653  0.0638 -2.2924 -0.1167
10456SOL    HW243428   1.635   7.823   5.510 -0.3252  0.7764  0.8731
10457SOL     OW43429   1.568   7.579   8.482 -0.3940  0.2778 -0.0788
10457SOL    HW143430   1.536   7.490   8.449 -0.4397 -0.3052  1.4708
10457SOL    HW243431   1.489   7.635   8.509 -0.4572  1.3800 -2.4461
10458SOL     OW43432   5.189   3.378   8.559 -0.2672 -0.0020  0.2848
10458SOL    HW143433   5.254   3.447   8.593  0.2326 -1.4560  2.3609
10458SOL    HW243434   5.097   3.402   8.589 -0.2065  0.2394  0.2804
10459SOL     OW43435   1.844   1.093   0.258  0.4380 -0.0418 -0.8714
10459SOL    HW143436   1.895   1.109   0.342  0.0262  0.0823 -0.6431
10459SOL    HW243437   1.884   1.147   0.184  0.3210  0.4516 -0.5753
10460SOL     OW43438   0.944   9.438   1.436 -0.2488  0.0506  0.0322
10460SOL    HW143439   0.882   9.378   1.386 -1.1396 -1.4476  2.7844
10460SOL    HW243440   0.893   9.489   1.505  1.0520  1.4167  0.0035
10461SOL     OW43441   5.604   2.272   4.755 -0.6672 -0.2718  0.2994
10461SOL    HW143442   5.561   2.193   4.711  0.0325 -0.3006 -0.3309
10461SOL    HW243443   5.671   2.313   4.693  0.4420 -0.4142  1.3886
10462SOL     OW43444   4.646   1.735   4.493 -0.2690  0.3798  0.2273
10462SOL    HW143445   4.580   1.748   4.567 -2.1726  2.0827 -1.6726
10462SOL    HW243446   4.597   1.733   4.405  2.1632  1.0630 -1.1977
10463SOL     OW43447   1.379   0.814   3.751  0.1661  0.6544  0.3152
10463SOL    HW143448   1.416   0.734   3.800  0.6579 -0.0613 -1.2034
10463SOL    HW243449   1.356   0.885   3.817  0.6939 -0.3525  1.6099
10464SOL     OW43450   8.883   7.802   8.571 -0.2612 -0.0080 -0.3891
10464SOL    HW143451   8.800   7.748   8.555 -1.0066 -0.1989  3.6678
10464SOL    HW243452   8.952   7.744   8.614 -0.6006  1.8414  2.8011
10465SOL     OW43453   5.997   1.390   3.987 -0.1431  0.1232  0.3239
10465SOL    HW143454   5.946   1.361   4.068 -0.8713 -0.4833 -0.3447
10465SOL    HW243455   5.934   1.425   3.919  0.4411  0.3610 -0.0969
10466SOL     OW43456   7.653   6.231   3.324  0.2078 -0.7537 -0.5195
10466SOL    HW143457   7.753   6.224   3.329  0.1389 -0.1076  2.5094
10466SOL    HW243458   7.612   6.142   3.345  0.1078 -0.6785 -0.3984
10467SOL     OW43459   9.060   0.221   0.717 -0.2941  0.5527  0.8064
10467SOL    HW143460   9.053   0.293   0.648 -1.3170  0.9295  1.2862
10467SOL    HW243461   9.093   0.261   0.802 -1.4789  0.5952  1.2584
10468SOL     OW43462   4.018   8.280   9.620 -0.6863  0.0489  0.1788
10468SOL    HW143463   3.997   8.361   9.567 -0.9532  0.4502  0.8853
10468SOL    HW243464   3.962   8.203   9.589 -0.1190  0.0111 -0.7823
10469SOL     OW43465   7.692   9.757   2.046 -0.1296 -0.4536 -0.2430
10469SOL    HW143466   7.745   9.728   2.126 -1.0008 -0.0472  0.4951
10469SOL    HW243467   7.697   9.687   1.975 -0.6709 -1.5681  0.7950
10470SOL     OW43468   2.422   0.856   6.982 -0.0879  0.2994 -0.5511
10470SOL    HW143469   2.385   0.837   7.073 -1.2671  0.2450 -1.0310
10470SOL    HW243470   2.458   0.949   6.980  0.0769  0.2523  0.0072
10471SOL     OW43471   0.938   0.329   5.294  0.2451 -0.1534  0.7174
10471SOL    HW143472   0.901   0.311   5.202 -0.4094 -0.3332  1.0103
10471SOL    HW243473   0.946   0.427   5.308  2.4428 -0.1463 -0.3474
10472SOL     OW43474   2.597   0.594   5.630 -0.2880  0.4359 -0.3047
10472SOL    HW143475   2.497   0.596   5.637 -0.3896 -1.5992 -0.8875
10472SOL    HW243476   2.635   0.551   5.711  0.2059  2.3138  0.4749
10473SOL     OW43477   9.760   0.726   7.942 -0.1134  0.4863 -0.1060
10473SOL    HW143478   9.753   0.819   7.977  0.9756  0.7410 -0.5607
10473SOL    HW243479   9.697   0.713   7.865  0.0043  0.9425 -0.2737
10474SOL     OW43480   1.617   6.614   1.318  0.2377  0.2209 -0.8253
10474SOL    HW143481   1.544   6.547   1.307  0.2116 -0.4522  2.9077
10474SOL    HW243482   1.587   6.703   1.283 -1.1685 -0.7568 -2.1607
10475SOL     OW43483   9.829   4.805   4.854 -0.6901  0.0064 -0.0892
10475SOL    HW143484   9.921   4.783   4.886 -0.2310  0.6633 -0.9538
10475SOL    HW243485   9.809   4.901   4.874 -1.8956 -0.5920  1.7643
10476SOL     OW43486   6.760   7.502   6.646 -0.7575 -0.3070 -0.1519
10476SOL    HW143487   6.686   7.460   6.699 -0.7465  0.1680  0.2449
10476SOL    HW243488   6.847   7.462   6.675 -0.8675 -0.9612 -0.7133
10477SOL     OW43489   4.719   3.794   1.351 -0.3173  0.2715  1.0935
10477SOL    HW143490   4.794   3.802   1.286 -0.3152 -1.2711  0.8825
10477SOL    HW243491   4.714   3.700   1.386 -2.5473  0.1763  0.6044
10478SOL     OW43492   2.539   0.131   6.990  0.6373  0.1615  0.1847
10478SOL    HW143493   2.559   0.135   6.893  0.4610  0.4445  0.1613
10478SOL    HW243494   2.614   0.084   7.038  0.0589 -1.2884 -0.2850
10479SOL     OW43495   3.437   2.620   5.937 -0.2166  0.3725 -0.2087
10479SOL    HW143496   3.417   2.538   5.992 -1.2600  0.9458  0.2879
10479SOL    HW243497   3.434   2.596   5.840 -0.6701 -0.1487 -0.0676
10480SOL     OW43498   2.586   8.762   9.012  0.4598  0.1405  0.2373
10480SOL    HW143499   2.554   8.752   8.918  1.8477 -0.3416 -0.2071
10480SOL    HW243500   2.685   8.779   9.011  0.4041  0.5659  1.5908
10481SOL     OW43501   8.102   3.066   2.434 -0.5162  0.2296 -0.0213
10481SOL    HW143502   8.013   3.107   2.413  0.3604  2.3459  0.3319
10481SOL    HW243503   8.162   3.075   2.355 -0.3562 -0.5195  0.0124
10482SOL     OW43504   1.874   6.026   2.903 -0.3812 -0.1348  0.0698
10482SOL    HW143505   1.879   6.086   2.982 -0.6402  1.5391 -1.1571
10482SOL    HW243506   1.922   6.068   2.826 -0.4615 -1.5597 -0.7769
10483SOL     OW43507   9.242   8.334   8.627  0.2307  0.4286  0.3357
10483SOL    HW143508   9.328   8.301   8.589 -0.9306 -1.5542 -0.6288
10483SOL    HW243509   9.180   8.257   8.642 -1.9620  1.9832 -0.4613
10484SOL     OW43510   4.315   4.099   4.150  1.4387  0.8442 -0.0332
10484SOL    HW143511   4.315   4.086   4.249 -1.0181  0.3931 -0.0659
10484SOL    HW243512   4.261   4.180   4.128 -1.6181 -1.4326 -1.2436
10485SOL     OW43513   0.843   3.257   8.740 -0.3622  0.0686 -0.3162
10485SOL    HW143514   0.760   3.268   8.685  0.1546  0.0050 -1.1120
10485SOL    HW243515   0.857   3.338   8.796 -0.2757  0.6165 -1.1212
10486SOL     OW43516   0.307   6.391   0.108  0.7940  0.5070 -0.1878
10486SOL    HW143517   0.302   6.374   0.009 -0.1635  0.7491 -0.1823
10486SOL    HW243518   0.294   6.488   0.125 -2.2195  0.0201  0.4107
10487SOL     OW43519   3.790   1.095   6.833 -0.3627 -0.1892  0.3676
10487SOL    HW143520   3.889   1.086   6.823 -0.4625 -0.7201 -0.1986
10487SOL    HW243521   3.754   1.147   6.755 -0.1890  2.4978  2.0083
10488SOL     OW43522   6.421   0.815   6.247 -0.6501 -0.5224 -0.1131
10488SOL    HW143523   6.397   0.752   6.173 -1.3193 -0.1025 -0.2595
10488SOL    HW243524   6.480   0.887   6.211  3.5021 -3.2711  0.8887
10489SOL     OW43525   9.268   2.186   3.953 -0.1233  0.0684  0.4911
10489SOL    HW143526   9.308   2.098   3.927 -0.3301 -0.5065  2.0870
10489SOL    HW243527   9.172   2.188   3.926  0.3994  0.6122 -1.3947
10490SOL     OW43528   8.083   3.838   3.084  0.2290 -0.3556 -0.0308
10490SOL    HW143529   8.071   3.829   2.985 -1.6121 -1.8690  0.3096
10490SOL    HW243530   8.070   3.934   3.110  2.5623  0.3940 -1.4574
10491SOL     OW43531   8.879   8.940   6.364 -0.0833  0.3807  0.7848
10491SOL    HW143532   8.788   8.982   6.354  0.3855  0.6935 -2.6516
10491SOL    HW243533   8.886   8.862   6.302  1.6765 -0.2543  1.7682
10492SOL     OW43534   4.225   9.347   4.186  0.4600 -0.3684 -0.2308
10492SOL    HW143535   4.152   9.414   4.170  0.8140  0.0411 -0.1404
10492SOL    HW243536   4.227   9.321   4.282  0.6611 -0.1125 -0.1654
10493SOL     OW43537   4.709   6.596   0.690 -0.3794 -0.0521  0.3138
10493SOL    HW143538   4.751   6.520   0.640 -1.0641 -1.2532  1.5339
10493SOL    HW243539   4.775   6.632   0.756  0.3148  1.1325 -1.0050
10494SOL     OW43540   1.582   6.241   5.013  0.4304 -0.0634 -0.7048
10494SOL    HW143541   1.620   6.270   5.101  1.3367 -0.7687 -0.8533
10494SOL    HW243542   1.653   6.247   4.943  0.6846 -2.6422 -0.7292
10495SOL     OW43543   1.153   3.032   9.604  0.1519 -0.1431 -0.0250
10495SOL    HW143544   1.117   3.102   9.667  0.7052 -0.1340  0.2920
10495SOL    HW243545   1.096   3.028   9.522 -0.5192 -0.0786  0.4314
10496SOL     OW43546   6.606   0.111   6.344 -0.1832 -0.2339  0.0906
10496SOL    HW143547   6.585   0.014   6.356  1.6113 -0.8452 -1.3699
10496SOL    HW243548   6.673   0.121   6.270  2.4468  1.8126  2.6681
10497SOL     OW43549   3.749   4.144   2.953 -0.8376 -0.3495  0.4729
10497SOL    HW143550   3.690   4.080   2.904  1.1728 -0.4244 -1.9665
10497SOL    HW243551   3.733   4.237   2.920  1.1090 -0.5014 -1.0091
10498SOL     OW43552   4.071   2.113   1.430 -0.0556  0.2636 -0.3078
10498SOL    HW143553   4.105   2.204   1.453  1.5654 -0.1691 -0.9558
10498SOL    HW243554   4.053   2.062   1.514  0.8160  0.5252  0.0417
10499SOL     OW43555   4.109   3.616   8.600 -0.0125 -0.7792  0.0805
10499SOL    HW143556   4.032   3.575   8.552  0.4349 -1.5526  0.0172
10499SOL    HW243557   4.180   3.641   8.533  0.7048 -2.0627  0.3629
10500SOL     OW43558   7.777   2.724   5.658 -0.1650 -0.5248 -0.5262
10500SOL    HW143559   7.821   2.799   5.708  1.1990 -0.1323 -2.2273
10500SOL    HW243560   7.841   2.690   5.589 -0.8238 -3.1879  0.1391
10501SOL     OW43561   8.336   4.483   1.309  0.1841 -0.1448 -0.5735
10501SOL    HW143562   8.421   4.431   1.317  0.2673 -0.1088 -1.2078
10501SOL    HW243563   8.263   4.422   1.277 -0.2244 -0.3664  0.7396
10502SOL     OW43564   8.930   9.308   4.244 -0.1975  0.9418 -0.2915
10502SOL    HW143565   9.000   9.361   4.194  0.5621  0.7815  0.5846
10502SOL    HW243566   8.938   9.327   4.341 -1.5812  1.1377 -0.2120
10503SOL     OW43567   1.445   0.714   6.220  0.5596 -0.3962 -0.0891
10503SOL    HW143568   1.422   0.786   6.285  2.1042  0.2806 -0.2701
10503SOL    HW243569   1.431   0.625   6.264 -0.7514  0.0010  0.3399
10504SOL     OW43570   1.098   0.407   8.248 -0.1864  0.2561  0.3831
10504SOL    HW143571   1.111   0.336   8.317  0.2327  0.1471  0.1939
10504SOL    HW243572   1.047   0.484   8.288 -0.7493 -0.2023  0.5523
10505SOL     OW43573   2.483   4.979   2.794 -0.0207 -0.1748 -0.2187
10505SOL    HW143574   2.399   5.005   2.843  0.6539  0.3811  0.6451
10505SOL    HW243575   2.460   4.911   2.725 -1.5373  1.4862 -1.4110
10506SOL     OW43576   5.614   4.472   1.949 -0.0402  0.6652  0.0251
10506SOL    HW143577   5.534   4.491   1.892  0.7259 -0.3668 -1.4304
10506SOL    HW243578   5.618   4.374   1.969  0.4938  0.8134  0.6392
10507SOL     OW43579   0.465   8.830   2.511  0.3434 -0.2111  0.5773
10507SOL    HW143580   0.427   8.854   2.422  0.3267 -0.5303  0.4981
10507SOL    HW243581   0.558   8.795   2.500  0.6581  0.5427  0.7683
10508SOL     OW43582   3.853   8.631   4.267 -0.1412 -0.0444 -0.5499
10508SOL    HW143583   3.918   8.669   4.333 -0.2089 -2.4379  0.9470
10508SOL    HW243584   3.902   8.590   4.190  0.4154 -4.5912  2.0418
10509SOL     OW43585   3.682   6.481   3.405  0.2470  0.3873 -0.4305
10509SOL    HW143586   3.688   6.431   3.319 -0.3476  1.4073 -1.0728
10509SOL    HW243587   3.588   6.479   3.438  0.4396  0.1428  0.1152
10510SOL     OW43588   0.450   0.922   5.085  0.0561 -0.6480 -0.7620
10510SOL    HW143589   0.476   1.018   5.085 -0.8810 -0.3608 -3.0582
10510SOL    HW243590   0.351   0.914   5.073  0.0354 -1.8892  0.1443
10511SOL     OW43591   3.054   7.608   6.850  0.1800  0.4021  0.1091
10511SOL    HW143592   3.119   7.560   6.792 -1.9749 -4.5648  1.4890
10511SOL    HW243593   2.967   7.620   6.801 -0.0512  0.7464  0.5909
10512SOL     OW43594   5.400   1.684   9.679  0.6192  0.3510  0.2705
10512SOL    HW143595   5.476   1.740   9.712  1.4741 -0.4107 -0.3827
10512SOL    HW243596   5.404   1.678   9.579  0.3463 -0.6190  0.3216
10513SOL     OW43597   6.792   5.550   9.191  0.3370  0.4651 -0.0204
10513SOL    HW143598   6.748   5.488   9.126  2.5177  0.9403 -2.0059
10513SOL    HW243599   6.759   5.530   9.283 -0.3283 -2.4482 -0.8441
10514SOL     OW43600   3.319   5.933   9.935 -0.3638 -0.7269  0.4631
10514SOL    HW143601   3.227   5.958   9.903  0.2110  0.6618 -0.1307
10514SOL    HW243602   3.349   5.999  10.004  0.4108 -0.8629  0.2561
10515SOL     OW43603   3.411   0.485   6.347 -0.0727 -0.1193  0.0000
10515SOL    HW143604   3.365   0.407   6.389 -0.5141 -0.3616 -0.9194
10515SOL    HW243605   3.342   0.548   6.310  0.3230 -0.1914 -0.8559
10516SOL     OW43606   8.763   8.693   9.913  0.3165 -0.0030 -0.1676
10516SOL    HW143607   8.752   8.787   9.943 -1.1734  0.3652 -1.7587
10516SOL    HW243608   8.809   8.691   9.824  0.2113 -0.7622 -0.2101
10517SOL     OW43609   3.198   8.679   8.830 -0.4405 -0.3879  0.0508
10517SOL    HW143610   3.109   8.658   8.790 -0.1628  1.0805 -1.3993
10517SOL    HW243611   3.214   8.778   8.826  1.1124 -0.6009  0.6155
10518SOL     OW43612   8.474   9.669   4.157 -0.9413 -0.1393 -0.0768
10518SOL    HW143613   8.431   9.579   4.167 -0.7231 -0.3408 -0.9436
10518SOL    HW243614   8.432   9.733   4.222 -0.3659 -1.1311  1.2777
10519SOL     OW43615   9.143   7.356   7.416 -0.2475  0.2804 -0.5291
10519SOL    HW143616   9.214   7.418   7.383  0.6218 -0.0994  0.5740
10519SOL    HW243617   9.177   7.262   7.412 -1.4748 -0.1188 -1.9914
10520SOL     OW43618   9.357   8.517   8.031  0.5705  0.8371 -0.0457
10520SOL    HW143619   9.329   8.473   8.116 -0.1354  0.7206 -0.3323
10520SOL    HW243620   9.440   8.571   8.047  0.2829  1.0487  0.7786
10521SOL     OW43621   6.579   0.970   4.893 -0.5246 -0.0809  0.0747
10521SOL    HW143622   6.627   1.022   4.963 -2.6876  0.5946  1.1047
10521SOL    HW243623   6.538   1.033   4.826 -0.3960 -0.6056 -0.5004
10522SOL     OW43624   0.374   8.983   0.254  0.4665  0.6696 -0.4599
10522SOL    HW143625   0.340   8.899   0.212  1.0567  0.9471 -1.5023
10522SOL    HW243626   0.350   8.983   0.351 -0.6484 -0.1092 -0.7235
10523SOL     OW43627   2.242   0.836   5.746  0.4395 -0.2037 -0.0444
10523SOL    HW143628   2.328   0.881   5.773  0.6339 -0.9290  0.5759
10523SOL    HW243629   2.262   0.745   5.712 -0.0400 -0.1531 -0.4719
10524SOL     OW43630   1.860   8.777   9.062  0.0167 -0.2291  0.4784
10524SOL    HW143631   1.768   8.747   9.035  0.1843 -1.6471  1.4156
10524SOL    HW243632   1.853   8.835   9.143 -0.1061  0.2954  0.0972
10525SOL     OW43633   2.001   0.473   1.080  0.0238 -0.3247 -0.2659
10525SOL    HW143634   1.982   0.397   1.142  1.6124 -0.3688  0.1744
10525SOL    HW243635   2.099   0.483   1.068 -0.2150  0.8497 -1.3416
10526SOL     OW43636   7.267   4.408   8.051 -0.1866 -0.7238  0.0669
10526SOL    HW143637   7.337   4.477   8.070  0.2980 -1.1960  0.0180
10526SOL    HW243638   7.191   4.450   8.002  1.3704 -0.7851 -2.5280
10527SOL     OW43639   3.907   3.517   7.299 -0.3004  0.0005 -0.5519
10527SOL    HW143640   3.870   3.486   7.212  0.5705  2.3723 -1.8342
10527SOL    HW243641   4.005   3.538   7.289  0.8056 -3.4236  2.0326
10528SOL     OW43642   9.780   5.280   0.882  0.1857 -0.1071 -0.2403
10528SOL    HW143643   9.694   5.326   0.905 -0.1438 -0.7970 -0.0925
10528SOL    HW243644   9.761   5.193   0.838  0.8168 -0.0916 -0.5513
10529SOL     OW43645   6.985   5.932  10.005  0.2449  0.5731  0.0438
10529SOL    HW143646   6.987   5.876   9.922 -0.1319  0.8092 -0.1258
10529SOL    HW243647   7.076   5.933  10.046  0.5124  0.7158 -0.5426
10530SOL     OW43648   5.731   7.925   4.726 -0.7604 -0.3673 -0.0238
10530SOL    HW143649   5.704   7.863   4.799  0.8790 -1.4835 -0.3386
10530SOL    HW243650   5.725   7.877   4.638  0.6286 -0.1352 -0.2552
10531SOL     OW43651   1.791   5.663   3.439  0.0712 -0.2359  0.3712
10531SOL    HW143652   1.834   5.574   3.422  0.1118 -0.0012 -0.8045
10531SOL    HW243653   1.725   5.683   3.367  1.4809  1.5500 -0.4713
10532SOL     OW43654   1.580   4.761   2.280  0.1761  0.2518 -0.6318
10532SOL    HW143655   1.671   4.732   2.308  0.3070  0.2774 -1.0290
10532SOL    HW243656   1.534   4.804   2.357 -0.0758 -1.1295 -0.0044
10533SOL     OW43657   0.045   8.908   7.744 -0.2660  0.0209 -0.3328
10533SOL    HW143658   0.037   8.878   7.649  0.7685 -1.1104 -0.0744
10533SOL    HW243659   0.051   9.008   7.746  0.3641  0.0250 -1.5069
10534SOL     OW43660   0.072   5.855   1.981  0.6747  0.0272 -0.5310
10534SOL    HW143661   0.027   5.839   2.069  0.5025  0.1141 -0.6023
10534SOL    HW243662   0.169   5.832   1.989  0.1566 -2.4156 -1.0366
10535SOL     OW43663   0.043   2.008   7.231 -0.2996 -0.1686 -0.3181
10535SOL    HW143664   0.134   2.036   7.201  0.1833 -0.6644  0.6679
10535SOL    HW243665   0.005   2.078   7.292 -1.2774  0.8350 -2.0223
10536SOL     OW43666   3.993   0.125   1.587  0.3171 -0.0739 -0.1177
10536SOL    HW143667   3.987   0.035   1.629 -1.9211  0.4458  0.7394
10536SOL    HW243668   3.909   0.144   1.536 -0.1041  2.3732  1.4360
10537SOL     OW43669   9.434   4.644   6.933 -0.1223 -0.4422 -0.8018
10537SOL    HW143670   9.422   4.653   6.834 -0.8747 -2.1352 -0.8682
10537SOL    HW243671   9.438   4.548   6.958  1.5739 -0.0219  0.6542
10538SOL     OW43672   9.997   2.343   1.644  0.0730 -0.4651 -0.2630
10538SOL    HW143673   9.983   2.269   1.708  0.9876 -0.5552 -0.1617
10538SOL    HW243674  10.048   2.417   1.688  0.0465 -0.2070 -0.6552
10539SOL     OW43675   9.942   6.104   1.630 -0.1392  0.0290 -0.1503
10539SOL    HW143676   9.963   6.009   1.607  2.3252  0.9673 -2.0327
10539SOL    HW243677   9.852   6.128   1.593 -1.0333 -1.7020  0.8296
10540SOL     OW43678   1.604   7.185   9.561 -0.0340 -0.3739 -0.2200
10540SOL    HW143679   1.638   7.103   9.516 -1.2232 -1.1814  0.3432
10540SOL    HW243680   1.565   7.247   9.493  1.3332 -0.0224 -0.7078
10541SOL     OW43681   2.444   6.532   4.400  0.1582  0.1866 -0.0877
10541SOL    HW143682   2.527   6.569   4.442  0.7905 -1.4200  0.1270
10541SOL    HW243683   2.468   6.484   4.316 -0.5285 -0.3495  0.0180
10542SOL     OW43684   7.494   7.843   2.311  0.1582 -0.0910  0.4683
10542SOL    HW143685   7.543   7.917   2.266 -1.4500  1.0031  0.4752
10542SOL    HW243686   7.559   7.778   2.351  1.5725  0.4004 -1.0341
10543SOL     OW43687   0.982   1.071   6.889 -0.1926 -0.3283 -0.2445
10543SOL    HW143688   1.013   1.161   6.919 -0.3668 -0.2306 -0.3556
10543SOL    HW243689   0.884   1.061   6.909 -0.2232 -0.4076 -0.4276
10544SOL     OW43690   6.040   5.309   0.410  0.1724 -0.1820 -0.6935
10544SOL    HW143691   6.008   5.360   0.331 -0.7358 -2.0584 -1.5791
10544SOL    HW243692   6.104   5.238   0.381  1.9329  0.8261  0.5908
10545SOL     OW43693   9.363   5.040   8.087 -0.4627  0.5619  0.6014
10545SOL    HW143694   9.312   5.088   8.016 -0.9720  0.7522  1.0960
10545SOL    HW243695   9.302   5.015   8.162 -0.1019 -0.3987  0.5894
10546SOL     OW43696   8.108   4.245   4.172  0.0798 -0.2215  0.0262
10546SOL    HW143697   8.009   4.246   4.188  0.4385  0.3869  2.4858
10546SOL    HW243698   8.155   4.233   4.260  2.3079  3.6035 -0.5519
10547SOL     OW43699   9.241   9.889   8.767  0.4412  0.3955  0.4605
10547SOL    HW143700   9.188   9.966   8.802 -0.2971  0.7840 -1.4419
10547SOL    HW243701   9.279   9.837   8.843 -0.5743  1.5815  1.7980
10548SOL     OW43702   7.777   5.123   9.096  0.4510 -0.0143 -0.4247
10548SOL    HW143703   7.707   5.170   9.151 -0.1939 -1.5468  0.1112
10548SOL    HW243704   7.812   5.185   9.026  0.1782  1.4944  0.7501
10549SOL     OW43705   6.671   0.860   5.374 -0.7112  0.0646 -0.3721
10549SOL    HW143706   6.632   0.842   5.465 -0.1821  0.2495 -0.1020
10549SOL    HW243707   6.612   0.923   5.324 -0.6242  0.5521  0.1332
10550SOL     OW43708   0.248   9.848   0.506  0.7484  0.2990 -0.3977
10550SOL    HW143709   0.206   9.779   0.447 -1.2903  1.3556 -0.2215
10550SOL    HW243710   0.210   9.840   0.598 -0.4087  2.4109 -0.6635
10551SOL     OW43711   0.623   4.231   3.543 -0.3220 -0.0595 -0.2899
10551SOL    HW143712   0.549   4.280   3.590  0.3370  0.8177 -0.1411
10551SOL    HW243713   0.679   4.183   3.610 -0.0102  0.3193 -0.2769
10552SOL     OW43714   1.014   2.034   7.196  0.1390 -0.4162 -0.0888
10552SOL    HW143715   1.042   1.953   7.247  1.8832  0.2843  0.1170
10552SOL    HW243716   0.984   2.105   7.261 -0.9386 -0.7216 -0.2420
10553SOL     OW43717   4.744   4.413   1.410 -0.3553  0.3185  0.3039
10553SOL    HW143718   4.722   4.341   1.476 -1.8203  0.5215  0.0581
10553SOL    HW243719   4.761   4.499   1.459  2.2782 -0.3840  0.6568
10554SOL     OW43720   6.641   9.195   6.550 -0.1049 -0.1180  0.0217
10554SOL    HW143721   6.679   9.242   6.470  0.1682  0.3611  0.4290
10554SOL    HW243722   6.672   9.241   6.633 -1.4246  0.1596  0.3728
10555SOL     OW43723   0.327   2.097   1.377  0.5389  0.0657 -0.1091
10555SOL    HW143724   0.255   2.029   1.361  0.6795  0.0686 -0.7915
10555SOL    HW243725   0.287   2.188   1.377  0.3697 -0.0089  0.6719
10556SOL     OW43726   9.801   4.186   4.187 -0.1151 -0.0994 -0.9064
10556SOL    HW143727   9.877   4.221   4.131 -0.0137  0.4784 -0.4147
10556SOL    HW243728   9.769   4.258   4.248  0.1184 -0.8790  0.1455
10557SOL     OW43729   9.272   0.471   6.654 -0.0701  0.3306  0.1578
10557SOL    HW143730   9.277   0.508   6.747 -1.1105  0.9205 -0.0147
10557SOL    HW243731   9.198   0.404   6.649 -0.3647  0.6950 -0.3763
10558SOL     OW43732   8.656   2.077   5.080  0.2716 -0.4701  0.0841
10558SOL    HW143733   8.665   2.017   5.001  1.9812  1.2786 -1.1120
10558SOL    HW243734   8.711   2.042   5.156 -0.3455 -1.4550  0.0884
10559SOL     OW43735   4.860   3.796   6.674 -0.1258 -0.4932  0.2379
10559SOL    HW143736   4.867   3.754   6.584  0.4946  0.8377 -0.3491
10559SOL    HW243737   4.763   3.810   6.697 -0.2584  0.3763 -0.8044
10560SOL     OW43738   6.860   5.920   9.136 -0.3977 -0.6807 -0.1694
10560SOL    HW143739   6.941   5.969   9.167  0.4536 -3.0789  1.5329
10560SOL    HW243740   6.885   5.855   9.065 -0.4591 -2.7257  1.6315
10561SOL     OW43741   0.308   2.503   3.556  0.7762 -0.2314 -0.1913
10561SOL    HW143742   0.291   2.533   3.462  0.9169  2.3118  0.5680
10561SOL    HW243743   0.222   2.506   3.608  1.1683  0.7671  0.4077
10562SOL     OW43744   2.373   4.652   7.608  0.3155  0.6156  0.5758
10562SOL    HW143745   2.408   4.676   7.698 -0.3623  0.1567  0.9659
10562SOL    HW243746   2.317   4.569   7.615  1.1132 -0.0251 -0.4367
10563SOL     OW43747   2.741   1.911   1.727 -0.1473  0.0817 -0.4619
10563SOL    HW143748   2.734   1.830   1.786 -2.6797 -0.6515 -1.7045
10563SOL    HW243749   2.649   1.948   1.711  0.9972  3.6159  0.6033
10564SOL     OW43750   4.997   3.692   2.041 -0.1633  0.0848  0.4424
10564SOL    HW143751   5.000   3.791   2.026 -0.9977  0.2970  1.6705
10564SOL    HW243752   4.903   3.660   2.032  0.0521 -0.5448  0.4103
10565SOL     OW43753   4.410   8.671   1.104  0.3567 -0.0541  0.2721
10565SOL    HW143754   4.462   8.676   1.189 -0.6792  0.5119  0.8883
10565SOL    HW243755   4.393   8.576   1.080  0.8136 -0.2183  0.5985
10566SOL     OW43756   8.004   0.532   3.098  0.4066 -0.0012 -0.4372
10566SOL    HW143757   8.018   0.597   3.172 -0.6082  0.0565 -0.2937
10566SOL    HW243758   8.036   0.572   3.012 -0.9590  0.9930 -0.4748
10567SOL     OW43759   7.835   5.692   9.193  0.5100 -0.0943 -0.2875
10567SOL    HW143760   7.900   5.729   9.260  2.3392 -2.4304 -0.7102
10567SOL    HW243761   7.880   5.683   9.104 -1.0679  0.3518 -1.1491
10568SOL     OW43762   3.220   2.657   6.245 -0.2126 -0.4564  0.1984
10568SOL    HW143763   3.264   2.730   6.193 -0.6161  0.8884  1.6934
10568SOL    HW243764   3.289   2.603   6.292  0.0302 -0.4263 -0.1205
10569SOL     OW43765   5.684   9.058   4.380 -0.1059  0.1798  0.0809
10569SOL    HW143766   5.662   8.968   4.418 -1.7686 -0.0556 -1.3735
10569SOL    HW243767   5.750   9.104   4.440  0.9260 -2.0729  0.7424
10570SOL     OW43768   8.362   8.293   3.292  0.1086 -0.4693  0.5412
10570SOL    HW143769   8.269   8.264   3.315 -0.3966  0.3460 -0.4343
10570SOL    HW243770   8.376   8.387   3.322  0.1998 -0.1773 -0.3794
10571SOL     OW43771   0.202   7.620   6.842 -0.0388 -0.1843  0.0003
10571SOL    HW143772   0.219   7.646   6.937  0.1956 -1.0020  0.1881
10571SOL    HW243773   0.117   7.663   6.810  1.1476  2.0553 -0.2121
10572SOL     OW43774   8.977   2.228   4.393  0.0417  0.2688  0.2300
10572SOL    HW143775   9.071   2.196   4.385  0.2413  0.8463  0.1685
10572SOL    HW243776   8.964   2.307   4.333 -0.1944  0.8072  0.9698
10573SOL     OW43777   2.788   2.384   1.448 -0.0681 -0.2780 -0.0627
10573SOL    HW143778   2.708   2.351   1.400 -1.1863  0.0295  1.5328
10573SOL    HW243779   2.787   2.484   1.450  0.0689 -0.2823  0.4071
10574SOL     OW43780   3.971   2.408   6.591  0.0543 -0.3200  0.8145
10574SOL    HW143781   4.059   2.454   6.602 -0.2694  0.0906  1.7258
10574SOL    HW243782   3.897   2.471   6.613 -0.3977 -1.2850  2.1116
10575SOL     OW43783   1.210   0.482   9.916 -0.8974  0.5388  0.6941
10575SOL    HW143784   1.164   0.505  10.002  0.7886 -0.0531  1.7795
10575SOL    HW243785   1.146   0.434   9.856 -2.6642  2.6718  0.8238
10576SOL     OW43786   5.436   6.282   9.487 -0.2376  0.3011  0.0293
10576SOL    HW143787   5.513   6.218   9.483 -1.2945 -1.1031  1.4927
10576SOL    HW243788   5.452   6.349   9.559  0.1065  0.6449 -0.3716
10577SOL     OW43789   6.825   9.800   2.269 -0.5858 -0.8294  0.1868
10577SOL    HW143790   6.825   9.705   2.238  0.1987 -0.3334 -1.4002
10577SOL    HW243791   6.897   9.813   2.337 -0.9704 -1.4726  0.7154
10578SOL     OW43792   7.282   7.469   7.332 -0.3015 -0.2334  0.6842
10578SOL    HW143793   7.251   7.551   7.285 -1.6914 -1.0747  0.1073
10578SOL    HW243794   7.287   7.393   7.267 -0.6406 -0.9973  1.5365
10579SOL     OW43795   1.371   8.590   3.796  0.6700 -0.2031 -0.0454
10579SOL    HW143796   1.446   8.652   3.770 -0.4528  0.5995 -1.5037
10579SOL    HW243797   1.357   8.594   3.895  2.5993 -0.4267  0.2539
10580SOL     OW43798   2.566   4.020   0.150 -0.4004 -0.7074 -0.1735
10580SOL    HW143799   2.574   3.961   0.070 -0.5010  0.9457 -1.4268
10580SOL    HW243800   2.500   4.093   0.132  0.9860  0.8081  0.6998
10581SOL     OW43801   7.578   6.621   4.158 -0.0017 -0.3542  0.4282
10581SOL    HW143802   7.585   6.606   4.256 -1.0267  0.3686  0.6129
10581SOL    HW243803   7.580   6.720   4.138  0.4992 -0.4993 -0.3023
10582SOL     OW43804   6.139   9.262   6.968 -0.2280 -0.5120  0.6945
10582SOL    HW143805   6.172   9.174   7.001 -0.7746  0.0440  2.7735
10582SOL    HW243806   6.216   9.320   6.942  0.1869 -1.0406  0.7563
10583SOL     OW43807   9.833   8.701   3.897 -0.1356  0.1751 -0.0428
10583SOL    HW143808   9.889   8.744   3.826 -0.1030 -0.2352 -0.2675
10583SOL    HW243809   9.781   8.625   3.857 -0.5050  0.2656  0.2628
10584SOL     OW43810   2.632   7.671   5.341 -0.0741 -0.0592  0.1277
10584SOL    HW143811   2.669   7.614   5.268  0.0684 -0.5502  0.5816
10584SOL    HW243812   2.590   7.613   5.410 -0.0960  0.3998  0.5002
10585SOL     OW43813   6.904   0.807   5.182 -0.2829  0.2052 -0.0242
10585SOL    HW143814   6.982   0.858   5.218 -0.5141  0.4530  0.1240
10585SOL    HW243815   6.826   0.815   5.245 -0.0315 -1.1058  0.4741
10586SOL     OW43816   6.048   1.633   3.597 -0.0271  0.2345  0.0151
10586SOL    HW143817   6.092   1.556   3.644  0.7802  1.2330  0.9030
10586SOL    HW243818   6.111   1.672   3.530 -0.2171  0.5233  0.0068
10587SOL     OW43819   0.910   3.686   8.375  0.1822  0.2384 -0.0218
10587SOL    HW143820   0.926   3.617   8.305 -2.6399 -0.3758 -0.1195
10587SOL    HW243821   0.953   3.658   8.461  0.2794 -0.9217 -0.4468
10588SOL     OW43822   4.583   6.989   1.452  0.4356 -0.3943 -0.0634
10588SOL    HW143823   4.607   7.064   1.513  1.0911 -1.4030  0.9331
10588SOL    HW243824   4.485   6.969   1.461  0.3820 -0.0574  0.1137
10589SOL     OW43825   2.148   2.909   7.466 -0.0260  0.0855  1.0078
10589SOL    HW143826   2.095   2.945   7.390  1.5306  0.1651 -0.0627
10589SOL    HW243827   2.206   2.981   7.503 -0.1586 -0.1749  1.7292
10590SOL     OW43828   4.110   8.384   6.451 -0.5699 -0.0841  0.2328
10590SOL    HW143829   4.041   8.391   6.378  0.4399 -0.5280 -0.7847
10590SOL    HW243830   4.157   8.296   6.443 -0.5699 -0.2114  1.5451
10591SOL     OW43831   1.577   9.232   1.918  0.4973 -0.3590 -0.9932
10591SOL    HW143832   1.546   9.196   1.830  0.4879 -0.9059 -0.7718
10591SOL    HW243833   1.504   9.224   1.986  0.5990 -0.2053 -0.8628
10592SOL     OW43834   4.823   5.548   7.856  0.4147  0.0224  0.2724
10592SOL    HW143835   4.798   5.570   7.951 -0.7014 -1.3402  0.3050
10592SOL    HW243836   4.922   5.540   7.849  0.5234  0.3308  1.2792
10593SOL     OW43837   0.925   0.851   7.663  0.2543  0.3538  0.3375
10593SOL    HW143838   0.984   0.788   7.714  0.9129  1.3333  0.7948
10593SOL    HW243839   0.905   0.930   7.720 -0.0345  0.8682 -0.4796
10594SOL     OW43840   9.002   1.044   0.718  0.1999 -0.0091 -0.2489
10594SOL    HW143841   9.079   1.045   0.782  0.1509  0.1279 -0.1918
10594SOL    HW243842   8.919   1.016   0.767  0.0478  0.6531 -0.1191
10595SOL     OW43843   2.099   8.275   8.364  0.0595 -0.0700  0.4195
10595SOL    HW143844   2.080   8.370   8.339 -1.3288 -0.8254 -1.5539
10595SOL    HW243845   2.185   8.246   8.321 -1.2771 -0.7370 -1.8590
10596SOL     OW43846   0.511   1.900   9.257 -0.0860  0.9428 -0.3079
10596SOL    HW143847   0.581   1.970   9.240  2.5123 -1.5688 -0.3827
10596SOL    HW243848   0.489   1.898   9.354  1.9974 -0.0274  0.1797
10597SOL     OW43849   9.203   5.930   1.811  0.0748  0.5637 -0.1462
10597SOL    HW143850   9.223   5.926   1.713 -0.4212 -0.2994 -0.2160
10597SOL    HW243851   9.260   6.000   1.854  0.7262  0.5227 -0.9399
10598SOL     OW43852   1.669   8.080   8.600 -0.5366 -0.6875  0.4732
10598SOL    HW143853   1.671   8.058   8.503 -0.6831 -0.3402  0.3899
10598SOL    HW243854   1.634   8.001   8.651 -1.0593 -0.6534  0.1777
10599SOL     OW43855   4.469   0.763   5.096 -0.1121 -0.1131 -0.4724
10599SOL    HW143856   4.526   0.772   5.178 -1.1968 -2.0871  0.5506
10599SOL    HW243857   4.522   0.791   5.016  0.6491  2.8145  0.9782
10600SOL     OW43858   9.791   3.310   7.403  0.2131 -0.5043  0.1990
10600SOL    HW143859   9.830   3.384   7.348 -3.0372  0.8023 -0.4611
10600SOL    HW243860   9.771   3.232   7.344 -0.5894 -0.1947  0.0634
10601SOL     OW43861   7.497   2.589   0.702 -0.0873 -0.3575 -0.1778
10601SOL    HW143862   7.482   2.496   0.736 -0.7014  0.2512  1.2615
10601SOL    HW243863   7.521   2.585   0.605 -0.0364 -2.0190 -0.1195
10602SOL     OW43864   9.175   3.554   1.771  0.0193 -0.8507 -0.3666
10602SOL    HW143865   9.164   3.630   1.706 -1.9845  0.4312  1.4177
10602SOL    HW243866   9.176   3.467   1.721 -4.0135 -0.0740 -1.9876
10603SOL     OW43867   4.538   0.568   9.510 -0.0465 -0.0411 -0.2685
10603SOL    HW143868   4.474   0.539   9.581 -0.4287  1.4883  0.0211
10603SOL    HW243869   4.632   0.549   9.541 -0.2910 -1.2268 -0.2165
10604SOL     OW43870   6.820   5.860   2.345  0.1229 -0.5456 -0.6231
10604SOL    HW143871   6.746   5.828   2.285 -0.7656  0.4467 -0.0612
10604SOL    HW243872   6.891   5.904   2.290 -2.0878  3.0441 -0.6885
10605SOL     OW43873   2.688   1.576   0.698  0.8386 -0.0993  0.6417
10605SOL    HW143874   2.635   1.523   0.764  0.8378 -0.8231  0.0823
10605SOL    HW243875   2.689   1.527   0.610 -0.1875  1.4306 -0.2571
10606SOL     OW43876   6.571   1.782   8.348  0.1936 -0.0116  0.2207
10606SOL    HW143877   6.550   1.685   8.332 -0.5349  0.1849 -0.0256
10606SOL    HW243878   6.662   1.790   8.388  0.5116 -0.7627 -0.3336
10607SOL     OW43879   0.739   1.610   3.170 -0.3867  0.6868  0.6080
10607SOL    HW143880   0.830   1.575   3.149 -1.0879 -0.8411  0.0441
10607SOL    HW243881   0.698   1.648   3.087 -1.4849 -1.4875  0.1250
10608SOL     OW43882   1.679   1.596   8.112  0.6394 -0.9548  0.2308
10608SOL    HW143883   1.632   1.658   8.174  0.2995 -1.3218  0.3452
10608SOL    HW243884   1.622   1.579   8.031  0.0213 -2.3607  0.9342
10609SOL     OW43885   9.044   4.111  10.018  0.2433  0.1598 -0.0065
10609SOL    HW143886   9.007   4.180   9.956  1.5944 -0.3072 -1.3916
10609SOL    HW243887   9.048   4.023   9.970 -1.3311 -0.8652  1.6917
10610SOL     OW43888   6.411   8.369   6.295  0.4927  0.4492 -0.3052
10610SOL    HW143889   6.346   8.315   6.242  1.0074  1.1483 -1.7029
10610SOL    HW243890   6.431   8.323   6.381  1.0942 -1.7023 -1.5519
10611SOL     OW43891   1.507   9.754   0.849 -0.5736 -0.5331  0.4005
10611SOL    HW143892   1.425   9.738   0.793  0.1367 -0.3221 -0.7222
10611SOL    HW243893   1.586   9.709   0.805  0.0863  0.0573  0.9731
10612SOL     OW43894   2.771   8.707   5.773  0.0973 -0.4342  0.4982
10612SOL    HW143895   2.834   8.649   5.720 -1.0656 -1.2876  0.0386
10612SOL    HW243896   2.698   8.650   5.810  0.5821  0.2378  2.5660
10613SOL     OW43897   4.276   3.891   7.352  0.3487  0.6508  0.2384
10613SOL    HW143898   4.286   3.852   7.444 -0.0132 -0.0034  0.0058
10613SOL    HW243899   4.335   3.842   7.288 -1.0346 -0.3528 -0.2958
10614SOL     OW43900   9.481   1.916   6.506  0.3088  0.3546  0.1534
10614SOL    HW143901   9.501   1.984   6.436 -0.0623  0.3863  0.0754
10614SOL    HW243902   9.383   1.919   6.529 -0.0363 -1.2250 -0.9943
10615SOL     OW43903   4.842   1.128   8.910 -0.1874 -0.2246 -0.2363
10615SOL    HW143904   4.764   1.089   8.860 -0.7779  0.8229 -0.1468
10615SOL    HW243905   4.826   1.118   9.008  1.0596 -2.4526 -0.2277
10616SOL     OW43906   0.172   0.156   3.922 -0.3703 -0.1495  0.1701
10616SOL    HW143907   0.201   0.062   3.901  1.3639  0.2109  0.9032
10616SOL    HW243908   0.178   0.171   4.021 -1.7333  0.3829  0.1743
10617SOL     OW43909   4.024   3.265   1.081 -0.3013  0.5792  0.2969
10617SOL    HW143910   4.040   3.294   1.175 -0.7114  1.3282  0.1394
10617SOL    HW243911   3.961   3.187   1.080  0.7923 -0.3218  0.7235
10618SOL     OW43912   3.768   5.609   9.360 -0.5410 -0.4975  0.2173
10618SOL    HW143913   3.781   5.708   9.359 -1.9554 -0.2877 -1.8100
10618SOL    HW243914   3.847   5.565   9.402  0.6595  1.4237  0.0235
10619SOL     OW43915   9.493   3.200   3.080  0.0000  0.0063 -0.1516
10619SOL    HW143916   9.572   3.231   3.132 -0.3054 -0.1415  0.3981
10619SOL    HW243917   9.517   3.197   2.983  0.5839  0.2278 -0.0163
10620SOL     OW43918   5.616   9.518   5.609 -0.2909 -0.0965 -0.2522
10620SOL    HW143919   5.592   9.532   5.705 -0.0936  0.6978 -0.3136
10620SOL    HW243920   5.702   9.564   5.589 -0.0104 -0.7874 -0.6584
10621SOL     OW43921   7.016   8.448   7.009  0.5129  0.2690  0.1102
10621SOL    HW143922   7.065   8.398   6.937  0.4504 -0.3840  0.5141
10621SOL    HW243923   7.024   8.397   7.095 -0.8729  0.1553  0.1739
10622SOL     OW43924   4.977   7.943   5.577  0.0528 -0.0178  0.3065
10622SOL    HW143925   4.942   7.997   5.654  2.0088 -1.2536  2.1298
10622SOL    HW243926   4.906   7.880   5.546  0.3999 -2.3022  3.7700
10623SOL     OW43927   4.561   6.233   9.179 -0.6107  0.2696  0.3032
10623SOL    HW143928   4.464   6.229   9.200 -0.4274  1.1894  1.4107
10623SOL    HW243929   4.576   6.213   9.083 -1.7767 -1.1017  0.3926
10624SOL     OW43930   3.575   5.940   3.746  0.7336  0.2476 -0.1856
10624SOL    HW143931   3.672   5.955   3.728  1.2284 -0.0816  2.0978
10624SOL    HW243932   3.553   5.843   3.732  0.8937  0.1817  0.0177
10625SOL     OW43933   5.759   9.588   4.581  0.7079 -0.4085  0.1509
10625SOL    HW143934   5.780   9.519   4.511  0.7165  0.6526 -0.9067
10625SOL    HW243935   5.739   9.675   4.537 -1.2045 -0.1917  1.3738
10626SOL     OW43936   0.169   8.701   2.051 -0.5264 -0.0177  0.0293
10626SOL    HW143937   0.101   8.765   2.087 -0.2432 -0.0870  0.6789
10626SOL    HW243938   0.203   8.735   1.963 -0.7227  0.4888  0.1473
10627SOL     OW43939   2.785   0.105   8.711 -0.1750  0.4295 -0.0087
10627SOL    HW143940   2.858   0.169   8.687 -0.8466  2.0918  2.2091
10627SOL    HW243941   2.723   0.094   8.634 -0.3416  2.8691 -0.2489
10628SOL     OW43942   9.720   5.853   3.571 -0.4825  0.9773 -0.2771
10628SOL    HW143943   9.636   5.902   3.545 -0.6620  0.0136 -1.5046
10628SOL    HW243944   9.696   5.762   3.605 -0.2323  2.0512  2.9825
10629SOL     OW43945   4.784   8.483   5.069 -0.1748 -0.4628  0.1501
10629SOL    HW143946   4.808   8.397   5.115 -1.6068 -0.5149  0.8061
10629SOL    HW243947   4.840   8.557   5.106  1.0873 -1.1009 -0.4368
10630SOL     OW43948   6.045   7.931   2.622  0.1939 -0.1029 -0.6821
10630SOL    HW143949   6.064   8.015   2.674  0.6736 -1.1950  0.9398
10630SOL    HW243950   6.130   7.882   2.606 -0.4535 -1.8099  1.0231
10631SOL     OW43951   3.554   8.580   9.673  0.3043 -0.4495  0.0805
10631SOL    HW143952   3.617   8.545   9.604 -0.9368 -1.1082 -0.7321
10631SOL    HW243953   3.583   8.671   9.702  1.1108 -0.3784 -0.9294
10632SOL     OW43954   9.318   0.292   8.718  0.5182  0.0809 -0.5105
10632SOL    HW143955   9.398   0.251   8.674  0.7546 -0.2257  0.2001
10632SOL    HW243956   9.248   0.309   8.649  1.1416  0.2348 -1.1206
10633SOL     OW43957   3.906   0.915   7.053  0.1156 -0.2756 -0.2481
10633SOL    HW143958   3.898   0.980   6.977  2.3804 -1.6741 -1.7684
10633SOL    HW243959   4.000   0.916   7.087 -0.4200 -1.0603  1.2700
10634SOL     OW43960   4.891   5.994   8.190  0.5531 -0.4676 -1.0187
10634SOL    HW143961   4.971   6.022   8.243 -0.8774  0.0751  0.9135
10634SOL    HW243962   4.846   6.075   8.152 -0.2343 -0.5965 -0.3754
10635SOL     OW43963   2.098   3.225   5.938 -0.3983 -0.0260  0.5558
10635SOL    HW143964   2.114   3.316   5.975  0.3474  0.6458 -1.3601
10635SOL    HW243965   2.165   3.161   5.976 -1.3289  0.0554  2.3999
10636SOL     OW43966   3.964   8.766   7.549  0.5474  0.2660  0.0675
10636SOL    HW143967   3.913   8.834   7.602  1.1031  0.6613  0.0951
10636SOL    HW243968   4.047   8.740   7.598 -0.2034 -1.2373  0.5500
10637SOL     OW43969   7.223   8.858   5.782 -0.1489  0.0628 -0.1931
10637SOL    HW143970   7.304   8.848   5.841  0.1154  0.3833 -0.4918
10637SOL    HW243971   7.147   8.805   5.819 -0.1122  0.5997  0.6742
10638SOL     OW43972   0.279   1.222   1.613 -0.2800 -0.5235  1.0259
10638SOL    HW143973   0.353   1.282   1.585 -0.8788  0.6764  1.9760
10638SOL    HW243974   0.274   1.143   1.551  1.3802 -0.3017  0.5963
10639SOL     OW43975   6.299   2.115   9.657 -0.1853  0.1469  0.1242
10639SOL    HW143976   6.260   2.176   9.589  0.0251  0.2949  0.1366
10639SOL    HW243977   6.395   2.139   9.673  0.0477 -0.5044 -0.2491
10640SOL     OW43978   0.434   0.245   1.907  0.1447 -0.6420 -0.1668
10640SOL    HW143979   0.396   0.323   1.858  1.0372 -0.2078 -0.1737
10640SOL    HW243980   0.378   0.226   1.988  1.1247  1.3441  0.9959
10641SOL     OW43981   5.988   0.390   1.524 -0.1558  0.2489  0.0212
10641SOL    HW143982   5.954   0.376   1.616  0.9612  0.8933  0.5463
10641SOL    HW243983   6.048   0.314   1.498 -0.3234  0.1596 -0.1088
10642SOL     OW43984   2.233   7.727   9.392  0.0549 -0.3914 -0.7260
10642SOL    HW143985   2.185   7.765   9.313 -1.5340  0.8029  0.7706
10642SOL    HW243986   2.322   7.772   9.402 -1.2539  2.0998  0.2602
10643SOL     OW43987   3.738   7.118   4.114 -0.4157  0.0286  0.2728
10643SOL    HW143988   3.659   7.120   4.053 -0.4843 -0.0434  0.3592
10643SOL    HW243989   3.742   7.202   4.167  0.9582  1.1059 -1.5071
10644SOL     OW43990   6.721   4.132   0.705 -0.2663  0.1172  0.5596
10644SOL    HW143991   6.818   4.155   0.695 -0.2073 -0.6143 -0.6632
10644SOL    HW243992   6.678   4.195   0.769  0.8825  0.8368  0.6316
10645SOL     OW43993   7.967   7.182   5.097  0.1773 -0.0991 -0.3475
10645SOL    HW143994   7.948   7.155   5.003 -0.6750 -1.4655  0.1967
10645SOL    HW243995   7.919   7.120   5.159  0.9206  0.6513  0.9861
10646SOL     OW43996   7.665   9.955   4.620  0.1404 -0.5473  0.3907
10646SOL    HW143997   7.672   9.879   4.556  1.6228  0.9316 -1.2613
10646SOL    HW243998   7.569   9.979   4.634 -0.1634 -0.2342 -2.0927
10647SOL     OW43999   8.851   4.185   5.984  0.4721  0.3268 -0.1564
10647SOL    HW144000   8.751   4.193   5.984  0.6678  3.4814 -0.0625
10647SOL    HW244001   8.883   4.175   5.890  0.1219  0.3988 -0.2860
10648SOL     OW44002   0.764   9.654   4.807  0.1147  0.0005  0.1274
10648SOL    HW144003   0.741   9.616   4.718  1.2542 -1.8444  0.5933
10648SOL    HW244004   0.848   9.708   4.800 -1.2825  2.1139 -0.4544
10649SOL     OW44005   6.001   0.838   2.931  0.1723 -0.0321  0.3225
10649SOL    HW144006   5.966   0.836   2.837 -1.5454 -0.6297  0.9615
10649SOL    HW244007   6.000   0.745   2.969  0.4497  0.2713  1.0813
10650SOL     OW44008   9.708   6.068   5.307 -0.4989  0.8148 -0.2504
10650SOL    HW144009   9.761   6.043   5.226 -0.1941 -0.1473  0.2453
10650SOL    HW244010   9.758   6.137   5.359  0.2987 -0.1204  0.2382
10651SOL     OW44011   2.927   4.076   9.470  0.2691 -0.5591  0.0524
10651SOL    HW144012   2.842   4.114   9.508  0.3093 -0.1504 -0.2653
10651SOL    HW244013   3.005   4.128   9.505  0.4753 -1.5873  1.1699
10652SOL     OW44014   2.546   4.284   7.541  0.2040 -0.1937  0.2619
10652SOL    HW144015   2.620   4.239   7.590  0.1776  0.6016  1.0531
10652SOL    HW244016   2.462   4.277   7.594 -0.1854 -0.7161 -0.4275
10653SOL     OW44017   9.464   3.640   2.964  0.3674 -0.1790 -0.2124
10653SOL    HW144018   9.436   3.724   3.011  0.4717  0.0434 -0.5415
10653SOL    HW244019   9.553   3.610   2.999  0.0426 -0.5056  0.3484
10654SOL     OW44020   7.342   5.971   5.985  0.1983 -0.0588  0.3109
10654SOL    HW144021   7.325   6.065   6.015 -2.0774 -0.4124  0.2252
10654SOL    HW244022   7.371   5.916   6.063  0.2023  0.4057  0.6385
10655SOL     OW44023   0.163   4.554   5.355  0.3596 -0.5612  0.4102
10655SOL    HW144024   0.099   4.597   5.418  1.0483 -0.1375  0.8253
10655SOL    HW244025   0.218   4.487   5.404 -0.2601 -1.4552 -0.0966
10656SOL     OW44026   0.901   6.896   2.657  0.1955 -0.0948  0.4561
10656SOL    HW144027   0.905   6.881   2.756  0.4276 -0.6109  0.3671
10656SOL    HW244028   0.885   6.994   2.639 -3.6953 -0.5245  1.0775
10657SOL     OW44029   6.530   2.583   8.696  0.0613 -0.5565 -0.4193
10657SOL    HW144030   6.586   2.589   8.779 -1.2195  1.8689  0.3099
10657SOL    HW244031   6.482   2.495   8.695  0.4840 -0.8172  1.1718
10658SOL     OW44032   1.049   9.869   1.533 -0.0474 -0.8746 -0.7091
10658SOL    HW144033   1.101   9.790   1.565  1.2934 -0.3839 -1.6177
10658SOL    HW244034   0.996   9.908   1.608  0.6028 -1.6250  0.1403
10659SOL     OW44035   4.875   5.534   0.359  0.3220 -0.0910  0.0590
10659SOL    HW144036   4.931   5.611   0.390 -0.0160 -0.5013  1.7284
10659SOL    HW244037   4.932   5.453   0.349  0.6058  0.2606 -1.3355
10660SOL     OW44038   1.415   6.245   0.101  0.2804  0.2830 -0.3752
10660SOL    HW144039   1.378   6.335   0.123 -1.2227 -0.5900  0.8305
10660SOL    HW244040   1.488   6.221   0.165 -1.3665 -0.5798  1.2346
10661SOL     OW44041   9.352   6.666   1.486 -0.0157 -0.1511  0.1193
10661SOL    HW144042   9.339   6.570   1.510 -0.2825  0.0642  0.8447
10661SOL    HW244043   9.377   6.718   1.568  0.8088  0.2758 -0.3996
10662SOL     OW44044   6.851   8.731   3.809  0.1037 -0.3573 -0.2462
10662SOL    HW144045   6.844   8.801   3.880 -1.0488 -0.2385 -0.4692
10662SOL    HW244046   6.878   8.774   3.723 -0.3080 -0.2316 -0.3125
10663SOL     OW44047   2.055   8.388   4.941  0.5355  0.1278  0.1527
10663SOL    HW144048   2.144   8.355   4.907  1.7760  1.1534  2.2714
10663SOL    HW244049   2.056   8.386   5.041 -1.1127  2.0412  0.2163
10664SOL     OW44050   1.514   8.366   5.469 -0.1949  0.0854 -0.3582
10664SOL    HW144051   1.586   8.429   5.500  0.3003 -0.9137  0.5349
10664SOL    HW244052   1.520   8.356   5.369  0.8026  0.1461 -0.3139
10665SOL     OW44053   4.213   5.458   1.185 -0.4027 -0.1090  0.0837
10665SOL    HW144054   4.216   5.475   1.283  0.0948  0.2332  0.0149
10665SOL    HW244055   4.215   5.360   1.167  1.7705 -0.1471  0.3629
10666SOL     OW44056   8.845   3.692   8.368  0.1296  0.5646  0.3557
10666SOL    HW144057   8.761   3.696   8.313  0.9721 -0.3322 -1.0455
10666SOL    HW244058   8.879   3.785   8.384 -0.4356  0.8641 -0.1640
10667SOL     OW44059   7.705   4.809   1.216 -0.1193  0.3184 -0.5228
10667SOL    HW144060   7.770   4.736   1.196  0.2770  0.5291 -0.0260
10667SOL    HW244061   7.675   4.852   1.130 -0.8106 -0.8089 -0.8496
10668SOL     OW44062   9.789   3.656   6.354 -0.2751 -0.5300 -0.2713
10668SOL    HW144063   9.837   3.744   6.353 -0.6060 -0.3437 -2.3518
10668SOL    HW244064   9.840   3.589   6.300  0.0984 -1.7065  1.5042
10669SOL     OW44065   9.776   0.303   5.631  0.1134 -0.0520  0.4495
10669SOL    HW144066   9.828   0.235   5.683 -0.7696  0.7109  2.3457
10669SOL    HW244067   9.824   0.322   5.545  1.2460 -1.8099  0.6648
10670SOL     OW44068   0.653   2.248   2.909  0.2879  0.4657  0.3495
10670SOL    HW144069   0.661   2.346   2.926 -0.2466  0.6146 -0.2171
10670SOL    HW244070   0.561   2.228   2.875 -0.0215 -0.4219  1.6959
10671SOL     OW44071   9.584   4.266   0.099 -0.2947  0.0891 -0.4642
10671SOL    HW144072   9.653   4.205   0.060  0.1074  0.1732  0.1162
10671SOL    HW244073   9.531   4.217   0.168  0.9761  0.7980  1.0414
10672SOL     OW44074   0.954   7.280   9.204  0.2729 -0.3129  0.3696
10672SOL    HW144075   0.986   7.211   9.269 -0.8232  1.0362  2.4320
10672SOL    HW244076   0.922   7.236   9.121 -0.6443 -2.3194  1.7490
10673SOL     OW44077   2.714   0.587   6.764 -0.2637 -0.5117  0.6475
10673SOL    HW144078   2.770   0.506   6.786  0.2030 -1.2236 -2.8073
10673SOL    HW244079   2.637   0.592   6.826  0.0937 -3.2686  1.3767
10674SOL     OW44080   4.501   2.355   7.491  0.1048  0.5548  0.0975
10674SOL    HW144081   4.531   2.361   7.587  1.0015 -1.1169 -0.0567
10674SOL    HW244082   4.437   2.279   7.481 -0.9934  1.5340 -0.3934
10675SOL     OW44083   4.049   5.071   0.813  0.0908 -0.1515  0.2077
10675SOL    HW144084   3.956   5.105   0.826  0.6177  1.2356  0.5051
10675SOL    HW244085   4.086   5.107   0.728  0.7172  0.1504  0.6018
10676SOL     OW44086   1.605   6.234   2.696  0.1121  0.0686  0.6203
10676SOL    HW144087   1.648   6.150   2.730  0.3700 -0.0905 -0.0945
10676SOL    HW244088   1.614   6.306   2.765  1.3195 -0.0251  0.5725
10677SOL     OW44089   0.448   4.472   9.813 -0.0122  0.0011 -0.4284
10677SOL    HW144090   0.524   4.525   9.851  0.7120 -0.7754 -0.7579
10677SOL    HW244091   0.367   4.530   9.805  0.7162  1.0049 -0.6268
10678SOL     OW44092   0.975   8.752   2.366  0.0237  0.6037  0.3052
10678SOL    HW144093   0.993   8.668   2.416  2.2917  0.7806 -0.1599
10678SOL    HW244094   0.926   8.731   2.281  0.7366 -0.2547  0.1086
10679SOL     OW44095   8.895   7.526   0.248 -0.1353  0.2407 -0.2935
10679SOL    HW144096   8.805   7.507   0.289  0.2879 -0.6164  0.2552
10679SOL    HW244097   8.920   7.451   0.187  0.4836  0.1648  0.0418
10680SOL     OW44098   0.913   6.696   0.659  0.4671  0.2031  0.0815
10680SOL    HW144099   0.865   6.609   0.644  1.4561 -0.2917 -0.2812
10680SOL    HW244100   0.970   6.688   0.741 -0.0109  0.7655  0.4704
10681SOL     OW44101   3.715   2.743   9.891  0.6593  0.4008  0.1139
10681SOL    HW144102   3.632   2.782   9.852 -0.1570 -1.7793 -0.4293
10681SOL    HW244103   3.702   2.727   9.989 -0.0426 -1.0728 -0.2001
10682SOL     OW44104   9.304   7.524   7.289  0.3526 -0.1825  0.2181
10682SOL    HW144105   9.310   7.529   7.190  0.7419 -0.3313  0.2349
10682SOL    HW244106   9.298   7.617   7.327  1.4058 -0.0816  0.1369
10683SOL     OW44107   3.488   2.279   0.899  0.0866 -0.1016  0.0797
10683SOL    HW144108   3.414   2.309   0.839  0.5617 -0.6979 -0.8123
10683SOL    HW244109   3.466   2.188   0.936  1.0985 -1.0070 -1.4774
10684SOL     OW44110   1.148   0.506   3.217  0.3842 -0.2688  0.1470
10684SOL    HW144111   1.239   0.491   3.178 -0.0674  0.1216 -1.0683
10684SOL    HW244112   1.096   0.421   3.214 -0.6033  0.4069 -2.6249
10685SOL     OW44113   5.518   9.881   8.358 -0.2209 -0.1673 -0.0439
10685SOL    HW144114   5.512   9.791   8.400  0.3804 -0.6342 -0.9360
10685SOL    HW244115   5.560   9.873   8.267  0.6518  1.1212  0.2269
10686SOL     OW44116   6.667   5.684   8.177  0.2258 -0.3037  0.0506
10686SOL    HW144117   6.647   5.718   8.085 -1.6303 -0.7130  0.2738
10686SOL    HW244118   6.595   5.620   8.205  1.3761 -1.0733  1.3425
10687SOL     OW44119   3.207   9.732   8.677 -0.0651 -0.0641 -0.3155
10687SOL    HW144120   3.259   9.647   8.667  0.3136  0.3537 -2.1387
10687SOL    HW244121   3.188   9.749   8.774  2.6366 -0.5853  0.3650
10688SOL     OW44122   4.584   3.682   7.258  0.1528 -0.0657 -0.3747
10688SOL    HW144123   4.533   3.603   7.292 -0.5556  0.8629  0.7791
10688SOL    HW244124   4.655   3.707   7.324  1.0419 -0.3486 -1.2098
10689SOL     OW44125   7.626   7.280   5.846 -0.0894 -0.2125  0.0478
10689SOL    HW144126   7.604   7.326   5.932 -0.5891 -1.3757  0.5491
10689SOL    HW244127   7.680   7.198   5.864 -2.3338 -1.8711 -0.5058
10690SOL     OW44128   1.371   2.913   0.302  0.4561  0.2795 -0.1899
10690SOL    HW144129   1.410   2.840   0.245 -2.0337 -1.4676  0.2463
10690SOL    HW244130   1.355   2.994   0.246  2.2722  0.1420 -0.9317
10691SOL     OW44131   0.312   1.955   6.560 -0.1894  0.1798 -0.1090
10691SOL    HW144132   0.382   2.024   6.576  0.4403 -0.2302 -1.0611
10691SOL    HW244133   0.260   1.979   6.477 -0.8306  0.2040  0.2955
10692SOL     OW44134   6.860   2.785   9.442 -0.2523  0.0024 -1.0175
10692SOL    HW144135   6.935   2.783   9.375  0.8735 -0.5405  0.2359
10692SOL    HW244136   6.810   2.699   9.438  0.7296 -0.6093 -0.1362
10693SOL     OW44137   2.754   2.737   6.582 -0.1929  0.1661 -0.3071
10693SOL    HW144138   2.825   2.668   6.566 -1.0381 -0.7338 -0.2436
10693SOL    HW244139   2.670   2.710   6.536 -1.3007 -0.1556  1.8315
10694SOL     OW44140   1.232   6.070   0.239 -0.4068  0.4298  0.3598
10694SOL    HW144141   1.271   6.126   0.166  0.9722 -0.2638  0.5402
10694SOL    HW244142   1.143   6.035   0.211  0.0635  0.2606 -0.9599
10695SOL     OW44143   1.523   1.865   7.418  0.4279 -0.3776 -0.6672
10695SOL    HW144144   1.468   1.810   7.482  1.8467  0.4107  1.2783
10695SOL    HW244145   1.611   1.821   7.404  1.0675  0.7108 -0.1196
10696SOL     OW44146   0.727   2.383   0.378  0.1408 -0.2175  0.4682
10696SOL    HW144147   0.815   2.372   0.424  0.3836  1.3905  0.4129
10696SOL    HW244148   0.686   2.470   0.405  0.0991  0.5645 -1.9964
10697SOL     OW44149   4.108   0.564   4.505 -0.0899 -0.0278 -0.8091
10697SOL    HW144150   4.108   0.489   4.570 -1.1238 -0.0872 -0.8677
10697SOL    HW244151   4.084   0.529   4.414  2.0394 -0.0713 -1.3898
10698SOL     OW44152   1.780   2.841   8.595 -0.8116 -0.4032  0.6040
10698SOL    HW144153   1.691   2.813   8.629 -1.1970  1.1318  0.8760
10698SOL    HW244154   1.770   2.889   8.508 -0.4694  1.4045  1.5156
10699SOL     OW44155   5.246   7.066   1.395 -0.1660  0.7496  0.2803
10699SOL    HW144156   5.266   7.007   1.317  0.0824 -0.8714  1.5216
10699SOL    HW244157   5.241   7.010   1.478  1.0302  2.6070  1.6543
10700SOL     OW44158   3.838   9.370   1.615  0.5414  0.2148  0.2820
10700SOL    HW144159   3.915   9.398   1.559  0.4362 -0.4986 -0.2280
10700SOL    HW244160   3.848   9.408   1.707  1.4835  0.1466  0.2138
10701SOL     OW44161   9.817   7.631   9.002 -0.3082  0.4389  0.3973
10701SOL    HW144162   9.795   7.597   8.910 -3.6276 -0.4684  1.4234
10701SOL    HW244163   9.874   7.564   9.049 -0.3397 -0.0962 -0.3063
10702SOL     OW44164   1.584   1.338   0.550 -0.1705 -0.4484 -0.7299
10702SOL    HW144165   1.598   1.247   0.589 -1.2094 -0.0837  0.5254
10702SOL    HW244166   1.517   1.333   0.477 -1.1169 -0.4972  0.1410
10703SOL     OW44167   4.378   0.489   9.709 -0.3298 -0.0818 -0.1555
10703SOL    HW144168   4.337   0.538   9.786 -0.1327 -0.3355  0.1146
10703SOL    HW244169   4.322   0.409   9.687 -0.7196  0.3397 -0.6792
10704SOL     OW44170   1.090   9.522   6.370 -0.2007  0.4941  0.0559
10704SOL    HW144171   1.065   9.461   6.295 -0.6605  1.0405 -0.2483
10704SOL    HW244172   1.183   9.555   6.357 -0.7893  1.7603 -1.0887
10705SOL     OW44173   4.325   4.551   2.606 -0.2283  0.3441 -0.1631
10705SOL    HW144174   4.227   4.555   2.623 -0.0037  1.1967  1.0060
10705SOL    HW244175   4.353   4.457   2.591 -1.1545  0.0463 -0.0238
10706SOL     OW44176   8.037   4.786   9.999 -0.0095 -0.0703 -0.4768
10706SOL    HW144177   8.019   4.688  10.013  0.9269  0.0895  2.0953
10706SOL    HW244178   8.017   4.836  10.083  1.9201  1.6169 -0.9828
10707SOL     OW44179   9.227   9.184   8.343 -0.1912  0.3277  0.2996
10707SOL    HW144180   9.173   9.106   8.310 -0.3091  0.5375 -0.0081
10707SOL    HW244181   9.296   9.152   8.407 -0.5812  0.0343  0.5781
10708SOL     OW44182   3.908   5.456   1.569 -0.1749  0.3478  0.3403
10708SOL    HW144183   3.892   5.544   1.525 -1.8162  0.8031  1.8034
10708SOL    HW244184   3.930   5.470   1.665  2.2699 -0.7060 -0.0243
10709SOL     OW44185   8.012   4.395   3.077  0.3496 -0.3938 -0.1912
10709SOL    HW144186   7.982   4.476   3.126 -0.7540 -0.9615  0.1036
10709SOL    HW244187   7.933   4.335   3.060  0.9738 -0.9286 -1.2890
10710SOL     OW44188   6.423   7.000   4.363 -0.1303  0.2507  0.0818
10710SOL    HW144189   6.419   7.100   4.368  0.8886  0.3462 -0.6274
10710SOL    HW244190   6.500   6.967   4.419 -0.2944 -0.1120  0.0963
10711SOL     OW44191   4.143   1.358   9.139  0.0412  0.2418 -0.3361
10711SOL    HW144192   4.067   1.405   9.093 -2.0839 -1.6466  1.1728
10711SOL    HW244193   4.119   1.263   9.154  2.3836 -0.1703  0.9744
10712SOL     OW44194   9.465   2.841   5.658  0.3989  0.4916  0.0100
10712SOL    HW144195   9.564   2.852   5.665  0.3361  0.8379  0.3860
10712SOL    HW244196   9.431   2.792   5.738  0.1963  0.8695  0.1574
10713SOL     OW44197   3.878   2.325   9.968  0.5525  0.3309  0.1756
10713SOL    HW144198   3.807   2.359   9.906  0.2491  0.7578  0.7441
10713SOL    HW244199   3.940   2.400   9.991  1.8440 -0.2989 -1.1900
10714SOL     OW44200   9.800   1.163   7.333 -0.6791 -0.8082  0.4504
10714SOL    HW144201   9.863   1.242   7.329 -1.1903 -0.3892  0.6315
10714SOL    HW244202   9.706   1.196   7.331 -0.9538 -1.5481 -2.9239
10715SOL     OW44203   0.920   5.900   2.867  0.2585  0.0954 -0.1622
10715SOL    HW144204   0.880   5.953   2.942 -0.3071  0.1721 -0.5161
10715SOL    HW244205   0.860   5.823   2.845  0.5394 -0.0604 -0.3796
10716SOL     OW44206   9.788   0.177   6.951  0.4893 -0.3853  0.0439
10716SOL    HW144207   9.749   0.266   6.928 -0.4724 -1.0187 -0.7855
10716SOL    HW244208   9.820   0.131   6.868  0.7205 -0.9488  0.4375
10717SOL     OW44209   1.266   9.804   9.834 -0.5493 -0.3021 -0.4511
10717SOL    HW144210   1.281   9.820   9.736  0.1502 -0.4141 -0.3632
10717SOL    HW244211   1.242   9.708   9.849 -0.8398 -0.2428 -0.5312
10718SOL     OW44212   9.959   0.953   1.961 -0.4342  0.2578  0.5793
10718SOL    HW144213   9.882   1.015   1.976  0.7109  1.6894  0.7399
10718SOL    HW244214  10.022   0.994   1.895  0.6227 -0.4736  1.1199
10719SOL     OW44215   2.160   1.934   4.432  0.3838  0.5736  0.0418
10719SOL    HW144216   2.189   2.030   4.429 -0.9381  1.0027  0.4967
10719SOL    HW244217   2.061   1.930   4.440  0.4736 -0.8405  0.5170
10720SOL     OW44218   7.475   9.399   7.602  0.5946  0.1405  0.1274
10720SOL    HW144219   7.430   9.348   7.528  0.5874 -2.2511  1.7197
10720SOL    HW244220   7.405   9.444   7.658  0.4963  0.6388 -0.3995
10721SOL     OW44221   3.307   4.250   7.987 -0.0988 -0.4554 -0.6340
10721SOL    HW144222   3.365   4.324   8.023  1.7127 -1.9420 -0.3897
10721SOL    HW244223   3.298   4.179   8.056 -2.0505 -0.3781 -0.7813
10722SOL     OW44224   7.126   0.875   0.228  0.4545 -0.7654 -0.1409
10722SOL    HW144225   7.220   0.895   0.253 -0.6605  2.7475  1.5584
10722SOL    HW244226   7.086   0.812   0.295  0.6917  0.2216  0.9541
10723SOL     OW44227   6.553   8.376   2.069 -0.0913  0.0397 -0.0043
10723SOL    HW144228   6.520   8.467   2.095  0.7458  0.3657 -0.0821
10723SOL    HW244229   6.487   8.307   2.100 -0.5891  0.6476  0.3044
10724SOL     OW44230   4.646   5.033   9.051 -0.2472  0.3615  0.6462
10724SOL    HW144231   4.642   4.948   9.104  2.6859  0.4795  1.1101
10724SOL    HW244232   4.729   5.034   8.995 -1.6618  1.7061 -1.5001
10725SOL     OW44233   9.142   5.401   3.891 -0.1869 -0.0738 -0.3023
10725SOL    HW144234   9.222   5.400   3.950  0.3042 -0.4922 -0.9648
10725SOL    HW244235   9.103   5.493   3.889  0.6803  0.3006 -0.5066
10726SOL     OW44236   9.172   6.593   4.832 -0.8519 -0.1790  0.5796
10726SOL    HW144237   9.207   6.684   4.810 -1.8935  0.0491 -0.1979
10726SOL    HW244238   9.074   6.599   4.852 -1.0358 -1.1993  0.0367
10727SOL     OW44239   5.026   6.243   0.103 -0.9210 -0.0470 -0.7593
10727SOL    HW144240   5.013   6.262   0.200  1.7362  1.8036 -0.7132
10727SOL    HW244241   4.972   6.307   0.048 -0.2949  0.7206 -0.4971
10728SOL     OW44242   2.320   7.150   6.743  0.2200  0.1678 -0.5616
10728SOL    HW144243   2.274   7.096   6.673 -2.6210  0.8272  0.7220
10728SOL    HW244244   2.343   7.240   6.706 -1.0229  0.4112 -0.7790
10729SOL     OW44245   7.789   5.635   8.506  0.0500  0.3317  0.0683
10729SOL    HW144246   7.726   5.682   8.444 -0.8695 -1.6581 -0.5566
10729SOL    HW244247   7.870   5.691   8.520 -0.4111  1.4949 -1.7253
10730SOL     OW44248   2.388   9.626   9.219 -0.3047  0.0371  0.4324
10730SOL    HW144249   2.454   9.621   9.294  0.7234  2.7282 -0.2526
10730SOL    HW244250   2.295   9.625   9.257  0.1932  0.8276  1.7155
10731SOL     OW44251   4.627   0.998   8.351  0.2479 -0.3943  0.1064
10731SOL    HW144252   4.709   1.054   8.363 -0.7389  1.1152 -0.0157
10731SOL    HW244253   4.559   1.049   8.299 -1.1907 -1.2044  1.1459
10732SOL     OW44254   9.707   2.904   0.434 -0.4753 -0.6420 -0.0867
10732SOL    HW144255   9.718   2.882   0.338 -0.0649 -1.8938  0.2348
10732SOL    HW244256   9.763   2.983   0.457  2.6305 -2.7605 -0.0004
10733SOL     OW44257   0.328   8.092   0.298 -0.0028 -0.3067 -0.4304
10733SOL    HW144258   0.314   8.181   0.254  1.4617 -0.2481 -0.8369
10733SOL    HW244259   0.245   8.037   0.291 -1.0335  1.1483  0.1176
10734SOL     OW44260   6.457   9.799   4.522 -0.2603 -0.0348  0.2086
10734SOL    HW144261   6.492   9.892   4.511 -0.6467 -0.0670 -1.4036
10734SOL    HW244262   6.413   9.790   4.611 -0.2126  1.3160  0.3751
10735SOL     OW44263   3.260   2.297   2.357  0.1682 -0.1213 -0.2840
10735SOL    HW144264   3.307   2.230   2.300  0.4094  0.6834 -1.0538
10735SOL    HW244265   3.163   2.297   2.336  0.3800  0.7368 -1.2754
10736SOL     OW44266   5.964   1.027   0.299  0.6128 -0.1771  0.2100
10736SOL    HW144267   5.974   0.939   0.346 -0.0921 -1.2755 -1.6345
10736SOL    HW244268   5.994   1.101   0.359  1.4724 -1.7009  1.6927
10737SOL     OW44269   7.143   6.636   4.134 -0.1777  0.3023 -0.1326
10737SOL    HW144270   7.188   6.653   4.047  1.3644 -1.3240  0.3056
10737SOL    HW244271   7.207   6.592   4.197 -2.0710 -1.1565  0.8656
10738SOL     OW44272   3.983   5.541   9.516  1.2167 -0.0974  0.1559
10738SOL    HW144273   4.012   5.604   9.587 -1.7529  0.8925  0.5430
10738SOL    HW244274   3.958   5.453   9.557  0.8791  0.0030  0.1630
10739SOL     OW44275   6.137   0.134   1.514 -0.1511  0.5685  0.1205
10739SOL    HW144276   6.198   0.152   1.591  0.2381 -2.1954  0.5260
10739SOL    HW244277   6.191   0.117   1.431 -0.4505  0.3298 -0.0286
10740SOL     OW44278   5.927   4.960   9.225  0.1510 -0.2076  0.1570
10740SOL    HW144279   5.948   4.927   9.318 -1.6412 -2.7344 -0.3057
10740SOL    HW244280   5.865   4.897   9.180 -0.0489  1.6915 -2.3371
10741SOL     OW44281   0.202   9.800   3.354 -0.0991 -0.2526 -0.3639
10741SOL    HW144282   0.254   9.773   3.435 -0.7575  1.7258  0.7390
10741SOL    HW244283   0.206   9.899   3.343 -0.4971 -0.4464 -2.4316
10742SOL     OW44284   1.708   8.526   4.292 -0.0836 -0.2690 -0.0581
10742SOL    HW144285   1.610   8.509   4.302 -0.0297 -0.7933 -0.3652
10742SOL    HW244286   1.727   8.623   4.307 -0.7987  0.0333 -1.0154
10743SOL     OW44287   6.577   1.144   1.166  0.3444 -0.4063  0.3959
10743SOL    HW144288   6.592   1.060   1.115 -1.0369 -0.1136 -0.5084
10743SOL    HW244289   6.609   1.222   1.111 -1.7961 -0.0252 -0.3754
10744SOL     OW44290   1.773   6.385   9.089  0.6229 -0.0296 -0.1396
10744SOL    HW144291   1.792   6.356   9.182 -1.1654 -0.3467  0.1373
10744SOL    HW244292   1.707   6.323   9.047 -0.4701  1.5077 -0.7664
10745SOL     OW44293   0.496   6.999   2.100 -0.9381 -0.2682  0.1140
10745SOL    HW144294   0.555   6.938   2.153 -1.4621 -1.3501 -0.5301
10745SOL    HW244295   0.544   7.085   2.082 -0.2001 -0.4756  1.0394
10746SOL     OW44296   5.173   0.389   1.827  0.1966 -0.2798  0.1315
10746SOL    HW144297   5.075   0.407   1.819 -0.0075 -0.4544  1.9797
10746SOL    HW244298   5.202   0.329   1.752 -0.9624  0.3171 -0.8119
10747SOL     OW44299   3.852   4.332   5.620 -0.1231 -0.3977 -0.5157
10747SOL    HW144300   3.937   4.384   5.610  0.4012 -0.8993  1.1591
10747SOL    HW244301   3.845   4.265   5.546  0.2124  0.6095 -1.4873
10748SOL     OW44302   6.055   4.820   8.566 -0.3720  0.0479 -0.6979
10748SOL    HW144303   6.038   4.781   8.476 -2.1197  0.0203 -0.3585
10748SOL    HW244304   6.047   4.919   8.562 -0.8364  0.0197 -0.4935
10749SOL     OW44305   0.081   4.776   0.185 -0.1621 -0.0360  0.1835
10749SOL    HW144306  -0.015   4.790   0.159 -0.5312 -1.7497  0.6093
10749SOL    HW244307   0.098   4.679   0.200  1.5461  0.3053  0.5202
10750SOL     OW44308   9.641   5.988   5.655 -0.5685  0.4304 -0.8384
10750SOL    HW144309   9.722   6.044   5.634  0.2500  0.2700  1.6059
10750SOL    HW244310   9.667   5.892   5.657 -0.7796  0.3859  0.0655
10751SOL     OW44311   0.135   7.477   1.075 -0.2027 -0.4186 -0.0354
10751SOL    HW144312   0.223   7.520   1.095 -0.1985 -0.2330 -0.4442
10751SOL    HW244313   0.150   7.387   1.035 -0.1313  0.8814 -3.0331
10752SOL     OW44314   1.858   0.876   9.250  0.0655  0.1428 -0.8993
10752SOL    HW144315   1.933   0.826   9.292  0.3745 -1.6071 -3.4265
10752SOL    HW244316   1.894   0.946   9.189 -0.3423 -0.1635 -1.5004
10753SOL     OW44317   5.739   5.160   9.241  0.1426 -0.0028  0.3097
10753SOL    HW144318   5.684   5.137   9.321  1.4488  0.1630  1.2814
10753SOL    HW244319   5.818   5.098   9.235  0.6974  0.7353 -0.1760
10754SOL     OW44320   8.991   7.113   9.461  0.4904  0.0007  0.3481
10754SOL    HW144321   9.045   7.167   9.396 -0.0189 -0.8418 -0.7923
10754SOL    HW244322   9.014   7.016   9.452 -0.0872 -0.1990  0.9503
10755SOL     OW44323   4.149   8.817   4.942 -0.0921  0.2506  0.1629
10755SOL    HW144324   4.229   8.764   4.918 -0.1422  1.0413 -1.8053
10755SOL    HW244325   4.170   8.875   5.021  1.2376  0.3851 -0.2867
10756SOL     OW44326   4.991   7.532   4.565 -0.3045 -0.1089 -0.7077
10756SOL    HW144327   5.041   7.446   4.573  1.6824  1.0971  0.4478
10756SOL    HW244328   4.893   7.516   4.578  0.2681 -1.8798  1.9209
10757SOL     OW44329   8.040   4.822   9.014 -0.3160  0.1335 -0.5225
10757SOL    HW144330   7.942   4.845   9.012 -0.4611 -0.4796 -0.4381
10757SOL    HW244331   8.051   4.725   9.036  0.3923  0.7094  1.7847
10758SOL     OW44332   3.834   2.630   3.288  0.0874  0.5884  0.2556
10758SOL    HW144333   3.818   2.714   3.339  0.9055  0.8712  0.0616
10758SOL    HW244334   3.875   2.561   3.348  1.0797  0.9316 -0.0146
10759SOL     OW44335   3.507   0.899   5.239 -0.0069 -0.0291 -0.0943
10759SOL    HW144336   3.445   0.932   5.311 -0.4185 -0.8297 -0.0756
10759SOL    HW244337   3.599   0.889   5.277  0.1425  1.1228 -0.1096
10760SOL     OW44338   1.722   6.128   0.730  0.0240 -0.3789 -0.3161
10760SOL    HW144339   1.740   6.032   0.753  1.1182 -0.4533 -1.3982
10760SOL    HW244340   1.775   6.187   0.790  1.1924 -0.5207 -1.1891
10761SOL     OW44341   9.381   5.067   9.481  0.0806 -0.0432  0.1953
10761SOL    HW144342   9.342   5.152   9.444 -2.5542 -1.8564 -1.2916
10761SOL    HW244343   9.466   5.046   9.432  0.0638  1.0320 -0.3190
10762SOL     OW44344   4.920   1.529   0.821 -0.1225 -0.3850 -0.6584
10762SOL    HW144345   4.892   1.621   0.792 -1.4763 -0.1228  1.3976
10762SOL    HW244346   4.868   1.461   0.769 -0.3785  0.0338 -0.9544
10763SOL     OW44347   1.828   8.226   7.569 -0.5893  0.2096 -0.1706
10763SOL    HW144348   1.778   8.281   7.636 -0.8729 -2.4424  1.9128
10763SOL    HW244349   1.769   8.206   7.491 -1.8160 -0.4738  0.9259
10764SOL     OW44350   3.813   8.454   1.257 -0.2846  0.2343 -0.1433
10764SOL    HW144351   3.754   8.529   1.225  1.1725  1.1456 -0.7655
10764SOL    HW244352   3.829   8.464   1.355 -1.6122 -0.3501  0.1502
10765SOL     OW44353   0.672   9.468   3.236  0.3348 -0.4336  0.0016
10765SOL    HW144354   0.604   9.516   3.291 -0.3440 -0.6733 -0.6290
10765SOL    HW244355   0.752   9.446   3.293  0.4144  0.9441  0.4349
10766SOL     OW44356   1.451   2.858   1.554 -0.2335 -0.0360  0.0200
10766SOL    HW144357   1.539   2.841   1.509 -0.3353 -0.8762  0.1381
10766SOL    HW244358   1.412   2.944   1.519 -1.3694 -1.7538 -3.1309
10767SOL     OW44359   9.162   0.842   6.438  0.0264 -0.1694 -0.4016
10767SOL    HW144360   9.126   0.925   6.482 -0.5306 -1.0828  0.9136
10767SOL    HW244361   9.085   0.782   6.414  0.4156 -0.2190 -1.5216
10768SOL     OW44362   9.940   8.831   1.578 -0.1972 -0.0891 -0.1610
10768SOL    HW144363   9.876   8.887   1.631  0.4435  0.7227 -0.2315
10768SOL    HW244364   9.996   8.890   1.520  0.7649 -0.7686  0.0683
10769SOL     OW44365   0.011   7.308   9.416  0.2541  0.7440  0.1028
10769SOL    HW144366   0.086   7.243   9.427  1.4080  2.0372  0.0077
10769SOL    HW244367  -0.073   7.269   9.454  0.9620 -0.7295  0.1856
10770SOL     OW44368   2.389   2.292   0.387 -0.0769  0.0424  0.5844
10770SOL    HW144369   2.332   2.214   0.412  1.5005 -0.6748  2.0100
10770SOL    HW244370   2.383   2.363   0.457  0.1107  0.3389  0.3095
10771SOL     OW44371   1.378   3.577   9.796  0.4999 -0.4593 -0.3369
10771SOL    HW144372   1.342   3.508   9.734  0.5832 -1.2783  0.5124
10771SOL    HW244373   1.477   3.565   9.805  0.2588 -1.4185  1.2452
10772SOL     OW44374   0.873   6.497   2.436 -0.7070 -0.6747 -0.1257
10772SOL    HW144375   0.893   6.572   2.373  0.8711 -1.0600 -0.0940
10772SOL    HW244376   0.820   6.532   2.513 -1.5269  0.0502 -0.9972
10773SOL     OW44377   3.964   6.114   2.897  0.4991  0.2187 -0.3014
10773SOL    HW144378   3.932   6.144   2.987 -0.2264  0.3457 -0.5939
10773SOL    HW244379   4.017   6.187   2.855 -0.6954  0.8679 -0.7264
10774SOL     OW44380   7.783   7.464   1.426 -0.3409  0.2208 -0.3579
10774SOL    HW144381   7.797   7.527   1.349 -1.2641 -0.0692 -0.7689
10774SOL    HW244382   7.863   7.467   1.486  0.2744  0.6530 -1.1824
10775SOL     OW44383   1.579   7.324   4.817  0.1760  0.0540  0.2947
10775SOL    HW144384   1.511   7.262   4.780 -1.3272  0.3970  2.3717
10775SOL    HW244385   1.643   7.274   4.875  0.6516 -0.0084 -0.2900
10776SOL     OW44386   4.736   0.538   9.183  0.0912 -0.1359 -0.1288
10776SOL    HW144387   4.643   0.505   9.196 -0.2284  1.1131  0.8221
10776SOL    HW244388   4.737   0.638   9.179  1.2722 -0.1656 -1.1086
10777SOL     OW44389   8.197   3.309   2.552 -0.1585 -0.1717 -0.0031
10777SOL    HW144390   8.261   3.280   2.481  0.6900  0.3163  0.5483
10777SOL    HW244391   8.185   3.235   2.618 -0.5943 -0.4635 -0.4122
10778SOL     OW44392   7.453   3.467   8.348 -0.0972  0.0241 -1.0755
10778SOL    HW144393   7.428   3.378   8.310  0.1403 -0.0325 -1.0996
10778SOL    HW244394   7.402   3.539   8.302  0.5630 -0.0000 -1.8521
10779SOL     OW44395   8.282   1.769   8.001  0.2302 -0.2519  0.2182
10779SOL    HW144396   8.192   1.810   7.988  0.1165 -0.0800  1.5427
10779SOL    HW244397   8.282   1.676   7.963 -0.5441 -0.3047  0.3456
10780SOL     OW44398   7.221   8.676   4.391 -0.1432 -0.4795  0.2095
10780SOL    HW144399   7.125   8.647   4.395 -0.5636  0.7501 -0.5439
10780SOL    HW244400   7.225   8.774   4.369  1.2518 -0.2103  1.5631
10781SOL     OW44401   5.978   9.253   2.951  0.8211 -0.6365  0.1274
10781SOL    HW144402   5.890   9.245   2.904  0.3763  1.6498  0.5315
10781SOL    HW244403   6.048   9.281   2.886  0.9854 -1.1068  0.0951
10782SOL     OW44404   2.896   1.747   7.984 -0.1736  0.1863  0.1782
10782SOL    HW144405   2.810   1.721   7.939 -0.9499  1.7731  0.7045
10782SOL    HW244406   2.968   1.756   7.915 -0.7763  0.2830 -0.4492
10783SOL     OW44407   0.249   8.044   1.266 -0.7984 -0.3746 -0.2537
10783SOL    HW144408   0.319   7.979   1.235 -0.7470 -0.6897  0.5257
10783SOL    HW244409   0.163   7.995   1.280 -0.7316 -0.2868  0.4360
10784SOL     OW44410   6.670   2.243   5.169  0.2608 -0.1810  0.0532
10784SOL    HW144411   6.734   2.262   5.094 -0.2789 -0.1690 -0.4079
10784SOL    HW244412   6.598   2.182   5.136  0.1667 -0.3844  0.6358
10785SOL     OW44413   9.168   3.775   1.618 -0.6014  0.3355  0.1192
10785SOL    HW144414   9.240   3.765   1.550 -0.5557  1.9495 -0.0924
10785SOL    HW244415   9.180   3.861   1.666 -0.8288 -0.6420  1.9601
10786SOL     OW44416   1.168   6.697   8.667  0.3618  0.1748 -0.2539
10786SOL    HW144417   1.090   6.634   8.663  1.7821 -1.6777  0.2097
10786SOL    HW244418   1.141   6.787   8.634 -2.3279 -0.0592  1.1868
10787SOL     OW44419   8.247   8.254   9.234 -0.4439  0.0708 -0.3409
10787SOL    HW144420   8.239   8.158   9.258  0.8007  0.0010 -0.1386
10787SOL    HW244421   8.233   8.266   9.135 -1.9196 -0.1353 -0.1545
10788SOL     OW44422   2.641   8.193   4.630 -0.2825 -0.1014 -0.0825
10788SOL    HW144423   2.713   8.260   4.649 -1.3775  1.1824 -0.3966
10788SOL    HW244424   2.613   8.149   4.715  1.0134 -0.7622  0.0116
10789SOL     OW44425   0.028   5.503   5.198 -0.1901  0.0763  0.1847
10789SOL    HW144426   0.043   5.506   5.099 -1.6433 -1.7209 -0.1116
10789SOL    HW244427   0.063   5.587   5.239  0.4582  0.8361 -1.8456
10790SOL     OW44428   4.290   8.682   6.809  0.0408  0.6118 -0.2064
10790SOL    HW144429   4.356   8.639   6.871 -2.1665 -1.3737  0.8360
10790SOL    HW244430   4.260   8.616   6.741 -1.7836  1.1231  0.0762
10791SOL     OW44431   9.847   4.159   9.211 -0.1212  0.6925 -0.3894
10791SOL    HW144432   9.777   4.101   9.170 -0.4583  1.2279 -0.5679
10791SOL    HW244433   9.877   4.227   9.145  0.4286  0.5894 -0.2498
10792SOL     OW44434   0.080   5.710   0.198  0.0923  0.3467 -0.0649
10792SOL    HW144435   0.058   5.790   0.141  0.3060  0.3344 -0.1657
10792SOL    HW244436   0.068   5.733   0.294 -1.1146  0.1098 -0.1451
10793SOL     OW44437   8.547   2.781   4.876  0.6141 -0.1222  0.1333
10793SOL    HW144438   8.479   2.849   4.903  0.1857 -1.1547  1.7120
10793SOL    HW244439   8.571   2.794   4.780  0.0414  1.8248  0.2377
10794SOL     OW44440   6.957   4.145   2.729  0.0322 -0.5603 -0.2222
10794SOL    HW144441   6.867   4.104   2.747 -0.7241  1.0567 -0.2005
10794SOL    HW244442   7.013   4.081   2.676 -0.6396 -2.1224  0.9177
10795SOL     OW44443   7.407   6.606   5.874 -0.1996  0.0554  0.2873
10795SOL    HW144444   7.401   6.677   5.803 -0.7203  0.5339  0.8109
10795SOL    HW244445   7.503   6.588   5.894  0.0203 -1.4576 -1.9174
10796SOL     OW44446   8.701   9.350   6.801  0.1054 -0.3174  0.5472
10796SOL    HW144447   8.646   9.268   6.786  1.4409 -1.0272 -0.5608
10796SOL    HW244448   8.758   9.337   6.882  0.4984 -0.5713  0.2276
10797SOL     OW44449   0.043   0.298   3.459 -0.2527 -0.2118  1.0011
10797SOL    HW144450  -0.057   0.295   3.459 -0.2754  0.6080 -0.0023
10797SOL    HW244451   0.075   0.348   3.379  1.0938 -4.5419 -1.3522
10798SOL     OW44452   7.838   6.705   2.444  0.2760 -0.0282 -0.1521
10798SOL    HW144453   7.899   6.680   2.368  1.2856 -2.2471  1.3423
10798SOL    HW244454   7.847   6.803   2.462  1.6519  0.1260 -1.4824
10799SOL     OW44455   0.236   5.141   1.421 -0.6930  0.2320  0.3193
10799SOL    HW144456   0.180   5.197   1.361 -1.2286 -0.0515  0.5497
10799SOL    HW244457   0.259   5.055   1.376 -0.0965  0.5262  0.0670
10800SOL     OW44458   4.761   5.167   3.139 -0.3251  0.4410  0.1485
10800SOL    HW144459   4.776   5.264   3.119 -0.0110 -0.4021 -4.2356
10800SOL    HW244460   4.846   5.116   3.124 -1.2576 -0.9288 -0.6492
10801SOL     OW44461   0.526   5.688   1.040 -0.1019 -0.4887 -0.3734
10801SOL    HW144462   0.513   5.656   1.134  0.8104  0.6726  0.1643
10801SOL    HW244463   0.508   5.613   0.976 -1.1600 -1.1709  0.6997
10802SOL     OW44464   1.038   9.612   3.793 -0.0031 -0.5943 -0.0981
10802SOL    HW144465   1.105   9.539   3.804  0.7657 -0.0556 -1.1176
10802SOL    HW244466   0.966   9.602   3.862  1.9296 -0.2524  2.0158
10803SOL     OW44467   8.638   0.783   6.020  0.3049 -0.6100  0.0323
10803SOL    HW144468   8.727   0.742   6.040  0.2715  0.2373  1.9901
10803SOL    HW244469   8.651   0.870   5.972  0.4924 -0.9832 -0.5979
10804SOL     OW44470   7.628   5.225   1.700  0.0710 -0.0779 -0.2700
10804SOL    HW144471   7.555   5.161   1.724 -0.5261  0.1274 -1.4699
10804SOL    HW244472   7.712   5.175   1.680  0.1321 -0.3515  0.6560
10805SOL     OW44473   8.832   7.486   2.925  0.3371 -0.0511  0.1912
10805SOL    HW144474   8.893   7.532   2.861 -1.2785  0.4235 -1.0497
10805SOL    HW244475   8.757   7.547   2.950 -0.1002 -0.9069  1.0311
10806SOL     OW44476   0.484   4.935   3.900  0.1907 -0.9907  0.0680
10806SOL    HW144477   0.405   4.995   3.886  1.0393  0.1806  0.2584
10806SOL    HW244478   0.514   4.899   3.811 -0.1085 -0.8587 -0.0877
10807SOL     OW44479   6.660   1.613   3.536 -0.2355 -0.2586 -0.1966
10807SOL    HW144480   6.589   1.671   3.578 -0.3779 -0.6577  0.1174
10807SOL    HW244481   6.624   1.574   3.451 -1.8213 -3.6088  1.9419
10808SOL     OW44482   3.783   2.089   5.899 -0.3182  0.3140 -0.0063
10808SOL    HW144483   3.718   2.047   5.962 -0.1338 -0.7495 -0.5039
10808SOL    HW244484   3.863   2.121   5.949  0.6925 -2.2344  0.0987
10809SOL     OW44485   3.280   6.221   1.704  0.0775 -0.1214 -0.0575
10809SOL    HW144486   3.351   6.275   1.659 -0.6665 -0.0101 -1.1129
10809SOL    HW244487   3.209   6.196   1.637 -0.5456 -0.7854  0.8356
10810SOL     OW44488   9.242   0.141   2.699 -0.3362  0.1846 -0.1286
10810SOL    HW144489   9.253   0.199   2.780  1.5771  0.9090 -0.8634
10810SOL    HW244490   9.311   0.069   2.700  0.3789  0.8183 -1.6019
10811SOL     OW44491   3.456   6.905   4.941  0.6074 -0.4936 -0.1438
10811SOL    HW144492   3.523   6.848   4.893 -0.0887  0.1990 -1.9676
10811SOL    HW244493   3.501   6.951   5.017  1.8172 -1.3033 -0.3438
10812SOL     OW44494   3.158   4.502   0.841 -0.2934  0.4835 -0.0137
10812SOL    HW144495   3.221   4.466   0.773 -1.1153 -0.8983 -0.0758
10812SOL    HW244496   3.128   4.428   0.901 -1.0467  1.3134  0.6529
10813SOL     OW44497   7.707   9.238   8.857  0.0438  0.2267 -0.0663
10813SOL    HW144498   7.728   9.270   8.765  0.3868  1.9045  0.5872
10813SOL    HW244499   7.779   9.176   8.888  1.0410  1.3781 -0.0815
10814SOL     OW44500   5.844   1.807   8.688 -0.3460  0.2005  0.0317
10814SOL    HW144501   5.810   1.739   8.623 -0.3721  0.6144 -0.3878
10814SOL    HW244502   5.938   1.785   8.712 -0.5547 -0.3367  0.3727
10815SOL     OW44503   5.830   3.953   9.534  0.2768  0.3086  0.2830
10815SOL    HW144504   5.750   3.913   9.579 -0.9904  2.3118 -0.1483
10815SOL    HW244505   5.897   3.881   9.516 -1.8037 -1.5571 -0.1661
10816SOL     OW44506   4.351   2.237   9.888 -0.0643  0.0655  0.2054
10816SOL    HW144507   4.404   2.154   9.868 -0.2604  0.0210 -0.1321
10816SOL    HW244508   4.414   2.309   9.918  0.0679 -0.3066  0.8349
10817SOL     OW44509   6.391   7.303   4.410  0.4397 -0.2015 -0.3649
10817SOL    HW144510   6.389   7.381   4.472 -1.6730 -0.0086 -0.6386
10817SOL    HW244511   6.341   7.325   4.326  0.3921 -1.6046 -0.7255
10818SOL     OW44512   6.600   1.739  10.008  0.3267  1.0024  0.2307
10818SOL    HW144513   6.669   1.761  10.077  1.2242  0.9511 -0.6518
10818SOL    HW244514   6.531   1.678  10.049  2.3545 -1.3042  0.3301
10819SOL     OW44515   4.042   6.751   8.739  0.3261 -0.5347 -0.0361
10819SOL    HW144516   4.011   6.686   8.670 -0.1360 -0.7045  0.3250
10819SOL    HW244517   4.034   6.844   8.704 -1.8572 -0.4736  0.4919
10820SOL     OW44518   6.672   3.706   9.810  0.2364 -0.0388  0.2338
10820SOL    HW144519   6.740   3.672   9.745  1.3310 -2.1308  2.3464
10820SOL    HW244520   6.635   3.792   9.778  0.8717 -0.9040 -3.0224
10821SOL     OW44521   4.578   1.844   8.759 -0.5277  0.1548  0.0062
10821SOL    HW144522   4.568   1.848   8.858  0.0063 -1.7641  0.1730
10821SOL    HW244523   4.521   1.771   8.723 -0.7299  0.8543 -1.1072
10822SOL     OW44524   1.006   5.024   1.548  0.7084  0.5206  0.3307
10822SOL    HW144525   0.931   4.963   1.524  0.6436  0.3241  1.0176
10822SOL    HW244526   1.079   5.015   1.480  0.5658 -0.0822  0.2538
10823SOL     OW44527   2.361   5.475   9.205  0.0517  0.7187 -0.3523
10823SOL    HW144528   2.339   5.486   9.302  0.1018 -1.7767 -0.0217
10823SOL    HW244529   2.458   5.493   9.190  0.0831  0.9357  0.1086
10824SOL     OW44530   8.958   5.697   9.789 -0.3425  0.3097 -0.1806
10824SOL    HW144531   9.047   5.725   9.753 -1.1555 -0.6039 -3.0497
10824SOL    HW244532   8.890   5.768   9.771 -0.3049  0.8615  1.7078
10825SOL     OW44533   9.143   6.826   6.972 -0.3460 -0.0079  0.1521
10825SOL    HW144534   9.213   6.818   6.901  0.9037  1.2526  1.2198
10825SOL    HW244535   9.056   6.793   6.936  0.5663 -0.6607 -1.5201
10826SOL     OW44536   8.242   9.667   7.907  0.5620 -0.1610  0.1977
10826SOL    HW144537   8.212   9.726   7.831  0.3308 -0.3758  0.1220
10826SOL    HW244538   8.339   9.681   7.923  0.2949  1.0099  0.8518
10827SOL     OW44539   6.260   2.028   5.782 -0.0029  0.8870  0.1578
10827SOL    HW144540   6.244   2.003   5.686 -2.7738  1.3012  0.4755
10827SOL    HW244541   6.308   2.116   5.785 -1.6539  1.8557 -0.8693
10828SOL     OW44542   2.026   9.796   6.183  0.6988  0.0456  0.1124
10828SOL    HW144543   2.004   9.848   6.265 -1.6642  0.0408 -0.4642
10828SOL    HW244544   2.054   9.858   6.110 -2.2785  0.6030 -0.6270
10829SOL     OW44545   6.354   9.762   6.724 -0.3032 -0.4573  0.0073
10829SOL    HW144546   6.417   9.835   6.750 -0.1933 -0.4918 -0.1620
10829SOL    HW244547   6.406   9.681   6.696 -0.4164 -1.3452  2.2306
10830SOL     OW44548   0.298   1.208   5.198 -0.0897 -0.1447 -0.1151
10830SOL    HW144549   0.295   1.307   5.203 -0.9290 -0.1974  0.4005
10830SOL    HW244550   0.305   1.169   5.290  1.0177 -0.5404 -0.3552
10831SOL     OW44551   2.738   9.577   7.910  0.0822 -0.2059  0.0081
10831SOL    HW144552   2.721   9.627   7.995  0.0716  1.0443 -0.7188
10831SOL    HW244553   2.736   9.641   7.833  3.0983 -0.7896 -0.6308
10832SOL     OW44554   0.628   0.271   2.643  0.0347  0.3936 -0.5978
10832SOL    HW144555   0.725   0.276   2.667 -0.1885 -1.2622  0.6837
10832SOL    HW244556   0.578   0.343   2.690  0.1599 -0.6682  1.1948
10833SOL     OW44557   0.295   0.861   0.536  0.2018  0.0438 -0.4331
10833SOL    HW144558   0.303   0.950   0.490 -0.6033  0.4429  0.1710
10833SOL    HW244559   0.317   0.788   0.471  0.3924  0.6597 -1.0775
10834SOL     OW44560   3.212   7.671   5.507  0.7293 -0.3781  0.0977
10834SOL    HW144561   3.188   7.767   5.490  1.5372 -0.2183 -0.1138
10834SOL    HW244562   3.276   7.667   5.584  3.1422 -0.5034 -1.8707
10835SOL     OW44563   2.590   1.689   0.064  0.6041  0.2419  0.4021
10835SOL    HW144564   2.599   1.741  -0.021 -0.7724  0.5051  0.3969
10835SOL    HW244565   2.662   1.717   0.128 -0.7773  3.0447  0.8244
10836SOL     OW44566   4.799   6.225   8.093  0.4695 -0.5507 -0.5212
10836SOL    HW144567   4.835   6.294   8.156  0.1489 -0.4651 -0.4341
10836SOL    HW244568   4.750   6.270   8.019 -0.4380 -0.7251 -0.0306
10837SOL     OW44569   1.310   5.130   7.256  0.3732  0.6127  0.3335
10837SOL    HW144570   1.291   5.075   7.175  1.5524  1.4820 -0.5636
10837SOL    HW244571   1.409   5.140   7.266  0.2937 -0.7376  2.7495
10838SOL     OW44572   2.860   0.094   4.587  0.4556 -0.1410 -0.2265
10838SOL    HW144573   2.773   0.136   4.561 -0.2782 -1.2860  0.3637
10838SOL    HW244574   2.892   0.034   4.514 -0.9900 -2.3965  0.9383
10839SOL     OW44575   3.771   5.206   5.901  0.2687 -0.4948 -0.5203
10839SOL    HW144576   3.839   5.134   5.911 -0.4407 -1.0900  0.0224
10839SOL    HW244577   3.680   5.170   5.923 -0.2081  0.3242 -1.1232
10840SOL     OW44578   8.441   0.429   9.633  0.2178 -0.2403 -0.5938
10840SOL    HW144579   8.349   0.466   9.628 -0.4093 -1.8040 -0.7701
10840SOL    HW244580   8.474   0.434   9.727 -0.1918 -0.0510 -0.4593
10841SOL     OW44581   8.964   6.654   1.708  0.5863 -0.1249  0.2133
10841SOL    HW144582   9.037   6.586   1.700 -0.0580 -0.8626  0.6321
10841SOL    HW244583   8.992   6.724   1.774  0.7181 -0.6639  0.7333
10842SOL     OW44584   2.328   8.723   9.988 -0.2549  0.0433 -0.1891
10842SOL    HW144585   2.267   8.677  10.052 -0.5711  0.3101 -0.2990
10842SOL    HW244586   2.309   8.692   9.895  0.2632 -0.4083 -0.1529
10843SOL     OW44587   7.781   1.104   5.170 -0.2448  0.1597  0.4035
10843SOL    HW144588   7.761   1.125   5.074  0.4725 -0.4907  0.1030
10843SOL    HW244589   7.879   1.115   5.186 -0.2254 -0.6478  0.8313
10844SOL     OW44590   1.272   2.274   9.595 -0.5569 -1.0392  0.5339
10844SOL    HW144591   1.294   2.260   9.692  0.8366 -0.1502  0.3528
10844SOL    HW244592   1.337   2.223   9.539  0.3292  0.6524  0.0137
10845SOL     OW44593   6.791   0.863   1.439 -0.0964  0.0744 -0.5455
10845SOL    HW144594   6.721   0.930   1.413  0.2438 -0.1046 -1.9654
10845SOL    HW244595   6.796   0.857   1.539  0.3020  2.6356 -0.3730
10846SOL     OW44596   3.847   5.306   4.053  0.3461 -0.0453  0.1365
10846SOL    HW144597   3.894   5.221   4.028 -1.0961 -0.6393 -0.6010
10846SOL    HW244598   3.782   5.330   3.981 -1.0968  0.2866  1.5360
10847SOL     OW44599   3.404   7.162   4.547 -0.1303  0.3153 -0.4222
10847SOL    HW144600   3.398   7.254   4.586 -0.4700 -0.4785  1.4408
10847SOL    HW244601   3.322   7.144   4.491  0.2726  1.3902 -1.3762
10848SOL     OW44602   2.089   1.876   5.819  0.2313  0.1539 -0.1808
10848SOL    HW144603   2.133   1.792   5.849 -0.7283 -0.1721  0.3426
10848SOL    HW244604   2.001   1.854   5.777  0.3792  0.8278 -0.8642
10849SOL     OW44605   0.154   1.984   8.863 -1.1262  0.7199  0.1184
10849SOL    HW144606   0.212   1.954   8.939  1.8131 -0.4694 -2.4383
10849SOL    HW244607   0.088   1.912   8.841 -1.9919  1.0725  1.5234
10850SOL     OW44608   8.343   0.482   8.818  0.4105 -0.0093  0.1599
10850SOL    HW144609   8.433   0.519   8.841  0.1207  1.1040 -0.4466
10850SOL    HW244610   8.346   0.382   8.819  1.4351  0.0282  0.9564
10851SOL     OW44611   7.816   9.262   4.634 -0.6307 -0.2466  0.3777
10851SOL    HW144612   7.830   9.166   4.655  1.7452  0.3829  1.8363
10851SOL    HW244613   7.750   9.270   4.560 -0.9529 -2.9844  0.3126
10852SOL     OW44614   4.258   2.817   3.878 -0.4001 -0.2091  0.6869
10852SOL    HW144615   4.277   2.914   3.892 -0.5149 -0.3699  2.0332
10852SOL    HW244616   4.210   2.804   3.791 -0.6699  0.9721  0.6570
10853SOL     OW44617   1.603   5.750   3.267  0.1366  1.1763 -0.7607
10853SOL    HW144618   1.608   5.847   3.290 -0.4701  1.1511 -0.5170
10853SOL    HW244619   1.521   5.733   3.213 -0.3486  0.6125  0.1401
10854SOL     OW44620   2.453   9.417   0.463 -0.0046  0.4431  0.2678
10854SOL    HW144621   2.478   9.505   0.424  1.4215 -0.5284 -1.0863
10854SOL    HW244622   2.516   9.346   0.430 -1.8958 -1.3182  0.2738
10855SOL     OW44623   0.675   2.553   9.728  0.0239 -0.1342  0.1601
10855SOL    HW144624   0.723   2.556   9.641 -0.2394 -0.8814 -0.0123
10855SOL    HW244625   0.741   2.563   9.803  0.2846  0.1973 -0.1109
10856SOL     OW44626   0.606   5.325   7.525  0.1418 -0.3625 -0.2017
10856SOL    HW144627   0.648   5.238   7.547  0.5060  0.1457  1.1297
10856SOL    HW244628   0.563   5.319   7.435  1.4608 -1.4454 -0.7753
10857SOL     OW44629   3.615   2.099   9.625 -0.1543 -0.4212  0.3148
10857SOL    HW144630   3.516   2.104   9.611 -0.0657 -2.9190 -1.6964
10857SOL    HW244631   3.662   2.125   9.541  0.8066 -1.7220  0.4343
10858SOL     OW44632   5.985   1.568   9.614  0.6627 -0.8926  0.1334
10858SOL    HW144633   6.041   1.587   9.534  0.7147  0.2270  0.4309
10858SOL    HW244634   5.915   1.501   9.591  0.4977 -0.3521 -0.9163
10859SOL     OW44635   0.164   9.988   5.392 -0.2363 -0.1971 -0.3357
10859SOL    HW144636   0.233  10.039   5.342 -0.5481  1.8240  1.2505
10859SOL    HW244637   0.133  10.041   5.471 -1.9245 -2.0484  0.2974
10860SOL     OW44638   2.781   5.336   1.370 -0.4355 -0.5474  0.3240
10860SOL    HW144639   2.876   5.348   1.343 -0.1983 -0.7090  1.0837
10860SOL    HW244640   2.771   5.254   1.426 -0.9801 -0.4244  0.4176
10861SOL     OW44641   2.097   0.170   8.604 -0.4847 -0.0158  0.0521
10861SOL    HW144642   2.037   0.232   8.655  0.1041  0.9781 -0.4263
10861SOL    HW244643   2.076   0.177   8.506  1.3265  1.4031 -0.2660
10862SOL     OW44644   3.041   2.430   8.596 -0.1967  0.1634  0.2514
10862SOL    HW144645   2.984   2.512   8.594 -1.6703 -0.8714 -1.1260
10862SOL    HW244646   3.111   2.436   8.525  0.0056  0.4335  0.4730
10863SOL     OW44647   9.480   6.236   3.916 -0.3232 -0.2720  0.6219
10863SOL    HW144648   9.550   6.220   3.986 -0.2570  0.9242  0.8244
10863SOL    HW244649   9.522   6.229   3.825 -0.6731 -3.2065  0.6226
10864SOL     OW44650   4.823   8.805   5.985 -0.0383  0.0486 -0.1662
10864SOL    HW144651   4.888   8.878   5.960  1.4173 -1.1924 -0.0712
10864SOL    HW244652   4.766   8.783   5.906  0.5982  0.1748 -0.6638
10865SOL     OW44653   5.714   4.081   1.118 -0.1508 -0.5207  0.1508
10865SOL    HW144654   5.745   4.059   1.026  1.1429 -1.1706  0.7395
10865SOL    HW244655   5.728   4.003   1.178 -0.8858 -0.0616  0.9322
10866SOL     OW44656   9.973   4.295   5.807  0.2654  0.8616 -0.3769
10866SOL    HW144657   9.895   4.237   5.829  1.3947 -0.6180 -0.1881
10866SOL    HW244658   9.949   4.391   5.821 -1.5767  0.4319 -0.5355
10867SOL     OW44659   6.267   9.446   5.857 -0.0410 -0.0507  0.2374
10867SOL    HW144660   6.270   9.470   5.954 -0.2176  0.9916 -0.0018
10867SOL    HW244661   6.215   9.362   5.845  0.9840 -0.8314  1.1613
10868SOL     OW44662   0.414   6.767   1.301  0.1005 -0.4550 -0.0190
10868SOL    HW144663   0.435   6.693   1.237 -0.6065 -1.5911  1.0501
10868SOL    HW244664   0.315   6.780   1.305  0.2961  1.8940 -1.6877
10869SOL     OW44665   3.524   9.072   2.895  0.3244  0.1195 -0.5039
10869SOL    HW144666   3.513   8.973   2.904  0.7395 -0.0542 -1.8937
10869SOL    HW244667   3.553   9.110   2.983  0.5630 -1.0468 -0.0700
10870SOL     OW44668   0.986   2.358   7.804 -0.0826  0.0834 -0.4257
10870SOL    HW144669   1.046   2.280   7.822  0.4682  0.5289 -0.3036
10870SOL    HW244670   1.039   2.443   7.811 -0.8135  0.5068  0.0832
10871SOL     OW44671   3.047   3.270   4.328 -0.2912  0.0429  0.3763
10871SOL    HW144672   3.079   3.339   4.393 -0.8008 -0.0805  0.7699
10871SOL    HW244673   3.125   3.219   4.291  0.1892  1.6822 -0.8908
10872SOL     OW44674   2.051   1.729   0.313 -0.0904 -0.2325 -0.2771
10872SOL    HW144675   1.966   1.772   0.284  0.3273 -0.6748 -2.2296
10872SOL    HW244676   2.037   1.631   0.326  0.2733 -0.4391 -1.3473
10873SOL     OW44677   3.220   6.944   5.798 -0.9207  0.4339 -0.2622
10873SOL    HW144678   3.235   6.965   5.701  0.4407  0.7975  0.0133
10873SOL    HW244679   3.196   7.028   5.847 -1.7047  0.2341 -0.2959
10874SOL     OW44680   4.453   5.807   4.002 -0.3069  0.0627 -0.0624
10874SOL    HW144681   4.465   5.710   3.983  0.9402 -0.0094  1.0520
10874SOL    HW244682   4.486   5.861   3.925 -0.2445 -0.3695 -0.3376
10875SOL     OW44683   8.711   9.550   4.280  0.3488  0.2770 -0.4117
10875SOL    HW144684   8.653   9.586   4.207  0.6098  1.3436 -0.1015
10875SOL    HW244685   8.759   9.468   4.248  0.7266  0.9378 -1.5365
10876SOL     OW44686   0.894   1.071   7.830  0.2730 -0.2026  0.5462
10876SOL    HW144687   0.875   1.155   7.779 -0.9638 -1.1971 -0.6730
10876SOL    HW244688   0.858   1.080   7.922  0.7733  0.8640  0.6545
10877SOL     OW44689   9.973   5.559   3.819  0.3781  0.2165 -0.2570
10877SOL    HW144690  10.038   5.558   3.743 -0.5973 -1.2510 -1.0987
10877SOL    HW244691   9.950   5.653   3.842  0.4110  0.6769 -2.0174
10878SOL     OW44692   4.288   4.427   2.185 -0.1217 -0.4814 -0.4494
10878SOL    HW144693   4.320   4.482   2.262 -1.3811 -1.3597  0.7404
10878SOL    HW244694   4.293   4.481   2.101  0.1436  0.9077  0.4412
10879SOL     OW44695   3.758   9.322   6.107  0.3903  0.1714 -0.1810
10879SOL    HW144696   3.848   9.338   6.065 -0.8207  3.7009 -1.7183
10879SOL    HW244697   3.730   9.228   6.092  3.2559 -0.6304 -0.8096
10880SOL     OW44698   6.636   4.705   0.006  0.0341 -0.1094 -0.0487
10880SOL    HW144699   6.665   4.645   0.081 -0.7372 -2.2707 -1.4277
10880SOL    HW244700   6.570   4.657  -0.051 -0.1091  1.8541 -1.5917
10881SOL     OW44701   4.553   5.298   3.329 -0.2426 -0.1424  0.0639
10881SOL    HW144702   4.588   5.232   3.395  0.6319 -0.1132 -0.3663
10881SOL    HW244703   4.544   5.253   3.240  1.7195  0.7004 -0.5689
10882SOL     OW44704   6.485   4.744   8.765 -0.4322 -0.0384  0.3112
10882SOL    HW144705   6.502   4.657   8.812  0.5244  0.5428  1.0481
10882SOL    HW244706   6.431   4.727   8.682 -0.0897 -1.3522  0.3510
10883SOL     OW44707   1.307   6.719   1.576  0.1832 -0.1627 -0.4354
10883SOL    HW144708   1.238   6.700   1.646 -0.8859  0.2262 -1.3681
10883SOL    HW244709   1.318   6.818   1.565  2.2215 -0.2120  0.9908
10884SOL     OW44710   9.588   1.447   3.357  0.4672  0.2304 -0.3202
10884SOL    HW144711   9.591   1.495   3.444 -0.6075  1.7438 -1.0810
10884SOL    HW244712   9.617   1.509   3.284 -0.8026 -0.3039 -1.3000
10885SOL     OW44713   1.006   2.648   4.937  0.0908  0.0796 -0.0970
10885SOL    HW144714   1.067   2.629   5.015  0.2339 -0.4241 -0.3332
10885SOL    HW244715   1.052   2.711   4.874 -0.0525  0.5461  0.2557
10886SOL     OW44716   5.429   4.183   7.666  0.2791  0.3220 -0.3452
10886SOL    HW144717   5.410   4.254   7.599 -1.3008 -0.2405 -0.5122
10886SOL    HW244718   5.348   4.125   7.678  1.2056 -0.8325  0.5323
10887SOL     OW44719   3.159   3.258   5.956  0.3396 -0.4595  0.5660
10887SOL    HW144720   3.202   3.199   6.023  0.2296 -0.9130  0.2416
10887SOL    HW244721   3.172   3.220   5.864  0.7355  0.3026  0.2992
10888SOL     OW44722   7.665   3.152   4.580 -0.1611  0.3877 -0.3245
10888SOL    HW144723   7.592   3.207   4.539  0.8643  2.8464  1.0054
10888SOL    HW244724   7.738   3.139   4.513 -0.6947  0.0495 -0.8543
10889SOL     OW44725   7.899   3.367   0.946 -0.0138 -1.0723 -0.5588
10889SOL    HW144726   7.847   3.316   1.015 -1.4607 -0.6030 -1.2897
10889SOL    HW244727   7.856   3.456   0.930  0.6929 -0.9015 -1.5896
10890SOL     OW44728   7.804   7.931   4.298  0.3642  0.3612 -0.0935
10890SOL    HW144729   7.752   7.882   4.228  1.7196 -2.1449  0.6064
10890SOL    HW244730   7.867   7.868   4.343 -0.9020  1.7654  3.8355
10891SOL     OW44731   6.814   9.899   8.282  0.1989 -0.0847  0.2392
10891SOL    HW144732   6.896   9.953   8.302 -0.6058  0.8500  1.0872
10891SOL    HW244733   6.745   9.958   8.242 -0.1992 -0.7883 -0.1096
10892SOL     OW44734   0.616   6.437   4.904 -0.5516 -0.1620 -0.1267
10892SOL    HW144735   0.651   6.526   4.932 -1.2927 -0.4692  1.8050
10892SOL    HW244736   0.516   6.439   4.901 -0.5398 -0.4649 -1.7120
10893SOL     OW44737   4.250   9.377   4.499  1.3920  0.3409  0.3682
10893SOL    HW144738   4.192   9.452   4.530  2.1267  0.4589  1.4816
10893SOL    HW244739   4.346   9.405   4.505  1.6337 -0.4097  0.0212
10894SOL     OW44740   0.367   5.247   1.014  0.1117 -0.0368 -0.6904
10894SOL    HW144741   0.312   5.241   1.098  0.4386  2.0970 -0.2771
10894SOL    HW244742   0.320   5.201   0.940 -1.8960  1.0768 -0.1539
10895SOL     OW44743   7.154   1.291   8.134  0.4331  0.4058 -0.1328
10895SOL    HW144744   7.253   1.279   8.131  0.3865 -0.8440  2.3862
10895SOL    HW244745   7.126   1.328   8.222 -1.3116  1.2515 -0.9971
10896SOL     OW44746   0.217   6.827   5.014 -0.5578 -0.5195 -0.4396
10896SOL    HW144747   0.148   6.803   5.082 -0.1068  0.4562  0.3625
10896SOL    HW244748   0.171   6.862   4.932 -1.0516 -0.7754 -0.2756
10897SOL     OW44749   0.133   8.648   6.779  0.4246  0.9444  0.2257
10897SOL    HW144750   0.117   8.741   6.745 -0.1260  0.7027 -0.1777
10897SOL    HW244751   0.047   8.609   6.811  0.1339 -0.4364 -2.1264
10898SOL     OW44752   8.261   5.324   5.175 -0.1939  0.4326 -0.5161
10898SOL    HW144753   8.210   5.241   5.201  0.8503 -0.6067 -1.7229
10898SOL    HW244754   8.200   5.387   5.127 -0.0742 -1.3365 -3.0611
10899SOL     OW44755   7.363   5.823   7.233 -0.1096  0.1366  0.2540
10899SOL    HW144756   7.417   5.878   7.295 -1.8087  0.9250  1.0621
10899SOL    HW244757   7.338   5.877   7.152 -1.0333  0.2881  0.6332
10900SOL     OW44758   2.406   8.453   0.909  0.1133 -0.2830  0.3434
10900SOL    HW144759   2.423   8.427   1.004 -0.8129 -2.3541 -0.0097
10900SOL    HW244760   2.491   8.482   0.866  0.1720  2.7069  2.3732
10901SOL     OW44761   0.917   2.727   7.933 -0.7285  0.1715 -0.0480
10901SOL    HW144762   0.987   2.657   7.914 -0.6435  0.3439 -0.3705
10901SOL    HW244763   0.944   2.813   7.891 -0.9172  0.3576  0.2127
10902SOL     OW44764   2.057   1.307   8.157 -0.0481 -0.0012 -0.5150
10902SOL    HW144765   2.084   1.385   8.100 -2.3664  1.0423 -0.2393
10902SOL    HW244766   1.981   1.259   8.114 -0.2233 -0.6696  0.5145
10903SOL     OW44767   7.956   1.013   4.850  0.5903  0.7755 -0.2935
10903SOL    HW144768   7.887   1.053   4.909  0.4120  0.0036  0.0351
10903SOL    HW244769   7.953   0.913   4.858 -1.4453  0.4647 -3.8144
10904SOL     OW44770   4.708   3.504  10.061 -0.2984  1.4398  0.3101
10904SOL    HW144771   4.645   3.497   9.984 -1.3159  0.5732  1.1943
10904SOL    HW244772   4.741   3.413  10.085 -1.6109  1.4264  2.1832
10905SOL     OW44773   3.392   1.890   0.752  0.5405  0.0056  0.2404
10905SOL    HW144774   3.383   1.946   0.669 -0.4656  1.2361  1.1567
10905SOL    HW244775   3.319   1.822   0.754  0.9660 -0.4693 -0.2092
10906SOL     OW44776   1.743   7.956   6.461  0.2423  0.2887  0.6956
10906SOL    HW144777   1.829   7.958   6.513  1.7333  0.0977 -1.6734
10906SOL    HW244778   1.741   8.033   6.398 -1.5018  0.4764  0.9656
10907SOL     OW44779   8.043   8.701   2.862 -0.3701  0.1528  0.0640
10907SOL    HW144780   7.988   8.780   2.835  0.2578  0.1424 -1.2539
10907SOL    HW244781   8.034   8.687   2.961 -1.4780  1.1043  0.1084
10908SOL     OW44782   3.403   1.733   4.775  0.2471  0.0207  0.7950
10908SOL    HW144783   3.491   1.762   4.738  0.1326  0.7217  1.0741
10908SOL    HW244784   3.418   1.675   4.855  0.4681 -0.4514  0.4134
10909SOL     OW44785   3.264   8.303   6.984 -0.5096 -0.3584 -0.1680
10909SOL    HW144786   3.345   8.247   6.964 -1.5309 -2.1649  0.6296
10909SOL    HW244787   3.195   8.287   6.913 -0.3996  0.7287 -0.5241
10910SOL     OW44788   0.011   5.182   5.658 -0.2819 -0.1093 -0.2388
10910SOL    HW144789   0.095   5.218   5.699  0.0975 -0.0599 -1.0469
10910SOL    HW244790  -0.012   5.238   5.578 -1.5470  0.3960  0.4712
10911SOL     OW44791   2.397   2.080   1.390  1.2820 -0.0892  0.1121
10911SOL    HW144792   2.363   2.070   1.297 -1.0328  1.8016  0.7059
10911SOL    HW244793   2.409   1.989   1.431 -0.4389 -0.8663 -1.0651
10912SOL     OW44794   8.362   2.893   3.713 -0.2962 -0.2258 -0.0162
10912SOL    HW144795   8.271   2.907   3.674 -0.3659 -2.2587 -0.6481
10912SOL    HW244796   8.415   2.831   3.654  2.4143  2.8847 -0.9691
10913SOL     OW44797   1.417   5.606   7.668 -0.0543 -0.3432 -0.3569
10913SOL    HW144798   1.324   5.582   7.696  0.1251 -0.5652  0.0401
10913SOL    HW244799   1.438   5.561   7.581 -0.2703 -0.3955 -0.3830
10914SOL     OW44800   1.591   0.012   1.562 -0.4322  0.0638  0.3094
10914SOL    HW144801   1.542  -0.075   1.563  0.2710 -0.3415  0.0180
10914SOL    HW244802   1.560   0.069   1.638 -1.1876 -0.2773  0.2576
10915SOL     OW44803   2.147   2.117   1.234 -0.5562  0.0382 -0.5542
10915SOL    HW144804   2.099   2.171   1.303  1.1661 -0.6582  1.2370
10915SOL    HW244805   2.152   2.022   1.263  3.0498  0.3195  0.0100
10916SOL     OW44806   8.309   9.702   9.026 -0.3629  0.2525  0.0843
10916SOL    HW144807   8.328   9.796   9.050 -0.5710  0.0527  1.0297
10916SOL    HW244808   8.371   9.641   9.076 -1.3746 -0.2070  0.7963
10917SOL     OW44809   8.130   7.613   9.155 -0.3530 -0.2656 -0.4857
10917SOL    HW144810   8.125   7.704   9.113  0.0241  0.0261  0.0998
10917SOL    HW244811   8.088   7.615   9.245 -1.5113 -0.9936 -1.0065
10918SOL     OW44812   0.061   8.492   7.852  0.2443  0.3814  0.3418
10918SOL    HW144813   0.064   8.408   7.797  2.7731  0.3351  0.4779
10918SOL    HW244814  -0.033   8.510   7.880 -0.6013 -1.4153 -1.2037
10919SOL     OW44815   0.959   7.948   6.520  0.2342 -0.0985  0.2604
10919SOL    HW144816   1.046   7.990   6.545 -0.0378  0.8909 -0.4099
10919SOL    HW244817   0.975   7.858   6.481  1.0649  0.5862 -1.0166
10920SOL     OW44818   9.649   5.386   2.047  0.1599 -0.0753  0.8371
10920SOL    HW144819   9.662   5.326   2.126  1.6127 -1.5641 -0.4970
10920SOL    HW244820   9.720   5.456   2.047 -0.0676  0.1591  1.0429
10921SOL     OW44821   0.807   1.478   9.270 -0.0201 -0.4160  0.4969
10921SOL    HW144822   0.790   1.577   9.273  1.0990 -0.1226 -1.8706
10921SOL    HW244823   0.817   1.443   9.363 -1.2855  1.5384  1.4010
10922SOL     OW44824   9.494   9.790   2.442  0.0810 -0.2658  0.1048
10922SOL    HW144825   9.472   9.833   2.354  1.5225  0.0220 -0.1316
10922SOL    HW244826   9.469   9.852   2.516  1.1163  0.5173 -0.1965
10923SOL     OW44827   9.071   6.196   3.060  0.8254  0.0092  0.1818
10923SOL    HW144828   9.154   6.146   3.081 -0.5468 -2.3052  0.2099
10923SOL    HW244829   9.069   6.218   2.962  1.4254  0.0310  0.1727
10924SOL     OW44830   0.142   5.995   3.845  0.2895 -0.0207  0.3162
10924SOL    HW144831   0.123   6.091   3.863 -0.1477  0.0178 -0.3472
10924SOL    HW244832   0.238   5.975   3.866  0.1939  0.3955  1.1288
10925SOL     OW44833   3.510   0.005   4.142  0.2046 -0.1994  0.2118
10925SOL    HW144834   3.537  -0.090   4.160  1.2629  0.2241  0.9224
10925SOL    HW244835   3.516   0.058   4.227  1.9183  1.0409 -0.6578
10926SOL     OW44836   6.715   7.972   7.273  0.0389 -1.0193  0.0331
10926SOL    HW144837   6.814   7.962   7.268  0.0987  0.2714 -1.3966
10926SOL    HW244838   6.676   7.975   7.181 -1.1121  0.6235  0.5481
10927SOL     OW44839   5.639   9.639   6.987  0.5758 -0.0435 -0.0229
10927SOL    HW144840   5.735   9.637   7.015  0.3698  0.3266  0.7280
10927SOL    HW244841   5.616   9.555   6.939  1.2653 -0.1504 -0.1744
10928SOL     OW44842   7.262   5.265   2.721 -0.1832 -0.1940 -0.4311
10928SOL    HW144843   7.292   5.253   2.626  0.8590  1.2581 -0.2988
10928SOL    HW244844   7.289   5.356   2.753 -2.0886  0.0087  0.6852
10929SOL     OW44845   2.843   5.087   5.491  0.3375 -0.0292  0.0453
10929SOL    HW144846   2.907   5.090   5.567  0.3246  0.6047  0.0379
10929SOL    HW244847   2.779   5.164   5.498 -0.9616 -1.1179  0.5232
10930SOL     OW44848   4.327   2.180   1.200 -0.2086 -0.0398 -0.3776
10930SOL    HW144849   4.306   2.276   1.177  2.8396  0.4072 -1.4736
10930SOL    HW244850   4.290   2.159   1.291 -0.6406  2.2709  0.0154
10931SOL     OW44851   9.623   9.721   4.386 -0.8284  0.6860  0.0915
10931SOL    HW144852   9.691   9.763   4.327 -1.2371  0.5892 -0.4442
10931SOL    HW244853   9.652   9.730   4.482 -0.6592  1.7311 -0.0507
10932SOL     OW44854   5.114   8.791   2.797  0.5332 -0.4857  0.3801
10932SOL    HW144855   5.178   8.867   2.788 -1.7176  1.6401  1.9361
10932SOL    HW244856   5.081   8.764   2.706  1.7107  0.0474 -0.2121
10933SOL     OW44857   7.715   2.416   2.631  0.8604  0.2426 -0.4306
10933SOL    HW144858   7.757   2.348   2.691 -1.0696  1.0153  1.8977
10933SOL    HW244859   7.786   2.471   2.587  2.3318 -0.6644  0.7691
10934SOL     OW44860   2.792   4.003   2.353 -0.0274 -0.4339  0.1018
10934SOL    HW144861   2.717   3.950   2.391  0.6594 -1.5419 -0.0617
10934SOL    HW244862   2.763   4.098   2.339 -1.6978 -1.0707 -0.8820
10935SOL     OW44863   6.835   7.878   3.497  0.1494 -0.1337 -0.0906
10935SOL    HW144864   6.920   7.858   3.546  0.3003 -0.0280 -0.3087
10935SOL    HW244865   6.766   7.910   3.563  0.4900  0.4374 -0.0090
10936SOL     OW44866   4.958   7.135   2.282 -0.0577 -0.5473 -0.0783
10936SOL    HW144867   5.005   7.057   2.242 -2.7450 -1.5241 -1.4610
10936SOL    HW244868   4.960   7.212   2.217  0.2654 -0.3554  0.1595
10937SOL     OW44869   6.602   7.359   2.911 -0.3107  0.0934  0.1136
10937SOL    HW144870   6.540   7.294   2.868 -0.1136  0.2593 -0.4152
10937SOL    HW244871   6.672   7.309   2.962 -0.3158 -0.0999 -0.0698
10938SOL     OW44872   8.210   9.371  10.008  0.0013 -0.4400 -0.3224
10938SOL    HW144873   8.302   9.365  10.047 -0.6131 -0.2499  1.1810
10938SOL    HW244874   8.180   9.466  10.006  0.2720 -0.3782 -1.8637
10939SOL     OW44875   5.856   6.444   9.779  0.7760 -0.4780  0.4041
10939SOL    HW144876   5.929   6.403   9.724  0.6822 -1.3862  0.9380
10939SOL    HW244877   5.863   6.411   9.873 -0.6901 -1.0987  0.3132
10940SOL     OW44878   2.662   4.100   4.375  0.1335 -0.3793 -0.3915
10940SOL    HW144879   2.571   4.057   4.375 -0.2516  0.4256  0.5915
10940SOL    HW244880   2.671   4.157   4.294 -0.2618 -0.4210 -0.4683
10941SOL     OW44881   7.399   3.191   2.476  0.1012  0.4827 -0.2787
10941SOL    HW144882   7.381   3.256   2.402  1.6769  0.6039 -0.5730
10941SOL    HW244883   7.390   3.236   2.564 -0.5235  0.6603 -0.4325
10942SOL     OW44884   6.726   5.790   8.826  0.5023 -0.0715  0.0937
10942SOL    HW144885   6.824   5.789   8.849  0.7621 -0.6028 -0.9829
10942SOL    HW244886   6.714   5.751   8.734 -0.5639  1.3076 -0.3617
10943SOL     OW44887   0.642   1.282   9.121 -0.4718 -0.1114  0.3036
10943SOL    HW144888   0.669   1.352   9.187 -1.4528  1.5185 -0.9669
10943SOL    HW244889   0.712   1.211   9.116  0.9401  1.2004  1.0369
10944SOL     OW44890   8.845   3.786   4.409  0.3866 -0.2109  0.5727
10944SOL    HW144891   8.759   3.735   4.417  0.5407 -0.5787 -0.0659
10944SOL    HW244892   8.909   3.734   4.353  0.3568  0.9524 -0.5424
10945SOL     OW44893   8.761   5.071   2.379 -0.3909  0.3103 -0.5899
10945SOL    HW144894   8.839   5.122   2.342  0.3791 -0.9239 -0.6937
10945SOL    HW244895   8.736   4.998   2.315 -2.6187  1.6197 -1.2970
10946SOL     OW44896   2.335   1.278   8.609  0.7322  0.5219 -0.3849
10946SOL    HW144897   2.321   1.344   8.682  0.3306 -0.0094  0.0282
10946SOL    HW244898   2.367   1.192   8.648  1.2671  0.4803 -0.9191
10947SOL     OW44899   2.750   2.300   7.357 -0.1330  0.4722  0.2640
10947SOL    HW144900   2.798   2.358   7.423  1.5533  0.1876 -0.6829
10947SOL    HW244901   2.777   2.204   7.371 -1.8849  0.0509  0.9491
10948SOL     OW44902   9.665   2.257   7.179 -0.6672  0.3935  0.4321
10948SOL    HW144903   9.744   2.270   7.119  0.4905  0.9933  2.0490
10948SOL    HW244904   9.584   2.295   7.136  0.3093  1.5814 -0.3988
10949SOL     OW44905   3.345   2.837   6.063 -0.4118 -0.3058  0.3414
10949SOL    HW144906   3.357   2.750   6.016  0.7742 -0.4664  0.9395
10949SOL    HW244907   3.392   2.909   6.013 -0.2928 -0.2405  0.5463
10950SOL     OW44908   6.031   2.412   0.537 -0.4985  0.1330 -0.1170
10950SOL    HW144909   6.085   2.337   0.499 -1.2858 -1.8301  2.5236
10950SOL    HW244910   5.961   2.439   0.471  0.3030 -0.8900 -1.4179
10951SOL     OW44911   2.482   1.680   5.991  0.2827  0.6852  0.2976
10951SOL    HW144912   2.493   1.581   5.990  0.8765  0.7555 -0.0926
10951SOL    HW244913   2.389   1.704   5.962  0.1501  0.2485  0.3624
10952SOL     OW44914   9.040   2.390   3.397  0.2160 -0.2628 -0.6639
10952SOL    HW144915   9.077   2.437   3.477  0.3913 -2.2612  0.4633
10952SOL    HW244916   8.941   2.377   3.409 -0.2064  1.5886 -1.9015
10953SOL     OW44917   0.294   3.698   5.641  0.3340  0.5270  0.2436
10953SOL    HW144918   0.296   3.796   5.619 -2.1110  0.9639  1.7978
10953SOL    HW244919   0.227   3.652   5.584 -1.9680  0.6564  2.7515
10954SOL     OW44920   0.069   1.989   5.787 -0.2441  0.1993  0.3033
10954SOL    HW144921  -0.021   1.997   5.744 -0.6743 -0.3019  1.0810
10954SOL    HW244922   0.094   1.892   5.793 -1.0781  0.0959  2.9085
10955SOL     OW44923   4.206   8.052   4.548 -0.6722 -0.3488  0.0794
10955SOL    HW144924   4.170   8.087   4.635 -1.4036 -1.4500  0.2210
10955SOL    HW244925   4.158   8.097   4.472 -0.8216 -0.2256  0.2459
10956SOL     OW44926   3.641   2.787   2.610 -0.2892  0.2391  0.3720
10956SOL    HW144927   3.555   2.774   2.559 -0.4025  1.5727  0.2122
10956SOL    HW244928   3.684   2.873   2.582  0.0247  0.6308  1.9977
10957SOL     OW44929   9.167   7.890   2.876 -0.0727  0.3464  0.6068
10957SOL    HW144930   9.247   7.950   2.871 -1.3103  1.9684  0.1213
10957SOL    HW244931   9.116   7.908   2.960 -0.8736  0.5109  0.0897
10958SOL     OW44932   2.139   8.255   2.692  0.0788 -0.2136  0.3773
10958SOL    HW144933   2.056   8.305   2.716 -0.0504  0.5460 -1.5456
10958SOL    HW244934   2.137   8.165   2.735 -1.2022  0.2205  1.2667
10959SOL     OW44935   6.156   0.377   1.988 -0.1389 -0.5813 -0.0362
10959SOL    HW144936   6.184   0.442   1.917 -0.2289 -0.7665 -0.2420
10959SOL    HW244937   6.208   0.395   2.071  0.5552 -0.8854 -0.3999
10960SOL     OW44938   2.365   2.384   7.645  0.3174  0.2683  0.3378
10960SOL    HW144939   2.361   2.439   7.561 -0.8211 -0.7780 -0.3127
10960SOL    HW244940   2.292   2.412   7.707 -1.5340 -1.8062 -0.8357
10961SOL     OW44941   2.454   2.754   9.910  0.4646  0.9212  0.4218
10961SOL    HW144942   2.405   2.806   9.840 -0.5015 -0.6436 -0.0952
10961SOL    HW244943   2.392   2.732   9.984  0.3959 -0.9282 -0.1541
10962SOL     OW44944   7.188   9.939   2.854 -0.2700 -0.6487  0.1297
10962SOL    HW144945   7.252   9.891   2.915  0.7377  0.5021 -0.0123
10962SOL    HW244946   7.138  10.009   2.906 -1.4402 -1.5514  0.2428
10963SOL     OW44947   1.262   8.340   3.750  0.2712 -0.2276  0.1704
10963SOL    HW144948   1.280   8.333   3.652  0.0448  0.0427  0.1079
10963SOL    HW244949   1.272   8.436   3.778  1.0110 -0.4069  0.5424
10964SOL     OW44950   8.297   7.141   2.383  0.3612 -0.3201  0.4561
10964SOL    HW144951   8.306   7.168   2.288 -1.0981 -1.7534 -0.1056
10964SOL    HW244952   8.359   7.065   2.402 -1.4199 -1.9531 -0.1360
10965SOL     OW44953   4.553   4.747   0.463 -0.0700 -0.1762  0.1277
10965SOL    HW144954   4.530   4.676   0.397  0.1650 -0.3894  0.2737
10965SOL    HW244955   4.516   4.723   0.553 -1.5707  0.7821 -0.2202
10966SOL     OW44956   4.938   0.685   9.618 -0.3074  0.4953 -0.2432
10966SOL    HW144957   5.000   0.674   9.540  1.0327 -0.3733  0.9202
10966SOL    HW244958   4.923   0.782   9.635  0.7468  0.7084 -0.5230
10967SOL     OW44959   0.641   9.359   6.666  0.4196 -0.4384 -0.5456
10967SOL    HW144960   0.651   9.394   6.572 -0.8355  0.7005 -0.2652
10967SOL    HW244961   0.724   9.379   6.718 -0.0493  1.6791 -0.5504
10968SOL     OW44962   5.815   7.772   2.708 -0.0411  1.1676  0.1679
10968SOL    HW144963   5.879   7.831   2.657  1.7133 -0.0869  0.8544
10968SOL    HW244964   5.820   7.795   2.805 -1.9398  2.2228  0.0479
10969SOL     OW44965   1.650   5.092   8.340 -0.0114 -0.8051 -0.6760
10969SOL    HW144966   1.591   5.018   8.306 -0.1671 -0.6832 -0.6735
10969SOL    HW244967   1.668   5.077   8.437  0.8455 -1.4252 -0.9267
10970SOL     OW44968   6.478   4.768   8.154 -0.5554 -0.1471  0.5717
10970SOL    HW144969   6.471   4.810   8.244  0.1497  0.6712  0.2585
10970SOL    HW244970   6.493   4.840   8.085 -0.4309 -0.8158 -0.1068
10971SOL     OW44971   2.540   1.436   4.773 -0.2632  0.2077 -0.2812
10971SOL    HW144972   2.580   1.527   4.776  0.9331 -0.3175  0.2695
10971SOL    HW244973   2.610   1.368   4.796 -0.5329 -1.0350 -2.9038
10972SOL     OW44974   9.485   7.942   9.941  0.1479  0.0418 -0.4364
10972SOL    HW144975   9.450   7.852   9.966  1.3398 -0.3895 -0.2890
10972SOL    HW244976   9.540   7.978  10.016 -1.1208  1.3232 -0.1054
10973SOL     OW44977   7.242   5.381   1.416  0.1608  0.0491  0.2562
10973SOL    HW144978   7.282   5.445   1.482  0.9815 -0.5459  0.3545
10973SOL    HW244979   7.198   5.306   1.465 -1.7803  1.1071  0.1561
10974SOL     OW44980   3.041   3.896   2.190 -0.1428  0.4126  0.5108
10974SOL    HW144981   3.136   3.883   2.216 -0.4008 -1.4313  0.6637
10974SOL    HW244982   3.008   3.812   2.145 -1.4739  1.2954 -0.1804
10975SOL     OW44983   9.480   3.767   2.615  0.1868  0.0239 -0.0789
10975SOL    HW144984   9.573   3.802   2.616  0.3158 -0.3042 -0.4302
10975SOL    HW244985   9.443   3.765   2.708 -0.1158  1.8573 -0.1528
10976SOL     OW44986   0.303   5.278   0.660 -0.0714 -0.5464 -0.2425
10976SOL    HW144987   0.267   5.301   0.570 -1.2835  0.2726  0.4477
10976SOL    HW244988   0.351   5.190   0.655  0.1128 -0.3736 -1.7384
10977SOL     OW44989   3.269   3.287   6.702  0.2587 -0.4992 -0.1944
10977SOL    HW144990   3.178   3.328   6.715  0.5254 -0.6994  2.5691
10977SOL    HW244991   3.321   3.341   6.636 -1.8776 -0.4352 -1.8858
10978SOL     OW44992   8.429   9.213   8.957 -0.0137  0.6796  0.7101
10978SOL    HW144993   8.394   9.146   9.023 -1.2482  0.7897  0.1716
10978SOL    HW244994   8.513   9.178   8.915 -1.7856 -1.4767 -1.1214
10979SOL     OW44995   3.726   3.016   4.108  0.2394 -0.1429  0.2993
10979SOL    HW144996   3.690   3.100   4.147 -0.2058 -0.0834 -0.2340
10979SOL    HW244997   3.666   2.940   4.132 -1.2207  0.2236 -2.0347
10980SOL     OW44998   0.042   9.610   9.403  0.1599 -0.4236 -0.3327
10980SOL    HW144999   0.111   9.569   9.463  1.1822 -2.6387 -2.9048
10980SOL    HW245000   0.063   9.707   9.389  0.9849 -0.3367  1.3305
10981SOL     OW45001   4.127   1.793   6.599 -0.2902  0.6024 -0.3646
10981SOL    HW145002   4.041   1.810   6.647 -0.0341  1.6830 -0.2843
10981SOL    HW245003   4.200   1.848   6.639 -0.0389  1.3986 -1.8649
10982SOL     OW45004   0.616   6.229   9.189  0.1958 -0.0122 -0.9421
10982SOL    HW145005   0.589   6.205   9.096 -0.1646 -1.3046 -0.5115
10982SOL    HW245006   0.706   6.189   9.209  0.4431  0.5756 -0.8540
10983SOL     OW45007   8.560   7.649   5.664 -0.0527 -0.5660  0.3612
10983SOL    HW145008   8.547   7.583   5.590 -0.1821  0.2813 -0.3781
10983SOL    HW245009   8.593   7.736   5.627 -1.9313  0.4759  1.0375
10984SOL     OW45010   9.433   7.701  10.051  0.0229 -0.3450  0.0718
10984SOL    HW145011   9.500   7.662  10.114  1.1298 -0.3311 -1.0742
10984SOL    HW245012   9.359   7.743  10.103 -1.2478 -3.9377  1.3811
10985SOL     OW45013   3.736   3.105   8.017 -0.3544  0.2534  0.1976
10985SOL    HW145014   3.748   3.203   7.999 -1.7644  0.7955  2.0257
10985SOL    HW245015   3.670   3.067   7.953  0.6993  0.3215 -0.9611
10986SOL     OW45016   1.480   3.152   4.681  0.2926  0.0106  0.0426
10986SOL    HW145017   1.495   3.084   4.609 -1.1495 -0.2360 -0.0293
10986SOL    HW245018   1.566   3.167   4.731  0.5041 -2.2577  0.4101
10987SOL     OW45019   8.492   1.119   0.270 -0.4768  0.2830  0.0661
10987SOL    HW145020   8.471   1.037   0.217 -1.1406  1.0963 -0.9487
10987SOL    HW245021   8.498   1.095   0.367 -2.5908 -0.6475 -0.0010
10988SOL     OW45022   4.810   1.895   4.687  0.0664  0.0493  0.1380
10988SOL    HW145023   4.751   1.858   4.615  0.7077 -0.0990 -0.3143
10988SOL    HW245024   4.754   1.919   4.767 -0.5678 -0.3547 -0.1800
10989SOL     OW45025   6.003   5.787   0.103  0.0521 -0.7706 -1.1050
10989SOL    HW145026   5.930   5.850   0.078  0.2611 -0.4129 -0.8229
10989SOL    HW245027   6.038   5.741   0.021  0.6361  0.2784 -1.4538
10990SOL     OW45028   4.836   9.770   1.650  0.1300 -0.6458 -0.9133
10990SOL    HW145029   4.919   9.824   1.640  0.2273 -0.3638  1.0748
10990SOL    HW245030   4.759   9.818   1.607  0.3140  0.8604  0.3869
10991SOL     OW45031   9.871   3.132   4.203 -0.1453 -0.1747 -0.4826
10991SOL    HW145032   9.852   3.175   4.291  0.6062  0.5575 -0.6732
10991SOL    HW245033   9.833   3.039   4.202  0.3032 -0.3702  0.7917
10992SOL     OW45034   2.647   0.602   3.352  0.3201  0.6148  0.1501
10992SOL    HW145035   2.626   0.618   3.256 -0.1514 -0.0407  0.1426
10992SOL    HW245036   2.577   0.645   3.410 -0.0602 -0.0302  0.1694
10993SOL     OW45037   0.231   2.744   4.231  0.0722  0.0016 -0.7575
10993SOL    HW145038   0.132   2.737   4.248  0.3465  0.3469  1.1224
10993SOL    HW245039   0.250   2.832   4.188 -0.3912  0.1232 -0.7251
10994SOL     OW45040   8.370   9.627   4.822 -0.5532  0.1081  0.2644
10994SOL    HW145041   8.311   9.546   4.817  0.3651 -0.9087  4.0643
10994SOL    HW245042   8.465   9.600   4.807 -0.5016  0.9093 -0.8920
10995SOL     OW45043   2.996   0.377   8.945  0.4223  0.1718 -0.3531
10995SOL    HW145044   2.967   0.470   8.970 -0.4220 -0.3154  0.4965
10995SOL    HW245045   3.057   0.382   8.866  0.7449  1.4908 -0.0387
10996SOL     OW45046   4.533   1.433   4.347 -0.1797  0.7183 -0.0914
10996SOL    HW145047   4.435   1.429   4.368 -0.0338 -0.3137  0.4401
10996SOL    HW245048   4.574   1.511   4.395 -0.2667 -0.3453  1.7651
10997SOL     OW45049   8.839   1.403   1.687  0.0477 -0.1674 -0.1247
10997SOL    HW145050   8.805   1.482   1.739  0.2815 -1.8881  2.8098
10997SOL    HW245051   8.926   1.425   1.645 -0.4338  1.4943 -0.2558
10998SOL     OW45052   0.519   9.293   9.378 -0.0046 -0.7331  0.0509
10998SOL    HW145053   0.568   9.378   9.362  0.1392 -0.4571  1.8476
10998SOL    HW245054   0.449   9.281   9.308 -1.3896  1.8556  0.9430
10999SOL     OW45055   1.497   8.527   7.434  0.7261 -0.0742  0.1168
10999SOL    HW145056   1.558   8.452   7.460 -1.0338 -0.9194  1.9521
10999SOL    HW245057   1.402   8.497   7.443  0.0157  1.5286 -1.7598
11000SOL     OW45058   1.331   5.563   7.009  0.1535  0.0666 -0.6880
11000SOL    HW145059   1.286   5.578   7.097 -0.6326  0.8055 -1.2029
11000SOL    HW245060   1.266   5.582   6.935  1.3085  1.1137 -1.4486
11001SOL     OW45061   1.898   7.147   3.555 -0.0263 -0.3214 -0.2899
11001SOL    HW145062   1.901   7.052   3.585  1.8484 -0.4913 -0.8998
11001SOL    HW245063   1.950   7.157   3.470  1.7356  1.6259  0.9461
11002SOL     OW45064   7.557   1.051   5.778  0.3972  0.1901 -0.3309
11002SOL    HW145065   7.643   1.040   5.829 -0.3949 -2.8907  0.4115
11002SOL    HW245066   7.568   1.017   5.685  0.4057  1.2243 -0.7157
11003SOL     OW45067   3.616   6.300   5.443 -0.6209 -0.2492 -0.4893
11003SOL    HW145068   3.621   6.265   5.349  1.5539 -2.7955  0.5236
11003SOL    HW245069   3.639   6.397   5.444 -1.6055  0.0344 -2.6867
11004SOL     OW45070   5.558   2.602   5.134  0.2321  0.1497 -0.1687
11004SOL    HW145071   5.519   2.682   5.181 -0.5467  0.7441 -1.7901
11004SOL    HW245072   5.657   2.599   5.151  0.3224  1.6417 -0.3132
11005SOL     OW45073   0.776   5.687   4.852  0.1391  0.3743  0.1501
11005SOL    HW145074   0.760   5.698   4.950  0.3459  2.9879 -0.0720
11005SOL    HW245075   0.863   5.639   4.838 -0.0697 -0.3422  1.2427
11006SOL     OW45076   5.839   4.691   9.580  0.0733 -0.1145 -0.5448
11006SOL    HW145077   5.893   4.762   9.535  0.4733 -0.4032 -0.5285
11006SOL    HW245078   5.812   4.622   9.513 -0.9411  0.4365 -0.7012
11007SOL     OW45079   8.446   1.127   5.797  0.6818 -0.1265 -0.1175
11007SOL    HW145080   8.442   1.127   5.698  0.4513 -0.1928 -0.1097
11007SOL    HW245081   8.361   1.088   5.834  0.9473 -0.5111  0.0977
11008SOL     OW45082   4.946   3.421   8.701  0.3860 -1.1933  0.3369
11008SOL    HW145083   4.874   3.353   8.686 -0.3908 -0.5288  1.0018
11008SOL    HW245084   4.911   3.511   8.675  0.6218 -0.7168  1.6629
11009SOL     OW45085   8.704   4.981   8.173 -0.0592  0.0623 -0.0878
11009SOL    HW145086   8.652   4.908   8.217 -0.0702  0.5234  0.6862
11009SOL    HW245087   8.783   5.004   8.231  0.1452  0.4144 -0.5060
11010SOL     OW45088   1.856   0.541   9.575  0.4423  0.0515  0.3369
11010SOL    HW145089   1.926   0.606   9.605 -0.0311  0.8092 -0.2054
11010SOL    HW245090   1.784   0.589   9.526 -0.3472 -0.7660  0.6872
11011SOL     OW45091   8.957   0.724   2.805  0.2266 -0.2061 -0.1640
11011SOL    HW145092   9.034   0.740   2.867  0.1210  0.1831 -0.1341
11011SOL    HW245093   8.877   0.697   2.858 -0.2419  1.4349  0.0049
11012SOL     OW45094   4.085   3.689   9.182  0.3535 -0.4710  0.2451
11012SOL    HW145095   4.076   3.732   9.272  2.6887 -0.0703  0.3145
11012SOL    HW245096   4.104   3.591   9.194 -0.5447 -0.6631  0.1519
11013SOL     OW45097   0.654   7.871   1.718  0.1820 -0.3410  0.8142
11013SOL    HW145098   0.672   7.792   1.659 -3.1466  0.0184 -0.8182
11013SOL    HW245099   0.658   7.843   1.814 -1.3048 -2.6153  0.2500
11014SOL     OW45100   5.142   9.720   4.769 -0.9071  0.0085  0.0915
11014SOL    HW145101   5.112   9.629   4.740 -1.5787 -0.0400  0.9191
11014SOL    HW245102   5.239   9.717   4.791 -0.7856 -0.3673 -0.4854
11015SOL     OW45103   3.739   0.217   7.128  0.6499  0.0937  0.0707
11015SOL    HW145104   3.702   0.136   7.174 -0.3929  1.0728  0.9803
11015SOL    HW245105   3.839   0.211   7.125  0.5834 -1.1642  0.2428
11016SOL     OW45106   7.652   0.352   0.973 -0.6185 -0.5755 -0.1153
11016SOL    HW145107   7.657   0.410   1.055 -1.0719  2.3594 -2.0813
11016SOL    HW245108   7.740   0.306   0.960  0.6157  1.5919  0.1700
11017SOL     OW45109   6.966   1.944   5.440 -0.1472  0.2451  0.5399
11017SOL    HW145110   6.954   2.037   5.474  1.1291  0.1847  1.1898
11017SOL    HW245111   6.920   1.879   5.501 -0.7868  0.4208  0.2474
11018SOL     OW45112   5.755   2.478   9.464  0.1113 -0.0114 -0.6989
11018SOL    HW145113   5.725   2.424   9.385  1.9645  0.1834 -1.5727
11018SOL    HW245114   5.793   2.565   9.432  0.0619  0.4530  0.4751
11019SOL     OW45115   4.306   8.222   3.783 -0.3795 -0.1879 -0.2015
11019SOL    HW145116   4.395   8.194   3.820 -0.1217  0.6187 -0.1958
11019SOL    HW245117   4.276   8.156   3.715  0.2295 -0.4642 -0.2045
11020SOL     OW45118   3.383   8.104   1.567  0.2735  0.0025 -0.3965
11020SOL    HW145119   3.298   8.132   1.612 -0.0590 -1.3810 -0.1316
11020SOL    HW245120   3.387   8.143   1.476 -0.3470  0.5985 -0.1704
11021SOL     OW45121   8.040   7.089   6.494 -0.6447 -0.0820 -0.3106
11021SOL    HW145122   8.120   7.091   6.434  0.2337 -1.4358  0.7577
11021SOL    HW245123   8.036   7.173   6.547 -0.0175  0.0707 -0.4975
11022SOL     OW45124   3.822   1.505   0.362  0.1828  0.1038  0.0707
11022SOL    HW145125   3.730   1.514   0.324 -0.2470 -0.6606  0.8879
11022SOL    HW245126   3.816   1.461   0.452  1.3591 -0.0539  0.0793
11023SOL     OW45127   0.409   0.691   1.736  0.0955 -0.2343  0.1750
11023SOL    HW145128   0.367   0.782   1.732  0.0246 -0.2783 -0.0587
11023SOL    HW245129   0.488   0.688   1.675 -1.6721 -1.2638 -2.0976
11024SOL     OW45130   6.355   7.323   2.516 -0.1895 -0.3988 -0.2923
11024SOL    HW145131   6.361   7.306   2.615 -0.2165 -0.4496 -0.2992
11024SOL    HW245132   6.292   7.400   2.500 -0.2191 -0.4185 -0.2720
11025SOL     OW45133   2.935   6.451   4.777 -0.2536  0.3228 -0.2311
11025SOL    HW145134   2.905   6.417   4.688  0.7142  1.5155 -1.0363
11025SOL    HW245135   2.988   6.380   4.823 -0.9885 -0.3954 -0.4938
11026SOL     OW45136   3.406   4.247   7.728  0.1839 -0.6510 -0.3559
11026SOL    HW145137   3.432   4.168   7.672  0.7820 -1.2594  0.7535
11026SOL    HW245138   3.387   4.216   7.821 -0.3525  0.4179 -0.1046
11027SOL     OW45139   3.458   0.655   3.980 -0.2416 -0.0047 -0.0030
11027SOL    HW145140   3.445   0.660   3.881  0.8841  0.9545 -0.1152
11027SOL    HW245141   3.432   0.564   4.013 -0.2001 -0.4654 -1.2359
11028SOL     OW45142   3.517   9.896   6.673 -0.0328 -0.1148 -0.5451
11028SOL    HW145143   3.496   9.892   6.771  2.3666 -1.2182 -0.0391
11028SOL    HW245144   3.568   9.814   6.646  0.1345  0.6071 -2.5317
11029SOL     OW45145   5.716   4.695   8.014 -0.2465 -0.5102  0.1068
11029SOL    HW145146   5.773   4.660   7.940 -1.2148  1.2469 -1.4956
11029SOL    HW245147   5.664   4.620   8.055  0.7320 -1.5817 -0.5902
11030SOL     OW45148   8.743   4.021   6.524  0.2290 -0.6241  0.3369
11030SOL    HW145149   8.820   4.075   6.488 -0.2627 -1.1123 -1.4640
11030SOL    HW245150   8.667   4.083   6.546  0.1999 -0.4211 -0.3263
11031SOL     OW45151   5.812   1.610   0.843  0.6704 -0.5702 -0.1827
11031SOL    HW145152   5.780   1.576   0.932  2.0901 -0.9239  0.1991
11031SOL    HW245153   5.858   1.698   0.855  0.0079 -0.1383 -0.7160
11032SOL     OW45154   8.455   4.876   1.476  0.6624  0.3237 -0.2163
11032SOL    HW145155   8.546   4.858   1.514  0.4722 -0.3847 -0.0898
11032SOL    HW245156   8.425   4.967   1.504  0.3780 -0.3216  1.6907
11033SOL     OW45157   2.021   6.644   6.218 -0.1493  0.9577 -0.2000
11033SOL    HW145158   2.100   6.607   6.267 -2.0226 -0.5606  1.8085
11033SOL    HW245159   1.973   6.709   6.277 -0.5962  1.6035 -1.2605
11034SOL     OW45160   8.642   1.986   3.727  0.2380 -0.3255  0.6298
11034SOL    HW145161   8.552   1.952   3.754 -1.6461  2.9427 -1.2902
11034SOL    HW245162   8.663   1.955   3.635  0.2884  0.3517  0.4113
11035SOL     OW45163   5.887   9.965   2.596 -0.2640 -0.0769  0.3512
11035SOL    HW145164   5.945   9.913   2.533  0.5040 -0.2018  1.1490
11035SOL    HW245165   5.941  10.036   2.641 -1.1199  0.8694 -0.1121
11036SOL     OW45166   9.839   9.490   7.546 -0.1157  0.5485 -0.2973
11036SOL    HW145167   9.927   9.534   7.561  1.4760 -2.2914 -1.0336
11036SOL    HW245168   9.841   9.438   7.461 -2.0344 -0.7090  0.3744
11037SOL     OW45169   3.360   0.752   5.065  0.0936  0.6379  0.5510
11037SOL    HW145170   3.327   0.668   5.108  1.3487  0.0779  0.4424
11037SOL    HW245171   3.388   0.817   5.136 -0.3436  0.7543  0.6217
11038SOL     OW45172   0.765   1.306   4.927  0.3901  0.0041 -0.0719
11038SOL    HW145173   0.776   1.210   4.902  0.0287  0.3153 -1.4798
11038SOL    HW245174   0.680   1.341   4.887 -0.3209  0.4769  1.7823
11039SOL     OW45175   0.552   5.737   1.899 -0.6283 -0.6052 -0.1126
11039SOL    HW145176   0.563   5.827   1.942  1.9223  0.2674 -2.4762
11039SOL    HW245177   0.511   5.747   1.809 -2.0355 -2.0279  0.3412
11040SOL     OW45178   0.362   4.639   0.870  0.1474  0.4570 -0.2394
11040SOL    HW145179   0.340   4.683   0.783 -1.5119  0.0976 -0.0170
11040SOL    HW245180   0.341   4.541   0.865  1.0185  0.2291  0.2437
11041SOL     OW45181   4.773   7.003   2.649  0.2434  0.4892  0.4362
11041SOL    HW145182   4.846   7.055   2.605 -0.0089 -0.1776 -0.7778
11041SOL    HW245183   4.812   6.932   2.708  0.5924 -0.9674 -1.5115
11042SOL     OW45184   2.260   5.106   0.637 -0.2050 -0.0643  0.2089
11042SOL    HW145185   2.234   5.165   0.562 -0.7102 -1.7388 -0.9665
11042SOL    HW245186   2.183   5.098   0.701 -0.7884 -0.8895 -0.5797
11043SOL     OW45187   1.349   9.869   4.096 -0.2161 -0.0867 -0.2885
11043SOL    HW145188   1.430   9.914   4.134  0.4918 -1.4896 -0.0970
11043SOL    HW245189   1.358   9.770   4.107 -0.9947 -0.3851 -2.2013
11044SOL     OW45190   8.373   3.879   2.410 -0.2492 -0.5650  0.3104
11044SOL    HW145191   8.359   3.785   2.379  2.7022 -0.8869 -0.1362
11044SOL    HW245192   8.444   3.923   2.355 -0.8675  1.6199  1.1831
11045SOL     OW45193   0.008   0.843   0.055 -0.9328 -0.4136 -0.4436
11045SOL    HW145194   0.027   0.749   0.027  1.3031 -0.1139  0.0158
11045SOL    HW245195  -0.027   0.894  -0.024  0.1179 -1.0221 -1.3227
11046SOL     OW45196   5.419   1.522   8.902 -0.2211  0.4284  0.3065
11046SOL    HW145197   5.415   1.424   8.884 -2.0732  0.1593  1.9795
11046SOL    HW245198   5.448   1.537   8.997  1.3909  1.5503 -0.3405
11047SOL     OW45199   3.257   1.298   3.320 -0.0217  0.5639 -0.3163
11047SOL    HW145200   3.191   1.223   3.327  0.2676  0.1568 -1.9201
11047SOL    HW245201   3.219   1.380   3.364 -1.4674  0.2556 -0.9861
11048SOL     OW45202   1.252   1.722   8.274 -0.0949 -0.1990  0.1926
11048SOL    HW145203   1.203   1.805   8.302  2.6799  1.8589 -0.9328
11048SOL    HW245204   1.230   1.648   8.339 -2.9586  1.2185  0.9506
11049SOL     OW45205   7.743   3.911   0.421  0.1583  0.4315 -0.0629
11049SOL    HW145206   7.805   3.843   0.460 -0.3902 -0.2685 -0.4169
11049SOL    HW245207   7.726   3.891   0.325 -2.0040 -0.4057  0.4706
11050SOL     OW45208   4.364   0.809   3.567  0.6741  0.7058 -0.3046
11050SOL    HW145209   4.347   0.880   3.499  0.4862 -1.3168 -2.4313
11050SOL    HW245210   4.455   0.821   3.606  1.5709  0.7586 -2.3605
11051SOL     OW45211   9.774   2.578   1.630  0.0509 -0.3575  0.1015
11051SOL    HW145212   9.801   2.491   1.588  0.2750 -1.0172  1.5775
11051SOL    HW245213   9.676   2.576   1.650  0.0534 -0.2734  0.1193
11052SOL     OW45214   5.661   1.447   1.032  0.2496 -0.2225  0.2014
11052SOL    HW145215   5.657   1.494   1.121 -2.0037  2.4470 -1.2480
11052SOL    HW245216   5.569   1.440   0.994  1.5403  1.8774 -3.5340
11053SOL     OW45217   3.685   4.420   2.559  0.4004  0.5676 -0.1803
11053SOL    HW145218   3.702   4.510   2.518  0.4823  0.2678 -0.8217
11053SOL    HW245219   3.773   4.379   2.585  0.7421 -0.9627 -3.4543
11054SOL     OW45220   5.224   1.826   7.806  0.4929 -0.2371  0.3621
11054SOL    HW145221   5.163   1.900   7.777  0.2772 -0.5806 -0.0616
11054SOL    HW245222   5.203   1.802   7.901  1.0979  0.7819  0.7601
11055SOL     OW45223   4.837   9.046   7.950  0.3692  0.0645  0.1277
11055SOL    HW145224   4.863   9.124   7.892 -0.6477  0.4264  0.1610
11055SOL    HW245225   4.899   9.042   8.029  1.4289 -0.1182 -0.7002
11056SOL     OW45226   3.252   6.834   8.249  0.7784 -0.0568  0.2865
11056SOL    HW145227   3.189   6.758   8.261 -0.3412  0.4460 -2.1517
11056SOL    HW245228   3.328   6.806   8.192 -0.0949  0.8580 -1.3728
11057SOL     OW45229   0.248   5.503   2.522 -0.1591  0.0183  0.4536
11057SOL    HW145230   0.220   5.417   2.480 -0.0639  0.5329 -0.6889
11057SOL    HW245231   0.231   5.578   2.459  0.7980  0.7113  1.0013
11058SOL     OW45232   9.742   7.621   3.577 -0.0923  0.1846  0.2710
11058SOL    HW145233   9.721   7.689   3.647  2.5892 -0.5107  1.8209
11058SOL    HW245234   9.815   7.655   3.517  0.0772 -0.6284  0.0104
11059SOL     OW45235   2.715   7.558   0.611  0.5598 -0.2998  0.2966
11059SOL    HW145236   2.759   7.644   0.637  0.9062 -0.4230  0.1146
11059SOL    HW245237   2.743   7.486   0.674 -0.3971 -0.0982  0.9709
11060SOL     OW45238   2.371   8.342   5.340 -0.8234 -0.1134 -0.0521
11060SOL    HW145239   2.398   8.383   5.427  1.1720  0.0990 -0.7510
11060SOL    HW245240   2.299   8.398   5.298  0.6326  1.7428 -0.1494
11061SOL     OW45241   3.147   2.344   6.122  0.0045  0.6258 -0.5016
11061SOL    HW145242   3.083   2.392   6.183 -0.8812 -2.8213  1.3931
11061SOL    HW245243   3.240   2.353   6.157 -0.6130 -2.1933  2.0831
11062SOL     OW45244   5.693   9.727   4.818  0.1966 -0.4876 -0.4905
11062SOL    HW145245   5.727   9.665   4.747 -0.5527 -1.8352  0.3094
11062SOL    HW245246   5.755   9.727   4.896 -0.1446 -0.7528 -0.2154
11063SOL     OW45247   8.380   7.653   1.342 -0.2178  0.2565 -0.1391
11063SOL    HW145248   8.402   7.633   1.247  0.4040 -0.1185  0.0815
11063SOL    HW245249   8.283   7.676   1.350 -0.0978  1.0907 -0.9907
11064SOL     OW45250   1.962   9.722   9.047  0.0400  0.0196 -0.3231
11064SOL    HW145251   1.863   9.708   9.057  0.1250  0.7293  1.7997
11064SOL    HW245252   2.006   9.709   9.136  2.1718 -2.5966 -1.6887
11065SOL     OW45253   1.552   5.161   1.436 -0.0478  0.2321 -0.2337
11065SOL    HW145254   1.527   5.254   1.410 -0.7143 -0.1502 -0.9833
11065SOL    HW245255   1.616   5.123   1.368  0.2216  0.1463  0.0685
11066SOL     OW45256   3.999   2.739   6.207  0.1573 -0.2049  0.8090
11066SOL    HW145257   4.022   2.683   6.127  1.2814 -1.5318  2.0346
11066SOL    HW245258   3.909   2.712   6.241 -0.1735  0.1236  0.2079
11067SOL     OW45259   9.815   1.895   7.798 -0.7303  0.0868  0.2781
11067SOL    HW145260   9.811   1.841   7.882  3.1676 -0.8102 -0.0212
11067SOL    HW245261   9.768   1.845   7.725 -0.9008 -0.8955  1.0445
11068SOL     OW45262   8.285   9.081   3.428  0.0450  1.0985 -0.0438
11068SOL    HW145263   8.360   9.144   3.447  0.0823  0.7048  1.1865
11068SOL    HW245264   8.304   8.993   3.473 -0.9911  0.8951  0.0067
11069SOL     OW45265   6.813   5.574   9.872 -0.2229  0.2888 -0.7733
11069SOL    HW145266   6.805   5.553   9.775 -1.3997 -0.6655 -0.4789
11069SOL    HW245267   6.723   5.596   9.909 -0.0044 -0.7478  0.4212
11070SOL     OW45268   9.123   7.899   0.489 -0.1100 -0.2085  0.2505
11070SOL    HW145269   9.163   7.895   0.581  1.2246 -1.2532 -0.3650
11070SOL    HW245270   9.101   7.807   0.457 -0.5853  0.1499 -0.4850
11071SOL     OW45271   2.377   6.534   7.833 -0.1282  0.1359  0.4893
11071SOL    HW145272   2.435   6.614   7.848 -0.4253 -0.0700  2.9456
11071SOL    HW245273   2.306   6.557   7.767  0.5374  1.5303  0.2261
11072SOL     OW45274   1.545   2.673   7.325 -0.6393 -0.0175  0.0363
11072SOL    HW145275   1.462   2.705   7.371  0.1767  1.4380  0.5679
11072SOL    HW245276   1.547   2.573   7.324 -2.9210 -0.0787 -0.9782
11073SOL     OW45277   7.884   1.014   5.652  0.0771  0.1713  0.9553
11073SOL    HW145278   7.807   0.994   5.712 -0.9900  1.3580  0.0118
11073SOL    HW245279   7.855   1.078   5.581  2.2925  1.6524  1.3608
11074SOL     OW45280   7.788   2.433   0.168 -0.4038 -0.0725 -0.2603
11074SOL    HW145281   7.831   2.388   0.090  0.1506 -0.4468  0.2529
11074SOL    HW245282   7.707   2.381   0.196 -0.8478  0.3032 -0.8589
11075SOL     OW45283   3.842   6.238   7.216 -0.4432 -0.6198  0.0246
11075SOL    HW145284   3.760   6.181   7.222  0.1846 -1.5941 -0.6575
11075SOL    HW245285   3.819   6.323   7.169 -1.4982 -0.0559  1.5097
11076SOL     OW45286   2.077   3.315   0.135  0.7726  0.2575 -0.1633
11076SOL    HW145287   1.997   3.324   0.195  1.5478 -0.8225  1.0717
11076SOL    HW245288   2.059   3.359   0.047 -0.8397  0.8061  0.4354
11077SOL     OW45289   7.214   8.105   2.835  0.3627  0.2693 -0.0458
11077SOL    HW145290   7.196   8.110   2.736 -0.7831 -1.0654  0.0838
11077SOL    HW245291   7.242   8.195   2.868  1.5239  0.5524 -1.7268
11078SOL     OW45292   7.611   2.203   0.145 -0.4889  0.0080  0.0153
11078SOL    HW145293   7.627   2.156   0.232 -0.3078  1.2431  0.6522
11078SOL    HW245294   7.681   2.175   0.079  0.7981  0.8722  0.9893
11079SOL     OW45295   8.808   6.055   3.070  0.2743  0.1602 -0.9569
11079SOL    HW145296   8.884   6.111   3.103 -0.8377  0.1188  1.7851
11079SOL    HW245297   8.819   5.961   3.102 -0.0878 -0.2499 -1.9840
11080SOL     OW45298   1.918   7.293   1.480  0.7000  0.1636 -0.2369
11080SOL    HW145299   2.013   7.293   1.447  0.5753  0.9540 -0.6234
11080SOL    HW245300   1.856   7.298   1.402  0.3700  0.7747  0.0625
11081SOL     OW45301   0.361   1.054   1.430 -0.1123  0.6417 -0.1872
11081SOL    HW145302   0.284   0.995   1.408 -1.1766  1.7405  0.5000
11081SOL    HW245303   0.432   1.043   1.361 -0.2768 -1.4474 -0.0405
11082SOL     OW45304   2.666   1.667   7.845  1.0971 -0.1838 -0.5939
11082SOL    HW145305   2.581   1.719   7.849  0.6930 -0.8982  0.4520
11082SOL    HW245306   2.696   1.658   7.750  1.1489  1.8889 -0.8101
11083SOL     OW45307   1.418   0.313   1.466  0.3600  0.9510  0.6101
11083SOL    HW145308   1.450   0.252   1.538  1.9761  0.7129 -0.2757
11083SOL    HW245309   1.459   0.404   1.479 -0.4543  1.2964  0.7889
11084SOL     OW45310   5.437   1.271   6.841  0.5171  0.2890  0.3067
11084SOL    HW145311   5.516   1.243   6.787  1.0714  1.2338  0.6176
11084SOL    HW245312   5.369   1.314   6.781  1.7370  2.6207  0.5484
11085SOL     OW45313   4.848   6.599   8.690  0.0765  0.0141 -0.1866
11085SOL    HW145314   4.791   6.564   8.765  0.4626  1.3964  0.7639
11085SOL    HW245315   4.799   6.673   8.644 -0.4988 -1.3636 -1.8314
11086SOL     OW45316   3.895   3.107   6.405  0.2791 -0.4784 -0.5154
11086SOL    HW145317   3.854   3.155   6.482  0.7106 -0.6999 -0.1426
11086SOL    HW245318   3.851   3.135   6.320  1.6227  1.8015 -0.4971
11087SOL     OW45319   9.455   5.005   2.114 -0.3241 -0.2451 -0.2209
11087SOL    HW145320   9.454   5.013   2.213  1.0954 -0.3193 -0.1989
11087SOL    HW245321   9.383   5.063   2.075 -1.5378 -0.9725  0.8850
11088SOL     OW45322   8.392   9.491   2.000  0.3930  0.3035  0.3939
11088SOL    HW145323   8.336   9.568   2.033 -0.7263  0.3179 -1.4540
11088SOL    HW245324   8.443   9.519   1.919  1.1839 -0.4480  0.6251
11089SOL     OW45325   2.278   5.307   2.682  0.0178 -0.2010  0.7875
11089SOL    HW145326   2.207   5.243   2.712 -0.8197  0.1634 -0.3877
11089SOL    HW245327   2.305   5.285   2.588 -0.0189  0.9387  0.5056
11090SOL     OW45328   7.559   7.407   4.822  0.5237  0.1374  0.2580
11090SOL    HW145329   7.592   7.438   4.912  0.6747 -1.2813  0.6983
11090SOL    HW245330   7.479   7.461   4.796  0.8218  0.9495  0.9748
11091SOL     OW45331   0.524   6.277   8.473  0.0222 -0.4124 -0.0405
11091SOL    HW145332   0.603   6.218   8.489 -1.1737 -1.6994  1.4218
11091SOL    HW245333   0.520   6.303   8.377  1.1000 -2.0138 -0.5435
11092SOL     OW45334   5.820   1.312   8.384 -0.0179 -0.4872 -0.1311
11092SOL    HW145335   5.835   1.340   8.289 -0.5417 -1.9015 -0.6418
11092SOL    HW245336   5.786   1.218   8.386  0.2444 -0.5600  1.4752
11093SOL     OW45337   4.238   6.663   2.144 -0.5321  0.0404 -0.0278
11093SOL    HW145338   4.327   6.707   2.141 -1.0441  0.9766 -2.1376
11093SOL    HW245339   4.233   6.591   2.074 -1.7279  0.6006 -0.5397
11094SOL     OW45340   7.936   4.317   7.107 -0.4656  0.0456  0.2841
11094SOL    HW145341   7.888   4.369   7.036 -0.2756  0.1180  0.2069
11094SOL    HW245342   7.967   4.230   7.069  1.0023  0.7494 -0.1687
11095SOL     OW45343   2.089   6.408   2.985  0.4892 -0.1317  0.7161
11095SOL    HW145344   2.171   6.455   2.953 -0.2896  1.8689  1.5408
11095SOL    HW245345   2.051   6.457   3.064 -2.1564 -0.3381 -0.3835
11096SOL     OW45346   9.543   7.920   9.466  0.2317 -0.4738  0.6658
11096SOL    HW145347   9.594   7.961   9.390 -0.2076 -0.8893  0.1436
11096SOL    HW245348   9.562   7.822   9.470 -1.7365 -0.9281 -0.5186
11097SOL     OW45349   5.285   9.632   7.472 -0.0102  0.1293  0.0664
11097SOL    HW145350   5.258   9.566   7.402 -1.0018  0.8420 -0.2340
11097SOL    HW245351   5.262   9.724   7.441  0.5592  0.5367  0.8566
11098SOL     OW45352   4.905   4.588   0.498  0.0635 -0.3677  0.5345
11098SOL    HW145353   4.920   4.655   0.424 -1.0153  0.6685  1.2425
11098SOL    HW245354   4.878   4.636   0.581 -0.6170 -1.6914  1.0876
11099SOL     OW45355   2.554   9.553   0.112  0.0093  0.4080  0.1296
11099SOL    HW145356   2.595   9.581   0.025  0.7307  0.5012  0.4917
11099SOL    HW245357   2.581   9.617   0.183 -0.5847  0.3336  0.4241
11100SOL     OW45358   6.353   9.938   5.407  0.0738 -0.2072  0.5012
11100SOL    HW145359   6.275  10.000   5.419  0.0411 -0.0789 -0.3060
11100SOL    HW245360   6.436   9.992   5.391 -0.0904 -0.3671 -0.9896
11101SOL     OW45361   6.580   3.732   0.781 -0.4350 -0.2624 -0.0618
11101SOL    HW145362   6.493   3.760   0.821  0.0367  1.8209 -0.4548
11101SOL    HW245363   6.563   3.665   0.709 -1.4526 -2.3195  2.0051
11102SOL     OW45364   7.020   7.253   5.555 -0.0386  0.3009  0.3284
11102SOL    HW145365   6.962   7.334   5.544  0.2985  0.8212  2.1841
11102SOL    HW245366   7.065   7.233   5.469 -2.4928  0.2396 -1.0068
11103SOL     OW45367   5.376   0.737   4.197  0.1928  0.7902  0.2749
11103SOL    HW145368   5.354   0.674   4.122  1.2471  1.3458 -0.5041
11103SOL    HW245369   5.404   0.685   4.277  2.0684  0.2848 -0.6899
11104SOL     OW45370   9.242   2.749   0.522  1.0800  0.2455 -0.1851
11104SOL    HW145371   9.321   2.800   0.555  1.9022 -0.9022 -0.3457
11104SOL    HW245372   9.268   2.696   0.441  0.4832 -1.1049  0.4938
11105SOL     OW45373   0.414   4.182   2.243 -0.2058  0.2337 -0.2781
11105SOL    HW145374   0.511   4.205   2.248 -0.4888  1.2770  0.5203
11105SOL    HW245375   0.400   4.112   2.173  1.2698 -0.7126  0.3469
11106SOL     OW45376   1.771   7.025   8.689 -0.0016  0.2305  0.2024
11106SOL    HW145377   1.682   6.979   8.689  0.7075 -1.2016 -1.1394
11106SOL    HW245378   1.839   6.965   8.731  0.7554  0.3934 -0.7706
11107SOL     OW45379   1.514   7.488   6.915 -0.1980 -0.2077 -0.1495
11107SOL    HW145380   1.534   7.390   6.912 -2.3197 -0.6170 -1.8246
11107SOL    HW245381   1.419   7.502   6.944  0.1879  1.3900  0.4357
11108SOL     OW45382   7.699   6.899   6.116 -0.0351 -0.5045 -0.3815
11108SOL    HW145383   7.721   6.934   6.208 -0.6530 -2.5765  0.5922
11108SOL    HW245384   7.725   6.967   6.048 -0.4540  1.4854  1.3812
11109SOL     OW45385   6.009   0.642   7.346 -0.0368 -0.3639 -0.6578
11109SOL    HW145386   5.965   0.566   7.393  0.4033  0.1630  0.6239
11109SOL    HW245387   6.098   0.614   7.313  0.3225 -0.2771  0.2260
11110SOL     OW45388   5.707   9.296   5.976  0.2853 -0.2526  1.4944
11110SOL    HW145389   5.709   9.229   6.050 -0.1778 -0.1397  1.6111
11110SOL    HW245390   5.764   9.264   5.901 -1.5279 -1.7429  0.7254
11111SOL     OW45391   7.956   8.540   5.525 -0.0494  0.3504 -0.6814
11111SOL    HW145392   7.995   8.455   5.490  1.1985  1.0087 -0.9290
11111SOL    HW245393   7.892   8.578   5.458 -0.1653 -0.0982 -0.8214
11112SOL     OW45394   4.357   8.432   0.918 -0.4642 -0.1346 -0.8655
11112SOL    HW145395   4.347   8.350   0.861  0.2212 -0.0401 -1.1263
11112SOL    HW245396   4.357   8.513   0.859 -2.4218  0.1597 -0.5105
11113SOL     OW45397   7.875   3.963   0.744 -0.0478  0.2525 -0.6290
11113SOL    HW145398   7.928   4.006   0.671  0.1227 -0.5252 -0.9716
11113SOL    HW245399   7.937   3.935   0.817 -0.4040  2.4763  0.5516
11114SOL     OW45400   0.800   5.042   7.340  0.4331  0.5229 -0.0677
11114SOL    HW145401   0.855   5.009   7.417 -1.0215  0.5391  1.0081
11114SOL    HW245402   0.719   4.984   7.330  0.8937  0.1653 -1.9863
11115SOL     OW45403   4.141   1.162   8.246  0.4481  0.0523 -0.4169
11115SOL    HW145404   4.163   1.070   8.279 -1.7731 -0.1976  0.4702
11115SOL    HW245405   4.088   1.156   8.161  1.6077  0.5595 -1.1833
11116SOL     OW45406   2.820   4.268   6.075  0.2147 -0.6092  0.1773
11116SOL    HW145407   2.758   4.332   6.122  0.5658  1.2660 -1.8755
11116SOL    HW245408   2.912   4.276   6.113  0.4999  0.9175 -0.7953
11117SOL     OW45409   1.555   7.274   8.483 -0.1008  0.6348 -0.4440
11117SOL    HW145410   1.508   7.186   8.482 -0.4980  0.8116  1.1033
11117SOL    HW245411   1.623   7.276   8.410 -0.0410 -0.9746 -0.4525
11118SOL     OW45412   0.409   2.712   9.405  0.3012 -0.0059  0.3546
11118SOL    HW145413   0.435   2.616   9.399  0.0816 -0.0836  0.6311
11118SOL    HW245414   0.309   2.720   9.400  0.3731  0.2976 -0.7906
11119SOL     OW45415   1.353   1.346   5.067 -0.5131  0.9266  0.7915
11119SOL    HW145416   1.303   1.299   4.995  0.7475 -0.0472  0.5286
11119SOL    HW245417   1.408   1.419   5.028  2.0053 -1.1104  0.4101
11120SOL     OW45418   7.831   5.387   2.126 -0.2135  0.4085 -0.8180
11120SOL    HW145419   7.852   5.479   2.094  0.4936  0.6673  0.3662
11120SOL    HW245420   7.861   5.321   2.058  0.7920  0.9741 -0.9318
11121SOL     OW45421   3.205   8.635   0.414  0.3414 -0.1691 -0.1026
11121SOL    HW145422   3.150   8.710   0.450 -0.6050  0.3257 -2.5046
11121SOL    HW245423   3.276   8.611   0.480 -0.6992  1.3864  1.6140
11122SOL     OW45424   8.855   2.377   7.133  0.0976  0.1441  0.3510
11122SOL    HW145425   8.945   2.343   7.158 -0.3986 -0.3940  1.4319
11122SOL    HW245426   8.788   2.350   7.202 -0.9772  0.1648 -0.6577
11123SOL     OW45427   4.845   3.672   8.709 -0.3221 -0.1377 -0.0042
11123SOL    HW145428   4.790   3.667   8.626  2.4928 -0.5695 -1.9152
11123SOL    HW245429   4.904   3.753   8.705 -0.4325  0.0464  1.7429
11124SOL     OW45430   9.292   4.916   3.842 -0.4689 -0.5798  0.4463
11124SOL    HW145431   9.199   4.905   3.876 -0.4317  0.9800  1.0957
11124SOL    HW245432   9.314   5.013   3.837  0.1430 -0.8167 -2.3883
11125SOL     OW45433   5.232   9.810   7.182  0.0356 -0.1677 -0.1719
11125SOL    HW145434   5.205   9.812   7.086 -0.7167  0.0700  0.0383
11125SOL    HW245435   5.328   9.783   7.190  1.0844  3.0703 -1.2126
11126SOL     OW45436   5.400   1.979   7.538  0.2724  0.5090 -0.0787
11126SOL    HW145437   5.420   2.028   7.622 -1.7842 -0.7169  1.1737
11126SOL    HW245438   5.416   1.881   7.551 -1.5250  0.1138 -0.5777
11127SOL     OW45439   8.561   8.687   7.309  0.2813  0.4982 -0.0442
11127SOL    HW145440   8.497   8.714   7.381  0.2318  0.1241  0.0574
11127SOL    HW245441   8.598   8.596   7.330 -0.6008 -0.1130 -1.0602
11128SOL     OW45442   8.359   8.976   8.346  1.2946 -0.7279  0.3250
11128SOL    HW145443   8.322   9.058   8.303  1.3177  0.0644  1.7885
11128SOL    HW245444   8.443   8.999   8.395  0.7002 -1.4002  1.6721
11129SOL     OW45445   0.773   0.963   1.462 -0.3732  0.8852  0.2755
11129SOL    HW145446   0.864   1.006   1.463 -0.3382  0.8741 -0.9102
11129SOL    HW245447   0.717   1.006   1.390 -0.8689  0.0195  0.1412
11130SOL     OW45448   1.377   2.963   7.346  0.2399 -0.5318  0.3205
11130SOL    HW145449   1.306   2.971   7.276  0.7385 -0.2424 -0.1492
11130SOL    HW245450   1.334   2.954   7.436 -0.4150 -2.4257 -0.1734
11131SOL     OW45451   0.649   3.782   2.944  0.7947  0.4035 -0.0933
11131SOL    HW145452   0.709   3.804   3.021  0.4338 -2.0808  0.9201
11131SOL    HW245453   0.659   3.686   2.920 -1.7361  0.2932 -0.8235
11132SOL     OW45454   0.851   6.826   8.787 -0.0278  0.4233 -0.1143
11132SOL    HW145455   0.840   6.738   8.742 -0.0695  0.2427  0.2505
11132SOL    HW245456   0.899   6.814   8.874 -3.4588  0.2603  1.8035
11133SOL     OW45457   4.392   4.116   1.482  0.2281  0.4058  0.2934
11133SOL    HW145458   4.296   4.087   1.487  0.6803 -0.9102  1.3120
11133SOL    HW245459   4.442   4.057   1.419  0.6817  0.2476  0.7979
11134SOL     OW45460   9.457   0.613   7.063  0.4697  0.5057 -0.5371
11134SOL    HW145461   9.375   0.574   7.022  0.7583 -0.1524 -0.4993
11134SOL    HW245462   9.452   0.605   7.162  1.2544 -0.9392 -0.5931
11135SOL     OW45463   1.520   2.125   4.462  0.1923 -0.0976  0.7210
11135SOL    HW145464   1.499   2.180   4.542  1.4460 -0.8721  1.5966
11135SOL    HW245465   1.489   2.031   4.477 -1.0236  0.1003 -0.3606
11136SOL     OW45466   0.049   7.562   4.175  0.2006 -0.5202 -0.1241
11136SOL    HW145467   0.044   7.548   4.076  4.0914 -3.1056 -0.0560
11136SOL    HW245468   0.017   7.480   4.222  0.1507 -0.0004  0.7569
11137SOL     OW45469   0.069   9.247   1.502  0.1843  0.0671 -0.1137
11137SOL    HW145470   0.067   9.248   1.602  2.4296 -1.2623 -0.0286
11137SOL    HW245471   0.051   9.154   1.469  0.3070  0.3242 -0.9232
11138SOL     OW45472   0.333   5.901   2.550 -0.2823 -0.5089 -0.4752
11138SOL    HW145473   0.267   5.867   2.483  1.2036 -1.3276 -1.5350
11138SOL    HW245474   0.422   5.914   2.507  0.2463  0.7042  0.9199
11139SOL     OW45475   0.647   6.232   5.357 -1.0230 -0.4272  0.3550
11139SOL    HW145476   0.548   6.241   5.348 -1.0153 -1.3151 -0.7978
11139SOL    HW245477   0.688   6.230   5.266  0.0966  0.3277  0.8390
11140SOL     OW45478   3.848   2.179   3.838  0.0945  0.2629  0.5323
11140SOL    HW145479   3.858   2.137   3.747 -0.4121 -1.7094  1.3709
11140SOL    HW245480   3.877   2.114   3.908 -3.1078  0.3455  2.0298
11141SOL     OW45481   2.378   4.513   4.600  0.1139 -0.0794  0.3079
11141SOL    HW145482   2.408   4.600   4.561  2.7886 -0.9132  0.4096
11141SOL    HW245483   2.327   4.531   4.684 -2.8960  1.5534 -1.7729
11142SOL     OW45484   0.444   4.219   8.272 -0.1205 -0.7773 -0.1218
11142SOL    HW145485   0.438   4.122   8.295 -1.3852 -0.1388  2.3690
11142SOL    HW245486   0.356   4.263   8.288  0.7722  1.0303  0.0050
11143SOL     OW45487   3.055   0.741   0.850  0.0506 -0.3210 -0.8118
11143SOL    HW145488   2.977   0.752   0.789  0.7674 -0.2318 -1.7202
11143SOL    HW245489   3.140   0.754   0.799  0.6981 -1.5870 -0.0975
11144SOL     OW45490   6.243   1.751   4.980  0.5174  0.1785  0.7126
11144SOL    HW145491   6.309   1.679   4.959 -2.0429 -2.6239  1.8948
11144SOL    HW245492   6.150   1.714   4.977 -1.1625  4.2059 -1.7920
11145SOL     OW45493   2.995   2.252   1.301 -0.2136 -0.2631 -0.2688
11145SOL    HW145494   3.030   2.176   1.355  0.7869  0.1908 -0.2761
11145SOL    HW245495   2.920   2.296   1.350  0.0902 -0.4145  0.3297
11146SOL     OW45496   8.743   1.690   9.711  0.1608 -0.0595 -0.0028
11146SOL    HW145497   8.703   1.634   9.783  1.9722 -2.6311 -0.9123
11146SOL    HW245498   8.834   1.722   9.740  0.2305  0.2307 -0.5276
11147SOL     OW45499   7.676   7.927   5.956 -0.8775 -0.3897 -0.0034
11147SOL    HW145500   7.764   7.965   5.930 -1.2427 -0.3738 -1.2520
11147SOL    HW245501   7.659   7.944   6.054 -0.2791  1.1380 -0.1593
11148SOL     OW45502   4.625   4.923   4.215  0.7746  0.0978 -0.5910
11148SOL    HW145503   4.580   4.950   4.130 -2.4529  1.5486  1.4698
11148SOL    HW245504   4.636   4.823   4.217 -2.5296 -0.3353 -1.1483
11149SOL     OW45505   7.956   3.267   8.704  0.4071  0.4218 -0.3992
11149SOL    HW145506   7.967   3.170   8.722  0.6847  0.8994  2.2364
11149SOL    HW245507   7.867   3.284   8.662 -0.4385 -0.7957  0.8375
11150SOL     OW45508   8.122   2.285   5.482  0.3373  0.1614  0.0842
11150SOL    HW145509   8.205   2.258   5.532  0.0843 -0.8831 -0.0527
11150SOL    HW245510   8.130   2.255   5.387 -0.5849 -0.7630  0.2841
11151SOL     OW45511   4.936   6.364   8.296  0.6566  0.3859 -0.1782
11151SOL    HW145512   4.854   6.405   8.334  0.2427  0.7487 -1.4270
11151SOL    HW245513   4.969   6.292   8.356  0.0445  0.9774  0.8709
11152SOL     OW45514   1.709   3.395   1.161  0.2204  0.0776 -0.6720
11152SOL    HW145515   1.737   3.377   1.255  0.7711 -0.1730 -0.8775
11152SOL    HW245516   1.618   3.437   1.160 -1.3022 -3.0752 -0.1975
11153SOL     OW45517   2.979   0.891   7.983  0.1669 -0.6354  0.3896
11153SOL    HW145518   3.035   0.900   8.065  0.2034  0.4009  0.2510
11153SOL    HW245519   2.896   0.946   7.992 -0.8435 -2.1487  0.5835
11154SOL     OW45520   0.434   5.835   4.604 -0.3897 -0.0037 -0.0781
11154SOL    HW145521   0.363   5.804   4.541  0.5061 -0.5945 -0.8061
11154SOL    HW245522   0.435   5.776   4.685 -1.8808  1.0647  0.7498
11155SOL     OW45523   0.865   7.673   7.655  0.6186 -0.2699 -0.1384
11155SOL    HW145524   0.775   7.631   7.666  0.7908 -0.4991  0.4613
11155SOL    HW245525   0.892   7.715   7.742  0.4281  1.1266 -0.7332
11156SOL     OW45526   8.282   9.420   5.664 -0.2382  0.0768 -0.0446
11156SOL    HW145527   8.282   9.348   5.594  0.1264  0.9554 -0.9706
11156SOL    HW245528   8.304   9.507   5.621 -2.2968  1.0304  0.7883
11157SOL     OW45529   1.266   6.245   4.735 -0.2068  0.1525  1.1610
11157SOL    HW145530   1.201   6.315   4.763 -0.2958 -0.7885  3.4421
11157SOL    HW245531   1.222   6.155   4.738  0.6554 -0.2860  0.8837
11158SOL     OW45532   8.279   7.915   0.336 -0.1554 -0.0618 -0.7234
11158SOL    HW145533   8.246   7.850   0.404  1.4624  0.2880  0.4166
11158SOL    HW245534   8.283   7.870   0.247 -1.3192 -0.8190 -0.4048
11159SOL     OW45535   7.619   3.967   7.113 -0.2091  0.6497 -0.0527
11159SOL    HW145536   7.570   3.935   7.031  0.3710  0.5426 -0.3647
11159SOL    HW245537   7.716   3.978   7.091  0.0990 -0.2107  0.8603
11160SOL     OW45538   8.959   2.163   5.041 -0.1740  0.4385  0.6172
11160SOL    HW145539   8.910   2.166   5.128  1.0518  2.2261  1.2801
11160SOL    HW245540   8.941   2.247   4.991  1.8228  0.9110  0.6684
11161SOL     OW45541   0.104   3.186   1.964  0.2506 -0.2368  0.1141
11161SOL    HW145542   0.011   3.220   1.948  0.4159  0.7553  1.2269
11161SOL    HW245543   0.162   3.262   1.995  1.1644 -1.0870  0.4854
11162SOL     OW45544   9.133   9.135   0.069  0.2171  0.3840  0.0476
11162SOL    HW145545   9.196   9.144  -0.008 -1.2811  1.7910 -1.0517
11162SOL    HW245546   9.048   9.094   0.037 -0.6472  1.5541  0.8042
11163SOL     OW45547   2.919   2.612   1.218  0.3176  0.3467  0.0624
11163SOL    HW145548   2.833   2.614   1.269  0.4480  3.6209  0.2114
11163SOL    HW245549   2.995   2.629   1.280  0.7448  1.1823 -0.6765
11164SOL     OW45550   8.389   5.974   0.908 -0.5005  0.7267 -0.7475
11164SOL    HW145551   8.310   5.932   0.953 -0.1491 -0.4000 -1.1767
11164SOL    HW245552   8.440   5.905   0.859 -0.0662  1.7102 -1.7021
11165SOL     OW45553   9.639   4.250   6.067  0.4972 -0.3065 -0.2203
11165SOL    HW145554   9.714   4.302   6.107 -0.3918  0.7415  0.1042
11165SOL    HW245555   9.566   4.238   6.135 -0.6415  0.7279 -1.2269
11166SOL     OW45556   7.521   6.374   9.711 -0.2263  0.3243  0.4363
11166SOL    HW145557   7.572   6.451   9.673  0.9319 -1.1750 -1.1137
11166SOL    HW245558   7.434   6.365   9.662 -0.5827  0.9495  0.9529
11167SOL     OW45559   3.967   1.865   9.878  0.2684 -0.7740  0.2984
11167SOL    HW145560   4.035   1.903   9.940 -0.2676  0.7524 -0.0361
11167SOL    HW245561   3.899   1.935   9.855 -0.0296 -1.5611 -1.3242
11168SOL     OW45562   3.421   5.391   8.032  0.0162 -0.6122 -0.1412
11168SOL    HW145563   3.379   5.323   7.971  0.5681 -2.9132  1.9836
11168SOL    HW245564   3.491   5.347   8.088  1.5956  2.0969  0.0990
11169SOL     OW45565   6.349   2.309   3.471 -0.2095  0.6237 -0.0956
11169SOL    HW145566   6.431   2.365   3.478 -0.3444  0.9623 -1.1454
11169SOL    HW245567   6.282   2.355   3.413 -1.8795  1.2216  2.2334
11170SOL     OW45568   3.535   3.772   6.874 -0.1637 -0.1639 -0.3526
11170SOL    HW145569   3.586   3.717   6.808  0.2380 -0.4021  0.1652
11170SOL    HW245570   3.538   3.868   6.846  0.3011 -0.2190 -0.4885
11171SOL     OW45571   1.451   6.167   2.506 -0.1167 -0.1366 -0.7598
11171SOL    HW145572   1.524   6.174   2.574 -0.2292 -0.3925 -0.6066
11171SOL    HW245573   1.385   6.240   2.520  0.3260  0.3417 -1.1643
11172SOL     OW45574   0.653   8.887   3.877  0.0839  0.0445  0.4070
11172SOL    HW145575   0.675   8.790   3.866  0.5221  0.0811  0.9619
11172SOL    HW245576   0.733   8.936   3.910  0.1063  0.7485 -0.6691
11173SOL     OW45577   6.351   9.349   6.795 -0.3588  0.1456 -0.2772
11173SOL    HW145578   6.448   9.370   6.781 -0.3248 -0.1340 -0.4654
11173SOL    HW245579   6.304   9.348   6.707 -0.3882 -0.4214 -0.2577
11174SOL     OW45580   8.143   4.793   3.966  0.0236  1.0179 -0.0752
11174SOL    HW145581   8.147   4.743   4.052  0.6545  0.9946 -0.1166
11174SOL    HW245582   8.132   4.729   3.890  2.9405  0.7511 -0.3254
11175SOL     OW45583   8.256   9.531   1.197 -0.0129  0.1553 -0.0235
11175SOL    HW145584   8.195   9.455   1.173 -0.5923  1.1963 -1.9627
11175SOL    HW245585   8.205   9.617   1.196  1.2024  0.8870 -0.3837
11176SOL     OW45586   2.906   0.931   2.269  0.1867  0.0455 -0.0860
11176SOL    HW145587   2.842   0.956   2.196  1.8668 -1.5946 -2.1806
11176SOL    HW245588   2.986   0.991   2.265  0.3738 -0.1793  0.2770
11177SOL     OW45589   1.046   7.816   0.940 -0.1488 -0.4496  0.1786
11177SOL    HW145590   1.119   7.785   0.879 -0.9105 -1.5311 -0.2038
11177SOL    HW245591   0.958   7.806   0.894 -0.6142 -0.0483  0.9825
11178SOL     OW45592   8.263   9.472   5.916 -0.1271 -0.6035  0.0840
11178SOL    HW145593   8.251   9.451   5.819 -1.2887 -0.3627  0.1774
11178SOL    HW245594   8.294   9.567   5.926  0.4226 -0.7605 -0.0626
11179SOL     OW45595   0.720   3.751   5.517  0.4167  0.1295 -0.2884
11179SOL    HW145596   0.800   3.691   5.518  1.8326  1.9874 -0.2829
11179SOL    HW245597   0.657   3.724   5.591  1.2692 -1.0203  0.0313
11180SOL     OW45598   3.423   2.592   0.226 -0.0339  0.8463 -0.0326
11180SOL    HW145599   3.441   2.550   0.137  0.4199  0.4974  0.2248
11180SOL    HW245600   3.445   2.527   0.299 -1.5892  0.6744  0.3148
11181SOL     OW45601   1.716   8.048   2.507 -0.0513  0.8650  0.5433
11181SOL    HW145602   1.674   8.001   2.584  0.2530  1.4554  1.0741
11181SOL    HW245603   1.647   8.068   2.437 -0.1097 -0.7461  0.1136
11182SOL     OW45604   8.468   7.036   9.020 -0.0729  0.1123 -0.7600
11182SOL    HW145605   8.567   7.047   9.022 -0.0360  0.1966 -2.3260
11182SOL    HW245606   8.429   7.095   8.949 -1.6603  2.9974  2.3980
11183SOL     OW45607   9.019   7.350   7.160  0.0073  0.1309  0.1573
11183SOL    HW145608   9.043   7.391   7.248  0.0314  1.2870 -0.3775
11183SOL    HW245609   9.009   7.423   7.091  0.3404 -0.7875 -0.8727
11184SOL     OW45610   1.421   0.695   1.626  0.5480  0.3555  0.2696
11184SOL    HW145611   1.438   0.790   1.652  0.6184  0.6904 -0.9937
11184SOL    HW245612   1.331   0.667   1.660 -0.5546  1.6755 -1.5169
11185SOL     OW45613   2.961   0.435   2.783  0.5924  0.0200 -0.5835
11185SOL    HW145614   2.967   0.518   2.840  1.3397 -0.7551  0.4814
11185SOL    HW245615   3.026   0.441   2.708  1.3372 -0.0127  0.0467
11186SOL     OW45616   6.060   0.228   4.110 -0.2605 -0.4434  0.4469
11186SOL    HW145617   6.016   0.317   4.117 -0.1405 -0.3947  0.5763
11186SOL    HW245618   6.121   0.214   4.188  0.5506 -0.1808 -0.1241
11187SOL     OW45619   3.423   9.342   6.031  0.0519  0.8901 -0.0744
11187SOL    HW145620   3.506   9.285   6.034  0.0252  0.8353 -0.3206
11187SOL    HW245621   3.427   9.401   5.951 -0.4860  0.3729 -0.4790
11188SOL     OW45622   1.844   2.764   5.146  0.3419 -0.7388 -0.3900
11188SOL    HW145623   1.853   2.735   5.242 -2.1347  0.6180  0.2844
11188SOL    HW245624   1.915   2.831   5.125  0.1699 -0.1529  0.8584
11189SOL     OW45625   1.303   8.431   2.963 -0.5008 -0.1608 -0.3711
11189SOL    HW145626   1.390   8.480   2.968 -0.8476  0.2802  1.5589
11189SOL    HW245627   1.228   8.497   2.954 -0.8572 -0.4042  0.8035
11190SOL     OW45628   6.773   5.317   6.666  0.3257  0.1843 -0.1953
11190SOL    HW145629   6.846   5.256   6.635  0.9898 -0.1520  1.9633
11190SOL    HW245630   6.813   5.400   6.704 -0.4972  0.9399 -0.9860
11191SOL     OW45631   8.724   5.434   6.368  0.0829 -0.2498 -0.4022
11191SOL    HW145632   8.797   5.489   6.328  0.4486  0.5458  1.2874
11191SOL    HW245633   8.764   5.352   6.411 -0.1037 -0.1918 -0.1198
11192SOL     OW45634   7.333   4.944   3.664  1.0134 -0.1333 -0.0844
11192SOL    HW145635   7.343   5.032   3.617 -0.3965  0.5952  0.9490
11192SOL    HW245636   7.409   4.932   3.729  0.2026  1.2276  1.1645
11193SOL     OW45637   5.752   4.769   8.274  0.2870 -0.1851  0.5463
11193SOL    HW145638   5.723   4.861   8.299  2.2201  0.3132  1.0155
11193SOL    HW245639   5.751   4.760   8.174  2.6191  1.2241  0.3613
11194SOL     OW45640   3.423   7.739   3.486  0.0650  0.7160 -0.1066
11194SOL    HW145641   3.462   7.797   3.414  1.3643  0.7061  0.5630
11194SOL    HW245642   3.480   7.658   3.497 -0.5740  0.3332  0.3990
11195SOL     OW45643   7.765   2.190   8.436 -0.6787 -0.0821  0.3404
11195SOL    HW145644   7.750   2.286   8.412 -2.2858  0.1483  2.1351
11195SOL    HW245645   7.680   2.139   8.425 -0.1771 -1.0215  0.7193
11196SOL     OW45646   9.630   1.138   8.595  0.1227  0.5141 -0.4434
11196SOL    HW145647   9.576   1.109   8.674  1.3079 -1.8844 -0.4604
11196SOL    HW245648   9.603   1.086   8.514  1.2341  0.5569 -0.8541
11197SOL     OW45649   1.184   7.759   2.030 -0.2363  0.0665 -0.5029
11197SOL    HW145650   1.094   7.790   2.000 -1.2564 -2.2323  0.0706
11197SOL    HW245651   1.241   7.839   2.051 -2.9755  1.5846  1.6404
11198SOL     OW45652   7.201   7.370   3.887  0.0111  0.5368  0.2327
11198SOL    HW145653   7.203   7.465   3.857 -0.1205  0.2259 -0.7993
11198SOL    HW245654   7.108   7.335   3.878 -0.1035  0.5313  1.3440
11199SOL     OW45655   7.633   1.141   7.521 -0.2992  0.5163 -0.0859
11199SOL    HW145656   7.557   1.080   7.542  0.1854  0.1668  0.6817
11199SOL    HW245657   7.703   1.132   7.591  1.3043 -0.5419 -1.8034
11200SOL     OW45658   9.294   7.687   2.374  0.1788  0.3166  0.2489
11200SOL    HW145659   9.222   7.670   2.306  2.9297  1.6468 -3.1974
11200SOL    HW245660   9.278   7.776   2.417 -0.5222  0.3830 -0.1342
11201SOL     OW45661   3.063   0.887   9.090 -0.4607 -0.2204 -0.2171
11201SOL    HW145662   3.112   0.800   9.078  0.5114  0.5854 -2.3238
11201SOL    HW245663   3.059   0.935   9.003 -1.9845  1.3486  0.6901
11202SOL     OW45664   1.916   5.939   5.032 -0.6638  0.0699  0.3714
11202SOL    HW145665   1.993   5.876   5.019 -0.5725  0.4545 -1.0363
11202SOL    HW245666   1.931   6.022   4.979 -1.8630  0.3092  0.3741
11203SOL     OW45667   2.614   6.239   8.415  0.0584  0.0764 -0.0904
11203SOL    HW145668   2.525   6.284   8.416  0.1770  0.3188 -0.2798
11203SOL    HW245669   2.608   6.151   8.462 -1.2583 -1.7611 -3.5429
11204SOL     OW45670   9.777   2.349   4.409  0.4438 -0.2014  0.0997
11204SOL    HW145671   9.760   2.254   4.382  2.0121 -0.0789 -1.3955
11204SOL    HW245672   9.875   2.370   4.398  0.0262  1.7550 -0.1183
11205SOL     OW45673   2.385   3.738   1.297 -0.0287  0.1664  0.3409
11205SOL    HW145674   2.298   3.689   1.306 -0.2354  0.7883  2.0663
11205SOL    HW245675   2.398   3.797   1.377  1.6796  0.5717 -0.2097
11206SOL     OW45676   4.535   6.096   0.711  0.4423  0.4422  0.6609
11206SOL    HW145677   4.462   6.138   0.765  1.6010 -0.3473  2.8952
11206SOL    HW245678   4.562   6.159   0.638 -2.3235  0.8043 -0.1139
11207SOL     OW45679   2.819   5.502   4.149  0.7542  0.1205 -0.4447
11207SOL    HW145680   2.910   5.461   4.156  1.1369  0.8705 -0.9759
11207SOL    HW245681   2.817   5.566   4.072 -0.2753 -0.0286 -0.5495
11208SOL     OW45682   4.230   1.496   3.417  0.0472 -0.2763  0.1594
11208SOL    HW145683   4.322   1.532   3.436 -1.3970  2.7648  1.6776
11208SOL    HW245684   4.183   1.556   3.353 -1.3952 -1.0605  0.4488
11209SOL     OW45685   4.860   1.484   5.173  0.1927 -0.5094  0.2331
11209SOL    HW145686   4.825   1.577   5.180 -0.5031 -0.6257 -1.4717
11209SOL    HW245687   4.944   1.476   5.228  0.0618  1.0015  0.6904
11210SOL     OW45688   4.262   0.205   0.464 -0.0359  0.3606  0.3261
11210SOL    HW145689   4.284   0.116   0.504  0.2136  0.6287  0.8036
11210SOL    HW245690   4.306   0.214   0.375 -1.7334 -0.7980 -0.6594
11211SOL     OW45691   8.369   9.247   6.024  0.2330  0.8628 -0.1363
11211SOL    HW145692   8.343   9.340   5.997 -0.1239  0.8726  0.2314
11211SOL    HW245693   8.301   9.211   6.088  0.1698  0.1995 -0.5771
11212SOL     OW45694   4.437   3.640   6.474 -0.1272 -0.1522  0.2965
11212SOL    HW145695   4.481   3.554   6.500 -1.2156 -0.6881  0.4000
11212SOL    HW245696   4.340   3.624   6.455 -0.3181  1.0322  0.1970
11213SOL     OW45697   8.085   9.607   1.902 -0.1856  0.1539 -0.0640
11213SOL    HW145698   8.014   9.538   1.914  0.0553 -0.3155 -1.2028
11213SOL    HW245699   8.113   9.643   1.991  0.1377 -1.7026  0.6090
11214SOL     OW45700   2.686   5.241   9.041 -0.4324 -0.2632  0.5372
11214SOL    HW145701   2.636   5.318   9.004  0.9054 -0.1177 -1.0248
11214SOL    HW245702   2.784   5.259   9.036 -0.0785 -2.1704 -0.1270
11215SOL     OW45703   6.472   9.517   4.559 -0.5291 -0.2583  0.4083
11215SOL    HW145704   6.542   9.496   4.490 -0.9994 -1.5427  0.3172
11215SOL    HW245705   6.470   9.616   4.574  2.0603 -0.2964  1.2031
11216SOL     OW45706   9.098   1.157   1.194  0.0216 -0.0193 -0.3655
11216SOL    HW145707   9.074   1.222   1.122  0.2956 -0.5668 -0.9574
11216SOL    HW245708   9.152   1.083   1.155 -0.8600 -0.9566  0.1769
11217SOL     OW45709   5.373   1.865   8.684  0.1570 -0.7508 -0.5761
11217SOL    HW145710   5.442   1.904   8.624  0.8175 -2.7471 -1.1738
11217SOL    HW245711   5.418   1.823   8.763 -0.6789  1.5303  1.1635
11218SOL     OW45712   8.009   2.920   5.727 -0.7104  0.5792  0.3212
11218SOL    HW145713   8.040   2.963   5.812 -0.3404 -0.4463  0.7143
11218SOL    HW245714   7.955   2.986   5.675  0.3250  1.7026  0.6350
11219SOL     OW45715   8.907   2.173   6.260  0.5805 -0.5315  0.1672
11219SOL    HW145716   8.864   2.221   6.183  1.5336 -1.2392 -0.8115
11219SOL    HW245717   8.851   2.095   6.287 -0.7595  0.8507  1.4845
11220SOL     OW45718   2.662   4.563   0.577 -0.5654 -0.3674  0.0070
11220SOL    HW145719   2.655   4.642   0.516  0.0842  0.5316  1.0687
11220SOL    HW245720   2.755   4.558   0.614  0.0804 -3.0130 -1.8750
11221SOL     OW45721   8.742   8.523   4.843 -0.0567 -0.1292 -0.1770
11221SOL    HW145722   8.734   8.442   4.785 -0.2041 -0.4558  0.2973
11221SOL    HW245723   8.663   8.582   4.827 -0.1171 -0.2358 -0.2816
11222SOL     OW45724   8.587   0.770   5.596 -0.0473 -0.0810 -0.0207
11222SOL    HW145725   8.578   0.674   5.621  0.7821 -0.2062 -0.1735
11222SOL    HW245726   8.606   0.777   5.498  0.5991  0.1965  0.1214
11223SOL     OW45727   0.367   5.837   8.036 -0.3442  0.1292  1.0046
11223SOL    HW145728   0.347   5.933   8.019 -0.4265 -0.0423  0.0947
11223SOL    HW245729   0.400   5.794   7.952 -1.0555 -0.8313  1.1975
11224SOL     OW45730   0.149   8.087   0.028  0.9577 -0.1343  0.6701
11224SOL    HW145731   0.131   8.066   0.124 -0.1492  0.7319  0.6683
11224SOL    HW245732   0.158   8.002  -0.024  0.9327 -0.6051  1.4266
11225SOL     OW45733   8.573   5.766   3.261 -0.0436 -0.6720 -0.0252
11225SOL    HW145734   8.662   5.762   3.217  0.2537 -0.9398  0.6056
11225SOL    HW245735   8.509   5.816   3.202  0.7919  0.4375 -0.0107
11226SOL     OW45736   0.235   3.535   5.947  0.3708  0.1833 -0.4252
11226SOL    HW145737   0.175   3.611   5.924 -0.8587 -0.8161 -0.6081
11226SOL    HW245738   0.321   3.570   5.985  0.4101  1.6817 -1.8440
11227SOL     OW45739   1.991   6.827   3.787  0.0365 -0.0493 -0.3913
11227SOL    HW145740   2.027   6.735   3.774  2.2781  0.9273 -1.4333
11227SOL    HW245741   1.949   6.834   3.877  2.0111 -1.4254  0.6732
11228SOL     OW45742   8.003   1.664   3.133  0.3751 -0.8081 -0.1547
11228SOL    HW145743   8.029   1.747   3.183  2.5255 -2.1180  0.9485
11228SOL    HW245744   8.030   1.674   3.037 -0.7842  0.3760 -0.3759
11229SOL     OW45745   1.106   5.288   7.344 -0.2482  0.1537 -0.3792
11229SOL    HW145746   1.022   5.259   7.299 -0.7914 -0.1838  0.8195
11229SOL    HW245747   1.184   5.242   7.303 -0.7914 -0.5772 -0.5954
11230SOL     OW45748   2.284   1.427   5.587  0.2166  0.3873 -0.4005
11230SOL    HW145749   2.301   1.407   5.490 -0.5022 -0.8657 -0.2722
11230SOL    HW245750   2.215   1.499   5.594  1.6703  1.8538 -0.8362
11231SOL     OW45751   9.389   8.021   3.736 -0.0381 -0.0825 -0.8266
11231SOL    HW145752   9.312   8.058   3.788  0.3992  0.3703 -0.5011
11231SOL    HW245753   9.475   8.051   3.777  0.3225 -1.8689 -0.2830
11232SOL     OW45754   5.560   7.632   2.722  0.2637  0.6414  0.0607
11232SOL    HW145755   5.655   7.663   2.711 -0.2251  2.3091  0.3426
11232SOL    HW245756   5.510   7.647   2.636  0.1771  0.0224  0.0005
11233SOL     OW45757   9.041   1.169   4.099  0.2595  0.0659  0.2247
11233SOL    HW145758   8.955   1.147   4.144 -0.0458  0.7074 -0.0339
11233SOL    HW245759   9.029   1.161   4.000  0.0591  1.6424  0.1096
11234SOL     OW45760   2.240   2.815   3.328  0.1011 -0.0687 -0.0574
11234SOL    HW145761   2.253   2.889   3.394  0.3772  1.3691 -1.6962
11234SOL    HW245762   2.166   2.755   3.359  0.1660  0.6420  1.5006
11235SOL     OW45763   8.511   2.243   8.634  0.0067  0.3721  0.3287
11235SOL    HW145764   8.437   2.203   8.579  1.4231  1.3068 -2.3664
11235SOL    HW245765   8.597   2.197   8.612  1.1530  2.8850 -0.6699
11236SOL     OW45766   1.100   9.770   0.780 -0.0375  0.4251  0.5792
11236SOL    HW145767   1.160   9.705   0.734 -0.8964 -1.1589  1.6327
11236SOL    HW245768   1.155   9.835   0.832  0.8532  0.9155 -0.9499
11237SOL     OW45769   0.279   5.085   1.851  0.1340  0.2897  0.1275
11237SOL    HW145770   0.280   5.016   1.923  0.4590  1.9236  1.7422
11237SOL    HW245771   0.237   5.048   1.768 -0.7839 -1.4313  1.3499
11238SOL     OW45772   1.437   6.118   8.125 -0.1694 -0.4420  0.6123
11238SOL    HW145773   1.449   6.126   8.026 -0.7467  1.4806  0.6746
11238SOL    HW245774   1.519   6.078   8.165  0.3566 -0.5768 -0.5685
11239SOL     OW45775   0.084   8.785   3.340  0.0092  0.5276 -0.2826
11239SOL    HW145776   0.027   8.756   3.416 -0.8014  0.7341 -0.8125
11239SOL    HW245777   0.061   8.731   3.259  2.7578 -1.6244  0.2855
11240SOL     OW45778   8.639   2.492   2.596 -0.3823 -0.1801 -0.1657
11240SOL    HW145779   8.641   2.394   2.613  0.2015  0.0422  1.1056
11240SOL    HW245780   8.690   2.513   2.512  0.5017 -0.8465  0.1971
11241SOL     OW45781   6.657   0.411   6.267 -0.9755 -0.5631 -0.0407
11241SOL    HW145782   6.703   0.500   6.263 -1.9152 -0.0951 -0.5820
11241SOL    HW245783   6.722   0.339   6.243 -0.3198  0.0097 -0.0114
11242SOL     OW45784   5.189   8.016   5.421  0.4541 -0.1007  0.1151
11242SOL    HW145785   5.116   8.006   5.489 -0.7477  0.6260 -1.0514
11242SOL    HW245786   5.169   7.959   5.342  0.6903  0.7815 -0.5870
11243SOL     OW45787   3.295   6.625   7.723  0.3853 -0.2818 -0.2043
11243SOL    HW145788   3.326   6.551   7.782  0.5263 -1.3628 -1.6149
11243SOL    HW245789   3.301   6.712   7.772 -1.4976 -1.3989  2.0656
11244SOL     OW45790   1.614   1.826   9.910 -0.0965  0.1457  0.4478
11244SOL    HW145791   1.695   1.778   9.945 -0.2140  0.5136  1.2346
11244SOL    HW245792   1.549   1.838   9.984 -0.5024  0.6291  0.0099
11245SOL     OW45793   3.293   9.181   8.243 -0.0884  0.0870  0.3477
11245SOL    HW145794   3.377   9.235   8.254  0.0386 -0.1533  0.5692
11245SOL    HW245795   3.306   9.113   8.171  0.3765 -0.8571  1.3119
11246SOL     OW45796   2.459   3.074   0.034 -0.3616  0.0182  0.7002
11246SOL    HW145797   2.491   3.062   0.128  1.2159  0.0924  0.1915
11246SOL    HW245798   2.537   3.098  -0.025 -1.3991  0.3875 -0.5456
11247SOL     OW45799   5.055   4.685   7.299 -0.1789 -0.1843 -0.7274
11247SOL    HW145800   5.147   4.686   7.260  0.0819 -3.4854 -0.2915
11247SOL    HW245801   5.002   4.611   7.259 -2.1965  0.7578  0.1142
11248SOL     OW45802   6.857   8.879   5.694  0.0542  0.3673  0.2170
11248SOL    HW145803   6.871   8.861   5.792 -0.1223 -1.9671 -0.1562
11248SOL    HW245804   6.897   8.967   5.670  0.0704  0.9775  2.4057
11249SOL     OW45805   2.545   4.286   0.514  0.0580  0.2374 -0.4678
11249SOL    HW145806   2.595   4.367   0.543 -1.1603  1.2925 -1.2212
11249SOL    HW245807   2.553   4.214   0.583 -0.2140  1.5898  0.9935
11250SOL     OW45808   3.642   6.933   3.404 -0.1756  0.1830 -0.7224
11250SOL    HW145809   3.575   6.860   3.393 -1.0192  1.0920 -1.7420
11250SOL    HW245810   3.630   6.976   3.493  0.5550 -1.1329  0.0296
11251SOL     OW45811   5.120   5.976   9.205  0.0136  0.0740  0.1445
11251SOL    HW145812   5.032   5.945   9.241  0.3308 -0.4863  0.4464
11251SOL    HW245813   5.105   6.040   9.130 -0.6530  1.0311  1.0980
11252SOL     OW45814   3.581   8.137   3.324  0.3847  0.2482  0.6547
11252SOL    HW145815   3.503   8.159   3.382 -0.5350  0.3714 -0.6005
11252SOL    HW245816   3.582   8.198   3.245  0.3616 -1.3120 -0.5739
11253SOL     OW45817   3.839   1.122   5.039  0.3171 -0.1845  0.1616
11253SOL    HW145818   3.788   1.109   4.954  0.7675  0.2857 -0.1824
11253SOL    HW245819   3.791   1.187   5.098 -1.0818 -2.0916  1.1724
11254SOL     OW45820   4.093   1.754   7.052  0.3722  0.2284 -0.3675
11254SOL    HW145821   4.136   1.689   6.990 -1.0641 -0.2776 -0.8504
11254SOL    HW245822   4.143   1.841   7.049  0.4762  0.1287 -2.0315
11255SOL     OW45823   0.741   1.723   9.914  0.2439  0.4179 -0.3931
11255SOL    HW145824   0.681   1.669   9.973  1.4278 -1.1802 -0.5990
11255SOL    HW245825   0.742   1.818   9.944 -2.2640  0.4421 -0.3025
11256SOL     OW45826   3.172   7.252   4.072  0.3180  0.1271 -0.5931
11256SOL    HW145827   3.087   7.303   4.085 -0.7896 -0.8647 -3.3351
11256SOL    HW245828   3.249   7.315   4.068 -0.6719  1.3418 -1.0724
11257SOL     OW45829   8.914   0.892   3.248  0.9042  0.6206 -0.2416
11257SOL    HW145830   8.849   0.874   3.174  0.0655 -0.7246  0.7984
11257SOL    HW245831   9.005   0.865   3.219  0.8820  1.7965 -1.4370
11258SOL     OW45832   0.039   2.552   1.338 -0.0520 -0.1828  0.3321
11258SOL    HW145833  -0.048   2.507   1.320 -0.4658  0.4131  0.8357
11258SOL    HW245834   0.023   2.647   1.364  0.7752  0.0665 -0.0507
11259SOL     OW45835   9.889   4.047   5.022 -0.0015 -0.0621 -0.2715
11259SOL    HW145836   9.903   3.995   4.937  0.9771 -0.0652 -0.1160
11259SOL    HW245837   9.845   3.989   5.090  1.2377 -0.7603 -0.0399
11260SOL     OW45838   9.565   8.757   7.369 -0.2130  0.4532 -0.1782
11260SOL    HW145839   9.575   8.847   7.411  0.3090  0.6097 -0.6314
11260SOL    HW245840   9.514   8.765   7.284  0.1118  0.3671 -0.3825
11261SOL     OW45841   4.187   7.039   9.137 -0.2341  1.2643 -0.6517
11261SOL    HW145842   4.227   6.983   9.065 -2.6298  0.1163 -1.1466
11261SOL    HW245843   4.137   7.116   9.096 -1.5553  0.6382 -0.2503
11262SOL     OW45844   3.824   6.850   5.225  0.0344 -0.3463 -0.1506
11262SOL    HW145845   3.778   6.774   5.180  0.5285 -0.2827 -0.7616
11262SOL    HW245846   3.824   6.930   5.165 -1.5292  0.5064  0.9518
11263SOL     OW45847   2.769   2.024   0.837 -0.5489 -0.2378 -0.0433
11263SOL    HW145848   2.839   2.047   0.904  0.0054 -0.2334 -0.6106
11263SOL    HW245849   2.678   2.033   0.877 -0.2763  1.3025  0.2240
11264SOL     OW45850   8.691   4.439   4.553  0.6793  0.4243 -0.4323
11264SOL    HW145851   8.787   4.465   4.541  0.5130  2.0300  1.4557
11264SOL    HW245852   8.635   4.487   4.485  0.8907  1.6817  0.2711
11265SOL     OW45853   0.704   5.387   1.201 -0.2914 -0.0382 -0.3340
11265SOL    HW145854   0.695   5.359   1.105  2.1358  1.2545 -0.9780
11265SOL    HW245855   0.800   5.381   1.228 -0.4452  2.8651  0.9818
11266SOL     OW45856   7.823   6.670   8.286  0.1231  0.3234  0.3295
11266SOL    HW145857   7.806   6.766   8.262 -0.8342  0.2599  0.7302
11266SOL    HW245858   7.799   6.655   8.382 -3.1588 -1.1219 -0.6347
11267SOL     OW45859   0.293   7.056   3.005 -0.0554 -0.0567  0.5658
11267SOL    HW145860   0.197   7.063   3.035 -0.6771  0.0162 -1.3391
11267SOL    HW245861   0.318   7.141   2.957  0.8177 -0.2596  0.6669
11268SOL     OW45862   0.572   8.164   1.543  0.2131 -0.0533  0.5328
11268SOL    HW145863   0.653   8.182   1.488 -0.8460  0.0475 -1.0360
11268SOL    HW245864   0.543   8.070   1.530  0.4607 -0.2835  1.6140
11269SOL     OW45865   8.701   0.464   1.260 -0.9716  0.5743  0.1267
11269SOL    HW145866   8.725   0.395   1.192 -0.7114  0.9927 -0.2109
11269SOL    HW245867   8.738   0.552   1.232 -1.4720  0.8897  0.4612
11270SOL     OW45868   2.795   4.239   3.853  0.4583  0.1023  0.7029
11270SOL    HW145869   2.733   4.312   3.824  0.4546 -0.0790  0.2468
11270SOL    HW245870   2.777   4.157   3.799 -1.1986 -0.9955  2.8572
11271SOL     OW45871   8.513   5.669  10.001 -0.0677 -0.2544  0.0777
11271SOL    HW145872   8.594   5.678  10.059 -0.2894  2.2090  0.0297
11271SOL    HW245873   8.436   5.717  10.043 -0.7329 -0.0922 -1.3039
11272SOL     OW45874   1.242   6.005   7.122 -0.0084 -0.1965  0.9600
11272SOL    HW145875   1.252   6.015   7.221 -3.2420  1.2160  1.1918
11272SOL    HW245876   1.170   5.939   7.102  0.2618 -0.0800 -0.4325
11273SOL     OW45877   1.240   5.829   4.248  0.3095  0.5823 -0.2513
11273SOL    HW145878   1.218   5.771   4.327 -1.9023  1.0724 -0.4662
11273SOL    HW245879   1.284   5.773   4.177 -2.4964 -1.0968 -0.7734
11274SOL     OW45880   1.943   1.881   2.239  0.3177  0.2198 -0.1104
11274SOL    HW145881   2.022   1.833   2.201  0.1143  1.0655 -1.6369
11274SOL    HW245882   1.967   1.920   2.327  1.4675  0.0643 -0.3440
11275SOL     OW45883   7.242   9.314   1.766 -0.1528 -0.3179 -0.0141
11275SOL    HW145884   7.185   9.358   1.696  0.0885 -0.8486 -0.5454
11275SOL    HW245885   7.189   9.242   1.810 -0.0440 -0.5131 -0.1994
11276SOL     OW45886   5.291   8.437   6.084  0.0035  0.4574 -0.1783
11276SOL    HW145887   5.390   8.426   6.075 -0.2691 -1.9152 -0.5129
11276SOL    HW245888   5.246   8.396   6.005 -1.2654  1.2464  0.1342
11277SOL     OW45889   7.407   4.026   1.199  0.0054 -0.8660  0.4797
11277SOL    HW145890   7.497   3.998   1.167 -0.0858  0.2530 -0.7660
11277SOL    HW245891   7.338   4.004   1.130 -0.1857  1.5914 -0.1606
11278SOL     OW45892   3.856   3.029   4.893 -0.5355 -0.4992 -0.0620
11278SOL    HW145893   3.838   3.100   4.960 -0.3513  0.6932 -1.2636
11278SOL    HW245894   3.769   2.997   4.855 -0.7410 -2.1678  1.7237
11279SOL     OW45895   8.277   2.047   4.348 -0.4256  0.4349  0.0122
11279SOL    HW145896   8.263   2.012   4.256  0.3330  0.2216 -0.0228
11279SOL    HW245897   8.201   2.019   4.406 -1.5818  1.6833 -0.8612
11280SOL     OW45898   6.738   2.558   1.332  0.2162 -0.0774 -0.4185
11280SOL    HW145899   6.760   2.641   1.280 -1.5138 -0.2014 -1.3847
11280SOL    HW245900   6.802   2.548   1.408  1.9467  0.8382 -1.7279
11281SOL     OW45901   7.457   8.523   2.749  0.0012 -0.8459  0.0224
11281SOL    HW145902   7.556   8.534   2.737  0.2907 -0.3385  2.4577
11281SOL    HW245903   7.416   8.492   2.664  1.6446  2.9202 -2.2209
11282SOL     OW45904   3.528   7.088   2.794  0.9572  0.0348  0.4964
11282SOL    HW145905   3.613   7.050   2.756  1.4850  1.4670  0.2203
11282SOL    HW245906   3.463   7.014   2.809  1.3104 -0.7704 -1.7106
11283SOL     OW45907   3.027   0.176   2.231  0.2343  0.0752  0.3254
11283SOL    HW145908   2.968   0.102   2.197  0.8528 -0.5794  0.6518
11283SOL    HW245909   2.988   0.215   2.314  1.7378 -2.3930  2.2875
11284SOL     OW45910   9.393   5.682   9.331  0.5820  0.0197  0.3894
11284SOL    HW145911   9.448   5.664   9.412  0.5847 -0.1939  0.3398
11284SOL    HW245912   9.300   5.708   9.359  1.0563  1.6534  0.5163
11285SOL     OW45913   3.511   6.184   3.434 -0.0853 -0.3032  0.1427
11285SOL    HW145914   3.426   6.231   3.414 -1.1127 -2.2886 -0.2413
11285SOL    HW245915   3.523   6.176   3.533 -0.7867 -0.7909  0.1895
11286SOL     OW45916   9.518   7.190   4.854  0.4105 -0.5255 -0.9763
11286SOL    HW145917   9.445   7.253   4.881  0.5422 -0.1423 -1.5141
11286SOL    HW245918   9.504   7.102   4.900  1.8470  0.7669  2.0949
11287SOL     OW45919   2.090   0.007   6.019  0.2860 -0.9190 -0.2407
11287SOL    HW145920   2.016   0.068   5.991  0.0951 -1.3297 -0.6345
11287SOL    HW245921   2.143   0.050   6.092  0.5312 -0.0155 -0.9371
11288SOL     OW45922   0.629   5.477   3.883 -0.1549 -0.2207  0.3381
11288SOL    HW145923   0.624   5.490   3.784 -0.4012 -0.2357  0.3479
11288SOL    HW245924   0.638   5.379   3.903  3.0925  0.0124  0.2114
11289SOL     OW45925   4.825   2.606   1.598  0.3837 -0.4253 -0.0094
11289SOL    HW145926   4.833   2.509   1.578  0.7402 -0.8528  2.1131
11289SOL    HW245927   4.916   2.645   1.612  0.2418  0.2278 -0.8482
11290SOL     OW45928   1.387   3.791   5.653 -0.5143  0.2149 -0.1506
11290SOL    HW145929   1.387   3.794   5.752 -0.6778  0.2454 -0.1509
11290SOL    HW245930   1.293   3.794   5.619 -0.3970  2.1968 -0.3744
11291SOL     OW45931   3.881   9.556   1.825 -0.0641  0.1954  0.0813
11291SOL    HW145932   3.784   9.577   1.812 -0.1685  0.5921  1.3877
11291SOL    HW245933   3.896   9.525   1.919  0.6198 -2.6334 -0.8984
11292SOL     OW45934   7.030   2.567   3.142  0.0791 -0.0528 -0.0207
11292SOL    HW145935   6.977   2.494   3.099 -0.8022  0.0171  0.9239
11292SOL    HW245936   7.016   2.653   3.092  1.9614 -0.7343 -1.7745
11293SOL     OW45937   3.791   3.968   9.306 -0.4154 -0.5501 -0.8982
11293SOL    HW145938   3.837   3.893   9.352  0.2288  1.2906  1.5477
11293SOL    HW245939   3.694   3.945   9.294 -0.7276 -0.9063  1.8717
11294SOL     OW45940   0.113   9.552   6.388  0.2873 -0.1282  0.0187
11294SOL    HW145941   0.212   9.534   6.388  0.4621  0.6233 -2.5565
11294SOL    HW245942   0.076   9.529   6.298 -1.9626 -0.7191  1.0775
11295SOL     OW45943   4.285   4.738   8.799 -1.2393  0.2477 -0.3942
11295SOL    HW145944   4.249   4.767   8.711 -0.3054 -0.2496 -0.9504
11295SOL    HW245945   4.365   4.794   8.822  0.2798 -1.5326 -1.2417
11296SOL     OW45946   9.772   7.560   4.582 -0.3909 -0.3372  0.1282
11296SOL    HW145947   9.794   7.514   4.668 -0.9066  0.6540  0.7961
11296SOL    HW245948   9.834   7.637   4.568  0.4707 -1.2173 -0.9897
11297SOL     OW45949   4.289   7.953   0.152 -0.4076 -0.1631  0.2925
11297SOL    HW145950   4.377   8.001   0.146 -0.4104 -0.3365 -1.3102
11297SOL    HW245951   4.301   7.857   0.128 -0.8394 -0.4520  1.1950
11298SOL     OW45952   8.667   3.781   6.435 -0.1398  0.0160  0.5290
11298SOL    HW145953   8.746   3.748   6.383  1.3781  1.5764  1.7600
11298SOL    HW245954   8.678   3.880   6.451 -0.8686 -0.3245  3.2772
11299SOL     OW45955   1.642   0.499   4.610  0.0165  0.4706 -0.5728
11299SOL    HW145956   1.688   0.532   4.693 -0.3025  1.6562 -0.8464
11299SOL    HW245957   1.674   0.552   4.532  0.9585 -1.2175 -1.3523
11300SOL     OW45958   0.352   6.610   8.540  0.6917 -0.5710 -0.1762
11300SOL    HW145959   0.324   6.692   8.590  0.7514 -1.0408  0.6181
11300SOL    HW245960   0.346   6.629   8.441  1.0445  0.5025 -0.0000
11301SOL     OW45961   1.700   7.932   9.343  0.2221  0.0393  0.3520
11301SOL    HW145962   1.709   7.841   9.383  0.1752  0.2090  0.7474
11301SOL    HW245963   1.603   7.952   9.327  0.1024  0.6925  1.8286
11302SOL     OW45964   5.919   4.379   7.940 -0.0176 -0.3665 -0.1681
11302SOL    HW145965   5.913   4.459   7.882  0.5155 -0.2730 -0.1012
11302SOL    HW245966   5.985   4.314   7.901 -0.2062 -0.6281 -0.0563
11303SOL     OW45967   2.306   3.415   2.084  0.2697 -0.0946 -0.8717
11303SOL    HW145968   2.213   3.395   2.051 -0.0451 -1.0758  0.5956
11303SOL    HW245969   2.371   3.358   2.035 -0.3237 -2.5043  1.0914
11304SOL     OW45970   0.081   9.698   2.241  0.7243  0.0376 -0.5819
11304SOL    HW145971   0.103   9.605   2.270 -0.9887 -0.6496 -1.3748
11304SOL    HW245972  -0.014   9.719   2.267  1.1207  1.5795 -0.3537
11305SOL     OW45973   2.027   3.228   1.409  0.3543  0.2718  0.2671
11305SOL    HW145974   2.065   3.202   1.321  2.0135  1.7809  0.5018
11305SOL    HW245975   2.094   3.210   1.481  0.3218  2.1463  0.7948
11306SOL     OW45976   2.790   0.610   9.113 -0.4796  0.0293 -0.3476
11306SOL    HW145977   2.820   0.606   9.209 -1.6676 -0.5916  0.0084
11306SOL    HW245978   2.691   0.594   9.108 -0.9093  2.7234 -1.4311
11307SOL     OW45979   5.350   6.714  10.085  0.6911  0.2983 -0.1512
11307SOL    HW145980   5.287   6.639  10.107  0.4084  0.4737 -0.3641
11307SOL    HW245981   5.374   6.710   9.988  0.7924  0.3951 -0.1301
11308SOL     OW45982   9.803   3.553   8.592 -0.1483 -0.6219 -0.4027
11308SOL    HW145983   9.723   3.510   8.634  0.3336  0.3003  1.5138
11308SOL    HW245984   9.856   3.484   8.543 -0.4571 -1.8198  0.9285
11309SOL     OW45985   6.503   8.460   2.683 -0.4986 -0.3696  0.2508
11309SOL    HW145986   6.587   8.514   2.684 -0.6362 -0.1449  2.6681
11309SOL    HW245987   6.501   8.404   2.600  1.5294  0.3941 -0.3554
11310SOL     OW45988   6.984   2.305   3.060  0.1262  0.2367  0.3364
11310SOL    HW145989   6.960   2.277   3.153  0.7651  0.7325  0.6550
11310SOL    HW245990   7.066   2.256   3.031  0.4658  0.7639  0.3904
11311SOL     OW45991   0.906   4.141   3.641 -0.3234 -0.2224  0.4937
11311SOL    HW145992   0.931   4.112   3.548 -0.8418  0.9774 -0.0236
11311SOL    HW245993   0.950   4.080   3.707  0.1053 -1.0494 -0.5296
11312SOL     OW45994   4.061   9.571   9.636 -0.0296 -0.1853  0.3737
11312SOL    HW145995   3.983   9.579   9.697  1.1076  2.7169  1.5379
11312SOL    HW245996   4.043   9.623   9.552  1.1327  1.6524  1.2237
11313SOL     OW45997   9.844   0.632   5.440 -0.0621 -0.5219 -0.6379
11313SOL    HW145998   9.857   0.537   5.411 -1.7191 -0.4666 -1.6201
11313SOL    HW245999   9.873   0.642   5.535 -2.2733 -2.6082  0.2951
11314SOL     OW46000   4.963   6.422   9.013 -0.1546 -0.0158 -0.3420
11314SOL    HW146001   4.903   6.395   9.088  1.0050  1.4506  1.1468
11314SOL    HW246002   4.909   6.470   8.943 -1.2605 -1.4973 -0.5226
11315SOL     OW46003   7.063   5.561   2.714  0.3021 -0.5250 -0.0989
11315SOL    HW146004   7.044   5.578   2.618  1.1318  1.6279  0.0802
11315SOL    HW246005   7.159   5.535   2.725  0.9316  1.8825  0.3962
11316SOL     OW46006   8.965   3.319   3.623  0.3044 -0.1418  0.3821
11316SOL    HW146007   8.946   3.416   3.640  0.0882 -0.1177  0.0277
11316SOL    HW246008   9.061   3.308   3.598 -0.0333  0.2038 -1.1189
11317SOL     OW46009   3.328   9.998   2.614  0.2675  0.0159 -0.5537
11317SOL    HW146010   3.292  10.053   2.538 -0.7675 -0.3542 -0.3463
11317SOL    HW246011   3.255   9.938   2.649  0.7001  0.2762  0.8175
11318SOL     OW46012   7.499   2.283   0.470 -0.2313 -0.3628 -0.2366
11318SOL    HW146013   7.423   2.343   0.444 -0.2864 -0.5630 -0.5353
11318SOL    HW246014   7.584   2.336   0.471 -0.5190  0.0800  1.0255
11319SOL     OW46015   2.853   4.721   3.605  0.0808  0.0799 -0.1513
11319SOL    HW146016   2.944   4.718   3.563  0.6737 -2.5451  1.2469
11319SOL    HW246017   2.862   4.712   3.704 -1.6160  1.6930  0.1681
11320SOL     OW46018   5.814   2.565   8.758 -0.5490  0.6767 -0.1249
11320SOL    HW146019   5.781   2.628   8.828 -1.3845  1.1427 -0.9244
11320SOL    HW246020   5.740   2.545   8.694 -0.2975 -1.1104  0.1019
11321SOL     OW46021   1.119   6.107   5.236  0.1767  0.2989 -0.3399
11321SOL    HW146022   1.116   6.143   5.143  1.7511  0.3701 -0.3779
11321SOL    HW246023   1.172   6.169   5.294 -0.1064 -0.1600  0.4187
11322SOL     OW46024   1.626   7.638   1.088  0.0069  0.0224 -0.3555
11322SOL    HW146025   1.691   7.600   1.023 -1.9356 -0.5007 -2.0364
11322SOL    HW246026   1.617   7.576   1.166 -1.8102 -2.1894 -2.2388
11323SOL     OW46027   1.088   4.280   4.472  0.1445 -0.0841 -0.0717
11323SOL    HW146028   1.182   4.247   4.480  0.7371  0.6924 -3.0351
11323SOL    HW246029   1.025   4.203   4.478  1.0947 -0.8582  0.1328
11324SOL     OW46030   4.983   3.875   9.910  0.4370  0.0812  0.1198
11324SOL    HW146031   5.041   3.956   9.915  0.7083 -0.1568  0.7818
11324SOL    HW246032   4.900   3.896   9.858  0.8105  0.5992 -0.2677
11325SOL     OW46033   0.738   3.894   5.095 -0.0340 -0.5656  1.0398
11325SOL    HW146034   0.681   3.943   5.160 -1.0767 -0.0786 -0.2079
11325SOL    HW246035   0.681   3.865   5.017  1.4211 -0.0644 -0.2307
11326SOL     OW46036   8.427   7.202   3.560  0.0315  0.3923 -0.2149
11326SOL    HW146037   8.357   7.226   3.493  1.0044 -0.1501 -1.4486
11326SOL    HW246038   8.486   7.131   3.522  1.3041  0.9145  0.7569
11327SOL     OW46039   2.280   5.207   9.301 -0.0869  0.0183  1.2021
11327SOL    HW146040   2.376   5.179   9.301 -0.3322 -0.8762 -0.0793
11327SOL    HW246041   2.274   5.307   9.292  0.7143 -0.0763 -0.7361
11328SOL     OW46042   2.291   2.557   1.728  0.2003 -0.0397 -0.0242
11328SOL    HW146043   2.371   2.516   1.685  0.7202  0.8657  0.0729
11328SOL    HW246044   2.262   2.500   1.805  0.5285 -0.5609 -0.2803
11329SOL     OW46045   6.851   0.737   4.047 -0.1820  0.2134  0.1301
11329SOL    HW146046   6.893   0.674   4.112  0.0245 -0.4420 -0.6323
11329SOL    HW246047   6.912   0.814   4.031 -0.4811  0.6792  1.1496
11330SOL     OW46048   0.386   4.032   4.663 -0.1612  0.9311 -0.2202
11330SOL    HW146049   0.367   3.955   4.603 -0.1353  1.3178 -0.7248
11330SOL    HW246050   0.455   4.006   4.730 -0.1783  0.5069 -0.3664
11331SOL     OW46051   8.353   0.221   8.765 -0.1825  0.0689 -0.7721
11331SOL    HW146052   8.399   0.160   8.829 -0.5067  0.1238 -0.4889
11331SOL    HW246053   8.404   0.222   8.678  0.3176  0.0915 -0.4804
11332SOL     OW46054   7.107   9.431   1.554 -0.2882 -0.5007  0.0189
11332SOL    HW146055   7.083   9.354   1.495 -1.3358  0.0248 -0.2455
11332SOL    HW246056   7.100   9.516   1.501  0.8410 -0.2149  0.3121
11333SOL     OW46057   3.161   8.389   3.870  0.2226 -0.0187 -0.6861
11333SOL    HW146058   3.082   8.341   3.831 -0.1506 -1.3694  1.6219
11333SOL    HW246059   3.245   8.348   3.835 -0.1072 -0.8564 -0.5279
11334SOL     OW46060   0.501   4.297   8.016  0.5500 -0.2587  0.3198
11334SOL    HW146061   0.470   4.392   8.025  0.2432 -0.3439  0.1725
11334SOL    HW246062   0.504   4.255   8.107 -2.1938 -0.9988  0.1060
11335SOL     OW46063   1.758   4.612   8.607  0.6766 -0.0795  0.2692
11335SOL    HW146064   1.803   4.670   8.674  0.2629  0.2575  0.2600
11335SOL    HW246065   1.674   4.574   8.646  1.1583 -1.0092  0.4175
11336SOL     OW46066   8.902   6.163   4.825 -0.8755  0.0299  0.6433
11336SOL    HW146067   8.969   6.213   4.881  0.3297 -0.1626 -0.5849
11336SOL    HW246068   8.820   6.146   4.878  0.2080 -0.0610  2.3184
11337SOL     OW46069   8.121   5.966   4.630  0.5937 -0.3005  0.0135
11337SOL    HW146070   8.160   5.885   4.673 -0.1378 -0.3608  0.5785
11337SOL    HW246071   8.112   6.039   4.698 -0.0821 -0.2216 -0.1555
11338SOL     OW46072   5.713   7.938   3.296 -0.2041 -0.4830  0.0561
11338SOL    HW146073   5.795   7.971   3.249  0.8783 -0.3340  2.0061
11338SOL    HW246074   5.691   7.845   3.264  1.2566 -0.8808  0.1773
11339SOL     OW46075   2.424   6.986   7.319 -0.0645 -0.0782  0.0744
11339SOL    HW146076   2.324   6.980   7.316 -0.1785  1.3287  0.6795
11339SOL    HW246077   2.457   6.941   7.401 -0.2892  0.3154  0.3872
11340SOL     OW46078   0.973   6.449   3.411  0.2407  0.0743  0.1061
11340SOL    HW146079   0.911   6.383   3.453 -1.9770  2.8079  1.3183
11340SOL    HW246080   1.007   6.413   3.324 -0.2012 -2.9763  1.1398
11341SOL     OW46081   8.223   2.307   7.896 -0.0136  0.4937 -0.1950
11341SOL    HW146082   8.317   2.274   7.896 -1.3242 -3.4585  0.7267
11341SOL    HW246083   8.204   2.355   7.982  0.5155 -0.6624  0.5737
11342SOL     OW46084   4.684   0.502   5.786  0.7599 -0.1051  0.2802
11342SOL    HW146085   4.712   0.466   5.875  1.0085 -0.1463  0.1876
11342SOL    HW246086   4.700   0.600   5.782 -0.1104  0.0519  0.6058
11343SOL     OW46087   1.629   5.897   8.033 -0.2520 -0.3777 -0.1026
11343SOL    HW146088   1.716   5.847   8.029 -0.1230 -0.3586  1.9684
11343SOL    HW246089   1.556   5.834   8.061 -0.4229  0.2033  0.7569
11344SOL     OW46090   7.571   9.581   7.418  0.2523  0.7414 -0.1292
11344SOL    HW146091   7.663   9.618   7.411  0.9515 -1.1668 -1.6372
11344SOL    HW246092   7.567   9.514   7.492  0.0649  0.8515 -0.0392
11345SOL     OW46093   9.643   0.382   5.263 -0.2712 -0.4256  0.0622
11345SOL    HW146094   9.643   0.469   5.214  2.3445 -1.3405 -1.6842
11345SOL    HW246095   9.572   0.383   5.334 -0.8545  2.7721 -0.5042
11346SOL     OW46096   5.352   4.655   1.616 -0.2570  0.2849 -0.4488
11346SOL    HW146097   5.340   4.682   1.520 -3.8904  0.5299  0.0202
11346SOL    HW246098   5.414   4.719   1.661  1.9853 -0.2008 -2.7733
11347SOL     OW46099   5.076   7.369   5.522 -0.2399  0.2490  0.3782
11347SOL    HW146100   5.006   7.346   5.455 -0.9853  1.8800  0.5787
11347SOL    HW246101   5.116   7.458   5.499  1.2183 -0.3062  0.7167
11348SOL     OW46102   2.430   2.946   6.301  0.4420 -0.6291 -0.4563
11348SOL    HW146103   2.458   3.021   6.242 -1.2773  0.5642  0.2136
11348SOL    HW246104   2.362   2.890   6.254  0.0136 -0.4160 -0.0954
11349SOL     OW46105   1.647   3.626   5.132  0.3900  0.8085  0.6796
11349SOL    HW146106   1.552   3.631   5.163  0.3718  1.1682  0.5674
11349SOL    HW246107   1.650   3.623   5.032  0.4678  0.0624  0.6994
11350SOL     OW46108   6.224   4.225   1.630  0.1220 -0.5327 -0.0476
11350SOL    HW146109   6.132   4.264   1.636  0.4196 -0.0984  2.2824
11350SOL    HW246110   6.269   4.258   1.546  0.3564  4.2394  1.7886
11351SOL     OW46111   1.681   1.720   5.847  0.3493 -0.2886  0.4236
11351SOL    HW146112   1.672   1.808   5.893  1.4748  1.7120 -2.9726
11351SOL    HW246113   1.595   1.697   5.801  0.5678 -0.1786 -0.0381
11352SOL     OW46114   8.743   7.007   4.649  0.4405  0.4779  0.4416
11352SOL    HW146115   8.798   6.979   4.570  0.5797 -0.6741  0.9398
11352SOL    HW246116   8.703   7.097   4.632  0.4406  0.2154 -0.9552
11353SOL     OW46117   8.713   3.477   9.711 -0.3191 -0.4019  0.6366
11353SOL    HW146118   8.803   3.472   9.754 -0.5038 -1.1179  0.9470
11353SOL    HW246119   8.643   3.452   9.777 -0.5433 -2.3181 -0.2919
11354SOL     OW46120   2.733   3.536   5.780  0.0111 -0.3614  0.1998
11354SOL    HW146121   2.699   3.601   5.712  0.1420 -0.7343 -0.2228
11354SOL    HW246122   2.825   3.507   5.755  0.6548  0.6438  1.3352
11355SOL     OW46123   9.458   1.298   2.793 -0.4320 -0.0846 -1.0966
11355SOL    HW146124   9.362   1.305   2.818 -0.6308  0.8724 -2.0969
11355SOL    HW246125   9.466   1.284   2.694  0.3977 -1.9972 -0.7828
11356SOL     OW46126   8.608   9.069   8.494 -0.8208  0.1416 -0.1768
11356SOL    HW146127   8.586   9.166   8.488  2.9242  1.0625 -0.4249
11356SOL    HW246128   8.688   9.049   8.436 -0.8944 -2.8812  0.6661
11357SOL     OW46129   3.660   0.492   7.723 -0.2016  0.0545  0.0290
11357SOL    HW146130   3.566   0.525   7.723 -0.3507 -0.3679 -0.4072
11357SOL    HW246131   3.682   0.455   7.633  0.4820  0.4430  0.0355
11358SOL     OW46132   7.114   2.137   3.747  0.0582 -0.0159 -0.0778
11358SOL    HW146133   7.022   2.107   3.771 -0.4526  0.7761 -1.0330
11358SOL    HW246134   7.110   2.197   3.667  1.5398 -1.1334 -1.0189
11359SOL     OW46135   0.431   9.224   3.359  0.0059 -0.2353  0.2123
11359SOL    HW146136   0.350   9.276   3.387 -1.1872 -2.1645  0.4000
11359SOL    HW246137   0.449   9.242   3.262 -0.3721  0.5533  0.2784
11360SOL     OW46138   3.426   0.807   0.533 -0.1635 -0.2927  0.1445
11360SOL    HW146139   3.504   0.780   0.476 -1.3222 -0.1718 -1.5164
11360SOL    HW246140   3.399   0.730   0.590  1.3500 -0.2455  0.9525
11361SOL     OW46141   1.926   0.565   3.358  0.4456 -0.3756 -0.1787
11361SOL    HW146142   1.916   0.563   3.258  0.5364  0.9828 -0.2341
11361SOL    HW246143   1.973   0.482   3.389 -1.3236 -1.7317 -1.0556
11362SOL     OW46144   5.336   4.411   2.173 -0.2159 -0.2701 -0.3904
11362SOL    HW146145   5.431   4.391   2.196  0.1883  0.4583 -1.4171
11362SOL    HW246146   5.289   4.447   2.253  0.9177  1.3106 -0.4288
11363SOL     OW46147   7.601   6.049   5.817  0.3071 -0.4272  0.0842
11363SOL    HW146148   7.567   6.011   5.731 -0.4585 -0.7818  0.5414
11363SOL    HW246149   7.529   6.045   5.886  0.5344  0.9225  0.4248
11364SOL     OW46150   4.714   6.688   9.249 -0.4973  0.3976  0.0173
11364SOL    HW146151   4.747   6.671   9.156  1.0990  0.8664  0.4786
11364SOL    HW246152   4.669   6.606   9.284  0.1717 -0.2623 -0.6453
11365SOL     OW46153   3.422   1.282   3.074 -0.6350 -0.4212 -0.2385
11365SOL    HW146154   3.359   1.270   3.150  0.2152  2.2274  0.9337
11365SOL    HW246155   3.488   1.206   3.074 -1.9031 -1.5572  0.3726
11366SOL     OW46156   0.780   8.807   5.384  0.8950 -0.8994 -0.1110
11366SOL    HW146157   0.760   8.711   5.402  0.8946 -0.4219  2.5118
11366SOL    HW246158   0.706   8.864   5.420 -0.9164 -0.0263 -4.7305
11367SOL     OW46159   9.004   3.530   0.465 -0.4088  0.0971 -0.4265
11367SOL    HW146160   9.103   3.541   0.457 -0.3563  0.1760  0.2882
11367SOL    HW246161   8.970   3.588   0.539 -0.8644 -0.5768 -0.1018
11368SOL     OW46162   1.195   7.799   2.888  0.6646 -0.3306  0.8313
11368SOL    HW146163   1.118   7.747   2.851 -0.0078  1.7540 -0.8338
11368SOL    HW246164   1.166   7.849   2.969  0.4956 -0.2534  0.7241
11369SOL     OW46165   5.782   3.509   0.390  0.5234 -0.3803 -0.2536
11369SOL    HW146166   5.696   3.539   0.350 -0.6566 -1.7723  1.1495
11369SOL    HW246167   5.835   3.460   0.322 -0.2851 -0.4395 -0.8508
11370SOL     OW46168   8.041   5.610   8.056  0.5820 -0.0470  0.0002
11370SOL    HW146169   8.022   5.520   8.094 -0.2943  0.7778  1.5967
11370SOL    HW246170   7.954   5.655   8.032  0.8402  1.2462  1.3601
11371SOL     OW46171   1.705   2.750   0.244  0.3424 -0.0283 -0.5608
11371SOL    HW146172   1.624   2.749   0.185 -0.5872 -0.5383  0.6971
11371SOL    HW246173   1.731   2.844   0.263 -1.0978  0.1601  0.5518
11372SOL     OW46174   8.674   7.584   1.722  0.0261  0.0437 -0.0324
11372SOL    HW146175   8.675   7.584   1.622  0.8309 -1.6735 -0.0324
11372SOL    HW246176   8.579   7.585   1.754 -0.2282  1.7682 -0.7900
11373SOL     OW46177   8.555   2.172   7.548 -0.1826  0.3844 -0.0685
11373SOL    HW146178   8.536   2.244   7.615  0.1507 -0.5409  1.0447
11373SOL    HW246179   8.527   2.084   7.586 -0.4916 -0.0865 -1.3824
11374SOL     OW46180   2.157   1.991   9.005 -0.5509  0.2752 -0.6337
11374SOL    HW146181   2.104   2.034   9.078  0.8345 -2.4431  2.1233
11374SOL    HW246182   2.234   2.051   8.980 -0.1432  0.5960  1.2765
11375SOL     OW46183   7.604   7.947   7.111  0.1685 -0.2687  0.0015
11375SOL    HW146184   7.673   7.874   7.115 -0.6673 -1.1322 -1.0944
11375SOL    HW246185   7.541   7.929   7.036 -1.6184  0.1981  1.3518
11376SOL     OW46186   3.144   0.613   9.121 -0.5004 -0.2611  0.1111
11376SOL    HW146187   3.099   0.559   9.192  0.9948 -0.2521  1.0628
11376SOL    HW246188   3.194   0.552   9.059 -0.4656 -0.1257  0.0045
11377SOL     OW46189   3.475   7.181   1.178 -0.2037 -0.0874  0.3624
11377SOL    HW146190   3.498   7.132   1.094  0.2836  0.0244  0.4338
11377SOL    HW246191   3.506   7.129   1.257  0.6527  0.5211  0.4254
11378SOL     OW46192   0.823   1.256   5.207 -0.1745  0.2756  0.1475
11378SOL    HW146193   0.812   1.302   5.120 -0.0348 -0.2663 -0.1586
11378SOL    HW246194   0.781   1.311   5.280 -1.4207  0.1201 -0.4428
11379SOL     OW46195   8.711   2.287   5.730 -0.2417  0.0935  0.6168
11379SOL    HW146196   8.630   2.271   5.787 -0.7903  1.2291  0.1868
11379SOL    HW246197   8.766   2.360   5.772  1.1380 -1.4195  1.4837
11380SOL     OW46198   0.023   3.582   5.557  0.0737 -0.0411 -0.0657
11380SOL    HW146199   0.009   3.519   5.634  1.0688 -0.6759 -0.3904
11380SOL    HW246200   0.017   3.531   5.472  3.1733 -0.1605 -0.2581
11381SOL     OW46201   7.146   5.072   6.750 -0.2284  0.0298 -0.4544
11381SOL    HW146202   7.047   5.079   6.741 -0.1713 -0.4997 -1.4861
11381SOL    HW246203   7.171   4.980   6.780  0.0066 -0.1021 -1.0437
11382SOL     OW46204   0.629   7.207   5.019 -0.2198 -0.2286 -0.3471
11382SOL    HW146205   0.718   7.224   4.976 -0.6785  0.3701 -1.0636
11382SOL    HW246206   0.584   7.131   4.971  0.3265 -1.1948  0.6460
11383SOL     OW46207   1.104   2.507   4.263 -0.0733 -0.3103 -0.3997
11383SOL    HW146208   1.172   2.518   4.190  0.1503  0.9554 -0.0181
11383SOL    HW246209   1.043   2.586   4.263  1.5333  1.0131  2.4271
11384SOL     OW46210   7.194   0.355   2.881 -0.0131  0.2857 -0.4383
11384SOL    HW146211   7.123   0.348   2.950 -1.3914  1.0546 -1.7435
11384SOL    HW246212   7.264   0.419   2.911 -0.1281 -0.0843  0.6287
11385SOL     OW46213   4.504   1.726   4.267  0.0867  0.5979 -0.5162
11385SOL    HW146214   4.414   1.769   4.273  0.2476  0.9460 -0.5761
11385SOL    HW246215   4.540   1.737   4.174 -0.1502 -0.2292 -0.7045
11386SOL     OW46216   0.545   3.864   3.715  0.2594 -0.0426 -0.2113
11386SOL    HW146217   0.465   3.922   3.727  1.9072  2.0641  1.1179
11386SOL    HW246218   0.613   3.887   3.785  2.4559 -1.0121 -1.9695
11387SOL     OW46219   9.680   7.295   5.470  0.6992  0.0889 -0.0956
11387SOL    HW146220   9.653   7.233   5.396  3.0867 -2.4795  1.0797
11387SOL    HW246221   9.637   7.266   5.555 -0.8075  2.1095 -0.1391
11388SOL     OW46222   3.499   7.552   6.364 -0.2751 -0.0542 -0.1660
11388SOL    HW146223   3.550   7.562   6.279 -1.0989  0.3451 -0.6211
11388SOL    HW246224   3.403   7.533   6.343 -0.8415  1.7967  0.6609
11389SOL     OW46225   1.291   6.727   4.378  0.1886 -0.4093  0.0973
11389SOL    HW146226   1.255   6.646   4.331  0.4741 -0.2945 -0.3189
11389SOL    HW246227   1.377   6.703   4.423  0.5902 -0.1763 -0.5458
11390SOL     OW46228   7.860   4.768   4.056  0.2094  0.3649  0.0280
11390SOL    HW146229   7.771   4.812   4.067 -0.4446 -0.3380 -2.1937
11390SOL    HW246230   7.919   4.827   4.002 -0.0073 -0.5835 -1.2637
11391SOL     OW46231   4.549   5.300   2.059 -0.0447  0.0450  0.4199
11391SOL    HW146232   4.456   5.264   2.052 -0.0229 -0.3471  2.1584
11391SOL    HW246233   4.614   5.226   2.048  0.1510  0.5960 -2.8236
11392SOL     OW46234   8.606   7.226   4.518  0.2399  0.2845  0.2322
11392SOL    HW146235   8.585   7.220   4.420 -2.6690 -1.3479  0.9020
11392SOL    HW246236   8.576   7.315   4.553  0.3351  0.4651 -0.1388
11393SOL     OW46237   2.010   6.802   5.883 -0.2670 -0.8996 -0.3722
11393SOL    HW146238   2.021   6.870   5.810 -0.4643 -1.7046 -1.1642
11393SOL    HW246239   2.019   6.846   5.972  0.1215  0.0723 -0.8880
11394SOL     OW46240   9.681   8.662   7.701  0.4541 -0.5850 -0.1070
11394SOL    HW146241   9.728   8.731   7.646  0.2864 -0.4032 -0.0286
11394SOL    HW246242   9.589   8.649   7.666  0.5292 -0.8591 -0.1944
11395SOL     OW46243   6.155   3.298   9.035  0.2214  0.5441 -0.3785
11395SOL    HW146244   6.159   3.200   9.056  0.8361  0.5887 -0.2661
11395SOL    HW246245   6.067   3.320   8.995 -0.1336  0.0453  0.1172
11396SOL     OW46246   4.464   0.643   6.875  0.5304 -0.3052  0.2731
11396SOL    HW146247   4.514   0.617   6.792 -0.7151 -0.3526 -0.4621
11396SOL    HW246248   4.478   0.573   6.945  2.1497  0.0757  0.3478
11397SOL     OW46249   8.319   1.554   5.651  0.2213  0.4009  0.0198
11397SOL    HW146250   8.370   1.473   5.623  0.1747  0.1628  0.6131
11397SOL    HW246251   8.221   1.539   5.632 -0.0038 -0.3574  1.6254
11398SOL     OW46252   8.532   0.807   3.616  0.0104  0.0289  0.1719
11398SOL    HW146253   8.509   0.827   3.711 -0.7508  0.2008 -0.0475
11398SOL    HW246254   8.588   0.725   3.612  2.5879  1.6727  1.0296
11399SOL     OW46255   1.882   6.787   3.524  0.3569  0.1762  0.5007
11399SOL    HW146256   1.867   6.779   3.623 -1.0657 -0.1307  0.2791
11399SOL    HW246257   1.804   6.746   3.476  2.6506 -2.8210 -0.7779
11400SOL     OW46258   3.341   1.303   2.244 -0.6154  0.1180  0.0544
11400SOL    HW146259   3.411   1.236   2.218  2.1900  2.2205  1.8512
11400SOL    HW246260   3.334   1.373   2.173  0.6671  1.0546  0.8341
11401SOL     OW46261   0.555   6.576   9.829 -0.3186 -0.6336 -0.0473
11401SOL    HW146262   0.564   6.670   9.860  2.0927 -0.8165 -0.1010
11401SOL    HW246263   0.513   6.574   9.739  0.5150  0.4608 -0.4673
11402SOL     OW46264   5.859   7.625   3.946  0.2944 -0.2201  0.8317
11402SOL    HW146265   5.885   7.601   3.852 -1.6117  1.5933 -0.2080
11402SOL    HW246266   5.774   7.578   3.970  0.4975 -0.2701  1.4635
11403SOL     OW46267   2.310   8.956   1.821  0.0639 -0.5800  0.5096
11403SOL    HW146268   2.248   8.934   1.746 -0.9332  2.3029  0.4330
11403SOL    HW246269   2.275   8.916   1.905 -0.2065 -1.6240 -0.0814
11404SOL     OW46270   4.202   1.766   4.074  0.2235 -0.0025 -0.3507
11404SOL    HW146271   4.194   1.667   4.081  0.1430 -0.0362 -0.8821
11404SOL    HW246272   4.245   1.803   4.156 -1.4032 -0.2922  0.6327
11405SOL     OW46273   1.085   7.160   3.597  0.2616 -0.1221 -0.2448
11405SOL    HW146274   1.030   7.078   3.609  0.2510  0.0321  0.8558
11405SOL    HW246275   1.142   7.151   3.515  0.2443 -1.2118 -0.1425
11406SOL     OW46276   3.266   9.920   7.529 -0.1818  0.2635  0.4625
11406SOL    HW146277   3.269   9.973   7.444  0.1454  2.0886  1.5641
11406SOL    HW246278   3.191   9.955   7.586 -0.0082 -0.5261  1.1784
11407SOL     OW46279   1.834   6.747   5.495 -0.0907  0.4720 -0.1155
11407SOL    HW146280   1.855   6.805   5.416 -0.4194 -2.2513 -2.2926
11407SOL    HW246281   1.918   6.726   5.544  0.1831  1.8417  0.0212
11408SOL     OW46282   8.184   8.565   4.027  0.5477  0.1722  0.4294
11408SOL    HW146283   8.188   8.498   3.952  2.2934 -0.1259  0.7738
11408SOL    HW246284   8.100   8.551   4.079  0.9933 -1.9084  0.6242
11409SOL     OW46285   0.460   9.468   8.971 -0.0017  0.2271  0.1245
11409SOL    HW146286   0.395   9.463   8.895 -0.7820  0.3044  0.7840
11409SOL    HW246287   0.543   9.416   8.947 -0.4028 -0.0839 -0.6154
11410SOL     OW46288   1.079   1.387   4.348 -0.1511  0.1764 -0.0223
11410SOL    HW146289   1.173   1.372   4.318  0.7629  1.5588  2.0424
11410SOL    HW246290   1.058   1.325   4.424 -0.8516  0.0348 -0.3269
11411SOL     OW46291   2.554   0.914   9.716  0.0720 -0.5199  0.2034
11411SOL    HW146292   2.495   0.994   9.718  2.2409  1.1688 -0.5133
11411SOL    HW246293   2.650   0.944   9.720  0.9900 -2.9406 -2.2649
11412SOL     OW46294   4.564   3.716   0.596 -0.7242 -0.3096  0.5827
11412SOL    HW146295   4.560   3.665   0.682  1.4329 -2.0129 -0.2714
11412SOL    HW246296   4.618   3.799   0.610 -0.2442 -0.6596  0.8688
11413SOL     OW46297   0.970   2.527   6.365  0.3080  0.1892 -0.3589
11413SOL    HW146298   1.062   2.505   6.332 -0.3539  0.1025 -2.1713
11413SOL    HW246299   0.923   2.442   6.389  0.0264  0.0783 -1.2733
11414SOL     OW46300   4.321   1.454   0.881  0.1057 -0.5809 -0.6852
11414SOL    HW146301   4.314   1.364   0.923  1.9322 -0.2730  0.3189
11414SOL    HW246302   4.286   1.523   0.944  1.4255 -0.2838 -0.2645
11415SOL     OW46303   3.127   0.243   9.185 -0.3197 -0.3116  0.1647
11415SOL    HW146304   3.072   0.281   9.110  0.6791  1.0276  0.0812
11415SOL    HW246305   3.119   0.302   9.265  3.0502  1.4452 -0.6733
11416SOL     OW46306   1.509   1.221   1.473  0.6299 -0.2825 -0.1505
11416SOL    HW146307   1.577   1.186   1.408  0.4886  0.2202 -0.5770
11416SOL    HW246308   1.475   1.146   1.530 -0.3905 -1.0143 -1.7047
11417SOL     OW46309   4.987   9.293   8.522 -0.0348 -0.0078 -0.3344
11417SOL    HW146310   4.889   9.279   8.508 -0.1919 -0.2878  0.9977
11417SOL    HW246311   5.005   9.391   8.534 -0.0843  0.0854 -0.9659
11418SOL     OW46312   0.135   9.553   8.354  0.2875  0.1670  0.1951
11418SOL    HW146313   0.196   9.493   8.303  0.5804  0.2633  0.4367
11418SOL    HW246314   0.040   9.526   8.337  0.4013 -0.0773 -0.0532
11419SOL     OW46315   6.406   8.702   7.688  0.4394  0.3695 -0.4942
11419SOL    HW146316   6.341   8.731   7.617 -1.0866 -0.7115  0.4416
11419SOL    HW246317   6.451   8.618   7.659 -0.2128 -0.0942 -0.1766
11420SOL     OW46318   1.891   4.939   7.764  0.3509 -0.1480  0.0855
11420SOL    HW146319   1.945   5.003   7.709  0.8097  0.1067  0.8239
11420SOL    HW246320   1.847   4.988   7.839  0.3083 -0.6125  0.3660
11421SOL     OW46321   1.392   1.295   5.581  0.5959 -0.2337  0.1894
11421SOL    HW146322   1.341   1.302   5.495  1.8208 -1.7874 -0.6819
11421SOL    HW246323   1.390   1.200   5.613  3.0871 -0.3416  0.0568
11422SOL     OW46324   0.722   1.335   0.262  0.0556 -0.4079  0.4928
11422SOL    HW146325   0.704   1.420   0.310  0.2591  0.0236 -0.1834
11422SOL    HW246326   0.812   1.340   0.217 -0.6107 -0.3551 -0.8705
11423SOL     OW46327   3.606   4.954   3.919  0.0356 -0.3145 -0.4035
11423SOL    HW146328   3.639   4.970   4.012  0.6102 -0.0939 -0.6458
11423SOL    HW246329   3.604   5.041   3.869 -0.6789 -0.3635 -0.4659
11424SOL     OW46330   2.141   7.487   2.268  0.5062  0.4267 -0.2215
11424SOL    HW146331   2.209   7.555   2.238 -0.4126  1.1082 -0.7913
11424SOL    HW246332   2.108   7.436   2.189  1.2888 -0.8022  0.2239
11425SOL     OW46333   7.451   2.712   3.756  0.2559  0.8365  0.0467
11425SOL    HW146334   7.413   2.800   3.729 -2.1355 -0.1958 -0.0874
11425SOL    HW246335   7.473   2.658   3.675  2.3496  1.5390  0.1188
11426SOL     OW46336   4.317   3.562   6.165  0.3150  0.1896 -0.8079
11426SOL    HW146337   4.408   3.522   6.159  0.1502 -0.3701  0.3778
11426SOL    HW246338   4.284   3.558   6.259 -1.3652 -0.5436 -1.4034
11427SOL     OW46339   5.227   0.267   2.360  0.4807  0.3073 -0.0022
11427SOL    HW146340   5.153   0.310   2.309  1.1866  1.1261 -0.3697
11427SOL    HW246341   5.312   0.317   2.342  0.8925  0.1073  1.3248
11428SOL     OW46342   7.129   8.981   2.172 -0.6051 -0.5941  0.0780
11428SOL    HW146343   7.201   9.008   2.236 -1.9783 -0.2055  1.4889
11428SOL    HW246344   7.142   9.027   2.085 -0.3348  1.1022  1.0016
11429SOL     OW46345   8.147   6.967   1.270 -0.4573 -0.2503 -0.2038
11429SOL    HW146346   8.212   7.041   1.253 -1.9184  0.9040 -0.9106
11429SOL    HW246347   8.194   6.879   1.264  1.3676  0.6122  0.9511
11430SOL     OW46348   9.617   1.775   4.047  0.4616  0.6514 -0.2969
11430SOL    HW146349   9.693   1.793   3.984  0.1546  0.2220 -0.7899
11430SOL    HW246350   9.591   1.679   4.041  0.1385  0.7116  0.1629
11431SOL     OW46351   0.569   7.666   3.135 -0.4104  0.2203  0.0665
11431SOL    HW146352   0.557   7.731   3.060 -0.4944  1.0050  0.7573
11431SOL    HW246353   0.557   7.713   3.222  1.0032 -0.4126  0.6109
11432SOL     OW46354   7.826   4.507   4.019  0.3230  0.0527  0.9667
11432SOL    HW146355   7.826   4.607   4.019  0.5944  0.0591  2.2377
11432SOL    HW246356   7.902   4.473   3.963  1.6838  0.5652  2.4825
11433SOL     OW46357   6.152   4.982   8.979  0.4176  0.2527  0.6741
11433SOL    HW146358   6.084   4.979   9.053  2.2620  1.1729  2.4507
11433SOL    HW246359   6.146   5.069   8.932 -0.7289 -0.3164 -0.2695
11434SOL     OW46360   4.495   3.193   2.697 -0.2355 -0.3693  0.1959
11434SOL    HW146361   4.557   3.224   2.625  0.6933 -1.7383  0.3935
11434SOL    HW246362   4.514   3.243   2.781  0.2582 -0.4319  0.1222
11435SOL     OW46363   1.549   2.215   3.226 -0.6462 -0.8270 -0.1761
11435SOL    HW146364   1.557   2.247   3.320  1.2939 -1.6446 -0.0492
11435SOL    HW246365   1.614   2.264   3.168  0.2531 -2.4110 -0.5305
11436SOL     OW46366   7.213   1.519   6.228 -0.2963 -0.3308 -0.1177
11436SOL    HW146367   7.263   1.600   6.198 -0.5706  0.3242  1.1652
11436SOL    HW246368   7.136   1.546   6.287 -0.9997 -1.4536 -0.4876
11437SOL     OW46369   2.878   9.037   6.282  0.5162 -0.0202 -0.8379
11437SOL    HW146370   2.937   9.095   6.339  0.2836 -0.3516 -0.2541
11437SOL    HW246371   2.928   8.956   6.253 -0.3102 -1.4684  1.5680
11438SOL     OW46372   7.445   4.680   2.944 -0.0009 -0.3759  0.5168
11438SOL    HW146373   7.443   4.719   2.852  0.2677 -0.4737  0.4677
11438SOL    HW246374   7.397   4.741   3.007  0.6505  0.1744  0.4921
11439SOL     OW46375   1.987   7.030   9.929 -0.0477  0.1381  0.2013
11439SOL    HW146376   1.916   7.057   9.863  0.5309 -0.9024 -0.8606
11439SOL    HW246377   2.056   7.102   9.935  0.0804  0.0927 -0.6050
11440SOL     OW46378   0.531   1.889   4.494 -0.0249  0.4167 -0.1473
11440SOL    HW146379   0.506   1.835   4.414 -0.7624 -0.7173  0.8444
11440SOL    HW246380   0.574   1.830   4.562 -1.5560  0.9118  1.2758
11441SOL     OW46381   3.321   3.678   9.354  0.1693 -0.2409  0.0799
11441SOL    HW146382   3.362   3.675   9.446 -0.5685 -2.5451  0.3791
11441SOL    HW246383   3.237   3.732   9.357  0.2379 -0.1579  0.7247
11442SOL     OW46384   1.288   1.308   5.329  0.6940 -0.5970  0.1666
11442SOL    HW146385   1.206   1.366   5.328  0.5639 -0.7285  1.6551
11442SOL    HW246386   1.329   1.307   5.238 -1.3039 -1.0230 -0.7600
11443SOL     OW46387   6.611   7.788   5.165 -0.6728 -0.1877 -0.3262
11443SOL    HW146388   6.538   7.759   5.226 -0.4334 -0.7359 -0.2878
11443SOL    HW246389   6.597   7.883   5.137 -0.6869  0.1206  0.7164
11444SOL     OW46390   1.269   7.765   4.993 -0.1628 -0.0046 -0.0091
11444SOL    HW146391   1.266   7.862   4.969  1.1689  0.0226 -0.1323
11444SOL    HW246392   1.188   7.719   4.957 -0.1643  0.8082 -1.0832
11445SOL     OW46393   5.231   0.968   7.747 -0.0342  0.0835  0.3913
11445SOL    HW146394   5.268   0.891   7.799 -0.2900  1.6068  2.8895
11445SOL    HW246395   5.299   1.042   7.744 -0.6616  0.6463 -0.0310
11446SOL     OW46396   3.258   6.351   7.088 -0.3561  0.6458  0.1580
11446SOL    HW146397   3.286   6.307   7.003  0.4832 -2.8590  2.1416
11446SOL    HW246398   3.318   6.428   7.108 -0.0343  0.9631 -1.9407
11447SOL     OW46399   5.104   1.903   8.629  0.2580  0.0347  0.7091
11447SOL    HW146400   5.106   1.838   8.553  1.1873 -0.2012  0.9355
11447SOL    HW246401   5.197   1.922   8.660  0.1821  2.9040 -0.5716
11448SOL     OW46402   9.029   3.213   0.712  0.2169  0.2425  0.4393
11448SOL    HW146403   9.083   3.168   0.641  0.1827  0.4773  0.2651
11448SOL    HW246404   9.074   3.299   0.738 -0.5365  0.8647 -0.3238
11449SOL     OW46405   3.907   2.683   0.456 -0.2647 -0.7572  0.1872
11449SOL    HW146406   4.006   2.685   0.445 -0.1329  2.3089  1.3888
11449SOL    HW246407   3.885   2.653   0.549 -0.3672  0.2014  0.4831
11450SOL     OW46408   0.871   5.327   2.367  0.3712  0.4405  0.0265
11450SOL    HW146409   0.965   5.349   2.393 -0.1355  1.7590  0.7911
11450SOL    HW246410   0.808   5.363   2.436 -0.5968 -2.0725  0.4953
11451SOL     OW46411   0.953   6.204   0.279  0.0107 -0.2444 -0.2392
11451SOL    HW146412   0.982   6.257   0.359  0.9011 -1.1997  0.0773
11451SOL    HW246413   0.943   6.266   0.201  0.8870  0.4301  0.1624
11452SOL     OW46414   9.992   5.086   5.298  0.1210 -1.1434  0.0874
11452SOL    HW146415   9.969   5.179   5.327  0.4305 -0.7505 -0.8887
11452SOL    HW246416  10.017   5.031   5.378 -0.0551 -0.3888  0.6679
11453SOL     OW46417   1.375   3.070   9.838 -0.4368  1.1390  0.4621
11453SOL    HW146418   1.309   3.116   9.896 -1.4260  0.1685  0.1322
11453SOL    HW246419   1.370   3.107   9.745  0.7182  2.2698  0.8404
11454SOL     OW46420   7.584   2.015   4.810  0.7239 -0.0192  0.3516
11454SOL    HW146421   7.497   1.969   4.829 -0.3530  2.4713  1.5847
11454SOL    HW246422   7.653   1.946   4.788 -1.8970 -1.9794 -2.2174
11455SOL     OW46423   3.975   9.283   8.539  0.1585 -0.2201 -0.0672
11455SOL    HW146424   3.977   9.375   8.578 -0.2287 -0.0261 -0.4965
11455SOL    HW246425   3.907   9.228   8.586  0.0852 -0.1539 -0.0960
11456SOL     OW46426   4.462   2.460   7.844  0.3406 -0.1950 -0.3102
11456SOL    HW146427   4.421   2.372   7.820 -0.9102  1.0071 -2.7868
11456SOL    HW246428   4.476   2.465   7.943 -0.7637 -2.6572 -0.0024
11457SOL     OW46429   8.073   2.605   4.742 -0.0735 -0.1651  0.5568
11457SOL    HW146430   8.090   2.592   4.839 -1.4971 -1.4917  0.6437
11457SOL    HW246431   8.040   2.519   4.702 -0.6805  0.6999 -0.8384
11458SOL     OW46432   6.491   8.632   5.036 -0.7090  0.2728 -0.2145
11458SOL    HW146433   6.392   8.631   5.054 -0.4078  2.2245  1.7345
11458SOL    HW246434   6.538   8.582   5.109 -0.2528 -0.8242 -1.2477
11459SOL     OW46435   9.681   6.787   7.751 -0.2916  0.4061  0.9356
11459SOL    HW146436   9.737   6.838   7.817  1.0367 -2.3422  2.0359
11459SOL    HW246437   9.690   6.689   7.769 -2.8139 -0.2513 -1.0652
11460SOL     OW46438   0.494   8.371   3.549  0.3903 -0.4079 -0.7679
11460SOL    HW146439   0.560   8.444   3.566  1.1983 -1.5956  1.3162
11460SOL    HW246440   0.414   8.409   3.501  0.6078  1.9294  0.6475
11461SOL     OW46441   1.670   8.532   8.740  0.0783 -0.7846  0.7805
11461SOL    HW146442   1.668   8.447   8.792 -1.6520 -0.6898  0.8883
11461SOL    HW246443   1.583   8.580   8.751  0.5717  0.3864 -0.3016
11462SOL     OW46444   3.870   9.092   4.631  0.0627 -0.0247  0.4975
11462SOL    HW146445   3.907   9.047   4.549 -0.5387 -1.4871  1.0223
11462SOL    HW246446   3.864   9.026   4.706 -2.0644  0.6044  0.9024
11463SOL     OW46447   7.207   8.020   3.656 -0.1239 -0.1590 -0.1723
11463SOL    HW146448   7.148   7.942   3.638 -1.2746  0.4736  0.7454
11463SOL    HW246449   7.207   8.082   3.577 -1.7687  0.5040  0.3248
11464SOL     OW46450   8.270   7.916   6.982  0.0847  0.6036 -0.0960
11464SOL    HW146451   8.200   7.848   6.959  1.4462 -0.5905 -0.8422
11464SOL    HW246452   8.356   7.869   7.004  1.0033  2.0727 -0.4414
11465SOL     OW46453   8.558   6.590   0.655  0.2037 -0.7932  0.2535
11465SOL    HW146454   8.468   6.633   0.654  1.9522  3.0653  0.9292
11465SOL    HW246455   8.603   6.607   0.567  0.7718 -1.6097  0.3877
11466SOL     OW46456   0.983   5.257   8.395 -0.5397  0.1293 -0.2129
11466SOL    HW146457   0.991   5.161   8.422 -0.0975  0.4280  0.7571
11466SOL    HW246458   0.935   5.308   8.467  0.1566  0.8359 -0.2409
11467SOL     OW46459   2.901   2.353   2.948  0.1430 -0.4944 -0.0371
11467SOL    HW146460   2.982   2.295   2.954  0.6218  0.1564 -0.1840
11467SOL    HW246461   2.841   2.335   3.027 -0.7782 -2.7705 -1.2039
11468SOL     OW46462   9.912   7.074   1.391  0.0728 -0.0447  0.1476
11468SOL    HW146463   9.965   7.048   1.471  2.0654 -2.7245 -1.9827
11468SOL    HW246464   9.948   7.159   1.353  0.3518  0.2001  0.9595
11469SOL     OW46465   1.555   7.475   3.036 -0.7711  0.2187 -0.3582
11469SOL    HW146466   1.506   7.417   2.971  0.2073 -0.8226 -0.1960
11469SOL    HW246467   1.576   7.423   3.119  1.7278  0.1903 -0.9471
11470SOL     OW46468   0.695   9.999   8.128  0.0514  0.1714 -0.5511
11470SOL    HW146469   0.623   9.934   8.102  1.0254 -0.7152 -1.0504
11470SOL    HW246470   0.784   9.963   8.102  1.0508 -0.4173  3.2880
11471SOL     OW46471   0.974   3.394   1.492 -0.4053 -0.1162  0.1818
11471SOL    HW146472   0.912   3.318   1.471 -0.7801  0.7991 -2.2424
11471SOL    HW246473   0.920   3.474   1.517 -0.1815  0.3686 -0.8536
11472SOL     OW46474   4.436   6.077   7.948 -0.2414 -0.4319  0.2079
11472SOL    HW146475   4.398   5.986   7.929 -1.0671 -0.0784  0.1441
11472SOL    HW246476   4.362   6.138   7.978  0.3539  0.1476  0.5030
11473SOL     OW46477   1.610   2.674   9.391  0.0857 -0.3947 -0.0397
11473SOL    HW146478   1.548   2.743   9.428  1.3581 -0.1971  1.8497
11473SOL    HW246479   1.588   2.656   9.296 -0.3755  2.5084 -0.5343
11474SOL     OW46480   7.778   6.296   9.258 -0.1342  0.1727  0.3727
11474SOL    HW146481   7.760   6.210   9.306  0.7869 -0.4773 -0.4504
11474SOL    HW246482   7.804   6.278   9.164  2.8368  1.1891  0.9486
11475SOL     OW46483   2.303   0.297   1.483 -0.3025 -0.0106  0.0746
11475SOL    HW146484   2.213   0.253   1.482 -0.5008  0.4110 -0.6831
11475SOL    HW246485   2.301   0.374   1.546 -0.7577  0.5883 -0.6643
11476SOL     OW46486   7.840   2.692   0.901  0.6180 -0.3399 -0.4770
11476SOL    HW146487   7.807   2.723   0.811 -0.0267 -0.4838 -0.2901
11476SOL    HW246488   7.938   2.713   0.909  0.4508  0.6009 -0.8138
11477SOL     OW46489   6.672   5.226   7.858 -0.0195 -0.2974 -0.1264
11477SOL    HW146490   6.745   5.249   7.923  0.2524 -3.7765  0.8745
11477SOL    HW246491   6.662   5.127   7.852 -0.2439 -0.1020 -5.2087
11478SOL     OW46492   0.029   9.118   6.209 -0.6887 -1.0230  0.2630
11478SOL    HW146493   0.034   9.018   6.211 -1.2254 -1.0408  0.9293
11478SOL    HW246494  -0.052   9.145   6.156  0.6147 -0.9002 -1.7230
11479SOL     OW46495   9.759   8.774   8.518  0.0751 -0.8073 -0.1006
11479SOL    HW146496   9.685   8.828   8.558 -2.0877 -2.2828 -2.0084
11479SOL    HW246497   9.823   8.835   8.471  0.6214  0.5665  2.3294
11480SOL     OW46498   8.243   5.408   3.220  0.2820  0.2114 -0.4154
11480SOL    HW146499   8.196   5.429   3.134  3.2881  0.5251 -2.0518
11480SOL    HW246500   8.232   5.310   3.240 -0.6758  0.1910 -0.9906
11481SOL     OW46501   6.206   2.163   3.653 -0.6636 -0.3535 -0.1245
11481SOL    HW146502   6.169   2.235   3.713 -0.9174 -0.2284 -0.4297
11481SOL    HW246503   6.253   2.205   3.576 -0.1462 -0.5144  0.0971
11482SOL     OW46504   6.579   0.962   8.204  0.0756  0.0340  0.3457
11482SOL    HW146505   6.618   1.047   8.170 -1.0474  0.0188 -1.0201
11482SOL    HW246506   6.643   0.887   8.188  0.1003  0.2487 -0.5551
11483SOL     OW46507   0.169   0.281   4.617  0.3022  0.3577  0.2038
11483SOL    HW146508   0.096   0.274   4.549 -0.1586  1.2993  0.5859
11483SOL    HW246509   0.164   0.203   4.680 -0.6410  0.6396  0.4803
11484SOL     OW46510   9.365   5.689   5.493 -0.2762  0.0666 -0.0506
11484SOL    HW146511   9.385   5.667   5.397 -0.4157  0.0441 -0.0736
11484SOL    HW246512   9.304   5.620   5.532 -0.6559  0.3688 -0.1017
11485SOL     OW46513   9.546   9.918   5.527  0.7624 -0.2113 -0.9461
11485SOL    HW146514   9.498   9.897   5.441 -0.3367 -0.2139 -0.3349
11485SOL    HW246515   9.516  10.006   5.561  0.6369 -0.5588 -0.1562
11486SOL     OW46516   5.734   9.816   1.467 -0.7212 -0.0035 -0.5292
11486SOL    HW146517   5.810   9.882   1.469  0.2381 -1.0120 -2.3519
11486SOL    HW246518   5.759   9.735   1.520 -1.8736  1.0323  1.6552
11487SOL     OW46519   8.513   4.845   3.066 -0.3646  0.2555 -0.4131
11487SOL    HW146520   8.587   4.906   3.094 -0.3148  0.2057 -0.4366
11487SOL    HW246521   8.546   4.784   2.993 -0.6388  0.7222 -0.9290
11488SOL     OW46522   2.655   7.873   4.643  0.3012 -0.6189  0.1732
11488SOL    HW146523   2.754   7.878   4.633  0.2120  0.1178 -0.3745
11488SOL    HW246524   2.621   7.960   4.680 -0.1563 -0.8160  0.2157
11489SOL     OW46525   6.913   7.843   2.438 -0.0097  0.4504  0.3486
11489SOL    HW146526   6.993   7.795   2.473  0.0704  0.1055 -0.3040
11489SOL    HW246527   6.942   7.917   2.377 -0.2072 -0.0329 -0.3332
11490SOL     OW46528   0.637   8.681   6.496  0.0396  0.3758  0.7102
11490SOL    HW146529   0.705   8.724   6.555  0.7191 -0.8706  0.8671
11490SOL    HW246530   0.597   8.602   6.543 -0.5329  0.2896  0.0962
11491SOL     OW46531   4.190   4.691   1.485  0.0242 -0.0398 -0.5996
11491SOL    HW146532   4.138   4.606   1.474  0.6656 -0.5473  0.2268
11491SOL    HW246533   4.150   4.745   1.559  1.7953 -1.3237  1.3622
11492SOL     OW46534   4.319   1.135   0.105  0.1521  0.3486 -0.4122
11492SOL    HW146535   4.279   1.221   0.135  1.8209  1.4907 -1.4076
11492SOL    HW246536   4.379   1.099   0.177 -1.3389 -0.5458  0.4230
11493SOL     OW46537   0.709   2.866   7.718 -0.2542 -0.3106 -0.0246
11493SOL    HW146538   0.684   2.960   7.692 -0.8393 -0.4629 -0.0277
11493SOL    HW246539   0.763   2.869   7.802 -0.4025  0.0235  0.0610
11494SOL     OW46540   5.814   0.137   8.162 -0.0937 -0.2611  0.3564
11494SOL    HW146541   5.822   0.042   8.132 -0.4608 -0.5763  1.2302
11494SOL    HW246542   5.718   0.159   8.179  0.0906 -0.0734  1.2117
11495SOL     OW46543   6.465   1.600   4.597 -0.0806  0.3191  0.8697
11495SOL    HW146544   6.381   1.648   4.574  0.3715  0.3802 -0.6838
11495SOL    HW246545   6.542   1.664   4.593  0.1750  0.0408  1.3186
11496SOL     OW46546   1.022   2.082   0.378 -0.1554 -0.3604  0.0838
11496SOL    HW146547   1.075   2.123   0.304  1.4089  0.6590  1.7289
11496SOL    HW246548   0.985   2.153   0.437 -2.9210 -1.0875 -0.6839
11497SOL     OW46549   9.847   9.690   1.964 -0.1696 -0.1647 -0.1811
11497SOL    HW146550   9.943   9.666   1.976  0.1680  1.1191 -0.2472
11497SOL    HW246551   9.811   9.647   1.882  0.7211  0.4264 -0.8851
11498SOL     OW46552   3.174   5.974   8.090  0.2986  0.2118 -0.4980
11498SOL    HW146553   3.156   5.890   8.141  0.9057 -1.3100 -2.7106
11498SOL    HW246554   3.087   6.012   8.058 -0.0236  0.7680  1.0189
11499SOL     OW46555   4.429   3.024   7.681  0.2147 -0.4186 -0.2473
11499SOL    HW146556   4.452   3.118   7.706  0.1508  0.1930 -2.3370
11499SOL    HW246557   4.386   2.977   7.758 -2.5456  2.2202 -0.1144
11500SOL     OW46558   7.293   0.972   5.619 -0.5516  0.7093 -0.1210
11500SOL    HW146559   7.361   0.904   5.646 -0.1478  1.1360 -0.0654
11500SOL    HW246560   7.339   1.054   5.585 -1.0277  0.2821 -1.8856
11501SOL     OW46561   3.788   0.850   5.066 -0.0878 -0.1310 -0.3714
11501SOL    HW146562   3.798   0.950   5.066 -0.3833 -0.0942  0.5025
11501SOL    HW246563   3.759   0.820   5.157  1.3227 -1.1438 -0.2392
11502SOL     OW46564   9.455   2.414   7.740 -0.2216  0.2875  0.0390
11502SOL    HW146565   9.470   2.499   7.790  2.4747 -0.3334  0.3647
11502SOL    HW246566   9.477   2.336   7.798  0.7701 -0.5051 -1.3487
11503SOL     OW46567   4.629   4.296   6.287  0.5420 -0.4440 -0.0653
11503SOL    HW146568   4.633   4.395   6.298  0.4935 -0.3624 -0.7527
11503SOL    HW246569   4.577   4.256   6.362 -0.2282  0.1375 -0.2863
11504SOL     OW46570   3.505   2.523   7.027  0.6277 -0.1411  0.2562
11504SOL    HW146571   3.423   2.475   7.059 -0.3566  0.6209 -1.0533
11504SOL    HW246572   3.535   2.588   7.096  0.8491 -1.2829  1.2468
11505SOL     OW46573   6.678   5.883   0.539 -0.0469  0.4020 -0.3357
11505SOL    HW146574   6.767   5.857   0.575  0.0327  0.9905 -0.1044
11505SOL    HW246575   6.633   5.803   0.500  0.9646  0.2700 -1.2662
11506SOL     OW46576   5.591   9.895   8.064 -0.1932  0.7145 -0.3464
11506SOL    HW146577   5.543   9.808   8.077 -1.4770  1.3515 -0.7358
11506SOL    HW246578   5.676   9.879   8.014 -0.5693 -0.2801 -0.6878
11507SOL     OW46579   5.968   9.262   2.063  0.7124  0.2367  0.0144
11507SOL    HW146580   5.910   9.186   2.093  1.3058 -1.3072 -2.6148
11507SOL    HW246581   6.064   9.241   2.085  0.6182  1.5245  1.8069
11508SOL     OW46582   8.278   9.974   1.839 -0.0358  0.1461  0.4621
11508SOL    HW146583   8.223   9.900   1.801 -1.4123  1.2367  0.2742
11508SOL    HW246584   8.348   9.937   1.900 -1.2433 -1.2468  1.0164
11509SOL     OW46585   3.342   4.481   0.083 -0.2252  0.3021 -0.4675
11509SOL    HW146586   3.341   4.480  -0.017 -0.2216  1.7592 -0.4982
11509SOL    HW246587   3.415   4.421   0.117  0.7606  0.9717 -1.3726
11510SOL     OW46588   7.775   3.614   8.078 -0.7056  0.0796 -0.2938
11510SOL    HW146589   7.840   3.584   8.009 -0.5061 -0.8652  0.2960
11510SOL    HW246590   7.716   3.537   8.104 -0.3697  0.2580  1.0253
11511SOL     OW46591   5.697   9.285   6.406  0.4957  0.1541  0.0688
11511SOL    HW146592   5.702   9.186   6.390  0.8741 -0.0571  1.4623
11511SOL    HW246593   5.787   9.326   6.393  0.0780  0.5173 -1.7528
11512SOL     OW46594   5.593   7.584   4.030  0.3164  0.0212  0.6645
11512SOL    HW146595   5.545   7.497   4.042 -0.2443  0.3210  0.6122
11512SOL    HW246596   5.595   7.634   4.117 -1.2390  0.9084  0.2094
11513SOL     OW46597   0.975   8.525   0.655 -0.3715 -0.1376 -0.1390
11513SOL    HW146598   1.066   8.564   0.646 -0.4812  0.0283 -0.5448
11513SOL    HW246599   0.964   8.450   0.590 -1.0673  0.8817 -1.2306
11514SOL     OW46600   6.819   8.916   2.415 -0.2596  0.1646 -0.0230
11514SOL    HW146601   6.791   8.903   2.320 -1.0290  0.5010  0.1526
11514SOL    HW246602   6.739   8.940   2.470  0.0030 -0.9921  0.8866
11515SOL     OW46603   8.484   8.884   2.058 -0.2161 -0.9111  0.1364
11515SOL    HW146604   8.428   8.903   1.978  0.9525  2.0215 -0.0725
11515SOL    HW246605   8.575   8.854   2.028 -0.5445 -2.1786  0.4077
11516SOL     OW46606   9.733   7.102   2.633  0.1196  0.4762 -1.1654
11516SOL    HW146607   9.702   7.077   2.725  0.5378  0.8431 -0.9246
11516SOL    HW246608   9.682   7.048   2.565  1.0019 -1.0145 -0.6599
11517SOL     OW46609   8.135   9.132   1.768 -0.0250 -0.3512  0.2878
11517SOL    HW146610   8.195   9.174   1.837  0.2719 -0.6459  0.2124
11517SOL    HW246611   8.152   9.175   1.680 -1.5242  1.1047  0.6970
11518SOL     OW46612   3.630   6.439   9.936  0.2760 -0.3709 -1.0518
11518SOL    HW146613   3.680   6.509   9.988  1.4919 -2.1992  0.3023
11518SOL    HW246614   3.672   6.350   9.952 -3.9600 -2.1291  0.8155
11519SOL     OW46615   3.160   6.254   5.544 -0.0879  0.0829 -0.3726
11519SOL    HW146616   3.148   6.343   5.500 -2.1050  0.7641  1.5061
11519SOL    HW246617   3.252   6.248   5.583 -0.6838  2.2991  1.4855
11520SOL     OW46618   4.201   2.635   4.285 -0.1508 -0.2715 -0.0723
11520SOL    HW146619   4.166   2.608   4.196  1.2553  0.7584 -0.9561
11520SOL    HW246620   4.287   2.587   4.303 -1.5532 -2.1879  1.7318
11521SOL     OW46621   8.282   4.511   8.649  0.5656 -0.3790 -0.6075
11521SOL    HW146622   8.263   4.446   8.576 -0.4671 -0.0589 -0.6344
11521SOL    HW246623   8.342   4.583   8.615 -0.5046  0.1700 -1.3500
11522SOL     OW46624   8.920   5.842   7.153 -0.1722  0.2414  0.2828
11522SOL    HW146625   8.867   5.924   7.171 -1.2062 -0.2507 -0.4535
11522SOL    HW246626   8.859   5.763   7.149  0.4673 -0.1930 -1.6068
11523SOL     OW46627   2.453   8.988   9.954  0.4493 -0.2459 -0.2428
11523SOL    HW146628   2.407   8.903   9.979  0.8388  0.8932  4.8672
11523SOL    HW246629   2.393   9.065   9.975  1.0663  0.8709 -2.4854
11524SOL     OW46630   7.029   9.850   2.425 -0.1983 -0.1358  0.0950
11524SOL    HW146631   7.127   9.859   2.410 -0.4153  1.9369 -0.2607
11524SOL    HW246632   6.998   9.925   2.484 -1.0985 -2.3398  2.4894
11525SOL     OW46633   4.322   1.040   7.345 -0.3641  0.2157 -0.3837
11525SOL    HW146634   4.297   1.104   7.272 -1.5915  0.2655  0.0687
11525SOL    HW246635   4.396   1.080   7.400  0.7124  0.0829 -1.7112
11526SOL     OW46636   5.352   0.331   4.377 -0.7034 -0.2947  0.1063
11526SOL    HW146637   5.325   0.346   4.282  1.1687  2.3036 -0.0652
11526SOL    HW246638   5.321   0.241   4.407 -0.4307 -1.5672 -3.2682
11527SOL     OW46639   0.661   2.108   5.404 -0.3500 -0.0054  0.2060
11527SOL    HW146640   0.735   2.065   5.352  0.3012  0.1043  1.0227
11527SOL    HW246641   0.700   2.175   5.467 -1.2120  0.5306  0.1661
11528SOL     OW46642   0.653   6.644   6.800  0.1459  0.4400  0.0896
11528SOL    HW146643   0.618   6.730   6.837  1.6940  0.4922  1.4901
11528SOL    HW246644   0.614   6.568   6.851 -1.3370  0.2762 -1.2442
11529SOL     OW46645   9.046   2.005   7.364  0.1034  0.3033 -0.4679
11529SOL    HW146646   9.130   1.990   7.416  0.3510 -0.5997 -1.1102
11529SOL    HW246647   9.050   1.954   7.278 -1.2427 -0.0443 -0.3479
11530SOL     OW46648   1.274   8.137   9.413  0.0510 -0.1443 -0.3226
11530SOL    HW146649   1.234   8.177   9.495 -0.3568 -1.1636 -0.0094
11530SOL    HW246650   1.360   8.091   9.437  0.9485  1.2371 -0.8249
11531SOL     OW46651   7.947   7.164   9.014 -0.2020  0.5281  0.2927
11531SOL    HW146652   7.928   7.203   8.924 -1.1806  0.1502  0.3277
11531SOL    HW246653   8.018   7.093   9.005 -0.7399  0.0531 -0.2883
11532SOL     OW46654   3.353   0.047   9.430 -0.3902  0.0058 -0.2830
11532SOL    HW146655   3.440   0.037   9.477 -1.4309  0.8506  1.8745
11532SOL    HW246656   3.369   0.088   9.340  1.3666  0.7609  0.3458
11533SOL     OW46657   0.387   7.923   6.818 -0.4388  0.2541 -0.1844
11533SOL    HW146658   0.300   7.970   6.806 -0.7457 -0.5501 -1.2017
11533SOL    HW246659   0.379   7.830   6.781  0.8263  0.1539 -0.2025
11534SOL     OW46660   9.715   0.747   4.480 -0.5677  0.4133  0.1670
11534SOL    HW146661   9.759   0.798   4.406  0.1811  1.4909  1.3311
11534SOL    HW246662   9.616   0.750   4.467 -0.4844  1.2585 -0.3767
11535SOL     OW46663   9.263   1.706   8.494 -0.2451 -0.4446  0.3977
11535SOL    HW146664   9.333   1.638   8.511  0.5471  0.0235 -0.9720
11535SOL    HW246665   9.292   1.767   8.421 -2.4424 -0.7811 -0.8089
11536SOL     OW46666   4.174   4.135   8.553 -0.1885 -0.1609 -0.6923
11536SOL    HW146667   4.244   4.085   8.502  0.5865 -0.6656  0.8486
11536SOL    HW246668   4.094   4.077   8.566  0.3393 -0.6814  0.2644
11537SOL     OW46669   5.140   8.281   5.125 -0.1257 -0.2283  0.3234
11537SOL    HW146670   5.188   8.359   5.167 -0.4676 -0.4855  1.2138
11537SOL    HW246671   5.088   8.312   5.046  3.0198 -0.2556 -1.8590
11538SOL     OW46672   0.366   2.179   2.728 -0.1200 -0.1485  0.3073
11538SOL    HW146673   0.373   2.189   2.628  0.9874  2.9252  0.6472
11538SOL    HW246674   0.291   2.236   2.761 -0.7876 -1.5274  1.2125
11539SOL     OW46675   9.629   5.825   9.768 -0.6104 -0.3467  0.5967
11539SOL    HW146676   9.662   5.855   9.678 -0.0078  0.1672  0.9896
11539SOL    HW246677   9.532   5.849   9.777 -0.4255  0.4602  0.4616
11540SOL     OW46678   0.408   1.608   2.348 -0.0566  0.7222 -0.0043
11540SOL    HW146679   0.404   1.704   2.319  2.9429  0.5719 -1.1638
11540SOL    HW246680   0.370   1.550   2.276  1.3690  0.8366 -0.8897
11541SOL     OW46681   9.392   2.605   6.485  0.0839 -0.5804 -0.1785
11541SOL    HW146682   9.314   2.641   6.537 -0.3079 -1.8347  0.1268
11541SOL    HW246683   9.477   2.625   6.535 -0.3949 -2.9482  1.6759
11542SOL     OW46684   3.727   5.834   2.446  0.1712  0.6386  0.1225
11542SOL    HW146685   3.738   5.814   2.543  0.3284  0.3245  0.0406
11542SOL    HW246686   3.692   5.752   2.398 -1.0725  1.1515  0.1174
11543SOL     OW46687   6.592   2.859   9.258 -0.3426  0.2370  0.7157
11543SOL    HW146688   6.566   2.844   9.354  1.0319 -1.2165  0.8961
11543SOL    HW246689   6.559   2.783   9.203 -0.5038  0.7111  0.1627
11544SOL     OW46690   8.961   8.270   6.740 -0.0938  0.8865  0.2542
11544SOL    HW146691   8.982   8.227   6.652  0.8210 -0.5803  1.1667
11544SOL    HW246692   8.889   8.338   6.728 -2.1647 -1.4988 -1.0828
11545SOL     OW46693   3.543   2.456   1.665 -0.2198 -0.2459  0.3674
11545SOL    HW146694   3.551   2.407   1.578 -3.6557  1.2730 -0.9196
11545SOL    HW246695   3.519   2.551   1.647  0.3245  0.4158  2.9749
11546SOL     OW46696   2.571   2.762   0.466 -0.3023 -0.0090  0.7632
11546SOL    HW146697   2.596   2.761   0.369 -0.5557 -1.1107  0.7053
11546SOL    HW246698   2.654   2.756   0.522 -0.2265 -0.5094  0.5992
11547SOL     OW46699   9.738   4.471   5.491  0.1257 -0.2999 -0.1419
11547SOL    HW146700   9.695   4.391   5.534 -0.6565 -0.1894 -0.7145
11547SOL    HW246701   9.819   4.498   5.544  0.4031 -1.4786  0.0480
11548SOL     OW46702   7.673   2.665   0.226 -0.5003 -0.1334  0.2148
11548SOL    HW146703   7.721   2.577   0.222 -1.1812 -0.4861 -0.2365
11548SOL    HW246704   7.637   2.688   0.136 -0.8248  0.3357  0.4620
11549SOL     OW46705   3.001   1.916   5.566 -0.4456 -0.3194 -0.3984
11549SOL    HW146706   3.061   1.972   5.509  0.1909  0.9393  1.4853
11549SOL    HW246707   2.997   1.954   5.658 -0.5309 -3.0063  0.7442
11550SOL     OW46708   1.163   5.492   7.752 -0.1440  0.2129  0.5203
11550SOL    HW146709   1.111   5.442   7.683 -0.1589  0.8902  0.0357
11550SOL    HW246710   1.100   5.529   7.821 -0.4525  2.0085 -0.6857
11551SOL     OW46711   4.695   3.828   9.723  0.2451  0.4858  0.1835
11551SOL    HW146712   4.726   3.737   9.750 -1.2576 -0.4715 -1.2387
11551SOL    HW246713   4.771   3.878   9.682  0.3518 -1.3042 -1.9319
11552SOL     OW46714   1.376   9.304   4.732 -0.2954  0.3237  0.3768
11552SOL    HW146715   1.389   9.217   4.780 -0.9985  0.1389  0.2413
11552SOL    HW246716   1.278   9.323   4.724 -0.1700  0.5851 -0.5700
11553SOL     OW46717   5.662   3.668   0.649  0.6588  0.1675  0.4589
11553SOL    HW146718   5.601   3.736   0.690  1.2244  1.5205 -0.9073
11553SOL    HW246719   5.609   3.586   0.627 -0.2332  0.5215  1.2089
11554SOL     OW46720   5.221   8.405   1.502  0.0939 -0.5920  0.7144
11554SOL    HW146721   5.133   8.370   1.533  0.8693 -2.1093  1.2562
11554SOL    HW246722   5.270   8.333   1.452  0.8229  0.3905 -0.0227
11555SOL     OW46723   6.016   8.331   4.186 -0.2131  0.0664 -0.0908
11555SOL    HW146724   6.042   8.237   4.162 -1.0046  0.2467 -1.7666
11555SOL    HW246725   5.918   8.335   4.203 -0.4321  0.8467 -1.4552
11556SOL     OW46726   8.291   4.205   9.107 -0.0754  0.3065  0.4392
11556SOL    HW146727   8.196   4.205   9.137  0.0246 -0.4523  0.7702
11556SOL    HW246728   8.298   4.250   9.018 -0.5531  1.4727  0.9875
11557SOL     OW46729   6.732   2.527   8.928 -0.6026 -0.0998 -0.5262
11557SOL    HW146730   6.720   2.428   8.927 -2.4943  0.1056  0.5126
11557SOL    HW246731   6.819   2.550   8.971  0.7253 -1.3600 -2.4245
11558SOL     OW46732   8.796   4.885   0.958  0.4364 -0.3950  0.8366
11558SOL    HW146733   8.807   4.977   0.920  2.4517 -0.4892  1.1415
11558SOL    HW246734   8.702   4.873   0.991 -0.4261  0.8010 -1.1565
11559SOL     OW46735   8.114   6.961   8.723  0.7506 -0.2331  0.3261
11559SOL    HW146736   8.192   6.904   8.699  0.2679 -1.8707  2.4463
11559SOL    HW246737   8.124   6.992   8.818  0.6960  2.7519 -0.5882
11560SOL     OW46738   6.380   7.589   3.970 -0.6557  0.1024 -0.1561
11560SOL    HW146739   6.344   7.592   3.877 -0.9287  1.3739 -0.0227
11560SOL    HW246740   6.358   7.675   4.016 -2.0395 -1.1899  1.6486
11561SOL     OW46741   3.065   2.273   2.683 -0.0919 -0.0572  0.1878
11561SOL    HW146742   2.975   2.229   2.685 -0.1741  0.1243  0.3881
11561SOL    HW246743   3.108   2.268   2.773  0.5500 -1.0815 -0.1577
11562SOL     OW46744   0.813   5.317   2.074  0.0695  0.8909 -0.1520
11562SOL    HW146745   0.819   5.335   2.172 -1.0854  0.0688  0.0669
11562SOL    HW246746   0.826   5.220   2.056  2.1947  1.2812 -1.0035
11563SOL     OW46747   8.223   1.754   8.588 -0.2384 -0.1736  0.0579
11563SOL    HW146748   8.283   1.812   8.644  0.4073  1.2631 -2.0769
11563SOL    HW246749   8.264   1.663   8.580 -0.4310 -0.4637  2.0392
11564SOL     OW46750   8.428   8.947   6.414 -0.7725 -0.5825 -0.0923
11564SOL    HW146751   8.501   9.014   6.405  0.6684 -2.2078 -0.8575
11564SOL    HW246752   8.394   8.945   6.508 -0.2849  0.6308  0.1082
11565SOL     OW46753   3.140   6.483   7.297 -0.3838  0.6878  0.2594
11565SOL    HW146754   3.200   6.508   7.373 -0.9452 -1.6128  1.4970
11565SOL    HW246755   3.195   6.446   7.222 -0.1411 -0.5047  1.0116
11566SOL     OW46756   0.323   7.594   8.262  0.0400 -0.1842  0.0297
11566SOL    HW146757   0.401   7.537   8.288  0.8079  1.4763  1.4819
11566SOL    HW246758   0.340   7.634   8.172 -0.4824 -2.1725 -0.9713
11567SOL     OW46759   4.239   4.141   0.928  0.0165 -0.0377  0.4379
11567SOL    HW146760   4.299   4.214   0.960  0.3716 -0.1284 -0.0322
11567SOL    HW246761   4.283   4.052   0.943 -0.7103 -0.2166  1.6842
11568SOL     OW46762   1.855   7.559   2.240  0.9397 -0.2464 -0.3648
11568SOL    HW146763   1.946   7.540   2.277  0.7232 -0.4984  0.0492
11568SOL    HW246764   1.862   7.581   2.143  1.3894 -0.7519 -0.4512
11569SOL     OW46765   8.566   1.246   7.246  0.0676  0.5404 -0.0673
11569SOL    HW146766   8.646   1.198   7.283  0.2129 -0.4839 -1.6999
11569SOL    HW246767   8.493   1.180   7.230  0.5188  0.7037 -3.0107
11570SOL     OW46768   2.424   0.857   2.285  0.1057 -0.0396  0.5671
11570SOL    HW146769   2.341   0.906   2.312  0.8638  0.9938  1.0723
11570SOL    HW246770   2.414   0.823   2.191 -0.2479  1.5657 -0.0001
11571SOL     OW46771   4.035   6.790   9.280  0.0417 -0.0930 -0.2354
11571SOL    HW146772   4.032   6.869   9.219  0.3976 -0.9085 -1.3128
11571SOL    HW246773   4.123   6.790   9.329  1.0871 -1.1849 -2.0760
11572SOL     OW46774   4.388   7.589   5.578 -0.4655 -0.1952  0.0413
11572SOL    HW146775   4.463   7.545   5.627 -2.3648 -1.2762  2.0699
11572SOL    HW246776   4.366   7.676   5.622 -0.6134 -0.0335 -0.3530
11573SOL     OW46777   7.118   3.391   0.157 -0.5648  0.4914  0.8212
11573SOL    HW146778   7.079   3.301   0.138  3.0860 -1.5600  2.5895
11573SOL    HW246779   7.121   3.406   0.255  2.3585  0.8733  0.7132
11574SOL     OW46780   7.878   0.525   9.640 -0.7967 -0.4636 -0.2767
11574SOL    HW146781   7.881   0.625   9.631 -0.8249 -0.5493 -1.2807
11574SOL    HW246782   7.794   0.490   9.599  0.0122 -1.0449 -1.4918
11575SOL     OW46783   6.511   2.609   1.723  0.0016 -0.1599  0.2057
11575SOL    HW146784   6.413   2.593   1.712 -0.2364  0.8341  0.8311
11575SOL    HW246785   6.543   2.669   1.650 -0.1674  0.7480  0.8689
11576SOL     OW46786   9.689   9.881   2.822 -0.0769  0.4943 -0.4158
11576SOL    HW146787   9.751   9.880   2.744 -0.8276 -0.3868 -1.0075
11576SOL    HW246788   9.726   9.825   2.895 -0.8102 -1.1334 -1.2766
11577SOL     OW46789   2.461   8.784   2.647 -0.8096 -0.0751  0.0099
11577SOL    HW146790   2.434   8.862   2.703 -1.7826 -0.5668  0.2413
11577SOL    HW246791   2.488   8.816   2.556 -2.3896  0.4395 -0.3051
11578SOL     OW46792   1.893   4.442   8.272  0.5027  0.4506  0.1887
11578SOL    HW146793   1.855   4.463   8.182 -1.8615 -1.0273  0.7945
11578SOL    HW246794   1.886   4.522   8.331 -0.1818  0.6861 -0.2111
11579SOL     OW46795   1.370   2.934   8.418  0.5426 -0.2070  0.5378
11579SOL    HW146796   1.341   2.851   8.466 -2.3544  0.0387 -0.6743
11579SOL    HW246797   1.464   2.922   8.384  0.0610 -3.1139  0.1188
11580SOL     OW46798   7.611   5.098   2.604  0.3271 -0.0757 -0.2866
11580SOL    HW146799   7.588   5.039   2.527 -0.4841  0.8302 -0.7439
11580SOL    HW246800   7.550   5.078   2.681 -0.5740  0.8127 -0.7613
11581SOL     OW46801   1.264   6.300   0.748 -0.2351  0.2674 -0.1172
11581SOL    HW146802   1.279   6.389   0.706 -1.5892 -0.4255 -2.1290
11581SOL    HW246803   1.332   6.235   0.715 -0.8863 -0.1081 -0.7273
11582SOL     OW46804   1.033   0.950   4.409 -0.2809  0.0192 -0.1257
11582SOL    HW146805   1.083   0.863   4.416  0.1828  0.3291  0.4511
11582SOL    HW246806   1.093   1.025   4.439 -0.5859  0.5683 -0.8808
11583SOL     OW46807   7.255   4.768   3.251 -0.5155 -0.3229 -0.4503
11583SOL    HW146808   7.326   4.836   3.233 -0.3588 -0.5059 -0.5258
11583SOL    HW246809   7.209   4.791   3.337 -0.2798 -0.2769 -0.3353
11584SOL     OW46810   8.031   1.535   6.530 -0.2842  0.2277  0.0293
11584SOL    HW146811   7.993   1.606   6.590 -0.3847 -0.7251  1.1214
11584SOL    HW246812   8.021   1.446   6.575  1.6228 -0.2488 -0.4669
11585SOL     OW46813   9.206   5.379   0.715  0.0268  0.0402  0.1543
11585SOL    HW146814   9.160   5.319   0.650 -2.6828  0.4673  1.6010
11585SOL    HW246815   9.253   5.324   0.784  1.8552 -0.4008 -1.4059
11586SOL     OW46816   5.847   8.641   4.341  0.2540 -0.1595 -0.2131
11586SOL    HW146817   5.762   8.625   4.290  0.2966  0.3323 -0.4434
11586SOL    HW246818   5.899   8.715   4.297  0.8274 -0.4949 -0.1042
11587SOL     OW46819   2.515   6.320   7.034  0.8735  0.0680  0.3867
11587SOL    HW146820   2.550   6.245   7.091  0.5366 -2.4152 -2.5650
11587SOL    HW246821   2.416   6.325   7.043  1.0561  1.3181  1.9012
11588SOL     OW46822   9.491   4.727   4.408  0.2124  0.6547 -0.0714
11588SOL    HW146823   9.588   4.708   4.425  0.1496 -1.2813 -1.7118
11588SOL    HW246824   9.435   4.660   4.456 -0.3159  1.5363  0.5559
11589SOL     OW46825   2.399   7.134   8.074 -0.0327 -0.1860  0.0810
11589SOL    HW146826   2.360   7.215   8.031 -0.2425  0.1792  0.9375
11589SOL    HW246827   2.325   7.075   8.108  0.1066 -0.9971 -1.0078
11590SOL     OW46828   8.241   0.718   3.761 -0.1042 -0.1707  0.0303
11590SOL    HW146829   8.254   0.621   3.742  1.1612  0.1491 -0.8566
11590SOL    HW246830   8.326   0.756   3.799 -1.6044 -0.0980  3.4001
11591SOL     OW46831   9.273   4.352   4.620 -0.3174  0.2308 -0.3619
11591SOL    HW146832   9.299   4.287   4.693  0.8100  0.1671 -0.8061
11591SOL    HW246833   9.297   4.313   4.531 -1.2388  0.5217 -0.7423
11592SOL     OW46834   4.245   2.774   4.729 -0.1178 -0.0885  0.5501
11592SOL    HW146835   4.271   2.871   4.731 -0.4876  0.0057  0.7369
11592SOL    HW246836   4.203   2.749   4.816  3.2798 -1.3153  1.9290
11593SOL     OW46837   1.441   3.903   7.408  0.1533 -0.2487 -0.3266
11593SOL    HW146838   1.522   3.954   7.435 -1.1970  0.9742  1.5222
11593SOL    HW246839   1.437   3.817   7.459 -0.9665  0.8157  1.4335
11594SOL     OW46840   1.093   8.995   7.911 -0.0620  0.1091  0.2206
11594SOL    HW146841   1.084   9.020   8.007 -0.6348 -0.1102  0.2287
11594SOL    HW246842   1.189   8.986   7.887  0.0808  0.1273  0.7835
11595SOL     OW46843   0.228   5.612   8.744 -0.1935  0.2792 -0.7484
11595SOL    HW146844   0.288   5.534   8.764 -0.0284 -0.4473 -3.8037
11595SOL    HW246845   0.134   5.581   8.737 -0.6272  1.0020  1.5953
11596SOL     OW46846   0.430   8.066   7.655  0.2721  0.3506  0.2559
11596SOL    HW146847   0.357   7.999   7.666 -0.8715  1.2278 -1.7874
11596SOL    HW246848   0.508   8.023   7.609 -0.1183  0.1911 -0.2594
11597SOL     OW46849   7.895   1.983   2.931  0.2391 -0.2083  0.1480
11597SOL    HW146850   7.871   1.985   3.028  2.2222  0.3577  0.6343
11597SOL    HW246851   7.835   1.918   2.884 -0.4430 -0.8174  1.8177
11598SOL     OW46852   4.313   0.107   8.420 -0.2769  0.1572 -0.4017
11598SOL    HW146853   4.394   0.119   8.477  0.9580 -0.2952 -2.0133
11598SOL    HW246854   4.321   0.163   8.337 -1.3426 -0.3361 -0.8551
11599SOL     OW46855   5.339   4.444   8.624 -0.0035 -0.3270 -0.1868
11599SOL    HW146856   5.354   4.480   8.532  0.3083 -0.4959 -0.2031
11599SOL    HW246857   5.381   4.504   8.691 -0.9073  0.2111 -0.0977
11600SOL     OW46858   6.148   1.033   2.695 -0.5901  0.3607 -0.2362
11600SOL    HW146859   6.206   0.955   2.671 -0.1693  0.8759 -0.9106
11600SOL    HW246860   6.177   1.114   2.643 -1.4611  0.7976 -0.0575
11601SOL     OW46861   6.459   3.045   0.819  0.8050 -0.0101 -0.6039
11601SOL    HW146862   6.429   2.969   0.761 -0.1081  0.4607 -0.7388
11601SOL    HW246863   6.542   3.085   0.780  0.4389  0.0307 -1.3609
11602SOL     OW46864   0.336   3.133   9.154  0.4065 -0.1527  0.3519
11602SOL    HW146865   0.319   3.217   9.103 -0.6499 -1.3733 -1.3805
11602SOL    HW246866   0.309   3.146   9.249 -0.2133  1.3186 -0.0116
11603SOL     OW46867   9.714   8.976   3.654 -0.7076  0.3637 -1.0571
11603SOL    HW146868   9.783   9.045   3.680 -1.7073  1.1847 -0.5619
11603SOL    HW246869   9.637   8.981   3.716 -0.6982 -1.3827 -0.8867
11604SOL     OW46870   1.216   6.974   7.285 -0.1622 -0.6714 -0.1605
11604SOL    HW146871   1.204   7.074   7.283  2.0667 -0.4072 -0.9684
11604SOL    HW246872   1.264   6.948   7.368  0.6457 -0.9100 -0.6984
11605SOL     OW46873   1.888   1.772   5.666  0.0066 -0.3065 -0.2191
11605SOL    HW146874   1.812   1.771   5.731  0.2549  1.8097  0.1627
11605SOL    HW246875   1.852   1.770   5.572 -0.5806  1.4487 -0.0513
11606SOL     OW46876   1.131   8.331   6.811 -0.1972 -0.0979  0.1256
11606SOL    HW146877   1.060   8.268   6.782 -0.2766  0.6401 -1.3210
11606SOL    HW246878   1.105   8.375   6.897 -1.4797  0.1572 -0.3937
11607SOL     OW46879   1.502   1.037   8.958  0.3271  0.2113 -0.2100
11607SOL    HW146880   1.402   1.028   8.956  0.4032 -0.4708 -1.9740
11607SOL    HW246881   1.539   0.989   9.037 -0.6741 -0.2500 -0.0217
11608SOL     OW46882   0.988   2.304   8.467 -0.0971  0.3758 -0.2426
11608SOL    HW146883   0.987   2.374   8.539  0.3637  0.1653 -0.0278
11608SOL    HW246884   0.904   2.311   8.413  0.4354  1.7834 -0.9031
11609SOL     OW46885   1.203   1.445   1.693 -0.5023  0.6521 -0.0707
11609SOL    HW146886   1.202   1.501   1.610 -1.2686  0.0880 -0.4435
11609SOL    HW246887   1.110   1.436   1.728 -0.2462  0.4524  0.5606
11610SOL     OW46888   7.961   4.629   7.012 -0.3866 -0.0550  0.4810
11610SOL    HW146889   7.993   4.724   7.015 -2.5862  0.7572 -0.5497
11610SOL    HW246890   7.861   4.628   7.011 -0.3933 -2.4281  1.1740
11611SOL     OW46891   8.364   6.382   4.847  0.2772 -0.1108 -0.2500
11611SOL    HW146892   8.373   6.369   4.946  0.3950 -1.4549 -0.4261
11611SOL    HW246893   8.442   6.339   4.801 -1.0651 -1.7039 -1.0787
11612SOL     OW46894   9.175   2.104   9.777 -0.4233 -0.5262  0.0293
11612SOL    HW146895   9.149   2.049   9.856  0.3883 -3.0116 -1.3382
11612SOL    HW246896   9.226   2.184   9.807 -1.5017 -0.5913  2.0993
11613SOL     OW46897   2.907   1.705   0.822 -0.0658 -0.3155  0.6211
11613SOL    HW146898   2.984   1.645   0.800  1.3715  1.7722 -0.1815
11613SOL    HW246899   2.823   1.667   0.784  0.9909 -1.2644 -0.8012
11614SOL     OW46900   3.205   4.756   4.134 -0.5122 -0.4814 -0.3918
11614SOL    HW146901   3.238   4.758   4.040 -1.4435  1.5952 -0.7119
11614SOL    HW246902   3.278   4.785   4.196 -0.3572 -0.3701 -0.6261
11615SOL     OW46903   2.795   2.617   4.952  0.3920  0.0487  0.4655
11615SOL    HW146904   2.751   2.569   4.876  0.4252 -2.8101  2.1711
11615SOL    HW246905   2.732   2.685   4.990 -1.0105 -1.0916  0.2173
11616SOL     OW46906   9.562   8.719   8.117  0.0657  0.4833 -0.2702
11616SOL    HW146907   9.533   8.750   8.207  0.8579  0.9495 -0.1755
11616SOL    HW246908   9.633   8.780   8.081  2.5249 -1.8442  0.4552
11617SOL     OW46909   8.402   5.225   8.575 -0.5404 -0.7392  0.2736
11617SOL    HW146910   8.481   5.205   8.517 -0.8685  1.2198 -0.8959
11617SOL    HW246911   8.391   5.152   8.642  1.5928 -1.5956 -0.2596
11618SOL     OW46912   4.774   0.440   8.818 -0.3251 -0.6242 -0.3625
11618SOL    HW146913   4.871   0.464   8.814 -0.1987 -1.3015 -2.1088
11618SOL    HW246914   4.719   0.516   8.784 -0.2581 -0.9839 -1.2891
11619SOL     OW46915   2.923   7.324   2.181 -0.1037  0.4568  0.2643
11619SOL    HW146916   2.901   7.375   2.098  0.1769  0.2557  0.0658
11619SOL    HW246917   2.839   7.299   2.228 -0.4513 -2.3584 -1.7214
11620SOL     OW46918   2.182   6.318   6.796 -0.1563 -0.5474  0.4132
11620SOL    HW146919   2.125   6.397   6.777  1.5409  0.4945 -0.5557
11620SOL    HW246920   2.206   6.316   6.893 -2.0187 -1.1472  0.8796
11621SOL     OW46921   9.358   5.144   7.655  0.3948 -0.4584  0.1467
11621SOL    HW146922   9.308   5.115   7.573  0.4246  2.4016 -0.9545
11621SOL    HW246923   9.431   5.207   7.628  1.0469 -0.2617  2.2954
11622SOL     OW46924   5.301   1.214   9.052 -0.6127  0.2065  0.4022
11622SOL    HW146925   5.224   1.215   8.987 -1.2040 -2.0413  1.0368
11622SOL    HW246926   5.386   1.229   9.002 -0.9532 -2.5568 -1.1020
11623SOL     OW46927   3.752   1.320   9.098 -0.4464  0.7120 -0.1126
11623SOL    HW146928   3.754   1.416   9.123 -3.0051  1.1959 -1.5260
11623SOL    HW246929   3.698   1.269   9.165  1.2052  0.1878  0.8299
11624SOL     OW46930   9.290   9.359   0.151 -0.5955  0.5757  0.1829
11624SOL    HW146931   9.308   9.366   0.249 -0.7712 -1.0326  0.3534
11624SOL    HW246932   9.230   9.280   0.134 -1.0058  1.1597 -1.1630
11625SOL     OW46933   4.952   4.533   6.228  0.1052 -0.2417  0.1111
11625SOL    HW146934   4.945   4.438   6.196  0.3715 -1.0228  2.2839
11625SOL    HW246935   4.964   4.534   6.327  0.6933  2.0639  0.0513
11626SOL     OW46936   3.469   1.820   6.640  0.0433  0.0024  0.0965
11626SOL    HW146937   3.519   1.907   6.641 -1.4328  0.8606  0.6832
11626SOL    HW246938   3.437   1.799   6.732  0.7135 -1.3674  0.0269
11627SOL     OW46939   9.797   6.668   3.532 -0.0702  0.1034 -0.1008
11627SOL    HW146940   9.731   6.731   3.572  1.1546  1.9716 -0.9408
11627SOL    HW246941   9.885   6.714   3.521  1.2416 -2.1783  0.5014
11628SOL     OW46942   9.974   3.553   3.746  0.6025 -0.4283 -0.0662
11628SOL    HW146943   9.950   3.586   3.655  0.4930 -1.7081 -0.5182
11628SOL    HW246944  10.069   3.520   3.746  0.5042 -0.7231  0.1897
11629SOL     OW46945   0.961   5.144   8.943 -0.2087 -0.4612 -0.2975
11629SOL    HW146946   0.865   5.165   8.959 -0.2367  0.0481 -1.0784
11629SOL    HW246947   0.981   5.153   8.845  0.6840 -0.3104 -0.1086
11630SOL     OW46948   0.910   3.143   8.306 -0.0450  0.0872  0.2837
11630SOL    HW146949   0.886   3.079   8.233 -1.0223 -0.8183  1.3873
11630SOL    HW246950   0.964   3.218   8.268  0.2226 -0.8437 -1.2067
11631SOL     OW46951   1.508   4.195   5.717 -0.5644 -0.1488  0.3396
11631SOL    HW146952   1.471   4.236   5.801 -2.2277  0.1055 -0.5022
11631SOL    HW246953   1.571   4.259   5.673 -0.8213  0.3014  0.6225
11632SOL     OW46954   0.535   8.842   8.726  0.0916 -0.5676 -0.3580
11632SOL    HW146955   0.630   8.855   8.754  0.4497 -0.1853 -1.7229
11632SOL    HW246956   0.522   8.748   8.695  0.2175 -0.4051 -0.9042
11633SOL     OW46957   8.647   5.900   4.824 -0.1560 -0.5950 -0.5975
11633SOL    HW146958   8.646   5.990   4.866 -0.0661 -1.7031  1.8734
11633SOL    HW246959   8.652   5.909   4.724 -2.4145  2.1418 -0.5230
11634SOL     OW46960   9.010   5.843   2.385 -0.4734  0.5105  0.0733
11634SOL    HW146961   9.047   5.875   2.298  2.2664  0.3941  1.1297
11634SOL    HW246962   9.058   5.760   2.413 -1.1050  0.7138  1.8262
11635SOL     OW46963   1.955   8.500   5.859  0.1117  0.0967  0.5542
11635SOL    HW146964   1.961   8.421   5.797  0.5996  0.8070 -0.3051
11635SOL    HW246965   1.860   8.513   5.886 -0.7067  1.9245 -2.8761
11636SOL     OW46966   7.064   9.689   7.080  0.0451  0.3994 -0.2485
11636SOL    HW146967   6.976   9.659   7.119  0.8054  0.3777  1.4870
11636SOL    HW246968   7.086   9.631   7.002  0.2889 -2.0284  1.5664
11637SOL     OW46969   2.453   7.182   4.265  0.3582 -0.5478 -0.0870
11637SOL    HW146970   2.373   7.142   4.310 -0.2105 -0.3051 -0.8789
11637SOL    HW246971   2.424   7.255   4.203  0.9783 -1.9822 -2.1228
11638SOL     OW46972   0.804   9.319   0.818 -0.4993 -0.1228 -0.2468
11638SOL    HW146973   0.813   9.221   0.835  1.1598  0.0346 -0.1197
11638SOL    HW246974   0.759   9.334   0.730  0.3137 -1.0042 -0.8126
11639SOL     OW46975   0.897   4.301   3.157 -0.0799 -0.6516  0.6870
11639SOL    HW146976   0.952   4.347   3.088 -2.1517  0.3403 -0.3605
11639SOL    HW246977   0.923   4.334   3.248  0.5566  0.3089  0.1651
11640SOL     OW46978   2.716   1.609   6.562 -0.1698 -0.0876 -0.4443
11640SOL    HW146979   2.676   1.608   6.471  1.5044  0.7608 -1.2266
11640SOL    HW246980   2.726   1.703   6.593  2.6145 -0.1735 -0.9459
11641SOL     OW46981   4.773   2.927   7.165  0.1993 -0.2932 -0.3463
11641SOL    HW146982   4.867   2.958   7.153  0.2121  0.1119  0.7756
11641SOL    HW246983   4.762   2.888   7.257 -1.2464  1.5111  0.2649
11642SOL     OW46984   6.000   0.780   4.677  0.0278 -0.1323 -0.0178
11642SOL    HW146985   6.086   0.812   4.716  1.7456 -1.9838 -2.1694
11642SOL    HW246986   5.960   0.852   4.620  0.7262  0.3064  0.0411
11643SOL     OW46987   1.473   6.672   7.981 -1.0006 -0.4706  0.2448
11643SOL    HW146988   1.567   6.674   8.013 -0.6445  1.7284 -0.8871
11643SOL    HW246989   1.441   6.577   7.978  2.3678 -1.6235 -2.8765
11644SOL     OW46990   7.838   2.061   4.625  0.0397 -0.4100 -0.1186
11644SOL    HW146991   7.773   2.136   4.639 -0.5124 -0.5869 -1.6277
11644SOL    HW246992   7.828   1.994   4.698 -0.5687  0.2138  0.3715
11645SOL     OW46993   4.861   3.019   1.320 -0.4032  0.0944 -0.3818
11645SOL    HW146994   4.821   2.932   1.290  0.4740 -0.7175  0.7569
11645SOL    HW246995   4.788   3.083   1.344 -1.0530 -0.3479 -1.1592
11646SOL     OW46996   7.962   4.629   3.229  0.7531  0.1434  0.4078
11646SOL    HW146997   7.945   4.571   3.308  4.3471 -1.0555  0.3930
11646SOL    HW246998   7.892   4.701   3.224  0.0586 -0.1854  4.2214
11647SOL     OW46999   6.875   1.330   8.004 -0.1062 -0.8592  0.7582
11647SOL    HW147000   6.947   1.355   7.938 -1.3674 -0.8146 -0.6385
11647SOL    HW247001   6.886   1.385   8.087  0.7571  0.0015  0.0951
11648SOL     OW47002   5.308   1.062   4.914 -0.1202 -0.5203  0.0890
11648SOL    HW147003   5.243   1.092   4.844 -0.8378 -1.4120  0.3540
11648SOL    HW247004   5.258   1.043   4.999  0.2967 -2.3551 -0.0459
11649SOL     OW47005   1.313   0.735   0.858 -0.1552  0.0036 -0.5181
11649SOL    HW147006   1.359   0.648   0.874  1.5396  0.9130 -0.3993
11649SOL    HW247007   1.319   0.792   0.940 -3.4444 -0.7208  0.2934
11650SOL     OW47008   9.838   3.778   2.328  0.6113 -0.7510 -0.0261
11650SOL    HW147009   9.867   3.772   2.233  0.2638  2.1879 -0.3387
11650SOL    HW247010   9.917   3.802   2.385  0.2974  0.0541  0.0754
11651SOL     OW47011   3.238   4.765   5.181 -0.2280 -0.5551 -0.2411
11651SOL    HW147012   3.284   4.830   5.242 -0.2586  0.6337 -1.4563
11651SOL    HW247013   3.165   4.812   5.132  0.7292 -1.1212 -2.2769
11652SOL     OW47014   8.912   4.822   2.502 -0.2812 -0.0748 -0.7192
11652SOL    HW147015   8.831   4.778   2.540  0.3311  0.2064  0.9826
11652SOL    HW247016   8.917   4.916   2.535  0.8789 -0.1746 -0.5935
11653SOL     OW47017   9.420   3.127   1.515  0.0804 -0.0974 -0.2566
11653SOL    HW147018   9.473   3.095   1.436 -1.9715 -1.7517 -1.0300
11653SOL    HW247019   9.349   3.060   1.536 -0.4176  1.1067  2.0113
11654SOL     OW47020   8.864   7.652   1.283 -0.5535  0.3747 -0.0304
11654SOL    HW147021   8.856   7.752   1.294 -1.5448  0.5007 -1.7137
11654SOL    HW247022   8.926   7.616   1.353  0.6693  2.3168 -0.0514
11655SOL     OW47023   6.179   1.088   6.327 -0.5271 -0.3814 -0.2306
11655SOL    HW147024   6.228   1.122   6.408 -3.1393 -1.0376  1.6860
11655SOL    HW247025   6.163   0.990   6.336 -2.9506 -0.0339 -0.3790
11656SOL     OW47026   1.872   6.327   7.493  0.2252 -0.4412  0.1158
11656SOL    HW147027   1.853   6.327   7.395 -0.7675  0.5224  0.2966
11656SOL    HW247028   1.836   6.243   7.534  1.0231 -1.0461 -0.4017
11657SOL     OW47029   0.122   2.067   9.203 -0.3414 -0.2222  0.0927
11657SOL    HW147030   0.189   2.043   9.132  0.8552  2.3328  0.3001
11657SOL    HW247031   0.059   1.990   9.217  1.1460 -1.8236 -1.7186
11658SOL     OW47032   9.876   2.620   5.102  0.3134  0.2494 -0.0601
11658SOL    HW147033   9.899   2.561   5.024 -4.8394  0.4277 -1.8883
11658SOL    HW247034   9.897   2.715   5.079 -0.5253  0.2220 -0.9334
11659SOL     OW47035   4.402   7.773   2.597  0.0994  0.1175 -0.4065
11659SOL    HW147036   4.464   7.817   2.662 -0.0290 -0.9299  0.4493
11659SOL    HW247037   4.450   7.754   2.512  1.2591 -1.5891  0.5972
11660SOL     OW47038   8.278   0.470   1.639 -0.0568  0.3414 -0.3259
11660SOL    HW147039   8.199   0.451   1.698 -0.7742  2.3871 -0.5859
11660SOL    HW247040   8.261   0.431   1.548 -1.2428  1.6447 -0.6807
11661SOL     OW47041   1.494   5.591   0.737 -0.1294  0.0857  0.7532
11661SOL    HW147042   1.430   5.514   0.740 -0.7849  0.6234  0.6436
11661SOL    HW247043   1.446   5.675   0.760  1.0183  0.2078  2.8023
11662SOL     OW47044   9.302   0.673   0.466  0.2378 -0.0145  0.5548
11662SOL    HW147045   9.271   0.632   0.380  0.1456  2.3789 -0.5864
11662SOL    HW247046   9.333   0.601   0.528 -0.8608 -1.8693 -1.0055
11663SOL     OW47047   6.599   5.499   7.393 -0.1219  0.0925  0.6410
11663SOL    HW147048   6.637   5.544   7.312  0.9071 -2.7259 -0.4951
11663SOL    HW247049   6.660   5.513   7.470 -0.3758  1.5567  0.5962
11664SOL     OW47050   7.170   3.903   1.088 -0.0713  0.1688  0.1810
11664SOL    HW147051   7.118   3.925   1.006  0.3298  2.9797  0.6253
11664SOL    HW247052   7.126   3.944   1.168  2.2065  1.7686  0.6998
11665SOL     OW47053   8.926   4.502   1.354 -0.0587  0.2458  0.1878
11665SOL    HW147054   8.912   4.555   1.270 -0.6310 -0.8154 -0.4121
11665SOL    HW247055   8.849   4.517   1.416 -1.6496 -1.9882 -1.1534
11666SOL     OW47056   4.452   4.111   6.729 -0.4484 -0.2364  0.1603
11666SOL    HW147057   4.447   4.172   6.808  1.3545  0.0394  0.0723
11666SOL    HW247058   4.424   4.019   6.755 -1.5631  0.2414  0.6901
11667SOL     OW47059   2.601   8.099   0.749  0.0278  0.3601 -0.4327
11667SOL    HW147060   2.503   8.105   0.770  0.0391  0.6831 -0.4669
11667SOL    HW247061   2.654   8.122   0.830  0.0730  0.9371 -0.6237
11668SOL     OW47062   1.412   8.180   7.492 -0.2998 -0.1366 -0.2840
11668SOL    HW147063   1.364   8.096   7.466 -0.1827 -0.4066  0.3829
11668SOL    HW247064   1.422   8.184   7.591  0.0971  0.4470 -0.3446
11669SOL     OW47065   3.560   3.492   4.150 -0.3631  0.2553 -0.3234
11669SOL    HW147066   3.615   3.511   4.069 -1.0108  0.5446 -0.6977
11669SOL    HW247067   3.602   3.536   4.230  1.0629 -1.2230 -0.2284
11670SOL     OW47068   9.111   2.725   1.514 -0.3432 -0.1944 -0.0833
11670SOL    HW147069   9.018   2.723   1.551  0.0254  0.2909  0.8794
11670SOL    HW247070   9.157   2.808   1.545 -0.2501  0.5661 -2.1953
11671SOL     OW47071   2.755   6.707   3.815  0.4449  0.3220 -0.1362
11671SOL    HW147072   2.705   6.788   3.845  2.9601  0.9245  2.5697
11671SOL    HW247073   2.793   6.723   3.724  0.6332  2.0383  0.2342
11672SOL     OW47074   3.714   9.648   5.423  0.1352  0.0524  0.8345
11672SOL    HW147075   3.667   9.593   5.492 -0.3633 -0.5804  0.0099
11672SOL    HW247076   3.810   9.618   5.415  0.3035  0.4102  1.5438
11673SOL     OW47077   1.861   6.442   5.627 -0.4814  0.2268  0.8134
11673SOL    HW147078   1.789   6.510   5.613 -0.9772 -0.3531  0.5299
11673SOL    HW247079   1.901   6.453   5.718 -1.4752  0.0328  1.2719
11674SOL     OW47080   9.220   6.013   8.389 -0.0799  0.8881 -0.3006
11674SOL    HW147081   9.203   6.110   8.405  2.8670  1.6103 -1.2304
11674SOL    HW247082   9.310   5.988   8.425 -0.3964 -1.2754 -0.9267
11675SOL     OW47083   3.514   2.450   4.199 -0.0475  0.6659 -1.3502
11675SOL    HW147084   3.611   2.425   4.201 -0.5500 -1.3507 -0.1234
11675SOL    HW247085   3.474   2.423   4.111  0.5483  1.7320 -1.9535
11676SOL     OW47086   2.501   7.440   0.152 -0.1570 -0.5107  0.1505
11676SOL    HW147087   2.575   7.384   0.115  0.7591  1.0088 -0.3221
11676SOL    HW247088   2.508   7.443   0.252  0.7032  0.0269  0.0761
11677SOL     OW47089   0.986   2.545   1.665 -0.3141  0.0675  0.1339
11677SOL    HW147090   0.949   2.457   1.696 -0.8575  0.2502  0.0040
11677SOL    HW247091   0.942   2.619   1.716 -0.6371  0.3250 -0.5285
11678SOL     OW47092   7.468   0.770   4.627  0.3825 -0.2885 -0.9274
11678SOL    HW147093   7.402   0.799   4.557 -0.9512 -0.1003  0.3822
11678SOL    HW247094   7.495   0.850   4.681  1.2469 -0.4740 -1.0820
11679SOL     OW47095   8.807   0.729   9.325  0.3452  0.8176 -0.3375
11679SOL    HW147096   8.836   0.779   9.407 -2.4714  1.2868  0.4218
11679SOL    HW247097   8.835   0.633   9.333  0.2476  0.8996  1.0878
11680SOL     OW47098   9.754   7.846   1.649 -0.2851 -0.5028  0.3617
11680SOL    HW147099   9.821   7.772   1.644  0.9433  0.4560  1.7557
11680SOL    HW247100   9.771   7.900   1.732 -2.2606  0.2799  0.2764
11681SOL     OW47101   4.111   4.057   1.461 -0.3559  0.5219  0.4392
11681SOL    HW147102   4.053   3.992   1.509 -0.2414 -0.3103 -0.5347
11681SOL    HW247103   4.057   4.136   1.431 -1.3402 -1.0197 -1.9127
11682SOL     OW47104   0.246   5.531   7.086 -0.0432 -0.2580 -0.1163
11682SOL    HW147105   0.241   5.589   7.004  0.8770  1.2426  0.8582
11682SOL    HW247106   0.178   5.458   7.079 -0.5114  0.3054 -1.8608
11683SOL     OW47107   5.475   5.783   9.642 -0.4668  0.3976 -0.7109
11683SOL    HW147108   5.444   5.777   9.547 -0.2998  0.0180 -0.7397
11683SOL    HW247109   5.420   5.722   9.699  0.8069 -0.9346 -0.9068
11684SOL     OW47110   7.876   1.357   4.170  0.1286  0.3433  0.1649
11684SOL    HW147111   7.937   1.283   4.198 -2.5993 -2.3123 -0.6686
11684SOL    HW247112   7.899   1.386   4.077 -0.3867 -1.1981 -0.4504
11685SOL     OW47113   7.576   7.442   8.653 -0.4917 -0.0455  0.2890
11685SOL    HW147114   7.491   7.468   8.699 -0.8386 -0.6275 -0.0141
11685SOL    HW247115   7.558   7.428   8.556 -0.1988 -0.8250  0.3388
11686SOL     OW47116   8.348   9.600   5.477 -0.5039  0.1394  0.0895
11686SOL    HW147117   8.415   9.568   5.409 -1.6990  1.4506 -1.7455
11686SOL    HW247118   8.387   9.676   5.529 -0.0553 -0.0181 -0.0128
11687SOL     OW47119   7.792   7.123   5.582 -0.0984  0.1180  0.3452
11687SOL    HW147120   7.761   7.088   5.493 -1.6420 -0.0648  0.9380
11687SOL    HW247121   7.750   7.212   5.599  0.3431  0.2353  0.8158
11688SOL     OW47122   4.390   3.307   2.021 -0.2766 -0.5833 -0.2350
11688SOL    HW147123   4.443   3.379   1.976  0.6904 -0.1385  1.5591
11688SOL    HW247124   4.433   3.218   2.002 -0.7154 -0.5549 -1.3737
11689SOL     OW47125   2.269   3.837   4.353 -0.4793  0.1837 -0.3885
11689SOL    HW147126   2.190   3.885   4.315 -0.2760  0.5085 -0.4030
11689SOL    HW247127   2.245   3.742   4.372 -0.5937  0.0373 -1.2802
11690SOL     OW47128   5.319   0.850   9.503  0.0055 -0.0711  0.1908
11690SOL    HW147129   5.375   0.932   9.491 -0.7820  0.9219  2.9503
11690SOL    HW247130   5.271   0.855   9.590 -2.8621 -1.8179 -1.2094
11691SOL     OW47131   5.186   2.639   2.024  0.0044 -0.2146 -0.0933
11691SOL    HW147132   5.248   2.566   2.051 -0.1769 -0.8585 -1.3987
11691SOL    HW247133   5.182   2.709   2.097 -0.6139 -1.9933  1.6280
11692SOL     OW47134   0.010   6.686   7.945 -0.3900 -0.0830  0.0453
11692SOL    HW147135  -0.073   6.631   7.939 -0.8376  0.4601  1.1829
11692SOL    HW247136   0.002   6.750   8.021  0.7518  0.5100 -0.3270
11693SOL     OW47137   8.451   3.211   5.737 -0.3203 -0.0270  0.0014
11693SOL    HW147138   8.397   3.184   5.817 -1.8154 -0.4858 -1.1511
11693SOL    HW247139   8.442   3.309   5.721 -1.1492 -0.1738 -0.4353
11694SOL     OW47140   0.420   9.003   0.740  0.7968  0.0600 -0.1233
11694SOL    HW147141   0.445   9.099   0.751 -0.6410  0.4982 -0.5549
11694SOL    HW247142   0.458   8.950   0.815 -0.3955  1.3523  1.4316
11695SOL     OW47143   2.204   7.751   1.103  0.7375  0.2952 -0.3249
11695SOL    HW147144   2.119   7.747   1.156  1.9726 -0.4417  1.6859
11695SOL    HW247145   2.188   7.714   1.012 -1.2026  0.5745 -0.1215
11696SOL     OW47146   6.266   3.031   2.060  0.1946 -0.1526  0.5795
11696SOL    HW147147   6.322   2.969   2.006  0.2653 -0.6316  1.2025
11696SOL    HW247148   6.277   3.011   2.157  1.1670  1.6478  0.8573
11697SOL     OW47149   3.790   8.816   2.558  0.2645 -0.0570 -0.0920
11697SOL    HW147150   3.853   8.803   2.635  1.1957  0.8860 -0.6982
11697SOL    HW247151   3.775   8.913   2.543 -0.9335 -0.2596 -0.3039
11698SOL     OW47152   6.671   2.227   5.907 -0.1685 -0.4229  0.6798
11698SOL    HW147153   6.731   2.291   5.859 -1.8415 -0.0892 -1.0012
11698SOL    HW247154   6.713   2.136   5.906  0.5772 -0.0773 -0.0051
11699SOL     OW47155   7.562   6.273   5.449  0.1708  0.2771 -0.2508
11699SOL    HW147156   7.622   6.250   5.525  1.7453 -0.0330 -1.5555
11699SOL    HW247157   7.595   6.357   5.404  0.2226 -0.4407 -1.5883
11700SOL     OW47158   7.168   4.153   1.927  0.2507 -0.2504  0.4539
11700SOL    HW147159   7.238   4.122   1.991 -0.4340 -2.5743  0.1134
11700SOL    HW247160   7.172   4.097   1.844  0.1782  1.7815 -0.9645
11701SOL     OW47161   8.950   4.985   4.544  0.1861 -0.4011  0.2492
11701SOL    HW147162   8.858   5.013   4.571  1.1377  2.6390  0.4804
11701SOL    HW247163   9.018   5.041   4.592  2.1026 -0.2370 -2.5298
11702SOL     OW47164   1.653   1.566   6.397 -0.2069 -0.2304  0.5480
11702SOL    HW147165   1.621   1.639   6.337  1.0679  1.4355  1.8494
11702SOL    HW247166   1.574   1.514   6.430 -1.1825  0.8902  0.0515
11703SOL     OW47167   9.054   7.593   3.083 -0.0121 -0.0521  0.5289
11703SOL    HW147168   9.002   7.517   3.043  0.1578  0.0252  0.1549
11703SOL    HW247169   9.146   7.594   3.044 -0.2508  0.7900 -0.0130
11704SOL     OW47170   2.685   2.854   4.631  0.2608  0.2104  0.5106
11704SOL    HW147171   2.778   2.865   4.666 -0.0198 -1.0934  1.7477
11704SOL    HW247172   2.620   2.889   4.698 -0.2005 -0.2604  0.3086
11705SOL     OW47173   2.268   5.546   9.443 -0.0115  0.0456 -0.5555
11705SOL    HW147174   2.252   5.485   9.520 -2.2401 -0.8423 -1.6943
11705SOL    HW247175   2.319   5.626   9.474 -3.4428  1.1676  2.4983
11706SOL     OW47176   9.366   0.157   4.778 -0.1713 -0.3439 -0.5569
11706SOL    HW147177   9.460   0.138   4.805  0.0903  2.3084  0.5181
11706SOL    HW247178   9.304   0.131   4.852 -0.1220 -0.3882 -0.5314
11707SOL     OW47179   0.627   6.994   1.672  0.0420  0.0723  0.0492
11707SOL    HW147180   0.679   7.013   1.755 -2.2731  0.8105  1.3646
11707SOL    HW247181   0.558   6.924   1.691  0.9126 -1.3245 -1.8243
11708SOL     OW47182   1.617   3.938   6.728 -0.4941 -0.0422 -0.5365
11708SOL    HW147183   1.707   3.894   6.721 -0.3584  0.2085 -0.4018
11708SOL    HW247184   1.579   3.950   6.636 -0.1658  0.3030 -0.6297
11709SOL     OW47185   3.283   3.702   6.707 -0.1977 -0.3605  0.1368
11709SOL    HW147186   3.188   3.727   6.689  0.5385  3.5915  1.4037
11709SOL    HW247187   3.293   3.673   6.802  0.1109  0.3604  0.3190
11710SOL     OW47188   4.013   0.775   7.813 -0.1655 -0.2107 -0.4644
11710SOL    HW147189   3.963   0.808   7.733 -2.3758 -1.1610  0.4670
11710SOL    HW247190   4.046   0.683   7.796  0.1292 -0.0746 -0.6175
11711SOL     OW47191   9.850   0.779   9.016  0.2665  0.7177 -0.0469
11711SOL    HW147192   9.791   0.842   9.067 -0.0701  1.8316 -1.7734
11711SOL    HW247193   9.890   0.826   8.938 -0.1475 -1.2422 -1.5055
11712SOL     OW47194   8.583   9.707   1.920 -0.0294 -0.3932 -0.0774
11712SOL    HW147195   8.584   9.740   1.825  1.8217 -0.0180  0.0569
11712SOL    HW247196   8.521   9.764   1.974  0.1556  0.4206 -0.7109
11713SOL     OW47197   7.028   0.303   1.381  0.2880  0.2246  0.2482
11713SOL    HW147198   7.056   0.275   1.473 -0.9011  0.3123  0.6456
11713SOL    HW247199   6.973   0.386   1.387  1.5633  1.1503 -0.7002
11714SOL     OW47200   1.006   3.683   4.313  0.2586  0.7616  0.1807
11714SOL    HW147201   1.059   3.742   4.253  1.9278  1.7322  2.5211
11714SOL    HW247202   1.051   3.677   4.402 -2.9609  0.7034  1.8955
11715SOL     OW47203   8.423   4.576   9.712  0.1420 -0.5250 -0.2285
11715SOL    HW147204   8.390   4.588   9.806  2.3098 -2.5468  0.8315
11715SOL    HW247205   8.353   4.609   9.648 -1.2424  1.1892  2.0715
11716SOL     OW47206   6.949   6.437   4.731  0.2412  0.2063 -0.0401
11716SOL    HW147207   7.024   6.473   4.676  1.4668  0.6450  1.8651
11716SOL    HW247208   6.928   6.501   4.805 -0.8045 -0.7453  0.4991
11717SOL     OW47209   1.607   1.713   3.318 -0.1880 -0.3840  0.2575
11717SOL    HW147210   1.586   1.811   3.319  0.0132 -0.3248  2.0956
11717SOL    HW247211   1.608   1.679   3.224  0.6382  1.5791 -0.4741
11718SOL     OW47212   0.830   3.169   3.706  0.3796 -0.2418 -0.3440
11718SOL    HW147213   0.794   3.242   3.765 -1.1350 -0.0972 -1.4114
11718SOL    HW247214   0.925   3.189   3.682  0.6035  0.3472  1.0154
11719SOL     OW47215   0.447   4.218   6.479 -0.1858  0.4384  0.0586
11719SOL    HW147216   0.504   4.189   6.402  0.3508  0.8192  0.3073
11719SOL    HW247217   0.463   4.157   6.556 -0.9399 -0.1197 -0.2157
11720SOL     OW47218   8.422   5.729   8.143  0.2037  0.0286  0.2168
11720SOL    HW147219   8.511   5.764   8.172  0.3959  0.6524 -1.0567
11720SOL    HW247220   8.409   5.637   8.179  2.1507 -0.7626 -1.0123
11721SOL     OW47221   4.391   5.822   7.395  0.0839  0.2551 -0.2867
11721SOL    HW147222   4.418   5.905   7.445  0.0259  0.4992 -0.6601
11721SOL    HW247223   4.411   5.742   7.451  0.4686  0.5025 -0.0670
11722SOL     OW47224   1.862   8.749   6.386 -0.2184 -0.6301  0.1089
11722SOL    HW147225   1.919   8.701   6.320  0.3076 -2.2939  1.7218
11722SOL    HW247226   1.905   8.836   6.410 -0.2110 -0.2024 -1.3826
11723SOL     OW47227   0.313   1.662   7.258 -0.6983  0.0042  0.0180
11723SOL    HW147228   0.324   1.675   7.160  0.1098 -1.1504 -0.0571
11723SOL    HW247229   0.403   1.650   7.300 -1.0006  0.9834  0.9797
11724SOL     OW47230   2.537   0.212   0.344 -0.0988 -0.3118  0.2195
11724SOL    HW147231   2.505   0.160   0.265  0.6597  0.3140 -0.5154
11724SOL    HW247232   2.587   0.151   0.406 -1.1843 -0.9201  0.5089
11725SOL     OW47233   0.364   7.912   7.378  0.2151 -0.8534 -0.5087
11725SOL    HW147234   0.318   7.883   7.461  0.8852 -0.4287  0.0140
11725SOL    HW247235   0.452   7.863   7.370  1.1002  0.5988  0.0991
11726SOL     OW47236   1.970   6.266   8.910  0.4336  0.3587 -0.0022
11726SOL    HW147237   1.973   6.320   8.826 -1.3876  0.6930  0.1267
11726SOL    HW247238   1.879   6.271   8.950  0.6942 -1.4862  0.9005
11727SOL     OW47239   3.142   5.082   1.348 -0.0916  0.2580  0.0981
11727SOL    HW147240   3.116   5.174   1.318 -0.0137 -0.2572 -1.5997
11727SOL    HW247241   3.115   5.069   1.444 -2.8099  1.0149 -0.5242
11728SOL     OW47242   3.366   9.377   3.034 -0.2281 -0.2782 -0.1992
11728SOL    HW147243   3.317   9.426   3.106  0.4245  0.0004  0.0502
11728SOL    HW247244   3.417   9.301   3.074  0.6569  0.2712 -0.2874
11729SOL     OW47245   1.593   9.819   8.098  0.0687  0.7281 -0.5042
11729SOL    HW147246   1.574   9.811   8.195 -0.1715 -1.5046 -0.7074
11729SOL    HW247247   1.508   9.810   8.046  0.3545  0.6911 -0.9737
11730SOL     OW47248   9.123   2.540   8.823  0.4707  0.3312 -0.7974
11730SOL    HW147249   9.154   2.449   8.794  0.6771  0.2438 -0.3135
11730SOL    HW247250   9.083   2.588   8.745  1.5771  0.3360 -1.3743
11731SOL     OW47251   3.794   0.924   1.794 -0.4985 -0.8973  0.0472
11731SOL    HW147252   3.875   0.906   1.850  0.2260 -0.2897 -0.7919
11731SOL    HW247253   3.777   0.845   1.734  0.1775 -0.5558 -0.6108
11732SOL     OW47254   4.526   8.989   5.896  0.2338  0.2749  0.9751
11732SOL    HW147255   4.569   8.899   5.893  1.8729  1.0736  0.3696
11732SOL    HW247256   4.535   9.027   5.988 -0.3188 -0.1024  1.1886
11733SOL     OW47257   9.603   7.257   8.679 -0.3502 -0.2837 -0.7591
11733SOL    HW147258   9.513   7.275   8.718 -0.3042 -0.6099 -0.5089
11733SOL    HW247259   9.595   7.249   8.579 -0.6936 -0.9314 -0.6775
11734SOL     OW47260   1.637   0.755   5.758 -0.1538  0.3528  0.0891
11734SOL    HW147261   1.728   0.725   5.789  0.7829  2.5054 -0.4648
11734SOL    HW247262   1.571   0.742   5.832  0.6945 -0.8610  0.6481
11735SOL     OW47263   2.809   3.848   0.837 -0.6526 -0.0376 -0.4320
11735SOL    HW147264   2.711   3.863   0.831 -1.0981 -2.7437 -0.6706
11735SOL    HW247265   2.852   3.876   0.751 -1.0366  2.0922  0.0350
11736SOL     OW47266   4.224   9.013   8.692  0.2133  1.0368  0.0947
11736SOL    HW147267   4.139   9.028   8.742 -0.2971  0.0674 -0.4601
11736SOL    HW247268   4.229   9.075   8.614 -0.7148  0.0734 -0.7534
11737SOL     OW47269   6.313   4.836   1.894 -0.0944 -0.2949 -0.3061
11737SOL    HW147270   6.327   4.851   1.796 -0.2619  0.9179 -0.1559
11737SOL    HW247271   6.401   4.816   1.937  0.4001  1.8369 -0.2720
11738SOL     OW47272   4.465   1.600   1.770 -0.4617  0.1777 -0.8900
11738SOL    HW147273   4.519   1.553   1.839  0.7566  1.7175 -0.7534
11738SOL    HW247274   4.415   1.534   1.714 -0.8847 -1.1003  0.9926
11739SOL     OW47275   0.758   2.381   8.734 -0.0626  0.3163 -0.2615
11739SOL    HW147276   0.733   2.309   8.669  0.0803  0.9673 -1.0402
11739SOL    HW247277   0.785   2.339   8.820 -2.0045 -0.4818 -0.0099
11740SOL     OW47278   9.203   5.897   4.399 -0.4146 -0.1758  0.3422
11740SOL    HW147279   9.230   5.980   4.448 -1.7624 -0.1946  1.1499
11740SOL    HW247280   9.281   5.834   4.395  0.6751  1.1689 -0.4242
11741SOL     OW47281   2.467   6.877   7.578 -0.4805 -0.0273 -0.1862
11741SOL    HW147282   2.420   6.913   7.658 -2.0153  1.7055 -1.8246
11741SOL    HW247283   2.514   6.792   7.603  2.2011  2.3953  3.4417
11742SOL     OW47284   4.087   9.420   8.206  0.7341  0.2209  0.2587
11742SOL    HW147285   4.047   9.357   8.139 -0.1373  0.7869  0.2509
11742SOL    HW247286   4.156   9.371   8.260  1.1598 -0.3451 -0.7807
11743SOL     OW47287   4.011   8.625   8.040 -0.6253 -0.0294  0.0028
11743SOL    HW147288   4.099   8.668   8.058 -1.0022  0.8795 -0.3252
11743SOL    HW247289   3.971   8.663   7.957  0.1167 -2.6899 -1.6534
11744SOL     OW47290   3.524   3.726   2.981  0.7720  0.1298 -0.3155
11744SOL    HW147291   3.599   3.713   3.046  0.1298 -1.2308  0.1813
11744SOL    HW247292   3.437   3.732   3.030  0.3138 -0.5740 -1.0151
11745SOL     OW47293   9.827   9.140   5.503 -0.3197  0.2030  0.4178
11745SOL    HW147294   9.869   9.153   5.413 -1.0326  1.4856  0.2521
11745SOL    HW247295   9.899   9.135   5.573  0.2082 -0.1222 -0.1408
11746SOL     OW47296   5.688   9.810   4.425 -0.1678 -0.1642 -0.5631
11746SOL    HW147297   5.672   9.752   4.345 -0.2382 -0.1345 -0.5710
11746SOL    HW247298   5.782   9.844   4.423  0.0607 -0.7835 -0.2228
11747SOL     OW47299   2.036   4.034   6.304 -0.2148 -0.3333  0.5016
11747SOL    HW147300   2.124   3.993   6.326 -0.4837 -0.5137  1.2643
11747SOL    HW247301   2.035   4.129   6.335 -0.3820 -0.4107  0.7348
11748SOL     OW47302   0.989   6.304   0.526 -0.3141 -0.4781  0.1470
11748SOL    HW147303   0.902   6.350   0.545 -0.3740 -0.7164  0.4496
11748SOL    HW247304   1.025   6.264   0.610  0.6780  0.6287  0.2586
11749SOL     OW47305   2.056   3.989   4.644 -0.0230 -0.0796 -0.6033
11749SOL    HW147306   2.093   3.916   4.702  0.2091  0.7015  0.2364
11749SOL    HW247307   2.004   4.053   4.700  0.9247  1.1597 -1.1027
11750SOL     OW47308   4.979   1.835   5.669 -0.5044  0.6514  0.3878
11750SOL    HW147309   4.986   1.740   5.636  2.3383 -0.2489  3.2362
11750SOL    HW247310   4.993   1.898   5.593 -1.0240 -1.2495 -1.3158
11751SOL     OW47311   7.349   7.565   8.405  0.2708 -0.3368  0.0569
11751SOL    HW147312   7.418   7.500   8.374  1.6391  1.1615 -0.1370
11751SOL    HW247313   7.307   7.610   8.326 -0.3692 -0.6875  0.1985
11752SOL     OW47314   2.463   3.706   8.239 -0.2530 -0.1192  0.1467
11752SOL    HW147315   2.552   3.750   8.236 -0.2164 -0.0848  1.3978
11752SOL    HW247316   2.471   3.618   8.286 -0.6290 -0.7084 -0.8984
11753SOL     OW47317   3.648   9.115   5.982  0.2983  0.6451 -0.0599
11753SOL    HW147318   3.552   9.091   5.974  0.4553  0.2644 -0.9087
11753SOL    HW247319   3.687   9.125   5.890  0.8720  1.5709  0.2832
11754SOL     OW47320   7.822   4.235   0.581  0.1980 -0.1619  0.0595
11754SOL    HW147321   7.727   4.248   0.551  0.2378  0.4937  0.2174
11754SOL    HW247322   7.866   4.169   0.520 -0.0059  0.4416 -0.7670
11755SOL     OW47323   7.111   1.063   5.964 -0.0419  0.6629  0.0827
11755SOL    HW147324   7.073   1.073   6.056  2.5561  0.2740  1.2300
11755SOL    HW247325   7.119   0.965   5.943 -0.3415  0.7519 -0.4596
11756SOL     OW47326   7.448   9.616   6.729  0.2204  0.0470 -0.6836
11756SOL    HW147327   7.353   9.647   6.735  0.0653 -0.2658 -1.5139
11756SOL    HW247328   7.464   9.572   6.640  0.6674 -1.4699  0.1187
11757SOL     OW47329   8.522   9.404   1.423 -0.1412  0.3153 -0.3521
11757SOL    HW147330   8.607   9.361   1.393 -0.3107  0.6454 -1.3312
11757SOL    HW247331   8.532   9.504   1.419 -0.4450  0.3570 -0.0952
11758SOL     OW47332   0.302   9.739   3.592 -0.0230 -0.2729  0.3407
11758SOL    HW147333   0.354   9.734   3.677  0.2732  0.1202  0.1822
11758SOL    HW247334   0.206   9.757   3.613 -0.0060 -0.4877  0.6074
11759SOL     OW47335   3.874   3.264   9.807 -0.2282 -0.1615  0.5948
11759SOL    HW147336   3.950   3.326   9.828  0.3461 -0.0046 -1.8555
11759SOL    HW247337   3.789   3.315   9.804  0.1069  0.3404 -0.4351
11760SOL     OW47338   8.875   1.923   7.019 -0.1096  0.9530 -0.2029
11760SOL    HW147339   8.861   1.857   6.945 -1.8955  1.4638 -0.3437
11760SOL    HW247340   8.910   2.009   6.981 -3.8156  2.2310 -0.9150
11761SOL     OW47341  -0.002   7.348   8.455  0.0480  0.0291  0.3574
11761SOL    HW147342  -0.031   7.442   8.437 -0.8885 -0.3863 -0.3524
11761SOL    HW247343   0.092   7.335   8.423  0.4894  0.9648  1.2559
11762SOL     OW47344   8.746   6.779   3.201 -1.0641 -0.3374  0.0880
11762SOL    HW147345   8.716   6.868   3.235 -0.8597 -0.2823  0.1205
11762SOL    HW247346   8.842   6.764   3.225 -1.3207 -0.9050  0.7915
11763SOL     OW47347   1.232   3.381   4.275  0.2076  0.1503  0.0380
11763SOL    HW147348   1.277   3.384   4.364 -0.6680  2.1045  0.4482
11763SOL    HW247349   1.136   3.357   4.286 -0.1762  1.4826 -0.2327
11764SOL     OW47350   2.899   5.290   8.874 -0.9801  0.1846  0.1785
11764SOL    HW147351   2.842   5.328   8.802 -0.5525  0.8935  0.2055
11764SOL    HW247352   2.971   5.355   8.897 -0.2626 -0.6255  0.2628
11765SOL     OW47353   8.932   7.974   2.775 -0.1048 -0.2052 -0.4157
11765SOL    HW147354   9.012   7.924   2.808 -0.7249  0.3247  1.9631
11765SOL    HW247355   8.960   8.037   2.702  1.7347  0.2650  0.6599
11766SOL     OW47356   3.751   6.767   0.239 -0.0088 -0.5426  0.1750
11766SOL    HW147357   3.743   6.742   0.336 -1.1118 -1.7119 -0.2145
11766SOL    HW247358   3.755   6.866   0.231 -0.8581 -0.4056  1.3520
11767SOL     OW47359   1.212   5.939   7.589 -0.9728  0.1748 -0.7498
11767SOL    HW147360   1.248   5.954   7.681 -2.4140 -0.1637 -0.1206
11767SOL    HW247361   1.283   5.959   7.521  0.3437 -0.3564  0.4633
11768SOL     OW47362   9.986   9.033   9.589  0.4362 -0.3380 -0.3849
11768SOL    HW147363   9.927   9.016   9.510  2.3245 -0.7917 -1.7394
11768SOL    HW247364  10.010   9.130   9.594 -1.4303  0.0785  0.9221
11769SOL     OW47365   4.472   3.147   1.127 -0.3582 -0.2751  0.5445
11769SOL    HW147366   4.558   3.185   1.094 -0.1725 -0.2455  1.0478
11769SOL    HW247367   4.396   3.183   1.073 -0.0920  0.0471  0.3867
11770SOL     OW47368   8.176   7.309   9.102 -0.1469  0.3410  0.3150
11770SOL    HW147369   8.089   7.265   9.079 -0.7767  0.5647  2.1761
11770SOL    HW247370   8.217   7.348   9.019 -1.3729 -0.5431 -0.7287
11771SOL     OW47371   7.516   8.845   5.289 -0.0560 -0.3725  0.0167
11771SOL    HW147372   7.478   8.797   5.210  0.4840  0.2656 -0.6361
11771SOL    HW247373   7.449   8.844   5.363 -0.0886 -2.0705 -0.0070
11772SOL     OW47374   5.178   4.355   1.969  0.0846 -0.4491 -0.7650
11772SOL    HW147375   5.245   4.375   2.041  2.3670 -1.8874 -2.4162
11772SOL    HW247376   5.226   4.344   1.882 -2.5759  0.7074 -2.4135
11773SOL     OW47377   9.030   9.721   6.429 -0.0309 -0.4418  0.1782
11773SOL    HW147378   8.943   9.673   6.431  0.6892 -1.7168  1.8157
11773SOL    HW247379   9.040   9.767   6.341 -0.4400 -3.8211 -1.7208
11774SOL     OW47380   2.462   5.214   7.363  0.2173 -0.3571 -0.4525
11774SOL    HW147381   2.479   5.163   7.448  1.4078  2.1546  0.8904
11774SOL    HW247382   2.364   5.217   7.345 -0.1906  0.4160  1.7357
11775SOL     OW47383   0.527   5.484   4.438  0.9740 -0.0860 -0.6483
11775SOL    HW147384   0.547   5.578   4.413 -0.3870  0.2014 -0.6636
11775SOL    HW247385   0.490   5.435   4.360  1.0717 -0.4640 -0.4622
11776SOL     OW47386   2.118   4.006   5.911 -0.1409 -0.4734  0.5634
11776SOL    HW147387   2.187   4.021   5.983  0.0130  1.9360 -0.0620
11776SOL    HW247388   2.043   4.071   5.923 -0.7951 -1.0010 -0.6460
11777SOL     OW47389   3.845   3.466   4.668  0.0831 -0.1352  0.2399
11777SOL    HW147390   3.782   3.499   4.738  2.4840  0.9938  1.9271
11777SOL    HW247391   3.939   3.488   4.695  1.2691 -2.4815 -1.8376
11778SOL     OW47392   3.166   4.352   3.615  0.1583 -0.3225 -0.0089
11778SOL    HW147393   3.142   4.322   3.708 -0.7538  1.5414  0.3892
11778SOL    HW247394   3.096   4.321   3.551 -0.5342  0.5220  0.3273
11779SOL     OW47395   6.167   8.426   3.773 -0.6957  0.5329 -0.1880
11779SOL    HW147396   6.082   8.422   3.825 -2.3999  2.0752 -2.7693
11779SOL    HW247397   6.160   8.495   3.702  3.4573  2.0921  0.7598
11780SOL     OW47398   2.120   1.776   9.412  0.1033  0.6280  0.4077
11780SOL    HW147399   2.187   1.846   9.435  0.4361 -0.2111  2.0506
11780SOL    HW247400   2.155   1.686   9.436 -1.0748  0.0565  0.0526
11781SOL     OW47401   1.037   8.859   3.057  0.3525  0.1416  0.2205
11781SOL    HW147402   0.943   8.834   3.037  0.1020  1.7540 -0.7372
11781SOL    HW247403   1.049   8.866   3.156 -0.2546 -1.0488  0.3842
11782SOL     OW47404   0.930   3.177   2.746  0.3708  0.2250 -0.5479
11782SOL    HW147405   1.027   3.168   2.770  0.4466  0.1217 -0.8955
11782SOL    HW247406   0.874   3.154   2.826  0.6360  0.6037 -0.2527
11783SOL     OW47407   2.014   8.021   4.868 -0.5209 -0.2016 -0.1260
11783SOL    HW147408   1.934   8.057   4.820 -0.0393  1.0565 -0.0122
11783SOL    HW247409   2.090   8.012   4.803 -0.5350 -0.6757 -0.0775
11784SOL     OW47410   6.622   0.663   3.726  0.3925 -0.0586 -0.1199
11784SOL    HW147411   6.713   0.658   3.767  0.2729 -1.5979 -0.0009
11784SOL    HW247412   6.555   0.623   3.789 -0.0693 -0.7553 -1.0459
11785SOL     OW47413   3.535   8.095   0.788 -0.0308  0.2806  0.0870
11785SOL    HW147414   3.562   8.177   0.736  0.8218 -1.0928 -1.6840
11785SOL    HW247415   3.608   8.070   0.851  0.2303  0.1763 -0.2536
11786SOL     OW47416   5.144   1.219   5.382 -0.0546 -0.3099 -0.1797
11786SOL    HW147417   5.108   1.284   5.449 -0.2770 -0.6290  0.0168
11786SOL    HW247418   5.219   1.260   5.332  0.2352 -0.1310  0.3977
11787SOL     OW47419   5.568   5.136   9.015  0.2085  0.1429  0.5211
11787SOL    HW147420   5.476   5.122   9.052  0.4634 -1.9172  0.4052
11787SOL    HW247421   5.627   5.173   9.087 -0.5169  0.8115  0.7860
11788SOL     OW47422   0.604   9.248   5.500 -0.3117 -0.0278 -0.4469
11788SOL    HW147423   0.585   9.329   5.555  0.3740  0.6531 -1.1890
11788SOL    HW247424   0.588   9.269   5.403  0.5983 -0.5374 -0.7190
11789SOL     OW47425   7.788   2.409   4.934 -0.0860 -0.7244  0.2163
11789SOL    HW147426   7.858   2.384   5.001  0.5836 -0.0303 -0.2231
11789SOL    HW247427   7.698   2.405   4.977  0.3855  0.3064  1.3357
11790SOL     OW47428   4.134   7.761   9.743  0.0089  0.2555 -0.3208
11790SOL    HW147429   4.056   7.755   9.806  0.3796 -0.0285  0.1195
11790SOL    HW247430   4.204   7.820   9.783  0.6203 -0.6425 -0.0631
11791SOL     OW47431   2.966   6.631   6.617  0.3877  0.3313  0.4048
11791SOL    HW147432   2.959   6.543   6.569  2.3223  0.6450 -0.5255
11791SOL    HW247433   3.030   6.622   6.693 -0.2863  0.6494  1.0105
11792SOL     OW47434   4.943   3.582   6.168  0.1969  0.1771  0.4047
11792SOL    HW147435   5.008   3.514   6.134  1.1662  0.4642  1.6399
11792SOL    HW247436   4.863   3.584   6.109  2.3008  1.4694 -2.5768
11793SOL     OW47437   9.265   2.659   0.236 -0.4068  0.1924  0.0331
11793SOL    HW147438   9.304   2.668   0.145  0.5870  0.6014  0.4960
11793SOL    HW247439   9.168   2.684   0.233 -0.3620  0.2664 -0.8970
11794SOL     OW47440   0.235   9.458   0.652  0.3207  0.0090 -0.2180
11794SOL    HW147441   0.214   9.509   0.735 -0.6068  0.4634 -0.7300
11794SOL    HW247442   0.330   9.475   0.625  0.8371 -0.6608  1.1072
11795SOL     OW47443   3.929   1.966   2.054 -0.4944  0.3787  0.1581
11795SOL    HW147444   4.002   1.900   2.034  1.1105  2.4421 -1.0017
11795SOL    HW247445   3.849   1.946   1.997  0.2020 -0.2185 -0.6202
11796SOL     OW47446   8.105   9.312   4.020 -0.1784  0.6576 -0.7850
11796SOL    HW147447   8.151   9.223   4.012  0.4813  1.1052 -2.0376
11796SOL    HW247448   8.131   9.370   3.943 -1.6082  1.4893 -0.6562
11797SOL     OW47449   8.079   9.289   8.445 -0.2765  0.1008 -0.0660
11797SOL    HW147450   8.134   9.302   8.527 -0.3901 -0.8565  0.1568
11797SOL    HW247451   7.994   9.241   8.468 -0.4479  0.0975 -0.6862
11798SOL     OW47452   1.507   2.599   4.513  0.1009  0.1867  0.2965
11798SOL    HW147453   1.414   2.633   4.506 -0.0101  0.0042  0.8529
11798SOL    HW247454   1.506   2.503   4.541  0.4534  0.2464  0.5294
11799SOL     OW47455   4.824   0.965   6.298  0.0660 -0.2491 -0.0182
11799SOL    HW147456   4.812   0.919   6.210 -1.6077 -1.2669  0.7130
11799SOL    HW247457   4.797   1.060   6.290 -1.1057 -0.6035 -0.3522
11800SOL     OW47458   7.687   8.924   1.362  0.4510 -0.2317 -0.4183
11800SOL    HW147459   7.706   9.022   1.356  1.1710 -0.3823 -0.7019
11800SOL    HW247460   7.756   8.881   1.420 -0.2670 -0.4669  0.2674
11801SOL     OW47461   1.501   2.008   8.218  0.3633 -0.6731  0.6749
11801SOL    HW147462   1.533   1.918   8.247  1.5935  0.0656  1.6943
11801SOL    HW247463   1.476   2.062   8.298 -1.1160 -0.3830  0.0201
11802SOL     OW47464   9.187   1.484   9.769  0.2856  0.0190  0.1198
11802SOL    HW147465   9.219   1.455   9.859  0.9055 -1.0197 -0.4283
11802SOL    HW247466   9.199   1.410   9.703 -0.4351  0.6664 -0.7614
11803SOL     OW47467   4.291   4.185   2.059 -0.1712  0.3921  0.4531
11803SOL    HW147468   4.295   4.265   2.119 -1.8876  0.8843 -0.0614
11803SOL    HW247469   4.226   4.119   2.097 -1.2017  0.6662 -0.8115
11804SOL     OW47470   7.639   1.945   8.926  0.8846  0.4709  0.4300
11804SOL    HW147471   7.575   1.878   8.887  1.7553 -0.4238  0.5165
11804SOL    HW247472   7.726   1.939   8.878  1.4018  0.5883  1.3431
11805SOL     OW47473   1.468   0.407   9.589 -0.4418  0.4288  0.0111
11805SOL    HW147474   1.480   0.430   9.493  1.2779  0.7000  0.2675
11805SOL    HW247475   1.530   0.462   9.645  0.7646 -1.8330  0.9933
11806SOL     OW47476   8.449   8.709   2.265 -0.3041 -0.2387  0.1633
11806SOL    HW147477   8.534   8.661   2.287  0.2976  0.9985  0.6122
11806SOL    HW247478   8.463   8.765   2.183 -1.0438 -0.9627 -0.4561
11807SOL     OW47479   0.319   9.323   9.176 -0.1731  0.5334  0.2919
11807SOL    HW147480   0.228   9.364   9.173 -0.0730  0.7471  0.1505
11807SOL    HW247481   0.385   9.387   9.139  0.3415  1.1437  2.2656
11808SOL     OW47482   9.113   0.728   2.009 -0.1782  0.0530 -0.1170
11808SOL    HW147483   9.104   0.630   2.028 -0.5537 -0.0692 -0.9059
11808SOL    HW247484   9.063   0.780   2.078  0.6537 -0.2753  0.7519
11809SOL     OW47485   9.554   2.264   1.723 -0.1729  0.4058 -0.5328
11809SOL    HW147486   9.616   2.222   1.789 -1.3903 -0.4946  0.0566
11809SOL    HW247487   9.537   2.200   1.648 -0.1871  0.7454 -0.8182
11810SOL     OW47488   1.958   3.558   2.056  0.3387  0.2678  1.6051
11810SOL    HW147489   1.990   3.528   2.146  1.1890 -2.1373  0.5591
11810SOL    HW247490   1.859   3.547   2.050  0.4031 -0.5360  1.9109
11811SOL     OW47491   7.172   9.447   7.318  0.1437 -0.2260 -0.8743
11811SOL    HW147492   7.202   9.356   7.291 -1.9777 -1.2761  0.2112
11811SOL    HW247493   7.076   9.444   7.345  0.5540  1.9680  0.9495
11812SOL     OW47494   4.092   2.440   0.286 -0.0996  0.7834  0.2950
11812SOL    HW147495   4.024   2.491   0.234 -0.7722 -2.0511 -1.7320
11812SOL    HW247496   4.049   2.401   0.367 -0.2930  1.0417  0.3176
11813SOL     OW47497   1.438   3.986   4.665  0.2790 -0.2501  0.6349
11813SOL    HW147498   1.398   3.924   4.732  1.2065  0.0341  1.4530
11813SOL    HW247499   1.524   3.948   4.631 -0.0843 -0.2972 -0.2441
11814SOL     OW47500   9.963   5.833   7.773  0.0424 -0.2302  0.1620
11814SOL    HW147501   9.929   5.814   7.864 -1.9471  0.9206 -0.3188
11814SOL    HW247502  10.063   5.837   7.775  0.0846 -1.6347  1.9831
11815SOL     OW47503   5.719   0.216   7.721 -0.4335  0.2483  0.7564
11815SOL    HW147504   5.713   0.312   7.749 -1.8298  0.6878 -0.9896
11815SOL    HW247505   5.627   0.180   7.706  0.1836 -0.7491 -0.6664
11816SOL     OW47506   2.579   4.526   1.101  0.4398 -0.1371 -0.6722
11816SOL    HW147507   2.502   4.510   1.162  1.3827  0.1016  0.5999
11816SOL    HW247508   2.659   4.475   1.134  1.4909  1.5284 -0.6070
11817SOL     OW47509   2.905   8.207   0.129  0.1828  0.0291  0.2237
11817SOL    HW147510   2.866   8.186   0.039  0.6113  0.3790 -0.0452
11817SOL    HW247511   2.997   8.168   0.135 -0.0896 -0.5417  0.7488
11818SOL     OW47512   1.217   2.346   6.634  0.1785 -0.0380  0.3479
11818SOL    HW147513   1.271   2.428   6.616 -0.2895  0.1140 -0.3835
11818SOL    HW247514   1.216   2.288   6.553  0.2343 -0.6147  0.7543
11819SOL     OW47515   2.936   0.884   7.435 -0.0279 -0.4558  0.3399
11819SOL    HW147516   3.008   0.827   7.475 -1.0756 -2.1990 -0.2049
11819SOL    HW247517   2.849   0.863   7.480 -0.2682  1.4476  0.8175
11820SOL     OW47518   2.925   9.889   3.626 -0.0288 -0.1920 -0.4690
11820SOL    HW147519   2.994   9.820   3.601  0.0718  0.8398 -3.2189
11820SOL    HW247520   2.898   9.876   3.722  1.1598 -3.0303 -0.4639
11821SOL     OW47521   3.257   6.165   8.264  0.4572 -0.6219 -0.5914
11821SOL    HW147522   3.356   6.169   8.264  0.4985 -1.5142  0.0388
11821SOL    HW247523   3.225   6.104   8.191  0.4333 -1.3916  0.0484
11822SOL     OW47524   2.199   8.545   4.611 -0.7163  0.3042 -0.3455
11822SOL    HW147525   2.216   8.528   4.514 -0.8867  1.4663 -0.5875
11822SOL    HW247526   2.255   8.484   4.666 -1.5848 -1.2639 -1.1828
11823SOL     OW47527   6.078   1.887   3.715  0.0293 -0.1292 -0.6078
11823SOL    HW147528   6.060   1.793   3.686  0.7863 -0.1693 -0.9798
11823SOL    HW247529   6.174   1.894   3.743 -0.0357  0.5259 -0.5529
11824SOL     OW47530   8.288   7.698   9.644 -0.3706  0.5891 -0.3661
11824SOL    HW147531   8.320   7.603   9.637  0.9778  0.9628  0.5014
11824SOL    HW247532   8.336   7.754   9.576 -0.9588  0.7039 -0.6862
11825SOL     OW47533   0.740   5.092   8.273 -0.2183 -0.3425  0.3325
11825SOL    HW147534   0.812   5.040   8.318 -0.5672 -0.1027  1.1847
11825SOL    HW247535   0.748   5.082   8.174  1.3810  0.2387  0.4075
11826SOL     OW47536   7.498   1.476   5.334  0.3373  0.3274 -0.4519
11826SOL    HW147537   7.414   1.471   5.280  1.5723 -0.0014 -2.3866
11826SOL    HW247538   7.511   1.390   5.383  0.4494 -0.2822 -1.5435
11827SOL     OW47539   9.941   3.893   2.753 -0.2266  0.0384 -0.7072
11827SOL    HW147540   9.886   3.961   2.801 -0.3562  0.1575 -1.0226
11827SOL    HW247541   9.907   3.801   2.777  0.1925  0.0656  0.0127
11828SOL     OW47542   1.198   3.475   5.038 -0.1841  0.6683 -0.1756
11828SOL    HW147543   1.167   3.394   4.988 -0.0936  1.1987 -1.1026
11828SOL    HW247544   1.288   3.458   5.077  0.8680  1.1370 -2.3571
11829SOL     OW47545   3.297   3.578   7.891 -0.2233 -0.3189  0.5028
11829SOL    HW147546   3.242   3.571   7.808  0.6233  2.2435 -0.2888
11829SOL    HW247547   3.378   3.633   7.874  0.9324 -1.3214  2.5420
11830SOL     OW47548   6.204   0.489   2.242  0.4782 -0.2571 -0.4234
11830SOL    HW147549   6.159   0.575   2.268  1.7234  0.0063  0.9426
11830SOL    HW247550   6.183   0.420   2.311 -0.6924 -1.1201 -1.6334
11831SOL     OW47551   6.348   5.137   7.866 -0.1550  0.1073  0.1658
11831SOL    HW147552   6.407   5.216   7.886 -1.1542  1.0696 -0.5858
11831SOL    HW247553   6.299   5.110   7.949  0.8888 -0.3181  0.6507
11832SOL     OW47554   9.774   1.209   9.888 -0.1582 -0.0391 -0.0848
11832SOL    HW147555   9.836   1.268   9.938 -1.4724  1.3054 -0.0124
11832SOL    HW247556   9.698   1.182   9.947 -0.4773 -0.3947 -0.6490
11833SOL     OW47557   9.226   1.614   2.120 -0.3811 -0.5792  0.2522
11833SOL    HW147558   9.266   1.706   2.122 -0.8529 -0.3398 -0.6747
11833SOL    HW247559   9.295   1.548   2.091  0.5656 -0.8654  3.0669
11834SOL     OW47560   5.725   1.466   7.052 -0.0069 -0.2646 -0.3169
11834SOL    HW147561   5.761   1.373   7.055 -1.9588 -1.1031 -1.3225
11834SOL    HW247562   5.783   1.522   6.994  2.3115 -0.3103  1.9030
11835SOL     OW47563   9.234   3.298   0.236 -0.3639  0.0053  0.0073
11835SOL    HW147564   9.184   3.228   0.185  0.7699  0.3114 -1.5384
11835SOL    HW247565   9.273   3.257   0.319  0.8089 -1.3593 -1.1880
11836SOL     OW47566   0.990   5.201   4.128 -0.2555 -0.3692 -0.2935
11836SOL    HW147567   0.970   5.249   4.214 -0.5028  2.1353 -1.7207
11836SOL    HW247568   1.076   5.150   4.138  0.3998  0.9526  1.0126
11837SOL     OW47569   3.032   3.604   4.905  0.1605  0.0412 -0.4050
11837SOL    HW147570   2.997   3.690   4.869  0.7043  0.3336 -0.2358
11837SOL    HW247571   3.094   3.622   4.982 -0.3982 -0.5418  0.1877
11838SOL     OW47572   1.047   7.086   3.885 -0.4185 -0.2778  0.3076
11838SOL    HW147573   1.073   7.175   3.849  1.1760 -0.7163  0.3288
11838SOL    HW247574   1.006   7.031   3.812 -0.8497  0.2538  0.1488
11839SOL     OW47575   9.155   2.482   5.471 -0.2158  0.1986  0.4414
11839SOL    HW147576   9.116   2.568   5.504 -0.1397  0.2322  0.4438
11839SOL    HW247577   9.112   2.406   5.520 -0.7917  0.1949 -0.0658
11840SOL     OW47578   6.068   2.661   0.912  0.0767  0.3978 -0.1445
11840SOL    HW147579   6.006   2.601   0.863  0.3726 -0.3341  0.3559
11840SOL    HW247580   6.043   2.757   0.897 -0.1956  0.1556 -1.2119
11841SOL     OW47581   9.080   2.780   5.048 -0.0168  0.3105 -0.1185
11841SOL    HW147582   9.134   2.861   5.071  1.4457 -1.1739  1.7844
11841SOL    HW247583   9.009   2.805   4.982  0.9022  2.9697 -0.1421
11842SOL     OW47584   1.907   3.475   7.046 -0.1808  0.3240 -0.1702
11842SOL    HW147585   1.932   3.379   7.035  0.5101  0.2997  1.3919
11842SOL    HW247586   1.980   3.534   7.011 -0.9603  0.2973 -1.8773
11843SOL     OW47587   5.879   8.253   5.340  0.2529  0.7269 -0.6307
11843SOL    HW147588   5.829   8.336   5.366 -0.9615 -0.1830 -0.0560
11843SOL    HW247589   5.917   8.210   5.422 -1.2663 -0.6588 -0.6262
11844SOL     OW47590   3.676   5.473   1.830 -0.4057 -0.0448 -0.2318
11844SOL    HW147591   3.657   5.546   1.897  0.0009 -0.2679  0.1330
11844SOL    HW247592   3.618   5.485   1.750 -0.7632  0.3403  0.0817
11845SOL     OW47593   8.629   4.696   0.794 -0.1666  0.2489 -0.5395
11845SOL    HW147594   8.712   4.749   0.808 -1.2613  1.8479  0.0621
11845SOL    HW247595   8.572   4.740   0.724 -1.6091  0.5293  0.7768
11846SOL     OW47596   8.577   5.120   0.938 -0.0468 -1.0424  0.3691
11846SOL    HW147597   8.520   5.201   0.921 -0.7225 -1.3709  1.0236
11846SOL    HW247598   8.590   5.109   1.037  2.7236  0.0921  0.1824
11847SOL     OW47599   4.156   3.314   0.704 -0.0426 -0.5171 -0.1211
11847SOL    HW147600   4.159   3.266   0.617 -0.2568 -0.9757  0.1231
11847SOL    HW247601   4.061   3.332   0.729  0.0183 -0.3790  0.0112
11848SOL     OW47602   2.849   3.918   3.782  0.4978 -0.1900 -0.8376
11848SOL    HW147603   2.756   3.938   3.751  0.2914  0.4196  0.1346
11848SOL    HW247604   2.846   3.885   3.876  1.1282 -1.8001 -1.3632
11849SOL     OW47605   0.865   3.595   8.998 -0.1540 -0.0453  0.2441
11849SOL    HW147606   0.825   3.666   9.056  1.0378 -0.8293  2.0756
11849SOL    HW247607   0.816   3.509   9.013  0.5088 -0.3776  0.4975
11850SOL     OW47608   8.630   7.816   8.324  0.2205 -0.1564  0.0152
11850SOL    HW147609   8.613   7.721   8.350 -1.1222  0.6432  2.2850
11850SOL    HW247610   8.596   7.833   8.232  2.0444 -2.2754 -1.1071
11851SOL     OW47611   8.090   8.727   1.489  0.3367  0.4133 -0.5782
11851SOL    HW147612   8.001   8.744   1.532 -0.7546 -2.3129 -1.6444
11851SOL    HW247613   8.124   8.638   1.519  0.7012 -0.4374 -3.4256
11852SOL     OW47614   9.279   1.610   9.404  0.1478  0.0301  0.4315
11852SOL    HW147615   9.251   1.705   9.421 -0.2289  0.0102 -0.0749
11852SOL    HW247616   9.377   1.601   9.424  0.6555  1.0251 -1.4767
11853SOL     OW47617   1.195   5.928   2.283 -0.2107 -0.3815 -0.3246
11853SOL    HW147618   1.186   5.946   2.381 -1.0020 -0.0177 -0.4616
11853SOL    HW247619   1.232   5.837   2.269  1.5250  0.2087  0.3453
11854SOL     OW47620   3.479   3.368   9.965  0.2516  0.7416  0.0961
11854SOL    HW147621   3.519   3.314  10.039  0.7467  0.5355 -0.3171
11854SOL    HW247622   3.401   3.319   9.926  1.6661 -0.4330 -1.3298
11855SOL     OW47623   1.880   0.311   0.006  0.1226  0.1083  0.2945
11855SOL    HW147624   1.927   0.254  -0.062 -0.4899  2.0691 -1.8475
11855SOL    HW247625   1.804   0.260   0.046  0.3552 -0.9986 -0.6441
11856SOL     OW47626   1.726   8.694   9.635  0.3267  0.4497  0.6323
11856SOL    HW147627   1.800   8.653   9.688  1.0028  1.1143  0.2035
11856SOL    HW247628   1.647   8.712   9.695  1.2218  1.5670  1.4927
11857SOL     OW47629   1.622   3.305   3.064 -0.3601  0.0323 -0.2100
11857SOL    HW147630   1.594   3.269   2.975  1.1104 -0.0155 -0.6596
11857SOL    HW247631   1.554   3.372   3.095 -1.4133 -0.7007 -0.8794
11858SOL     OW47632   4.788   9.029   5.650 -0.5580  0.1968  0.1626
11858SOL    HW147633   4.691   9.048   5.637 -0.8947 -2.1744 -1.0336
11858SOL    HW247634   4.815   8.952   5.592  1.3814 -0.9988  2.5571
11859SOL     OW47635   1.538   5.653   1.225 -0.0943  0.5114 -0.2357
11859SOL    HW147636   1.513   5.597   1.304 -2.9234  0.2993 -1.2262
11859SOL    HW247637   1.473   5.729   1.216  0.2456  0.5956 -2.2732
11860SOL     OW47638   5.299   0.850   9.092  0.1586 -0.1120  0.1798
11860SOL    HW147639   5.242   0.920   9.047  0.0434  0.4499  1.1972
11860SOL    HW247640   5.383   0.837   9.038  0.8784  1.9064  0.7574
11861SOL     OW47641   3.653   1.142   9.273 -0.0060 -0.2087 -0.0899
11861SOL    HW147642   3.727   1.090   9.318 -2.0341 -0.9386  2.5505
11861SOL    HW247643   3.605   1.196   9.342 -0.7417  1.7546 -2.1110
11862SOL     OW47644   7.337   9.294   4.306 -0.7109 -0.5129  0.0692
11862SOL    HW147645   7.372   9.342   4.225  0.2748  0.7965  1.2487
11862SOL    HW247646   7.334   9.196   4.288  2.7557 -0.5868 -0.4040
11863SOL     OW47647   5.013   2.976   1.084  0.0564  0.1736 -0.1594
11863SOL    HW147648   4.950   2.993   1.160  0.4372  0.9969 -0.0182
11863SOL    HW247649   5.056   2.887   1.097 -0.9879 -0.3399 -0.2007
11864SOL     OW47650   2.338   7.418   5.857  0.1517 -0.1717  0.1237
11864SOL    HW147651   2.409   7.489   5.857  0.0150 -0.0362 -0.2115
11864SOL    HW247652   2.287   7.422   5.942  1.3900 -1.1092  0.9422
11865SOL     OW47653   9.980   8.307   7.615 -0.2076 -0.0922 -0.2340
11865SOL    HW147654   9.961   8.370   7.539 -0.9497  1.2955  1.0823
11865SOL    HW247655  10.075   8.276   7.610  0.3957  1.7687 -0.4363
11866SOL     OW47656   4.391   7.173   9.967  0.4217  0.0261 -0.2469
11866SOL    HW147657   4.455   7.244   9.937  0.2973  0.5492  0.6925
11866SOL    HW247658   4.404   7.090   9.912  1.1630  0.4874 -0.7715
11867SOL     OW47659   0.826   4.905   5.911 -0.0847  0.4857 -0.0286
11867SOL    HW147660   0.787   4.821   5.872  1.8206  0.3526 -1.7432
11867SOL    HW247661   0.819   4.979   5.843  1.2527  0.8464  0.2253
11868SOL     OW47662   2.572   0.082   8.526 -0.6702 -0.3107  0.1045
11868SOL    HW147663   2.491   0.078   8.584  0.3921  0.1766  1.6819
11868SOL    HW247664   2.548   0.121   8.437 -1.6515  2.4581  1.5220
11869SOL     OW47665   5.967   1.746   4.004 -0.2697  1.0435 -0.0529
11869SOL    HW147666   6.052   1.699   3.979 -0.9687 -0.0014 -0.5065
11869SOL    HW247667   5.927   1.787   3.922 -1.8904 -1.2705 -0.4630
11870SOL     OW47668   0.176   4.360   9.965  0.6422 -0.0281  0.5184
11870SOL    HW147669   0.256   4.421   9.968  1.3148 -0.6690 -2.8855
11870SOL    HW247670   0.092   4.414   9.967  1.0049  0.6266  5.2937
11871SOL     OW47671   3.625   9.676   3.832 -0.1738  0.7168 -0.0105
11871SOL    HW147672   3.615   9.753   3.769 -1.5861  1.2227  0.8200
11871SOL    HW247673   3.639   9.592   3.779 -2.4133  0.9606 -1.0379
11872SOL     OW47674   4.662   0.131   2.038  0.1412  0.4707 -0.6487
11872SOL    HW147675   4.736   0.141   1.971 -0.1084  1.7038 -0.7408
11872SOL    HW247676   4.587   0.191   2.015 -0.3592  0.1844  0.1939
11873SOL     OW47677   6.626   8.773   5.343 -0.0669 -0.3451 -0.1990
11873SOL    HW147678   6.624   8.747   5.439 -0.5836 -0.6635 -0.2914
11873SOL    HW247679   6.590   8.866   5.333  0.7581 -0.0035  0.0071
11874SOL     OW47680   3.000   3.755   7.016  0.2978 -0.2429 -0.1506
11874SOL    HW147681   3.004   3.844   6.971  0.1274 -0.3232 -0.3272
11874SOL    HW247682   2.905   3.732   7.035  0.4044  0.0064  0.6833
11875SOL     OW47683   6.170   9.148   2.220 -0.0341 -0.4169  0.0617
11875SOL    HW147684   6.133   9.150   2.313  1.9677 -0.6743  0.8817
11875SOL    HW247685   6.243   9.080   2.214  1.1900  0.9821 -1.1978
11876SOL     OW47686   4.601   6.531   3.084  0.3119 -0.5492  0.1454
11876SOL    HW147687   4.549   6.613   3.060  0.9135  0.0031  0.7037
11876SOL    HW247688   4.665   6.510   3.010  1.3348  0.4675  0.7255
11877SOL     OW47689   0.274   4.093   6.882  0.5867  0.4621  0.6032
11877SOL    HW147690   0.282   4.185   6.921  0.7782  1.0645 -0.8040
11877SOL    HW247691   0.208   4.040   6.934  1.5000  0.9334  2.2859
11878SOL     OW47692   5.839   1.119   7.340 -0.3653  0.4191  0.3277
11878SOL    HW147693   5.895   1.053   7.389  1.1893  0.8990 -0.7674
11878SOL    HW247694   5.769   1.071   7.287  0.8686 -0.3669 -0.6062
11879SOL     OW47695   4.852   4.505   9.845 -0.0604  0.0492 -0.2439
11879SOL    HW147696   4.794   4.531   9.767  0.4729  0.7325 -0.4127
11879SOL    HW247697   4.846   4.406   9.859  0.3813 -0.1789 -1.5859
11880SOL     OW47698   1.805   6.554   8.432 -0.0906  0.3411  0.0571
11880SOL    HW147699   1.818   6.529   8.528  0.5395  3.5989  0.8867
11880SOL    HW247700   1.894   6.557   8.386 -0.3349 -0.6306 -0.5008
11881SOL     OW47701   8.118   7.648   3.681 -0.4841  0.2349  0.1075
11881SOL    HW147702   8.132   7.638   3.583 -0.2704  1.6829 -0.0285
11881SOL    HW247703   8.112   7.746   3.704 -0.4039 -0.0841  1.5428
11882SOL     OW47704   9.952   5.476   8.648  0.2955  0.0282 -0.4794
11882SOL    HW147705   9.958   5.400   8.712 -0.6808 -0.8236 -1.3860
11882SOL    HW247706   9.904   5.553   8.691  2.0430  0.4707  0.7359
11883SOL     OW47707   2.008   5.916   4.269  0.6030  0.1356  0.2932
11883SOL    HW147708   2.085   5.890   4.328 -0.6382  0.6391  2.2102
11883SOL    HW247709   1.926   5.927   4.325 -0.0050  3.4022 -1.1065
11884SOL     OW47710   9.024   7.045   6.670  0.2889  0.1910  0.2596
11884SOL    HW147711   9.115   7.083   6.650 -0.6692  1.4135 -2.0068
11884SOL    HW247712   9.017   6.953   6.633  0.6981 -0.0319  0.7276
11885SOL     OW47713   9.098   4.542   7.733 -0.0230  0.0793 -0.0432
11885SOL    HW147714   9.096   4.452   7.776 -2.7099 -0.7447 -1.7570
11885SOL    HW247715   9.159   4.540   7.654 -1.2908 -0.7494 -1.0334
11886SOL     OW47716   9.935   6.407   5.806 -0.1001 -0.1983 -0.4200
11886SOL    HW147717   9.852   6.353   5.818 -0.8016  1.3968  2.1895
11886SOL    HW247718   9.992   6.401   5.887  0.4785  1.8350 -0.6418
11887SOL     OW47719   7.966   5.036   3.961  0.0442 -0.1085 -0.1008
11887SOL    HW147720   8.028   5.111   3.984 -1.2571  1.1847 -0.7103
11887SOL    HW247721   7.871   5.068   3.967 -0.5505 -1.8447  0.1027
11888SOL     OW47722   5.449   2.465   1.032  0.5420 -0.1916  0.6357
11888SOL    HW147723   5.497   2.552   1.035 -0.5724  0.4386  0.3823
11888SOL    HW247724   5.489   2.407   0.961  0.6516  0.4861  0.1392
11889SOL     OW47725   8.690   8.061   8.003  0.4152  0.3427  0.3130
11889SOL    HW147726   8.668   8.087   8.097 -0.7959 -2.0612  0.7452
11889SOL    HW247727   8.788   8.040   7.997  0.2365 -0.8629  1.3899
11890SOL     OW47728   4.199   9.126   2.773 -1.1172 -0.2250 -0.2780
11890SOL    HW147729   4.151   9.080   2.848  0.1192 -1.2965 -0.1294
11890SOL    HW247730   4.243   9.209   2.808 -1.8524  0.1215 -0.1635
11891SOL     OW47731   1.600   6.417   9.603 -0.1960 -0.2490  0.3637
11891SOL    HW147732   1.699   6.407   9.603 -0.1372  0.1214 -1.3771
11891SOL    HW247733   1.573   6.489   9.667  0.6877 -0.0260  0.4877
11892SOL     OW47734   1.899   8.690   8.802  0.5770 -0.4457 -0.1767
11892SOL    HW147735   1.872   8.743   8.882  2.1709 -0.6288  0.5012
11892SOL    HW247736   1.828   8.623   8.781  0.1095 -0.3379  1.0352
11893SOL     OW47737   9.386   9.812   0.250  0.0144 -0.1987 -0.4771
11893SOL    HW147738   9.462   9.862   0.292  0.6315 -0.8172 -0.8470
11893SOL    HW247739   9.318   9.791   0.320  0.7327 -0.6585  0.0975
11894SOL     OW47740   6.130   0.387   6.381 -0.1680  0.2961  0.2626
11894SOL    HW147741   6.133   0.426   6.289  2.9378  0.6435  0.4597
11894SOL    HW247742   6.046   0.333   6.392 -1.7167  2.1644 -1.9493
11895SOL     OW47743   1.670   7.181   1.033  0.3343  0.7025 -0.7902
11895SOL    HW147744   1.617   7.147   0.955 -1.4100  0.2672  0.5797
11895SOL    HW247745   1.703   7.104   1.087 -0.7371  1.0741  0.4074
11896SOL     OW47746   8.345   5.190   6.826  0.1708 -0.1047 -0.0230
11896SOL    HW147747   8.284   5.194   6.905 -0.9245  1.2488 -0.9143
11896SOL    HW247748   8.385   5.281   6.811  0.9516 -0.5320 -0.5853
11897SOL     OW47749   1.162   0.580   1.680  0.7306  0.2373 -0.0417
11897SOL    HW147750   1.154   0.484   1.653  1.9300 -0.1465  0.9684
11897SOL    HW247751   1.087   0.632   1.638 -0.7072 -1.3690  0.4767
11898SOL     OW47752   0.097   3.997   2.216 -0.1839  0.4595 -0.0331
11898SOL    HW147753   0.086   3.960   2.308 -2.7223  2.3193  0.4705
11898SOL    HW247754   0.071   4.093   2.215  0.0950  0.5551 -2.6297
11899SOL     OW47755   7.345   0.417   3.677 -0.0112 -0.1796 -0.1899
11899SOL    HW147756   7.279   0.360   3.724 -0.5330 -0.5917 -1.4023
11899SOL    HW247757   7.313   0.437   3.584  0.9791  0.6351 -0.3782
11900SOL     OW47758   0.168   3.833   5.924  0.6564  0.1411 -0.3986
11900SOL    HW147759   0.081   3.807   5.882  0.3527 -0.1709  0.4289
11900SOL    HW247760   0.226   3.877   5.855 -0.1786  0.4090 -0.9343
11901SOL     OW47761   0.474   8.789   7.817 -0.8466  0.0084 -0.0500
11901SOL    HW147762   0.544   8.824   7.755 -1.0137  1.2818  0.4747
11901SOL    HW247763   0.411   8.730   7.766  0.4305 -0.9138 -0.5800
11902SOL     OW47764   2.606   9.967   2.295  0.2845 -0.0509  0.5364
11902SOL    HW147765   2.604  10.044   2.232  0.5281  1.5422  2.4306
11902SOL    HW247766   2.520   9.964   2.347 -0.1635 -1.7107 -0.2456
11903SOL     OW47767   9.741   4.341   0.382  0.2898 -0.4201  0.0906
11903SOL    HW147768   9.787   4.310   0.465  0.3872  0.4503  0.3713
11903SOL    HW247769   9.726   4.440   0.388  0.0598 -0.3991 -0.8111
11904SOL     OW47770   4.190   3.837   8.792  0.7708  0.5394 -0.4014
11904SOL    HW147771   4.118   3.792   8.740  0.1430  1.5177 -0.3892
11904SOL    HW247772   4.153   3.918   8.838  1.3665 -0.2101  1.4161
11905SOL     OW47773   8.618   5.453   8.226  0.2020  0.2286 -0.5005
11905SOL    HW147774   8.519   5.452   8.216 -0.3890 -0.9199  4.1368
11905SOL    HW247775   8.654   5.360   8.224  0.8948  0.4748 -0.1147
11906SOL     OW47776   9.134   6.588   0.516 -0.0579  0.2650 -0.1173
11906SOL    HW147777   9.038   6.572   0.492  0.2515 -1.7088 -0.0563
11906SOL    HW247778   9.145   6.684   0.543 -1.8005  0.7823 -1.1219
11907SOL     OW47779   9.417   8.269   2.546  0.4248 -0.4497 -0.2333
11907SOL    HW147780   9.368   8.271   2.459  0.9697 -0.9956 -0.5612
11907SOL    HW247781   9.362   8.313   2.616 -0.5628 -1.1081 -0.5787
11908SOL     OW47782   8.476   4.141   0.501  0.0523 -0.4455 -0.3136
11908SOL    HW147783   8.481   4.059   0.445  0.0341 -0.9435  0.4090
11908SOL    HW247784   8.498   4.118   0.596 -0.9035  0.2112  0.0699
11909SOL     OW47785   8.624   4.251   0.858  0.8909  0.0419  0.1232
11909SOL    HW147786   8.594   4.313   0.786  1.3754  1.7045  1.3256
11909SOL    HW247787   8.662   4.303   0.935 -0.0883 -1.6552  1.8215
11910SOL     OW47788   3.916   6.796   8.045 -0.8830  0.4149 -0.0108
11910SOL    HW147789   3.979   6.858   8.090  0.1175 -0.1168 -0.6575
11910SOL    HW247790   3.899   6.717   8.104  0.2702 -0.1855 -0.4677
11911SOL     OW47791   3.721   4.291   9.153  0.3878 -0.2417 -0.1270
11911SOL    HW147792   3.650   4.361   9.160  0.1260 -0.3313 -1.5824
11911SOL    HW247793   3.810   4.333   9.164  0.2418  0.3851 -1.2070
11912SOL     OW47794   1.297   5.697   4.789  0.5321 -0.4248  0.4198
11912SOL    HW147795   1.238   5.625   4.752 -0.3472 -0.3756  1.6913
11912SOL    HW247796   1.354   5.659   4.862  2.8016 -0.7029 -1.4552
11913SOL     OW47797   7.844   8.548   6.769  0.0344 -0.7331  0.1794
11913SOL    HW147798   7.874   8.551   6.674 -4.2098 -2.8133 -1.3310
11913SOL    HW247799   7.855   8.456   6.805 -0.2327 -0.4339  1.0488
11914SOL     OW47800   8.901   7.946   8.178 -0.3192 -0.4440 -0.1848
11914SOL    HW147801   8.827   7.893   8.219  1.7656 -2.4211  1.1767
11914SOL    HW247802   8.964   7.976   8.250  1.3037 -0.5978 -1.4883
11915SOL     OW47803   2.089   4.977   1.510 -0.3969  0.4402 -0.6923
11915SOL    HW147804   2.060   4.966   1.605 -1.8407  0.0252 -1.1773
11915SOL    HW247805   2.031   4.922   1.451  0.4829  0.7192 -1.8289
11916SOL     OW47806   9.466   4.213   0.414  0.5707  0.0675 -0.5251
11916SOL    HW147807   9.560   4.208   0.446 -0.5969 -1.8838  2.8329
11916SOL    HW247808   9.427   4.302   0.439  1.0913  0.3359 -0.6614
11917SOL     OW47809   6.647   8.507   5.884 -0.2616  0.0550  0.4957
11917SOL    HW147810   6.653   8.523   5.982  0.6144 -0.9018  0.6168
11917SOL    HW247811   6.734   8.469   5.852  0.0986  2.0200 -0.9697
11918SOL     OW47812   6.880   3.473   1.033  0.3265  0.1180  0.0800
11918SOL    HW147813   6.919   3.557   0.995  0.1751 -0.2342 -0.8577
11918SOL    HW247814   6.835   3.493   1.120 -3.9368  1.9300 -2.4289
11919SOL     OW47815   9.049   9.014   6.551  0.0871 -0.0355 -0.2604
11919SOL    HW147816   8.978   8.986   6.486  0.7095 -1.0504 -0.5244
11919SOL    HW247817   9.012   9.013   6.644 -0.5116  0.3780 -0.4920
11920SOL     OW47818   7.736   5.111  10.059  0.0081  0.1280 -0.6318
11920SOL    HW147819   7.710   5.149  10.148  2.9324 -1.8074  1.1396
11920SOL    HW247820   7.774   5.184  10.002  2.7612  0.5801  1.6187
11921SOL     OW47821   2.651   5.976   5.282 -0.4817  0.2389  0.0315
11921SOL    HW147822   2.605   5.936   5.361  0.9139 -0.5433  0.4659
11921SOL    HW247823   2.746   5.997   5.306  0.1614 -0.6587 -1.6380
11922SOL     OW47824   9.478   4.544   4.671  0.1370 -0.2978  0.1496
11922SOL    HW147825   9.496   4.476   4.742  0.4445 -0.3793 -0.0056
11922SOL    HW247826   9.391   4.523   4.626  0.8142 -1.2973 -0.7173
11923SOL     OW47827   8.146   4.040   5.238  0.6409 -0.0976  0.0099
11923SOL    HW147828   8.076   3.980   5.199  0.1968  0.8954 -0.7536
11923SOL    HW247829   8.211   3.986   5.291 -0.3997 -1.1004  0.2831
11924SOL     OW47830   9.025   8.080   2.530  0.0831  0.2837  0.3537
11924SOL    HW147831   8.973   8.115   2.453  1.1569  0.0222 -0.5129
11924SOL    HW247832   9.076   7.998   2.502 -1.0789 -1.0073  1.8905
11925SOL     OW47833   7.310   0.736   7.945  0.0908 -0.3212 -0.1315
11925SOL    HW147834   7.280   0.744   7.851 -1.2094  0.2973  0.3277
11925SOL    HW247835   7.236   0.762   8.007  1.7012  1.7064  1.0305
11926SOL     OW47836   2.793   7.763   8.383  0.3905  0.9431 -0.3501
11926SOL    HW147837   2.854   7.699   8.429  0.3571  0.8447 -0.4427
11926SOL    HW247838   2.810   7.760   8.284 -1.0384 -0.4478 -0.5768
11927SOL     OW47839   1.080   9.668   5.384 -0.3817  0.5882 -0.2152
11927SOL    HW147840   1.017   9.658   5.307 -1.9132  0.9916  0.9408
11927SOL    HW247841   1.087   9.581   5.433 -0.9202  0.8267  0.2975
11928SOL     OW47842   1.099   4.369   9.701  0.4581 -0.4592 -0.2565
11928SOL    HW147843   1.090   4.393   9.798  0.7534 -1.0596 -0.0785
11928SOL    HW247844   1.016   4.395   9.652 -0.5898 -2.1586  0.5847
11929SOL     OW47845   8.555   6.684   0.982 -0.3602 -0.0911  0.3121
11929SOL    HW147846   8.471   6.631   0.968  0.1522 -1.3490  1.8606
11929SOL    HW247847   8.630   6.622   1.001  0.0845  1.2321  3.0492
11930SOL     OW47848   7.755   2.901   3.806  0.1756 -0.1100  0.0921
11930SOL    HW147849   7.788   2.812   3.839  0.5440  0.1849  0.5382
11930SOL    HW247850   7.810   2.974   3.847 -0.6083  0.3632  0.3285
11931SOL     OW47851   0.964   2.737   3.804 -0.4860 -0.5649  0.7330
11931SOL    HW147852   0.875   2.695   3.782 -0.2005 -1.2324  0.8431
11931SOL    HW247853   1.023   2.734   3.723 -1.4828  2.2766 -0.1317
11932SOL     OW47854   1.737   7.012   4.673 -0.3409  0.4776 -0.2668
11932SOL    HW147855   1.734   6.993   4.771 -1.3922 -2.2576 -0.7987
11932SOL    HW247856   1.649   7.048   4.644 -0.1691  0.8678 -0.3139
11933SOL     OW47857   3.122   9.771   1.219 -0.0257  0.1063  0.6185
11933SOL    HW147858   3.149   9.853   1.169  0.1945 -0.3058  0.0572
11933SOL    HW247859   3.050   9.724   1.168 -0.3960  0.1321  1.1134
11934SOL     OW47860   8.217   5.204   8.336  0.2004 -0.0940  0.4146
11934SOL    HW147861   8.268   5.219   8.420 -1.6854  0.3346  1.5291
11934SOL    HW247862   8.216   5.106   8.314  0.2470 -0.2708  1.1860
11935SOL     OW47863   6.954   5.517   0.520 -0.0033  0.1309 -0.2749
11935SOL    HW147864   6.971   5.506   0.422 -0.1623  0.1358 -0.3026
11935SOL    HW247865   7.035   5.487   0.572 -0.0922 -0.3095 -0.3875
11936SOL     OW47866   9.615   6.560   1.942  0.3632 -0.0059  0.4864
11936SOL    HW147867   9.531   6.592   1.898  0.4803 -0.6592 -0.2186
11936SOL    HW247868   9.636   6.467   1.910  0.7912 -0.2485  1.4415
11937SOL     OW47869   5.213   7.720   6.715 -0.1900 -0.0735  0.2170
11937SOL    HW147870   5.285   7.729   6.647 -0.8819 -0.3297 -0.5597
11937SOL    HW247871   5.162   7.635   6.699 -1.0736  0.4212  0.3445
11938SOL     OW47872   2.379   7.311   7.062  0.4934  0.6595  0.1099
11938SOL    HW147873   2.305   7.366   7.099  0.4584  1.3089 -0.9176
11938SOL    HW247874   2.434   7.366   6.998  2.2072  0.3627  1.2799
11939SOL     OW47875   1.807   7.572   5.410  0.1235 -0.3125 -0.3917
11939SOL    HW147876   1.757   7.656   5.386  2.2246  0.4149 -2.3759
11939SOL    HW247877   1.751   7.517   5.472 -1.6046  2.2026  0.3841
11940SOL     OW47878   1.806   4.984   3.820  0.5497 -0.2860  0.2498
11940SOL    HW147879   1.808   5.039   3.737 -0.4054 -0.5491  0.0539
11940SOL    HW247880   1.756   4.900   3.804 -0.3778  0.0436  1.3267
11941SOL     OW47881   1.838   8.261   2.764 -0.3104 -0.5468 -0.4252
11941SOL    HW147882   1.827   8.264   2.665 -0.0738 -0.1497 -0.4424
11941SOL    HW247883   1.780   8.190   2.802  0.5394 -1.5573 -0.9823
11942SOL     OW47884   7.221   9.545   2.400  0.1234  0.7789 -0.1979
11942SOL    HW147885   7.125   9.559   2.425  0.2706  1.7785 -0.1634
11942SOL    HW247886   7.228   9.474   2.330 -0.6521  0.7728 -0.2678
11943SOL     OW47887   9.029   7.644   2.796  0.3504 -0.4854 -0.9211
11943SOL    HW147888   9.069   7.716   2.852  0.4497 -0.3329 -1.1905
11943SOL    HW247889   9.101   7.591   2.752  0.2657 -0.4008 -1.1644
11944SOL     OW47890   1.789   1.287   0.926  0.2264  0.1755  0.3161
11944SOL    HW147891   1.731   1.363   0.959 -0.4264  0.1423 -0.7323
11944SOL    HW247892   1.836   1.246   1.004 -0.9472  0.3917  1.1669
11945SOL     OW47893   2.283   7.052   3.183  0.0442  0.6523 -0.5359
11945SOL    HW147894   2.315   7.081   3.273 -3.3806  2.5272  0.1664
11945SOL    HW247895   2.277   6.952   3.181  2.1971  0.4679  0.5511
11946SOL     OW47896   4.175   9.415   3.522 -0.3981  0.3807  0.6515
11946SOL    HW147897   4.237   9.338   3.509  0.9626  1.3811  1.0255
11946SOL    HW247898   4.121   9.400   3.605 -1.0583 -0.7558  0.0226
11947SOL     OW47899   1.249   8.551   2.002 -0.3153  0.7828  0.2608
11947SOL    HW147900   1.235   8.470   2.060  0.4372  0.7865  0.4540
11947SOL    HW247901   1.297   8.621   2.054  0.8452  0.5883 -0.5284
11948SOL     OW47902   6.668   3.073   9.846 -0.1851  0.4468 -0.1576
11948SOL    HW147903   6.721   3.157   9.862  0.7395 -0.0598 -0.5060
11948SOL    HW247904   6.706   3.024   9.767 -1.0447 -0.0418 -0.2774
11949SOL     OW47905   9.094   3.947   5.614  0.1222 -0.3944 -0.1387
11949SOL    HW147906   9.062   3.864   5.659  0.2967  0.1610  1.0298
11949SOL    HW247907   9.189   3.965   5.639 -0.4185  1.0543  0.9759
11950SOL     OW47908   2.537   2.746   6.801 -0.0031 -0.3940 -0.0384
11950SOL    HW147909   2.537   2.846   6.801 -0.0309 -0.3814  1.7771
11950SOL    HW247910   2.620   2.712   6.756  0.1301  0.4431 -0.4255
11951SOL     OW47911   1.821   1.505   3.169  0.8835 -0.7181  0.7185
11951SOL    HW147912   1.869   1.421   3.145  0.8893 -0.3378 -0.6909
11951SOL    HW247913   1.768   1.492   3.252  1.2135 -1.9818  0.7315
11952SOL     OW47914   6.970   6.992   5.621  0.4235 -0.2389  0.6005
11952SOL    HW147915   6.921   7.072   5.584  0.2833 -0.5228  0.1652
11952SOL    HW247916   6.929   6.966   5.708 -0.6243 -0.8590 -0.0574
11953SOL     OW47917   8.829   9.092   4.725 -0.3578 -0.3692 -0.4732
11953SOL    HW147918   8.898   9.078   4.653  2.3445 -0.0481  1.9798
11953SOL    HW247919   8.779   9.007   4.739 -0.9883 -0.4277 -2.7525
11954SOL     OW47920   5.964   3.677   0.722  0.7239 -0.5060  0.3737
11954SOL    HW147921   5.978   3.672   0.821  2.0635 -0.1598  0.2118
11954SOL    HW247922   5.866   3.681   0.702  0.4554 -0.3622  1.6923
11955SOL     OW47923   4.715   0.249   7.756  0.1338  0.1712 -0.9575
11955SOL    HW147924   4.755   0.202   7.677 -2.4799 -1.6266 -1.2808
11955SOL    HW247925   4.672   0.334   7.725  2.3972  1.3846 -0.8329
11956SOL     OW47926   2.098   0.636   5.418 -0.4566 -0.1696  0.3188
11956SOL    HW147927   2.122   0.539   5.427 -0.5249 -0.2465 -0.3018
11956SOL    HW247928   2.002   0.649   5.442  0.0211  0.0392  2.1926
11957SOL     OW47929   4.206   2.273   8.962 -0.0889 -0.5827 -0.5743
11957SOL    HW147930   4.162   2.296   8.875  0.2719 -0.0924 -0.6314
11957SOL    HW247931   4.303   2.297   8.958  0.0469 -1.0627 -0.2241
11958SOL     OW47932   4.568   9.455   6.486  0.5694  0.4922  0.1143
11958SOL    HW147933   4.611   9.513   6.418  0.4340 -0.2341 -0.5982
11958SOL    HW247934   4.495   9.505   6.532 -0.9675  0.2299 -1.9785
11959SOL     OW47935   0.487   6.271   6.948  0.2219  0.3740 -0.5932
11959SOL    HW147936   0.579   6.243   6.973 -0.3602  0.3767  1.6493
11959SOL    HW247937   0.477   6.370   6.958  0.1604  0.4638 -1.4790
11960SOL     OW47938   4.041   0.607   6.145  0.3948  0.3306 -0.2462
11960SOL    HW147939   4.019   0.576   6.238 -1.3905  0.8591 -0.4698
11960SOL    HW247940   4.124   0.662   6.147  1.1182 -0.7787  0.8320
11961SOL     OW47941   8.558   6.199   6.238 -0.1297  0.0026  0.6725
11961SOL    HW147942   8.521   6.266   6.302 -0.2198  1.4425 -0.8816
11961SOL    HW247943   8.563   6.238   6.147 -0.0260 -2.0512 -0.2334
11962SOL     OW47944   0.683   5.186   6.207  0.3132 -0.6212  0.3472
11962SOL    HW147945   0.633   5.101   6.192  0.1371 -0.1041 -2.2188
11962SOL    HW247946   0.631   5.245   6.269 -0.7613 -1.3614  0.1585
11963SOL     OW47947   8.971   2.791   7.372 -0.8845 -0.4486  0.2913
11963SOL    HW147948   9.007   2.874   7.415  0.9228 -1.4802  0.7837
11963SOL    HW247949   8.947   2.811   7.277 -0.0768  0.5319  0.2846
11964SOL     OW47950   2.580   3.436   2.616 -0.0890  0.2810  0.4492
11964SOL    HW147951   2.654   3.494   2.584  1.4841 -2.0112 -0.2164
11964SOL    HW247952   2.518   3.416   2.540 -0.2653  0.5428  0.5230
11965SOL     OW47953   8.707   1.301   8.583 -0.0454 -0.1385 -0.1120
11965SOL    HW147954   8.716   1.229   8.514  0.8858  0.2735 -0.4311
11965SOL    HW247955   8.789   1.303   8.640 -1.2373 -1.1547  1.6987
11966SOL     OW47956   2.773   7.873   2.170 -0.5940  0.0624 -0.2313
11966SOL    HW147957   2.790   7.801   2.103 -0.2061 -1.5716  1.5803
11966SOL    HW247958   2.830   7.952   2.150  0.0074 -0.6656 -1.4305
11967SOL     OW47959   5.726   1.926   1.110 -1.0495 -0.1173  0.6526
11967SOL    HW147960   5.773   1.979   1.181  1.3737 -2.4234  0.8042
11967SOL    HW247961   5.743   1.829   1.123 -0.8443 -0.6212 -2.9176
11968SOL     OW47962   4.235   8.783   5.389 -0.0050 -0.1309  0.2194
11968SOL    HW147963   4.233   8.686   5.365  1.0407 -0.1908  0.3712
11968SOL    HW247964   4.185   8.835   5.319 -1.3696 -0.8700  0.6234
11969SOL     OW47965   5.713   1.705   9.476  0.3670 -0.2658  0.2231
11969SOL    HW147966   5.784   1.751   9.423 -0.3239  0.8856  0.2893
11969SOL    HW247967   5.688   1.761   9.555  1.4698 -2.0108  1.8716
11970SOL     OW47968   9.721   4.554   6.284  0.2343  0.1399  0.0993
11970SOL    HW147969   9.650   4.609   6.240  0.3144  0.8832  0.8767
11970SOL    HW247970   9.779   4.613   6.340  1.4014 -0.4872 -0.4441
11971SOL     OW47971   0.648   2.123   0.439  0.4421  0.1415 -0.3204
11971SOL    HW147972   0.672   2.220   0.436 -1.0120  0.4878 -1.0963
11971SOL    HW247973   0.593   2.100   0.359 -0.0649 -1.1028  0.3797
11972SOL     OW47974   2.755   6.448   7.965 -0.2681 -0.0569  0.0343
11972SOL    HW147975   2.685   6.380   7.942  0.0869 -0.5921  0.5164
11972SOL    HW247976   2.740   6.531   7.911  0.0038 -0.9401 -1.4170
11973SOL     OW47977   7.965   1.897   5.314  0.1857 -0.1806 -0.2985
11973SOL    HW147978   7.981   1.859   5.223 -1.0954 -0.9671 -0.2107
11973SOL    HW247979   7.883   1.954   5.312  0.3538  0.0824  0.2850
11974SOL     OW47980   9.804   3.009   1.827 -0.4367  0.2164 -0.0801
11974SOL    HW147981   9.856   2.926   1.804  0.5027  0.3360  1.4955
11974SOL    HW247982   9.719   2.983   1.873 -0.5306  0.1053 -0.3158
11975SOL     OW47983   9.080   4.806   5.014  0.2453  0.2690  0.7084
11975SOL    HW147984   8.986   4.785   5.043  0.3736  0.4045  1.2260
11975SOL    HW247985   9.084   4.809   4.915 -0.6207  1.6651  0.6878
11976SOL     OW47986   3.835   7.060   5.057 -0.3299 -0.5504 -0.0676
11976SOL    HW147987   3.829   7.153   5.094 -0.0474 -1.4560  2.3081
11976SOL    HW247988   3.922   7.048   5.010  0.1397  0.0005  0.6622
11977SOL     OW47989   2.483   9.310   5.923 -0.7970 -0.1626  0.2062
11977SOL    HW147990   2.387   9.337   5.917 -0.8485 -0.0179  1.5245
11977SOL    HW247991   2.539   9.389   5.946 -0.5393 -0.5201  0.8323
11978SOL     OW47992   1.075   1.442   9.476  0.3640  0.1141  0.6348
11978SOL    HW147993   1.164   1.426   9.432  0.2468  0.1925  0.3698
11978SOL    HW247994   1.080   1.526   9.530 -0.2459  1.4227 -1.2804
11979SOL     OW47995   1.007   1.816   5.856  0.5827 -0.1106  0.3724
11979SOL    HW147996   0.968   1.794   5.946  0.2909 -1.5742 -0.1014
11979SOL    HW247997   0.940   1.866   5.801  0.1749 -0.6651  0.3662
11980SOL     OW47998   0.434   2.042   3.036 -0.1797  0.9964 -0.0891
11980SOL    HW147999   0.491   1.981   3.092 -0.7061  0.9645  0.4216
11980SOL    HW248000   0.490   2.118   3.004  1.1706 -1.1095 -2.9725
11981SOL     OW48001   3.590   9.747   0.030 -0.3176  1.0040  0.2956
11981SOL    HW148002   3.536   9.672   0.069  0.7457  0.1099  0.1074
11981SOL    HW248003   3.597   9.821   0.096  0.9984 -0.2625  1.6336
11982SOL     OW48004   0.726   7.414   9.318 -0.2108 -0.5810  0.7899
11982SOL    HW148005   0.804   7.363   9.283 -0.2698 -0.4346  0.4457
11982SOL    HW248006   0.692   7.476   9.247  0.3658  0.5317  1.4807
11983SOL     OW48007   4.027   0.083   0.906  0.5943  0.0293  0.3969
11983SOL    HW148008   3.983   0.026   0.837 -0.4073 -0.2500  1.2523
11983SOL    HW248009   4.124   0.091   0.886  0.2089  0.4497 -1.3824
11984SOL     OW48010   0.603   1.944   8.281 -0.2236  0.7788  0.0440
11984SOL    HW148011   0.675   2.008   8.308  2.2232 -1.1640 -1.6457
11984SOL    HW248012   0.644   1.857   8.255 -3.1587 -0.2057 -1.5000
11985SOL     OW48013   2.757   1.510   1.552  0.1938  0.2606  0.3382
11985SOL    HW148014   2.717   1.501   1.643 -0.5760  1.0589  0.0823
11985SOL    HW248015   2.855   1.488   1.556 -0.1083 -1.0076  1.0956
11986SOL     OW48016   9.395   5.956   9.704  0.2376 -0.1205 -0.3268
11986SOL    HW148017   9.393   5.996   9.612 -1.7769  0.4837 -0.0567
11986SOL    HW248018   9.410   6.028   9.771 -1.2649 -0.0847  0.0055
11987SOL     OW48019   3.134   9.735   5.000 -0.2234  0.6864  0.0197
11987SOL    HW148020   3.079   9.816   5.019  1.4358  1.9487 -0.5108
11987SOL    HW248021   3.212   9.732   5.063  0.2313 -0.0240 -0.5701
11988SOL     OW48022   5.213   2.630   6.778  0.1638  0.1404 -0.7324
11988SOL    HW148023   5.197   2.712   6.724 -0.3732  0.7978  0.4032
11988SOL    HW248024   5.229   2.552   6.717  1.2230  1.1849 -1.8149
11989SOL     OW48025   1.735   1.778   0.275  0.0718  0.4121 -0.4450
11989SOL    HW148026   1.661   1.752   0.214  0.6087 -0.6187 -0.6740
11989SOL    HW248027   1.732   1.721   0.358 -1.1877  2.3987  0.9064
11990SOL     OW48028   1.608   6.987   9.344  0.3744  0.7645 -0.1389
11990SOL    HW148029   1.661   7.048   9.285 -0.0907  0.7908 -0.5268
11990SOL    HW248030   1.551   6.927   9.289 -0.6517  1.3292  0.2989
11991SOL     OW48031   2.214   3.221   7.004  0.2767 -0.3548  0.0631
11991SOL    HW148032   2.221   3.153   7.077  0.1877  0.7532  1.1072
11991SOL    HW248033   2.291   3.284   7.009 -0.6668  0.7841  0.2781
11992SOL     OW48034   7.770   5.575   0.126  0.3856 -0.1602  0.2510
11992SOL    HW148035   7.736   5.502   0.067  0.9418  1.5375 -2.2511
11992SOL    HW248036   7.738   5.663   0.091  2.3577  1.0336  1.3539
11993SOL     OW48037   8.309   2.127   0.274  0.2696 -0.0380  0.4740
11993SOL    HW148038   8.274   2.089   0.359 -0.2464 -1.4302 -0.3414
11993SOL    HW248039   8.266   2.081   0.197 -0.0708  1.9595 -0.5547
11994SOL     OW48040   4.769   6.143   1.766  0.2418  0.6517 -0.1531
11994SOL    HW148041   4.815   6.198   1.835  1.4664 -0.3123 -0.1746
11994SOL    HW248042   4.809   6.160   1.677  0.6152 -0.2436 -0.1638
11995SOL     OW48043   9.136   6.953   9.072 -0.0248 -0.4631  0.1072
11995SOL    HW148044   9.140   6.930   8.975 -0.3837  0.3715 -0.1012
11995SOL    HW248045   9.043   6.940   9.107 -0.2342  0.6799 -0.0140
11996SOL     OW48046   8.998   6.837   0.377 -0.2882  0.2806  0.0170
11996SOL    HW148047   8.927   6.901   0.406 -0.2157  1.2770 -1.9209
11996SOL    HW248048   8.957   6.764   0.323 -0.1318 -0.3827  0.7857
11997SOL     OW48049   9.964   8.061   5.704 -0.0344  0.0036  0.1422
11997SOL    HW148050   9.947   7.964   5.685  0.7392 -0.5722  2.3031
11997SOL    HW248051   9.901   8.116   5.649 -1.1043 -1.7330 -0.4457
11998SOL     OW48052   4.667   0.206   3.711 -0.3168 -0.1564 -0.5283
11998SOL    HW148053   4.755   0.212   3.758 -1.1713  2.9033  0.8302
11998SOL    HW248054   4.595   0.238   3.772 -2.2299 -1.3862 -2.0715
11999SOL     OW48055   2.744   0.627   1.890 -0.3455 -0.5469 -0.0942
11999SOL    HW148056   2.759   0.717   1.931 -0.4939 -0.3255 -0.5151
11999SOL    HW248057   2.830   0.594   1.850  0.4925 -2.0020  2.7804
12000SOL     OW48058   4.180   4.086   6.881 -0.2146 -0.2223  0.3301
12000SOL    HW148059   4.237   4.093   6.963  0.3302 -0.3724 -0.0358
12000SOL    HW248060   4.200   4.000   6.834 -0.3643 -0.0344 -0.0825
12001SOL     OW48061   9.397   8.108   6.530 -0.1911  0.7004 -0.3798
12001SOL    HW148062   9.350   8.197   6.525  0.1753  0.8398 -1.6874
12001SOL    HW248063   9.494   8.123   6.547 -0.3571  0.4773  0.8032
12002SOL     OW48064   6.976   1.328   2.155  0.5519  0.3155 -0.1499
12002SOL    HW148065   7.025   1.327   2.242 -0.1048 -0.5380  0.2217
12002SOL    HW248066   6.961   1.234   2.124 -0.4864  0.5678 -0.4464
12003SOL     OW48067   0.494   7.293   3.430  0.3909  0.5485 -0.3995
12003SOL    HW148068   0.575   7.308   3.372  0.4160  0.4256 -0.3952
12003SOL    HW248069   0.513   7.325   3.523  0.6067  0.0606 -0.2743
12004SOL     OW48070   5.238   3.698   0.510  0.2429  0.6354 -0.0994
12004SOL    HW148071   5.148   3.687   0.468  0.5906 -0.0663 -0.6693
12004SOL    HW248072   5.229   3.749   0.595 -0.9718 -0.9904  0.7923
12005SOL     OW48073   9.049   7.705   8.124  0.3852  0.2853 -0.0591
12005SOL    HW148074   8.999   7.791   8.120  1.4899  0.9116 -0.6357
12005SOL    HW248075   9.137   7.720   8.169  1.7854  0.0599 -2.6396
12006SOL     OW48076   2.075   3.564   4.665  0.0358 -0.4182  0.5369
12006SOL    HW148077   2.135   3.638   4.697  0.6018 -0.6930  0.1141
12006SOL    HW248078   2.079   3.558   4.565 -0.8018 -0.3548  0.4931
12007SOL     OW48079   8.814   4.064   2.361 -0.1514  0.4500 -0.1534
12007SOL    HW148080   8.852   4.043   2.451 -0.3373 -1.4109 -0.4888
12007SOL    HW248081   8.842   3.994   2.295 -0.6612  1.3624 -1.3679
12008SOL     OW48082   0.115   4.635   9.092  0.5610 -0.2363  0.7043
12008SOL    HW148083   0.147   4.724   9.060  0.3125 -0.3301  0.1853
12008SOL    HW248084   0.061   4.647   9.175  1.2334  0.0073  1.1140
12009SOL     OW48085   7.181   8.034   7.523  0.6055 -0.0012  0.7351
12009SOL    HW148086   7.222   8.071   7.439 -0.3894 -0.3677  0.0845
12009SOL    HW248087   7.082   8.046   7.520  0.5051 -0.5788  1.5760
12010SOL     OW48088   0.308   3.860   9.882 -0.6611 -0.1860 -0.4114
12010SOL    HW148089   0.298   3.822   9.790 -2.9226 -1.3411  0.2702
12010SOL    HW248090   0.278   3.955   9.882  0.4473  0.1749 -1.0999
12011SOL     OW48091   8.106   1.088   1.608 -0.2067  0.0053 -0.0502
12011SOL    HW148092   8.067   1.091   1.516  0.1142  1.1903 -0.1652
12011SOL    HW248093   8.074   1.007   1.656 -0.5213 -0.5246 -1.1474
12012SOL     OW48094   3.206   3.070   7.091 -0.6337 -0.2576  0.3758
12012SOL    HW148095   3.194   3.161   7.051  0.0287 -0.3690 -0.0953
12012SOL    HW248096   3.286   3.026   7.050 -0.3055 -0.6244  1.3839
12013SOL     OW48097   1.588   4.120   6.143 -0.2370 -0.1765 -0.1969
12013SOL    HW148098   1.515   4.059   6.172 -0.1016 -0.4743 -0.4716
12013SOL    HW248099   1.562   4.215   6.159 -0.3047 -0.3240  0.5579
12014SOL     OW48100   0.648   5.620   8.942  0.3536  0.3763 -0.0250
12014SOL    HW148101   0.657   5.625   8.842  1.6425  2.3996  0.1713
12014SOL    HW248102   0.737   5.603   8.983 -0.2831 -1.1611  0.7671
12015SOL     OW48103   1.012   6.296   9.928  0.5947  0.0777  0.1965
12015SOL    HW148104   1.109   6.313   9.910  0.4136  1.0017  0.0749
12015SOL    HW248105   0.957   6.349   9.864  0.0072 -0.9875 -0.1955
12016SOL     OW48106   1.443   5.518   7.375 -0.4269  0.1403  0.3305
12016SOL    HW148107   1.513   5.447   7.367  0.4833  1.2601 -2.4126
12016SOL    HW248108   1.358   5.486   7.334 -0.3885  0.1620  0.2329
12017SOL     OW48109   1.750   6.706   1.016 -0.2574 -0.1213 -0.1686
12017SOL    HW148110   1.678   6.688   0.950 -0.8659 -0.8864  0.6859
12017SOL    HW248111   1.779   6.620   1.058 -1.5461  0.5889  2.2772
12018SOL     OW48112   0.065   2.772   0.802  0.0124 -0.1673 -0.5253
12018SOL    HW148113   0.036   2.762   0.898  0.3115  0.2982 -0.3899
12018SOL    HW248114  -0.016   2.773   0.743 -0.1958  0.0521 -0.2357
12019SOL     OW48115   9.934   8.309   9.211 -0.6707  0.2070  0.6460
12019SOL    HW148116   9.925   8.212   9.189 -0.8191  0.9137 -2.7480
12019SOL    HW248117   9.881   8.363   9.145 -0.7276  2.5970  2.5735
12020SOL     OW48118   3.326   2.270   3.111 -0.2272 -0.4847  0.1131
12020SOL    HW148119   3.301   2.301   3.202 -1.4166 -1.6761  0.1975
12020SOL    HW248120   3.426   2.264   3.104 -0.1486 -0.9648  1.5278
12021SOL     OW48121   2.291   4.234   3.511 -0.2227 -0.3118 -0.0366
12021SOL    HW148122   2.293   4.316   3.454  1.7925 -0.3444 -0.0479
12021SOL    HW248123   2.303   4.259   3.607  3.5594 -0.7927 -0.3235
12022SOL     OW48124   7.994   7.876   3.825 -0.1470  0.7993 -0.5962
12022SOL    HW148125   8.055   7.954   3.808  0.5193  0.3053 -0.4745
12022SOL    HW248126   7.906   7.910   3.859  0.3269  1.4691 -0.0163
12023SOL     OW48127   3.649   8.735   2.354 -0.4435  0.0803  0.3630
12023SOL    HW148128   3.554   8.764   2.369 -0.8054 -1.2489  0.6838
12023SOL    HW248129   3.706   8.770   2.429 -1.0782 -0.9756  1.3476
12024SOL     OW48130   8.136   4.199   2.370 -0.1014 -0.0213  0.6076
12024SOL    HW148131   8.120   4.120   2.312  1.3640 -0.9922  1.4937
12024SOL    HW248132   8.189   4.267   2.320 -1.4380  0.4602 -0.1849
12025SOL     OW48133   8.555   8.052   7.772 -0.8833 -0.4474 -0.1125
12025SOL    HW148134   8.607   8.056   7.857  0.0024 -0.9615 -0.6310
12025SOL    HW248135   8.478   7.989   7.783 -0.0287 -1.5062 -0.0919
12026SOL     OW48136   2.912   1.066   5.413  0.5149  0.0459 -0.0211
12026SOL    HW148137   2.975   1.143   5.409 -0.1334  0.5111 -2.0565
12026SOL    HW248138   2.880   1.053   5.507  0.9639  1.9785  0.4136
12027SOL     OW48139   0.089   8.788   0.441  0.1454  0.2131 -0.4582
12027SOL    HW148140   0.168   8.728   0.449 -0.1275  0.0315  0.9538
12027SOL    HW248141   0.006   8.738   0.463 -0.4130  0.3170 -2.2575
12028SOL     OW48142   8.381   1.020   8.138 -0.3073 -0.2238 -0.4600
12028SOL    HW148143   8.458   0.968   8.098  0.9438 -0.0562  1.6440
12028SOL    HW248144   8.336   0.963   8.207  1.2659  1.5300  2.0912
12029SOL     OW48145   2.918   3.710   1.932  0.6481  0.5921  0.0963
12029SOL    HW148146   2.989   3.680   1.867  0.0134  0.7250 -0.6654
12029SOL    HW248147   2.841   3.749   1.881  0.0003  0.3901  0.9154
12030SOL     OW48148   2.874   8.453   8.434 -0.2913  0.6067  0.3919
12030SOL    HW148149   2.868   8.353   8.428 -2.0931  0.4562  3.5060
12030SOL    HW248150   2.957   8.484   8.389  0.4415 -2.3251 -0.3906
12031SOL     OW48151   0.629   7.220   5.339  0.2001 -0.0111  0.2302
12031SOL    HW148152   0.640   7.215   5.240 -2.0317  0.5945 -0.0803
12031SOL    HW248153   0.684   7.148   5.383  0.4284 -0.9025 -1.4960
12032SOL     OW48154   7.425   0.209   8.360 -0.3035 -0.2300 -0.2086
12032SOL    HW148155   7.511   0.187   8.406 -0.3068  1.9557  0.9367
12032SOL    HW248156   7.443   0.269   8.282 -0.5246 -2.1885 -1.8109
12033SOL     OW48157   1.677   6.880   9.926 -0.0051 -0.0078 -0.0683
12033SOL    HW148158   1.622   6.904  10.006 -0.4276 -1.0635 -0.0230
12033SOL    HW248159   1.677   6.780   9.915  1.9515 -0.0329 -0.0290
12034SOL     OW48160   2.657   4.845   9.383 -0.0570  0.3236 -0.7494
12034SOL    HW148161   2.623   4.809   9.297  2.8124 -1.6958 -1.1132
12034SOL    HW248162   2.715   4.925   9.365 -0.2372  0.4937 -0.5869
12035SOL     OW48163   1.910   9.577   4.738  0.0018 -0.1973 -0.3307
12035SOL    HW148164   1.963   9.492   4.731  0.4647 -0.0082  0.8183
12035SOL    HW248165   1.819   9.556   4.775  0.5720 -0.0255  1.1953
12036SOL     OW48166   9.070   3.575   4.268  0.3706  0.4157 -0.0566
12036SOL    HW148167   8.998   3.511   4.243  1.6309 -0.6668 -0.9841
12036SOL    HW248168   9.149   3.561   4.208  0.7619  2.6544 -0.0951
12037SOL     OW48169   1.131   5.184   0.740 -0.1635  0.0518 -0.3841
12037SOL    HW148170   1.151   5.186   0.642 -0.4917 -0.9714 -0.4778
12037SOL    HW248171   1.042   5.140   0.755 -0.0618  0.1018  0.3822
12038SOL     OW48172   8.593   7.202   2.874  0.4697 -0.1405 -0.7287
12038SOL    HW148173   8.517   7.214   2.811  1.7857  1.9935 -1.9732
12038SOL    HW248174   8.665   7.148   2.830  0.2390 -1.0395 -0.0255
12039SOL     OW48175   2.794   5.617   0.982  0.0871  0.2358 -0.4514
12039SOL    HW148176   2.866   5.644   0.918  0.4001 -1.8710 -1.0159
12039SOL    HW248177   2.817   5.648   1.074  0.9910  0.8498 -0.8776
12040SOL     OW48178   0.484   7.298   0.945 -0.2027 -0.0301 -0.2538
12040SOL    HW148179   0.528   7.341   0.866 -0.7125  2.5294  0.8146
12040SOL    HW248180   0.550   7.288   1.019  0.0638 -1.6699 -0.6942
12041SOL     OW48181   7.644   0.070   0.417 -0.4071  0.4980  0.3643
12041SOL    HW148182   7.618   0.115   0.502  0.2757  0.5356  0.5607
12041SOL    HW248183   7.738   0.095   0.394 -0.4661  0.2022 -0.2105
12042SOL     OW48184   9.105   1.960   1.230 -0.1975  0.4525 -0.0101
12042SOL    HW148185   9.191   1.983   1.185  0.2826  2.2897  1.8052
12042SOL    HW248186   9.059   2.044   1.260 -1.5342 -0.6325  1.0404
12043SOL     OW48187   6.289   5.922   9.710  0.0890  0.9763  0.2119
12043SOL    HW148188   6.322   6.012   9.681 -0.4072  0.9722 -0.3538
12043SOL    HW248189   6.303   5.912   9.809  0.5122  1.5164  0.2087
12044SOL     OW48190   3.765   9.541   0.302 -0.3348  0.0647  0.1473
12044SOL    HW148191   3.670   9.522   0.326 -0.5069  1.7428  0.8236
12044SOL    HW248192   3.769   9.621   0.242  0.7706  0.9614  1.3894
12045SOL     OW48193   0.653   2.329   5.940  0.1447 -0.3504 -0.0286
12045SOL    HW148194   0.752   2.346   5.931  0.2323 -0.5698  0.5019
12045SOL    HW248195   0.612   2.325   5.849  1.0744 -2.7869 -0.3791
12046SOL     OW48196   4.795   7.547   3.856 -0.2910 -0.0045 -0.3744
12046SOL    HW148197   4.750   7.485   3.793 -0.9403  0.9355 -0.8532
12046SOL    HW248198   4.764   7.641   3.838  0.1523  0.3733  0.7759
12047SOL     OW48199   2.969   0.230   5.134 -0.5176 -0.2075 -0.4426
12047SOL    HW148200   2.941   0.306   5.074  0.3187 -0.2159 -0.8506
12047SOL    HW248201   3.068   0.231   5.145 -0.6666 -0.1159  1.0784
12048SOL     OW48202   5.587   2.574   5.568 -0.0261  0.0984  0.0856
12048SOL    HW148203   5.527   2.525   5.505  0.2269  0.3327 -0.3402
12048SOL    HW248204   5.676   2.530   5.570  0.6250  1.2878 -1.3024
12049SOL     OW48205   3.953   6.672   2.119 -0.2327  0.3107 -0.0011
12049SOL    HW148206   3.895   6.674   2.200  0.5362 -2.2815  0.6364
12049SOL    HW248207   4.039   6.720   2.138 -0.0838 -0.2274  0.6913
12050SOL     OW48208   7.710   9.280   8.590  0.4243 -0.4275 -0.0255
12050SOL    HW148209   7.703   9.196   8.535 -0.9041 -0.4270  0.1201
12050SOL    HW248210   7.657   9.353   8.547  2.3557  0.6425 -0.6567
12051SOL     OW48211   2.592   7.737   2.848  0.1651 -0.2111 -0.3867
12051SOL    HW148212   2.687   7.742   2.819  0.1720 -0.5686 -0.4298
12051SOL    HW248213   2.573   7.645   2.884 -0.1073 -0.0783 -0.1917
12052SOL     OW48214   8.469   9.495   5.125  0.4135  0.0022  0.0835
12052SOL    HW148215   8.540   9.546   5.076  0.1745  1.3751  1.1274
12052SOL    HW248216   8.379   9.535   5.104  0.1136 -0.6870  0.0499
12053SOL     OW48217   9.506   6.663   1.204  0.4507  0.4443 -0.1632
12053SOL    HW148218   9.450   6.638   1.283 -1.6749  0.6165 -1.5901
12053SOL    HW248219   9.472   6.749   1.164  1.7660  0.5830 -1.0253
12054SOL     OW48220   4.308   2.573   4.026 -0.0882  0.2412  0.6010
12054SOL    HW148221   4.275   2.657   3.984  1.3087  0.1516 -0.7397
12054SOL    HW248222   4.288   2.496   3.966  2.4316  0.1794 -0.2447
12055SOL     OW48223   2.672   2.746   7.808 -0.1928  0.1404 -0.3614
12055SOL    HW148224   2.584   2.758   7.762 -1.6068 -0.2627  2.1540
12055SOL    HW248225   2.737   2.704   7.745 -1.8300  0.3374 -2.2245
12056SOL     OW48226   2.589   3.593   4.553  0.2177  0.6221 -0.0197
12056SOL    HW148227   2.532   3.511   4.540 -0.8629  1.3142  0.3131
12056SOL    HW248228   2.559   3.641   4.636 -1.0470  2.9133 -1.7618
12057SOL     OW48229   8.367   9.640   6.221  0.1446 -0.2039 -0.2999
12057SOL    HW148230   8.427   9.609   6.147  0.4254  0.7324 -0.4623
12057SOL    HW248231   8.308   9.713   6.189 -1.0043 -1.0352 -0.0989
12058SOL     OW48232   4.959   1.879   7.485  0.6638 -0.3134 -0.3569
12058SOL    HW148233   5.056   1.886   7.461  0.7957 -1.2504 -0.1144
12058SOL    HW248234   4.919   1.801   7.436 -0.0216  0.2141 -0.6360
12059SOL     OW48235   1.102   3.021   6.145 -0.0788 -0.0691  0.1008
12059SOL    HW148236   1.161   2.944   6.119 -0.5900 -0.9091  1.3731
12059SOL    HW248237   1.149   3.076   6.214  0.9396  1.6898 -1.9390
12060SOL     OW48238   7.052   6.811   2.291 -0.1739 -0.0561 -0.0338
12060SOL    HW148239   7.150   6.807   2.312  0.0258 -0.4803 -1.0476
12060SOL    HW248240   7.027   6.733   2.235 -0.8164  0.8032 -0.9514
12061SOL     OW48241   7.649   0.574   8.428 -0.3452  0.1070 -0.1166
12061SOL    HW148242   7.563   0.598   8.472 -0.3880 -0.5096  0.1456
12061SOL    HW248243   7.635   0.492   8.371 -0.1293  0.4889 -0.7227
12062SOL     OW48244   8.339   1.131   7.810  0.3975  0.7241 -0.0168
12062SOL    HW148245   8.374   1.188   7.736 -1.4889  2.5637  0.4745
12062SOL    HW248246   8.305   1.189   7.884  0.3778 -1.0742  1.4139
12063SOL     OW48247   8.388   7.125   6.882  0.0745  0.4167 -0.5501
12063SOL    HW148248   8.463   7.128   6.948 -1.3099 -1.1887  1.1379
12063SOL    HW248249   8.355   7.218   6.865  1.3453  0.9697 -0.0330
12064SOL     OW48250   7.377   9.140   2.609  0.1205 -0.5237  0.2680
12064SOL    HW148251   7.300   9.131   2.672 -0.3615  3.2028  0.3643
12064SOL    HW248252   7.457   9.094   2.646 -0.4722  0.6286  3.0964
12065SOL     OW48253   9.757   0.213   5.085  0.7651  0.5394 -0.3402
12065SOL    HW148254   9.721   0.274   5.156  0.7463 -0.7601  0.7874
12065SOL    HW248255   9.698   0.133   5.077  1.4049  0.1362 -1.0360
12066SOL     OW48256   9.019   7.581   4.739  0.6006  0.4867  0.2081
12066SOL    HW148257   9.034   7.670   4.782 -0.3108  0.4260  0.6698
12066SOL    HW248258   9.092   7.562   4.674  0.2908  1.9913 -0.5898
12067SOL     OW48259   2.235   3.524   4.001  0.0500  0.3436 -0.2235
12067SOL    HW148260   2.201   3.618   4.008  0.7645  0.5541  0.4592
12067SOL    HW248261   2.334   3.524   4.006  0.0290 -0.4974  0.2331
12068SOL     OW48262   7.164   8.941   2.769  0.1073  0.6670 -0.0111
12068SOL    HW148263   7.216   8.856   2.782 -0.2507  0.5208  0.5160
12068SOL    HW248264   7.139   8.978   2.859  0.5689  1.5260 -0.2300
12069SOL     OW48265   3.286   0.166   4.698  0.0262  0.3920  0.1468
12069SOL    HW148266   3.205   0.132   4.744  0.4499 -0.2047  0.4555
12069SOL    HW248267   3.259   0.226   4.623 -0.7224 -0.6235 -0.3986
12070SOL     OW48268   8.881   3.434   5.054 -0.1352  0.4103 -0.1067
12070SOL    HW148269   8.911   3.471   4.966 -2.6237  1.4978 -0.5648
12070SOL    HW248270   8.833   3.347   5.039  0.4140  0.0312  0.3102
12071SOL     OW48271   3.236   1.013   0.559 -0.5291 -0.3978  0.4672
12071SOL    HW148272   3.291   0.932   0.537 -1.8243 -1.0712 -0.3391
12071SOL    HW248273   3.251   1.083   0.490 -0.8823 -0.6736  0.1136
12072SOL     OW48274   5.409   8.983   4.495  0.0436  0.3158  0.2328
12072SOL    HW148275   5.431   9.041   4.573 -0.2824  1.2140 -0.3306
12072SOL    HW248276   5.342   9.029   4.436  2.1671  0.7578 -1.9210
12073SOL     OW48277   0.273   9.006   7.592 -0.4372  0.3405 -0.2811
12073SOL    HW148278   0.241   9.074   7.659  0.5909  1.2937 -0.7266
12073SOL    HW248279   0.371   9.021   7.576 -0.5159 -0.3891 -1.4181
12074SOL     OW48280   3.753   5.180   5.312  0.3628  0.2667 -0.8511
12074SOL    HW148281   3.762   5.166   5.213  0.8720  0.3452 -0.8142
12074SOL    HW248282   3.680   5.246   5.329  0.7775  0.8210 -1.2111
12075SOL     OW48283   6.086   1.702   5.984  0.1519  0.4377  0.7106
12075SOL    HW148284   6.165   1.759   5.961  1.1795 -1.8218 -1.5126
12075SOL    HW248285   6.087   1.619   5.928 -2.9190 -0.3977  1.8233
12076SOL     OW48286   7.413   5.801   6.956 -0.1814 -0.5322 -0.3173
12076SOL    HW148287   7.380   5.874   6.897  1.5449  1.0165  0.5794
12076SOL    HW248288   7.384   5.712   6.919 -0.2696  0.4680 -2.7277
12077SOL     OW48289   2.877   7.090   8.455  0.2063  0.5497 -0.3512
12077SOL    HW148290   2.781   7.068   8.437  0.6737 -1.1570 -0.9188
12077SOL    HW248291   2.928   7.087   8.369  0.8095  1.1935 -0.0173
12078SOL     OW48292   3.691   0.128   0.416  0.6440  0.3097  0.2239
12078SOL    HW148293   3.661   0.076   0.496  1.0014  1.3406  1.0429
12078SOL    HW248294   3.754   0.200   0.445 -0.7059  1.9098 -0.7363
12079SOL     OW48295   1.862   0.057   4.555  0.2524  0.3159  0.1883
12079SOL    HW148296   1.853   0.108   4.640 -2.5664 -0.8343  0.6109
12079SOL    HW248297   1.915  -0.026   4.572  0.2110  0.3851  0.6709
12080SOL     OW48298   3.771   7.125   0.812  0.1194  0.0304 -0.1533
12080SOL    HW148299   3.796   7.174   0.728 -0.3975  0.6373  0.0420
12080SOL    HW248300   3.840   7.143   0.883 -0.0486  0.4506 -0.0931
12081SOL     OW48301   7.205   3.433   1.505 -0.3231  0.3593 -0.4833
12081SOL    HW148302   7.147   3.379   1.566  0.9406  0.3465  0.7255
12081SOL    HW248303   7.256   3.500   1.558  0.5082  0.5997 -1.5769
12082SOL     OW48304   6.758   9.435   2.095 -0.0820  0.4789 -0.4529
12082SOL    HW148305   6.832   9.368   2.104  0.6646  0.9333 -2.8684
12082SOL    HW248306   6.705   9.416   2.012 -0.6129  2.1591 -0.5222
12083SOL     OW48307   3.944   5.831   1.719 -0.2343 -0.2361  0.2169
12083SOL    HW148308   3.875   5.888   1.763 -0.8419 -0.1636 -0.8080
12083SOL    HW248309   3.956   5.746   1.770 -1.7389 -0.6439 -0.0881
12084SOL     OW48310   6.055   2.424   8.237 -0.2218 -0.3975 -0.7745
12084SOL    HW148311   6.065   2.330   8.267  1.5627 -0.0615 -0.2610
12084SOL    HW248312   6.137   2.476   8.262 -1.0485  1.2049 -1.3328
12085SOL     OW48313   6.097   5.069   1.252 -0.1120  0.0982 -0.3110
12085SOL    HW148314   6.077   5.069   1.350  2.3477  0.6347  0.2290
12085SOL    HW248315   6.097   5.163   1.218  0.8509  0.0682 -0.4130
12086SOL     OW48316   7.926   3.753   1.159 -0.0227 -0.4117  0.4647
12086SOL    HW148317   8.009   3.727   1.208 -0.2982 -1.2313  0.5064
12086SOL    HW248318   7.854   3.776   1.224  0.5569  1.5886  0.4284
12087SOL     OW48319   2.518   0.792   4.909  0.3516 -0.1871  0.0762
12087SOL    HW148320   2.429   0.769   4.948  0.7794  1.0225  1.8015
12087SOL    HW248321   2.589   0.773   4.976  1.3343 -0.3867 -1.0132
12088SOL     OW48322   9.937   5.250   6.594  0.2365  0.4710 -0.3316
12088SOL    HW148323  10.009   5.315   6.621  0.2941  0.2626  0.0273
12088SOL    HW248324   9.908   5.199   6.675 -1.8916  2.0986 -0.0121
12089SOL     OW48325   8.145   9.146   6.296  0.6225 -0.0476 -0.3752
12089SOL    HW148326   8.148   9.081   6.372  0.4402  0.1624 -0.1916
12089SOL    HW248327   8.215   9.216   6.309  1.7954 -1.0017 -1.2888
12090SOL     OW48328   8.731   4.407   6.652  0.0261 -0.1522  0.2550
12090SOL    HW148329   8.728   4.489   6.595  0.8280 -0.8546 -0.8095
12090SOL    HW248330   8.672   4.336   6.613 -1.4520  0.2280  1.7062
12091SOL     OW48331   0.674   0.700   7.944 -0.3826 -0.2178 -0.4570
12091SOL    HW148332   0.651   0.736   7.854  0.1331  0.0307 -0.4902
12091SOL    HW248333   0.745   0.757   7.986  0.0515 -0.8731 -0.2894
12092SOL     OW48334   3.640   8.857   6.808  0.3097 -1.0716  0.0794
12092SOL    HW148335   3.610   8.870   6.714  1.5484 -1.3727 -0.3609
12092SOL    HW248336   3.736   8.829   6.810  0.2729 -1.1723  1.4242
12093SOL     OW48337   9.883   9.292   9.931  0.4233  0.0834 -0.4022
12093SOL    HW148338   9.793   9.265   9.897  0.0451  1.1851 -0.2923
12093SOL    HW248339   9.945   9.213   9.928  0.2745  0.0194 -3.2128
12094SOL     OW48340   0.870   7.934   4.808  0.2830  0.1825 -0.2710
12094SOL    HW148341   0.828   7.866   4.747  0.3683  1.1720 -1.4611
12094SOL    HW248342   0.965   7.949   4.780  0.3979  0.4679  0.2663
12095SOL     OW48343   3.715   8.311   3.592  0.2039 -0.5605  0.9400
12095SOL    HW148344   3.723   8.256   3.509  2.8170  1.4073 -0.1982
12095SOL    HW248345   3.778   8.276   3.662 -0.6940 -1.1286  1.4759
12096SOL     OW48346   1.102   5.981   4.634 -0.3384 -0.2067 -0.0759
12096SOL    HW148347   1.027   6.048   4.630 -0.2723 -0.1998 -1.4010
12096SOL    HW248348   1.119   5.956   4.729  0.1193  2.1921  0.4981
12097SOL     OW48349   0.341   2.241   2.474 -0.4203 -0.2751 -0.0914
12097SOL    HW148350   0.358   2.205   2.382  2.5310 -1.2325  0.7634
12097SOL    HW248351   0.347   2.341   2.472 -0.2427 -0.2962 -0.9155
12098SOL     OW48352   3.863   7.913   3.215 -0.3969 -0.2040  0.4648
12098SOL    HW148353   3.827   7.907   3.122  0.6845 -0.0745  0.0347
12098SOL    HW248354   3.963   7.912   3.213 -0.3475  0.9087  1.5396
12099SOL     OW48355   4.001   1.117   3.663 -0.4793 -0.1798  0.2451
12099SOL    HW148356   4.047   1.063   3.735 -0.1152  0.7735  0.7448
12099SOL    HW248357   3.946   1.189   3.706 -1.9697 -0.9289 -0.3775
12100SOL     OW48358   3.414   8.313   3.788 -0.2952  0.0868  0.0288
12100SOL    HW148359   3.416   8.240   3.857  0.0680 -0.6425 -0.7411
12100SOL    HW248360   3.478   8.291   3.715 -1.4557  0.3153 -1.0747
12101SOL     OW48361   8.757   7.345   3.153  0.3156  0.0793  0.0538
12101SOL    HW148362   8.808   7.388   3.078  1.9459 -1.1029  0.4653
12101SOL    HW248363   8.660   7.368   3.145  0.4454 -0.1835 -2.5234
12102SOL     OW48364   0.957   1.364   1.748 -0.0513 -0.1712  0.4237
12102SOL    HW148365   0.892   1.293   1.721  1.1928 -1.3953  0.5963
12102SOL    HW248366   0.913   1.428   1.810 -1.5938  0.0045 -0.8111
12103SOL     OW48367   1.821   1.452   1.309 -0.3164  0.8038  0.3059
12103SOL    HW148368   1.729   1.460   1.270  0.1966  1.0181 -0.8748
12103SOL    HW248369   1.827   1.367   1.362 -1.5743  1.4112  1.4456
12104SOL     OW48370   8.817   3.136   3.342 -0.2713  0.5904  0.1989
12104SOL    HW148371   8.884   3.065   3.320 -1.1794 -0.3569  0.4962
12104SOL    HW248372   8.739   3.130   3.279 -0.4699  1.1689  0.3804
12105SOL     OW48373   1.561   4.389   2.358  0.6997 -0.2825  0.0239
12105SOL    HW148374   1.500   4.338   2.418 -0.7177 -0.0424 -1.1632
12105SOL    HW248375   1.637   4.426   2.410  0.1508 -1.1109  1.4292
12106SOL     OW48376   6.621   9.972   5.000 -0.0922 -0.6451  0.2576
12106SOL    HW148377   6.535   9.927   4.975  0.1490 -0.8019 -0.3168
12106SOL    HW248378   6.630  10.058   4.949  0.5423 -1.1098 -0.4326
12107SOL     OW48379   5.409   0.794   5.875 -0.1285  0.1592  0.4081
12107SOL    HW148380   5.480   0.729   5.902 -0.1416 -0.4465 -0.9634
12107SOL    HW248381   5.443   0.850   5.799  0.4054  2.7474  2.4830
12108SOL     OW48382   2.959   6.993   3.632 -0.0146  0.6451 -0.2601
12108SOL    HW148383   2.988   6.923   3.567  0.6157  0.4464  0.2289
12108SOL    HW248384   3.036   7.018   3.690 -0.9880 -0.3428  1.4903
12109SOL     OW48385   4.579   9.835   1.548 -0.3459 -0.0371  0.0182
12109SOL    HW148386   4.599   9.738   1.539 -1.0618 -0.3833  1.8786
12109SOL    HW248387   4.585   9.879   1.459 -1.2944 -2.0413 -1.0515
12110SOL     OW48388   3.687   2.024   0.214 -0.0156  0.3513  0.2941
12110SOL    HW148389   3.738   1.948   0.175  1.1768  0.5257  1.4829
12110SOL    HW248390   3.722   2.110   0.176 -1.5804  0.3221 -1.3005
12111SOL     OW48391   0.293   8.538   7.992 -0.2071 -0.4076 -0.0985
12111SOL    HW148392   0.290   8.638   7.989 -1.0544 -0.3794  1.2757
12111SOL    HW248393   0.202   8.501   7.978 -0.0479 -0.9587  0.2842
12112SOL     OW48394   0.535   4.792   0.662 -0.1581  0.0987  0.0884
12112SOL    HW148395   0.566   4.714   0.717  1.1183  0.8251  0.4121
12112SOL    HW248396   0.559   4.778   0.566 -0.6298 -0.2632  0.0218
12113SOL     OW48397   5.223   0.983   5.168  0.4431  0.2016 -0.3544
12113SOL    HW148398   5.226   0.885   5.150  0.4310  0.1649 -0.1642
12113SOL    HW248399   5.131   1.008   5.198  0.4674  0.2561 -0.3252
12114SOL     OW48400   2.914   7.139   9.802  0.2415 -0.1369 -0.1172
12114SOL    HW148401   2.974   7.215   9.828  0.7997 -0.5709 -0.1335
12114SOL    HW248402   2.826   7.176   9.773 -0.6406  0.3051  3.0259
12115SOL     OW48403   5.138   4.803   6.447  0.2392 -0.0085 -0.0004
12115SOL    HW148404   5.208   4.732   6.450  1.4386  1.0852 -1.2919
12115SOL    HW248405   5.053   4.765   6.410  1.1208 -0.5877 -1.4427
12116SOL     OW48406   0.675   5.616   6.027 -0.5429 -0.0422 -0.1760
12116SOL    HW148407   0.623   5.697   6.002 -0.9948  0.2344  1.6589
12116SOL    HW248408   0.623   5.534   6.002 -1.6119  0.2299  1.1475
12117SOL     OW48409   4.121   1.759   7.350 -0.1214 -0.1722 -0.1181
12117SOL    HW148410   4.067   1.829   7.397  0.7182 -1.1286  2.3829
12117SOL    HW248411   4.096   1.756   7.254 -1.8049  1.9860  0.2203
12118SOL     OW48412   7.357   1.989   4.150  0.6355 -0.6083 -0.1013
12118SOL    HW148413   7.456   1.977   4.160  0.6936 -0.1002 -0.0606
12118SOL    HW248414   7.334   2.086   4.153  0.0662 -0.7542  0.5179
12119SOL     OW48415   1.658   4.990   9.422  0.4352 -0.5405  0.4268
12119SOL    HW148416   1.720   4.937   9.365  0.1346 -1.2020  0.7078
12119SOL    HW248417   1.630   4.935   9.501 -0.6349 -0.3242  0.2155
12120SOL     OW48418   4.660   0.798   9.225  0.5169  0.6784 -0.0390
12120SOL    HW148419   4.586   0.812   9.290  0.4592 -0.0963  0.0597
12120SOL    HW248420   4.747   0.824   9.267  0.7155 -1.6015  0.9978
12121SOL     OW48421   1.036   2.298   1.280  0.0735 -0.2298  0.1957
12121SOL    HW148422   1.007   2.314   1.185 -0.6484 -1.0277  0.2788
12121SOL    HW248423   1.032   2.384   1.330  1.8534  0.4972 -0.8583
12122SOL     OW48424   2.781   0.124   6.567  0.0971 -0.1321  0.6151
12122SOL    HW148425   2.710   0.066   6.606 -1.2662 -0.4203 -2.1868
12122SOL    HW248426   2.842   0.069   6.510 -0.7118  1.0073 -1.3866
12123SOL     OW48427   0.591   9.898   6.910 -0.2956 -0.9646  0.3171
12123SOL    HW148428   0.600   9.915   6.812  1.0135 -0.9979  0.4240
12123SOL    HW248429   0.590   9.985   6.959 -3.1173 -0.8402  0.1255
12124SOL     OW48430   8.278   9.475   6.994  0.0294  0.0878 -0.7461
12124SOL    HW148431   8.184   9.451   6.968  0.0550 -0.5346 -0.2934
12124SOL    HW248432   8.277   9.527   7.080  0.2263 -1.8010  0.4278
12125SOL     OW48433   0.941   9.907   4.424 -0.1418  0.3032 -0.3587
12125SOL    HW148434   0.869   9.928   4.490 -1.7711 -0.7227 -1.7632
12125SOL    HW248435   1.012   9.853   4.468 -1.6926 -1.2155  0.3414
12126SOL     OW48436   7.930   0.110   8.135 -0.0776  0.1233  0.1993
12126SOL    HW148437   7.951   0.184   8.198  0.7665 -0.7783  1.0091
12126SOL    HW248438   7.896   0.031   8.186 -3.3395  0.7628 -0.8836
12127SOL     OW48439   5.434   0.642   9.246  0.6297  0.2187  0.2375
12127SOL    HW148440   5.423   0.615   9.341 -3.5629 -1.7376 -0.7018
12127SOL    HW248441   5.384   0.727   9.229 -0.7375 -0.7732 -0.7704
12128SOL     OW48442   0.581   1.575   4.709 -0.0797  0.6045 -0.1875
12128SOL    HW148443   0.542   1.598   4.799 -0.4047  0.4877 -0.2979
12128SOL    HW248444   0.681   1.580   4.714 -0.1252  1.4188 -0.0404
12129SOL     OW48445   9.639   0.137   3.576 -0.1213  0.4669  0.3494
12129SOL    HW148446   9.661   0.109   3.670 -0.3926  0.6903  0.4812
12129SOL    HW248447   9.602   0.230   3.577  1.3660  1.0833 -0.1469
12130SOL     OW48448   1.226   7.139   5.869  0.0145  0.0254 -0.0724
12130SOL    HW148449   1.202   7.192   5.788  0.4911  1.7508  0.9036
12130SOL    HW248450   1.297   7.073   5.845 -0.4134 -0.0262 -1.2361
12131SOL     OW48451   3.070   4.322   2.697 -0.0060  0.6851 -0.4244
12131SOL    HW148452   3.147   4.386   2.695  0.3728  0.3103  1.2864
12131SOL    HW248453   3.095   4.242   2.752 -1.1873  0.0038 -0.8766
12132SOL     OW48454   2.955   8.249   6.491  0.2404  0.1404 -0.5092
12132SOL    HW148455   2.982   8.316   6.421  1.2258  0.1224 -0.1617
12132SOL    HW248456   2.865   8.273   6.528  1.1285  2.0110  0.5211
12133SOL     OW48457   8.078   7.363   8.591 -0.4102 -0.1607 -0.0779
12133SOL    HW148458   8.120   7.451   8.611 -0.8718  0.4746 -1.7828
12133SOL    HW248459   8.021   7.334   8.668  1.0682  0.2213  1.1724
12134SOL     OW48460   2.138   3.848   6.654  0.3324  0.0929  0.0581
12134SOL    HW148461   2.218   3.909   6.653  1.1269 -0.9096  0.9025
12134SOL    HW248462   2.151   3.776   6.586  1.2497 -1.4194  1.7828
12135SOL     OW48463   9.315   2.986   1.865  0.3981  0.5895 -0.0672
12135SOL    HW148464   9.249   3.029   1.926  0.4268  1.9055 -0.9592
12135SOL    HW248465   9.403   2.978   1.911  0.2466  0.9771  0.2873
12136SOL     OW48466   4.048   7.647   1.501 -0.1169 -0.0300 -0.1936
12136SOL    HW148467   4.023   7.610   1.591  0.5529  0.2922  0.1217
12136SOL    HW248468   4.109   7.725   1.512  2.5071 -1.8947 -1.0008
12137SOL     OW48469   5.688   7.794   4.467 -0.5579 -0.9127 -0.0820
12137SOL    HW148470   5.623   7.762   4.398  1.0770 -1.8862 -1.2249
12137SOL    HW248471   5.781   7.780   4.433  0.2642 -0.3510  1.8783
12138SOL     OW48472   4.055   4.783   6.558  0.3316  0.0795 -0.0844
12138SOL    HW148473   4.011   4.842   6.626 -1.2375  0.0321 -1.0154
12138SOL    HW248474   4.046   4.825   6.467  2.0505 -0.0493 -0.3170
12139SOL     OW48475   9.278   7.119   8.521  0.1102  0.0674  0.5451
12139SOL    HW148476   9.281   7.036   8.466 -2.1010  0.5505 -0.3335
12139SOL    HW248477   9.260   7.198   8.462  4.5567  1.5681  0.9948
12140SOL     OW48478   1.008   0.663   3.689 -0.1959 -0.5557 -0.3004
12140SOL    HW148479   1.007   0.614   3.776  0.1241  2.6192  1.5505
12140SOL    HW248480   0.914   0.676   3.657 -0.4334  0.2193  0.7054
12141SOL     OW48481   2.794   9.613   3.442  0.1592 -0.7123  0.1643
12141SOL    HW148482   2.751   9.683   3.386 -1.1021 -1.6987 -0.1299
12141SOL    HW248483   2.724   9.550   3.477  1.3600 -2.4922 -0.5243
12142SOL     OW48484   6.895   0.141   6.501 -0.0798 -0.1079 -0.2469
12142SOL    HW148485   6.991   0.147   6.528 -0.1649 -0.4025  0.1397
12142SOL    HW248486   6.872   0.215   6.439 -0.3280  1.6741  1.8992
12143SOL     OW48487   5.876   4.818   0.807  0.0529 -0.1698 -0.0416
12143SOL    HW148488   5.888   4.892   0.873  1.4130  0.1651 -0.6391
12143SOL    HW248489   5.907   4.732   0.847 -1.8516 -0.5061  0.7776
12144SOL     OW48490   5.153   7.782   5.700  0.4107  0.0487 -0.4638
12144SOL    HW148491   5.194   7.860   5.747 -0.1092  0.2526 -0.3538
12144SOL    HW248492   5.067   7.809   5.656  0.0253 -0.5557 -0.0886
12145SOL     OW48493   6.954   8.467   3.721  0.0761 -0.6154  0.3957
12145SOL    HW148494   6.879   8.497   3.662 -0.3463 -0.2286  1.1169
12145SOL    HW248495   7.029   8.534   3.715 -0.1541 -0.3348  0.6561
12146SOL     OW48496   8.192   8.483   7.893 -0.1894 -0.3599  0.0958
12146SOL    HW148497   8.230   8.411   7.950  1.8508  0.4187 -0.2442
12146SOL    HW248498   8.188   8.451   7.798  1.0288  0.0667 -0.1108
12147SOL     OW48499   4.913   5.024   9.316 -0.2229  0.4802  0.2925
12147SOL    HW148500   4.863   5.108   9.297  1.8947  1.4825 -1.0051
12147SOL    HW248501   4.865   4.946   9.275 -1.6033  1.1790  0.5524
12148SOL     OW48502   9.448   5.706   8.106 -0.4807  0.5789 -0.3308
12148SOL    HW148503   9.409   5.707   8.198 -0.1126 -0.2270 -0.1587
12148SOL    HW248504   9.456   5.800   8.072 -2.4179  0.7574 -0.3212
12149SOL     OW48505   3.638   0.893   9.566 -0.2789 -0.0427  0.0681
12149SOL    HW148506   3.552   0.945   9.562 -0.2913  0.0175  1.1208
12149SOL    HW248507   3.622   0.806   9.613  0.0870 -0.3314 -0.3411
12150SOL     OW48508   7.272   4.823   8.532  0.3614 -0.6328 -0.1147
12150SOL    HW148509   7.204   4.893   8.557 -0.9701 -1.7294 -0.5921
12150SOL    HW248510   7.294   4.831   8.435 -0.6013 -1.5474 -0.4147
12151SOL     OW48511   6.799   3.340   2.422 -0.2543  0.7024 -0.1261
12151SOL    HW148512   6.783   3.251   2.379 -1.3924  1.1963 -0.7296
12151SOL    HW248513   6.714   3.372   2.463  0.1372  1.5632  0.0088
12152SOL     OW48514   7.342   4.589   8.418 -0.0332 -0.1624 -0.4571
12152SOL    HW148515   7.290   4.646   8.481  1.5717 -0.8531  1.5436
12152SOL    HW248516   7.310   4.494   8.425  0.7018 -0.3870 -0.0497
12153SOL     OW48517   3.986   2.382   0.517  0.3385 -0.0797  0.1157
12153SOL    HW148518   3.953   2.446   0.586 -1.5343  0.0408 -0.8439
12153SOL    HW248519   4.032   2.305   0.561  0.3511  0.6640  1.4102
12154SOL     OW48520   3.138   1.367   7.329  0.0749  0.3318 -0.1953
12154SOL    HW148521   3.070   1.425   7.374  1.6935  1.7676  0.4857
12154SOL    HW248522   3.105   1.273   7.325 -1.8396  0.9692  0.3199
12155SOL     OW48523   9.391   6.926   3.511  0.0506 -0.2365 -0.0521
12155SOL    HW148524   9.333   7.007   3.508 -1.3935 -1.2168  0.7058
12155SOL    HW248525   9.480   6.950   3.548  0.5964  1.5460 -2.3827
12156SOL     OW48526   2.426   3.062   1.223 -0.5769 -0.3402 -0.9950
12156SOL    HW148527   2.508   3.090   1.274 -0.5502 -1.6443 -0.2891
12156SOL    HW248528   2.446   3.058   1.126 -0.6914  2.4420 -1.1610
12157SOL     OW48529   2.594   5.409   0.034 -0.2222 -0.6320  0.1121
12157SOL    HW148530   2.668   5.399   0.099 -0.9148 -1.5230  0.7811
12157SOL    HW248531   2.573   5.320  -0.008 -0.4340 -0.2563 -0.5985
12158SOL     OW48532   2.268   9.241   6.968  0.2722 -0.3177 -0.3561
12158SOL    HW148533   2.288   9.312   6.899 -0.9684  0.0211 -0.3775
12158SOL    HW248534   2.229   9.161   6.923  1.3991 -0.9169 -0.2932
12159SOL     OW48535   8.627   3.893   4.949  0.1888  0.5237 -0.4962
12159SOL    HW148536   8.679   3.847   5.021 -0.9442  2.5407  1.6915
12159SOL    HW248537   8.604   3.828   4.877  0.5027 -1.7840  1.4378
12160SOL     OW48538   3.042   5.345   1.259  0.4057 -0.2648 -1.1235
12160SOL    HW148539   3.102   5.394   1.323  0.1975 -0.0659 -1.0804
12160SOL    HW248540   3.089   5.334   1.171  1.7654 -2.9050 -0.1349
12161SOL     OW48541   8.794   1.898   9.361  0.2540  0.0706  0.4607
12161SOL    HW148542   8.740   1.915   9.444 -1.1042  1.1465 -0.6118
12161SOL    HW248543   8.851   1.978   9.341 -2.4032  1.4984 -1.8120
12162SOL     OW48544   4.882   5.590   3.286  0.2368 -0.0536 -0.5819
12162SOL    HW148545   4.826   5.665   3.249  1.8283  1.2673 -0.3630
12162SOL    HW248546   4.882   5.514   3.222 -0.8855  0.3709 -1.1068
12163SOL     OW48547   3.556   2.051   1.967  0.1836 -0.0100 -0.1471
12163SOL    HW148548   3.484   2.018   1.906 -1.1726  0.5745  1.1036
12163SOL    HW248549   3.566   1.987   2.043 -0.9552  1.3160  1.1455
12164SOL     OW48550   7.661   0.011   6.363  0.0272 -0.0910 -0.3389
12164SOL    HW148551   7.689  -0.052   6.290  1.5706 -0.5203  0.5868
12164SOL    HW248552   7.712  -0.011   6.447 -1.2371  0.8116  0.6872
12165SOL     OW48553   9.453   9.506   7.047  0.0802 -0.2986  0.4673
12165SOL    HW148554   9.431   9.420   7.001  1.2722 -0.0491 -0.6057
12165SOL    HW248555   9.438   9.582   6.984  0.6305  0.1482  0.8751
12166SOL     OW48556   7.089   0.811   9.330  0.0194 -0.9141  0.2778
12166SOL    HW148557   7.031   0.786   9.253 -1.1817  1.0050  0.5354
12166SOL    HW248558   7.182   0.827   9.298 -1.0034  2.3509 -1.2508
12167SOL     OW48559   7.943   5.722   3.647 -0.3603 -0.4002  0.3397
12167SOL    HW148560   7.914   5.770   3.730 -1.1894 -1.0268  0.4234
12167SOL    HW248561   8.005   5.648   3.672 -1.0183 -0.9174  0.4593
12168SOL     OW48562   9.152   5.313   6.135  0.0884  0.2222 -0.9776
12168SOL    HW148563   9.090   5.243   6.171  2.0523 -0.7813  0.5551
12168SOL    HW248564   9.119   5.403   6.161 -1.1128 -0.2679 -0.7773
12169SOL     OW48565   1.406   9.277   0.760 -0.1483 -0.2689  0.5017
12169SOL    HW148566   1.488   9.222   0.745 -1.2089 -2.0063  1.0275
12169SOL    HW248567   1.419   9.334   0.842  1.3256  1.0153 -0.6018
12170SOL     OW48568   7.905   0.216   0.963  0.3064 -0.0337  0.5158
12170SOL    HW148569   7.943   0.148   0.900  0.7634 -1.2919  2.0925
12170SOL    HW248570   7.950   0.303   0.950  1.4903 -0.6946  0.1550
12171SOL     OW48571   1.054   3.404   0.177  0.6599 -0.1416 -0.1758
12171SOL    HW148572   1.031   3.501   0.186  0.9703 -0.0093 -0.7581
12171SOL    HW248573   0.971   3.351   0.160  0.8740  0.4963 -3.5977
12172SOL     OW48574   6.364   3.228   9.449 -0.0593  0.2965  0.1106
12172SOL    HW148575   6.376   3.167   9.370  0.5244  0.7731 -0.1722
12172SOL    HW248576   6.321   3.177   9.524  0.0312 -0.3507 -0.2674
12173SOL     OW48577   0.042   1.373   9.693 -0.0413 -0.0927 -0.2230
12173SOL    HW148578   0.016   1.279   9.670  1.1734 -0.1850 -1.2982
12173SOL    HW248579  -0.015   1.438   9.643 -2.9162 -0.1692  2.7591
12174SOL     OW48580   5.421   6.324   0.700 -0.0352 -0.1107 -0.3452
12174SOL    HW148581   5.462   6.392   0.639  0.7295  0.5353  0.8575
12174SOL    HW248582   5.482   6.309   0.778 -1.1682 -0.6396  0.4478
12175SOL     OW48583   8.004   5.482   4.774  0.1237  0.0113 -0.0968
12175SOL    HW148584   8.036   5.469   4.681 -0.2160  1.3181 -0.4041
12175SOL    HW248585   8.081   5.501   4.834  0.0814  1.7231 -0.5768
12176SOL     OW48586   8.412   6.472   6.334 -0.3780  0.4394  0.1732
12176SOL    HW148587   8.464   6.487   6.418  1.3137 -0.5546 -0.6607
12176SOL    HW248588   8.321   6.439   6.356  0.0067  0.3287  1.6192
12177SOL     OW48589   2.486   8.558   5.157 -0.0445  0.0331  0.7795
12177SOL    HW148590   2.530   8.631   5.210 -1.2162  0.7038  0.8505
12177SOL    HW248591   2.459   8.484   5.218  3.4826 -1.7118  0.3882
12178SOL     OW48592   1.143   9.929   8.790  0.4754 -0.4112  0.4495
12178SOL    HW148593   1.098   9.879   8.864  1.8739 -1.3047  0.7150
12178SOL    HW248594   1.220   9.875   8.756  0.8519  0.7425 -0.5422
12179SOL     OW48595   5.153   2.338   9.057  0.3861 -0.1028  0.0389
12179SOL    HW148596   5.213   2.363   9.134 -0.0725 -1.2063  0.7731
12179SOL    HW248597   5.179   2.248   9.022 -0.2057 -0.1563 -0.2749
12180SOL     OW48598   8.048   7.806   6.817  0.2566 -0.4369 -0.1966
12180SOL    HW148599   7.978   7.743   6.783 -0.6454  0.0700  0.6971
12180SOL    HW248600   8.127   7.804   6.756  0.5164 -2.9401  0.1627
12181SOL     OW48601   2.191   6.309   4.280 -0.3937  0.1805  0.1368
12181SOL    HW148602   2.254   6.339   4.352 -0.0459  0.1357 -0.1456
12181SOL    HW248603   2.109   6.270   4.321 -0.1182 -0.0061  0.5137
12182SOL     OW48604   0.180   6.479   1.160 -0.6958  0.7167 -0.1976
12182SOL    HW148605   0.218   6.548   1.098 -0.9797  1.0749  0.0283
12182SOL    HW248606   0.149   6.400   1.106  0.8239  0.2082 -0.3325
12183SOL     OW48607   9.912   5.908   2.270  0.8190  0.8916  0.2118
12183SOL    HW148608   9.912   5.998   2.313 -2.4253  0.5987  0.9311
12183SOL    HW248609   9.845   5.906   2.196  1.2244 -0.7903 -0.1373
12184SOL     OW48610   2.080   4.403   7.466 -0.1320 -0.1204 -0.0671
12184SOL    HW148611   2.094   4.361   7.377  0.6265  0.8376 -0.4092
12184SOL    HW248612   2.003   4.359   7.512  0.0496 -1.2217 -0.8136
12185SOL     OW48613   9.042   7.174   4.766 -0.0867  0.0591  0.3951
12185SOL    HW148614   8.999   7.101   4.819  0.7219 -0.3303  0.5218
12185SOL    HW248615   8.972   7.234   4.728 -0.7056 -0.0931  1.2883
12186SOL     OW48616   7.509   3.059   9.119 -0.7734  0.3746 -0.4677
12186SOL    HW148617   7.437   3.007   9.075 -0.5850 -0.4624  0.1925
12186SOL    HW248618   7.473   3.103   9.202 -0.6290  0.2847 -0.3551
12187SOL     OW48619   1.780   3.958   6.230 -0.3959 -0.0465 -0.2934
12187SOL    HW148620   1.873   3.985   6.258  0.2030  0.0203 -2.2681
12187SOL    HW248621   1.742   4.029   6.170 -1.6765 -0.1478  0.3900
12188SOL     OW48622   0.616   7.388   4.387 -0.2464 -0.1948  0.0093
12188SOL    HW148623   0.559   7.440   4.324  2.3670  2.1865 -0.5295
12188SOL    HW248624   0.667   7.319   4.337 -1.3694 -1.1722  0.2127
12189SOL     OW48625   9.205   4.724   5.230 -0.1848  0.6991 -0.9715
12189SOL    HW148626   9.293   4.758   5.263 -0.4022 -0.2725  0.6190
12189SOL    HW248627   9.188   4.761   5.138  1.5370  1.4701 -1.0019
12190SOL     OW48628   4.295   1.462   8.238 -0.7883 -0.2686  0.1789
12190SOL    HW148629   4.299   1.366   8.212 -2.4754 -0.1821 -0.4538
12190SOL    HW248630   4.256   1.516   8.163  2.6701  1.3509 -0.5861
12191SOL     OW48631   2.823   5.591   2.953  0.1368 -0.3241 -0.6957
12191SOL    HW148632   2.893   5.568   2.885 -0.0791 -2.3938 -0.2240
12191SOL    HW248633   2.821   5.691   2.965  1.8269 -0.1085 -1.9620
12192SOL     OW48634   1.358   5.963   0.912 -0.1467  0.2188  0.2492
12192SOL    HW148635   1.325   5.881   0.865  1.1773 -0.1804 -0.0080
12192SOL    HW248636   1.397   6.026   0.846  1.5898 -0.2786  0.7902
12193SOL     OW48637   0.519   9.623   1.867 -0.3670 -0.0284 -0.0268
12193SOL    HW148638   0.444   9.565   1.834 -3.0874  2.0987  2.0932
12193SOL    HW248639   0.506   9.716   1.832  3.4228 -0.3801 -2.6547
12194SOL     OW48640   2.623   4.517   9.060 -0.0232  0.8892 -0.2057
12194SOL    HW148641   2.643   4.479   9.150 -0.7040  1.3038  0.1281
12194SOL    HW248642   2.702   4.506   9.000  0.1985  0.0156  0.2414
12195SOL     OW48643   1.593   3.473   0.113 -0.1894 -0.3060 -0.5879
12195SOL    HW148644   1.548   3.526   0.184  0.5021 -1.0806  0.4381
12195SOL    HW248645   1.668   3.526   0.073  0.1803 -0.3235  0.0857
12196SOL     OW48646   1.656   3.607   4.865 -0.2541 -0.2011  0.3664
12196SOL    HW148647   1.671   3.702   4.838 -0.4918  0.1976  1.6030
12196SOL    HW248648   1.739   3.554   4.847 -1.0145 -0.3913 -2.8911
12197SOL     OW48649   2.148   1.001   6.423 -0.1319  0.7193  0.3171
12197SOL    HW148650   2.101   1.080   6.384 -1.2148  0.6277  1.3992
12197SOL    HW248651   2.105   0.977   6.510  0.3551 -0.9103  0.1150
12198SOL     OW48652   1.258   5.047   0.926  0.1491  0.4499 -0.3664
12198SOL    HW148653   1.194   5.090   0.861  0.5479  1.2693 -0.2293
12198SOL    HW248654   1.315   4.981   0.877  0.2686  0.8676 -0.8019
12199SOL     OW48655   6.170   3.108   0.132 -0.0220 -0.4846  0.1095
12199SOL    HW148656   6.146   3.019   0.092 -1.5311  0.0494 -0.2137
12199SOL    HW248657   6.165   3.179   0.062 -1.2000  0.2288  0.8969
12200SOL     OW48658   7.688   2.313   4.695 -0.2004  0.2100  0.1981
12200SOL    HW148659   7.712   2.364   4.778 -1.7407  1.5082 -0.1214
12200SOL    HW248660   7.635   2.372   4.634  0.8779 -0.7482 -1.7102
12201SOL     OW48661   8.635   3.292   2.623 -0.5825 -0.8878 -0.0063
12201SOL    HW148662   8.588   3.368   2.667  0.6744 -2.0566  3.6100
12201SOL    HW248663   8.576   3.211   2.626 -0.4903 -0.9757 -0.5178
12202SOL     OW48664   0.011   4.270   2.912 -0.1146 -0.2419 -0.4708
12202SOL    HW148665   0.060   4.206   2.971  0.8343  0.6814 -0.2433
12202SOL    HW248666  -0.073   4.227   2.878 -0.6350 -0.8091  1.4682
12203SOL     OW48667   7.506   3.526   9.038  0.3372  0.2164 -0.4310
12203SOL    HW148668   7.600   3.528   9.004  0.5498  1.8400  0.1985
12203SOL    HW248669   7.506   3.507   9.136  0.2028  2.6956  0.0915
12204SOL     OW48670   2.680   9.718   0.997 -0.5425 -0.2142 -0.5975
12204SOL    HW148671   2.690   9.677   1.088  1.7207 -1.4399 -1.3562
12204SOL    HW248672   2.634   9.807   1.006  0.0077 -0.1145  1.7978
12205SOL     OW48673   3.799   8.783   5.713  0.3650  0.4841 -0.3961
12205SOL    HW148674   3.774   8.740   5.627 -0.4554  1.4929 -0.6643
12205SOL    HW248675   3.828   8.712   5.778 -1.4741 -0.5353 -0.6570
12206SOL     OW48676   3.795   2.068   9.808 -0.6126  0.6039  0.2651
12206SOL    HW148677   3.733   2.087   9.731  0.5627  0.1473 -0.8283
12206SOL    HW248678   3.837   2.153   9.838  2.1721  0.3091 -2.4712
12207SOL     OW48679   1.991   0.155   7.364  0.0976  0.0319  0.1160
12207SOL    HW148680   2.065   0.103   7.320  1.2126  0.7759  1.0769
12207SOL    HW248681   1.908   0.148   7.308  0.2539 -2.6438  0.1426
12208SOL     OW48682   9.542   9.082   8.898 -0.1667 -0.4215  0.2617
12208SOL    HW148683   9.529   9.166   8.845  0.6318 -0.6805 -0.3592
12208SOL    HW248684   9.568   9.106   8.991 -0.2241  0.0333  0.1638
12209SOL     OW48685   5.241   1.409   4.400  0.3528 -0.2456 -0.3306
12209SOL    HW148686   5.304   1.486   4.393  0.7909 -0.5539  0.2220
12209SOL    HW248687   5.252   1.364   4.489 -1.0774  0.0804  0.0298
12210SOL     OW48688   9.926   6.291   4.759 -0.6242  0.6465  0.5093
12210SOL    HW148689   9.827   6.293   4.747 -0.5613  0.4566 -0.0602
12210SOL    HW248690   9.949   6.231   4.835 -0.9752  1.0843  0.9613
12211SOL     OW48691   6.478   2.849   2.197  0.9986 -0.0591  0.0105
12211SOL    HW148692   6.511   2.788   2.269 -1.2223  1.2972  2.2211
12211SOL    HW248693   6.457   2.795   2.115  1.7296 -1.8719  0.9943
12212SOL     OW48694   9.751   5.548   1.713 -0.0262  0.0633 -0.2713
12212SOL    HW148695   9.766   5.473   1.649 -1.8935 -0.6213  0.0642
12212SOL    HW248696   9.667   5.597   1.687  1.2023  2.1035 -0.5389
12213SOL     OW48697   5.974   8.525   4.534  0.3594 -0.2275 -0.0585
12213SOL    HW148698   5.978   8.427   4.515  2.5478 -0.1960  0.0245
12213SOL    HW248699   5.925   8.571   4.461  0.1281 -1.2885 -0.5814
12214SOL     OW48700   3.396   4.504   1.889  0.6673 -0.3048 -0.0928
12214SOL    HW148701   3.373   4.408   1.907 -1.3792  0.2720  0.4836
12214SOL    HW248702   3.408   4.518   1.791  0.1306 -0.9676 -0.2572
12215SOL     OW48703   1.255   2.992   3.714 -0.0536 -0.0495 -0.7649
12215SOL    HW148704   1.188   2.922   3.686  0.2498 -0.7799  0.3261
12215SOL    HW248705   1.206   3.075   3.741 -0.3591  0.7337 -3.5537
12216SOL     OW48706   5.752   1.296   6.785 -0.0282 -0.3310  0.5391
12216SOL    HW148707   5.842   1.331   6.759  0.5891  0.5425  3.6404
12216SOL    HW248708   5.687   1.372   6.788 -0.3635 -0.6121  0.4279
12217SOL     OW48709   4.268   0.427   7.983 -0.2909  0.0051 -0.1579
12217SOL    HW148710   4.307   0.360   7.921 -0.7719  1.5793 -2.2049
12217SOL    HW248711   4.286   0.519   7.950 -3.4463  0.8387  0.2080
12218SOL     OW48712   4.736   2.418   4.448 -0.6766 -0.0414  0.7877
12218SOL    HW148713   4.713   2.493   4.511 -0.3308  0.2508  0.5619
12218SOL    HW248714   4.804   2.359   4.491 -0.5601  0.0673  0.7524
12219SOL     OW48715   8.623   5.369   6.993 -0.0717 -0.6321 -0.2176
12219SOL    HW148716   8.678   5.312   6.933  0.5873  0.1664 -0.3888
12219SOL    HW248717   8.548   5.410   6.942  0.5377  0.1149 -0.5392
12220SOL     OW48718   9.719   3.366   0.312  0.6560  0.0313  0.0299
12220SOL    HW148719   9.816   3.356   0.289  0.4546 -0.5835 -0.5368
12220SOL    HW248720   9.683   3.450   0.270  1.1903  0.8105  1.0816
12221SOL     OW48721   3.598   4.552   3.660 -0.4984 -0.0403  0.1777
12221SOL    HW148722   3.635   4.596   3.741 -2.0197 -0.0262  0.8812
12221SOL    HW248723   3.669   4.546   3.590  0.2536  1.7790  0.7644
12222SOL     OW48724   9.276   6.071   4.815 -0.4662 -0.1624  0.2155
12222SOL    HW148725   9.348   6.002   4.821 -0.0295  0.1322 -1.3849
12222SOL    HW248726   9.189   6.032   4.846  0.3392 -0.5848  1.9458
12223SOL     OW48727   8.683   7.072   0.674 -0.1178  0.5090  0.1672
12223SOL    HW148728   8.694   7.157   0.724 -2.8742  0.8288  0.3119
12223SOL    HW248729   8.642   7.002   0.733 -1.1420  0.1683 -0.8977
12224SOL     OW48730   3.583   5.388   5.362  0.8050 -0.1097 -0.2094
12224SOL    HW148731   3.485   5.378   5.378 -0.1681  1.9107 -4.3134
12224SOL    HW248732   3.620   5.457   5.424 -0.5278 -0.2193  0.7328
12225SOL     OW48733   2.596   2.069   6.651  0.0256  0.6178 -0.2472
12225SOL    HW148734   2.549   2.092   6.566 -0.4850 -0.3348 -0.2329
12225SOL    HW248735   2.648   2.148   6.683 -2.0127  1.8955  0.0425
12226SOL     OW48736   1.110   4.311   8.094  0.1193 -0.1736 -0.4530
12226SOL    HW148737   1.031   4.290   8.152 -2.1235  1.7534 -2.6727
12226SOL    HW248738   1.161   4.227   8.076 -1.7470 -1.5790  0.5784
12227SOL     OW48739   2.250   0.979  10.017  0.3748 -0.0694 -0.1657
12227SOL    HW148740   2.276   1.076  10.016  1.5166 -0.3804 -0.6620
12227SOL    HW248741   2.267   0.941  10.108  1.8381 -0.3153 -0.5349
12228SOL     OW48742   1.678   8.458   2.943  0.2735  0.5614  0.2041
12228SOL    HW148743   1.728   8.417   2.867  0.3246  0.0025  0.5420
12228SOL    HW248744   1.607   8.518   2.907  0.0527  0.0065 -0.2920
12229SOL     OW48745   6.972   1.959   0.008  0.4423 -0.5267 -0.4906
12229SOL    HW148746   6.955   2.031  -0.058  0.3174 -0.3514 -0.2696
12229SOL    HW248747   7.062   1.971   0.049  0.7997 -1.0213 -1.1156
12230SOL     OW48748   4.231   4.860   8.538  0.4687 -0.0835  0.0965
12230SOL    HW148749   4.167   4.866   8.462  0.7994 -0.9546 -0.2510
12230SOL    HW248750   4.307   4.799   8.514  1.5432  1.0917  0.4227
12231SOL     OW48751   0.818   9.037   8.529  0.1378 -0.0798 -0.1317
12231SOL    HW148752   0.854   9.085   8.609 -0.7287 -0.3543  0.4310
12231SOL    HW248753   0.862   8.948   8.521 -1.0075 -0.7866  1.0710
12232SOL     OW48754   4.671   9.844   6.582 -0.3396  0.2723 -0.0342
12232SOL    HW148755   4.738   9.770   6.581  0.0033  0.4652  3.1165
12232SOL    HW248756   4.596   9.823   6.519  0.7062 -1.8273 -0.6024
12233SOL     OW48757   7.829   0.239   9.200  0.3408 -0.8044  0.5830
12233SOL    HW148758   7.774   0.311   9.156 -1.5823 -1.6842  1.4591
12233SOL    HW248759   7.900   0.281   9.256  1.1163  0.3633 -1.2460
12234SOL     OW48760   8.499   7.226   5.151  0.0345 -0.0234  0.4022
12234SOL    HW148761   8.513   7.286   5.073 -0.1838 -1.5177 -0.8001
12234SOL    HW248762   8.401   7.210   5.163  0.0800  0.0370  0.8576
12235SOL     OW48763   5.985   4.388   8.232  0.1168 -0.4737  0.2459
12235SOL    HW148764   5.981   4.407   8.134  2.2385  2.6235  0.7141
12235SOL    HW248765   5.940   4.461   8.282  0.0044 -1.4990  1.6637
12236SOL     OW48766   3.642   5.595   5.552  0.8873 -0.7026 -0.5819
12236SOL    HW148767   3.739   5.608   5.575  1.0353 -1.2192 -0.9049
12236SOL    HW248768   3.586   5.654   5.611  1.3922 -0.4360 -0.3596
12237SOL     OW48769   5.177   7.373   3.559  0.5396 -0.1767 -0.5495
12237SOL    HW148770   5.126   7.364   3.474  0.9013  0.0611 -0.7963
12237SOL    HW248771   5.275   7.380   3.539  0.6377 -0.2176 -0.1090
12238SOL     OW48772   6.634   0.367   7.351  0.3737 -0.2150 -0.0678
12238SOL    HW148773   6.648   0.466   7.361  1.5616 -0.2795 -0.9346
12238SOL    HW248774   6.644   0.342   7.255 -3.0325 -0.7490 -0.3310
12239SOL     OW48775   1.813   4.965   8.560  0.8024  0.2970 -0.1618
12239SOL    HW148776   1.861   4.933   8.478  0.6553  1.1462 -0.5867
12239SOL    HW248777   1.877   5.015   8.618  0.2459  2.2293 -1.1690
12240SOL     OW48778   9.977   4.065   1.791 -0.1275  0.2554 -0.1641
12240SOL    HW148779  10.000   3.969   1.803  0.2354  0.3667  0.0278
12240SOL    HW248780  10.058   4.116   1.763 -0.0659  0.6976  0.7918
12241SOL     OW48781   0.136   3.489   2.473  0.5153  0.6119 -0.2220
12241SOL    HW148782   0.193   3.539   2.538  0.7956  0.6131 -0.4719
12241SOL    HW248783   0.115   3.547   2.395 -1.3829  1.2761  0.7257
12242SOL     OW48784   9.935   8.257   4.051  0.1235  0.4056 -0.0934
12242SOL    HW148785   9.969   8.350   4.037  1.4038 -0.2097 -1.2630
12242SOL    HW248786   9.948   8.231   4.147  4.2832 -0.2565 -0.7211
12243SOL     OW48787   1.883   8.121   8.771  0.0339 -0.1072  0.0811
12243SOL    HW148788   1.824   8.095   8.695 -0.0390 -1.6864  0.6659
12243SOL    HW248789   1.898   8.220   8.768 -2.1155  0.2394 -0.4324
12244SOL     OW48790   7.817   0.808   7.779 -0.3164 -0.5123 -0.0764
12244SOL    HW148791   7.809   0.736   7.711  0.4693 -0.6860  0.0062
12244SOL    HW248792   7.734   0.813   7.833 -0.6760 -0.8319 -0.5947
12245SOL     OW48793   0.004   7.155   2.532 -0.4950 -0.0321  0.2764
12245SOL    HW148794  -0.083   7.144   2.581 -0.9528 -0.6057 -0.6506
12245SOL    HW248795   0.065   7.079   2.556 -0.1750  0.4666  1.0649
12246SOL     OW48796   1.721   7.597   3.431 -0.2298  0.2037  0.0689
12246SOL    HW148797   1.808   7.603   3.381 -0.7342 -0.3059 -0.8710
12246SOL    HW248798   1.681   7.506   3.417 -0.5022  0.1485  1.1915
12247SOL     OW48799   1.893   6.503   7.866  0.6436  0.0365 -0.3787
12247SOL    HW148800   1.894   6.411   7.826  1.1286 -0.1072 -0.0415
12247SOL    HW248801   1.981   6.521   7.910  0.1303  0.2252  0.5626
12248SOL     OW48802   7.313   8.958   4.421 -0.5606  0.6244  0.4895
12248SOL    HW148803   7.316   8.990   4.326  0.3634  0.9221  0.6148
12248SOL    HW248804   7.249   9.014   4.473 -0.3800  1.0505  0.2562
12249SOL     OW48805   3.794   0.836   6.517 -0.1915 -0.0992  0.0056
12249SOL    HW148806   3.779   0.745   6.556 -2.0947 -0.0920 -0.6570
12249SOL    HW248807   3.763   0.837   6.422  0.4268  1.0695 -0.1978
12250SOL     OW48808   1.772   4.214   6.787 -0.4055 -0.0829  0.2746
12250SOL    HW148809   1.692   4.154   6.785 -2.5583  2.7176 -0.9456
12250SOL    HW248810   1.765   4.276   6.866 -0.8350  1.9576 -1.3369
12251SOL     OW48811   0.689   8.822   7.088 -0.0159 -0.0245 -0.0906
12251SOL    HW148812   0.774   8.828   7.036 -0.4042 -0.3914 -0.7700
12251SOL    HW248813   0.646   8.913   7.093 -0.0037  0.0032 -0.4631
12252SOL     OW48814   2.420   4.245   7.262 -0.5593 -0.2215 -0.7180
12252SOL    HW148815   2.384   4.336   7.242  0.0868  0.9998  3.1618
12252SOL    HW248816   2.463   4.246   7.353 -0.9705 -4.5145 -0.3808
12253SOL     OW48817   2.416   1.123   6.052 -0.7423 -0.4677 -0.1531
12253SOL    HW148818   2.391   1.096   6.145  1.7740  0.1422  0.7605
12253SOL    HW248819   2.516   1.122   6.044 -0.8172  2.5293 -1.9270
12254SOL     OW48820   2.794   2.446   5.727  0.0980 -0.1975  0.3874
12254SOL    HW148821   2.793   2.374   5.657 -0.9623 -0.1296  0.3253
12254SOL    HW248822   2.848   2.415   5.805  1.0696 -0.3813 -0.3440
12255SOL     OW48823   0.081   4.666   9.646 -0.8203 -0.0779 -0.2204
12255SOL    HW148824   0.161   4.722   9.666  0.0691 -1.7666  1.1107
12255SOL    HW248825   0.089   4.627   9.555 -0.8002  0.8796 -0.6276
12256SOL     OW48826   7.951   0.167   3.876  0.1317  0.3160 -0.1113
12256SOL    HW148827   7.899   0.199   3.797  2.0656  1.2637 -1.0361
12256SOL    HW248828   7.965   0.243   3.939  0.2966  0.0487  0.1738
12257SOL     OW48829   7.608   1.435   4.022 -0.1249 -0.3426 -0.7218
12257SOL    HW148830   7.680   1.379   3.981  2.2877  1.3697  1.0517
12257SOL    HW248831   7.625   1.444   4.121 -2.1786  0.9792 -0.4574
12258SOL     OW48832   0.038   8.362   9.458  0.5822 -0.4316  0.7339
12258SOL    HW148833  -0.007   8.334   9.373 -0.1757 -0.7278  1.2343
12258SOL    HW248834  -0.022   8.424   9.509  1.1369 -0.0494  0.9397
12259SOL     OW48835   4.110   1.062   4.402  0.0983 -0.5089 -0.5595
12259SOL    HW148836   4.092   1.152   4.443 -0.6698 -1.0512  0.2961
12259SOL    HW248837   4.031   1.003   4.415  2.0195 -2.5538  2.2107
12260SOL     OW48838   8.401   9.640   0.223  0.1491 -0.1317  0.1777
12260SOL    HW148839   8.458   9.558   0.217  0.4470  0.0486  0.4777
12260SOL    HW248840   8.444   9.714   0.170  0.0441 -0.0794  0.1639
12261SOL     OW48841   8.824   9.397   0.130  0.1040  0.4081  0.3017
12261SOL    HW148842   8.869   9.314   0.162  2.2928  1.5065  0.1641
12261SOL    HW248843   8.805   9.389   0.033  0.5074  0.1334  0.2414
12262SOL     OW48844   2.906   2.106   7.668  0.3546 -0.1097 -0.1492
12262SOL    HW148845   2.938   2.111   7.762  1.3809 -1.0599 -0.4341
12262SOL    HW248846   2.806   2.100   7.667  0.2917  0.7609  0.8338
12263SOL     OW48847   9.025   7.927   1.073 -0.4722  0.6566  0.2581
12263SOL    HW148848   9.106   7.868   1.072  0.4758  1.9387  0.1781
12263SOL    HW248849   8.981   7.924   0.983 -1.6086 -1.4890  0.8410
12264SOL     OW48850   7.941   3.288   3.710 -0.5886  0.0146  0.6891
12264SOL    HW148851   7.926   3.211   3.772  0.3194 -2.0307 -1.5546
12264SOL    HW248852   8.037   3.293   3.685 -1.1147  0.1347 -1.4040
12265SOL     OW48853   8.884   6.330   1.559 -0.6465 -0.2471 -0.2913
12265SOL    HW148854   8.833   6.246   1.540 -0.6083  0.1123 -2.0667
12265SOL    HW248855   8.909   6.333   1.656  0.8880 -3.1458 -0.5417
12266SOL     OW48856   4.297   9.400   3.106  0.7289  0.2209 -0.0452
12266SOL    HW148857   4.347   9.486   3.096  3.0077 -1.0093  0.2802
12266SOL    HW248858   4.219   9.413   3.166  2.3867  1.5630  1.8919
12267SOL     OW48859   0.601   1.966   7.306 -0.4945 -0.1624  0.2134
12267SOL    HW148860   0.591   1.931   7.399  1.3982  1.2203  0.9833
12267SOL    HW248861   0.634   2.061   7.310  0.3678 -0.3525 -1.8713
12268SOL     OW48862   2.720   4.697   4.152 -0.2508 -0.5462  0.1586
12268SOL    HW148863   2.772   4.772   4.193  0.2192 -1.0849  0.5843
12268SOL    HW248864   2.626   4.726   4.135 -0.5911 -0.4357  2.0743
12269SOL     OW48865   9.591   9.447   0.578  0.3692 -0.3659 -0.2230
12269SOL    HW148866   9.639   9.474   0.495  0.2876  0.8254  0.1062
12269SOL    HW248867   9.651   9.459   0.657 -0.0697  0.0072  0.0593
12270SOL     OW48868   6.674   1.235   1.406  0.0506 -0.0532  0.4644
12270SOL    HW148869   6.772   1.234   1.383 -0.3914  0.2487 -1.5317
12270SOL    HW248870   6.621   1.204   1.326 -1.6577  2.2765  0.6578
12271SOL     OW48871   1.101   2.827   1.366  0.1299 -0.6256  0.6483
12271SOL    HW148872   1.137   2.916   1.392 -0.4068 -0.4073  0.6439
12271SOL    HW248873   1.062   2.833   1.274  1.7059 -1.3036 -0.1006
12272SOL     OW48874   2.903   1.324  -0.002  0.1135 -0.0892 -0.6397
12272SOL    HW148875   2.906   1.408   0.053  3.9764 -0.9916  0.6718
12272SOL    HW248876   2.817   1.275   0.018 -0.2059  1.3914  1.8979
12273SOL     OW48877   9.200   3.108   5.708 -0.0307  0.3387 -0.3820
12273SOL    HW148878   9.119   3.077   5.660 -0.8508  0.6427  0.7708
12273SOL    HW248879   9.204   3.063   5.798  1.2876  0.0298 -0.5843
12274SOL     OW48880   9.478   7.934   5.658 -0.3831  0.2342  0.3810
12274SOL    HW148881   9.500   7.877   5.737 -1.9612  0.1159  0.7473
12274SOL    HW248882   9.563   7.967   5.617  0.6134 -3.3082 -0.5742
12275SOL     OW48883   2.206   7.424   7.722  0.0937 -0.4857 -0.5686
12275SOL    HW148884   2.184   7.509   7.771  0.6971 -0.3807 -0.4816
12275SOL    HW248885   2.144   7.415   7.644 -0.2286 -0.1614 -0.3557
12276SOL     OW48886   1.940   2.641   7.293 -0.2215  0.4253  0.0149
12276SOL    HW148887   2.011   2.677   7.233  1.2027 -0.0024  1.4049
12276SOL    HW248888   1.860   2.702   7.291  0.3306  1.1161 -1.2684
12277SOL     OW48889   4.923   0.942   5.965 -0.1144 -0.3729  0.4778
12277SOL    HW148890   4.968   0.854   5.974 -1.8396 -1.2455  0.7729
12277SOL    HW248891   4.943   0.981   5.875 -1.5784 -2.3611 -0.7458
12278SOL     OW48892   4.075   6.618   7.812 -0.2296  0.5372  0.2301
12278SOL    HW148893   4.082   6.647   7.717  0.4547  0.7045  0.3282
12278SOL    HW248894   4.053   6.697   7.869 -1.9550  0.1917  0.0469
12279SOL     OW48895   1.542   3.284   2.813 -0.2527  0.7662  0.0931
12279SOL    HW148896   1.571   3.351   2.745  2.4164  0.0916  0.4896
12279SOL    HW248897   1.561   3.191   2.779 -0.3010  0.3723  1.1191
12280SOL     OW48898   5.410   1.400   5.753 -0.4927 -0.7784  0.0940
12280SOL    HW148899   5.460   1.424   5.835  1.3080 -0.0596 -1.1808
12280SOL    HW248900   5.344   1.473   5.732  0.8187  0.2794 -0.4760
12281SOL     OW48901   0.037   4.835   8.698  0.0779 -0.1600  0.4695
12281SOL    HW148902   0.021   4.741   8.669  0.1417  0.9558 -3.5852
12281SOL    HW248903  -0.012   4.897   8.636  0.7722  2.5043  2.4992
12282SOL     OW48904   7.987   0.970   8.146  0.9169  0.2676  0.3178
12282SOL    HW148905   7.932   0.896   8.107  0.2297 -0.6718  2.9248
12282SOL    HW248906   8.072   0.931   8.182  0.8118  0.8165  1.1723
12283SOL     OW48907   4.171   2.339   1.517  0.1282 -0.0855 -0.0948
12283SOL    HW148908   4.218   2.346   1.604  0.2952 -0.1445 -0.1795
12283SOL    HW248909   4.188   2.423   1.463  0.7032 -0.3928 -0.4032
12284SOL     OW48910   3.422   8.763   5.384 -0.0338  0.2969  0.4284
12284SOL    HW148911   3.469   8.846   5.354 -0.7212  1.2716  1.9413
12284SOL    HW248912   3.341   8.789   5.437 -1.3631 -1.3491 -0.7380
12285SOL     OW48913   5.076   7.243   4.040  0.2265  0.5044  0.2463
12285SOL    HW148914   5.124   7.272   3.957  1.1667 -0.3543  0.4733
12285SOL    HW248915   5.139   7.247   4.118  0.1023 -1.1528  0.4541
12286SOL     OW48916   1.327   7.551   4.687 -0.2100  0.0935  0.0771
12286SOL    HW148917   1.334   7.632   4.629  0.6787 -0.7969 -1.0804
12286SOL    HW248918   1.405   7.491   4.669 -1.0882 -1.2197  0.6160
12287SOL     OW48919   2.774   4.256   2.206 -0.1757  0.2597 -0.2560
12287SOL    HW148920   2.726   4.272   2.120 -0.6422  0.6094  0.0690
12287SOL    HW248921   2.758   4.333   2.268 -0.4488 -0.3274  0.4142
12288SOL     OW48922   5.437   3.073   2.054  0.1081 -0.2827 -0.2561
12288SOL    HW148923   5.433   3.037   2.147  2.3001  0.3994  0.1288
12288SOL    HW248924   5.372   3.149   2.045 -1.5934 -1.6516  0.0905
12289SOL     OW48925   7.247   9.244   3.137 -0.0491 -0.4560  0.6072
12289SOL    HW148926   7.271   9.313   3.205  1.5171 -0.3709 -0.0142
12289SOL    HW248927   7.321   9.177   3.130  0.0295 -0.1938 -1.3473
12290SOL     OW48928   6.968   4.518   8.291 -0.0138 -0.3703 -0.4480
12290SOL    HW148929   7.008   4.609   8.285 -0.6058 -0.1428 -1.0584
12290SOL    HW248930   6.989   4.478   8.380 -0.1923  0.5815  0.0294
12291SOL     OW48931   2.532   8.931   2.021  0.2694  0.4687  0.0671
12291SOL    HW148932   2.439   8.936   1.984  0.2309 -1.3188 -0.1274
12291SOL    HW248933   2.598   8.950   1.948  0.0797  0.9197  0.0125
12292SOL     OW48934   1.176   0.185   5.598 -0.0256 -0.3528 -0.1124
12292SOL    HW148935   1.177   0.284   5.611  1.9543 -0.2428 -0.9516
12292SOL    HW248936   1.095   0.159   5.544 -0.9082  0.7208  0.6853
12293SOL     OW48937   2.825   8.373   9.669  0.0394 -0.7393  0.2452
12293SOL    HW148938   2.853   8.287   9.713 -0.3196 -0.0958  1.7692
12293SOL    HW248939   2.899   8.405   9.609 -0.1919 -2.5849 -1.0869
12294SOL     OW48940   8.788   8.785   7.979  0.2782  0.0853  0.1357
12294SOL    HW148941   8.775   8.818   8.072 -0.9975  0.3537 -0.1275
12294SOL    HW248942   8.705   8.739   7.948  1.7261 -2.6148  0.1712
12295SOL     OW48943   0.444   0.836   2.498 -0.1881 -0.2634  0.1055
12295SOL    HW148944   0.434   0.928   2.537  0.1976 -0.1378 -0.0931
12295SOL    HW248945   0.533   0.828   2.454 -0.7351 -0.2872 -1.0302
12296SOL     OW48946   0.539   9.289   3.101  0.0162  0.0914 -0.3760
12296SOL    HW148947   0.603   9.214   3.086 -0.2646  0.0476 -1.4567
12296SOL    HW248948   0.586   9.365   3.147 -0.0741 -1.2890  2.0355
12297SOL     OW48949   4.102   4.298   3.411 -0.0773  0.1440 -0.3126
12297SOL    HW148950   4.128   4.219   3.357  0.3335 -0.0369  0.1404
12297SOL    HW248951   4.124   4.382   3.361 -2.4421 -0.0201 -1.6931
12298SOL     OW48952   4.347   6.452   2.025  0.1350 -0.0063  0.2595
12298SOL    HW148953   4.381   6.453   1.931  0.5546  1.7471  0.4224
12298SOL    HW248954   4.397   6.383   2.077 -0.4311 -1.3376 -0.8954
12299SOL     OW48955   4.478   6.223   8.318 -0.4719  0.4931  0.0123
12299SOL    HW148956   4.453   6.316   8.290 -0.3628  0.6340  0.3846
12299SOL    HW248957   4.498   6.222   8.416  1.7531  0.5714 -0.3992
12300SOL     OW48958   2.979   4.525   4.986  0.4676  0.1682 -0.5315
12300SOL    HW148959   3.026   4.577   4.915  2.4948  0.5389  1.0354
12300SOL    HW248960   3.042   4.507   5.061 -1.4711 -0.7035  0.9299
12301SOL     OW48961   7.737   9.372   5.705  0.4128 -0.3048 -0.4580
12301SOL    HW148962   7.834   9.354   5.720  0.5577  0.2936 -0.6376
12301SOL    HW248963   7.721   9.390   5.608  0.6813  2.7297  0.0035
12302SOL     OW48964   5.912   9.659   3.089  0.6026  0.5864 -0.3953
12302SOL    HW148965   5.860   9.611   3.018  0.6195  0.3636 -0.2551
12302SOL    HW248966   5.871   9.750   3.103 -0.2393  0.1125  0.2709
12303SOL     OW48967   8.734   3.257   0.600 -0.2512  0.5275 -0.0379
12303SOL    HW148968   8.799   3.258   0.525 -1.1327  1.5269 -0.8101
12303SOL    HW248969   8.726   3.165   0.637  1.4968  0.3814 -0.0118
12304SOL     OW48970   2.071   8.147   5.213  0.0026 -0.7190 -0.2256
12304SOL    HW148971   2.153   8.167   5.160  0.3580 -3.0026 -0.5948
12304SOL    HW248972   2.095   8.093   5.294 -0.5511  2.5709  2.2657
12305SOL     OW48973   8.379   8.455   3.062 -0.2795 -0.3553  0.0212
12305SOL    HW148974   8.381   8.372   3.117  0.5596 -0.7410 -0.5897
12305SOL    HW248975   8.294   8.458   3.009 -0.9279 -0.1564  1.0497
12306SOL     OW48976   8.409   7.389   4.287  0.5537 -0.2391 -0.3785
12306SOL    HW148977   8.470   7.403   4.209  0.5592 -0.2514 -0.3758
12306SOL    HW248978   8.428   7.457   4.357  2.2720 -1.7640  0.6817
12307SOL     OW48979   1.455   4.374   4.351  0.2295 -0.4126  0.1091
12307SOL    HW148980   1.551   4.370   4.380  0.7829 -0.4712 -1.6948
12307SOL    HW248981   1.398   4.328   4.420  1.5958 -1.2430  0.7189
12308SOL     OW48982   7.203   9.514   7.673  0.0291 -0.1824 -0.1448
12308SOL    HW148983   7.153   9.462   7.741 -1.7559  0.9897 -0.5252
12308SOL    HW248984   7.191   9.472   7.583  0.0550 -0.1154 -0.1801
12309SOL     OW48985   4.042   4.635   0.628  0.1876  0.0055 -0.4066
12309SOL    HW148986   4.102   4.705   0.589 -1.2365  1.7394  0.4456
12309SOL    HW248987   4.097   4.563   0.670  1.6813  0.2374 -1.9352
12310SOL     OW48988   3.239   4.827   9.643  0.1613  0.0684  0.1317
12310SOL    HW148989   3.338   4.822   9.628 -0.0035 -0.9167 -0.6329
12310SOL    HW248990   3.216   4.776   9.725  0.2033 -0.2697 -0.0664
12311SOL     OW48991   2.639   5.459   1.578  0.6470  0.3471  0.3082
12311SOL    HW148992   2.661   5.388   1.511 -0.8780  1.5806 -1.5367
12311SOL    HW248993   2.716   5.522   1.586  1.1948 -0.3348  0.3906
12312SOL     OW48994   6.927   9.740   3.028  0.1336  0.5468  0.5226
12312SOL    HW148995   6.870   9.664   3.059  1.1221 -0.7081 -0.6888
12312SOL    HW248996   6.897   9.771   2.938  1.2944 -0.0687 -0.0898
12313SOL     OW48997   4.829   9.214   9.001  0.6027 -0.0582 -0.4154
12313SOL    HW148998   4.924   9.190   9.016  1.1355  0.3572 -2.8461
12313SOL    HW248999   4.808   9.300   9.047  1.4236 -0.1206  0.0748
12314SOL     OW49000   5.035   2.251   9.473  0.0184 -0.2172 -0.0234
12314SOL    HW149001   5.023   2.323   9.404  0.9316 -0.2297 -0.2051
12314SOL    HW249002   5.021   2.161   9.430 -1.9018 -0.1307  0.3765
12315SOL     OW49003   9.152   8.179   3.180  0.8166 -0.4664 -0.6422
12315SOL    HW149004   9.132   8.084   3.156  1.6185 -1.7516  3.4602
12315SOL    HW249005   9.067   8.231   3.184  0.0318 -1.7864  0.1895
12316SOL     OW49006   3.016   5.246   0.728  0.1340  0.9586 -0.7109
12316SOL    HW149007   2.919   5.224   0.718  0.3752 -0.6466  0.2737
12316SOL    HW249008   3.059   5.179   0.788  2.1511  0.8486 -2.2337
12317SOL     OW49009   7.358   7.924   2.999  0.4805 -0.0604 -0.6579
12317SOL    HW149010   7.308   7.973   2.928  0.5555 -0.9217 -1.3253
12317SOL    HW249011   7.430   7.983   3.036 -0.8011  1.0515  0.0609
12318SOL     OW49012   4.255   1.881   1.594  0.3701  0.7931  0.1026
12318SOL    HW149013   4.262   1.848   1.499 -0.6830 -0.5949  0.4785
12318SOL    HW249014   4.159   1.880   1.621  0.5719  2.1550  0.8595
12319SOL     OW49015   3.300   3.471   4.017  0.0399 -0.4322  0.4064
12319SOL    HW149016   3.283   3.375   3.995  1.5672 -0.6920  0.3527
12319SOL    HW249017   3.381   3.479   4.074  0.0041  0.8424  0.2955
12320SOL     OW49018   8.906   1.874   5.564 -0.2029 -0.7198 -0.3617
12320SOL    HW149019   8.980   1.934   5.534 -1.7952  0.4226 -2.1397
12320SOL    HW249020   8.841   1.927   5.620 -0.4838 -1.3224 -0.1158
12321SOL     OW49021   6.010   8.699   7.421 -0.0024  0.3646 -0.5181
12321SOL    HW149022   5.990   8.601   7.412  0.6678  0.1954 -0.2501
12321SOL    HW249023   5.955   8.738   7.494  0.0363  0.0926 -0.3442
12322SOL     OW49024   4.000   7.105   1.456  0.8275 -0.2928  0.0233
12322SOL    HW149025   3.993   7.156   1.370  1.3002 -1.1734 -0.5499
12322SOL    HW249026   4.063   7.151   1.518  0.4747  0.3540 -0.1000
12323SOL     OW49027   0.497   5.323   9.401 -0.9313 -0.1190  0.2272
12323SOL    HW149028   0.466   5.418   9.403 -0.6723 -0.0119 -0.4773
12323SOL    HW249029   0.595   5.320   9.421 -0.5044 -0.0237 -1.7414
12324SOL     OW49030   0.158   8.472   1.543 -0.1894 -0.2707 -0.1135
12324SOL    HW149031   0.131   8.495   1.449  1.3951 -1.0865 -0.7883
12324SOL    HW249032   0.077   8.472   1.601 -0.9482  2.1203 -1.0717
12325SOL     OW49033   3.241   8.154   9.395  0.5763 -0.6032  0.5390
12325SOL    HW149034   3.232   8.209   9.312  0.8884 -0.7813  0.3883
12325SOL    HW249035   3.254   8.215   9.474  2.2852 -0.5009  0.1940
12326SOL     OW49036   7.041   0.784   3.317 -0.5330 -0.3750  0.5350
12326SOL    HW149037   7.022   0.738   3.230 -0.5170  0.4186  0.1084
12326SOL    HW249038   7.106   0.730   3.370  0.2906 -0.3332 -0.4180
12327SOL     OW49039   3.847   2.007   4.505 -0.1144  0.3971  0.1577
12327SOL    HW149040   3.891   1.975   4.589  1.0585  2.2734  0.2770
12327SOL    HW249041   3.750   2.024   4.522 -0.5250 -1.9318  0.3823
12328SOL     OW49042   8.304   9.121   9.263 -0.3902 -0.1958 -0.2930
12328SOL    HW149043   8.267   9.028   9.258 -0.8221 -0.0865  0.6335
12328SOL    HW249044   8.326   9.142   9.359  0.0346  0.5251 -0.5484
12329SOL     OW49045   5.112   8.189   6.206 -0.3153 -0.0119  0.4033
12329SOL    HW149046   5.109   8.159   6.301  2.9300  0.4554  0.7103
12329SOL    HW249047   5.138   8.286   6.203  1.2667 -0.4636 -0.9994
12330SOL     OW49048   1.866   5.177   4.800 -0.3120  0.1387  0.0469
12330SOL    HW149049   1.775   5.206   4.770 -0.3007 -0.9801 -1.0923
12330SOL    HW249050   1.890   5.091   4.756  1.7437  0.9641 -0.4965
12331SOL     OW49051   2.820   3.111   1.008  0.4929  0.8651 -0.2688
12331SOL    HW149052   2.896   3.174   0.990  0.3557  1.5234  1.4316
12331SOL    HW249053   2.841   3.022   0.968  1.3770  1.5314 -1.3304
12332SOL     OW49054   3.481   6.714   3.345 -0.0023  0.2659 -1.1597
12332SOL    HW149055   3.454   6.626   3.384 -1.5935  1.3293  0.2049
12332SOL    HW249056   3.423   6.734   3.266 -2.5299  1.9575  1.0103
12333SOL     OW49057   3.290   2.332   6.583  0.2659 -0.0002  0.3103
12333SOL    HW149058   3.235   2.388   6.645  1.6152 -0.5373  2.0316
12333SOL    HW249059   3.371   2.299   6.631  0.3495 -2.0508 -1.1867
12334SOL     OW49060   5.057   8.261   5.940 -0.2284 -0.1073  0.1133
12334SOL    HW149061   5.099   8.224   6.023 -0.0470  1.4274  0.7264
12334SOL    HW249062   5.117   8.243   5.862  0.6908  0.4503  0.6864
12335SOL     OW49063   3.101   6.602   9.929  0.3529 -0.4299  0.1739
12335SOL    HW149064   3.147   6.519   9.959  0.8658  0.0697  0.7921
12335SOL    HW249065   3.115   6.674   9.997  0.5899  0.3956 -0.7369
12336SOL     OW49066   1.392   6.486   1.102  0.3578 -0.3835  1.0418
12336SOL    HW149067   1.370   6.391   1.076  1.4283 -0.3396 -0.0645
12336SOL    HW249068   1.462   6.522   1.041 -1.8629  2.0162 -0.1968
12337SOL     OW49069   3.953   3.672   8.917 -0.2503 -0.1971  0.1906
12337SOL    HW149070   3.954   3.581   8.875  1.0730  0.5238 -1.3703
12337SOL    HW249071   3.963   3.663   9.016  0.0067 -1.7482  0.0305
12338SOL     OW49072   3.103   4.419   6.574 -0.2556 -0.0786 -0.7384
12338SOL    HW149073   3.031   4.400   6.640  0.3862  0.5115  0.1354
12338SOL    HW249074   3.150   4.333   6.551 -0.0068 -0.1769  0.1216
12339SOL     OW49075   0.793   2.325   1.673  0.4947  0.1507 -0.1103
12339SOL    HW149076   0.717   2.270   1.637 -0.0412 -0.5547  2.0184
12339SOL    HW249077   0.874   2.268   1.684  0.6213  0.3296 -0.1147
12340SOL     OW49078   5.020   4.925  10.024 -0.1211  0.0203 -0.6275
12340SOL    HW149079   4.970   4.983  10.087  0.8861 -0.0059  0.2004
12340SOL    HW249080   5.016   4.830  10.055  2.3615  0.3149  0.7243
12341SOL     OW49081   8.700   8.134   8.323  0.3236 -0.6471 -0.2277
12341SOL    HW149082   8.754   8.054   8.348  1.3586 -0.8708 -2.9746
12341SOL    HW249083   8.752   8.217   8.343 -0.2388 -0.6899  1.4593
12342SOL     OW49084   1.451   3.649   7.519 -0.0261 -0.2012  0.1705
12342SOL    HW149085   1.461   3.629   7.421 -2.2383  2.8209 -0.7623
12342SOL    HW249086   1.529   3.611   7.569  2.5625  0.4815 -3.1347
12343SOL     OW49087   1.896   4.243   3.748 -0.6129 -0.6884 -0.4391
12343SOL    HW149088   1.850   4.318   3.700 -0.9412 -1.2360 -0.9734
12343SOL    HW249089   1.854   4.156   3.724  0.9099 -1.2382 -1.2149
12344SOL     OW49090   8.698   9.776   6.003 -0.1262 -0.2707 -0.0383
12344SOL    HW149091   8.675   9.846   6.070 -0.2128  1.2260 -1.5900
12344SOL    HW249092   8.689   9.686   6.044 -0.3176  0.6161  1.9047
12345SOL     OW49093   4.142   1.625   8.074 -0.1873 -0.0848 -0.1610
12345SOL    HW149094   4.047   1.597   8.060  0.2690 -1.2322 -0.9330
12345SOL    HW249095   4.143   1.708   8.131 -1.6178 -0.4220  0.3935
12346SOL     OW49096   6.271   2.957   9.635  1.0102 -0.4971  0.3744
12346SOL    HW149097   6.290   3.041   9.686  1.1719  0.4993 -1.2649
12346SOL    HW249098   6.269   2.879   9.697 -0.2917  0.8766  2.1040
12347SOL     OW49099   2.841   5.818   9.601 -0.6369 -0.0457 -0.3497
12347SOL    HW149100   2.904   5.771   9.539 -0.7022 -1.9824  1.0292
12347SOL    HW249101   2.892   5.881   9.660 -0.4780  1.1832 -1.7572
12348SOL     OW49102   9.173   6.697   7.566  0.2050 -0.4528  0.3239
12348SOL    HW149103   9.219   6.640   7.634 -1.0033  0.1025  1.6193
12348SOL    HW249104   9.180   6.794   7.592 -1.4711 -0.3372  0.4117
12349SOL     OW49105   3.860   0.858   9.049  0.8664 -0.3003 -0.3998
12349SOL    HW149106   3.947   0.882   9.091 -0.6742  1.0294  2.1263
12349SOL    HW249107   3.868   0.866   8.949  4.0887 -1.8696 -0.3129
12350SOL     OW49108   4.151   3.632   4.227 -1.0021  0.6963  0.6353
12350SOL    HW149109   4.106   3.558   4.177  0.6046 -0.4544  0.8233
12350SOL    HW249110   4.113   3.720   4.199 -2.3352 -0.1491 -0.2444
12351SOL     OW49111   7.240   5.611   0.283 -0.3430  0.6450 -0.4977
12351SOL    HW149112   7.171   5.553   0.240  0.6412  0.3644 -1.7343
12351SOL    HW249113   7.237   5.599   0.382 -4.1775  2.9840 -0.1981
12352SOL     OW49114   0.788   6.632   3.167 -0.0720  0.2264 -0.7673
12352SOL    HW149115   0.811   6.728   3.152 -0.6981  0.9709  2.6449
12352SOL    HW249116   0.872   6.577   3.164  0.6732  1.3003  0.1332
12353SOL     OW49117   4.199   9.799   9.794 -0.1224 -0.0719 -0.5573
12353SOL    HW149118   4.208   9.869   9.723 -1.4687 -1.3263 -2.0034
12353SOL    HW249119   4.155   9.718   9.755 -1.8216 -0.4064  1.9874
12354SOL     OW49120   0.323   2.651   3.314  0.1645 -0.3589  0.0009
12354SOL    HW149121   0.324   2.578   3.246 -0.6385 -0.5779  0.2179
12354SOL    HW249122   0.408   2.704   3.308 -0.3885  0.3452 -1.9602
12355SOL     OW49123   1.829   4.407   6.966  0.3149  0.4605  0.0225
12355SOL    HW149124   1.825   4.504   6.944  0.8324  0.1940 -1.3039
12355SOL    HW249125   1.901   4.391   7.034  1.0318  0.8525 -0.6371
12356SOL     OW49126   6.826   1.741   0.070  0.8823  0.5209 -0.4457
12356SOL    HW149127   6.875   1.670   0.019 -0.3241 -0.7759  0.1806
12356SOL    HW249128   6.862   1.831   0.044  1.8943 -0.2601 -1.8315
12357SOL     OW49129   4.077   2.027   9.367 -0.3874 -0.2005 -0.4527
12357SOL    HW149130   4.115   2.024   9.274  1.3374  0.0202  0.2419
12357SOL    HW249131   4.148   2.053   9.432 -1.8060  0.5336  0.8286
12358SOL     OW49132   3.253   3.849   7.152 -0.0087 -0.7111  0.5330
12358SOL    HW149133   3.165   3.802   7.143  0.4993 -1.6470  0.3201
12358SOL    HW249134   3.276   3.859   7.249  0.0335 -1.2090  0.5763
12359SOL     OW49135   7.816   8.429   7.245  0.0806 -0.2608 -0.1079
12359SOL    HW149136   7.786   8.516   7.207 -0.5535 -0.9466 -1.2100
12359SOL    HW249137   7.901   8.400   7.200  0.1697 -0.3305  0.1005
12360SOL     OW49138   7.321   6.530   6.103  0.0912 -0.1968  0.8331
12360SOL    HW149139   7.352   6.555   6.011  0.7472 -0.4491  0.9818
12360SOL    HW249140   7.243   6.586   6.128 -0.7581 -0.8348 -0.2948
12361SOL     OW49141   0.057   3.814   0.306 -0.3684  0.6423  0.3927
12361SOL    HW149142   0.136   3.834   0.364  1.0282 -0.1433 -1.1931
12361SOL    HW249143  -0.019   3.874   0.331  0.8508  1.6773  1.6829
12362SOL     OW49144   2.893   5.368   8.184 -0.4610  0.6218  0.2159
12362SOL    HW149145   2.796   5.378   8.208 -0.4370 -0.4013  0.7552
12362SOL    HW249146   2.919   5.272   8.191  0.1410  0.6413 -1.6984
12363SOL     OW49147   1.260   0.858   3.024 -0.5170 -1.0347  0.0701
12363SOL    HW149148   1.163   0.870   3.048 -0.7237 -2.8030  0.1921
12363SOL    HW249149   1.317   0.875   3.104 -0.5428  2.2269 -0.5464
12364SOL     OW49150   1.435   2.833   6.652  0.2221  0.1151  0.4010
12364SOL    HW149151   1.487   2.868   6.730 -0.7220 -0.3255  1.2490
12364SOL    HW249152   1.373   2.761   6.683 -1.1177  0.8379 -0.5192
12365SOL     OW49153   8.693   0.010   5.148 -0.2843  0.1398  0.3082
12365SOL    HW149154   8.639   0.049   5.074  0.5920  0.5424 -0.1231
12365SOL    HW249155   8.711  -0.087   5.129  0.4660  0.3940 -0.3232
12366SOL     OW49156   2.839   1.004   9.638 -0.0413  0.4823 -0.3270
12366SOL    HW149157   2.907   1.047   9.579 -0.1040  1.9899  0.6611
12366SOL    HW249158   2.885   0.955   9.712  0.0144  1.5185  0.3522
12367SOL     OW49159   3.397   2.324   7.775  0.0126 -0.0106  0.3400
12367SOL    HW149160   3.398   2.318   7.875 -0.4113 -0.3445  0.3250
12367SOL    HW249161   3.339   2.251   7.738  1.2982 -0.7607 -0.2089
12368SOL     OW49162   9.966   6.751   8.375 -0.3828  0.1975 -0.2784
12368SOL    HW149163   9.914   6.672   8.343 -0.4893  0.2565 -0.2493
12368SOL    HW249164   9.990   6.738   8.471  0.8477 -0.4658 -0.6623
12369SOL     OW49165   0.006   4.942   0.678 -0.3301 -0.0707 -0.3472
12369SOL    HW149166   0.037   4.961   0.585 -0.1011  0.6658 -0.1223
12369SOL    HW249167   0.067   4.986   0.743 -0.6503 -0.3543  0.1427
12370SOL     OW49168   0.679   5.129   8.954 -0.4324  0.3341 -0.3617
12370SOL    HW149169   0.645   5.159   9.043  1.5753  2.1326 -0.1733
12370SOL    HW249170   0.702   5.031   8.958  0.3850  0.5928  1.3135
12371SOL     OW49171   8.266   3.655   5.808 -0.6919 -0.2463  0.1239
12371SOL    HW149172   8.350   3.620   5.766 -0.5253  1.5763 -1.1219
12371SOL    HW249173   8.278   3.662   5.907  0.5643 -0.1927 -0.0243
12372SOL     OW49174   9.625   8.854   6.245 -0.2834  0.0919 -0.1581
12372SOL    HW149175   9.569   8.772   6.256 -0.5188  0.3375  0.4615
12372SOL    HW249176   9.577   8.920   6.186 -0.9752  0.6079  0.9730
12373SOL     OW49177   7.748   7.374   6.282 -0.6075  0.0305  0.0629
12373SOL    HW149178   7.791   7.287   6.305 -1.5634 -0.2673  0.7364
12373SOL    HW249179   7.783   7.406   6.194 -0.3598 -1.0886 -0.2541
12374SOL     OW49180   7.961   6.084   2.904  0.3243 -0.0988  0.1276
12374SOL    HW149181   7.916   6.157   2.853  0.1423  0.8773  1.6386
12374SOL    HW249182   8.045   6.056   2.857  0.0879  0.6784 -0.7554
12375SOL     OW49183   8.692   2.909   1.028  0.3654  0.1970  0.3799
12375SOL    HW149184   8.747   2.860   1.095  1.0802 -1.3701 -1.2949
12375SOL    HW249185   8.750   2.936   0.951 -1.0328 -0.8285 -1.0736
12376SOL     OW49186   4.850   4.110   2.432 -0.2429 -1.0087  0.2198
12376SOL    HW149187   4.935   4.095   2.482  0.3503  0.2878 -0.3899
12376SOL    HW249188   4.780   4.048   2.467  0.2612 -0.3887  2.4154
12377SOL     OW49189   2.145   0.693   9.434  0.8578  0.1614 -0.1883
12377SOL    HW149190   2.137   0.632   9.355  0.3222  2.1739 -1.7354
12377SOL    HW249191   2.163   0.639   9.516 -1.4619 -2.2265 -1.1824
12378SOL     OW49192   7.205   9.768   6.780  0.3494 -0.0592 -0.5254
12378SOL    HW149193   7.255   9.823   6.713 -0.0568  1.3098  0.2937
12378SOL    HW249194   7.221   9.804   6.872 -1.6566  0.0328 -0.1921
12379SOL     OW49195   5.681   2.600   9.029 -0.3746  0.4043  0.6409
12379SOL    HW149196   5.583   2.580   9.021 -0.4364  0.1737  1.8032
12379SOL    HW249197   5.693   2.682   9.085  0.1276 -0.1950  1.4289
12380SOL     OW49198   3.411   6.515   3.536  0.1940  0.2188  0.8950
12380SOL    HW149199   3.331   6.455   3.528  1.3480 -1.4395  1.5885
12380SOL    HW249200   3.409   6.561   3.625  0.0092  0.1701  0.9156
12381SOL     OW49201   9.910   6.894   8.980  0.1660  0.0710 -0.4098
12381SOL    HW149202   9.979   6.821   8.982 -0.1867 -0.2798 -0.8858
12381SOL    HW249203   9.836   6.868   8.918 -0.1794  0.6430 -0.2398
12382SOL     OW49204   3.316   1.336   8.141 -0.2828  0.2801  0.1900
12382SOL    HW149205   3.261   1.290   8.211  0.4281  0.1258  0.6652
12382SOL    HW249206   3.369   1.409   8.184  1.9706 -1.3386  0.2867
12383SOL     OW49207   5.632   4.836   2.064  0.0435  0.2049 -0.8858
12383SOL    HW149208   5.634   4.901   2.140 -0.6351 -1.2567  0.4135
12383SOL    HW249209   5.647   4.744   2.100 -0.4595 -0.5211 -2.5275
12384SOL     OW49210   6.304   1.235   2.572 -0.1491 -0.4135 -0.1502
12384SOL    HW149211   6.268   1.268   2.485 -0.4158 -0.2709  0.0094
12384SOL    HW249212   6.368   1.161   2.557 -0.7867 -0.9127 -0.4280
12385SOL     OW49213   7.817   8.147   1.959  0.5296  0.1230 -0.1658
12385SOL    HW149214   7.794   8.115   1.867 -0.4603  0.2241  0.0356
12385SOL    HW249215   7.877   8.081   2.003  0.6859 -0.1235 -0.7363
12386SOL     OW49216   0.377   1.540   4.894 -0.2965 -0.4297  0.4747
12386SOL    HW149217   0.284   1.562   4.865 -0.1142  0.3565  0.4727
12386SOL    HW249218   0.394   1.580   4.984  0.4838  0.5799 -0.1103
12387SOL     OW49219   3.791   3.109   3.844 -0.5215  0.0875 -0.0559
12387SOL    HW149220   3.739   3.047   3.785  0.6288 -0.4612 -0.4979
12387SOL    HW249221   3.767   3.091   3.940 -0.8927 -0.4040 -0.2362
12388SOL     OW49222   9.750   6.672   5.891 -0.2779 -0.0125  0.6564
12388SOL    HW149223   9.818   6.600   5.881  0.6617  0.9658 -0.1013
12388SOL    HW249224   9.691   6.675   5.811  0.5208  0.9035  0.0894
12389SOL     OW49225   1.065   9.490   7.700 -0.4098  0.0471  0.1447
12389SOL    HW149226   1.079   9.485   7.799 -1.0780 -1.0206  0.1936
12389SOL    HW249227   1.124   9.422   7.656 -0.0907  0.5440 -0.1952
12390SOL     OW49228   3.355   8.126   7.880  1.1869 -0.1118  0.3815
12390SOL    HW149229   3.427   8.193   7.894  1.6620 -0.0644 -1.9793
12390SOL    HW249230   3.396   8.037   7.861  0.6105 -0.4405  0.6683
12391SOL     OW49231   5.823   2.823   0.197  0.4636 -0.0522  0.1677
12391SOL    HW149232   5.889   2.870   0.255  1.5411  0.2242 -1.2510
12391SOL    HW249233   5.848   2.835   0.101 -0.5506 -1.5846 -0.3190
12392SOL     OW49234   8.086   1.972   7.537  0.4353 -0.2998 -0.1438
12392SOL    HW149235   8.044   2.037   7.474 -0.2218  0.4325  1.0261
12392SOL    HW249236   8.088   2.011   7.629  0.4578 -1.7471  0.4854
12393SOL     OW49237   5.195   9.574   7.736 -0.4840 -0.3704 -0.0981
12393SOL    HW149238   5.223   9.599   7.643  1.2921 -1.4826  0.0994
12393SOL    HW249239   5.219   9.648   7.799  1.7493 -1.1404  0.0028
12394SOL     OW49240   8.140   6.524   5.803  0.0332 -0.2710  0.1294
12394SOL    HW149241   8.151   6.437   5.755  0.2517 -0.4009  0.4107
12394SOL    HW249242   8.134   6.507   5.901  0.4968  0.0673  0.2170
12395SOL     OW49243   5.188   3.892   9.488  0.1261  0.2263  0.5419
12395SOL    HW149244   5.169   3.925   9.396 -0.0202  1.3064  0.9622
12395SOL    HW249245   5.230   3.801   9.482  2.3383  1.2645 -0.7058
12396SOL     OW49246   7.754   6.070   8.411 -0.1185  0.2245 -0.1283
12396SOL    HW149247   7.694   6.143   8.444 -1.5805 -0.8344 -0.3842
12396SOL    HW249248   7.700   6.004   8.358  1.0160 -1.4847  0.8054
12397SOL     OW49249   4.570   0.808   8.948 -0.4122  0.0550 -0.5623
12397SOL    HW149250   4.612   0.740   8.888  0.2673  0.4270 -0.5029
12397SOL    HW249251   4.605   0.797   9.041 -0.8438  0.0210 -0.4012
12398SOL     OW49252   8.578   6.440   1.294 -0.6442 -0.4773 -0.2279
12398SOL    HW149253   8.607   6.344   1.299  0.9318 -0.0516 -0.8184
12398SOL    HW249254   8.629   6.486   1.221 -0.4042  1.1405  0.9309
12399SOL     OW49255   4.975   1.352   6.371  0.5058  0.2906 -0.2683
12399SOL    HW149256   4.971   1.398   6.460 -0.3553  1.0596 -0.6934
12399SOL    HW249257   4.894   1.376   6.317 -0.6307 -2.7524 -0.0181
12400SOL     OW49258   6.911   1.042   0.723 -0.3147  0.5940 -0.0604
12400SOL    HW149259   6.993   0.986   0.731 -1.4314 -0.9939  0.4971
12400SOL    HW249260   6.933   1.137   0.747  1.0289 -0.1119  1.5899
12401SOL     OW49261   3.442   5.099   0.770 -0.0446 -0.2819  0.1921
12401SOL    HW149262   3.487   5.177   0.815  0.9352 -0.4493 -0.4742
12401SOL    HW249263   3.490   5.015   0.795  0.7153 -0.3397 -1.4034
12402SOL     OW49264   5.515   9.192   4.193 -0.4585 -0.0981  0.2067
12402SOL    HW149265   5.576   9.157   4.264 -0.3120  0.4718  0.3647
12402SOL    HW249266   5.432   9.137   4.191 -0.2032 -0.4953  0.4072
12403SOL     OW49267   2.908   2.853   1.003 -0.1160 -0.0786 -0.1233
12403SOL    HW149268   2.850   2.774   1.024 -1.0501 -0.1847 -2.9769
12403SOL    HW249269   2.976   2.864   1.076 -2.0988 -1.4521  2.0145
12404SOL     OW49270   6.156   7.508   2.811 -0.5778 -0.3856 -0.4633
12404SOL    HW149271   6.165   7.479   2.716  2.4932 -1.4832  0.0858
12404SOL    HW249272   6.226   7.576   2.832  1.0623 -2.6591  1.8600
12405SOL     OW49273   9.270   2.155   2.290  0.2196  0.0800  0.0047
12405SOL    HW149274   9.262   2.074   2.231 -1.1462 -1.4530  2.2057
12405SOL    HW249275   9.230   2.234   2.243 -1.5632 -1.2783 -0.8435
12406SOL     OW49276   1.447   4.759   2.028 -0.1256 -0.0299 -0.0392
12406SOL    HW149277   1.493   4.764   2.116 -0.1337  0.4139 -0.0583
12406SOL    HW249278   1.348   4.746   2.043 -0.1590  0.2876  0.0219
12407SOL     OW49279   7.409   3.182   4.423  0.1874 -0.1745  0.3731
12407SOL    HW149280   7.440   3.246   4.353  0.0402 -0.6245 -0.1090
12407SOL    HW249281   7.339   3.122   4.384  0.9572 -1.2125  0.5541
12408SOL     OW49282   5.111   8.729   2.324 -0.1789  0.0774  0.4457
12408SOL    HW149283   5.085   8.800   2.258 -2.0984  0.3663  1.4832
12408SOL    HW249284   5.117   8.641   2.277  1.2972  0.7453 -0.6629
12409SOL     OW49285   3.766   5.118   0.958 -0.6807 -0.2839  0.0295
12409SOL    HW149286   3.774   5.045   0.890  0.1631 -1.0820  0.9724
12409SOL    HW249287   3.713   5.086   1.036 -0.8253  0.3128  0.1791
12410SOL     OW49288   2.620   4.761   0.403  0.6895 -0.0041  0.7591
12410SOL    HW149289   2.653   4.852   0.378  3.6112 -1.4379 -0.8640
12410SOL    HW249290   2.526   4.749   0.371  0.3803  2.2891  0.7121
12411SOL     OW49291   2.040   0.130   3.631 -0.3354  0.5495 -0.6069
12411SOL    HW149292   1.973   0.131   3.705  0.8808  1.6922  0.5210
12411SOL    HW249293   2.132   0.135   3.670  0.3251  1.0779 -2.1914
12412SOL     OW49294   0.094   2.736   2.837 -0.4133 -0.4213  0.3374
12412SOL    HW149295   0.086   2.743   2.738 -0.2079  2.0311  0.4487
12412SOL    HW249296   0.190   2.723   2.862 -0.3470 -0.1390  0.2371
12413SOL     OW49297   4.040   6.008   4.665  0.5895  0.2093  0.0606
12413SOL    HW149298   4.085   5.920   4.651 -1.0183 -0.3662 -1.6757
12413SOL    HW249299   4.091   6.079   4.616 -0.8237 -0.5891 -2.6885
12414SOL     OW49300   3.695   8.211   3.880  0.0327 -0.2640  0.2312
12414SOL    HW149301   3.673   8.140   3.947 -1.8347 -1.3382 -1.4447
12414SOL    HW249302   3.767   8.178   3.818 -1.8778 -1.3497 -1.4795
12415SOL     OW49303   4.904   2.018   6.159 -0.3472  0.0777 -0.0125
12415SOL    HW149304   5.000   2.017   6.128  0.5252  2.4334  2.4877
12415SOL    HW249305   4.874   1.924   6.175  1.7443 -0.6686 -0.2603
12416SOL     OW49306   7.670   5.995   6.130  0.1118  0.0381 -0.1566
12416SOL    HW149307   7.758   5.948   6.128  0.7111  1.2036 -1.7642
12416SOL    HW249308   7.598   5.928   6.147  1.1241 -1.1971 -0.5716
12417SOL     OW49309   7.168   3.810   8.888 -0.0179  0.2254  0.8305
12417SOL    HW149310   7.100   3.790   8.819  0.4060  0.6787  0.2752
12417SOL    HW249311   7.227   3.885   8.857 -1.1231  1.8570  2.5403
12418SOL     OW49312   2.246   6.775   3.133 -0.0034 -0.3973 -0.0513
12418SOL    HW149313   2.181   6.701   3.146 -0.9583  0.4169 -0.1123
12418SOL    HW249314   2.226   6.822   3.046  0.2491  0.2628  0.2413
12419SOL     OW49315   7.588   6.737   4.854 -0.3498  0.2162  0.3931
12419SOL    HW149316   7.530   6.818   4.846 -0.1087  0.6409  2.6360
12419SOL    HW249317   7.534   6.655   4.834 -1.2511  0.7343  0.7253
12420SOL     OW49318   5.950   1.104   4.824  0.2254 -0.9865 -0.1435
12420SOL    HW149319   5.935   1.059   4.736  0.5865  1.0217 -1.2674
12420SOL    HW249320   6.010   1.183   4.811 -1.6103  0.7268  1.4646
12421SOL     OW49321   9.199   9.449   1.360 -0.2105  0.3865  0.0666
12421SOL    HW149322   9.241   9.524   1.308 -0.4633 -1.3870 -2.7658
12421SOL    HW249323   9.270   9.388   1.393 -0.1613  0.6570  0.4666
12422SOL     OW49324   0.627   2.161   1.533  0.4749 -0.0534 -0.0578
12422SOL    HW149325   0.585   2.070   1.533 -0.4550  0.3035 -3.0991
12422SOL    HW249326   0.559   2.229   1.559  1.1819 -0.1898  2.2594
12423SOL     OW49327   0.769   3.934  10.064  0.1671 -0.2442  0.3443
12423SOL    HW149328   0.760   4.005  10.133  1.1896  1.6311 -1.3913
12423SOL    HW249329   0.712   3.956   9.985 -0.4372 -1.9776  0.2759
12424SOL     OW49330   3.173   1.518   5.033  0.5613  0.6613 -0.2732
12424SOL    HW149331   3.076   1.541   5.038  0.5913  0.3467  3.2661
12424SOL    HW249332   3.185   1.432   4.984 -0.9664  0.6917 -0.7160
12425SOL     OW49333   5.919   2.591   2.517 -0.2647  0.0938  0.0629
12425SOL    HW149334   5.871   2.664   2.469  0.7724  0.6340 -0.1771
12425SOL    HW249335   5.854   2.537   2.570 -1.3131 -0.0221 -1.3119
12426SOL     OW49336   9.505   1.283   4.857  0.0887 -0.2489  0.2451
12426SOL    HW149337   9.563   1.267   4.777  1.4597 -0.3905  1.2294
12426SOL    HW249338   9.409   1.286   4.830  0.5441 -0.2341 -1.3999
12427SOL     OW49339   5.218   6.586   2.044 -0.1409 -0.4559  0.0609
12427SOL    HW149340   5.162   6.609   1.964 -0.6099 -1.3877  0.1148
12427SOL    HW249341   5.259   6.496   2.031  2.2065  0.6368 -0.4347
12428SOL     OW49342   9.012   9.807   2.054 -0.1727 -0.2837  0.0288
12428SOL    HW149343   8.945   9.828   1.983  1.9742  1.1490 -1.6592
12428SOL    HW249344   9.017   9.707   2.067 -3.7895 -0.3486  1.4323
12429SOL     OW49345   6.265   0.461   6.739 -0.7545  0.5317 -0.0489
12429SOL    HW149346   6.326   0.540   6.742 -0.0797 -0.0087  0.7608
12429SOL    HW249347   6.297   0.398   6.668 -0.6364  0.4648  0.0629
12430SOL     OW49348   9.415   8.798   7.148 -0.0764  0.4027  0.2998
12430SOL    HW149349   9.376   8.890   7.149 -0.7502  0.1365 -0.8354
12430SOL    HW249350   9.443   8.775   7.055  1.7700  0.1495  0.8929
12431SOL     OW49351   1.550   2.661   1.769 -0.9557 -0.2081  0.1517
12431SOL    HW149352   1.493   2.731   1.811 -2.1770 -0.2616 -1.3609
12431SOL    HW249353   1.523   2.648   1.673  1.0641 -0.8085 -0.3817
12432SOL     OW49354   0.231   7.134   1.366  0.2503  0.3695 -0.7153
12432SOL    HW149355   0.252   7.066   1.295  0.9813 -1.0752  0.8558
12432SOL    HW249356   0.164   7.199   1.331 -0.3640 -1.0846 -2.2988
12433SOL     OW49357   0.101   9.123   4.167 -0.4052  0.2041 -0.0537
12433SOL    HW149358   0.028   9.168   4.116  0.4759  0.4451 -1.1387
12433SOL    HW249359   0.178   9.187   4.177  0.1054 -0.4264  0.0600
12434SOL     OW49360   3.036   4.922   9.477 -0.0242  0.4629 -0.1803
12434SOL    HW149361   3.106   4.898   9.545  0.0516  0.6561 -0.1902
12434SOL    HW249362   2.947   4.887   9.508  0.0835  0.1739 -0.1921
12435SOL     OW49363   0.349   4.357   3.602 -0.5020 -0.0775 -0.1644
12435SOL    HW149364   0.332   4.270   3.555  0.7639 -0.9961  1.0288
12435SOL    HW249365   0.316   4.351   3.696  2.5744 -0.4468  0.9273
12436SOL     OW49366   9.185   0.210   6.035  1.1221  0.5828  0.0857
12436SOL    HW149367   9.098   0.197   6.085  1.7182  0.8024  1.2027
12436SOL    HW249368   9.247   0.135   6.056  1.5354  0.9018  0.0228
12437SOL     OW49369   7.140   3.642   0.050 -0.7407 -0.0513 -0.0940
12437SOL    HW149370   7.142   3.545   0.076 -2.8821  0.1013  0.7204
12437SOL    HW249371   7.074   3.691   0.107  0.2760  1.9006 -0.5363
12438SOL     OW49372   9.618   1.116   0.026 -0.3006 -0.4813 -0.4051
12438SOL    HW149373   9.590   1.140   0.119 -0.3384 -1.9725 -0.0291
12438SOL    HW249374   9.618   1.017   0.015  2.1736 -0.4207 -1.2323
12439SOL     OW49375   8.978   6.816   9.955  0.0664  0.3081 -0.0184
12439SOL    HW149376   8.985   6.765   9.870 -0.4562 -0.2522  0.2778
12439SOL    HW249377   8.931   6.761  10.024 -2.1678  1.8672 -0.2405
12440SOL     OW49378   2.478   3.271   4.763  0.1509 -0.3670 -0.3157
12440SOL    HW149379   2.555   3.217   4.799 -0.5359 -1.3626 -0.3093
12440SOL    HW249380   2.428   3.216   4.696 -0.2443  0.4683 -0.7126
12441SOL     OW49381   7.967   9.705   2.771  0.1522 -0.6400  0.8369
12441SOL    HW149382   8.001   9.795   2.800 -0.2883 -0.7456  1.6845
12441SOL    HW249383   8.005   9.634   2.830 -0.7342 -0.8584  1.1484
12442SOL     OW49384   0.433   3.390   6.540 -0.5362  0.0723  0.4180
12442SOL    HW149385   0.382   3.414   6.457 -1.4935  0.5074  1.1322
12442SOL    HW249386   0.376   3.334   6.600  0.3713 -0.7768  0.5112
12443SOL     OW49387   9.052   4.234   0.222  0.4048  0.3502 -0.3052
12443SOL    HW149388   9.057   4.334   0.216 -0.2137  0.3981 -0.1156
12443SOL    HW249389   9.080   4.195   0.135 -1.3781  0.7773 -1.1078
12444SOL     OW49390   9.350   7.597   7.990  0.4751  0.2742  0.1524
12444SOL    HW149391   9.315   7.674   7.937 -1.0996  0.2982  1.1759
12444SOL    HW249392   9.316   7.511   7.952 -0.9793  0.3102  1.2983
12445SOL     OW49393   7.846   4.727   2.789 -0.5579  0.3388  0.1619
12445SOL    HW149394   7.814   4.781   2.867 -0.1076 -0.7051  1.0846
12445SOL    HW249395   7.890   4.643   2.822  2.3612  1.3047 -1.0775
12446SOL     OW49396   4.623   2.782   1.580 -0.4250  0.3077  0.0135
12446SOL    HW149397   4.582   2.784   1.489 -0.5971  1.7098  0.1114
12446SOL    HW249398   4.678   2.699   1.590 -1.3288 -0.4277 -0.9547
12447SOL     OW49399   2.147   3.907   4.999  0.8484  0.0979  0.0250
12447SOL    HW149400   2.091   3.986   5.022 -1.0166 -1.4350  0.8748
12447SOL    HW249401   2.138   3.837   5.070  2.2598 -0.9822 -0.8283
12448SOL     OW49402   6.141   1.958   4.786  0.4724 -0.9823  0.0231
12448SOL    HW149403   6.183   1.894   4.851  1.5278 -0.6450 -0.3187
12448SOL    HW249404   6.112   2.040   4.835  1.0740 -0.8167  0.1087
12449SOL     OW49405   2.574   3.828   9.558 -0.0994 -0.3828  0.2700
12449SOL    HW149406   2.624   3.854   9.476  1.2106 -2.7498  0.2703
12449SOL    HW249407   2.476   3.830   9.539  0.1755 -0.6060 -1.2678
12450SOL     OW49408   1.305   1.317   2.850 -0.6927  0.4446 -0.4905
12450SOL    HW149409   1.370   1.243   2.870 -0.0593  0.7361 -1.4236
12450SOL    HW249410   1.216   1.278   2.825 -1.4790  0.0675  2.7174
12451SOL     OW49411   4.930   0.951   3.731  0.2763  0.0476 -0.2587
12451SOL    HW149412   4.856   1.007   3.768  0.8125  0.3022  0.4394
12451SOL    HW249413   5.018   0.992   3.754  0.7332 -1.8877  1.6151
12452SOL     OW49414   7.850   2.175  10.054  0.5476 -0.2264 -0.4458
12452SOL    HW149415   7.945   2.170  10.024 -0.0240  0.5084 -2.4834
12452SOL    HW249416   7.790   2.166   9.975 -1.0464  1.2415  0.5572
12453SOL     OW49417   0.503   6.486   2.981 -0.5650 -0.5797 -0.2198
12453SOL    HW149418   0.440   6.457   3.052  0.4384 -0.8405  0.5853
12453SOL    HW249419   0.570   6.414   2.965 -0.1141 -0.0710 -0.6277
12454SOL     OW49420   4.149   3.681   2.235  0.0011 -1.0450 -0.3434
12454SOL    HW149421   4.117   3.773   2.255 -1.3006 -1.0738 -2.0940
12454SOL    HW249422   4.248   3.682   2.220 -0.1340  0.2216 -1.2061
12455SOL     OW49423   0.811   4.738   4.508 -0.1045 -0.1279 -0.2273
12455SOL    HW149424   0.802   4.691   4.420  1.6415 -1.5885  0.3383
12455SOL    HW249425   0.854   4.827   4.494 -2.8121  1.0679 -1.2232
12456SOL     OW49426   0.020   7.217   5.795 -0.2271  0.3787  0.2020
12456SOL    HW149427   0.078   7.280   5.743 -1.7038  0.7770 -0.9790
12456SOL    HW249428   0.009   7.132   5.744 -0.4286  0.1868  0.5638
12457SOL     OW49429   2.686   1.401   1.820 -0.1415 -0.2595  0.2218
12457SOL    HW149430   2.780   1.369   1.817 -0.1252 -0.1131 -1.5624
12457SOL    HW249431   2.626   1.328   1.852  0.3123 -1.0580 -0.7179
12458SOL     OW49432   3.560   5.613   2.273 -0.1140 -0.0023 -0.2936
12458SOL    HW149433   3.560   5.517   2.246  1.4148 -0.1386  0.1460
12458SOL    HW249434   3.582   5.671   2.194  0.0931 -0.1022 -0.3105
12459SOL     OW49435   0.640   3.504   5.357 -0.1320 -0.1966  0.1112
12459SOL    HW149436   0.731   3.471   5.332  0.4604  2.9246 -2.1888
12459SOL    HW249437   0.649   3.573   5.429 -0.2417  2.6793 -2.5279
12460SOL     OW49438   0.644   3.193   6.673  0.0370  0.0512 -0.3293
12460SOL    HW149439   0.663   3.260   6.601  1.5846 -0.7316 -0.6689
12460SOL    HW249440   0.602   3.238   6.751 -0.4108  1.1392 -1.1913
12461SOL     OW49441   3.648   6.000   6.857  0.7767  0.3076  1.0203
12461SOL    HW149442   3.636   5.935   6.932  0.9578  0.6311  1.3346
12461SOL    HW249443   3.721   5.968   6.796 -0.0995 -0.4913  0.3909
12462SOL     OW49444   7.355   7.017   2.010  0.5485 -0.2500  0.0501
12462SOL    HW149445   7.455   7.013   2.015  0.4925 -0.3922  1.1264
12462SOL    HW249446   7.316   6.960   2.082 -0.3054  1.3014  0.8440
12463SOL     OW49447   4.764   9.483   9.112  0.1938 -0.6382  0.1465
12463SOL    HW149448   4.755   9.574   9.072  1.3276 -1.1127 -1.2600
12463SOL    HW249449   4.711   9.478   9.197 -1.0405  0.8780 -0.4992
12464SOL     OW49450   1.761   1.720   1.770  0.1497  0.9684  0.2102
12464SOL    HW149451   1.787   1.673   1.855 -1.2377 -0.4867 -0.1337
12464SOL    HW249452   1.822   1.691   1.696  0.3862  1.0471  0.3734
12465SOL     OW49453   8.354   6.725   8.401  0.1825  0.7893 -0.3608
12465SOL    HW149454   8.258   6.696   8.411  0.7084 -0.3690  1.7740
12465SOL    HW249455   8.374   6.795   8.470  1.3469 -0.2944  0.4192
12466SOL     OW49456   9.181   3.977   6.668  0.3681  0.2163 -0.7779
12466SOL    HW149457   9.280   3.966   6.678  0.2157 -0.0412  0.5588
12466SOL    HW249458   9.151   4.058   6.718 -0.3343 -0.6976  0.3017
12467SOL     OW49459   9.172   9.604   1.011 -0.4725  0.2806  0.4758
12467SOL    HW149460   9.132   9.692   0.985 -0.5401 -0.0954 -0.7243
12467SOL    HW249461   9.174   9.543   0.931  0.9913 -0.2759  0.9158
12468SOL     OW49462   3.335   3.209   9.767 -0.3773 -0.2434  0.4968
12468SOL    HW149463   3.322   3.141   9.695 -1.8681  1.7019 -1.1172
12468SOL    HW249464   3.315   3.300   9.731 -1.1987  0.7649  3.3670
12469SOL     OW49465   5.206   0.643   4.957 -0.1824  0.2114  0.3798
12469SOL    HW149466   5.278   0.602   5.014  0.5079  2.8138  1.4289
12469SOL    HW249467   5.213   0.606   4.864  2.0791 -0.0937  0.6277
12470SOL     OW49468   4.100   1.668   0.499 -0.1229 -0.2490 -0.5573
12470SOL    HW149469   4.013   1.647   0.543  0.9866 -0.9315  1.3519
12470SOL    HW249470   4.170   1.605   0.531  1.3162  0.9054 -1.3426
12471SOL     OW49471   3.721   3.175   8.618  0.4169  0.3541 -0.2035
12471SOL    HW149472   3.628   3.146   8.640  1.2831 -1.9130  0.7063
12471SOL    HW249473   3.731   3.184   8.519 -1.1442  2.0275 -0.2281
12472SOL     OW49474   5.297   6.679   1.403  0.2005 -0.5056  0.1640
12472SOL    HW149475   5.383   6.701   1.358  0.9260 -0.0117  1.7639
12472SOL    HW249476   5.274   6.751   1.468 -0.6247 -1.4028  0.8766
12473SOL     OW49477   9.474   5.978   8.101 -0.1111 -0.5518 -0.1114
12473SOL    HW149478   9.406   6.049   8.083  0.4592 -0.0425 -0.2628
12473SOL    HW249479   9.495   5.976   8.199  0.4889  0.0483 -0.2266
12474SOL     OW49480   7.461   2.833   9.623  0.3320  0.2621 -0.5786
12474SOL    HW149481   7.377   2.792   9.586  0.7233 -1.4107  0.3120
12474SOL    HW249482   7.540   2.783   9.589  0.9567  1.5340 -1.0235
12475SOL     OW49483   9.225   2.115   3.353 -0.1751  0.2225  0.3725
12475SOL    HW149484   9.295   2.074   3.411 -0.3113 -0.5545 -0.0148
12475SOL    HW249485   9.198   2.204   3.391 -0.5607 -0.4613  1.7183
12476SOL     OW49486   4.814   7.782   1.928  0.3987  0.0420 -0.1317
12476SOL    HW149487   4.854   7.816   1.842 -0.0179 -0.2904 -0.4589
12476SOL    HW249488   4.728   7.829   1.945  0.2921 -0.1678 -0.0929
12477SOL     OW49489   5.605   4.575   9.855 -0.4494 -0.5760 -0.2159
12477SOL    HW149490   5.535   4.506   9.836 -0.8160  0.2196 -1.8406
12477SOL    HW249491   5.680   4.533   9.906 -0.9638 -2.0245 -0.6279
12478SOL     OW49492   3.573   2.333   8.268  0.4992  0.7953  0.2035
12478SOL    HW149493   3.581   2.331   8.368 -0.1712  0.1032  0.2422
12478SOL    HW249494   3.649   2.387   8.230  1.0677  0.6017  1.0500
12479SOL     OW49495   6.891   3.721   1.847 -0.4566  0.4970 -0.1582
12479SOL    HW149496   6.849   3.755   1.764 -1.3137 -1.0904 -0.4047
12479SOL    HW249497   6.979   3.767   1.862 -0.5169  1.1253 -1.6768
12480SOL     OW49498   8.507   7.361   4.914  0.2557 -0.3073  0.0312
12480SOL    HW149499   8.471   7.444   4.957  0.1628  1.4143 -3.2372
12480SOL    HW249500   8.432   7.309   4.873  0.4022 -1.6622  1.4444
12481SOL     OW49501   7.753   0.487  10.028  0.7313 -0.0255  0.1986
12481SOL    HW149502   7.739   0.414  10.096  1.4338  0.8609  1.3038
12481SOL    HW249503   7.670   0.496   9.973 -0.0146 -0.4585  1.2251
12482SOL     OW49504   3.635   9.311   5.610  0.2386 -0.3534 -0.4462
12482SOL    HW149505   3.650   9.216   5.638  1.0371 -0.3157 -0.7289
12482SOL    HW249506   3.711   9.341   5.553 -1.3085 -0.3900 -2.5903
12483SOL     OW49507   8.437   4.984   7.651  0.0845 -0.2320  0.1365
12483SOL    HW149508   8.475   5.076   7.650  1.6085 -0.8363  0.0537
12483SOL    HW249509   8.499   4.922   7.603 -2.2862 -0.8114 -2.3121
12484SOL     OW49510   3.887   8.766   3.937 -0.1437 -0.2692 -0.6288
12484SOL    HW149511   3.790   8.758   3.962 -0.2629 -0.4203 -1.1505
12484SOL    HW249512   3.896   8.823   3.856  0.1301 -0.9902 -1.1131
12485SOL     OW49513   1.166   3.673   4.576 -0.3494  0.0868  0.3737
12485SOL    HW149514   1.106   3.679   4.656  0.5321  0.2202  1.0339
12485SOL    HW249515   1.260   3.653   4.606  0.1659  1.0563 -0.5690
12486SOL     OW49516   3.462   1.509   0.560 -0.2545  0.4945  0.0789
12486SOL    HW149517   3.501   1.426   0.521 -0.4185  0.1267  0.6786
12486SOL    HW249518   3.506   1.589   0.521  0.3552  0.1064 -0.0301
12487SOL     OW49519   9.469   9.286   9.198  0.6737 -0.3145  0.1530
12487SOL    HW149520   9.497   9.382   9.200 -0.0744 -0.1018  1.0393
12487SOL    HW249521   9.370   9.280   9.183  0.7043 -0.9443  0.1799
12488SOL     OW49522   8.670   3.172   9.335  0.0920  0.5948 -0.0060
12488SOL    HW149523   8.729   3.186   9.256  0.1784  0.6363  0.0657
12488SOL    HW249524   8.639   3.261   9.369 -1.4383  0.4981 -1.1182
12489SOL     OW49525   9.664   1.038   2.492  0.4256  0.7018 -0.0331
12489SOL    HW149526   9.674   1.030   2.393  1.9750 -0.7846  0.2354
12489SOL    HW249527   9.616   1.123   2.514  1.7690  1.9779 -1.9540
12490SOL     OW49528   8.350   8.267   7.951 -0.3637 -0.0373 -0.4019
12490SOL    HW149529   8.356   8.278   8.051 -0.1013  1.3716 -0.5703
12490SOL    HW249530   8.441   8.274   7.911 -0.4492 -0.7704 -0.7317
12491SOL     OW49531   2.759   9.105   1.363  0.0282 -0.1641  0.3384
12491SOL    HW149532   2.740   9.017   1.320  0.5336 -0.1375  0.0578
12491SOL    HW249533   2.794   9.090   1.456 -0.0274 -0.2557  0.3447
12492SOL     OW49534   7.008   2.736   0.820  0.2748 -0.1240  0.3344
12492SOL    HW149535   7.046   2.666   0.759 -1.5668 -0.5125 -0.3900
12492SOL    HW249536   7.006   2.824   0.772  2.0963  0.3321  1.0631
12493SOL     OW49537   8.513   6.113   3.807 -0.2584 -0.0108  0.1962
12493SOL    HW149538   8.603   6.079   3.834  0.8134  2.1873 -0.5047
12493SOL    HW249539   8.471   6.159   3.886 -0.5783 -0.6422  0.3951
12494SOL     OW49540   1.037   4.906   9.009 -0.3197  0.3665  0.0421
12494SOL    HW149541   1.121   4.894   8.955  0.4982 -0.7123  1.5333
12494SOL    HW249542   1.012   5.003   9.009  2.0471  1.0086  1.2238
12495SOL     OW49543   3.062   3.651   7.430 -0.4401  0.0544  0.0157
12495SOL    HW149544   3.066   3.751   7.426 -0.8458  0.0013 -2.8201
12495SOL    HW249545   2.967   3.622   7.429 -0.2974 -0.3941 -0.9293
12496SOL     OW49546   0.127   4.519   0.214 -0.2975 -0.5395  0.0165
12496SOL    HW149547   0.102   4.468   0.296 -0.0043 -1.0992 -0.2432
12496SOL    HW249548   0.056   4.507   0.145 -0.6812  0.1566  0.2801
12497SOL     OW49549   9.825   4.220   8.307  0.1387 -0.3918 -0.4577
12497SOL    HW149550   9.788   4.154   8.372 -1.2029 -0.7638 -1.5827
12497SOL    HW249551   9.925   4.226   8.319  0.0151 -1.0684  1.0438
12498SOL     OW49552   6.672   5.513   9.439  0.2464 -1.0191 -0.3541
12498SOL    HW149553   6.616   5.451   9.495  1.5360 -1.8560  0.0344
12498SOL    HW249554   6.630   5.603   9.437 -0.1630 -1.1519  1.4500
12499SOL     OW49555   1.176   9.672   1.713 -0.2523  0.4225  1.1346
12499SOL    HW149556   1.221   9.592   1.752  0.4630  0.0914 -0.3065
12499SOL    HW249557   1.226   9.754   1.739 -0.2015  0.2797  1.4946
12500SOL     OW49558   8.726   7.389   4.235 -0.6948 -0.3916  0.2130
12500SOL    HW149559   8.667   7.434   4.168 -0.2843 -1.5917 -0.9856
12500SOL    HW249560   8.737   7.448   4.315 -0.2837  1.5589 -1.2450
12501SOL     OW49561   4.904   4.043   1.091  0.5586  0.1238  0.4921
12501SOL    HW149562   4.938   4.051   0.997 -0.2389  0.3538  0.2183
12501SOL    HW249563   4.923   4.127   1.141 -0.3067  0.5687  0.0997
12502SOL     OW49564   6.309   4.538   9.070 -0.0128  0.5447 -0.1058
12502SOL    HW149565   6.287   4.509   8.978  2.0388 -0.6969 -0.2166
12502SOL    HW249566   6.325   4.637   9.071  2.2587  0.2044 -1.5386
12503SOL     OW49567   7.008   2.189   5.755  0.0200 -0.3493 -0.3639
12503SOL    HW149568   7.107   2.189   5.742 -0.0541 -0.1214 -0.9783
12503SOL    HW249569   6.978   2.280   5.785 -0.0545 -0.2887 -0.6194
12504SOL     OW49570   0.816   9.805   0.624 -0.4895 -0.2048  0.2106
12504SOL    HW149571   0.797   9.715   0.585 -2.5397 -0.2433  1.1980
12504SOL    HW249572   0.904   9.803   0.671 -0.0244 -1.3766 -0.6642
12505SOL     OW49573   6.845   4.563   7.431 -0.4790  0.3773 -0.4336
12505SOL    HW149574   6.875   4.526   7.343  0.2572  1.4553 -0.6470
12505SOL    HW249575   6.856   4.494   7.502  1.3676  0.3384 -0.7296
12506SOL     OW49576   0.700   9.376   4.110  0.1160  0.1976 -0.0553
12506SOL    HW149577   0.712   9.279   4.133 -0.4109  0.2833  0.6132
12506SOL    HW249578   0.609   9.405   4.140  0.8288  1.2791  1.0702
12507SOL     OW49579   8.368   9.197   2.957  0.4818  0.3233 -0.4909
12507SOL    HW149580   8.289   9.195   2.897  0.8408  0.1371 -0.9627
12507SOL    HW249581   8.448   9.229   2.906  0.7866  0.1772 -0.1123
12508SOL     OW49582   2.664   1.518   9.846 -0.1579  0.3616 -0.1105
12508SOL    HW149583   2.638   1.552   9.755  0.7651 -3.0202 -1.7272
12508SOL    HW249584   2.763   1.527   9.857 -0.1503 -0.1165  0.1854
12509SOL     OW49585   7.552   5.843   2.402 -0.3114 -0.8013 -0.5847
12509SOL    HW149586   7.604   5.856   2.487  0.6706  0.9007 -1.4067
12509SOL    HW249587   7.497   5.760   2.409  0.8379 -1.4596  1.1734
12510SOL     OW49588   4.384   0.268   2.559  0.0352 -0.3807 -0.4273
12510SOL    HW149589   4.384   0.188   2.498  1.6189 -0.5754 -0.2073
12510SOL    HW249590   4.347   0.347   2.510 -0.5492 -0.9934 -0.9987
12511SOL     OW49591   9.917   8.741   5.976 -0.1600 -0.2102  0.6457
12511SOL    HW149592  10.007   8.705   5.952 -0.1406 -1.0040  1.8482
12511SOL    HW249593   9.916   8.767   6.072 -0.5046  2.0492  0.0437
12512SOL     OW49594   9.281   1.529   5.097  0.3999 -0.1827 -0.2572
12512SOL    HW149595   9.360   1.565   5.048  0.0688 -1.5837 -1.9013
12512SOL    HW249596   9.311   1.482   5.180  1.2709 -0.4151 -0.6983
12513SOL     OW49597   3.308   6.320   0.815  1.0267 -0.0617 -0.4036
12513SOL    HW149598   3.264   6.305   0.904  0.7525  0.0572 -0.5166
12513SOL    HW249599   3.398   6.359   0.829  1.3303 -0.8394 -0.1430
12514SOL     OW49600   7.120   5.019   8.688 -0.1310 -0.0575  0.1951
12514SOL    HW149601   7.136   5.105   8.737 -0.5596 -0.2599  0.6965
12514SOL    HW249602   7.093   5.040   8.594  2.5875  0.2928 -0.5587
12515SOL     OW49603   9.276   5.447   2.208  1.0497 -0.0506  0.3743
12515SOL    HW149604   9.244   5.391   2.285  2.4519  0.4094  1.3065
12515SOL    HW249605   9.307   5.387   2.135  0.9379 -0.4913  0.6813
12516SOL     OW49606   1.531   0.566   2.118  0.2637  0.2045  0.2237
12516SOL    HW149607   1.602   0.560   2.188 -0.4787  0.2886  0.9925
12516SOL    HW249608   1.441   0.554   2.160 -0.0388 -3.3045 -1.2246
12517SOL     OW49609   4.138   8.141   7.253  0.1442 -0.2683  0.2324
12517SOL    HW149610   4.185   8.201   7.317  0.6890 -2.4668  1.9482
12517SOL    HW249611   4.075   8.081   7.303 -0.2640 -1.2545 -1.4176
12518SOL     OW49612   3.831   2.762   1.215 -0.0576 -0.5335 -0.3424
12518SOL    HW149613   3.786   2.797   1.133  0.0654 -1.5046 -0.8375
12518SOL    HW249614   3.790   2.804   1.296 -0.8864 -0.3392 -0.8547
12519SOL     OW49615   3.103   6.140   1.975  0.1333  0.2832 -0.6375
12519SOL    HW149616   3.044   6.071   2.018  0.9546 -0.0451 -0.0129
12519SOL    HW249617   3.152   6.098   1.899 -0.4078  0.5456 -1.1332
12520SOL     OW49618   3.850   0.570   6.619  0.0877 -0.7284  0.1693
12520SOL    HW149619   3.761   0.529   6.601 -0.7434  0.5429  1.2682
12520SOL    HW249620   3.878   0.549   6.713  0.5756 -0.4221  0.0948
12521SOL     OW49621   9.509   7.957   2.292  0.4624  0.5808  0.4951
12521SOL    HW149622   9.582   8.018   2.263  0.8035 -0.0752 -0.0465
12521SOL    HW249623   9.502   7.881   2.228  0.0346  0.0595  1.1538
12522SOL     OW49624   6.134   2.376   4.278  0.0705 -0.5501  0.0104
12522SOL    HW149625   6.156   2.468   4.311  2.1419 -0.8212 -0.5758
12522SOL    HW249626   6.154   2.370   4.180 -0.8973 -1.3848 -0.1493
12523SOL     OW49627   2.660   4.829   1.240  0.2234  0.2652  0.3536
12523SOL    HW149628   2.673   4.858   1.145  0.1341  0.7705  0.4912
12523SOL    HW249629   2.566   4.851   1.268  0.3814  0.5166  0.6933
12524SOL     OW49630   5.824   4.528   8.386 -0.1272 -0.0502  0.0865
12524SOL    HW149631   5.737   4.479   8.382  0.9414 -1.9438 -0.9275
12524SOL    HW249632   5.808   4.626   8.377 -2.1434 -0.3819 -0.0962
12525SOL     OW49633   1.664   6.640   6.208  0.2234  0.9643 -0.0930
12525SOL    HW149634   1.757   6.620   6.176  0.3635  1.9152 -0.3139
12525SOL    HW249635   1.662   6.733   6.245 -0.4621  0.6627  0.6267
12526SOL     OW49636   9.705   9.569   7.774  1.1655 -0.4176 -0.4331
12526SOL    HW149637   9.704   9.669   7.777  2.3932 -0.4153 -0.1056
12526SOL    HW249638   9.760   9.538   7.696  1.2301 -0.8423 -0.2181
12527SOL     OW49639   8.141   7.391   8.240 -0.0303  0.1088 -0.4379
12527SOL    HW149640   8.185   7.301   8.234  0.3262  0.1812  1.0257
12527SOL    HW249641   8.071   7.389   8.312 -0.1284  0.9662 -0.5085
12528SOL     OW49642   9.841   0.806   3.268 -0.5915  0.3465  0.2287
12528SOL    HW149643   9.806   0.900   3.272  0.5435  0.9173 -2.2618
12528SOL    HW249644   9.785   0.753   3.205  0.0466 -0.0807  0.0237
12529SOL     OW49645   0.991   3.398   7.731 -0.1502 -0.1052 -0.1563
12529SOL    HW149646   0.984   3.300   7.750 -1.2851 -0.4495 -2.2134
12529SOL    HW249647   1.053   3.413   7.654  0.1464  0.8105  0.2540
12530SOL     OW49648   2.922   5.992   5.297 -0.0774  0.3010  0.2920
12530SOL    HW149649   3.015   6.026   5.310 -0.1166 -0.0404  1.4465
12530SOL    HW249650   2.919   5.932   5.217  0.5281  0.9448 -0.2180
12531SOL     OW49651   5.033   5.003   1.102 -0.3014 -0.0579 -1.0813
12531SOL    HW149652   5.033   5.063   1.182 -0.6708 -1.7926  0.2439
12531SOL    HW249653   5.001   5.054   1.022 -2.5011  0.9914  0.4164
12532SOL     OW49654   2.546   6.376   2.417 -0.0116  0.1727 -0.5716
12532SOL    HW149655   2.499   6.289   2.399  0.0099  0.1044 -0.2907
12532SOL    HW249656   2.517   6.444   2.349 -0.1056 -0.0231 -0.7289
12533SOL     OW49657   3.559   5.421   5.092  0.4563  0.0921 -0.5123
12533SOL    HW149658   3.583   5.402   5.187  1.2976  0.1032 -0.7214
12533SOL    HW249659   3.555   5.335   5.041 -3.5458 -0.3270  0.3217
12534SOL     OW49660   2.881   9.948   2.171  0.2425  0.3642 -0.1466
12534SOL    HW149661   2.797   9.932   2.222  0.3858 -0.5871 -0.2152
12534SOL    HW249662   2.922   9.861   2.144  1.9612  0.7715  1.0409
12535SOL     OW49663   7.463   0.080   6.001 -0.0900  0.5958 -0.1258
12535SOL    HW149664   7.530   0.124   6.060  0.8298  0.7918 -1.2881
12535SOL    HW249665   7.510   0.039   5.922 -0.9514 -2.2396  0.7947
12536SOL     OW49666   8.452   7.085   3.985 -0.0786  0.4772  0.4915
12536SOL    HW149667   8.388   7.151   3.945 -1.4047  0.0430  1.8751
12536SOL    HW249668   8.494   7.032   3.911 -0.3611  1.6257 -0.5168
12537SOL     OW49669   5.879   8.861   3.470  0.0164 -0.3567 -0.2236
12537SOL    HW149670   5.961   8.881   3.416  0.1187  0.8227  0.3476
12537SOL    HW249671   5.891   8.896   3.563 -0.2836 -2.0886  0.4882
12538SOL     OW49672   0.897   6.616   2.164  0.0621  0.1021  0.8157
12538SOL    HW149673   0.935   6.707   2.177  0.3163  0.2417 -0.7497
12538SOL    HW249674   0.970   6.548   2.169  0.2175  0.1869 -0.1244
12539SOL     OW49675   4.132   5.168   1.071  0.3747  0.3732 -0.4809
12539SOL    HW149676   4.107   5.118   0.988  0.6512  0.9006 -0.8864
12539SOL    HW249677   4.219   5.132   1.106 -0.1429 -0.3912  0.0388
12540SOL     OW49678   1.027   6.817   8.999  0.0389 -0.1992 -0.2355
12540SOL    HW149679   1.117   6.790   8.964  1.7718  2.1278  2.2060
12540SOL    HW249680   1.015   6.780   9.091 -1.5816 -0.5515 -0.5697
12541SOL     OW49681   5.173   4.161   7.207  0.1298 -0.0803  0.1802
12541SOL    HW149682   5.084   4.129   7.176 -0.9575  1.3798  1.6853
12541SOL    HW249683   5.205   4.235   7.148  1.0506 -1.6099 -1.2537
12542SOL     OW49684   8.726   0.176   5.383  0.1128 -0.0636 -0.0382
12542SOL    HW149685   8.722   0.135   5.292  3.5266 -0.7381  0.0429
12542SOL    HW249686   8.719   0.103   5.452  0.4678  0.1188  0.1903
12543SOL     OW49687   5.518   9.981   2.655 -0.3349 -0.7421  0.7782
12543SOL    HW149688   5.493   9.941   2.567  0.6585 -1.1177  0.6656
12543SOL    HW249689   5.443  10.039   2.688 -0.8162 -0.8198 -0.1787
12544SOL     OW49690   7.484   8.511   1.717 -0.1084 -0.5673 -0.4352
12544SOL    HW149691   7.544   8.431   1.720 -2.0863 -2.0629  0.1222
12544SOL    HW249692   7.390   8.482   1.700 -0.7218  1.7299 -1.1380
12545SOL     OW49693   8.451   6.519   7.617 -0.6794  0.0261  0.0611
12545SOL    HW149694   8.371   6.491   7.670 -0.0647 -1.8487  0.0238
12545SOL    HW249695   8.533   6.514   7.675 -0.6375  2.4597  0.2629
12546SOL     OW49696   3.077   7.551   7.374 -0.0801  0.2848  0.2674
12546SOL    HW149697   3.113   7.522   7.285  0.8705  1.4785  0.2514
12546SOL    HW249698   2.978   7.546   7.372 -0.0404 -0.3593 -0.6380
12547SOL     OW49699   6.437   8.614   2.145 -0.1570 -0.4709 -0.2408
12547SOL    HW149700   6.481   8.607   2.235 -0.7572 -1.4949 -0.0142
12547SOL    HW249701   6.396   8.704   2.135 -1.1824 -0.7727  1.0432
12548SOL     OW49702   9.235   0.269   3.271 -0.9137 -0.5000  0.7013
12548SOL    HW149703   9.183   0.203   3.217  0.0041  0.8247 -1.9072
12548SOL    HW249704   9.294   0.221   3.335 -0.2165 -2.2515 -1.1939
12549SOL     OW49705   4.073   6.384   4.363 -0.0469  0.1611  0.4517
12549SOL    HW149706   3.997   6.323   4.342  1.3799 -1.6691  0.4276
12549SOL    HW249707   4.047   6.478   4.345 -2.1413 -0.4860  0.0141
12550SOL     OW49708   6.259   1.083   4.510  1.0004  0.4106 -0.4522
12550SOL    HW149709   6.272   1.182   4.515 -1.0596  0.8114 -2.1449
12550SOL    HW249710   6.259   1.054   4.414  1.3629 -1.2141  0.0153
12551SOL     OW49711   1.026   3.598   3.685  0.3360  0.3992  0.3339
12551SOL    HW149712   1.063   3.514   3.726  0.1130  0.2372  0.1999
12551SOL    HW249713   1.102   3.660   3.665  0.3735  0.8570  1.8296
12552SOL     OW49714   9.923   3.150   8.230 -0.0819  0.7425 -0.1785
12552SOL    HW149715  10.020   3.132   8.214 -0.0546  0.7937 -0.0661
12552SOL    HW249716   9.906   3.156   8.328 -0.2060  0.6922 -0.1973
12553SOL     OW49717   9.726   8.642   6.567 -0.3671  0.1830  0.4226
12553SOL    HW149718   9.824   8.642   6.550 -0.2337 -0.0967  1.1568
12553SOL    HW249719   9.689   8.551   6.548 -0.2704 -0.0443  1.3215
12554SOL     OW49720   8.341   4.432   7.690  0.1121 -0.7966  0.2836
12554SOL    HW149721   8.250   4.392   7.704 -1.0199  1.2845 -0.8764
12554SOL    HW249722   8.397   4.371   7.636 -0.3122 -2.4710  1.6914
12555SOL     OW49723   7.713   8.648   3.118 -0.1530  0.1951  0.4607
12555SOL    HW149724   7.683   8.628   3.211  1.7923 -1.1564  0.8211
12555SOL    HW249725   7.809   8.621   3.107 -0.0952  1.1608 -1.6770
12556SOL     OW49726   5.320   9.103   3.316 -0.0062  0.1103 -0.2126
12556SOL    HW149727   5.403   9.052   3.297 -0.6481 -0.0655 -2.6906
12556SOL    HW249728   5.241   9.054   3.279 -0.6486  2.7054 -2.4499
12557SOL     OW49729   8.524   0.397   1.488 -0.2481  0.7577  0.2523
12557SOL    HW149730   8.549   0.411   1.393 -1.0467  0.4189 -0.0128
12557SOL    HW249731   8.428   0.422   1.502  0.3548  2.5311  1.3660
12558SOL     OW49732   7.381   4.362   1.903  0.7939  0.5582  0.2816
12558SOL    HW149733   7.455   4.297   1.922 -0.3969 -0.5795  1.1174
12558SOL    HW249734   7.367   4.420   1.983  1.8021  1.8149 -0.4362
12559SOL     OW49735   0.640   2.049   2.097  0.1499  0.2486  0.0602
12559SOL    HW149736   0.731   2.091   2.102 -0.3459  1.4264 -0.6254
12559SOL    HW249737   0.613   2.038   2.002 -0.3484 -0.2972  0.2565
12560SOL     OW49738   7.573   6.555   8.844  0.2031  0.4559 -0.2813
12560SOL    HW149739   7.658   6.602   8.867 -1.0070  1.8157  1.5585
12560SOL    HW249740   7.499   6.623   8.832 -1.1498 -0.8484  0.5250
12561SOL     OW49741   7.331   2.810   9.257 -0.1037 -0.3440 -0.1272
12561SOL    HW149742   7.263   2.837   9.189 -1.5548 -1.2003  0.9674
12561SOL    HW249743   7.399   2.750   9.213 -1.0777 -0.9651 -0.8126
12562SOL     OW49744   0.263   7.118   4.360 -0.6773  0.1433  0.4757
12562SOL    HW149745   0.239   7.052   4.431 -2.4544  0.7052  0.4015
12562SOL    HW249746   0.225   7.208   4.384 -1.0285  0.4059 -1.0347
12563SOL     OW49747   9.856   3.894   1.044  0.5539 -0.6634  0.2528
12563SOL    HW149748   9.805   3.953   1.107  1.5899 -0.1941  0.6640
12563SOL    HW249749   9.919   3.837   1.096  1.4109 -0.2778 -0.3492
12564SOL     OW49750   7.136   2.331   2.640 -0.1138 -0.0473 -0.4542
12564SOL    HW149751   7.209   2.264   2.653 -0.9795 -0.8032  0.5577
12564SOL    HW249752   7.142   2.401   2.710 -0.3280 -0.0820 -0.4011
12565SOL     OW49753   8.459   2.994   1.136 -0.2781 -0.0728  0.0531
12565SOL    HW149754   8.410   3.038   1.062  0.3932  2.8461  1.2824
12565SOL    HW249755   8.549   2.964   1.104 -1.3547 -2.0739 -1.2097
12566SOL     OW49756   8.339   8.538   4.642 -0.0024  0.2879 -0.0805
12566SOL    HW149757   8.257   8.524   4.696 -0.2089  0.7417 -0.2715
12566SOL    HW249758   8.324   8.613   4.577  1.0007  1.2933  0.8106
12567SOL     OW49759   7.345   0.157   8.960 -0.1604 -0.1782 -0.0809
12567SOL    HW149760   7.402   0.195   9.033  0.1350  1.4173 -1.1015
12567SOL    HW249761   7.343   0.221   8.883  0.5052 -2.3394 -1.9533
12568SOL     OW49762   9.912   4.348   7.363 -0.0069  0.0470 -0.2316
12568SOL    HW149763   9.921   4.416   7.436  0.2231  1.4510 -1.5470
12568SOL    HW249764   9.884   4.261   7.403 -0.5613  0.9655  1.4509
12569SOL     OW49765   0.540   9.879   1.283 -0.1321  0.3114  0.4530
12569SOL    HW149766   0.546   9.920   1.193 -2.7529  1.4975  0.7773
12569SOL    HW249767   0.631   9.849   1.313  0.8818  0.6795 -2.1867
12570SOL     OW49768   8.839   6.004   4.598 -0.5241  0.1522 -0.1034
12570SOL    HW149769   8.853   5.909   4.628 -0.0847  0.3479  0.3229
12570SOL    HW249770   8.872   6.066   4.670 -1.5663  0.6249 -0.0381
12571SOL     OW49771   9.629   9.275   9.857 -0.2843 -0.1848 -0.8540
12571SOL    HW149772   9.592   9.189   9.821  0.7986 -2.1708  2.5884
12571SOL    HW249773   9.556   9.324   9.905 -0.3863 -0.1379 -1.0522
12572SOL     OW49774   2.802   8.648   7.273 -0.0201 -1.1072 -0.2878
12572SOL    HW149775   2.740   8.572   7.257 -0.3792 -1.1689  1.2963
12572SOL    HW249776   2.837   8.643   7.366 -1.0761  1.3965  0.2749
12573SOL     OW49777   9.751   5.343   8.398 -0.1063  0.2930  0.0767
12573SOL    HW149778   9.714   5.403   8.327 -0.3374  0.7871  0.6169
12573SOL    HW249779   9.688   5.338   8.475  1.4642  2.0666  1.5161
12574SOL     OW49780   1.364   4.530   1.771 -0.5488  0.0134 -0.3124
12574SOL    HW149781   1.290   4.590   1.802  0.5145  0.6433  1.0713
12574SOL    HW249782   1.341   4.491   1.682 -1.4615  2.1294 -1.0218
12575SOL     OW49783   4.521   1.035   1.747  0.1890  0.6396 -0.5676
12575SOL    HW149784   4.543   1.038   1.649 -0.8065 -0.1590 -0.8268
12575SOL    HW249785   4.424   1.056   1.760  0.3174  0.7338  0.2491
12576SOL     OW49786   7.216   0.559   6.542  0.5757 -0.2916  0.0946
12576SOL    HW149787   7.208   0.460   6.534 -0.9797 -0.1364 -0.6534
12576SOL    HW249788   7.273   0.594   6.468  0.0668 -0.5189 -0.4134
12577SOL     OW49789   1.881   8.545   0.737  0.0546  0.2538 -0.9195
12577SOL    HW149790   1.911   8.451   0.751  0.1438  0.1875 -1.5602
12577SOL    HW249791   1.787   8.556   0.771  0.7772  0.4624  1.0648
12578SOL     OW49792   9.667   2.435   7.512  0.7080 -0.1520 -0.1878
12578SOL    HW149793   9.711   2.352   7.475 -0.3928 -0.4752 -0.8041
12578SOL    HW249794   9.590   2.409   7.569  0.4307  0.4480 -0.2870
12579SOL     OW49795   1.926   8.380   6.806 -0.6916 -0.1536  0.2351
12579SOL    HW149796   1.852   8.429   6.852 -1.9901 -0.2757 -1.6626
12579SOL    HW249797   2.001   8.444   6.786 -1.2293  0.4560  0.1657
12580SOL     OW49798   5.854   4.263   8.699  0.7425  0.0584 -0.2367
12580SOL    HW149799   5.926   4.255   8.769  1.2375 -1.3849 -0.8867
12580SOL    HW249800   5.787   4.191   8.712 -2.0474  2.9299  1.9560
12581SOL     OW49801   5.449   4.185   0.043 -0.6603  0.2181 -0.1519
12581SOL    HW149802   5.455   4.131   0.127  1.2914 -0.1438 -0.4930
12581SOL    HW249803   5.384   4.143  -0.020 -1.2535 -0.1570  0.7063
12582SOL     OW49804   0.388   2.170   3.813  0.0737  0.0925  0.0238
12582SOL    HW149805   0.350   2.227   3.886 -0.1020 -1.3647  1.0932
12582SOL    HW249806   0.469   2.122   3.847 -0.0833 -0.6908 -0.6921
12583SOL     OW49807   1.696   5.072   2.969  0.5688 -0.8892 -0.2143
12583SOL    HW149808   1.597   5.059   2.976  0.7256 -1.7363  0.7207
12583SOL    HW249809   1.718   5.169   2.980  0.0031 -0.9768  1.9219
12584SOL     OW49810   7.671   6.556   4.418  0.0079 -0.8289 -0.1516
12584SOL    HW149811   7.668   6.470   4.468  0.4776  0.1386  1.5653
12584SOL    HW249812   7.763   6.594   4.423 -0.3853  0.1423 -0.2599
12585SOL     OW49813   7.907   1.631   7.958 -0.6490 -0.0843 -0.7856
12585SOL    HW149814   7.928   1.606   8.053 -0.1800  0.1429 -0.8238
12585SOL    HW249815   7.885   1.729   7.953 -0.4320 -0.0420 -0.9451
12586SOL     OW49816   1.785   7.446   6.512  0.2967 -0.2306 -0.4931
12586SOL    HW149817   1.715   7.466   6.444 -0.3574 -0.4441  0.1193
12586SOL    HW249818   1.782   7.514   6.585 -1.7333 -2.3361  1.4384
12587SOL     OW49819   2.459   2.980   8.011 -0.3112 -0.2829  0.5625
12587SOL    HW149820   2.473   2.926   8.094 -2.4571 -0.6257  0.7079
12587SOL    HW249821   2.426   2.921   7.938 -1.1585  0.5306  0.2749
12588SOL     OW49822   0.233   2.559   5.491  0.2512 -0.4006  0.3771
12588SOL    HW149823   0.279   2.472   5.508  0.7688 -0.0731  0.6677
12588SOL    HW249824   0.169   2.549   5.414  0.4971 -0.9674  0.2459
12589SOL     OW49825   6.895   7.081   4.978  0.3621  0.3734  0.1809
12589SOL    HW149826   6.995   7.092   4.979  0.5392 -1.1335  1.0216
12589SOL    HW249827   6.859   7.115   4.891  1.8625 -1.0647 -1.0407
12590SOL     OW49828   6.376   9.990   1.110 -0.0710 -0.2626 -0.0685
12590SOL    HW149829   6.289  10.002   1.157  0.3318  0.3194  0.5466
12590SOL    HW249830   6.408   9.896   1.122  0.1448 -0.0566  1.0330
12591SOL     OW49831   9.566   5.851   6.653 -0.1607  0.3662  0.3269
12591SOL    HW149832   9.577   5.758   6.687 -1.8340 -0.5687 -1.6113
12591SOL    HW249833   9.574   5.852   6.554 -0.9223  2.1785  0.2575
12592SOL     OW49834   1.468   4.478   4.683  0.9801 -0.2887 -0.1074
12592SOL    HW149835   1.548   4.467   4.743  0.2402 -0.1636  0.9215
12592SOL    HW249836   1.431   4.389   4.660  0.2278 -0.2773  1.0478
12593SOL     OW49837   9.284   1.654   3.452  0.7878 -0.2901 -0.2840
12593SOL    HW149838   9.247   1.584   3.513  2.4482 -1.7524 -0.9192
12593SOL    HW249839   9.285   1.620   3.358 -1.3827  1.8016 -1.1414
12594SOL     OW49840   2.651   2.826   5.083  0.3118  0.0626 -0.6738
12594SOL    HW149841   2.590   2.876   5.145 -1.9506 -1.8760 -1.2784
12594SOL    HW249842   2.745   2.854   5.100 -0.5159  1.4846  1.8284
12595SOL     OW49843   8.290   9.921   6.869 -0.2763  0.6192  0.4040
12595SOL    HW149844   8.298   9.822   6.857  0.8185  0.7816 -0.2801
12595SOL    HW249845   8.193   9.947   6.868 -0.5373 -0.3590 -0.1824
12596SOL     OW49846   9.278   5.495   9.924 -0.1466 -0.0853 -0.1283
12596SOL    HW149847   9.350   5.427   9.909  0.4452  0.5581 -0.2112
12596SOL    HW249848   9.189   5.449   9.926  0.4170 -1.1631  1.9220
12597SOL     OW49849   8.376   2.263   4.474  0.2764 -0.3252  0.1020
12597SOL    HW149850   8.299   2.285   4.534 -0.0440  1.1797 -0.8252
12597SOL    HW249851   8.355   2.181   4.421  0.0300 -0.9098  1.0751
12598SOL     OW49852   8.678   3.830   9.383  0.3906 -0.4738  0.6204
12598SOL    HW149853   8.631   3.914   9.356  0.0613 -0.9195 -0.1886
12598SOL    HW249854   8.681   3.824   9.483  1.2172  0.9444  0.6947
12599SOL     OW49855   5.904   9.724   5.013 -0.6430  0.4259 -0.0184
12599SOL    HW149856   5.907   9.689   5.107 -0.9145 -1.5729 -0.7494
12599SOL    HW249857   5.975   9.795   5.003 -0.3402  0.3809  1.5709
12600SOL     OW49858   3.580   9.671   6.524  0.1698 -0.3382 -0.0689
12600SOL    HW149859   3.483   9.653   6.510  0.1920 -0.9259  0.5204
12600SOL    HW249860   3.631   9.642   6.443 -0.0384 -0.8904 -0.0010
12601SOL     OW49861   2.608   6.093   8.717  0.1962  0.0096  0.0042
12601SOL    HW149862   2.648   6.059   8.632  1.3205 -0.6484  0.7917
12601SOL    HW249863   2.680   6.127   8.777 -0.6429  0.9251  0.4957
12602SOL     OW49864   1.964   5.099   9.644 -0.7130 -0.2288  0.0272
12602SOL    HW149865   2.010   5.180   9.608  0.2946  0.1814  2.1544
12602SOL    HW249866   1.898   5.126   9.714 -0.7671 -1.2204  0.3653
12603SOL     OW49867   9.693   6.460   7.263  0.3587  0.5964 -0.3426
12603SOL    HW149868   9.717   6.478   7.359 -1.9248  2.1190 -0.0300
12603SOL    HW249869   9.691   6.361   7.248  0.7665  0.3371  1.1780
12604SOL     OW49870   3.592   2.042   4.561  0.2399  0.0535  0.2812
12604SOL    HW149871   3.564   2.079   4.473  0.2639 -1.0358 -0.1815
12604SOL    HW249872   3.513   2.002   4.607  0.5972 -1.0601 -0.0683
12605SOL     OW49873   8.455   8.655   3.838 -0.1891 -0.4062  0.1530
12605SOL    HW149874   8.452   8.581   3.905 -0.1140 -1.4907 -1.0337
12605SOL    HW249875   8.423   8.622   3.750  2.4996  0.1735 -1.1039
12606SOL     OW49876   6.790   2.097   3.054  0.7813 -0.2097  0.3629
12606SOL    HW149877   6.866   2.161   3.046 -1.6262  2.3754 -2.8381
12606SOL    HW249878   6.722   2.133   3.118  0.6960 -0.9271  0.6843
12607SOL     OW49879   0.335   2.425   0.129  0.0057 -0.3101  0.4045
12607SOL    HW149880   0.346   2.365   0.050  0.5414 -1.7276  1.5415
12607SOL    HW249881   0.424   2.465   0.153  0.1763 -1.2102  1.3124
12608SOL     OW49882   9.350   2.684   8.677  0.4981  0.0097  0.2013
12608SOL    HW149883   9.401   2.766   8.651 -1.1176  1.6406  2.0371
12608SOL    HW249884   9.263   2.682   8.628 -0.1726  0.2551  1.3656
12609SOL     OW49885   6.347   5.168   9.250 -0.1966 -0.2523 -0.2160
12609SOL    HW149886   6.423   5.223   9.213  1.1229 -0.8410  1.5189
12609SOL    HW249887   6.348   5.078   9.208  2.0006 -1.3141  1.9534
12610SOL     OW49888   4.331   7.402   5.089  0.7826 -0.1525  0.0884
12610SOL    HW149889   4.375   7.389   5.000  0.9064  1.3480 -0.0708
12610SOL    HW249890   4.254   7.339   5.097  1.3160 -0.9238 -0.7121
12611SOL     OW49891   8.767   9.911   2.220  0.0399  0.4853  0.6341
12611SOL    HW149892   8.750   9.946   2.128 -0.5424 -0.8891  0.1975
12611SOL    HW249893   8.857   9.940   2.251  0.8418 -0.2542 -0.9595
12612SOL     OW49894   9.195   4.977   8.804 -0.1498 -0.0367  0.2534
12612SOL    HW149895   9.244   4.966   8.891  0.1748  0.8875  0.2007
12612SOL    HW249896   9.218   5.066   8.765 -0.0532 -0.5758 -0.9351
12613SOL     OW49897   5.632   1.571   8.117 -0.5596 -0.0918 -0.5228
12613SOL    HW149898   5.538   1.541   8.106 -0.4269 -0.8698  0.4565
12613SOL    HW249899   5.694   1.494   8.106 -0.1772 -0.0526  1.1683
12614SOL     OW49900   7.113   4.233   2.973  0.0062  0.6321 -0.0244
12614SOL    HW149901   7.141   4.328   2.962 -1.3279  0.8559 -1.7120
12614SOL    HW249902   7.055   4.206   2.896  0.9262 -1.7666  0.0719
12615SOL     OW49903   7.958   0.988   9.146  0.5283 -0.3307  0.2488
12615SOL    HW149904   7.928   1.045   9.070  1.3051 -0.3061 -0.0417
12615SOL    HW249905   7.982   1.047   9.224  1.5421 -0.2374 -0.1250
12616SOL     OW49906   7.680   8.401   7.487 -0.0934  0.2381 -0.1547
12616SOL    HW149907   7.740   8.416   7.566 -1.0554  1.1539  0.4093
12616SOL    HW249908   7.732   8.415   7.403  0.4668  1.1292  0.3331
12617SOL     OW49909   7.964   8.503   6.514 -0.0679 -0.5975  0.2785
12617SOL    HW149910   7.906   8.462   6.444 -1.4078  1.2450  0.2872
12617SOL    HW249911   8.052   8.530   6.474  1.0194 -3.8012  0.3592
12618SOL     OW49912   6.901   4.748   2.026 -0.5192 -0.4186  0.0988
12618SOL    HW149913   6.989   4.773   1.986 -0.7859 -1.5914 -1.2828
12618SOL    HW249914   6.914   4.726   2.123  0.7098 -0.5879 -0.0936
12619SOL     OW49915   9.001   7.904   9.591  0.6282  0.2809  0.7168
12619SOL    HW149916   8.901   7.903   9.578  0.5589 -1.9705  1.2263
12619SOL    HW249917   9.046   7.894   9.502  0.4320  1.2498  0.4923
12620SOL     OW49918   3.526   8.739   1.612 -0.0490  0.0233 -0.0776
12620SOL    HW149919   3.541   8.709   1.706 -1.0017  2.7707  1.0022
12620SOL    HW249920   3.454   8.684   1.571  0.1124 -0.9517  0.9335
12621SOL     OW49921   3.091   8.348   5.609  0.1126 -0.2889  0.6055
12621SOL    HW149922   3.154   8.382   5.539 -1.0650 -0.8517 -0.7638
12621SOL    HW249923   3.027   8.420   5.634  0.1717 -0.2588  0.6668
12622SOL     OW49924   0.213   2.991   2.607  0.2886  0.7420 -0.3696
12622SOL    HW149925   0.291   2.928   2.614  0.5041  0.9810 -0.6025
12622SOL    HW249926   0.238   3.067   2.547 -0.2412  0.6365 -0.7277
12623SOL     OW49927   3.952   5.175   7.302  0.2382 -0.1636  0.0835
12623SOL    HW149928   3.902   5.261   7.307  2.6738  1.3510 -1.0588
12623SOL    HW249929   3.975   5.155   7.207  1.1241 -1.2378  0.5100
12624SOL     OW49930   8.366   2.854   0.346  0.0831  0.0837  0.6003
12624SOL    HW149931   8.289   2.883   0.288  1.0942  0.0764 -0.7586
12624SOL    HW249932   8.440   2.820   0.289  0.3109 -1.9044  1.9974
12625SOL     OW49933   6.469   4.774   9.413  0.9096  0.1054  0.8468
12625SOL    HW149934   6.519   4.688   9.410  1.1710  0.2523  0.9806
12625SOL    HW249935   6.505   4.835   9.342  0.0097 -0.2847  0.0326
12626SOL     OW49936   9.128   4.188   9.398 -0.1347  0.0797  0.0221
12626SOL    HW149937   9.053   4.125   9.378  0.5395 -0.7973  0.2151
12626SOL    HW249938   9.182   4.153   9.475  0.1675  0.9646  0.2209
12627SOL     OW49939   2.296   6.519   5.511 -0.0779 -0.2892 -0.2448
12627SOL    HW149940   2.375   6.501   5.570  0.1698 -0.1036 -0.5222
12627SOL    HW249941   2.233   6.581   5.558 -1.0010 -1.9619  0.7830
12628SOL     OW49942   5.699   5.411   0.395  0.1150 -0.0508 -0.3530
12628SOL    HW149943   5.650   5.472   0.333  0.3474 -2.4627 -3.0475
12628SOL    HW249944   5.796   5.407   0.368  0.8292  0.9430  1.9064
12629SOL     OW49945   2.520   9.268   4.098  0.0768  0.4889 -0.1572
12629SOL    HW149946   2.524   9.364   4.070  2.8540 -0.1618 -2.2069
12629SOL    HW249947   2.480   9.214   4.023 -2.0241  0.0719  1.2110
12630SOL     OW49948   9.613   9.535   5.946  0.4030 -0.4756  0.0393
12630SOL    HW149949   9.603   9.502   5.852 -1.8817 -0.0840  0.1254
12630SOL    HW249950   9.579   9.629   5.953 -0.3683 -0.8402  1.4544
12631SOL     OW49951   7.050   8.775   2.336  0.0450 -0.4542  0.0652
12631SOL    HW149952   7.071   8.848   2.271  2.3162  1.4714  2.8421
12631SOL    HW249953   6.961   8.793   2.379  0.2969  0.3200  0.2646
12632SOL     OW49954   0.058   6.664   9.185  0.0539  0.6527 -0.3194
12632SOL    HW149955   0.123   6.722   9.137  1.1529  0.2359  0.6600
12632SOL    HW249956   0.101   6.624   9.266 -0.8894 -0.9751 -0.5875
12633SOL     OW49957   2.587   9.553   3.150  0.1611 -0.1519  0.3694
12633SOL    HW149958   2.615   9.579   3.243  2.6495  0.4037 -0.5103
12633SOL    HW249959   2.555   9.633   3.101 -0.9191 -0.4055  0.6351
12634SOL     OW49960   3.897   4.464   9.312 -0.1186 -0.0546 -0.0113
12634SOL    HW149961   3.933   4.370   9.316 -0.2828 -0.1524 -0.7519
12634SOL    HW249962   3.885   4.499   9.405  1.0935 -0.3265  0.2522
12635SOL     OW49963   9.482   9.992   2.666 -0.0065  0.2396 -0.3814
12635SOL    HW149964   9.524  10.077   2.634  0.0907  0.2717 -0.1683
12635SOL    HW249965   9.551   9.935   2.710 -0.0722  0.0465 -0.5256
12636SOL     OW49966   3.526   4.917   5.709 -0.1471 -0.5378 -0.4506
12636SOL    HW149967   3.513   4.977   5.788 -0.4183 -2.4653  0.9993
12636SOL    HW249968   3.593   4.846   5.733  0.3581 -0.6730 -2.2264
12637SOL     OW49969   4.599   5.735   2.909 -0.8119 -0.0970 -0.6934
12637SOL    HW149970   4.625   5.828   2.884 -1.5278  0.2698 -0.0993
12637SOL    HW249971   4.598   5.726   3.008  1.1198 -1.2876 -0.7540
12638SOL     OW49972   1.608   0.998   7.925  0.2907  0.4093  0.0525
12638SOL    HW149973   1.701   1.035   7.928  0.1056  0.8654  0.1936
12638SOL    HW249974   1.575   0.981   8.018  0.1713  0.4064  0.0104
12639SOL     OW49975   0.752   9.571   5.794 -0.1823  0.3365 -0.6297
12639SOL    HW149976   0.755   9.582   5.695 -2.3428 -1.6759 -0.9543
12639SOL    HW249977   0.701   9.488   5.817  0.2689  0.7865  2.1690
12640SOL     OW49978   2.941   7.761   9.254  0.6681 -0.3397  0.0424
12640SOL    HW149979   3.017   7.826   9.253  0.4363 -0.0763 -1.2925
12640SOL    HW249980   2.915   7.739   9.160 -0.1015 -1.3773  0.4900
12641SOL     OW49981   1.747   2.322   6.633  0.5248 -0.0462 -0.6577
12641SOL    HW149982   1.725   2.303   6.537 -1.1686  0.1660 -0.3255
12641SOL    HW249983   1.712   2.413   6.658  0.2802 -0.4087  0.3608
12642SOL     OW49984   2.895   2.621   0.733 -0.3147  0.0047  0.1321
12642SOL    HW149985   2.868   2.629   0.829 -0.6842 -1.6827  0.1767
12642SOL    HW249986   2.843   2.686   0.678 -1.7441 -0.5914  0.7582
12643SOL     OW49987   0.673   9.669   9.061  0.8842 -0.5408  0.0782
12643SOL    HW149988   0.637   9.603   8.995 -0.6348  1.6162 -1.3002
12643SOL    HW249989   0.773   9.672   9.054  0.8406 -1.3943 -1.0577
12644SOL     OW49990   2.356   1.730   0.757 -0.2627  0.2940  0.1398
12644SOL    HW149991   2.384   1.640   0.790 -0.7917 -0.1323 -0.5472
12644SOL    HW249992   2.326   1.722   0.662  0.0307  1.2641 -0.0401
12645SOL     OW49993   1.384   2.554   2.866  0.2141 -0.0742 -0.1571
12645SOL    HW149994   1.344   2.466   2.891 -0.5543  0.0631 -0.8597
12645SOL    HW249995   1.484   2.547   2.864  0.1170 -1.2289 -1.2634
12646SOL     OW49996   5.891   0.858   3.825 -0.3264  0.1753  0.6545
12646SOL    HW149997   5.942   0.917   3.889  1.2585 -2.7904  2.2056
12646SOL    HW249998   5.946   0.842   3.744 -0.0642 -0.4991  0.9626
12647SOL     OW49999   1.118   2.446   7.054  0.1155  0.0895  0.1336
12647SOL    HW150000   1.056   2.470   7.129  0.7975  0.6300  0.5389
12647SOL    HW250001   1.090   2.493   6.971 -0.3614 -0.1279  0.1713
12648SOL     OW50002   9.832   1.627   9.004  0.1766 -0.5591  0.0294
12648SOL    HW150003   9.857   1.541   8.959 -0.7281 -0.1767 -1.2404
12648SOL    HW250004   9.734   1.643   8.992  0.4373  0.8987 -0.1992
12649SOL     OW50005   6.560   0.433   2.088  0.0977  0.0059 -0.0161
12649SOL    HW150006   6.630   0.396   2.149 -1.2329  0.6774  1.9795
12649SOL    HW250007   6.527   0.520   2.124 -1.4494 -0.0747 -1.1637
12650SOL     OW50008   4.669   8.098   4.813 -0.1425  0.0550  0.1163
12650SOL    HW150009   4.714   8.139   4.733  0.6315  0.1447  0.5910
12650SOL    HW250010   4.577   8.136   4.823 -0.4549 -0.3575 -1.0473
12651SOL     OW50011   3.875   1.298   9.446 -0.1811 -0.0453  0.5996
12651SOL    HW150012   3.857   1.201   9.432  0.2813  0.0173 -0.4946
12651SOL    HW250013   3.859   1.348   9.361  1.3166  0.5715  0.6589
12652SOL     OW50014   8.791   9.939   5.540  0.3597 -0.1160  0.0722
12652SOL    HW150015   8.771   9.842   5.525 -0.3508  0.3489 -2.0767
12652SOL    HW250016   8.810   9.954   5.637  0.9537 -2.4844  0.3526
12653SOL     OW50017   8.416   3.674   2.211 -0.2223  0.4523  0.7480
12653SOL    HW150018   8.499   3.678   2.154 -0.9415 -0.2622 -0.3868
12653SOL    HW250019   8.344   3.729   2.168 -0.9487 -0.5584  0.6611
12654SOL     OW50020   3.668   6.545   5.516 -0.0920 -0.3343  0.9522
12654SOL    HW150021   3.656   6.643   5.529 -0.1145 -0.1794 -0.1757
12654SOL    HW250022   3.681   6.501   5.605 -0.8190  0.5858  1.5295
12655SOL     OW50023   7.920   5.278   8.949  0.0321 -0.7003  0.0235
12655SOL    HW150024   7.972   5.338   9.010 -0.2114 -0.3666 -0.0907
12655SOL    HW250025   7.851   5.332   8.900  1.3428 -0.6435 -1.8143
12656SOL     OW50026   6.547   8.609   2.988 -0.1749  0.3339  0.1226
12656SOL    HW150027   6.466   8.585   3.041  0.0325  1.8304  1.1402
12656SOL    HW250028   6.554   8.549   2.908 -2.5690  0.5135 -0.2531
12657SOL     OW50029   8.113   9.712   3.276 -0.1733  0.1087 -0.2991
12657SOL    HW150030   8.207   9.745   3.285  0.0243 -0.0309 -1.7544
12657SOL    HW250031   8.054   9.788   3.249  0.7256 -1.0627 -6.3445
12658SOL     OW50032   9.701   6.283   8.672 -0.1325 -0.4663  0.4303
12658SOL    HW150033   9.729   6.337   8.593 -2.8510  2.8011  1.5828
12658SOL    HW250034   9.782   6.247   8.719  1.5947 -0.1987 -2.2530
12659SOL     OW50035   6.876   7.980   5.732 -0.3853  0.3123 -0.1221
12659SOL    HW150036   6.902   7.944   5.822  4.3442 -0.4702 -1.6288
12659SOL    HW250037   6.836   7.907   5.677  3.5938 -1.2878 -1.0824
12660SOL     OW50038   7.288   7.610   7.981  0.1867  0.4221 -0.2139
12660SOL    HW150039   7.267   7.675   7.909 -0.1970 -0.8246 -1.2497
12660SOL    HW250040   7.248   7.641   8.067 -1.2618  0.8044 -1.0176
12661SOL     OW50041   2.453   8.130   8.711 -0.1996 -0.0229 -0.0146
12661SOL    HW150042   2.437   8.224   8.740 -0.4199  0.1603 -0.7253
12661SOL    HW250043   2.463   8.072   8.792 -0.1796  0.5879  0.4265
12662SOL     OW50044   0.177   1.375   2.935 -0.3997  0.3206  0.4037
12662SOL    HW150045   0.141   1.313   2.865 -1.1780  0.5583  0.5874
12662SOL    HW250046   0.246   1.328   2.989 -0.5739 -0.2029  0.1735
12663SOL     OW50047   8.395   3.342   4.275  0.6802  0.1160  0.0110
12663SOL    HW150048   8.407   3.380   4.367 -0.1438 -1.3079  0.7236
12663SOL    HW250049   8.482   3.346   4.226  1.3263  0.1785  1.1443
12664SOL     OW50050   1.733   9.289   2.377  0.1493 -0.2673  0.1816
12664SOL    HW150051   1.663   9.218   2.384  0.8255 -1.0480 -0.8563
12664SOL    HW250052   1.734   9.326   2.284  0.5496  0.3155  0.4174
12665SOL     OW50053   9.940   6.403   7.130 -0.0702 -0.6198  0.4584
12665SOL    HW150054   9.914   6.313   7.096 -1.1214 -0.1581  0.0045
12665SOL    HW250055   9.859   6.461   7.136  0.8826  0.9228 -1.1752
12666SOL     OW50056   8.114   8.750   6.282  0.0141  0.0791  0.6653
12666SOL    HW150057   8.085   8.814   6.353  0.5877  0.9338  0.1340
12666SOL    HW250058   8.185   8.792   6.225  1.6712 -1.6409  1.3819
12667SOL     OW50059   0.528   8.725   2.928 -0.0189  0.1682 -0.1528
12667SOL    HW150060   0.470   8.683   2.858 -0.9946  1.2144  0.0257
12667SOL    HW250061   0.498   8.818   2.945  2.0246  0.9174 -0.4307
12668SOL     OW50062   8.770   3.974   8.565  0.6018  0.4727 -0.1455
12668SOL    HW150063   8.679   3.949   8.600  0.2574  3.1398  0.9602
12668SOL    HW250064   8.764   3.999   8.469  0.3878 -0.5305 -0.3949
12669SOL     OW50065   8.714   9.523   8.094 -0.2005 -0.1587  0.0629
12669SOL    HW150066   8.721   9.589   8.169  0.4315  1.1547 -1.1383
12669SOL    HW250067   8.800   9.521   8.043 -0.9571 -0.2988 -1.2327
12670SOL     OW50068   7.109   5.030   2.226  0.3429  0.4853 -0.3383
12670SOL    HW150069   7.131   4.933   2.219 -2.4878 -0.2044 -0.4549
12670SOL    HW250070   7.083   5.051   2.320  1.3442  1.2214 -0.2269
12671SOL     OW50071   4.138   0.856   3.154  0.6170  0.1412 -0.0702
12671SOL    HW150072   4.073   0.805   3.097  0.8581  0.2889 -0.4760
12671SOL    HW250073   4.094   0.880   3.241  0.7234 -1.3566  0.4164
12672SOL     OW50074   9.320   9.643   9.530  0.0608  0.3832 -0.3789
12672SOL    HW150075   9.286   9.735   9.548 -0.9700  0.0931 -0.8257
12672SOL    HW250076   9.398   9.624   9.590  0.3761  1.5965 -0.3870
12673SOL     OW50077   0.191   7.221   5.368  0.0862  0.0466 -0.4214
12673SOL    HW150078   0.269   7.246   5.426  0.4052 -0.4233 -0.6427
12673SOL    HW250079   0.203   7.262   5.277 -0.4611  0.8628 -0.1328
12674SOL     OW50080   1.228   1.904   7.632  0.4737  0.0757  0.3460
12674SOL    HW150081   1.295   1.831   7.616  0.8743  0.6096 -0.4548
12674SOL    HW250082   1.144   1.865   7.671  0.0390 -1.0534 -1.6881
12675SOL     OW50083   8.959   8.045   8.450  0.2405 -0.0461  0.5341
12675SOL    HW150084   8.947   7.960   8.502  1.3055  0.0916  1.0146
12675SOL    HW250085   8.935   8.123   8.508 -2.5388 -0.0946 -0.4930
12676SOL     OW50086   8.575   9.079   3.083 -0.5104  0.2129 -0.2038
12676SOL    HW150087   8.499   9.115   3.029  0.8373  1.6118 -1.2107
12676SOL    HW250088   8.653   9.060   3.023  0.5084  0.3638  1.0435
12677SOL     OW50089   5.892   1.982   4.671 -0.0251 -0.0820  0.4798
12677SOL    HW150090   5.836   1.960   4.751 -0.4344  0.3025  0.2946
12677SOL    HW250091   5.988   1.964   4.693 -0.1877 -0.4810  0.8846
12678SOL     OW50092   4.979   7.762   4.714  0.5395 -0.1599  0.0658
12678SOL    HW150093   4.997   7.676   4.666  0.3513 -0.4435  0.4930
12678SOL    HW250094   5.066   7.804   4.740  0.6333 -0.1813 -0.2117
12679SOL     OW50095   1.666   8.121   7.853 -0.6671  0.7316 -0.7083
12679SOL    HW150096   1.724   8.167   7.920  0.2760 -1.4230 -0.0091
12679SOL    HW250097   1.585   8.178   7.834  0.6607  2.8379 -0.2058
12680SOL     OW50098   7.485   6.002   1.186 -0.8739 -0.1106  0.2339
12680SOL    HW150099   7.443   6.024   1.274  1.1765  2.4157  0.6462
12680SOL    HW250100   7.515   6.086   1.141  0.3759 -1.5508 -1.7216
12681SOL     OW50101   5.791   3.107   0.067 -0.2080 -0.1893  0.0593
12681SOL    HW150102   5.852   3.117   0.146  0.6983 -2.6738 -0.2904
12681SOL    HW250103   5.819   3.028   0.013 -1.3549  0.9715 -2.2999
12682SOL     OW50104   7.935   9.735   5.509  0.0161 -0.4012  0.4286
12682SOL    HW150105   7.995   9.655   5.493  0.7051  0.3343 -0.8115
12682SOL    HW250106   7.946   9.767   5.603  0.6436 -1.0374  0.5785
12683SOL     OW50107   0.325   4.033   3.743 -0.4599  0.3187  0.2714
12683SOL    HW150108   0.313   4.124   3.783  0.1359  0.0178  1.1532
12683SOL    HW250109   0.237   3.986   3.740 -0.6287  0.6093  0.5918
12684SOL     OW50110   1.515   3.496   2.291  0.3462 -0.3933 -0.1244
12684SOL    HW150111   1.529   3.408   2.245 -0.0539 -1.2015  1.2809
12684SOL    HW250112   1.469   3.481   2.378  0.1865  1.2289  0.0774
12685SOL     OW50113   0.472   5.586   0.648 -0.2337  0.4038 -0.1347
12685SOL    HW150114   0.511   5.676   0.666 -0.6413  0.7623 -0.9882
12685SOL    HW250115   0.495   5.524   0.723 -1.6682  1.7556  1.4830
12686SOL     OW50116   4.244   1.161   5.637  0.0692  0.1691  0.7604
12686SOL    HW150117   4.276   1.193   5.726 -2.1056  4.0560  0.2526
12686SOL    HW250118   4.298   1.204   5.565  0.0343 -0.8090  0.1527
12687SOL     OW50119   7.457   8.823   3.047 -0.5947  0.0826  0.3264
12687SOL    HW150120   7.406   8.753   2.998  1.7039 -2.4550  1.4657
12687SOL    HW250121   7.553   8.819   3.020 -0.3842  2.8122  0.4567
12688SOL     OW50122   8.640   0.148   5.801  0.4541 -0.0166  0.1450
12688SOL    HW150123   8.714   0.080   5.798  0.0852 -0.5225  1.8541
12688SOL    HW250124   8.680   0.240   5.794  0.8173 -0.3962 -3.9682
12689SOL     OW50125   0.166   2.265   8.812 -0.2137 -0.3220 -0.7809
12689SOL    HW150126   0.160   2.168   8.836 -0.6054 -0.1909 -0.3238
12689SOL    HW250127   0.256   2.284   8.773  0.9755 -0.2611  1.9158
12690SOL     OW50128   9.071   4.812   7.834 -0.1428 -0.1058 -0.3474
12690SOL    HW150129   9.054   4.714   7.840 -3.3886  0.3874 -0.4497
12690SOL    HW250130   9.095   4.837   7.740 -0.2908 -0.6708 -0.5338
12691SOL     OW50131   9.646   9.412   4.938  0.2578  0.1563  0.2393
12691SOL    HW150132   9.677   9.492   4.990  0.0717 -0.6679  1.6496
12691SOL    HW250133   9.566   9.436   4.884  1.5926  1.5311 -1.1554
12692SOL     OW50134   5.739   5.303   8.270  0.1522 -0.1343  0.1789
12692SOL    HW150135   5.798   5.365   8.218 -1.1912  0.7302 -0.3430
12692SOL    HW250136   5.648   5.344   8.279 -1.5003 -3.1348 -2.2898
12693SOL     OW50137   8.882   9.713   7.518 -0.5416 -0.0757 -0.2642
12693SOL    HW150138   8.944   9.754   7.451  0.8983 -0.0933  1.0275
12693SOL    HW250139   8.924   9.718   7.609 -2.4066 -0.1729  0.6183
12694SOL     OW50140   1.472   7.072  10.032 -0.3135 -0.2012  0.2998
12694SOL    HW150141   1.397   7.071   9.966  1.2911 -0.0882 -1.5689
12694SOL    HW250142   1.554   7.110   9.989  0.8013 -0.2165  2.3361
12695SOL     OW50143   1.577   7.090   4.322 -0.0281 -0.3371 -0.7559
12695SOL    HW150144   1.661   7.044   4.294 -1.0591 -3.9120  1.7557
12695SOL    HW250145   1.500   7.055   4.269 -0.4337  0.4321 -0.6809
12696SOL     OW50146   0.360   9.853   5.580  0.0559 -0.2029 -0.1731
12696SOL    HW150147   0.367   9.782   5.510  1.6800 -0.4537  0.2216
12696SOL    HW250148   0.329   9.938   5.537  1.5155 -0.2158 -1.3204
12697SOL     OW50149   9.089   6.513   8.345 -0.1351  0.3479  0.3651
12697SOL    HW150150   9.100   6.588   8.411 -0.9608  0.6291  0.1824
12697SOL    HW250151   8.993   6.486   8.340  0.1896 -0.8806  0.5872
12698SOL     OW50152   0.142   6.501   3.994 -0.3720  0.1676 -0.5498
12698SOL    HW150153   0.044   6.523   3.984 -0.4982 -0.7188 -1.3309
12698SOL    HW250154   0.185   6.568   4.054 -1.2227  1.2437 -1.1124
12699SOL     OW50155   9.562   2.212   7.864  0.1303  0.0509 -0.2048
12699SOL    HW150156   9.641   2.188   7.807 -0.4316 -1.4290 -0.3650
12699SOL    HW250157   9.504   2.132   7.877 -1.1462  1.0282  0.2530
12700SOL     OW50158   9.022   9.392   8.378 -0.0389  0.2544  0.1719
12700SOL    HW150159   9.083   9.315   8.361 -0.3231 -0.2160  1.2247
12700SOL    HW250160   9.001   9.438   8.292  0.0674 -0.8960 -0.4779
12701SOL     OW50161   9.006   2.925   5.597  0.4696  0.5599 -0.1624
12701SOL    HW150162   9.053   2.844   5.562 -0.0627 -0.2164  0.8765
12701SOL    HW250163   8.937   2.955   5.531  1.8648  1.2375 -1.3435
12702SOL     OW50164   0.629   1.547   7.391  0.6792  0.4657  0.2740
12702SOL    HW150165   0.722   1.511   7.398  0.3342 -0.5188 -0.0791
12702SOL    HW250166   0.565   1.471   7.383 -0.0330  1.1702 -0.8989
12703SOL     OW50167   7.665   0.597   0.756 -0.3467  0.5955 -0.0046
12703SOL    HW150168   7.752   0.633   0.790  0.5117 -0.1667 -1.3513
12703SOL    HW250169   7.625   0.535   0.824  1.4079 -1.0209 -0.4021
12704SOL     OW50170   6.297   2.135   0.717 -0.2444  1.2653 -0.3522
12704SOL    HW150171   6.215   2.101   0.762 -0.3846 -0.8831 -2.1400
12704SOL    HW250172   6.306   2.233   0.733 -1.5981  1.0007  2.2287
12705SOL     OW50173   3.690   7.421   6.516 -0.4223  0.1828  0.0037
12705SOL    HW150174   3.618   7.460   6.458  0.1953  0.0131 -0.8949
12705SOL    HW250175   3.657   7.338   6.559 -0.9779  0.4512  0.1031
12706SOL     OW50176   5.387   1.365   8.411 -0.7564 -0.1331 -0.1740
12706SOL    HW150177   5.413   1.402   8.321 -1.6573  1.6825  0.2826
12706SOL    HW250178   5.400   1.435   8.481 -2.1007 -0.8300  0.7944
12707SOL     OW50179   0.321   0.376   9.710  0.1513 -0.0438  0.0641
12707SOL    HW150180   0.282   0.407   9.796  1.1610 -0.1686  0.5740
12707SOL    HW250181   0.277   0.291   9.682  1.4045 -1.2595  1.6616
12708SOL     OW50182   3.607   0.979   2.402 -0.0637  0.1620 -0.3822
12708SOL    HW150183   3.546   0.924   2.346 -3.6083  1.7784  1.6776
12708SOL    HW250184   3.612   0.940   2.494  0.4743  1.1172  0.0024
12709SOL     OW50185   0.023   4.689   2.105  0.0674 -0.2803  0.0965
12709SOL    HW150186   0.010   4.735   2.017 -0.2502  1.4848  1.0460
12709SOL    HW250187   0.120   4.669   2.118  0.1191 -0.5321 -0.6351
12710SOL     OW50188   2.150   5.793   2.832  0.7418  0.2166  0.0734
12710SOL    HW150189   2.170   5.696   2.842 -0.6994  0.1495  3.1542
12710SOL    HW250190   2.150   5.819   2.736  0.7920 -2.9085 -0.7985
12711SOL     OW50191   2.235   1.974   5.419 -0.4011 -0.1606  0.0841
12711SOL    HW150192   2.281   1.972   5.508 -2.7084 -1.6698  1.2907
12711SOL    HW250193   2.244   2.065   5.379  2.0857  0.0775  1.0719
12712SOL     OW50194   9.355   8.214   9.955 -0.3533 -0.1284  0.5279
12712SOL    HW150195   9.422   8.145   9.927  0.1414  0.9138 -0.9028
12712SOL    HW250196   9.265   8.188   9.919 -0.2867 -0.3455  0.5146
12713SOL     OW50197   4.246   6.120   7.544 -0.0285  0.0062  0.6010
12713SOL    HW150198   4.307   6.139   7.467  1.6246  2.5049  2.4494
12713SOL    HW250199   4.295   6.067   7.613 -0.7541 -0.1914  0.9687
12714SOL     OW50200   4.709   3.296   1.705 -0.5249 -0.3238  0.7768
12714SOL    HW150201   4.708   3.328   1.800  0.0757 -1.0892  1.0423
12714SOL    HW250202   4.656   3.212   1.697 -1.2228  0.1577  0.2790
12715SOL     OW50203   3.449   7.412   5.181  0.0910  0.4018  1.0005
12715SOL    HW150204   3.430   7.348   5.106 -0.0833  0.0176  1.3634
12715SOL    HW250205   3.525   7.472   5.156  1.2803 -0.9632  1.2422
12716SOL     OW50206   8.806   7.958   1.522  0.3359  0.2651  0.3778
12716SOL    HW150207   8.792   7.951   1.423  0.0804 -1.4110  0.5188
12716SOL    HW250208   8.903   7.943   1.543 -0.0594 -2.0657  0.6027
12717SOL     OW50209   9.399   8.846   9.016 -0.1449 -0.2332  0.2424
12717SOL    HW150210   9.471   8.777   9.020  1.2456  1.1609 -0.2766
12717SOL    HW250211   9.417   8.910   8.941 -2.2341 -0.2033 -0.2557
12718SOL     OW50212   1.063   7.559   6.095 -0.0417 -0.2688  0.3739
12718SOL    HW150213   1.029   7.562   6.001 -2.7106 -2.6176  1.1885
12718SOL    HW250214   1.098   7.468   6.115  1.5058  0.5206  1.3406
12719SOL     OW50215   2.317   6.251   4.027 -0.0884  0.2353 -0.1733
12719SOL    HW150216   2.268   6.244   4.113 -1.1144  1.4780 -0.6308
12719SOL    HW250217   2.344   6.347   4.012  2.4214 -0.4031  0.0352
12720SOL     OW50218   0.876   2.910   6.274  0.4138  0.1051  0.9283
12720SOL    HW150219   0.934   2.967   6.214  0.9150  0.2196  1.5160
12720SOL    HW250220   0.780   2.933   6.257  0.5281 -0.1141 -0.0855
12721SOL     OW50221   6.981   1.418   9.136 -0.4304  0.1487 -0.5989
12721SOL    HW150222   6.996   1.332   9.089 -0.0215  0.1783 -0.5221
12721SOL    HW250223   6.917   1.404   9.212 -0.5276 -0.0434 -0.7165
12722SOL     OW50224   3.909   5.596   8.775 -0.5113 -0.3658 -0.3191
12722SOL    HW150225   3.877   5.506   8.805 -0.0526 -0.5356 -0.3360
12722SOL    HW250226   3.953   5.587   8.685 -2.1294  0.1774 -1.1892
12723SOL     OW50227   8.464   6.176   8.873  0.8167  0.3822  0.4195
12723SOL    HW150228   8.511   6.252   8.917  1.4868 -0.5127  1.2585
12723SOL    HW250229   8.516   6.092   8.886  0.3868 -0.1162 -1.0292
12724SOL     OW50230   5.596   0.692   5.622  0.2104 -0.4202 -0.0024
12724SOL    HW150231   5.596   0.790   5.639  1.1213 -0.3000 -0.6451
12724SOL    HW250232   5.690   0.659   5.614 -0.0823 -1.4069  0.5621
12725SOL     OW50233   0.422   8.679   1.174  0.4495 -0.4307  0.1923
12725SOL    HW150234   0.479   8.599   1.154 -0.2807 -0.7368 -0.7281
12725SOL    HW250235   0.325   8.652   1.171  0.1117  0.9598 -2.4071
12726SOL     OW50236   2.617   6.541   1.231 -0.5178  0.3123 -0.2758
12726SOL    HW150237   2.631   6.453   1.276  0.1288 -0.5350 -2.0668
12726SOL    HW250238   2.694   6.602   1.250  0.8948 -0.8540 -2.0559
12727SOL     OW50239   1.071   1.514   7.664  0.8139 -0.1252  0.8626
12727SOL    HW150240   1.063   1.613   7.673 -1.0195 -0.1759 -0.1404
12727SOL    HW250241   1.105   1.475   7.750 -0.2248  1.1790  1.8737
12728SOL     OW50242   0.384   9.175   2.869 -0.2559  0.4220 -0.1007
12728SOL    HW150243   0.293   9.152   2.903 -1.2082  4.3968  0.2030
12728SOL    HW250244   0.444   9.195   2.946  0.6778 -1.2842 -0.3482
12729SOL     OW50245   0.512   4.183   3.295 -0.9303 -0.4913 -0.3289
12729SOL    HW150246   0.559   4.213   3.378 -0.0461 -1.6692 -0.3948
12729SOL    HW250247   0.468   4.094   3.312 -0.5310 -0.8605 -1.1939
12730SOL     OW50248   2.560   5.574   3.008 -0.0105  0.7019  0.4843
12730SOL    HW150249   2.654   5.566   2.975 -0.3521 -4.0608  0.3271
12730SOL    HW250250   2.560   5.585   3.107  0.7158 -1.5635  0.7586
12731SOL     OW50251   7.765   7.210   7.763 -0.1654 -0.5890 -0.0528
12731SOL    HW150252   7.782   7.181   7.669  2.2665 -1.0811  0.4832
12731SOL    HW250253   7.746   7.308   7.765 -0.0184 -0.5341 -1.0409
12732SOL     OW50254   6.253   5.168   1.624  0.0519 -0.3023 -0.4147
12732SOL    HW150255   6.345   5.131   1.634 -0.0475  0.2387  2.8776
12732SOL    HW250256   6.258   5.267   1.610 -0.0836  0.0449  1.8896
12733SOL     OW50257   6.669   0.783   5.627 -0.4129  0.3996  0.1729
12733SOL    HW150258   6.605   0.848   5.669  1.2216  1.4502  1.0624
12733SOL    HW250259   6.663   0.695   5.675 -1.7412  0.2326 -0.2604
12734SOL     OW50260   0.816   4.630   6.159 -0.3342 -0.0798  0.5524
12734SOL    HW150261   0.831   4.561   6.089  0.3020  0.2314  0.3767
12734SOL    HW250262   0.825   4.589   6.249  2.7681  0.3092  0.4794
12735SOL     OW50263   3.667   3.536   4.855 -0.1685  0.6942 -0.3413
12735SOL    HW150264   3.588   3.596   4.869 -0.1130  0.0920  2.9763
12735SOL    HW250265   3.679   3.478   4.935  2.7765 -0.2660 -1.4174
12736SOL     OW50266   0.608   4.123   4.849  0.3828 -0.0441 -0.0358
12736SOL    HW150267   0.652   4.038   4.821 -1.7060 -1.1773  0.0498
12736SOL    HW250268   0.611   4.189   4.774 -0.7622 -1.3056 -1.2092
12737SOL     OW50269   4.244   9.489   7.465  0.2202  0.0595 -0.0427
12737SOL    HW150270   4.293   9.512   7.381  0.9407  0.0236  0.3623
12737SOL    HW250271   4.234   9.389   7.470 -1.5014  0.1564 -1.0130
12738SOL     OW50272   3.739   2.982   6.199 -0.0760  0.4287  0.2981
12738SOL    HW150273   3.735   2.887   6.228 -1.9052  0.2606 -0.4703
12738SOL    HW250274   3.810   2.993   6.129  0.3623 -0.2770  0.6218
12739SOL     OW50275   1.450   7.891   6.441  0.8076 -0.3123  0.2038
12739SOL    HW150276   1.418   7.884   6.346  0.8359  0.7760  0.1014
12739SOL    HW250277   1.550   7.902   6.442  0.6742  1.0714  0.2686
12740SOL     OW50278   0.699   5.605   9.544 -0.6628 -0.3697 -0.2907
12740SOL    HW150279   0.714   5.527   9.603  1.2965  0.3272  0.1925
12740SOL    HW250280   0.650   5.677   9.594  0.7880  0.1291  0.4555
12741SOL     OW50281   3.999   2.003   7.433 -0.2618 -0.8691 -0.2035
12741SOL    HW150282   3.904   1.976   7.418 -0.8223  1.6047 -1.2393
12741SOL    HW250283   4.015   2.014   7.532 -1.4499  0.1369 -0.1156
12742SOL     OW50284   9.455   8.973   9.991  0.2087  0.2078  0.3280
12742SOL    HW150285   9.380   8.910  10.013 -0.6362  0.9089 -0.5332
12742SOL    HW250286   9.483   8.960   9.896  1.8604 -0.7411  0.9292
12743SOL     OW50287   1.769   4.105   8.884  0.4188  0.4091  0.1377
12743SOL    HW150288   1.737   4.176   8.947  0.0453  0.0342  0.3724
12743SOL    HW250289   1.865   4.122   8.860  0.1940  1.2664 -0.1859
12744SOL     OW50290   4.250   9.092   2.283 -0.1012 -0.9459  0.6374
12744SOL    HW150291   4.283   9.064   2.193  0.4125 -0.7610  0.7682
12744SOL    HW250292   4.151   9.077   2.288 -0.0769 -1.2868  0.1676
12745SOL     OW50293   6.341   8.123   6.530 -0.0761 -0.3504 -1.0728
12745SOL    HW150294   6.250   8.145   6.495 -0.1621  2.6511  0.8313
12745SOL    HW250295   6.334   8.095   6.626  0.8227 -1.9506 -1.4635
12746SOL     OW50296   0.497   5.376   6.686 -0.2969 -0.1293 -0.2639
12746SOL    HW150297   0.566   5.314   6.648  0.9662  0.9597  0.2061
12746SOL    HW250298   0.506   5.379   6.786 -1.6131 -0.6486 -0.1208
12747SOL     OW50299   2.626   4.964   6.331  0.5321  0.1482 -0.2774
12747SOL    HW150300   2.553   4.983   6.264  0.6338 -0.5892 -0.6012
12747SOL    HW250301   2.715   4.982   6.289  0.6495 -1.4009 -0.7185
12748SOL     OW50302   9.219   6.021   3.666 -0.6293  0.1527 -0.4356
12748SOL    HW150303   9.319   6.027   3.664 -0.6663  0.6417 -1.3955
12748SOL    HW250304   9.187   5.987   3.578 -1.2138 -1.8148  0.5070
12749SOL     OW50305   0.858   0.820   0.736 -0.0582  0.8742  0.0747
12749SOL    HW150306   0.879   0.899   0.794 -0.5611 -1.2015  3.1725
12749SOL    HW250307   0.767   0.833   0.695  0.6281  2.7128 -0.9286
12750SOL     OW50308   6.463   7.103   5.805  0.3007  0.2964 -0.2181
12750SOL    HW150309   6.499   7.189   5.768  1.2197 -0.2319 -0.5768
12750SOL    HW250310   6.447   7.113   5.903  2.9600  0.0619  0.2782
12751SOL     OW50311   2.137   9.977   3.389  0.3114 -0.2888 -0.0510
12751SOL    HW150312   2.081  10.004   3.467  1.0775 -1.0983  0.7884
12751SOL    HW250313   2.223  10.028   3.390  0.9633 -1.3725  0.4950
12752SOL     OW50314   8.251   0.533   7.852  0.7385 -0.0649  0.0429
12752SOL    HW150315   8.286   0.440   7.854 -0.2280 -0.4118  2.7017
12752SOL    HW250316   8.297   0.585   7.780  2.2965 -2.1837 -0.5264
12753SOL     OW50317   2.538   2.919   7.573  0.3853 -0.1177 -0.1315
12753SOL    HW150318   2.601   2.989   7.538  1.6198 -0.6440  1.0027
12753SOL    HW250319   2.561   2.830   7.534  0.3026 -0.3031  0.2393
12754SOL     OW50320   4.759   7.618   0.123  0.3069 -0.2863 -0.2479
12754SOL    HW150321   4.663   7.588   0.124  0.1366  0.2590  0.3696
12754SOL    HW250322   4.810   7.563   0.057 -0.7453  0.4054 -1.6549
12755SOL     OW50323   0.199   4.818   3.791 -0.2402  0.0619 -0.4504
12755SOL    HW150324   0.206   4.735   3.737 -0.4043  0.0146 -0.3984
12755SOL    HW250325   0.243   4.803   3.880  2.1532  0.8932 -1.4535
12756SOL     OW50326   5.939   2.197   0.977 -0.1158  0.1312 -0.3867
12756SOL    HW150327   5.879   2.157   1.047  0.8921 -0.1862  0.3067
12756SOL    HW250328   6.001   2.127   0.942 -0.6945  0.2654 -1.6944
12757SOL     OW50329   6.356   0.340   1.450  0.4889  0.0198  0.7278
12757SOL    HW150330   6.383   0.436   1.440  0.6617 -0.0543  0.4919
12757SOL    HW250331   6.386   0.288   1.370  2.4146 -0.7045  1.8891
12758SOL     OW50332   9.988   2.023   6.025 -0.0031 -0.2770  0.4587
12758SOL    HW150333  10.051   1.987   6.094  0.3301  1.2869  0.9713
12758SOL    HW250334  10.027   2.009   5.934  1.1556  0.8323  0.7837
12759SOL     OW50335   6.208   2.067   9.069 -0.0316  0.2803 -0.5316
12759SOL    HW150336   6.300   2.104   9.083 -0.2517  1.0570 -1.0857
12759SOL    HW250337   6.142   2.124   9.117 -0.2026 -0.3902  0.0251
12760SOL     OW50338   8.382   2.294   2.622  0.5822 -0.0533 -0.4140
12760SOL    HW150339   8.400   2.263   2.529  1.5863  1.6078 -0.7894
12760SOL    HW250340   8.468   2.316   2.668  0.3334 -3.3849  1.8630
12761SOL     OW50341   6.343   3.838   8.564 -0.4947 -0.2922  0.1639
12761SOL    HW150342   6.398   3.909   8.608 -1.4073 -0.4602  1.6073
12761SOL    HW250343   6.264   3.880   8.518 -0.2941 -0.2434 -0.1338
12762SOL     OW50344   3.962   2.840   0.854 -0.2680  0.2869 -0.3130
12762SOL    HW150345   4.000   2.910   0.793  1.8135  0.5731  1.2564
12762SOL    HW250346   3.863   2.855   0.864 -0.4487  0.8832 -2.7143
12763SOL     OW50347   2.654   8.505   2.493  0.2746 -0.2002 -0.4121
12763SOL    HW150348   2.681   8.590   2.537 -0.0835  0.1423 -0.8531
12763SOL    HW250349   2.558   8.510   2.465  0.1303 -0.9126 -0.0496
12764SOL     OW50350   8.367   7.262   9.301  0.0870  0.7398  0.0141
12764SOL    HW150351   8.293   7.292   9.242 -0.5660 -0.4348  0.2026
12764SOL    HW250352   8.374   7.162   9.297  1.0772  0.7711  0.6868
12765SOL     OW50353   6.932   4.469   0.630 -0.2231 -0.5300 -0.2018
12765SOL    HW150354   6.941   4.542   0.698  0.2892  0.0118 -0.8421
12765SOL    HW250355   6.853   4.487   0.571 -0.2826 -0.6572 -0.1610
12766SOL     OW50356   8.672   9.083   6.479  0.4470  0.4591 -0.0787
12766SOL    HW150357   8.746   9.150   6.474 -0.4975  1.5882  0.6398
12766SOL    HW250358   8.636   9.081   6.573 -1.9081  1.5595 -0.9423
12767SOL     OW50359   2.999   7.990   0.785  0.0429 -0.7798  0.2971
12767SOL    HW150360   3.096   7.986   0.809  0.6655  0.1465 -2.0075
12767SOL    HW250361   2.957   8.068   0.831  0.7049 -0.3642  0.2046
12768SOL     OW50362   6.770   8.842   7.646 -0.6716 -0.0555  0.4916
12768SOL    HW150363   6.760   8.903   7.567 -1.2632 -2.5028 -1.4078
12768SOL    HW250364   6.698   8.862   7.713 -0.3865  1.8074  0.2717
12769SOL     OW50365   0.797   8.573   4.105  0.2850  0.1900 -0.2762
12769SOL    HW150366   0.878   8.576   4.163 -0.6501  0.3834  1.0434
12769SOL    HW250367   0.715   8.565   4.162 -0.8717  3.2126 -1.3977
12770SOL     OW50368   8.913   3.508   6.898 -0.0405  0.1943  0.1762
12770SOL    HW150369   9.000   3.516   6.849 -0.6695  0.7519 -0.8588
12770SOL    HW250370   8.930   3.512   6.997  1.1559 -0.2057 -0.0084
12771SOL     OW50371   1.361   3.519   6.449  0.5007 -0.4484 -0.1040
12771SOL    HW150372   1.309   3.545   6.530  1.6347 -0.0087  0.4911
12771SOL    HW250373   1.388   3.423   6.456  2.8043  0.2666  1.2727
12772SOL     OW50374   9.548   8.053   8.796 -0.5616  0.4373  0.0392
12772SOL    HW150375   9.539   7.956   8.769 -0.0717  0.3991  0.0206
12772SOL    HW250376   9.513   8.065   8.888  1.4141 -0.1751  0.8944
12773SOL     OW50377   4.976   7.902   6.681  0.2420 -0.4473 -0.2163
12773SOL    HW150378   4.973   7.981   6.742 -1.2889  0.6805 -1.7055
12773SOL    HW250379   5.045   7.837   6.713  0.1623  0.5917  2.1104
12774SOL     OW50380   2.463   2.291   6.197  0.6526  0.2579 -0.1535
12774SOL    HW150381   2.530   2.269   6.126 -1.0165 -1.0325 -1.3957
12774SOL    HW250382   2.389   2.224   6.194  0.7182 -0.0107  3.0782
12775SOL     OW50383   8.080   5.759   8.316  0.3060  0.2111 -0.1656
12775SOL    HW150384   8.091   5.688   8.386 -4.1683  0.7796  1.2412
12775SOL    HW250385   8.067   5.715   8.226  0.9434 -0.6432  0.1481
12776SOL     OW50386   8.217   1.434   9.150  0.3310 -0.2144  0.0784
12776SOL    HW150387   8.283   1.427   9.075 -0.9658  0.2182 -1.1371
12776SOL    HW250388   8.178   1.526   9.152  0.6696 -0.0918  1.5743
12777SOL     OW50389   4.922   4.349   0.859 -0.6274  0.3144 -0.2810
12777SOL    HW150390   5.004   4.311   0.817 -0.6599 -0.2941  0.2135
12777SOL    HW250391   4.948   4.420   0.924 -0.5022  0.2238 -0.2328
12778SOL     OW50392   6.152   2.370   0.195 -0.0491  0.1420 -0.3040
12778SOL    HW150393   6.211   2.333   0.267 -1.5417 -0.9374  0.3980
12778SOL    HW250394   6.074   2.416   0.236 -1.2087 -0.9645 -1.2056
12779SOL     OW50395   5.810   4.730   1.647 -0.5608  0.8975  0.6815
12779SOL    HW150396   5.815   4.638   1.684  0.2313  1.0365  0.9280
12779SOL    HW250397   5.832   4.796   1.719  2.5451  1.1042 -0.3823
12780SOL     OW50398   2.112   3.514   7.906  0.4324 -0.0649  0.1408
12780SOL    HW150399   2.090   3.421   7.934 -1.0902  0.6681  1.5150
12780SOL    HW250400   2.027   3.565   7.892  1.2427  1.0093 -1.0166
12781SOL     OW50401   5.323   9.969   8.571 -0.4518  0.0359 -0.4123
12781SOL    HW150402   5.237  10.016   8.550 -1.3906 -2.0606 -1.3635
12781SOL    HW250403   5.376   9.958   8.487 -0.6038 -1.3167 -0.3366
12782SOL     OW50404   6.861   5.229   9.078  0.8066  0.8470  0.0068
12782SOL    HW150405   6.901   5.224   9.170 -1.9636  0.0642  1.2347
12782SOL    HW250406   6.906   5.302   9.026  3.0084  0.7388  1.6620
12783SOL     OW50407   6.503   0.498   1.845 -0.0766  0.0032 -0.3659
12783SOL    HW150408   6.521   0.475   1.940  0.4161  0.0234 -0.4508
12783SOL    HW250409   6.544   0.587   1.824 -0.6087  0.2243 -0.4637
12784SOL     OW50410   8.001   0.134   4.423  0.2211 -0.1560 -0.2803
12784SOL    HW150411   7.943   0.124   4.503 -1.0190  0.0337 -1.1411
12784SOL    HW250412   8.038   0.045   4.397  1.4564 -0.0645  1.0960
12785SOL     OW50413   9.504   6.451   4.634 -0.6586  0.5639 -0.1355
12785SOL    HW150414   9.495   6.540   4.680 -0.4513  0.5835 -0.1301
12785SOL    HW250415   9.418   6.429   4.588 -0.4250  1.1784 -0.8806
12786SOL     OW50416   3.924   3.876   1.580  0.1644  0.5330  0.5564
12786SOL    HW150417   3.843   3.892   1.636  0.3810  0.8965  0.7639
12786SOL    HW250418   4.004   3.867   1.639  0.3984  0.9559  0.3023
12787SOL     OW50419   5.315   1.394   3.735 -0.7747 -0.2185  0.2280
12787SOL    HW150420   5.281   1.486   3.714 -1.2952 -0.9923 -2.5018
12787SOL    HW250421   5.288   1.369   3.828 -0.4411  2.4484  1.0964
12788SOL     OW50422   8.098   2.783   0.840  0.8587  0.4341  0.2149
12788SOL    HW150423   8.150   2.866   0.817  1.1454 -0.1100 -1.1311
12788SOL    HW250424   8.065   2.740   0.757  1.2396 -1.1601  0.8690
12789SOL     OW50425   4.631   3.586   2.532 -0.6318 -0.2694 -0.9823
12789SOL    HW150426   4.606   3.642   2.452  0.7627  0.5022 -0.8872
12789SOL    HW250427   4.720   3.615   2.566 -1.9675  0.5957  1.9238
12790SOL     OW50428   7.614   2.876   4.747  0.0683  0.4931  0.0784
12790SOL    HW150429   7.706   2.908   4.724 -0.3496  0.8208 -1.1746
12790SOL    HW250430   7.547   2.931   4.698 -0.7662 -0.3262  0.2928
12791SOL     OW50431   9.031   3.749   2.590 -0.1082  0.0889 -0.1731
12791SOL    HW150432   9.065   3.714   2.678  1.1248 -0.0362 -0.6791
12791SOL    HW250433   8.932   3.742   2.587 -0.1875  0.4357  1.3570
12792SOL     OW50434   2.988   3.231   9.652  0.2539 -0.3563  0.0924
12792SOL    HW150435   3.037   3.283   9.582  1.4828 -0.1525  1.1019
12792SOL    HW250436   3.047   3.159   9.689 -0.0839  0.0822  1.5212
12793SOL     OW50437   1.215   9.736   2.783  0.1256  0.5679  0.1052
12793SOL    HW150438   1.256   9.678   2.713 -0.1526 -0.6086  0.9042
12793SOL    HW250439   1.117   9.717   2.789  0.0320  1.1170  0.3873
12794SOL     OW50440   5.277   1.629   5.903  0.3971 -0.5629 -0.5335
12794SOL    HW150441   5.331   1.600   5.982  0.3475  2.1995  0.5608
12794SOL    HW250442   5.187   1.587   5.907  0.8059 -1.3785  0.2201
12795SOL     OW50443   3.728   6.919   7.431  0.2630 -0.8590 -0.7260
12795SOL    HW150444   3.802   6.890   7.493 -0.0112 -0.7468 -0.3467
12795SOL    HW250445   3.642   6.877   7.460 -0.3166  1.0206  0.3729
12796SOL     OW50446   4.016   9.385   9.912 -0.5307 -0.3340 -0.2150
12796SOL    HW150447   4.000   9.357  10.007  1.9397 -1.9674 -0.2236
12796SOL    HW250448   4.100   9.440   9.908 -1.1980  0.6121 -1.3095
12797SOL     OW50449   4.372   5.597   2.828 -0.5429  0.1260  0.4793
12797SOL    HW150450   4.331   5.594   2.919  0.6037  0.8168  1.0296
12797SOL    HW250451   4.467   5.626   2.836  0.2109 -1.9983 -0.7276
12798SOL     OW50452   9.469   5.629   2.988  0.5026  0.9379  0.0883
12798SOL    HW150453   9.435   5.540   3.017  2.7127  0.3068  0.8026
12798SOL    HW250454   9.527   5.617   2.907 -1.7818  2.1265 -1.7800
12799SOL     OW50455   3.726   4.326   0.461  0.3793 -0.2194  0.4306
12799SOL    HW150456   3.696   4.356   0.551  0.7768  0.5392  0.3161
12799SOL    HW250457   3.825   4.310   0.462  0.2612 -0.9962  0.3421
12800SOL     OW50458   4.607   7.351   4.749 -0.0557  0.5778 -0.6745
12800SOL    HW150459   4.629   7.397   4.835 -1.3299  0.3534 -0.2230
12800SOL    HW250460   4.508   7.348   4.737  0.0860 -0.2104 -1.7099
12801SOL     OW50461   8.409   7.925   2.076  0.0960  0.4636 -0.2535
12801SOL    HW150462   8.454   7.998   2.126 -1.8010  2.3121 -1.1379
12801SOL    HW250463   8.322   7.903   2.120 -0.1905  0.0302 -1.0190
12802SOL     OW50464   9.289   4.901   4.418  0.1151 -0.2807 -0.3904
12802SOL    HW150465   9.351   4.826   4.396 -0.0217 -0.3782 -0.4500
12802SOL    HW250466   9.291   4.919   4.516  1.0677  0.4540 -0.5361
12803SOL     OW50467   3.721   6.802   9.328 -0.5766  0.6987  0.0809
12803SOL    HW150468   3.768   6.866   9.268  0.0652  1.8482  1.7797
12803SOL    HW250469   3.776   6.719   9.337 -0.4228  0.7346 -0.4868
12804SOL     OW50470   1.212   4.332   7.375  0.0355  0.7110 -0.2983
12804SOL    HW150471   1.145   4.309   7.447  1.0655  0.2078  0.5080
12804SOL    HW250472   1.163   4.363   7.294 -1.2165 -0.1890  0.0860
12805SOL     OW50473   6.425   3.685   8.880  0.4080 -0.2406 -0.0626
12805SOL    HW150474   6.387   3.689   8.787  0.7014  1.5303 -0.1195
12805SOL    HW250475   6.403   3.596   8.920 -2.2515  0.0308 -0.7676
12806SOL     OW50476   8.518   3.730   4.519  0.2852 -0.0516 -0.4033
12806SOL    HW150477   8.436   3.785   4.540  0.1943 -0.0947 -0.6397
12806SOL    HW250478   8.534   3.733   4.420  1.5912  1.4031 -0.1681
12807SOL     OW50479   8.777   7.784   0.156 -0.3684 -0.1085  0.1436
12807SOL    HW150480   8.818   7.706   0.203 -1.9290 -2.0272 -1.5926
12807SOL    HW250481   8.794   7.777   0.058  0.0573  2.1239  0.0172
12808SOL     OW50482   1.104   8.252   8.191 -0.0533  0.2604 -0.5285
12808SOL    HW150483   1.072   8.346   8.180  0.3381  0.7419  2.0251
12808SOL    HW250484   1.128   8.236   8.287 -0.4385 -2.5581 -0.8440
12809SOL     OW50485   8.422   6.405   2.917 -0.3674  0.2364 -0.1759
12809SOL    HW150486   8.481   6.385   2.995  0.2922 -0.2138 -0.7869
12809SOL    HW250487   8.353   6.473   2.944 -0.5745 -0.4230  0.9837
12810SOL     OW50488   3.692   6.040   4.944 -0.7489  0.0501  0.6519
12810SOL    HW150489   3.666   6.101   4.870 -1.2405 -0.3826  0.4657
12810SOL    HW250490   3.768   5.982   4.915 -0.3417  0.5116  0.7987
12811SOL     OW50491   4.535   2.276   6.429  0.0481 -0.0846  0.2714
12811SOL    HW150492   4.574   2.185   6.443  0.6037 -0.0631 -1.0553
12811SOL    HW250493   4.444   2.268   6.390 -1.5978 -0.1500  3.9715
12812SOL     OW50494   4.998   8.299   4.916  0.1347 -0.3264  0.2180
12812SOL    HW150495   4.955   8.228   4.860  0.0347  0.7987 -1.1810
12812SOL    HW250496   5.013   8.381   4.860 -3.6592  2.3234  2.8326
12813SOL     OW50497   5.008   1.593   5.567 -0.1196  0.4212  0.2921
12813SOL    HW150498   4.977   1.508   5.609  0.2644  0.8474  1.4396
12813SOL    HW250499   5.021   1.579   5.469  1.2664 -1.2118  0.6951
12814SOL     OW50500   9.981   3.397   4.254  0.0044 -0.0129  0.0615
12814SOL    HW150501   9.942   3.319   4.205  0.1452  0.3828 -0.6743
12814SOL    HW250502  10.018   3.463   4.189 -0.9004  1.0945  0.6629
12815SOL     OW50503   8.118   6.217   1.894  0.0820  0.0754 -1.1072
12815SOL    HW150504   8.160   6.128   1.878  0.7331  0.3142 -0.7299
12815SOL    HW250505   8.133   6.275   1.814  1.1111  0.4063 -0.6808
12816SOL     OW50506   1.661   3.548   1.712 -0.0911  0.2642  0.3182
12816SOL    HW150507   1.614   3.496   1.641 -1.9177 -0.0341  1.6997
12816SOL    HW250508   1.751   3.507   1.729 -1.1253 -1.9241  0.7227
12817SOL     OW50509   6.346   2.264   8.711 -0.0675  0.0364  0.1894
12817SOL    HW150510   6.407   2.272   8.790  1.1184  1.1321 -0.8308
12817SOL    HW250511   6.277   2.337   8.715 -0.5513 -0.4426  0.6725
12818SOL     OW50512   3.552   8.521   4.579 -0.0680  0.8173  0.5113
12818SOL    HW150513   3.561   8.569   4.491 -2.7401 -0.5769 -0.5618
12818SOL    HW250514   3.619   8.447   4.583 -1.2530 -0.3843 -1.2318
12819SOL     OW50515   8.150   3.121   5.889 -0.7726  0.5563 -0.1582
12819SOL    HW150516   8.142   3.175   5.806 -1.2736  1.1990  0.3065
12819SOL    HW250517   8.225   3.157   5.945  0.4519 -0.7040 -0.9397
12820SOL     OW50518   2.586   7.157   6.836 -0.6652 -0.3636 -0.0423
12820SOL    HW150519   2.501   7.135   6.788 -0.3074 -2.2859  0.1598
12820SOL    HW250520   2.566   7.173   6.933 -0.5438 -2.9244  0.4322
12821SOL     OW50521   5.446   0.629   8.075  0.2496 -0.5968 -0.1679
12821SOL    HW150522   5.351   0.660   8.071  0.1111 -0.9733  0.1150
12821SOL    HW250523   5.481   0.641   8.168  1.2373  1.7245 -0.8079
12822SOL     OW50524   7.053   9.388   6.966  0.1622 -0.1116  0.7334
12822SOL    HW150525   7.100   9.347   7.044 -0.1537 -0.0650  0.9481
12822SOL    HW250526   6.982   9.450   6.998  0.3571  0.2803  0.4052
12823SOL     OW50527   8.371   1.291   0.437 -0.1371 -0.7279  0.2208
12823SOL    HW150528   8.443   1.260   0.374  0.9239  0.4992  0.7803
12823SOL    HW250529   8.414   1.330   0.519 -1.4693 -0.5658  0.8496
12824SOL     OW50530   1.533   0.501   0.838 -0.3340 -0.1839  1.5536
12824SOL    HW150531   1.524   0.470   0.743 -0.8162  1.7631  0.9479
12824SOL    HW250532   1.576   0.591   0.840 -1.3400  0.2784  3.1180
12825SOL     OW50533   2.662   1.727   1.406  0.2625 -0.5062 -0.2616
12825SOL    HW150534   2.682   1.641   1.454  0.4749  0.5683  1.6240
12825SOL    HW250535   2.734   1.794   1.427 -0.0778  0.2485 -1.4584
12826SOL     OW50536   9.716   5.166   4.304  0.1678  0.8981  0.1245
12826SOL    HW150537   9.738   5.069   4.296  0.0538  0.6300  2.5104
12826SOL    HW250538   9.618   5.180   4.294  0.3732  0.9844 -1.8487
12827SOL     OW50539   5.596   0.999   6.653 -0.6595  0.1385  0.2865
12827SOL    HW150540   5.674   1.024   6.595  0.3607 -2.3178  0.5372
12827SOL    HW250541   5.621   1.013   6.749 -0.7715  0.0103  0.3338
12828SOL     OW50542   1.042   8.868   4.816 -0.0929  0.2361  0.5193
12828SOL    HW150543   1.014   8.910   4.902 -0.9765 -0.5630  0.6228
12828SOL    HW250544   0.995   8.913   4.740  1.5012  1.6658  0.3503
12829SOL     OW50545   2.951   8.989   8.213 -0.3386  0.5849  0.2066
12829SOL    HW150546   2.958   8.940   8.127 -1.2183  1.3109 -0.2896
12829SOL    HW250547   2.858   9.025   8.224 -0.4098 -0.0150  1.7404
12830SOL     OW50548   2.480   7.501   9.915 -0.0881 -0.5974 -0.1482
12830SOL    HW150549   2.489   7.475  10.011  0.7394 -0.3721 -0.1646
12830SOL    HW250550   2.508   7.596   9.903 -3.2437  0.4156 -0.0673
12831SOL     OW50551   4.295   3.376   5.519 -0.1080 -0.4824  0.1735
12831SOL    HW150552   4.371   3.360   5.455 -0.3619  0.6041 -0.4180
12831SOL    HW250553   4.215   3.408   5.468  0.1464  1.9057  1.1808
12832SOL     OW50554   3.121   6.755   3.932 -0.1385  0.6103  0.3314
12832SOL    HW150555   3.205   6.737   3.983 -0.8433 -2.1680  0.5852
12832SOL    HW250556   3.049   6.785   3.996  0.0735  0.9748  0.4017
12833SOL     OW50557   0.971   9.697   9.769 -0.6700  0.1097 -0.1249
12833SOL    HW150558   0.990   9.736   9.679  0.6625  0.2308  0.1884
12833SOL    HW250559   0.962   9.771   9.837 -0.8763 -0.0127 -0.0195
12834SOL     OW50560   0.757   5.201   0.017 -0.4094  0.0416  0.5191
12834SOL    HW150561   0.775   5.156  -0.071 -0.9222  0.6250  0.1104
12834SOL    HW250562   0.761   5.300   0.005 -0.5803  0.1265  1.1399
12835SOL     OW50563   2.076   3.086   3.790  0.2102  0.0938 -0.4297
12835SOL    HW150564   2.130   3.091   3.706 -2.7629  0.0339 -2.4269
12835SOL    HW250565   2.073   3.177   3.832  1.0284  0.3231 -0.8496
12836SOL     OW50566   8.992   1.189   2.122 -0.4089 -0.3700  0.0849
12836SOL    HW150567   9.073   1.165   2.070 -0.8411 -0.8061 -0.3947
12836SOL    HW250568   8.985   1.131   2.203  0.4833  0.5814  0.8608
12837SOL     OW50569   5.558   1.178   4.639 -0.3949  0.1922  0.1242
12837SOL    HW150570   5.604   1.192   4.727 -0.6586  3.5374 -0.1903
12837SOL    HW250571   5.627   1.168   4.567 -0.1702 -3.0826  0.7021
12838SOL     OW50572   2.923   3.178   8.978  0.2912 -0.3208 -0.4354
12838SOL    HW150573   2.941   3.108   9.047 -0.7401 -1.7957 -1.6209
12838SOL    HW250574   2.832   3.163   8.938  1.6059 -0.6611 -3.4504
12839SOL     OW50575   2.044   0.257   5.183  0.0213 -0.4310 -0.8719
12839SOL    HW150576   2.065   0.191   5.111 -0.5970 -0.1629 -1.2998
12839SOL    HW250577   1.950   0.244   5.215  0.2525 -0.4672 -0.2006
12840SOL     OW50578   0.509   9.442   6.884 -0.4463 -0.0389 -0.4087
12840SOL    HW150579   0.542   9.397   6.801 -0.5044 -1.1318  0.1563
12840SOL    HW250580   0.557   9.529   6.895  0.4499 -0.4486 -0.9336
12841SOL     OW50581   4.255   0.317   4.102  0.0731 -0.0337  0.2114
12841SOL    HW150582   4.263   0.225   4.062 -0.9442  0.1354 -0.3866
12841SOL    HW250583   4.168   0.324   4.150  1.6614 -0.5496  3.2971
12842SOL     OW50584   9.063   3.655   8.164 -0.2811 -0.5043  0.4178
12842SOL    HW150585   9.109   3.715   8.229 -1.3182  0.4004  0.3399
12842SOL    HW250586   8.978   3.622   8.204 -0.8675 -0.0348 -0.4191
12843SOL     OW50587   1.272   8.519   6.082  0.3892 -0.1904 -0.1862
12843SOL    HW150588   1.213   8.453   6.129  1.1319 -1.1088 -0.5123
12843SOL    HW250589   1.329   8.470   6.016  1.0575  0.7730 -0.3263
12844SOL     OW50590   7.096   1.172   7.051  0.2022 -0.5125 -0.0958
12844SOL    HW150591   7.143   1.237   7.111 -0.8184  0.0663  0.0783
12844SOL    HW250592   7.123   1.189   6.956  0.6535 -0.4478  0.0418
12845SOL     OW50593   0.628   7.576   6.675 -0.2735  0.3754  0.6557
12845SOL    HW150594   0.534   7.604   6.654 -0.0854 -0.4756 -1.4575
12845SOL    HW250595   0.672   7.647   6.730 -1.6640  1.5060  0.3411
12846SOL     OW50596   6.672   0.495   4.849  0.4925  0.1952 -0.1598
12846SOL    HW150597   6.693   0.412   4.900  0.1449 -0.4843 -1.1052
12846SOL    HW250598   6.750   0.557   4.852  1.4091 -0.9132 -0.9290
12847SOL     OW50599   3.965   2.011   3.650  0.1122 -0.2840 -0.0680
12847SOL    HW150600   3.927   1.955   3.576  1.2506 -1.2392  0.0464
12847SOL    HW250601   4.003   1.950   3.720  0.5710  0.6415  0.4876
12848SOL     OW50602   4.028   4.978   8.384  0.2731  0.2327  0.3712
12848SOL    HW150603   4.014   4.960   8.287  1.1482  0.9036  0.1121
12848SOL    HW250604   3.966   4.921   8.438  0.0481 -0.4184 -0.5632
12849SOL     OW50605   1.823   4.524   0.093 -0.6151  0.0341 -0.3154
12849SOL    HW150606   1.734   4.479   0.101 -1.3055  1.2082 -1.2305
12849SOL    HW250607   1.878   4.503   0.174 -2.4143  0.8234  1.1541
12850SOL     OW50608   3.151   4.859   0.139  0.6348  0.3774  0.1132
12850SOL    HW150609   3.155   4.819   0.048 -0.2746 -1.0816  0.6885
12850SOL    HW250610   3.213   4.937   0.144  0.1332  0.9400 -1.9670
12851SOL     OW50611   8.318   1.275   0.868  0.0989 -0.5402 -0.2755
12851SOL    HW150612   8.367   1.213   0.930 -0.1918  0.5694  1.1006
12851SOL    HW250613   8.368   1.282   0.782  1.4542 -0.7578  0.4679
12852SOL     OW50614   1.606   5.304   1.068  0.0749 -0.1217  0.3093
12852SOL    HW150615   1.587   5.231   1.003  1.0217 -1.9643  2.0527
12852SOL    HW250616   1.521   5.334   1.110 -0.1114 -1.6823  1.0858
12853SOL     OW50617   0.650   8.777   4.335 -0.0314 -0.6164  0.8814
12853SOL    HW150618   0.587   8.701   4.352 -0.5571 -1.4106 -3.8818
12853SOL    HW250619   0.603   8.847   4.281  1.6248  1.3050  1.8812
12854SOL     OW50620   2.235   9.090   5.292 -0.3455 -0.0560 -0.2253
12854SOL    HW150621   2.281   9.054   5.211  1.0459 -0.5460  0.7691
12854SOL    HW250622   2.223   9.017   5.359 -2.7406  0.0189 -0.5219
12855SOL     OW50623   3.545   7.865   5.971  0.1427 -0.3546  0.8374
12855SOL    HW150624   3.536   7.909   5.881 -0.8924 -0.8414  0.7049
12855SOL    HW250625   3.640   7.872   6.001 -0.0440  2.2848  0.9633
12856SOL     OW50626   8.644   1.200   4.641  0.1363  0.5659  0.4033
12856SOL    HW150627   8.663   1.295   4.665 -0.7909  0.7789  0.3247
12856SOL    HW250628   8.545   1.187   4.632  0.1990 -0.6222  1.3086
12857SOL     OW50629   4.283   1.181   0.943  0.1388 -0.1722  0.0644
12857SOL    HW150630   4.263   1.176   0.845  1.5945 -1.7344 -0.1724
12857SOL    HW250631   4.198   1.189   0.995 -0.5558  3.5464 -1.4542
12858SOL     OW50632   1.760   6.883   7.068 -0.5878 -0.6005  1.0942
12858SOL    HW150633   1.688   6.919   7.009  0.1264 -2.1674 -0.8045
12858SOL    HW250634   1.812   6.958   7.109 -1.2444  0.5219 -0.1134
12859SOL     OW50635   9.173   6.333   7.017 -0.4545  0.2790 -0.1313
12859SOL    HW150636   9.122   6.371   7.094  0.4237 -0.1075  0.6437
12859SOL    HW250637   9.233   6.260   7.049 -0.4939 -0.2772 -1.2671
12860SOL     OW50638   1.000   8.283   7.873 -0.3302  0.2781 -0.5311
12860SOL    HW150639   0.913   8.299   7.919 -0.3944  1.2348 -0.9612
12860SOL    HW250640   0.985   8.277   7.774  0.2469  1.7620 -0.7187
12861SOL     OW50641   8.252   4.885   9.889  0.1933 -0.1059  0.1465
12861SOL    HW150642   8.175   4.845   9.938 -0.1541  0.7748  0.3351
12861SOL    HW250643   8.289   4.962   9.942 -0.3282  0.9953 -1.0806
12862SOL     OW50644   1.453   7.510   9.595  0.1222 -0.5037  0.2497
12862SOL    HW150645   1.445   7.609   9.589 -0.1486 -0.3699  2.4940
12862SOL    HW250646   1.450   7.471   9.503  0.1902  1.5487 -0.6518
12863SOL     OW50647   7.298   7.009   5.637 -0.5302 -0.3115 -0.5340
12863SOL    HW150648   7.239   6.997   5.558  0.0082  1.8829 -1.3086
12863SOL    HW250649   7.243   7.038   5.716 -0.9089 -1.3991 -0.3912
12864SOL     OW50650   8.559   0.516   5.692 -0.7704  0.4501 -0.7048
12864SOL    HW150651   8.479   0.527   5.751 -1.0536  0.7167 -1.1384
12864SOL    HW250652   8.550   0.431   5.639  0.7079 -1.1832  1.5378
12865SOL     OW50653   8.539   7.791   5.163 -0.4350 -0.7234 -0.2624
12865SOL    HW150654   8.549   7.791   5.263  0.2257 -2.6452 -0.3023
12865SOL    HW250655   8.626   7.767   5.121 -0.6981  0.1309 -1.3240
12866SOL     OW50656   4.423   2.075   6.869  0.4949 -0.2457 -0.0187
12866SOL    HW150657   4.517   2.044   6.884  0.3508 -0.6396  0.0469
12866SOL    HW250658   4.423   2.175   6.863  0.8341 -0.2066  0.5631
12867SOL     OW50659   8.408   9.223   6.886  0.4023 -0.4205  0.1015
12867SOL    HW150660   8.488   9.166   6.900  1.4652  1.3993  1.6602
12867SOL    HW250661   8.415   9.305   6.943 -2.5955 -0.2715  0.3403
12868SOL     OW50662   8.834   4.254   7.803  0.0029 -0.3985 -0.4838
12868SOL    HW150663   8.751   4.201   7.788 -0.4106  0.6046 -1.7775
12868SOL    HW250664   8.871   4.285   7.715  0.2978  1.3750  0.2442
12869SOL     OW50665   4.645   6.173   8.922 -0.3544 -0.1646  0.0877
12869SOL    HW150666   4.604   6.082   8.924 -1.8121  0.4587 -0.5983
12869SOL    HW250667   4.693   6.186   8.835 -1.3675  0.2358 -0.4167
12870SOL     OW50668   6.564   4.277   0.897 -0.0531 -0.4466 -0.7325
12870SOL    HW150669   6.638   4.306   0.959  0.6833 -2.1907 -0.7777
12870SOL    HW250670   6.506   4.356   0.876 -0.2332  0.2179  2.0690
12871SOL     OW50671   9.778   6.421   3.622 -0.3181 -0.3397  0.1453
12871SOL    HW150672   9.866   6.383   3.592 -1.2862 -1.2073 -1.7075
12871SOL    HW250673   9.772   6.517   3.597 -1.3969 -1.2139 -3.3121
12872SOL     OW50674   4.450   2.871   1.373 -0.7275  0.4159 -0.0510
12872SOL    HW150675   4.477   2.967   1.369  0.3157  0.1625  0.8295
12872SOL    HW250676   4.429   2.838   1.280  2.3266  0.5324 -0.8144
12873SOL     OW50677   4.998   4.672   9.555 -0.3411  0.1539 -0.5003
12873SOL    HW150678   5.090   4.708   9.535  0.2537  0.3039  2.2639
12873SOL    HW250679   4.949   4.737   9.612 -1.3576 -0.9159 -0.1492
12874SOL     OW50680   0.111   7.632   7.578 -0.0353 -0.3013 -0.2467
12874SOL    HW150681   0.050   7.634   7.498  0.0955 -0.9632 -0.3685
12874SOL    HW250682   0.172   7.552   7.571 -0.1954 -0.5001  0.6455
12875SOL     OW50683   1.748   4.865   9.215  0.1961  0.5832  0.1663
12875SOL    HW150684   1.825   4.879   9.154  0.7977 -1.5316  0.4046
12875SOL    HW250685   1.673   4.821   9.166  0.1025  0.2763  0.5787
12876SOL     OW50686   7.092   1.591   8.975 -0.8532  0.3069 -0.0730
12876SOL    HW150687   7.053   1.551   9.058  0.1717 -2.2203 -0.7483
12876SOL    HW250688   7.192   1.584   8.978 -0.8083 -0.0372 -1.6051
12877SOL     OW50689   1.803   0.549   5.657  0.1791 -0.0280  0.1268
12877SOL    HW150690   1.715   0.509   5.684  0.0458  0.6286  0.6845
12877SOL    HW250691   1.804   0.566   5.559 -0.4872  0.3977  0.1953
12878SOL     OW50692   9.043   5.084   4.807 -0.4676  0.2113  0.4004
12878SOL    HW150693   9.108   5.160   4.810  0.3748 -0.5052  0.6573
12878SOL    HW250694   9.001   5.072   4.896  0.3779 -0.4494  0.7185
12879SOL     OW50695   3.439   3.963   0.348  0.2927 -0.1760 -0.0191
12879SOL    HW150696   3.475   3.923   0.264 -2.4462 -0.0550 -1.2832
12879SOL    HW250697   3.450   3.897   0.423  0.3744 -1.3136 -1.0122
12880SOL     OW50698   3.622   9.996   8.248  0.4571  0.3273  0.0705
12880SOL    HW150699   3.571   9.919   8.287  0.1435  1.4147  1.8762
12880SOL    HW250700   3.631   9.983   8.149 -2.0757 -0.6162 -0.0788
12881SOL     OW50701   8.224   5.064   5.638 -0.3582 -0.0096  0.0378
12881SOL    HW150702   8.186   4.975   5.664  0.6403 -0.2807  0.5664
12881SOL    HW250703   8.202   5.132   5.709 -0.8316  0.0939 -0.2054
12882SOL     OW50704   8.566   8.256   3.884 -0.0397  0.5725 -0.0665
12882SOL    HW150705   8.623   8.203   3.947 -0.5154  0.3350  0.1732
12882SOL    HW250706   8.554   8.205   3.799 -1.0428 -0.0269  0.4110
12883SOL     OW50707   7.692   2.245   9.435 -0.2513 -0.5233 -0.6638
12883SOL    HW150708   7.686   2.261   9.533 -1.7650  0.5219 -0.8966
12883SOL    HW250709   7.755   2.170   9.417  0.9114  0.0212  1.0254
12884SOL     OW50710   9.038   8.092   0.141  0.3251 -0.2435 -1.0227
12884SOL    HW150711   8.965   8.051   0.196 -0.2968  0.4518 -1.3110
12884SOL    HW250712   9.002   8.117   0.051  0.8963  0.1861 -1.1381
12885SOL     OW50713   9.242   8.643   7.269  0.0300 -0.2878 -0.0814
12885SOL    HW150714   9.304   8.699   7.215 -0.2548  0.0309 -0.0785
12885SOL    HW250715   9.219   8.559   7.219  1.1622 -0.8258  0.2912
12886SOL     OW50716   0.618   2.528   4.527 -0.3107  0.0399 -1.1552
12886SOL    HW150717   0.678   2.603   4.555  0.9151 -1.2893 -0.1446
12886SOL    HW250718   0.553   2.509   4.600 -1.0071  0.4884 -1.6490
12887SOL     OW50719   2.970   2.607   4.578 -0.0430  0.2829 -0.0528
12887SOL    HW150720   3.013   2.656   4.653  0.0327 -0.5347  0.4383
12887SOL    HW250721   2.891   2.557   4.612  1.3742 -2.0010 -0.0633
12888SOL     OW50722   4.781   5.937   0.432  0.5226 -0.3174  0.6297
12888SOL    HW150723   4.834   5.906   0.511 -0.8897 -0.8307  1.3930
12888SOL    HW250724   4.793   5.871   0.357  2.8182  0.7876 -0.0271
12889SOL     OW50725   0.792   3.918   4.224  0.1195  0.0487 -0.3300
12889SOL    HW150726   0.705   3.956   4.257  2.2217  3.4643  1.6832
12889SOL    HW250727   0.846   3.887   4.302  0.6477 -2.2651 -1.5822
12890SOL     OW50728   3.267   8.966   0.033 -0.1240 -0.1684 -0.3096
12890SOL    HW150729   3.169   8.952   0.022 -0.1587 -0.7782  0.7118
12890SOL    HW250730   3.289   8.975   0.130  0.8028  0.1995 -0.5449
12891SOL     OW50731   3.061   3.278   9.359 -0.7790  0.3694 -1.0811
12891SOL    HW150732   3.083   3.217   9.283  0.3026 -0.8721  0.1940
12891SOL    HW250733   3.144   3.322   9.392 -1.0333 -0.0441  0.1554
12892SOL     OW50734   0.244   3.183   9.440 -0.2783  0.7903 -0.3106
12892SOL    HW150735   0.318   3.116   9.451 -0.1407  0.6587 -1.8966
12892SOL    HW250736   0.157   3.142   9.469  0.0462  0.4345  0.1495
12893SOL     OW50737   4.951   1.812   4.952  0.4039 -0.2237  0.1130
12893SOL    HW150738   4.902   1.882   4.901  0.5744  0.2965  0.6596
12893SOL    HW250739   4.934   1.723   4.911 -1.4621 -0.1316  0.6467
12894SOL     OW50740   4.725   1.822   6.735 -0.2112  0.0691 -0.0772
12894SOL    HW150741   4.707   1.855   6.827 -0.8244  1.1624 -0.5848
12894SOL    HW250742   4.819   1.844   6.709  0.1024 -0.6387  0.4529
12895SOL     OW50743   3.904   9.765   0.195 -0.3661 -1.1732 -0.7099
12895SOL    HW150744   3.987   9.739   0.146 -0.4280 -0.8720 -0.9742
12895SOL    HW250745   3.837   9.802   0.130 -0.4430 -0.7663 -0.3993
12896SOL     OW50746   9.702   4.650   1.299 -0.1616 -0.0670  0.6597
12896SOL    HW150747   9.637   4.675   1.227 -0.9371 -0.8965  1.0694
12896SOL    HW250748   9.787   4.619   1.256  0.3097  1.8852  0.1318
12897SOL     OW50749   1.017   6.659   6.803  0.3298 -0.1644 -0.7750
12897SOL    HW150750   1.076   6.578   6.804  2.2194  1.1781  0.0359
12897SOL    HW250751   1.013   6.697   6.711 -0.5923 -1.1848 -1.1651
12898SOL     OW50752   5.686   1.460   0.585 -0.8503  0.3416  0.0460
12898SOL    HW150753   5.651   1.374   0.623 -0.4820  0.4698  0.6801
12898SOL    HW250754   5.720   1.517   0.659 -1.6072  1.2684 -0.3198
12899SOL     OW50755   2.601   1.673   7.047  0.0363 -0.4452  0.0415
12899SOL    HW150756   2.597   1.748   6.981 -1.6488  1.6747  2.4543
12899SOL    HW250757   2.673   1.691   7.114 -0.9825 -0.4996  1.1644
12900SOL     OW50758   2.065   9.353   1.431  0.4446  0.0032  0.0335
12900SOL    HW150759   2.102   9.297   1.357  0.1852 -2.1132  1.4682
12900SOL    HW250760   1.965   9.342   1.434  0.5054 -0.2787  0.9990
12901SOL     OW50761   9.676   7.318   3.908  0.4563  0.0189 -0.1712
12901SOL    HW150762   9.749   7.303   3.841  2.0004  0.3032  1.4126
12901SOL    HW250763   9.716   7.333   3.998 -1.5848  0.0071  0.7631
12902SOL     OW50764   1.715   9.464   0.165  0.0453 -0.1644  0.2720
12902SOL    HW150765   1.665   9.541   0.125 -2.1111 -2.1825 -1.0703
12902SOL    HW250766   1.781   9.428   0.099 -0.6669 -0.9558 -0.0295
12903SOL     OW50767   2.244   7.343   5.271 -0.0127 -0.4459 -0.0695
12903SOL    HW150768   2.323   7.288   5.298 -0.0925 -1.4584 -1.7620
12903SOL    HW250769   2.262   7.439   5.290  0.9531 -0.8389  1.0774
12904SOL     OW50770   5.298   5.114   9.664  0.5604  0.5333  0.2776
12904SOL    HW150771   5.370   5.053   9.696  1.3874  0.7193 -1.1702
12904SOL    HW250772   5.209   5.071   9.678  1.0877 -0.6534  0.0361
12905SOL     OW50773   1.578   2.692   4.824  0.3460  0.4101 -0.1963
12905SOL    HW150774   1.488   2.657   4.800  0.2716  1.1851 -1.0440
12905SOL    HW250775   1.648   2.624   4.803  0.0134  0.0076  0.0008
12906SOL     OW50776   9.876   9.208   1.949  0.2762 -0.4281  0.7306
12906SOL    HW150777   9.873   9.234   2.046  1.2701  0.0485  0.6354
12906SOL    HW250778   9.957   9.247   1.906 -0.4404 -0.1964 -0.4318
12907SOL     OW50779   3.487   7.883   3.870 -0.3369 -0.5066 -0.4993
12907SOL    HW150780   3.552   7.869   3.796  1.6787 -0.0636  1.1182
12907SOL    HW250781   3.513   7.827   3.948 -2.6567 -1.2686 -0.2465
12908SOL     OW50782   2.916   3.716   8.043  0.1978  0.0072  0.4847
12908SOL    HW150783   2.888   3.741   7.950  1.5049 -1.8465 -0.4436
12908SOL    HW250784   2.996   3.769   8.068  1.3990 -1.3233 -0.4685
12909SOL     OW50785   4.891   7.648   4.098 -0.1084 -0.2142 -0.0552
12909SOL    HW150786   4.841   7.608   4.021 -1.6624  1.0083  0.3117
12909SOL    HW250787   4.945   7.726   4.066  0.6655 -0.8119 -0.2277
12910SOL     OW50788   9.873   3.267   1.392  0.4682  0.4798 -0.3534
12910SOL    HW150789   9.845   3.187   1.445  0.1374  0.1333 -1.0388
12910SOL    HW250790   9.835   3.350   1.433  1.9015  0.4308  1.1323
12911SOL     OW50791   9.362   2.669   9.534  0.0462  0.2457  0.4470
12911SOL    HW150792   9.388   2.689   9.440 -1.1995 -2.4637 -0.5361
12911SOL    HW250793   9.419   2.595   9.570 -2.5176 -1.9413  0.1655
12912SOL     OW50794   8.765   6.575   8.883  0.4786  0.6670 -0.4198
12912SOL    HW150795   8.678   6.542   8.921  0.5770 -1.7995 -2.1763
12912SOL    HW250796   8.757   6.672   8.860 -1.8761  0.4534 -0.6722
12913SOL     OW50797   4.229   8.761   1.365  0.4834  0.2172  0.1061
12913SOL    HW150798   4.142   8.726   1.401  1.0810 -0.3915  0.9703
12913SOL    HW250799   4.250   8.717   1.279 -0.1707  0.5196 -0.2126
12914SOL     OW50800   6.205   0.436   3.991 -0.4990 -0.0505 -0.5914
12914SOL    HW150801   6.162   0.348   4.010 -0.6709  0.4420  1.3966
12914SOL    HW250802   6.134   0.507   3.986 -0.0413  0.6098  1.7473
12915SOL     OW50803   7.027   5.631   9.403 -0.0294 -0.1702  0.5164
12915SOL    HW150804   7.076   5.717   9.392  2.7474 -1.7138  0.3019
12915SOL    HW250805   6.954   5.625   9.335 -0.0276  1.8566  0.3171
12916SOL     OW50806   1.898   0.497   0.205 -0.7770 -0.1939  0.1733
12916SOL    HW150807   1.989   0.531   0.229 -0.7759 -0.4291  0.5101
12916SOL    HW250808   1.905   0.431   0.130 -0.7825  0.5640 -0.4965
12917SOL     OW50809   7.334   6.804   1.572 -0.6533 -0.5927  0.2531
12917SOL    HW150810   7.356   6.825   1.477  0.7859 -1.1967  0.4476
12917SOL    HW250811   7.298   6.710   1.578 -0.2563 -0.7383  0.3711
12918SOL     OW50812   6.433   2.797   2.574  0.0664 -0.4561 -0.4448
12918SOL    HW150813   6.488   2.735   2.518 -1.5598 -0.2825 -2.2977
12918SOL    HW250814   6.336   2.775   2.563 -0.5511  2.3645 -1.1630
12919SOL     OW50815   2.653   4.617   1.982 -0.1037  0.5093  0.4954
12919SOL    HW150816   2.620   4.597   1.889  0.4239  0.6525  0.2764
12919SOL    HW250817   2.698   4.706   1.982 -0.4460  0.6846  0.9785
12920SOL     OW50818   5.922   5.547   8.175  0.3184 -0.4225 -0.8012
12920SOL    HW150819   5.968   5.585   8.095  0.2502  0.0593 -0.6184
12920SOL    HW250820   5.875   5.621   8.224  1.6347 -0.4473  0.5356
12921SOL     OW50821   4.198   3.132   5.312 -0.3322 -0.0595 -0.4048
12921SOL    HW150822   4.198   3.035   5.337 -0.0054 -0.0344 -0.3015
12921SOL    HW250823   4.288   3.172   5.332  0.2896 -0.2915 -2.6516
12922SOL     OW50824   5.969   1.461   0.133 -0.1632  0.2514 -0.3789
12922SOL    HW150825   5.874   1.452   0.103 -0.7709  3.1216  0.5983
12922SOL    HW250826   5.972   1.485   0.230  1.6146 -0.9798 -0.0937
12923SOL     OW50827   0.703   8.317   9.085  0.1703  0.3282 -0.9824
12923SOL    HW150828   0.712   8.410   9.051 -0.0941  0.0589 -1.7872
12923SOL    HW250829   0.626   8.272   9.041 -0.1555 -0.0382 -0.0570
12924SOL     OW50830   7.282   9.950   1.180 -0.3413  0.1691 -0.4658
12924SOL    HW150831   7.261  10.048   1.179  2.6414  0.8800  0.7929
12924SOL    HW250832   7.363   9.933   1.124 -0.2578 -1.4422  0.1238
12925SOL     OW50833   2.614   9.669   1.953  0.0521  0.0959 -0.0444
12925SOL    HW150834   2.657   9.620   2.029  0.4153  0.2550 -0.1452
12925SOL    HW250835   2.648   9.631   1.866  0.0181  0.2492 -0.1243
12926SOL     OW50836   8.208   4.713   2.288 -0.8907 -0.0467  0.0042
12926SOL    HW150837   8.256   4.798   2.307  0.1794 -0.4500 -0.8482
12926SOL    HW250838   8.151   4.724   2.207 -0.2958 -0.3038 -0.4568
12927SOL     OW50839   0.320   0.936   4.756  0.6855  0.0334  0.5212
12927SOL    HW150840   0.270   0.960   4.840  1.1483 -0.9942  1.0936
12927SOL    HW250841   0.296   1.001   4.684 -1.5282 -0.4694  0.7659
12928SOL     OW50842   8.218   7.766   1.678 -0.7810 -0.1854 -0.3875
12928SOL    HW150843   8.244   7.843   1.736 -0.3137  0.3633 -1.3125
12928SOL    HW250844   8.213   7.796   1.583  1.8323 -1.8393 -1.1043
12929SOL     OW50845   2.077   1.340   8.555 -0.1401  0.5285  0.0001
12929SOL    HW150846   2.164   1.300   8.583  0.9998  1.2796 -2.3217
12929SOL    HW250847   2.054   1.416   8.616 -0.1536 -0.8898  1.7834
12930SOL     OW50848   8.911   8.189   5.214 -0.2338 -0.3531  0.0313
12930SOL    HW150849   8.976   8.264   5.211  0.3280 -0.8018  0.9876
12930SOL    HW250850   8.906   8.152   5.306  0.0262 -1.9564 -0.5783
12931SOL     OW50851   3.568   7.025   5.145  0.2507 -0.2872  0.0601
12931SOL    HW150852   3.577   6.981   5.234 -1.4449 -0.6138  0.0975
12931SOL    HW250853   3.658   7.040   5.105  0.8627 -3.7818  0.0334
12932SOL     OW50854   8.652   8.515   0.817 -0.4041 -0.4375  0.1770
12932SOL    HW150855   8.749   8.501   0.835 -0.2104 -0.6022 -0.9540
12932SOL    HW250856   8.637   8.605   0.778 -0.8533  0.0109  1.3455
12933SOL     OW50857   0.511   6.941   0.584 -0.1965 -0.1093  0.0412
12933SOL    HW150858   0.575   7.018   0.586 -0.6940  0.3078  0.0919
12933SOL    HW250859   0.423   6.970   0.620 -0.6132 -0.5050 -0.6443
12934SOL     OW50860   4.866   2.125   8.232 -0.2808 -0.0259  0.7652
12934SOL    HW150861   4.958   2.089   8.219 -0.1011  1.1536 -1.5937
12934SOL    HW250862   4.855   2.209   8.179 -3.4478 -1.4303 -0.9862
12935SOL     OW50863   7.556   4.490   3.314 -0.3630  0.1856 -0.4290
12935SOL    HW150864   7.585   4.476   3.219 -0.2766 -0.9470 -0.2396
12935SOL    HW250865   7.574   4.407   3.366  0.0246  0.9621  0.6908
12936SOL     OW50866   3.860   4.480   3.975 -0.2157  0.1802 -0.3755
12936SOL    HW150867   3.799   4.552   3.942 -1.4476 -0.3286  0.7397
12936SOL    HW250868   3.871   4.411   3.904 -2.7625 -0.8529  0.1599
12937SOL     OW50869   3.903   0.802   0.474 -0.0175  0.6085 -0.3888
12937SOL    HW150870   3.962   0.873   0.437  0.3264  1.0016  0.8778
12937SOL    HW250871   3.941   0.769   0.561 -0.9112 -0.1250 -0.2658
12938SOL     OW50872   0.012   1.212   8.201 -0.3021  0.1843  0.3242
12938SOL    HW150873  -0.039   1.298   8.203 -0.3780  0.1695 -0.5754
12938SOL    HW250874   0.110   1.230   8.211 -0.2193  0.4720 -0.9354
12939SOL     OW50875   2.600   1.084   7.044  0.3140  0.1745  0.0574
12939SOL    HW150876   2.616   1.035   7.129 -2.3396 -0.5817  0.1393
12939SOL    HW250877   2.648   1.172   7.047  2.2931 -0.9040  1.2849
12940SOL     OW50878   8.616   6.468   4.965 -0.0008  0.3255  0.0119
12940SOL    HW150879   8.665   6.457   5.052 -2.8988 -0.9822  1.5258
12940SOL    HW250880   8.554   6.546   4.971  1.0026  1.2797 -1.5211
12941SOL     OW50881   6.345   4.180   1.868 -0.0858 -0.0048  0.1646
12941SOL    HW150882   6.442   4.200   1.860  0.0721 -0.8815 -0.1666
12941SOL    HW250883   6.302   4.183   1.778 -0.2718 -0.0676  0.2489
12942SOL     OW50884   9.176   2.443   5.155 -0.0809 -0.5305  0.3770
12942SOL    HW150885   9.203   2.479   5.244  0.8589  2.0915 -0.9207
12942SOL    HW250886   9.078   2.454   5.142 -0.1663 -0.6198  0.9593
12943SOL     OW50887   2.054   5.404   7.101  0.0308 -0.3213  0.3411
12943SOL    HW150888   1.957   5.422   7.092  0.0090 -1.0536 -0.9506
12943SOL    HW250889   2.106   5.481   7.064 -0.0561 -0.0577  0.7675
12944SOL     OW50890   7.657   4.472   3.065 -0.8057  0.1100  0.1034
12944SOL    HW150891   7.667   4.379   3.030 -3.7120 -0.8715  1.7378
12944SOL    HW250892   7.628   4.533   2.991  0.4336 -0.3895 -0.8135
12945SOL     OW50893   1.633   5.790   8.645 -0.0960 -0.1139 -0.2156
12945SOL    HW150894   1.701   5.798   8.717  0.5311 -0.4209 -0.7762
12945SOL    HW250895   1.588   5.701   8.650 -2.6023  1.1982  2.0434
12946SOL     OW50896   3.166   7.109   0.012 -0.8559  0.5228 -0.2164
12946SOL    HW150897   3.193   7.193   0.058 -0.0231 -0.3609  0.9568
12946SOL    HW250898   3.068   7.109  -0.003 -0.9005  1.5721  0.0695
12947SOL     OW50899   7.046   9.312   5.116  0.6142 -0.7265  0.1671
12947SOL    HW150900   7.054   9.269   5.026 -1.7534 -2.1046  0.5968
12947SOL    HW250901   7.060   9.411   5.106 -2.3933 -0.4686 -2.1760
12948SOL     OW50902   7.494   5.392   0.292  0.0301  0.6928  0.2922
12948SOL    HW150903   7.403   5.412   0.259  0.5103 -0.3256 -1.7469
12948SOL    HW250904   7.543   5.477   0.311 -0.7586  1.2667 -0.2261
12949SOL     OW50905   1.336   9.309   3.314  0.8497 -0.3174  0.1730
12949SOL    HW150906   1.348   9.397   3.268 -2.4408  0.0952  0.0095
12949SOL    HW250907   1.397   9.304   3.393  1.4444  1.8867 -0.1198
12950SOL     OW50908   3.957   8.304   2.385 -0.5819  0.1159 -0.4176
12950SOL    HW150909   3.922   8.375   2.447  1.5196  0.4358  0.4256
12950SOL    HW250910   3.983   8.223   2.438 -0.6604 -0.3682 -1.1116
12951SOL     OW50911   8.638   5.614   0.526 -0.0751  0.1387 -0.4396
12951SOL    HW150912   8.660   5.665   0.609 -0.8104  0.7160 -0.5918
12951SOL    HW250913   8.711   5.627   0.459  0.1288  0.3334 -0.1812
12952SOL     OW50914   5.036   2.784   7.433  0.0362  0.4226  1.1910
12952SOL    HW150915   4.971   2.708   7.428 -0.0403  0.5757 -0.3290
12952SOL    HW250916   5.055   2.818   7.341  1.2926  1.2177  1.7325
12953SOL     OW50917   9.811   0.433   3.333  0.3966  0.2588 -0.3483
12953SOL    HW150918   9.722   0.399   3.302  0.4447  1.9109 -2.3403
12953SOL    HW250919   9.875   0.433   3.257  1.8337  0.0954  0.8344
12954SOL     OW50920   6.379   0.329   6.532  0.1983  0.3533 -0.1058
12954SOL    HW150921   6.473   0.322   6.498  0.1182 -1.4078  0.0026
12954SOL    HW250922   6.319   0.360   6.457  0.3660 -1.5203 -1.0433
12955SOL     OW50923   8.942   1.848   0.090 -0.1262  0.5336 -0.6216
12955SOL    HW150924   8.930   1.754   0.058  1.2603  0.4325 -0.8782
12955SOL    HW250925   8.863   1.903   0.064  0.1164 -0.0105 -2.5861
12956SOL     OW50926   2.446   5.478   0.456  0.1265 -0.1750  0.2331
12956SOL    HW150927   2.423   5.554   0.518  0.1165  0.4454 -0.5268
12956SOL    HW250928   2.542   5.452   0.472  1.1463  2.1536 -1.7089
12957SOL     OW50929   2.161   6.907   2.898 -0.3608  0.1821 -0.4308
12957SOL    HW150930   2.226   6.916   2.822  1.9809  0.9730  1.5972
12957SOL    HW250931   2.126   6.998   2.922 -0.1871  0.0820  0.1994
12958SOL     OW50932   9.471   5.973   8.494 -0.9272 -0.1696  0.2866
12958SOL    HW150933   9.471   5.941   8.588 -2.6869 -1.3318 -0.0772
12958SOL    HW250934   9.562   6.005   8.469 -0.2685 -0.5750  2.1367
12959SOL     OW50935   7.609   8.241   8.479  0.7777 -0.4353 -0.2447
12959SOL    HW150936   7.567   8.189   8.553 -1.3098 -0.1465 -1.1685
12959SOL    HW250937   7.705   8.257   8.499  0.2044 -0.2111  2.4641
12960SOL     OW50938   1.740   2.252   4.354 -0.1618 -0.0845 -0.0872
12960SOL    HW150939   1.734   2.218   4.260  0.8246 -1.5552  0.3622
12960SOL    HW250940   1.671   2.205   4.411  0.9798 -1.1280  0.4643
12961SOL     OW50941   7.316   3.957   3.047 -0.1551  0.5203  0.3075
12961SOL    HW150942   7.243   4.008   3.002 -1.1415 -1.0230  0.1594
12961SOL    HW250943   7.304   3.964   3.146 -1.3176 -0.8760  0.2783
12962SOL     OW50944   2.935   9.150   2.901 -0.2954 -0.0071 -0.0033
12962SOL    HW150945   2.839   9.165   2.925 -0.5867  0.9399 -1.6881
12962SOL    HW250946   2.981   9.238   2.890  0.4571 -0.4517 -0.4443
12963SOL     OW50947   0.132   5.835   9.001 -0.6845  0.3360 -0.3519
12963SOL    HW150948   0.204   5.862   8.938 -0.8381  1.0168 -0.2337
12963SOL    HW250949   0.051   5.892   8.987 -2.0739 -1.9654 -2.1456
12964SOL     OW50950   3.758   9.024   9.762  0.1495  0.2865  1.1303
12964SOL    HW150951   3.689   9.073   9.816 -1.0492 -0.7805  0.5818
12964SOL    HW250952   3.841   9.079   9.757 -1.1892  2.3071  0.4683
12965SOL     OW50953   0.759   6.355   0.915 -0.3517  0.0347  0.4246
12965SOL    HW150954   0.800   6.423   0.975 -0.6528  0.0830  0.5731
12965SOL    HW250955   0.699   6.295   0.968 -1.6808  0.9159 -0.0498
12966SOL     OW50956   9.747   9.641   3.587  0.0299 -0.2377 -0.2164
12966SOL    HW150957   9.764   9.702   3.509  1.4042 -2.0857 -1.3820
12966SOL    HW250958   9.666   9.672   3.636 -2.3252 -0.4628 -3.8213
12967SOL     OW50959   9.424   0.490   9.214 -0.2937 -0.4121 -0.3036
12967SOL    HW150960   9.510   0.439   9.208 -0.5322 -0.8587  0.1162
12967SOL    HW250961   9.391   0.510   9.121  0.9998  1.0073 -0.4764
12968SOL     OW50962   8.193   3.536   7.462  0.2858  0.6851  0.2175
12968SOL    HW150963   8.162   3.468   7.529 -0.0363 -0.0357 -0.6536
12968SOL    HW250964   8.267   3.498   7.407 -1.3241  0.2633 -1.6927
12969SOL     OW50965   9.028   8.868   8.644 -0.2725  0.3496  0.3264
12969SOL    HW150966   8.963   8.813   8.591 -0.4756 -0.7650  1.7163
12969SOL    HW250967   9.066   8.813   8.719  0.0710  1.8824  1.3036
12970SOL     OW50968   9.024   0.111   9.307 -0.1797 -0.0774  0.4783
12970SOL    HW150969   8.963   0.124   9.385  0.4495  0.7425  0.8429
12970SOL    HW250970   9.081   0.030   9.323 -0.9821 -0.6871  0.2561
12971SOL     OW50971   1.352   2.370   7.169 -0.1775  0.3171  0.1872
12971SOL    HW150972   1.277   2.423   7.129 -0.2147  0.2041  0.1062
12971SOL    HW250973   1.322   2.275   7.182 -0.1465  0.3405  0.4309
12972SOL     OW50974   5.178   9.706   5.549 -0.4089  0.5597 -0.2927
12972SOL    HW150975   5.160   9.674   5.456 -0.3087 -0.3508 -0.0034
12972SOL    HW250976   5.124   9.652   5.614  0.4275  0.3931  0.2743
12973SOL     OW50977   0.349   0.302   5.811  0.0995  0.0026  0.0270
12973SOL    HW150978   0.336   0.323   5.907  0.8179 -1.4216  0.4514
12973SOL    HW250979   0.326   0.206   5.794 -0.7023  0.4130 -1.3649
12974SOL     OW50980   6.847   5.993   9.640 -0.4642  0.0931  0.2297
12974SOL    HW150981   6.817   5.949   9.556 -0.0652 -1.3746  0.8415
12974SOL    HW250982   6.943   5.970   9.658  0.0769  2.0614  0.0298
12975SOL     OW50983   7.334   6.263   4.297  0.4571 -0.1932 -0.3212
12975SOL    HW150984   7.303   6.170   4.314  2.2691 -0.3821  2.2611
12975SOL    HW250985   7.265   6.328   4.329 -0.1157 -0.6376 -0.6609
12976SOL     OW50986   3.405   1.332   6.125 -0.1716 -0.2833 -0.1273
12976SOL    HW150987   3.324   1.346   6.181  0.2668 -0.5058  0.5718
12976SOL    HW250988   3.381   1.339   6.029 -0.6826  1.4367  0.1048
12977SOL     OW50989   6.247   0.954   5.646  0.0048  0.8353 -0.1573
12977SOL    HW150990   6.194   1.009   5.582 -0.2851  1.5850  0.7112
12977SOL    HW250991   6.201   0.953   5.735 -0.1848 -1.1204 -0.2552
12978SOL     OW50992   1.070   2.528   3.924  0.5472 -0.0901 -0.0373
12978SOL    HW150993   1.142   2.556   3.987 -0.8384  1.2805  0.9727
12978SOL    HW250994   1.017   2.608   3.897 -1.8850 -1.3723  0.8410
12979SOL     OW50995   5.763   0.618   2.132 -0.3033 -0.0588 -0.0854
12979SOL    HW150996   5.769   0.603   2.033 -0.1379 -0.3602 -0.0289
12979SOL    HW250997   5.691   0.561   2.171  0.7122 -1.1620  0.2157
12980SOL     OW50998   5.291   7.576   1.817  0.2177 -0.3590  0.0958
12980SOL    HW150999   5.332   7.558   1.907 -0.8012 -2.2015  0.2161
12980SOL    HW251000   5.246   7.493   1.784 -1.7211  1.0574 -0.9132
12981SOL     OW51001   9.011   8.936   7.935 -0.0418 -0.6235 -0.2481
12981SOL    HW151002   9.015   8.951   7.836  0.3354 -0.9939 -0.2893
12981SOL    HW251003   8.927   8.888   7.959  0.8990 -2.5234 -0.6524
12982SOL     OW51004   2.745   4.209   9.663  0.4759  0.1628 -0.4468
12982SOL    HW151005   2.780   4.277   9.728 -1.2001  1.9686 -1.3793
12982SOL    HW251006   2.715   4.128   9.713 -0.5664  1.4404  1.0690
12983SOL     OW51007   5.057   0.886   0.055 -0.0937  0.1409 -0.4433
12983SOL    HW151008   5.016   0.961   0.003 -1.7944  0.8753  1.8854
12983SOL    HW251009   4.996   0.807   0.054  0.5941 -0.3969 -0.8613
12984SOL     OW51010   6.728   4.791   1.481 -0.5116  0.2246 -0.4985
12984SOL    HW151011   6.651   4.728   1.477 -0.3863 -0.0058  0.5895
12984SOL    HW251012   6.791   4.772   1.406  0.4053 -2.1018  0.8157
12985SOL     OW51013   8.629   6.495   7.821 -0.2425  0.4335  0.1303
12985SOL    HW151014   8.714   6.441   7.819 -0.9819 -0.8393  1.7028
12985SOL    HW251015   8.623   6.543   7.908 -0.5891  1.4614 -0.4545
12986SOL     OW51016   9.441   0.824   2.465 -0.3348  0.3330  0.1389
12986SOL    HW151017   9.482   0.733   2.474 -2.0923 -0.3670  1.3014
12986SOL    HW251018   9.508   0.894   2.489  1.6717 -0.5130 -2.6435
12987SOL     OW51019   8.279   9.671   7.515  0.6937  0.6039 -0.4450
12987SOL    HW151020   8.252   9.762   7.484  1.0476 -0.1239 -2.9720
12987SOL    HW251021   8.365   9.678   7.567  1.5349  1.5298 -1.9356
12988SOL     OW51022   1.859   1.473   8.372 -0.2156  0.4453 -0.2433
12988SOL    HW151023   1.948   1.434   8.395  0.3260  1.4150 -0.6660
12988SOL    HW251024   1.813   1.414   8.306  0.2224  0.0798 -0.2269
12989SOL     OW51025   9.093   0.553   4.214  0.7822 -0.9714  0.0138
12989SOL    HW151026   9.100   0.631   4.151  0.5942 -1.0744 -0.1337
12989SOL    HW251027   9.002   0.552   4.256  1.1534 -0.4755  0.8440
12990SOL     OW51028   1.066   1.630   5.283  0.1029 -0.3702  0.2656
12990SOL    HW151029   1.158   1.667   5.268 -0.5697  1.5988  0.8187
12990SOL    HW251030   1.017   1.625   5.196  0.4976 -0.7366  0.0677
12991SOL     OW51031   9.122   2.266   4.801  0.2933  0.8657  0.3485
12991SOL    HW151032   9.081   2.187   4.755 -0.2244  1.5726 -0.4231
12991SOL    HW251033   9.054   2.339   4.809  1.1576  1.7477 -0.2058
12992SOL     OW51034   9.378   6.854   1.096 -0.0508  0.2111  0.5593
12992SOL    HW151035   9.335   6.935   1.057  0.0733 -0.3210 -0.7225
12992SOL    HW251036   9.307   6.790   1.126 -0.1638 -0.0302 -0.2050
12993SOL     OW51037   0.570   3.893   6.127  0.0795 -0.2954  0.4469
12993SOL    HW151038   0.654   3.920   6.174 -0.3012  0.8755  0.4614
12993SOL    HW251039   0.496   3.954   6.154 -0.4782 -0.5203 -0.5698
12994SOL     OW51040   6.327   3.436   8.884  0.4557  0.1961  0.9953
12994SOL    HW151041   6.291   3.455   8.793  1.3052 -1.6424  0.2465
12994SOL    HW251042   6.259   3.386   8.937  0.1737  0.7792  1.1902
12995SOL     OW51043   6.555   5.351   8.872 -0.1829  0.3391  0.3252
12995SOL    HW151044   6.493   5.429   8.880 -0.5508  0.2931 -1.8612
12995SOL    HW251045   6.525   5.292   8.797  1.2498 -0.8403  0.6626
12996SOL     OW51046   0.255   0.506   5.369  0.1197  0.3470 -0.0491
12996SOL    HW151047   0.187   0.456   5.315  0.5100 -1.7489  1.3370
12996SOL    HW251048   0.209   0.551   5.446 -0.0225  0.9005 -0.4549
12997SOL     OW51049   7.896   0.137   9.771  0.5353 -0.2397 -0.0953
12997SOL    HW151050   7.932   0.217   9.819  2.6182  0.2382 -2.3708
12997SOL    HW251051   7.842   0.166   9.692  0.5100 -1.0608 -0.3879
12998SOL     OW51052   3.793   9.132   2.845 -0.4252 -0.5508  0.1886
12998SOL    HW151053   3.775   9.209   2.907 -1.3985 -0.4674 -0.1801
12998SOL    HW251054   3.706   9.089   2.820  0.0621 -1.3396 -0.1604
12999SOL     OW51055   7.396   4.874   0.366 -0.0396  0.0957 -0.0171
12999SOL    HW151056   7.401   4.923   0.453 -1.0306  2.7904 -1.4224
12999SOL    HW251057   7.449   4.789   0.373 -1.8601 -0.8584  3.8636
13000SOL     OW51058   6.528   4.619   1.407 -0.0751 -0.4735  0.3785
13000SOL    HW151059   6.449   4.593   1.462 -0.2925  0.1694  0.3795
13000SOL    HW251060   6.496   4.659   1.321  0.2689 -1.8971 -0.4121
13001SOL     OW51061   9.011   5.133   1.555  0.2987  0.1150 -0.0022
13001SOL    HW151062   8.938   5.113   1.620 -0.7455  0.1834 -1.1552
13001SOL    HW251063   9.095   5.086   1.584 -0.1376  0.1963  1.4216
13002SOL     OW51064   2.141   5.837   9.159 -0.3203  0.0167  0.2446
13002SOL    HW151065   2.161   5.885   9.073  0.4989 -1.1452 -0.2192
13002SOL    HW251066   2.226   5.802   9.198 -0.7730 -0.0463  1.1944
13003SOL     OW51067   8.854   1.580   6.594 -0.2620  0.6845 -0.4073
13003SOL    HW151068   8.850   1.680   6.605  0.3153  0.5461  1.1503
13003SOL    HW251069   8.913   1.541   6.664 -2.9987 -1.0576  1.0240
13004SOL     OW51070   2.479   9.260   4.353 -0.3368 -0.0368  0.0113
13004SOL    HW151071   2.492   9.267   4.254 -1.0904 -0.4223 -0.1166
13004SOL    HW251072   2.539   9.189   4.389  1.1681  1.2390  0.0859
13005SOL     OW51073   3.287   7.994   8.935  0.2829  0.2443  0.3093
13005SOL    HW151074   3.378   8.019   8.900  0.4402 -1.2815 -0.4171
13005SOL    HW251075   3.291   7.903   8.976 -1.0615 -0.1193 -0.3354
13006SOL     OW51076   0.578   4.973   6.013  0.4266  0.3209  0.2754
13006SOL    HW151077   0.674   4.950   5.993  0.5115 -0.2491  1.3064
13006SOL    HW251078   0.526   4.889   6.027  0.4525  0.6622  2.7282
13007SOL     OW51079   9.944   1.334   3.330  0.3602  0.1646  0.2728
13007SOL    HW151080   9.983   1.242   3.335 -0.3174 -0.2035 -0.9450
13007SOL    HW251081  10.015   1.402   3.350  0.4903 -0.6707  2.8302
13008SOL     OW51082   6.717   4.245   8.906 -0.3155  0.1111 -0.6037
13008SOL    HW151083   6.636   4.206   8.950 -0.5084 -0.5215 -1.5027
13008SOL    HW251084   6.693   4.276   8.814  0.4224  0.0672 -0.8131
13009SOL     OW51085   5.651   0.193   7.099  0.4732  0.0635 -0.4495
13009SOL    HW151086   5.697   0.217   7.014  0.4989 -2.8306 -1.3099
13009SOL    HW251087   5.566   0.145   7.079 -0.2727  0.6727  1.1577
13010SOL     OW51088   2.993   0.496   4.657  0.2345 -0.0773 -0.6569
13010SOL    HW151089   2.982   0.587   4.617 -3.3282 -0.9690 -1.8998
13010SOL    HW251090   2.945   0.492   4.744  1.9434 -0.2706  0.3052
13011SOL     OW51091   9.617   2.235   9.370 -0.4905 -0.4194  0.0957
13011SOL    HW151092   9.620   2.170   9.294 -2.1248 -1.6067  1.0174
13011SOL    HW251093   9.522   2.249   9.399  0.0265  0.7575  1.3090
13012SOL     OW51094   2.435   5.259   1.247 -0.2992 -0.0039  0.0311
13012SOL    HW151095   2.526   5.297   1.237 -0.0979 -0.4294  0.2177
13012SOL    HW251096   2.435   5.190   1.320 -0.1079 -2.0232 -1.8160
13013SOL     OW51097   8.967   4.770   9.898 -0.3073  0.3342  0.1311
13013SOL    HW151098   8.882   4.813   9.927 -0.3866  0.0391  0.3365
13013SOL    HW251099   9.030   4.841   9.866 -0.6742  0.5394 -0.1411
13014SOL     OW51100   7.070   5.161   2.490  0.2992  0.0887  0.5456
13014SOL    HW151101   7.039   5.178   2.584  1.9269  1.0083  0.9484
13014SOL    HW251102   7.075   5.248   2.441 -0.4399 -0.3790 -0.3584
13015SOL     OW51103   9.894   5.983   8.972 -0.2659  0.2701 -0.2359
13015SOL    HW151104   9.926   6.050   9.039 -1.6092 -0.7530  1.4422
13015SOL    HW251105   9.871   5.898   9.018 -0.4955 -0.7022 -2.1043
13016SOL     OW51106   1.405   9.513   7.124 -0.5904  0.4997  0.0593
13016SOL    HW151107   1.349   9.527   7.042 -0.5473 -0.3419 -0.1106
13016SOL    HW251108   1.422   9.416   7.137  1.0465  0.7567 -0.0213
13017SOL     OW51109   9.228   4.100   9.689  0.1178  0.7016 -0.1429
13017SOL    HW151110   9.263   4.137   9.775  0.3508 -0.0313  0.0859
13017SOL    HW251111   9.304   4.083   9.627 -0.2554  3.5299 -1.4377
13018SOL     OW51112   2.189   9.418   9.892  0.2139 -0.2205 -0.1362
13018SOL    HW151113   2.266   9.443   9.833  0.5990  1.0001  0.8650
13018SOL    HW251114   2.112   9.389   9.835 -0.1257  2.8750 -1.3699
13019SOL     OW51115   2.735   4.198   5.192  0.4567 -0.4096  0.4715
13019SOL    HW151116   2.736   4.283   5.244 -0.3819 -1.1975  1.8051
13019SOL    HW251117   2.731   4.120   5.255  0.9538 -1.4358 -0.7358
13020SOL     OW51118   9.122   8.351   0.172 -0.3275 -0.5518  0.3976
13020SOL    HW151119   9.108   8.252   0.174  2.1019 -0.9768 -1.0556
13020SOL    HW251120   9.131   8.382   0.077 -1.9904  1.2284  0.7913
13021SOL     OW51121   2.750   1.310   7.089  0.2050 -0.5778  0.7731
13021SOL    HW151122   2.742   1.318   7.188 -2.6532  1.5988  0.4304
13021SOL    HW251123   2.800   1.389   7.053  0.1957 -0.7450  0.3899
13022SOL     OW51124   7.284   8.067   6.840 -0.1774 -0.2451  0.3249
13022SOL    HW151125   7.250   8.110   6.756  0.3525 -2.4918 -1.0917
13022SOL    HW251126   7.355   8.000   6.816  0.0640 -0.8256  2.5926
13023SOL     OW51127   0.299   3.421   8.025 -0.0870 -0.3101 -0.6798
13023SOL    HW151128   0.352   3.444   8.106  0.3390 -1.9189 -0.4917
13023SOL    HW251129   0.203   3.444   8.041  0.1719  0.3928 -0.1257
13024SOL     OW51130   1.213   9.136   0.626  0.1552 -0.2496  0.2414
13024SOL    HW151131   1.122   9.132   0.667 -1.5143  1.6963 -3.0457
13024SOL    HW251132   1.272   9.195   0.681 -2.0785  2.4504 -0.1340
13025SOL     OW51133   6.975   2.752   2.106  0.2329 -0.1893 -0.1243
13025SOL    HW151134   7.067   2.760   2.069  1.2770 -0.8248  2.1889
13025SOL    HW251135   6.928   2.674   2.065  0.7510  0.0873 -1.2432
13026SOL     OW51136   1.503   6.158   6.206 -0.6050  0.3561 -0.0910
13026SOL    HW151137   1.474   6.079   6.261  1.6194 -0.7313 -0.4212
13026SOL    HW251138   1.574   6.208   6.255 -2.3489  2.4907  0.3348
13027SOL     OW51139   9.127   2.989   2.360 -0.3561  0.2220  0.6635
13027SOL    HW151140   9.083   3.028   2.441  0.0353 -0.9580  1.4495
13027SOL    HW251141   9.061   2.934   2.309 -0.3712  0.2514  0.6530
13028SOL     OW51142   1.064   0.175   7.377  0.8656 -0.3376  0.1071
13028SOL    HW151143   1.103   0.195   7.287  1.0862 -0.5749  0.1517
13028SOL    HW251144   0.964   0.178   7.371  0.8839  1.9563  0.3611
13029SOL     OW51145   0.976   3.192   2.048 -0.2609  0.1195  0.1597
13029SOL    HW151146   0.960   3.273   1.993 -1.1441  0.3241  0.7165
13029SOL    HW251147   0.930   3.201   2.136 -1.6235 -1.6236 -0.3432
13030SOL     OW51148   9.360   9.989   9.122 -0.5938  0.1797  0.1226
13030SOL    HW151149   9.436   9.986   9.057 -0.2027 -1.0203  0.5986
13030SOL    HW251150   9.290  10.052   9.090 -0.0583  0.1826 -1.0732
13031SOL     OW51151   3.332   6.530   7.481 -0.0369 -0.8209  0.1224
13031SOL    HW151152   3.422   6.557   7.446 -0.6070  0.7680 -0.1644
13031SOL    HW251153   3.321   6.564   7.574 -1.7130  2.1828 -1.0980
13032SOL     OW51154   6.610   4.621   0.743  0.3320 -0.1900 -0.0362
13032SOL    HW151155   6.530   4.576   0.782 -0.8487  1.0325 -1.0196
13032SOL    HW251156   6.635   4.700   0.799 -0.7931  1.0075 -1.1817
13033SOL     OW51157   9.982   1.786   8.840  0.3324 -0.2160  0.2488
13033SOL    HW151158   9.949   1.724   8.911 -1.2447  0.7240  0.3381
13033SOL    HW251159   9.905   1.835   8.799  1.1571 -1.0741 -2.4323
13034SOL     OW51160   7.164   4.788   3.511 -0.1590  0.2106 -0.6265
13034SOL    HW151161   7.210   4.853   3.572  0.8243 -0.0385 -1.0811
13034SOL    HW251162   7.066   4.792   3.526 -0.0109  0.9137  0.2262
13035SOL     OW51163   3.255   2.768   8.627 -0.8186 -0.3695 -0.1926
13035SOL    HW151164   3.230   2.805   8.538 -1.3093 -0.0375  0.0814
13035SOL    HW251165   3.195   2.806   8.697  1.1539  1.3482  0.6285
13036SOL     OW51166   8.474   2.900   7.773 -0.4251  0.0238  0.4033
13036SOL    HW151167   8.549   2.948   7.727  0.5314  0.0011  1.9111
13036SOL    HW251168   8.411   2.967   7.814 -0.1111  0.0196  0.8962
13037SOL     OW51169   1.819   7.309   0.095 -0.3211 -0.3685  0.0471
13037SOL    HW151170   1.874   7.371   0.039  0.1317 -1.5981 -0.8998
13037SOL    HW251171   1.862   7.298   0.185 -0.0069  0.1073 -0.0431
13038SOL     OW51172   8.967   8.789   5.630 -0.2805  0.1207 -0.0750
13038SOL    HW151173   9.026   8.822   5.704  2.3442 -1.5479 -1.3572
13038SOL    HW251174   9.000   8.824   5.542 -1.8781  0.0403 -0.7396
13039SOL     OW51175   9.665   0.347   9.225  0.2603  0.2190  0.2257
13039SOL    HW151176   9.600   0.282   9.263 -0.6325 -0.0002 -1.6283
13039SOL    HW251177   9.726   0.299   9.162  0.9432  0.7970  0.4439
13040SOL     OW51178   9.469   4.364   7.003  0.6328 -0.0346  0.2621
13040SOL    HW151179   9.568   4.368   7.017  0.5359 -1.4345  1.4628
13040SOL    HW251180   9.446   4.278   6.957  0.6043  2.9628 -5.8483
13041SOL     OW51181   0.687   6.997   3.645 -0.3828 -0.1695 -0.6524
13041SOL    HW151182   0.648   7.018   3.735  1.9492  1.1307  0.1091
13041SOL    HW251183   0.621   7.022   3.573 -2.0809 -0.7815  0.6579
13042SOL     OW51184   1.155   1.544   3.314  0.8846 -0.3342  0.0769
13042SOL    HW151185   1.100   1.541   3.397  1.1270  0.2310  0.2574
13042SOL    HW251186   1.181   1.638   3.294  1.2137 -0.5193 -0.3861
13043SOL     OW51187   7.500   6.010   3.384  0.0970  0.0738  0.3289
13043SOL    HW151188   7.524   5.917   3.355 -0.3479  0.1161 -0.1821
13043SOL    HW251189   7.457   6.007   3.474 -0.3019 -0.2570  0.1271
13044SOL     OW51190   1.702   2.388   3.796  0.4778  0.1515  0.2751
13044SOL    HW151191   1.679   2.295   3.827 -0.1364  0.7946  1.7957
13044SOL    HW251192   1.649   2.455   3.848  0.8408  1.3596 -0.8874
13045SOL     OW51193   2.345   4.503   1.262  0.2953  0.1100 -0.2454
13045SOL    HW151194   2.248   4.478   1.262 -0.0564  1.3879 -2.1852
13045SOL    HW251195   2.364   4.561   1.341 -0.3668 -0.6549  0.4929
13046SOL     OW51196   2.534   7.787   2.291  0.4169 -0.4320 -0.0641
13046SOL    HW151197   2.618   7.830   2.260  0.3253 -0.0159  0.2560
13046SOL    HW251198   2.550   7.739   2.377 -0.1194  1.2832  1.0097
13047SOL     OW51199   2.685   8.980   8.616 -0.1187 -0.0452  0.5298
13047SOL    HW151200   2.610   8.925   8.653 -0.4969 -0.0467 -0.2232
13047SOL    HW251201   2.678   8.983   8.516  0.9358 -0.1067  0.4514
13048SOL     OW51202   2.848   7.806   0.971  0.1234  0.6499  0.5253
13048SOL    HW151203   2.756   7.775   0.945  0.9102 -0.3758 -1.0777
13048SOL    HW251204   2.870   7.890   0.922  0.4030  0.3905  0.2054
13049SOL     OW51205   9.322   7.963   4.958  0.2214  0.5016 -0.3314
13049SOL    HW151206   9.388   7.990   4.887 -0.1465  3.1867  0.2828
13049SOL    HW251207   9.249   8.031   4.963 -0.5208 -0.3982  1.6693
13050SOL     OW51208   1.288   1.789   6.898  0.3640  0.3503  0.0652
13050SOL    HW151209   1.336   1.734   6.966  0.1598 -0.5056 -0.4802
13050SOL    HW251210   1.305   1.886   6.916  0.6680  0.1198  1.0711
13051SOL     OW51211   2.877   9.803   1.873  0.3107 -0.4589 -0.4745
13051SOL    HW151212   2.788   9.836   1.902  0.9919 -0.6372  1.9024
13051SOL    HW251213   2.906   9.854   1.791 -1.3286  0.5916 -0.4210
13052SOL     OW51214   0.911   8.723   4.347 -0.8015 -0.4239  0.3410
13052SOL    HW151215   0.937   8.818   4.364 -0.0811 -0.5086 -0.2418
13052SOL    HW251216   0.813   8.718   4.326 -0.9901  0.0959  1.0718
13053SOL     OW51217   2.101   2.884   0.817  0.5156  0.0778  0.1950
13053SOL    HW151218   2.015   2.923   0.848  0.7071  0.5726  0.1153
13053SOL    HW251219   2.122   2.802   0.870 -0.0158 -0.0595  0.1914
13054SOL     OW51220   9.532   4.924   7.729 -0.3840 -0.0939  0.0779
13054SOL    HW151221   9.492   5.016   7.720 -0.2728 -0.1538 -1.2451
13054SOL    HW251222   9.628   4.932   7.757 -0.2404  0.2288 -0.4785
13055SOL     OW51223   0.438   9.262   2.072  0.3848  0.3626 -0.1224
13055SOL    HW151224   0.494   9.273   1.990 -0.1119  1.2134 -0.3585
13055SOL    HW251225   0.446   9.344   2.129 -0.8311  0.6116 -0.2909
13056SOL     OW51226   5.283   0.118   3.389 -0.3963  0.0202  0.1827
13056SOL    HW151227   5.263   0.055   3.314 -0.1244  2.0860 -1.6882
13056SOL    HW251228   5.382   0.137   3.391 -0.7272  1.9570 -0.6179
13057SOL     OW51229   4.570   2.571   6.849 -0.3430 -0.7052 -0.0156
13057SOL    HW151230   4.614   2.660   6.839 -1.2618 -0.1594  0.6670
13057SOL    HW251231   4.535   2.561   6.943 -2.0631 -0.9176 -0.6492
13058SOL     OW51232   7.551   1.367   2.854 -0.0760 -0.0665 -0.1537
13058SOL    HW151233   7.592   1.415   2.932  0.8494  0.2119 -0.7990
13058SOL    HW251234   7.611   1.377   2.774 -1.2685  0.0952 -1.0362
13059SOL     OW51235   8.766   3.469   8.021 -0.1952 -0.0850 -0.0054
13059SOL    HW151236   8.751   3.445   7.926 -1.8516  0.7013  0.0380
13059SOL    HW251237   8.722   3.402   8.080  0.3321 -0.2539  0.1967
13060SOL     OW51238   1.531   6.784   4.894  0.2926  0.1203 -0.2763
13060SOL    HW151239   1.629   6.773   4.876  0.1711  0.8594 -1.4906
13060SOL    HW251240   1.507   6.881   4.888 -0.2756  0.0845  1.3210
13061SOL     OW51241   0.779   1.458   2.619  0.3478  0.4288  0.0552
13061SOL    HW151242   0.746   1.399   2.545  0.2733 -0.5864  0.8865
13061SOL    HW251243   0.875   1.437   2.638  0.3587  0.6686  0.2655
13062SOL     OW51244   5.949   1.128   2.091  0.3809 -0.5599 -0.5983
13062SOL    HW151245   5.953   1.160   1.997 -1.0409 -1.1403 -0.8678
13062SOL    HW251246   5.946   1.028   2.093  0.9430 -0.5702  0.0847
13063SOL     OW51247   7.197   4.594  10.080 -0.5490 -0.0550  0.0205
13063SOL    HW151248   7.285   4.553  10.100 -0.5020 -0.3126 -0.7031
13063SOL    HW251249   7.131   4.523  10.058 -0.9103  0.1467  0.4368
13064SOL     OW51250   9.579   5.099   5.869 -0.0613  0.3578 -0.3138
13064SOL    HW151251   9.672   5.135   5.873  0.4168 -0.7963 -0.9159
13064SOL    HW251252   9.551   5.067   5.959 -0.1519  1.3859  0.0258
13065SOL     OW51253   0.737   2.505   8.444 -0.0079 -0.3916  0.2984
13065SOL    HW151254   0.719   2.413   8.477 -1.5775 -0.1380  0.1836
13065SOL    HW251255   0.656   2.562   8.457  1.0349  1.0569  0.6295
13066SOL     OW51256   1.756   6.309   4.803  0.6014 -0.1321 -0.5801
13066SOL    HW151257   1.807   6.235   4.758  0.4999  0.4289 -1.6324
13066SOL    HW251258   1.811   6.392   4.804 -0.1387  0.3875 -1.4264
13067SOL     OW51259   3.350   8.721   7.367 -0.3883  0.2038 -0.1395
13067SOL    HW151260   3.319   8.695   7.276 -0.6153  0.9338 -0.2693
13067SOL    HW251261   3.311   8.658   7.435 -0.5623 -0.0771 -0.4998
13068SOL     OW51262   4.391   3.791   5.228 -0.1220 -0.0416 -0.6295
13068SOL    HW151263   4.375   3.755   5.136 -0.6269 -1.7151  0.0961
13068SOL    HW251264   4.310   3.842   5.259  0.3448  1.1772 -1.4094
13069SOL     OW51265   2.012   9.736   3.661  0.1000  0.1824  0.2113
13069SOL    HW151266   2.032   9.726   3.758  0.2005  1.8307  0.3798
13069SOL    HW251267   1.931   9.794   3.650 -0.7540 -1.1405 -0.6544
13070SOL     OW51268   4.776   9.731   3.197  0.0953 -0.4939  0.3141
13070SOL    HW151269   4.837   9.653   3.188 -1.3845 -1.4705 -1.5922
13070SOL    HW251270   4.788   9.793   3.119 -0.7484 -0.2568  0.3683
13071SOL     OW51271   3.699   4.486   4.356 -0.2912  0.1119 -0.1859
13071SOL    HW151272   3.693   4.550   4.279  0.9210  0.6322  0.1393
13071SOL    HW251273   3.607   4.465   4.389 -0.8677 -0.4629 -2.0456
13072SOL     OW51274   6.099   2.493   8.721  0.3196  0.7817 -0.1765
13072SOL    HW151275   6.143   2.480   8.632 -0.3187  0.0536 -0.3893
13072SOL    HW251276   6.001   2.509   8.708  0.2869  1.0690  0.3772
13073SOL     OW51277   4.917   8.278   5.505  0.0537 -0.0592  0.3978
13073SOL    HW151278   4.999   8.231   5.539 -1.1677 -0.4155  3.0006
13073SOL    HW251279   4.838   8.219   5.517 -0.7761  0.7729 -0.9120
13074SOL     OW51280   0.424   4.634   2.721  0.6133  0.3032 -0.3225
13074SOL    HW151281   0.458   4.694   2.648 -1.0267  0.2372 -1.1612
13074SOL    HW251282   0.337   4.594   2.694 -0.5914  1.1451  2.1380
13075SOL     OW51283   2.724   4.434   5.339  0.5082 -1.0929  0.3600
13075SOL    HW151284   2.696   4.423   5.435 -1.2281 -0.1953 -0.0399
13075SOL    HW251285   2.775   4.519   5.328 -1.1463 -0.1287  0.0806
13076SOL     OW51286   4.906   1.080   7.556 -0.5954 -0.0342 -0.1186
13076SOL    HW151287   4.880   1.093   7.652 -1.0321  0.8234 -0.3423
13076SOL    HW251288   4.962   1.158   7.526  2.9654 -2.2000  0.5773
13077SOL     OW51289   4.719   2.218   7.805  0.1533  0.7140  0.3426
13077SOL    HW151290   4.742   2.212   7.902  0.9550 -1.0245  0.0801
13077SOL    HW251291   4.776   2.153   7.754  0.0864  1.9569 -1.3545
13078SOL     OW51292   1.023   4.072   6.507  0.0935 -0.0680  0.1483
13078SOL    HW151293   1.095   4.035   6.449 -1.8938 -0.7546 -1.9859
13078SOL    HW251294   0.986   4.156   6.465 -0.8513 -0.1595  0.7827
13079SOL     OW51295   9.106   3.446   3.065  0.2180 -0.0108  0.0296
13079SOL    HW151296   9.012   3.419   3.041  0.2382 -0.9652  0.9941
13079SOL    HW251297   9.157   3.365   3.093  1.3300  0.5172 -0.4512
13080SOL     OW51298   1.086   7.978   8.607  0.3392  0.2216  0.5639
13080SOL    HW151299   1.045   7.888   8.622  1.0679 -0.3453 -0.7317
13080SOL    HW251300   1.135   7.978   8.520  1.8817  1.3275  1.4066
13081SOL     OW51301   2.763   3.153   4.855 -0.4221  0.0976  0.1375
13081SOL    HW151302   2.802   3.212   4.926 -0.2096  0.5386 -0.3507
13081SOL    HW251303   2.832   3.132   4.787 -1.3682  1.9366 -1.4332
13082SOL     OW51304   1.442   4.747   5.260  0.2879  0.0956  0.2809
13082SOL    HW151305   1.404   4.824   5.209  0.6257  0.6136  0.7975
13082SOL    HW251306   1.498   4.691   5.199  2.4739  1.9264  0.5440
13083SOL     OW51307   8.948   1.307   7.788 -0.0534  0.4612  0.1483
13083SOL    HW151308   8.890   1.349   7.718 -0.4043  1.3303  0.9493
13083SOL    HW251309   8.894   1.245   7.844 -0.5540  2.2789  1.7450
13084SOL     OW51310   3.219   7.403   8.107 -0.2064 -0.3962  0.4774
13084SOL    HW151311   3.270   7.478   8.067 -1.9632 -0.2827 -1.6554
13084SOL    HW251312   3.134   7.438   8.147 -1.1517 -1.2510 -0.7419
13085SOL     OW51313   5.365   4.920   0.268  0.2397 -0.3407  0.1635
13085SOL    HW151314   5.440   4.959   0.214 -0.2516  0.4576  0.0373
13085SOL    HW251315   5.342   4.830   0.233 -1.3064  0.9143 -2.1964
13086SOL     OW51316   3.947   0.180   0.561 -0.4309 -0.3814  0.2215
13086SOL    HW151317   3.956   0.279   0.566 -0.0506 -0.4543  1.2628
13086SOL    HW251318   4.030   0.141   0.522 -0.5954 -0.2883 -0.2215
13087SOL     OW51319   7.051   6.311   1.508  0.3936  0.0948  0.4218
13087SOL    HW151320   7.061   6.404   1.471 -1.9526  0.6877  1.1612
13087SOL    HW251321   7.008   6.253   1.439  1.1339 -0.2393  0.2418
13088SOL     OW51322   0.109   6.607   8.855 -0.4366 -0.0029  0.3698
13088SOL    HW151323   0.068   6.634   8.768  1.7352 -1.0977 -1.0472
13088SOL    HW251324   0.050   6.541   8.901 -0.7844 -0.7570 -1.1245
13089SOL     OW51325   7.816   1.752   1.493  0.4199  0.6499 -0.4564
13089SOL    HW151326   7.809   1.652   1.500  1.3807  0.7320  1.9846
13089SOL    HW251327   7.726   1.792   1.509  0.2819  0.2387 -0.1961
13090SOL     OW51328   2.828   2.386   1.854 -0.1515  0.6679  0.6956
13090SOL    HW151329   2.774   2.323   1.797 -1.3655  2.9015 -0.7249
13090SOL    HW251330   2.916   2.403   1.810 -0.4195  1.1071  0.3280
13091SOL     OW51331   4.625   0.335   0.149 -0.3142  0.1570  0.1219
13091SOL    HW151332   4.719   0.360   0.124 -0.4729 -1.2382 -1.9747
13091SOL    HW251333   4.613   0.236   0.142 -1.6616  0.2031  1.4294
13092SOL     OW51334   4.747   3.554   6.925 -0.0645  0.2076  0.1942
13092SOL    HW151335   4.805   3.635   6.929  1.9949 -1.0355 -2.9570
13092SOL    HW251336   4.769   3.500   6.844 -2.0418 -3.0361  1.6789
13093SOL     OW51337   7.525   1.618   3.833  0.6284 -0.4287  0.1426
13093SOL    HW151338   7.444   1.660   3.873 -0.6503 -2.1063 -0.6596
13093SOL    HW251339   7.558   1.544   3.892  1.6105  0.2738  0.4886
13094SOL     OW51340   0.585   1.581   0.038 -0.0186  0.2491 -0.1802
13094SOL    HW151341   0.518   1.507   0.043 -1.1480  1.2990  0.2643
13094SOL    HW251342   0.658   1.563   0.104 -1.0124  0.2478  0.9362
13095SOL     OW51343   2.968   2.515   7.432 -0.1721  0.1809  0.4818
13095SOL    HW151344   2.933   2.574   7.360 -0.4658 -0.6605 -0.0595
13095SOL    HW251345   3.009   2.433   7.392  2.7987  1.3172  1.0574
13096SOL     OW51346   0.690   0.556   8.641 -0.3544 -0.5675 -0.2085
13096SOL    HW151347   0.746   0.502   8.578  0.4564  1.2117 -1.0390
13096SOL    HW251348   0.671   0.501   8.723  2.9938 -1.0808  0.3154
13097SOL     OW51349   2.408   7.011   7.825 -0.2117 -0.2036 -0.4758
13097SOL    HW151350   2.405   7.062   7.912  0.2361  0.8053 -1.0497
13097SOL    HW251351   2.317   7.011   7.784 -0.6080 -1.3720  0.3852
13098SOL     OW51352   2.725   9.453   8.238 -0.9693 -0.4209 -0.1618
13098SOL    HW151353   2.782   9.397   8.297  0.1779 -1.2712 -2.0351
13098SOL    HW251354   2.661   9.506   8.294 -1.3340 -2.7453  1.6988
13099SOL     OW51355   8.037   7.430   1.166  0.6420 -1.0485 -0.0440
13099SOL    HW151356   7.946   7.469   1.181  0.7205 -0.1079 -1.8180
13099SOL    HW251357   8.073   7.464   1.079  2.6691 -1.4597  0.6166
13100SOL     OW51358   1.391   2.369   3.549 -0.0042  0.7956 -0.0578
13100SOL    HW151359   1.385   2.281   3.595  0.6424  0.5186 -0.5048
13100SOL    HW251360   1.392   2.442   3.617  3.2856  0.2870  0.5027
13101SOL     OW51361   3.348   9.080   9.754  0.2929  0.1804  0.3672
13101SOL    HW151362   3.384   9.103   9.845 -0.0259  0.5235  0.4074
13101SOL    HW251363   3.285   9.002   9.762  0.2957  0.1844  0.4330
13102SOL     OW51364   7.069   7.260   3.172 -0.4212  0.3946 -0.0378
13102SOL    HW151365   7.021   7.249   3.259  0.8456 -0.9704  0.5058
13102SOL    HW251366   7.167   7.264   3.188 -0.1399 -0.3682 -1.4479
13103SOL     OW51367   9.838   2.266   3.281 -0.2802 -0.0013 -0.6911
13103SOL    HW151368   9.811   2.343   3.339  1.5145  0.4849 -0.4665
13103SOL    HW251369   9.879   2.194   3.338  1.2929  0.3876 -1.2929
13104SOL     OW51370   0.312   5.105   9.474  0.0397  0.0031 -0.6845
13104SOL    HW151371   0.369   5.185   9.494  0.4374 -0.4974  0.2298
13104SOL    HW251372   0.370   5.024   9.467 -0.5893 -0.5980  0.7762
13105SOL     OW51373   3.733   6.722   0.509  0.7593  0.2493  0.7250
13105SOL    HW151374   3.788   6.779   0.570  2.9630 -0.7365 -0.2717
13105SOL    HW251375   3.772   6.630   0.506  1.6771  0.6718 -3.3896
13106SOL     OW51376   2.948   5.950   7.070 -0.3177 -0.4003  0.4691
13106SOL    HW151377   2.896   6.034   7.087  0.3935  0.0525  0.4423
13106SOL    HW251378   2.891   5.870   7.091 -0.9338  0.0913  0.6810
13107SOL     OW51379   2.687   7.925   0.511 -0.2165 -0.2703  0.7568
13107SOL    HW151380   2.679   8.000   0.577 -2.9801 -0.1266  0.3236
13107SOL    HW251381   2.630   7.945   0.431  0.9065 -1.7322 -0.4396
13108SOL     OW51382   6.038   1.234   9.497 -0.7671  0.5436 -1.0009
13108SOL    HW151383   6.001   1.242   9.590 -0.6651  1.8282 -1.0607
13108SOL    HW251384   6.127   1.280   9.492  0.3100 -1.4928 -1.1635
13109SOL     OW51385   1.989   4.619   3.994  0.0346 -0.0094  0.2322
13109SOL    HW151386   1.972   4.532   4.040  1.2692 -1.3221 -1.7297
13109SOL    HW251387   2.025   4.685   4.060  2.3876 -2.0522  1.0832
13110SOL     OW51388   2.332   9.827   3.997  0.4844  0.3992 -1.2195
13110SOL    HW151389   2.286   9.891   4.058  0.4656  0.3938 -1.2281
13110SOL    HW251390   2.288   9.738   4.002  0.7145  0.2990 -0.9630
13111SOL     OW51391   4.583   9.077   2.866 -0.2819 -0.4366 -0.0672
13111SOL    HW151392   4.594   9.151   2.801 -0.5746 -0.4082 -0.0835
13111SOL    HW251393   4.654   9.084   2.937 -0.7995  0.3265  0.3823
13112SOL     OW51394   9.049   9.119   9.751 -0.0738 -0.2454  1.1207
13112SOL    HW151395   9.029   9.149   9.658 -0.1014  2.0443  1.8417
13112SOL    HW251396   9.083   9.025   9.749  0.5782  0.0125 -1.2624
13113SOL     OW51397   1.896   8.353  10.079 -0.2292 -0.5559  0.1635
13113SOL    HW151398   1.821   8.287  10.085 -0.3799 -0.4209 -0.2126
13113SOL    HW251399   1.979   8.308  10.048 -0.2426 -0.6385  0.2459
13114SOL     OW51400   0.781   2.676   9.172 -0.0147  0.3277  0.6032
13114SOL    HW151401   0.741   2.755   9.219 -3.5002 -2.1590  2.0281
13114SOL    HW251402   0.841   2.626   9.235  0.8134  0.8576  0.2402
13115SOL     OW51403   0.795   0.426   8.410 -0.2042  0.4453  0.1804
13115SOL    HW151404   0.817   0.473   8.325  0.6369 -2.7410 -1.4298
13115SOL    HW251405   0.732   0.350   8.392  0.5804 -0.7517  2.2452
13116SOL     OW51406   2.011   4.063   2.658 -0.3340 -0.4551  0.4853
13116SOL    HW151407   1.981   4.052   2.753 -1.6518  1.5315  0.3354
13116SOL    HW251408   1.935   4.097   2.603  0.7019 -0.6208 -1.0718
13117SOL     OW51409   8.393   4.213   3.636  0.3825  0.1284 -0.0271
13117SOL    HW151410   8.401   4.312   3.628  2.9563 -0.0329  0.0921
13117SOL    HW251411   8.385   4.172   3.545  0.6268  0.3556 -0.1496
13118SOL     OW51412   3.836   6.021   3.668  0.3977 -0.2800  0.4203
13118SOL    HW151413   3.918   6.057   3.713 -0.8464  0.9506  1.7765
13118SOL    HW251414   3.838   6.043   3.571  1.5951 -0.0915  0.4869
13119SOL     OW51415   3.365   5.630   2.603 -0.4129 -0.7509 -0.0915
13119SOL    HW151416   3.372   5.532   2.586 -1.5895 -1.2160  1.9774
13119SOL    HW251417   3.344   5.677   2.518  0.4527 -2.2472 -1.1645
13120SOL     OW51418   2.864   2.737   5.561 -0.3032  0.0430  0.0143
13120SOL    HW151419   2.843   2.721   5.658  2.6364 -0.0527  0.6673
13120SOL    HW251420   2.828   2.661   5.507 -3.0577  0.6875  0.8249
13121SOL     OW51421   0.652   4.435   1.354  0.0848 -0.4886  0.1327
13121SOL    HW151422   0.617   4.385   1.274  1.2103 -1.9780  0.5459
13121SOL    HW251423   0.588   4.424   1.430 -1.4728  1.7245 -0.8032
13122SOL     OW51424   3.829   6.027   9.510 -0.6038  0.7298  0.5401
13122SOL    HW151425   3.747   5.976   9.482  0.8932 -1.0447 -0.7032
13122SOL    HW251426   3.823   6.120   9.473 -1.6664  0.3639 -0.2479
13123SOL     OW51427   4.023   5.461   7.918 -0.0176 -0.7019  0.3500
13123SOL    HW151428   3.992   5.498   8.006  1.4297  0.3388  0.4509
13123SOL    HW251429   3.946   5.421   7.869 -1.4654  1.5119  0.7333
13124SOL     OW51430   4.618   6.816   2.491  0.0534  0.3942  0.1102
13124SOL    HW151431   4.671   6.900   2.505 -0.3029  0.5107  0.7693
13124SOL    HW251432   4.681   6.741   2.470  0.3223  0.9739 -1.2385
13125SOL     OW51433   7.577   5.324   2.112  0.1256  0.2512  0.6340
13125SOL    HW151434   7.530   5.395   2.165  1.2656  0.6701  1.0984
13125SOL    HW251435   7.676   5.340   2.115  0.3399 -0.9155  0.0908
13126SOL     OW51436   9.456   0.079   1.159  0.1146 -0.5902 -0.3635
13126SOL    HW151437   9.486   0.158   1.106 -0.7510  0.7180  1.0817
13126SOL    HW251438   9.526   0.008   1.154  0.5383 -0.0683 -2.3377
13127SOL     OW51439   9.646   1.584   6.989  0.7765  0.1491  0.7273
13127SOL    HW151440   9.599   1.496   6.992  0.0267  0.4215 -1.9432
13127SOL    HW251441   9.742   1.572   7.012  0.4546 -1.1946  1.3917
13128SOL     OW51442   2.356   2.401   0.914  0.0087  0.0037  0.4018
13128SOL    HW151443   2.410   2.485   0.914  1.2449 -0.7656 -1.3208
13128SOL    HW251444   2.408   2.328   0.960 -0.2522 -0.3258  0.1711
13129SOL     OW51445   6.274   5.864   1.290  0.6430  0.4007  0.0770
13129SOL    HW151446   6.335   5.849   1.213  2.0974 -0.1643  1.3101
13129SOL    HW251447   6.325   5.904   1.366 -0.5268 -0.0506  1.1221
13130SOL     OW51448   0.825   3.978   6.257 -0.3602  0.0124 -0.2530
13130SOL    HW151449   0.818   4.065   6.306 -0.2550 -0.2584  0.2488
13130SOL    HW251450   0.845   3.904   6.322 -0.9708 -0.4669 -0.6038
13131SOL     OW51451   8.511   7.520   7.454 -0.2385  0.8313  0.7997
13131SOL    HW151452   8.468   7.578   7.384 -0.8556  1.5178  1.7490
13131SOL    HW251453   8.609   7.510   7.432 -0.6007  0.3062 -0.6514
13132SOL     OW51454   1.631   6.357   8.076 -0.1197 -0.0367  0.4702
13132SOL    HW151455   1.659   6.261   8.072  1.2506  0.3399  0.4252
13132SOL    HW251456   1.643   6.399   7.985 -0.8715  0.1310  0.4476
13133SOL     OW51457   8.592   3.048   7.566  0.6365 -0.0840  0.3273
13133SOL    HW151458   8.670   3.050   7.504 -0.9255  1.6268 -1.6636
13133SOL    HW251459   8.571   3.142   7.595 -0.5547 -0.5610  1.0215
13134SOL     OW51460   7.797   8.509   5.003  0.0103 -0.0925  0.5344
13134SOL    HW151461   7.876   8.467   5.048  0.2322 -0.2138  0.0472
13134SOL    HW251462   7.825   8.597   4.963 -0.2741  0.1834  0.9403
13135SOL     OW51463   6.830   2.017   3.857  0.2480  0.1998  0.0324
13135SOL    HW151464   6.834   1.922   3.886 -0.1282 -0.0103 -0.5894
13135SOL    HW251465   6.747   2.032   3.803  0.0942  0.9761  0.4735
13136SOL     OW51466   7.624   3.828   5.297  0.4191 -0.1702 -0.3937
13136SOL    HW151467   7.720   3.802   5.309  0.5909  0.0502 -1.2349
13136SOL    HW251468   7.594   3.802   5.205  0.0732  0.9838 -0.6142
13137SOL     OW51469   9.405   0.202   3.959  0.7316  0.1808  0.3237
13137SOL    HW151470   9.429   0.143   4.036  0.1915  0.1361  0.4667
13137SOL    HW251471   9.340   0.272   3.991 -0.9946 -0.9964 -0.4976
13138SOL     OW51472   7.138   4.726   0.875  0.3345  0.0008  0.4695
13138SOL    HW151473   7.205   4.792   0.910  1.1602 -1.9377  2.7158
13138SOL    HW251474   7.101   4.672   0.951 -2.2066 -0.4312 -0.9996
13139SOL     OW51475   7.197   6.188   0.468  0.0552  0.1832 -0.0502
13139SOL    HW151476   7.193   6.090   0.448  1.5390 -0.1627  1.1808
13139SOL    HW251477   7.161   6.205   0.560 -0.9099  0.9041 -0.5537
13140SOL     OW51478   0.020   1.590   3.627 -0.3772  0.0253  0.1280
13140SOL    HW151479  -0.037   1.525   3.677 -2.0900  2.0652  0.9299
13140SOL    HW251480   0.082   1.636   3.691 -0.9828  1.0157  0.0099
13141SOL     OW51481   0.289   6.123   0.810 -0.4733  0.0428 -0.4902
13141SOL    HW151482   0.216   6.108   0.743 -0.6483  0.4245 -0.3891
13141SOL    HW251483   0.321   6.036   0.845 -1.2744 -0.1057 -0.1140
13142SOL     OW51484   2.731   3.236   2.748  0.1494 -0.0733  0.5136
13142SOL    HW151485   2.795   3.268   2.817  0.8629 -0.1643 -0.1006
13142SOL    HW251486   2.695   3.315   2.697 -0.2903 -0.0161  0.9051
13143SOL     OW51487   5.170   0.556   5.437  0.3760 -0.1708  0.2059
13143SOL    HW151488   5.130   0.564   5.529  0.2922  0.2924  0.1311
13143SOL    HW251489   5.126   0.481   5.388  1.5786 -1.5011  1.1344
13144SOL     OW51490   8.526   9.882   0.806  0.9459  0.2022  0.5262
13144SOL    HW151491   8.579   9.801   0.833  1.4481  0.2232 -0.4037
13144SOL    HW251492   8.494   9.871   0.712  0.5585  0.8477  0.5847
13145SOL     OW51493   1.211   7.751   9.225  0.3551  0.2668 -0.1498
13145SOL    HW151494   1.169   7.680   9.282  0.4186 -0.0699 -0.5222
13145SOL    HW251495   1.211   7.721   9.130  1.1279  0.4119 -0.1991
13146SOL     OW51496   1.895   0.266   9.229 -0.5845 -0.1912 -0.2935
13146SOL    HW151497   1.834   0.331   9.184 -0.1743  0.6495  0.3468
13146SOL    HW251498   1.949   0.218   9.160 -3.0924 -2.1034 -0.9650
13147SOL     OW51499   0.252   1.659   8.227 -0.1816  0.1147  0.0090
13147SOL    HW151500   0.294   1.682   8.314 -0.4848 -0.4539  0.3033
13147SOL    HW251501   0.322   1.653   8.156  0.0866  0.3706  0.2503
13148SOL     OW51502   1.843   2.033   9.751  0.1532  0.4248  0.0979
13148SOL    HW151503   1.903   2.021   9.830  0.4982  0.5667 -0.1424
13148SOL    HW251504   1.861   1.961   9.684 -0.0372  0.3883  0.0876
13149SOL     OW51505   7.447   5.609   8.668  0.0201  0.7748  0.1168
13149SOL    HW151506   7.387   5.564   8.734 -0.1272 -0.1570 -0.6439
13149SOL    HW251507   7.417   5.704   8.654 -0.1715  0.8617  1.0979
13150SOL     OW51508   2.633   8.184   3.409  0.3530  0.4493  0.2084
13150SOL    HW151509   2.536   8.164   3.421  0.3183  1.3978  1.6951
13150SOL    HW251510   2.646   8.233   3.322 -0.3749 -0.4134 -0.3962
13151SOL     OW51511   9.359   9.393   9.712  0.6368  0.0840 -0.6250
13151SOL    HW151512   9.429   9.422   9.647  0.5486  1.0947 -0.2625
13151SOL    HW251513   9.388   9.416   9.805 -0.4340  1.0046 -0.5199
13152SOL     OW51514   0.677   7.197   2.035  0.4842 -0.4416  0.0404
13152SOL    HW151515   0.702   7.218   2.130 -0.8201 -0.4208  0.3841
13152SOL    HW251516   0.669   7.282   1.983  0.7155 -0.4276  0.0245
13153SOL     OW51517   9.704   4.971   4.623 -0.2855  0.0192  0.0449
13153SOL    HW151518   9.770   5.028   4.671  0.2891 -1.3481  0.9064
13153SOL    HW251519   9.645   4.925   4.689 -1.2691  0.2382 -0.6705
13154SOL     OW51520   8.385   4.403   4.168  0.3562  0.1362  0.2684
13154SOL    HW151521   8.456   4.346   4.127  0.7931  0.8040  0.0857
13154SOL    HW251522   8.296   4.356   4.162  0.2952  0.5388 -2.0793
13155SOL     OW51523   4.122   6.075   4.244  0.8950 -0.0640 -0.0911
13155SOL    HW151524   4.031   6.058   4.282  1.4403  0.3722  1.4799
13155SOL    HW251525   4.163   5.989   4.213 -0.4506 -0.1193 -1.7688
13156SOL     OW51526   1.236   5.006   7.499  0.1567 -0.2228  0.2739
13156SOL    HW151527   1.320   5.013   7.553 -0.0069 -4.0801  1.1672
13156SOL    HW251528   1.256   5.028   7.404  1.1007  3.5659  1.2360
13157SOL     OW51529   2.341   3.681   2.061 -0.0190 -0.0815  0.4041
13157SOL    HW151530   2.362   3.709   2.154 -0.1455  0.9506  0.1359
13157SOL    HW251531   2.313   3.585   2.060  2.4310 -0.8364  1.0620
13158SOL     OW51532   5.193   9.404   7.313 -0.6167  0.3260  0.0678
13158SOL    HW151533   5.102   9.389   7.275 -0.8239  0.7389  0.4006
13158SOL    HW251534   5.262   9.370   7.248 -0.8875  2.8011 -1.6062
13159SOL     OW51535   1.657   8.144   1.751  0.0426 -0.0973  0.7083
13159SOL    HW151536   1.619   8.053   1.733  0.2308 -0.0274 -0.0417
13159SOL    HW251537   1.596   8.214   1.714 -1.0728  0.1706  2.9573
13160SOL     OW51538   0.517   3.198   3.427 -0.6927 -0.1244 -0.1934
13160SOL    HW151539   0.580   3.129   3.462  0.0379  0.4764 -0.3020
13160SOL    HW251540   0.504   3.269   3.496 -1.6237 -0.4833  0.0068
13161SOL     OW51541   2.500   9.702   6.853  0.4961  0.3260 -0.2588
13161SOL    HW151542   2.571   9.661   6.911  0.6302  2.0129  0.8063
13161SOL    HW251543   2.418   9.717   6.908 -0.1060 -0.0348 -1.0594
13162SOL     OW51544   3.356   5.700   1.574 -0.0541 -0.6589 -0.3223
13162SOL    HW151545   3.302   5.693   1.658  0.8424  0.0179  0.3296
13162SOL    HW251546   3.347   5.792   1.536 -0.3634 -0.9277 -0.9099
13163SOL     OW51547   3.193   9.837   9.318  0.5114 -0.1034 -0.1210
13163SOL    HW151548   3.244   9.919   9.347 -1.2936  0.6135  1.0916
13163SOL    HW251549   3.119   9.864   9.256 -0.4069 -0.7545  0.6767
13164SOL     OW51550   8.144   4.741   3.543 -0.1059  0.6814 -0.4534
13164SOL    HW151551   8.103   4.830   3.562  0.9903  1.4386 -1.5253
13164SOL    HW251552   8.209   4.750   3.468  1.0052 -0.7670  0.3102
13165SOL     OW51553   4.512   4.701   3.192 -0.2480 -0.1712  0.3061
13165SOL    HW151554   4.562   4.679   3.108  0.1050  2.5998 -0.2529
13165SOL    HW251555   4.414   4.692   3.176 -0.1192 -1.5462  0.1901
13166SOL     OW51556   3.973   4.091   3.996 -0.1322  0.1532  0.0007
13166SOL    HW151557   3.953   4.133   4.084  0.4651  1.5901 -0.5265
13166SOL    HW251558   3.979   4.163   3.926  1.3123 -0.7669 -0.8489
13167SOL     OW51559   4.411   6.156   2.431  0.1493 -0.8134  0.2902
13167SOL    HW151560   4.444   6.114   2.516 -1.5956 -0.5442  1.1276
13167SOL    HW251561   4.370   6.086   2.373  0.4572 -0.8380  0.0996
13168SOL     OW51562   7.507   6.315   1.281  0.1997  0.0482  0.3470
13168SOL    HW151563   7.586   6.268   1.242 -1.5229  0.0776 -3.3838
13168SOL    HW251564   7.517   6.413   1.267  0.3513  0.2210  1.5890
13169SOL     OW51565   6.003   2.622   2.042 -0.6106  0.1909  0.3549
13169SOL    HW151566   6.004   2.610   1.943 -1.2705 -0.4765  0.4310
13169SOL    HW251567   6.083   2.579   2.082  0.3706  1.6243 -0.0175
13170SOL     OW51568   8.316   5.692   6.389  0.4223 -0.0348 -0.1168
13170SOL    HW151569   8.388   5.661   6.327  1.4200 -1.9481  1.9503
13170SOL    HW251570   8.348   5.773   6.440  0.4389  0.1787 -0.4639
13171SOL     OW51571   4.021   2.759   1.711 -0.1070  0.2822 -0.3004
13171SOL    HW151572   4.096   2.732   1.651  0.4504 -0.9658  0.9395
13171SOL    HW251573   3.995   2.682   1.769 -0.9957  1.3120  0.6999
13172SOL     OW51574   4.693   2.018   9.643  0.0621  0.0114  0.0828
13172SOL    HW151575   4.651   1.999   9.732  0.5937 -1.4886  0.0194
13172SOL    HW251576   4.631   2.076   9.589 -0.8440 -0.1693  0.9156
13173SOL     OW51577   0.894   0.842   8.025  0.0872  0.0679  0.1188
13173SOL    HW151578   0.943   0.812   8.107  0.4892 -1.2007 -0.5627
13173SOL    HW251579   0.960   0.851   7.949 -0.2580  1.3438 -0.0402
13174SOL     OW51580   2.306   1.339   9.168  0.5426 -0.3635 -0.0930
13174SOL    HW151581   2.267   1.353   9.077 -0.8318 -1.6361  0.2746
13174SOL    HW251582   2.340   1.426   9.204 -0.1783  0.3975 -1.2394
13175SOL     OW51583   6.573   1.064   4.071 -0.6185  0.6629 -0.4250
13175SOL    HW151584   6.639   1.047   4.144  1.4031  0.7599 -2.1710
13175SOL    HW251585   6.495   1.113   4.107  0.2163  0.4520  1.7252
13176SOL     OW51586   1.374   8.190   6.992  0.2560 -0.2921 -0.0035
13176SOL    HW151587   1.346   8.238   7.075 -1.7713 -2.2878  0.4994
13176SOL    HW251588   1.346   8.244   6.912  3.0401  2.0982  0.5211
13177SOL     OW51589   5.240   7.833   1.108  0.0153 -0.2646 -0.1116
13177SOL    HW151590   5.241   7.920   1.059 -1.6287 -0.2455 -0.1226
13177SOL    HW251591   5.239   7.850   1.206 -0.8120 -0.2770 -0.1219
13178SOL     OW51592   7.042   3.773   3.365 -0.3233 -0.0454  0.1848
13178SOL    HW151593   7.010   3.719   3.443 -1.1033 -0.5810 -0.5077
13178SOL    HW251594   7.106   3.719   3.311  0.2871  0.3583  0.5004
13179SOL     OW51595   0.299   4.737   5.589 -0.0148  0.2368  0.0896
13179SOL    HW151596   0.344   4.736   5.500  0.9894 -0.4027  0.6004
13179SOL    HW251597   0.359   4.696   5.658 -0.6199  1.0880  1.1420
13180SOL     OW51598   7.475   5.623   2.084 -0.2772  0.1330  0.1165
13180SOL    HW151599   7.521   5.583   2.004  0.5116 -1.0004  1.1088
13180SOL    HW251600   7.529   5.699   2.119  0.1390 -0.3087  0.4443
13181SOL     OW51601   4.081   5.077   1.483 -0.4738 -0.5993 -0.1512
13181SOL    HW151602   4.017   5.116   1.417  0.8844  0.7289 -0.7110
13181SOL    HW251603   4.140   5.010   1.438 -0.5907 -0.8507  0.0665
13182SOL     OW51604   7.823   5.116   5.344 -0.1824 -0.1834  0.0942
13182SOL    HW151605   7.792   5.021   5.338  0.9469 -0.6670  1.6044
13182SOL    HW251606   7.819   5.146   5.440 -0.8646  1.4113 -0.4214
13183SOL     OW51607   7.993   9.375   8.919 -0.0382  0.4956 -0.3884
13183SOL    HW151608   7.941   9.442   8.971 -0.4323  0.4963 -0.7803
13183SOL    HW251609   8.091   9.398   8.923 -0.1141  0.7548 -0.0317
13184SOL     OW51610   5.953   1.829   9.356 -0.1404 -0.1994  0.0262
13184SOL    HW151611   6.049   1.807   9.337 -0.4602 -0.2307 -1.6375
13184SOL    HW251612   5.912   1.874   9.276 -1.8271 -1.2531  0.2581
13185SOL     OW51613   4.421   4.557   1.528 -0.1991  0.1057 -0.1187
13185SOL    HW151614   4.340   4.611   1.507 -1.4900 -1.8557 -0.3317
13185SOL    HW251615   4.416   4.470   1.480  2.2156  0.0949 -0.3936
13186SOL     OW51616   7.358   7.356   5.078  0.7769 -0.4900  0.2783
13186SOL    HW151617   7.339   7.363   5.176  0.9354  2.5377  0.1641
13186SOL    HW251618   7.442   7.303   5.064  1.9852  0.9046  1.9704
13187SOL     OW51619   6.522   0.583   5.752 -0.6799  0.1990  0.5431
13187SOL    HW151620   6.553   0.528   5.675  0.3578  1.3011  0.1505
13187SOL    HW251621   6.552   0.540   5.838  0.7596  0.5041  0.2158
13188SOL     OW51622   2.807   8.071   8.108 -0.7018  0.4872  0.4847
13188SOL    HW151623   2.808   7.978   8.146 -1.2749  0.5985  0.7828
13188SOL    HW251624   2.730   8.122   8.148 -0.8538  0.8435 -0.2638
13189SOL     OW51625   2.524   0.029   6.732 -0.1845  0.2480  0.0711
13189SOL    HW151626   2.587  -0.041   6.767  0.6252  1.5319  1.2621
13189SOL    HW251627   2.440  -0.014   6.701  0.8397 -1.3891 -0.4806
13190SOL     OW51628   0.698   9.785   3.573 -0.1105 -0.2852 -0.3573
13190SOL    HW151629   0.654   9.862   3.619 -1.0553 -0.1641 -1.4557
13190SOL    HW251630   0.630   9.734   3.520  1.0913 -0.0152 -2.2043
13191SOL     OW51631   0.058   2.846   8.346  0.0008 -0.0602  0.0401
13191SOL    HW151632   0.096   2.785   8.416  0.7295  1.3286  0.8826
13191SOL    HW251633   0.106   2.831   8.259  1.9377  1.0492  0.8766
13192SOL     OW51634   7.640   5.600   0.372  0.1816 -0.1790  0.0616
13192SOL    HW151635   7.577   5.677   0.384  1.9094  1.5439 -1.6531
13192SOL    HW251636   7.703   5.619   0.297  1.2200 -2.9072  0.1737
13193SOL     OW51637   1.578   1.500   1.601 -0.1865  0.5264  0.3381
13193SOL    HW151638   1.549   1.416   1.556 -3.8261  0.5698  2.4035
13193SOL    HW251639   1.599   1.569   1.532  0.6216 -1.3572 -1.3442
13194SOL     OW51640   4.452   9.250   2.405  0.0440  0.2296  0.9905
13194SOL    HW151641   4.381   9.320   2.415 -0.6601  0.2413 -3.2756
13194SOL    HW251642   4.413   9.171   2.357  2.1731 -0.9782  1.2066
13195SOL     OW51643   8.753   7.084   6.172  0.2235 -0.4043 -0.0783
13195SOL    HW151644   8.750   6.998   6.222 -0.8998  0.4024  1.2867
13195SOL    HW251645   8.760   7.160   6.236 -1.6173  0.6714 -1.1102
13196SOL     OW51646   8.775   4.347   8.779 -0.3504 -0.0577  0.3249
13196SOL    HW151647   8.789   4.249   8.797  2.4469  0.4812  1.4018
13196SOL    HW251648   8.814   4.370   8.690  0.9382  0.4578  1.0069
13197SOL     OW51649   2.057   2.904   6.421  0.3771  0.3468  0.0236
13197SOL    HW151650   1.986   2.934   6.357  0.1511  1.2847  0.6996
13197SOL    HW251651   2.142   2.888   6.370 -0.0525  0.1523 -0.6480
13198SOL     OW51652   8.450   8.890   4.148  0.1816 -0.3973 -0.1489
13198SOL    HW151653   8.518   8.895   4.074  0.4392  0.2448  0.1234
13198SOL    HW251654   8.436   8.794   4.174  0.1545 -0.6187 -0.9681
13199SOL     OW51655   1.388   1.390   8.723  0.4295  0.2987  0.0755
13199SOL    HW151656   1.479   1.406   8.687  0.0798  0.5015 -0.7311
13199SOL    HW251657   1.392   1.384   8.823  1.2035  1.1297  0.1011
13200SOL     OW51658   1.341   0.175   6.975  0.0846 -0.0086 -0.3111
13200SOL    HW151659   1.267   0.195   7.039  0.6889 -1.2710  0.8146
13200SOL    HW251660   1.305   0.173   6.881 -1.7362 -2.6573  0.3829
13201SOL     OW51661   2.237   4.478   3.399  0.3838  0.5626 -0.1735
13201SOL    HW151662   2.176   4.480   3.320  1.4487 -1.4856 -1.0761
13201SOL    HW251663   2.323   4.522   3.376  1.1309 -1.0573 -0.5678
13202SOL     OW51664   1.605   9.467   0.439  0.5728  0.1039 -0.3177
13202SOL    HW151665   1.587   9.565   0.447 -1.2737 -0.1547 -1.1539
13202SOL    HW251666   1.613   9.442   0.343 -0.6423 -0.8575 -0.1769
13203SOL     OW51667   6.872   7.451   5.451 -0.6126 -0.3127 -0.1070
13203SOL    HW151668   6.875   7.408   5.360 -0.9074  0.2088 -0.3687
13203SOL    HW251669   6.853   7.549   5.440 -2.6032 -0.5883  0.5928
13204SOL     OW51670   8.537   6.245   7.375  0.3666 -0.5570 -0.6504
13204SOL    HW151671   8.594   6.174   7.415 -1.0826 -1.4979 -0.1847
13204SOL    HW251672   8.449   6.206   7.349 -1.1488  1.4092  1.2641
13205SOL     OW51673   9.119   7.271   5.045  0.5810  0.4514  0.3359
13205SOL    HW151674   9.032   7.307   5.079 -0.5582 -1.4538 -0.4537
13205SOL    HW251675   9.119   7.274   4.945  1.2019 -0.0093  0.3221
13206SOL     OW51676   1.514   0.067   2.244  0.3494 -0.1976 -0.6871
13206SOL    HW151677   1.488  -0.026   2.271  0.0726  0.1671  0.3281
13206SOL    HW251678   1.539   0.120   2.325  1.1834  0.4136 -1.3347
13207SOL     OW51679   1.750   2.227   5.866  0.4428 -0.4692 -0.1489
13207SOL    HW151680   1.752   2.147   5.926  1.3703 -0.3029  0.0520
13207SOL    HW251681   1.825   2.289   5.890 -0.1056  0.3271 -0.4868
13208SOL     OW51682   2.771   3.724   5.040  0.4954 -0.1225 -0.6213
13208SOL    HW151683   2.784   3.785   5.118  2.4689 -1.0210 -0.2348
13208SOL    HW251684   2.801   3.770   4.956  1.4250 -0.3411 -0.4105
13209SOL     OW51685   9.658   7.774   7.206 -0.1072 -0.0870 -0.0131
13209SOL    HW151686   9.630   7.715   7.131  0.6868  0.7604 -0.9892
13209SOL    HW251687   9.619   7.865   7.194 -2.1480 -0.6294  2.0074
13210SOL     OW51688   3.535   7.121   8.364  0.0952  0.3699 -0.0979
13210SOL    HW151689   3.589   7.062   8.303  0.8326  3.0875 -2.1527
13210SOL    HW251690   3.450   7.148   8.318 -0.3614  0.7198  0.9250
13211SOL     OW51691   7.410   9.609   4.107 -0.4135  0.3854 -0.7806
13211SOL    HW151692   7.357   9.633   4.025 -0.8799 -2.1407 -1.2574
13211SOL    HW251693   7.459   9.524   4.091  1.1322  0.9334  0.8821
13212SOL     OW51694   1.732   2.390   2.182  0.0589 -0.0798 -0.3410
13212SOL    HW151695   1.783   2.475   2.194 -0.6478  0.5208 -1.5590
13212SOL    HW251696   1.790   2.313   2.209  0.2341  0.8497  2.0843
13213SOL     OW51697   7.067   4.741   7.427  0.7436 -0.4289 -0.5134
13213SOL    HW151698   7.142   4.687   7.464  0.5156  0.0102  0.6117
13213SOL    HW251699   6.982   4.690   7.434  0.5416  0.0356  0.4712
13214SOL     OW51700   8.913   7.553   8.341  0.0815  0.0096  0.2648
13214SOL    HW151701   8.816   7.574   8.328  0.4728  1.7620  0.1468
13214SOL    HW251702   8.962   7.563   8.255  0.5496  0.0950  0.5346
13215SOL     OW51703   8.224   6.599   4.738 -0.0196  0.4215  0.1010
13215SOL    HW151704   8.251   6.619   4.644 -0.6048 -0.8725 -0.3567
13215SOL    HW251705   8.276   6.520   4.772 -0.8986 -0.0749  0.3251
13216SOL     OW51706   4.536   6.203   9.527 -0.0074  0.6100 -0.4951
13216SOL    HW151707   4.438   6.217   9.513  0.1387  1.3569 -0.8072
13216SOL    HW251708   4.579   6.290   9.552  0.2582 -0.1026  1.5625
13217SOL     OW51709   4.355   8.210   2.198 -0.7404  0.4408  0.1695
13217SOL    HW151710   4.348   8.293   2.143 -0.4014  1.3017  1.4288
13217SOL    HW251711   4.266   8.162   2.197 -0.5206  0.0231 -1.7640
13218SOL     OW51712   8.278   5.022   4.089  0.7529  0.1736 -0.4612
13218SOL    HW151713   8.219   4.958   4.041  2.4742  0.2095 -2.6958
13218SOL    HW251714   8.233   5.111   4.096 -0.9198 -0.7613  1.1134
13219SOL     OW51715   7.467   4.731   9.929 -0.2747 -0.0059  0.1861
13219SOL    HW151716   7.540   4.799   9.922  0.8209 -1.1247  0.6005
13219SOL    HW251717   7.445   4.715  10.025 -1.7344  1.0135  0.0396
13220SOL     OW51718   4.483   2.041   6.046  0.3966 -0.1847  0.2982
13220SOL    HW151719   4.464   1.956   5.997 -0.2708  1.2952 -2.1031
13220SOL    HW251720   4.397   2.083   6.074  0.5846  1.1603 -1.1145
13221SOL     OW51721   0.651   3.888   8.738 -0.3654  1.1052 -0.6416
13221SOL    HW151722   0.561   3.846   8.728  0.6108 -1.4910  0.8631
13221SOL    HW251723   0.649   3.981   8.703 -3.9905  1.5785  0.6356
13222SOL     OW51724   9.554   9.908   3.428  0.2129  0.1919  0.2844
13222SOL    HW151725   9.611   9.851   3.368  0.3871 -0.9311  1.4984
13222SOL    HW251726   9.612   9.973   3.477  0.1402  0.7240 -0.3386
13223SOL     OW51727   0.117   3.178   1.515 -0.0228 -0.1597  0.5144
13223SOL    HW151728   0.038   3.231   1.482  0.1682  0.3104  0.8110
13223SOL    HW251729   0.146   3.115   1.444 -0.0193  0.3928  0.0199
13224SOL     OW51730   6.723   2.155   9.497 -0.2332  0.2786 -0.2123
13224SOL    HW151731   6.669   2.145   9.581 -1.1094  1.1798 -0.6471
13224SOL    HW251732   6.802   2.094   9.500 -1.7087 -1.6578  0.1001
13225SOL     OW51733   5.594   2.870   8.526  0.1621 -0.2641 -0.6164
13225SOL    HW151734   5.532   2.940   8.490  1.3277  0.4667 -1.2533
13225SOL    HW251735   5.587   2.866   8.625 -2.0781 -1.3271 -0.7792
13226SOL     OW51736   8.947   6.135   6.533 -0.1658  0.0245  0.6989
13226SOL    HW151737   8.905   6.158   6.445  0.9179 -0.9380 -0.0899
13226SOL    HW251738   8.886   6.076   6.584 -0.3412 -0.2972  0.1243
13227SOL     OW51739   1.357   0.291   2.221 -0.5264 -0.2962  0.2501
13227SOL    HW151740   1.397   0.199   2.223 -0.1967 -0.1655 -0.1709
13227SOL    HW251741   1.374   0.337   2.307  2.2287  0.6000 -0.7258
13228SOL     OW51742   7.349   4.129   3.603  0.0839 -0.5967 -0.4831
13228SOL    HW151743   7.413   4.120   3.679  1.0153 -0.4738 -1.2344
13228SOL    HW251744   7.277   4.195   3.626 -0.9209 -2.2365  1.1307
13229SOL     OW51745   9.684   3.948   2.482 -0.1030 -0.2551  0.1003
13229SOL    HW151746   9.750   4.024   2.475 -1.0765  0.4928 -0.9759
13229SOL    HW251747   9.725   3.866   2.443  0.3253  0.1146 -0.2439
13230SOL     OW51748   2.512   4.570   3.333 -0.2095  0.4025  0.2296
13230SOL    HW151749   2.572   4.524   3.398  0.3480  1.1255  0.2342
13230SOL    HW251750   2.540   4.547   3.240 -2.3018 -2.3075  0.2173
13231SOL     OW51751   6.831   2.916   1.771  0.2708  0.2235  0.2687
13231SOL    HW151752   6.859   2.939   1.864 -1.9737  0.3770  0.9369
13231SOL    HW251753   6.819   3.000   1.719 -0.5587  0.2476  0.4873
13232SOL     OW51754   0.540   0.727   6.507  0.1152  0.2771 -0.3743
13232SOL    HW151755   0.529   0.705   6.410  0.4868  0.1588 -0.3917
13232SOL    HW251756   0.575   0.647   6.556 -1.4387 -0.1070  0.1257
13233SOL     OW51757   2.180   0.969   2.301 -0.8127 -0.1604  0.3120
13233SOL    HW151758   2.127   0.936   2.223  1.2258 -1.2340 -0.6791
13233SOL    HW251759   2.167   1.068   2.310 -2.1695 -0.2450 -0.5146
13234SOL     OW51760   1.378   2.395   7.814  0.2206 -0.7315  0.4196
13234SOL    HW151761   1.368   2.427   7.720  0.1324  0.6879  0.8912
13234SOL    HW251762   1.313   2.321   7.831 -0.0340 -0.7330 -0.5168
13235SOL     OW51763   8.013   7.649   3.990  0.4601 -0.0422 -0.1432
13235SOL    HW151764   8.049   7.677   4.079  0.0638  1.3726 -0.4065
13235SOL    HW251765   8.001   7.730   3.932  0.9824 -0.9773 -1.5885
13236SOL     OW51766   4.754   4.119   5.242 -0.4287  0.0448  0.2409
13236SOL    HW151767   4.803   4.205   5.262 -1.5955  1.2151 -1.7500
13236SOL    HW251768   4.688   4.101   5.314  0.1687  0.5710  0.9275
13237SOL     OW51769   3.818   0.535   5.966  0.2968 -0.3212  0.3002
13237SOL    HW151770   3.740   0.597   5.972 -0.7428 -1.4653 -0.8807
13237SOL    HW251771   3.896   0.575   6.012 -1.2151  0.4953  2.2268
13238SOL     OW51772   1.223   9.578   9.580 -0.2313  0.5121 -0.1059
13238SOL    HW151773   1.242   9.531   9.494 -0.8454 -0.5735  0.3432
13238SOL    HW251774   1.156   9.650   9.564  0.2813  0.8622 -0.6916
13239SOL     OW51775   5.921   5.792   0.802  0.0574 -0.2123 -0.9332
13239SOL    HW151776   5.884   5.705   0.768  1.7387 -0.8954 -1.0438
13239SOL    HW251777   6.021   5.790   0.798  0.1058  1.9284 -1.4005
13240SOL     OW51778   0.663   5.055   0.723  0.3511 -0.2781 -0.5180
13240SOL    HW151779   0.614   5.059   0.810 -0.6077  0.6316 -1.0816
13240SOL    HW251780   0.627   4.979   0.668 -0.6913  0.6049 -1.0738
13241SOL     OW51781   9.099   5.033   0.721 -0.0538  0.1839 -0.4988
13241SOL    HW151782   9.185   5.058   0.765 -0.9169 -0.4837  1.6439
13241SOL    HW251783   9.089   5.084   0.635  1.4169  1.9522  0.3460
13242SOL     OW51784   2.935   0.872   2.793  0.0187  0.0202 -0.2881
13242SOL    HW151785   2.938   0.929   2.711  3.0912 -0.3637 -0.5046
13242SOL    HW251786   2.876   0.792   2.775 -0.2909  0.5424 -1.6881
13243SOL     OW51787   4.552   2.055   0.362 -0.2005  0.1039  0.3266
13243SOL    HW151788   4.509   1.990   0.299  2.3343  0.3980 -1.7854
13243SOL    HW251789   4.488   2.130   0.381 -1.6648 -0.9307 -0.4043
13244SOL     OW51790   3.054   3.811   3.354 -0.1962 -0.2524  0.2426
13244SOL    HW151791   3.024   3.829   3.448 -0.2207  1.9308 -0.1737
13244SOL    HW251792   3.138   3.861   3.336 -0.4212 -0.3342 -1.0439
13245SOL     OW51793   0.556   5.915   8.415 -0.1942 -0.3615  0.4360
13245SOL    HW151794   0.599   5.900   8.504 -1.7421 -1.9517  0.9374
13245SOL    HW251795   0.501   5.999   8.419  2.9327  1.8089 -0.2720
13246SOL     OW51796   5.953   6.181   9.467  0.1986 -0.8128  0.1309
13246SOL    HW151797   5.982   6.232   9.548  1.9780  2.3726 -2.3867
13246SOL    HW251798   5.854   6.183   9.460  0.1312  0.4829  1.2471
13247SOL     OW51799   3.452   0.121   3.910 -0.5167  0.1042  0.1089
13247SOL    HW151800   3.362   0.078   3.897  0.3361 -1.5108 -0.6254
13247SOL    HW251801   3.498   0.079   3.987  0.4984 -0.5928 -0.8721
13248SOL     OW51802   1.328   1.212   1.754  0.3311  0.2024  0.1200
13248SOL    HW151803   1.285   1.300   1.734  0.8852  0.4391 -0.0200
13248SOL    HW251804   1.405   1.226   1.817  0.2407 -0.2156  0.3225
13249SOL     OW51805   8.909   4.374   4.853 -0.2607 -0.2581 -0.0603
13249SOL    HW151806   8.859   4.290   4.836  0.2419 -0.6123  0.1818
13249SOL    HW251807   8.845   4.450   4.861 -0.7586 -0.7006  0.2405
13250SOL     OW51808   2.751   6.173   4.213 -0.8278 -0.4569 -0.0728
13250SOL    HW151809   2.751   6.131   4.122 -0.2796  0.5325 -0.5299
13250SOL    HW251810   2.659   6.168   4.252 -0.8561 -1.7326 -0.2830
13251SOL     OW51811   3.778   9.825   6.944  0.6302 -0.4024  0.5603
13251SOL    HW151812   3.845   9.894   6.918 -0.1176  0.3941  0.7294
13251SOL    HW251813   3.774   9.754   6.874 -0.3117  0.9631 -0.8030
13252SOL     OW51814   2.785   3.309   9.817  0.4340 -0.1759 -0.0421
13252SOL    HW151815   2.761   3.404   9.841 -0.0597 -0.4707  0.6651
13252SOL    HW251816   2.858   3.309   9.750 -0.4453  0.7302 -1.0133
13253SOL     OW51817   0.515   6.670   2.666 -0.3141 -0.6597 -0.2135
13253SOL    HW151818   0.453   6.593   2.672 -0.0757 -0.8584 -0.2982
13253SOL    HW251819   0.527   6.711   2.756 -2.7465  1.0997 -0.6398
13254SOL     OW51820   0.101   8.845   5.152 -0.2481  0.0339 -0.4386
13254SOL    HW151821   0.032   8.792   5.103 -1.8274  0.9738  0.7447
13254SOL    HW251822   0.072   8.860   5.246  0.6058  2.1656 -0.4769
13255SOL     OW51823   3.366   0.120   7.790 -0.6441  0.3454 -0.0749
13255SOL    HW151824   3.280   0.172   7.782 -0.7874  0.1080 -0.0658
13255SOL    HW251825   3.371   0.077   7.879 -0.5452  0.3018 -0.1017
13256SOL     OW51826   7.354   1.945   4.955  0.1725 -0.0395  0.4992
13256SOL    HW151827   7.330   1.861   5.004 -0.4711  0.3133  0.8039
13256SOL    HW251828   7.305   2.022   4.996  0.6645  0.4663  0.1447
13257SOL     OW51829   9.872   9.878   0.709  0.1694 -0.0623 -0.2197
13257SOL    HW151830   9.969   9.871   0.731  0.1224 -4.5627 -0.9554
13257SOL    HW251831   9.860   9.870   0.610 -0.9939 -0.1336 -0.0824
13258SOL     OW51832   0.592   5.324   4.680  0.1401 -0.2075  0.2487
13258SOL    HW151833   0.585   5.376   4.595 -1.5293  1.0425  1.1413
13258SOL    HW251834   0.526   5.358   4.746  1.0140 -1.5672  1.8601
13259SOL     OW51835   3.951   7.185   4.615  0.1480  0.9630  0.3940
13259SOL    HW151836   4.018   7.151   4.549  0.1138  0.3694  0.6620
13259SOL    HW251837   3.863   7.138   4.601 -0.3286  2.0164 -0.2141
13260SOL     OW51838   9.137   9.721   6.884 -0.3276  0.1346 -0.0126
13260SOL    HW151839   9.140   9.644   6.947 -1.7078  0.3096  0.2697
13260SOL    HW251840   9.162   9.690   6.792  1.2463 -0.2023  0.5190
13261SOL     OW51841   2.240   3.572   4.402 -0.1525  0.5435 -0.2013
13261SOL    HW151842   2.228   3.490   4.347 -0.4374  0.5369 -0.1268
13261SOL    HW251843   2.275   3.547   4.493  0.1025  0.5367 -0.2997
13262SOL     OW51844   5.080   1.379   9.390  0.2366 -0.0605  0.3745
13262SOL    HW151845   4.986   1.362   9.363  0.5118 -0.8093 -0.1444
13262SOL    HW251846   5.101   1.327   9.474  0.1037  0.3276  0.6473
13263SOL     OW51847   5.815   5.116   0.144  0.0657 -0.5354  0.0312
13263SOL    HW151848   5.717   5.105   0.127  0.1468  1.1383 -1.6329
13263SOL    HW251849   5.837   5.080   0.235 -2.1812 -0.4909  0.6265
13264SOL     OW51850   9.123   5.223   0.493  0.2817  0.4068 -0.4946
13264SOL    HW151851   9.191   5.192   0.426 -2.2124 -3.1467 -1.5124
13264SOL    HW251852   9.049   5.271   0.445 -0.6351 -0.5750 -0.0583
13265SOL     OW51853   7.844   6.919   1.068 -0.1477 -0.4503  0.3977
13265SOL    HW151854   7.872   7.012   1.093 -0.1657 -0.6156  1.0408
13265SOL    HW251855   7.772   6.888   1.130 -0.6331 -0.6324 -0.2560
13266SOL     OW51856   0.617   1.521   5.168  0.3905  0.2480 -0.7761
13266SOL    HW151857   0.596   1.586   5.095  0.2520  2.7949  1.4488
13266SOL    HW251858   0.716   1.507   5.173  0.2826 -1.2562 -2.5183
13267SOL     OW51859   8.528   1.119   6.116 -0.7168 -0.2817  0.0225
13267SOL    HW151860   8.502   1.036   6.167  1.7290 -1.1960 -0.1844
13267SOL    HW251861   8.598   1.097   6.049  1.7807  2.4158  1.6619
13268SOL     OW51862   1.037   3.919   2.540  0.3835 -0.7271 -0.0117
13268SOL    HW151863   1.055   3.991   2.607  0.1732 -2.3784  1.8531
13268SOL    HW251864   0.999   3.960   2.457  0.7601  1.3597  0.8168
13269SOL     OW51865   1.183   2.062   3.913  0.3491  0.5133  0.3867
13269SOL    HW151866   1.215   2.152   3.884  0.9073  0.6622  1.4483
13269SOL    HW251867   1.209   2.046   4.008 -1.5484  0.0874  0.8685
13270SOL     OW51868   8.451   5.212   7.168 -0.1474 -0.0434  0.2744
13270SOL    HW151869   8.499   5.262   7.096 -0.4123  0.1884  0.2588
13270SOL    HW251870   8.501   5.128   7.189 -0.8241 -0.8209 -1.1742
13271SOL     OW51871   8.719   0.776   9.782  0.3231  0.3247  0.0414
13271SOL    HW151872   8.709   0.838   9.703  0.7704  0.0473 -0.2334
13271SOL    HW251873   8.641   0.789   9.844  0.3786  1.1263 -0.0406
13272SOL     OW51874   8.852   6.589   8.091 -0.1232 -0.3340 -0.1320
13272SOL    HW151875   8.843   6.551   8.183  0.0349  3.2244  1.4165
13272SOL    HW251876   8.764   6.624   8.060  0.2322  0.2064 -0.5451
13273SOL     OW51877   8.369   6.184   5.864 -0.0281  0.3658 -0.4260
13273SOL    HW151878   8.312   6.114   5.908  0.9831 -0.9083 -1.0996
13273SOL    HW251879   8.387   6.258   5.928 -1.5520  0.2747  0.1366
13274SOL     OW51880   0.301   8.356   6.054 -0.0037 -0.1359  0.3395
13274SOL    HW151881   0.236   8.350   5.978  0.1395 -1.6146  0.3265
13274SOL    HW251882   0.394   8.349   6.019  0.1526  1.2036  0.4460
13275SOL     OW51883   9.487   3.809   2.127  0.2504  0.3299 -0.0921
13275SOL    HW151884   9.462   3.784   2.034 -2.0377  0.4139  0.4728
13275SOL    HW251885   9.535   3.732   2.170  0.3047 -0.1231 -0.9470
13276SOL     OW51886   2.938   8.859   9.710 -0.0640 -0.5286 -0.0978
13276SOL    HW151887   2.866   8.854   9.779  0.0222 -1.7961 -0.0869
13276SOL    HW251888   2.907   8.816   9.626  0.4682 -0.5535 -0.2848
13277SOL     OW51889   3.912   2.925   9.411  0.3347 -0.0615  0.1448
13277SOL    HW151890   3.894   2.836   9.370  0.4158 -0.8268  1.7073
13277SOL    HW251891   3.876   2.926   9.505 -1.0268  2.0776 -0.3650
13278SOL     OW51892   4.420   8.078   4.221 -0.0867 -0.1039 -0.6591
13278SOL    HW151893   4.497   8.045   4.277 -0.0055 -0.3787 -0.9354
13278SOL    HW251894   4.345   8.012   4.226 -0.8657  0.8734  0.8019
13279SOL     OW51895   0.233   3.684   7.284  0.1357  0.2828  0.4047
13279SOL    HW151896   0.195   3.662   7.374  1.1606 -0.8790  0.5721
13279SOL    HW251897   0.213   3.609   7.220 -0.0258  0.8049 -0.1573
13280SOL     OW51898   8.029   1.422   4.474 -0.0969 -0.2479  0.3915
13280SOL    HW151899   8.114   1.474   4.467 -0.5943  0.8361  2.0674
13280SOL    HW251900   8.039   1.334   4.426  1.4458  0.5037 -0.6961
13281SOL     OW51901   4.513   5.616   3.148  0.4951  0.6353  0.7466
13281SOL    HW151902   4.493   5.624   3.246  2.0836 -0.4410  1.1918
13281SOL    HW251903   4.437   5.570   3.102  0.8022 -1.1485  1.9368
13282SOL     OW51904   3.755   1.820   7.756  0.3032 -0.1932 -0.2448
13282SOL    HW151905   3.842   1.776   7.732  0.2074 -0.4697 -0.0935
13282SOL    HW251906   3.697   1.754   7.804 -0.1201 -0.1087 -0.6428
13283SOL     OW51907   0.339   5.507   2.789  0.3673  0.1906  0.0187
13283SOL    HW151908   0.324   5.501   2.690 -0.5498 -0.6604  0.2080
13283SOL    HW251909   0.288   5.585   2.825 -0.0707 -0.0849 -0.0167
13284SOL     OW51910   7.856   9.936   8.769  0.0373  0.4943  0.2873
13284SOL    HW151911   7.867   9.851   8.716  0.0994  1.3321 -1.0701
13284SOL    HW251912   7.944   9.983   8.774 -0.2905  1.1816 -0.2049
13285SOL     OW51913   7.288   4.498   3.299 -0.7834  0.0847 -0.5123
13285SOL    HW151914   7.387   4.485   3.301 -0.5414  1.9325  0.4644
13285SOL    HW251915   7.267   4.595   3.281 -2.3889 -0.0788  0.3660
13286SOL     OW51916   6.404   0.189   6.175 -0.1223  0.3591 -0.1861
13286SOL    HW151917   6.472   0.162   6.243 -0.6268 -1.9813 -0.5528
13286SOL    HW251918   6.389   0.288   6.179  1.4550  0.5438  1.5888
13287SOL     OW51919   2.430   8.105   7.650 -0.6433  0.2690  0.2140
13287SOL    HW151920   2.420   8.124   7.747 -1.4339 -0.2201  0.2351
13287SOL    HW251921   2.526   8.113   7.624 -0.6938  2.3921  0.6022
13288SOL     OW51922   6.122   4.041   8.565 -0.0067 -0.2373 -0.9832
13288SOL    HW151923   6.066   4.050   8.647  2.4225 -1.5853  0.8552
13288SOL    HW251924   6.184   4.119   8.559  1.2338 -1.1741 -0.4250
13289SOL     OW51925   0.096   2.029   7.755 -0.5261  0.0357  0.3653
13289SOL    HW151926   0.140   1.955   7.704 -1.3424 -0.0153 -0.2704
13289SOL    HW251927  -0.003   2.015   7.756 -0.7582  1.5180 -0.4349
13290SOL     OW51928   2.006   1.667   3.077  0.2261 -0.4099  0.2921
13290SOL    HW151929   2.072   1.649   3.150  1.2726 -0.7177 -0.7135
13290SOL    HW251930   1.920   1.620   3.097  1.3407 -2.6209  0.0729
13291SOL     OW51931   0.529   6.548   5.661  0.4612 -0.3667  0.1335
13291SOL    HW151932   0.619   6.522   5.625  0.8029  0.9540  0.0115
13291SOL    HW251933   0.499   6.633   5.618  0.2584  0.5052  1.9525
13292SOL     OW51934   8.152   9.037   4.622  0.1084 -0.3740  0.2937
13292SOL    HW151935   8.082   8.980   4.664  1.4574 -0.8825  1.8742
13292SOL    HW251936   8.116   9.129   4.607 -1.1890 -0.8887  0.2255
13293SOL     OW51937   8.514   4.900   4.106 -0.1704 -0.6134 -0.6480
13293SOL    HW151938   8.541   4.872   4.014  0.0239 -1.2928 -0.3806
13293SOL    HW251939   8.432   4.958   4.100 -0.3201 -0.8825 -1.2274
13294SOL     OW51940   9.232   7.882   2.564 -0.2767  0.2556  0.1432
13294SOL    HW151941   9.310   7.945   2.560 -0.3432  0.3782  0.6890
13294SOL    HW251942   9.249   7.814   2.635  0.2016 -0.8972 -1.0654
13295SOL     OW51943   5.653   7.917   4.064 -0.1740  0.4283 -0.2010
13295SOL    HW151944   5.669   8.004   4.018 -0.5869  0.3588 -0.4769
13295SOL    HW251945   5.637   7.846   3.996  0.5062  0.0668  0.0138
13296SOL     OW51946   9.462   1.481   1.594  0.1110  0.3267  0.7817
13296SOL    HW151947   9.383   1.540   1.576 -0.2304 -0.4003 -0.1908
13296SOL    HW251948   9.433   1.385   1.588  1.1355  0.0545  0.0939
13297SOL     OW51949   9.713   7.955   4.850 -0.2141 -0.0208 -0.4823
13297SOL    HW151950   9.710   7.981   4.947 -0.9819 -0.0358 -0.5040
13297SOL    HW251951   9.738   7.858   4.843  2.5177  0.6340 -0.3983
13298SOL     OW51952   6.268   0.505   2.867  0.0604 -0.0671 -0.1671
13298SOL    HW151953   6.177   0.516   2.829  0.1623 -0.2469 -0.4634
13298SOL    HW251954   6.283   0.408   2.890 -0.5998  0.2874  1.8258
13299SOL     OW51955   5.503   7.621   5.098 -0.1278 -0.8969 -0.1340
13299SOL    HW151956   5.410   7.658   5.106  0.9594  2.6713 -2.3847
13299SOL    HW251957   5.559   7.654   5.174 -0.2020 -1.3975  0.1390
13300SOL     OW51958   7.374   0.051   5.384 -0.4004  0.3361 -0.0736
13300SOL    HW151959   7.322   0.060   5.470  1.6410  0.8042  1.1310
13300SOL    HW251960   7.468   0.081   5.398  0.5656 -1.7001 -1.9183
13301SOL     OW51961   2.260   4.917   2.436  0.9526 -0.0569 -0.2196
13301SOL    HW151962   2.195   4.846   2.411  1.4681 -1.0990  1.3120
13301SOL    HW251963   2.316   4.941   2.357 -0.7118  0.2699 -1.3370
13302SOL     OW51964   0.416   5.458   7.690 -0.0434  0.0760 -0.8160
13302SOL    HW151965   0.394   5.503   7.604  0.4782  0.2245 -0.8749
13302SOL    HW251966   0.484   5.386   7.674 -0.5044 -0.4034 -0.6446
13303SOL     OW51967   9.294   6.141   1.973 -0.1328 -0.1564  0.6079
13303SOL    HW151968   9.277   6.067   2.038  1.9125 -1.8737 -0.7330
13303SOL    HW251969   9.293   6.228   2.020 -3.0380 -0.9749  2.1578
13304SOL     OW51970   4.651   1.351   0.781  0.2458  0.4305 -0.2204
13304SOL    HW151971   4.655   1.392   0.690  0.5670  0.4407 -0.2054
13304SOL    HW251972   4.606   1.414   0.845 -0.9118 -0.0091 -0.5953
13305SOL     OW51973   1.973   5.651   9.277  0.3283 -0.3020 -0.5390
13305SOL    HW151974   2.035   5.707   9.222  0.3974  0.6257  0.4563
13305SOL    HW251975   2.026   5.605   9.349 -0.3506  1.8540  1.3963
13306SOL     OW51976   7.098   1.099   7.941  0.2424  0.0286 -0.2296
13306SOL    HW151977   7.089   1.189   7.982 -0.0380  0.2398 -0.7555
13306SOL    HW251978   7.188   1.091   7.897 -0.1342  0.4117 -1.0652
13307SOL     OW51979   0.456   0.062   2.720  0.8887 -0.4879 -0.2428
13307SOL    HW151980   0.360   0.073   2.746  1.1673 -0.4991  0.7726
13307SOL    HW251981   0.497   0.151   2.702  1.0844 -0.3737  0.7391
13308SOL     OW51982   7.273   2.659   4.626  0.3779 -0.3274 -1.2716
13308SOL    HW151983   7.299   2.752   4.599 -0.1391 -0.0289 -0.7589
13308SOL    HW251984   7.352   2.613   4.667  0.1853  0.4961  0.0681
13309SOL     OW51985   3.215   0.560   1.361 -0.1188 -0.5598  0.4226
13309SOL    HW151986   3.161   0.536   1.442 -0.9277  0.0704  0.0792
13309SOL    HW251987   3.155   0.601   1.292  0.5303 -1.2553 -0.5721
13310SOL     OW51988   8.667   6.359   0.223  0.9331  0.3356 -0.0047
13310SOL    HW151989   8.595   6.320   0.281  0.1132  0.8927 -0.6364
13310SOL    HW251990   8.755   6.315   0.245  0.6883  0.7359  1.8319
13311SOL     OW51991   2.459   3.623  10.055  0.3108  0.6142 -0.6484
13311SOL    HW151992   2.372   3.601  10.012  0.1164  1.2453 -0.5796
13311SOL    HW251993   2.477   3.560  10.131 -1.8426  2.7720  1.7358
13312SOL     OW51994   3.314   6.226   3.886 -0.3738  0.2158 -0.6360
13312SOL    HW151995   3.230   6.212   3.938  0.1414  0.8883  0.4076
13312SOL    HW251996   3.383   6.159   3.916  0.6508  2.0292  1.1743
13313SOL     OW51997   1.607   8.017   3.699 -0.0487  0.5003  0.0401
13313SOL    HW151998   1.587   7.938   3.641 -1.3705  0.5545  0.4093
13313SOL    HW251999   1.656   8.086   3.645 -0.3120  0.1000 -0.7139
13314SOL     OW52000   0.803   4.203   1.574  0.0187  0.5525 -0.0556
13314SOL    HW152001   0.765   4.272   1.636  0.5076  0.2797  0.5547
13314SOL    HW252002   0.812   4.242   1.482 -1.2355  0.7852 -0.0894
13315SOL     OW52003   8.591   0.107   1.501 -0.3034  0.0630 -0.4447
13315SOL    HW152004   8.567   0.202   1.519 -1.8206 -0.3559 -0.2172
13315SOL    HW252005   8.558   0.082   1.410 -0.9638 -0.5935 -0.0270
13316SOL     OW52006   9.352   8.954   7.538 -0.2976 -0.0354  0.4819
13316SOL    HW152007   9.297   8.871   7.527  0.1639 -0.3327  0.3879
13316SOL    HW252008   9.346   9.009   7.455  1.8507 -1.4632 -0.6628
13317SOL     OW52009   4.114   2.921   6.359  0.1834  0.3449 -0.2341
13317SOL    HW152010   4.030   2.972   6.377  0.7831  1.7235 -1.2841
13317SOL    HW252011   4.095   2.845   6.298 -0.8097 -1.0201  1.7193
13318SOL     OW52012   9.513   9.784   5.877 -0.0492  0.0556  0.3169
13318SOL    HW152013   9.526   9.845   5.956  1.0810  0.0866  0.1121
13318SOL    HW252014   9.437   9.818   5.821 -1.1581 -0.2173  1.6261
13319SOL     OW52015   1.084   9.431   7.979 -0.0267 -0.2811  0.2417
13319SOL    HW152016   1.012   9.375   7.939  0.6404 -0.3304 -0.8935
13319SOL    HW252017   1.129   9.379   8.053 -0.5874 -0.5665  0.3862
13320SOL     OW52018   2.400   4.492   2.005 -0.6274 -0.3802  0.4079
13320SOL    HW152019   2.391   4.459   1.911 -0.5981 -1.2409  0.7050
13320SOL    HW252020   2.496   4.513   2.024 -0.6237 -0.2705  0.2718
13321SOL     OW52021   3.969   4.432   2.062  0.1051 -0.3935 -0.1193
13321SOL    HW152022   3.874   4.411   2.040 -0.4782  1.6458  0.3315
13321SOL    HW252023   4.024   4.349   2.057 -1.4745 -1.3790 -1.5809
13322SOL     OW52024   8.103   5.102   7.639  0.4865 -0.1190 -0.0137
13322SOL    HW152025   8.040   5.029   7.612  1.6921 -0.7682 -1.1290
13322SOL    HW252026   8.181   5.105   7.576  0.7327  1.7895  0.3410
13323SOL     OW52027   4.248   9.707   5.592  0.4600 -0.4329 -0.3705
13323SOL    HW152028   4.193   9.790   5.589  0.9061 -0.0656  1.2007
13323SOL    HW252029   4.345   9.730   5.582  0.9032 -0.3704  3.5641
13324SOL     OW52030   8.136   1.356   5.847  0.1040  0.0850  0.3646
13324SOL    HW152031   8.190   1.336   5.929  0.5497  2.5911  0.7165
13324SOL    HW252032   8.181   1.317   5.767  0.7421 -0.6192  1.0558
13325SOL     OW52033   0.152   5.760   3.688 -0.7634  0.7316  0.0068
13325SOL    HW152034   0.240   5.738   3.731 -0.1192  1.1563 -1.0673
13325SOL    HW252035   0.121   5.850   3.721  0.4426  1.7185 -1.4754
13326SOL     OW52036   7.714   7.977   8.234 -0.1169  0.2484 -0.0214
13326SOL    HW152037   7.684   8.070   8.254  1.8859  0.5986  1.5536
13326SOL    HW252038   7.683   7.951   8.143 -0.5474  2.5175 -0.5570
13327SOL     OW52039   0.801   4.259   0.526  0.3635 -0.0192 -0.0060
13327SOL    HW152040   0.896   4.268   0.555  0.7590 -1.6755 -0.7081
13327SOL    HW252041   0.795   4.188   0.456 -1.5241 -0.5159  0.6421
13328SOL     OW52042   8.951   2.845   2.200 -0.6103 -0.4045 -0.4498
13328SOL    HW152043   8.938   2.761   2.146  0.2586 -0.6181 -0.3283
13328SOL    HW252044   8.864   2.894   2.206 -0.2589  0.8019 -4.0259
13329SOL     OW52045   8.036   5.396   6.590 -0.0232  0.8083 -0.2005
13329SOL    HW152046   8.056   5.344   6.507  0.8559  0.3007  0.3241
13329SOL    HW252047   7.947   5.368   6.626  0.5206 -0.4808  0.1820
13330SOL     OW52048   9.161   5.601   1.082 -0.0101 -0.1968 -0.6548
13330SOL    HW152049   9.218   5.568   1.157  0.0128  0.2961 -0.4556
13330SOL    HW252050   9.088   5.535   1.065  1.8375 -1.8687 -2.3131
13331SOL     OW52051   6.346   5.868   1.020 -0.4372 -0.3285 -0.0467
13331SOL    HW152052   6.434   5.884   0.976  0.2767 -1.3658  0.9720
13331SOL    HW252053   6.285   5.820   0.957  0.8987 -2.6556  0.3937
13332SOL     OW52054   1.105   1.840   8.607 -0.0067 -0.4818  0.3153
13332SOL    HW152055   1.037   1.811   8.540 -0.7867  0.1685  0.8163
13332SOL    HW252056   1.123   1.764   8.670 -1.3177 -0.2208  1.0328
13333SOL     OW52057   5.548   7.469   4.896 -0.3066  0.2478  0.2180
13333SOL    HW152058   5.521   7.507   4.985 -0.9063  0.4917 -0.0672
13333SOL    HW252059   5.564   7.543   4.831 -1.2778  0.0337 -0.2814
13334SOL     OW52060   6.038   2.429   2.328 -0.0285  0.1366 -0.5025
13334SOL    HW152061   6.006   2.509   2.377  0.1355  0.3171 -0.6906
13334SOL    HW252062   6.062   2.357   2.393 -2.3938 -0.6110 -0.3915
13335SOL     OW52063   1.978   5.282   4.495  0.0151 -0.0839  0.5115
13335SOL    HW152064   1.899   5.343   4.487  1.2504  1.3466 -1.1570
13335SOL    HW252065   2.060   5.335   4.514  0.8874 -1.3810  0.4617
13336SOL     OW52066   4.557   2.768   5.421  0.1638  0.4992  0.0519
13336SOL    HW152067   4.564   2.834   5.496  0.4230 -0.4108  0.8510
13336SOL    HW252068   4.468   2.722   5.426 -1.3588  3.0562 -2.4456
13337SOL     OW52069   0.018   8.034   5.960  0.1527  0.4233 -1.0321
13337SOL    HW152070   0.106   7.990   5.978  0.0636 -0.0998 -1.8360
13337SOL    HW252071   0.011   8.056   5.862 -0.2462  1.2599 -0.8235
13338SOL     OW52072   7.598   0.435   4.430 -0.1676  0.5334 -0.4160
13338SOL    HW152073   7.662   0.379   4.483  0.2877  0.4334 -1.0667
13338SOL    HW252074   7.551   0.378   4.363 -3.9156 -0.2318  2.7082
13339SOL     OW52075   6.453   9.685   6.303  0.0156 -0.2874  0.4840
13339SOL    HW152076   6.527   9.726   6.249 -1.1874  0.5692 -0.5533
13339SOL    HW252077   6.428   9.748   6.377  1.5919 -1.4146  2.0347
13340SOL     OW52078   2.559   6.496   9.357  0.4569 -0.1031 -0.7940
13340SOL    HW152079   2.465   6.532   9.353  0.1827 -0.7104 -0.0146
13340SOL    HW252080   2.618   6.550   9.298  0.0228  1.5577  0.2706
13341SOL     OW52081   0.471   8.981   5.904  0.8828  0.5769 -0.4593
13341SOL    HW152082   0.470   8.965   6.003  0.7979 -1.1408 -0.7169
13341SOL    HW252083   0.453   9.078   5.886  0.8578  0.9062  1.1974
13342SOL     OW52084   2.291   9.076   5.645  0.2210 -0.0252 -0.6570
13342SOL    HW152085   2.255   8.990   5.609  0.6198 -0.3917 -0.1889
13342SOL    HW252086   2.276   9.079   5.743 -1.0098  1.0444 -0.8641
13343SOL     OW52087   8.428   9.128   0.185  0.6223 -0.4323  0.2322
13343SOL    HW152088   8.467   9.143   0.276 -0.9811 -1.1883  1.0672
13343SOL    HW252089   8.404   9.216   0.144  0.7214 -0.1283  0.8221
13344SOL     OW52090   7.001   2.744   4.542 -0.6044 -0.7109  0.0002
13344SOL    HW152091   7.093   2.710   4.561  1.3741  3.0049 -2.4325
13344SOL    HW252092   6.974   2.717   4.450 -0.9940  0.1375 -0.1392
13345SOL     OW52093   6.959   8.740   7.232  0.0778 -0.2876  0.3989
13345SOL    HW152094   7.024   8.739   7.156 -0.6295  2.2310 -0.2899
13345SOL    HW252095   6.866   8.728   7.197 -0.1271 -0.6080  1.0380
13346SOL     OW52096   0.036   1.886   9.542 -0.1623 -0.6631 -0.5895
13346SOL    HW152097  -0.049   1.856   9.499 -1.4039  0.9848  0.6470
13346SOL    HW252098   0.052   1.833   9.625 -0.8334  0.1198  0.0416
13347SOL     OW52099   5.080   3.672   7.271 -0.2233  0.7090 -0.3336
13347SOL    HW152100   5.122   3.687   7.181 -1.1500  1.5212 -0.6394
13347SOL    HW252101   5.020   3.749   7.293 -0.5849  0.1534  0.6524
13348SOL     OW52102   8.524   3.983   6.796  0.2497 -0.3860 -0.2966
13348SOL    HW152103   8.567   3.997   6.885  0.7225  1.7506 -0.8412
13348SOL    HW252104   8.515   3.885   6.779  3.1231 -0.8710  0.6924
13349SOL     OW52105   9.484   1.925   1.328  0.0296 -0.3539 -0.2152
13349SOL    HW152106   9.541   1.852   1.367  1.5786  1.3526  0.7868
13349SOL    HW252107   9.472   1.909   1.230  1.0345 -1.5166 -0.1588
13350SOL     OW52108   4.214   8.840   6.263  0.3208  0.0262  0.0841
13350SOL    HW152109   4.139   8.860   6.199  1.7120 -0.8923 -1.8880
13350SOL    HW252110   4.282   8.913   6.257  0.8092 -0.4375 -0.0295
13351SOL     OW52111   3.352   4.356   6.273  0.1401 -0.2017  0.2693
13351SOL    HW152112   3.365   4.307   6.359 -0.8228  1.0027  1.1063
13351SOL    HW252113   3.326   4.450   6.291 -0.0551  0.0758 -1.3450
13352SOL     OW52114   1.283   6.269   5.395 -0.4244  0.2603 -0.2670
13352SOL    HW152115   1.276   6.328   5.315 -0.0098  0.1787 -0.3693
13352SOL    HW252116   1.371   6.220   5.392 -0.1630  0.6637  0.5141
13353SOL     OW52117   4.087   3.437   1.553 -0.1834 -0.3252  0.2539
13353SOL    HW152118   4.028   3.510   1.520 -0.9208 -0.8887  0.3106
13353SOL    HW252119   4.179   3.449   1.516 -0.3964  0.4029 -0.0540
13354SOL     OW52120   1.893   4.169   5.864 -0.4975 -0.3739  0.0632
13354SOL    HW152121   1.829   4.232   5.908  0.9666  1.3649 -0.2182
13354SOL    HW252122   1.858   4.143   5.774 -0.0293  1.9425 -0.8238
13355SOL     OW52123   8.287   8.410   9.674 -0.3096 -0.3399  0.3066
13355SOL    HW152124   8.227   8.444   9.746 -0.4153 -2.7229  1.3625
13355SOL    HW252125   8.233   8.393   9.591 -0.5893  0.0928  0.3956
13356SOL     OW52126   3.133   1.841   2.809  0.3611 -0.1067  0.0735
13356SOL    HW152127   3.045   1.849   2.763  0.9994 -0.7091 -1.2549
13356SOL    HW252128   3.200   1.899   2.763  0.5038  0.8923  1.4990
13357SOL     OW52129   0.017   0.361   8.946 -0.1339 -0.5961 -0.2519
13357SOL    HW152130   0.067   0.443   8.974  0.0786 -0.7008 -0.3299
13357SOL    HW252131   0.060   0.320   8.866 -0.3319 -0.6957 -0.3074
13358SOL     OW52132   2.301   8.622   7.795  0.4586 -0.2956  0.3511
13358SOL    HW152133   2.263   8.571   7.872  1.3424 -1.1624  0.2147
13358SOL    HW252134   2.368   8.688   7.829 -0.6159  0.7263  0.5180
13359SOL     OW52135   9.540   0.203   7.324 -0.1844  0.1603  0.1008
13359SOL    HW152136   9.567   0.138   7.253  0.6413  1.5529 -0.8873
13359SOL    HW252137   9.561   0.296   7.293 -1.6399  0.9202  1.3560
13360SOL     OW52138   6.471   2.715   0.940  0.1270 -0.4957 -0.0858
13360SOL    HW152139   6.557   2.761   0.958  0.4430 -1.2790  0.4306
13360SOL    HW252140   6.420   2.766   0.870  0.7471  0.2752  0.0163
13361SOL     OW52141   9.575   7.825   3.435 -0.2771 -0.3909 -0.5192
13361SOL    HW152142   9.580   7.823   3.535  1.0178  1.0828 -0.5249
13361SOL    HW252143   9.536   7.739   3.402 -3.0571  0.0759  1.3486
13362SOL     OW52144   9.807   3.578   0.140 -0.5053 -0.2926  0.3210
13362SOL    HW152145   9.901   3.603   0.165  0.1233 -1.5085 -0.7568
13362SOL    HW252146   9.745   3.651   0.167  0.9792  1.3578 -0.5913
13363SOL     OW52147   0.114   7.973   4.409  0.0332 -0.2894 -0.2358
13363SOL    HW152148   0.136   7.921   4.327 -0.3630 -1.4757  0.3933
13363SOL    HW252149   0.101   7.910   4.486  3.8987  0.9374  1.5719
13364SOL     OW52150   9.520   3.902   5.199  0.4617 -0.5177  0.5791
13364SOL    HW152151   9.463   3.820   5.207 -0.0911 -0.1198  0.7521
13364SOL    HW252152   9.485   3.973   5.260  0.3985  0.1562 -0.2381
13365SOL     OW52153   6.525   9.340   5.536 -0.0354 -0.2083  0.0044
13365SOL    HW152154   6.457   9.310   5.469 -1.2974 -1.3164  1.7406
13365SOL    HW252155   6.540   9.438   5.525 -3.0596  0.3640  0.5685
13366SOL     OW52156   9.983   3.102   2.709 -0.2997 -0.8547 -0.4518
13366SOL    HW152157   9.906   3.042   2.689 -0.3664 -0.3991 -1.5998
13366SOL    HW252158  10.066   3.064   2.669  0.1774 -1.6114  1.2236
13367SOL     OW52159   0.726   9.349   9.940 -0.8822 -0.6331 -0.0939
13367SOL    HW152160   0.694   9.439   9.909  0.9346 -0.9240 -2.9072
13367SOL    HW252161   0.650   9.284   9.934 -1.1822 -0.1589 -1.8087
13368SOL     OW52162   4.673   7.512   2.545  0.2269  0.6766 -0.0079
13368SOL    HW152163   4.761   7.465   2.541 -0.2345 -0.2780  0.8067
13368SOL    HW252164   4.653   7.536   2.640 -0.0086  1.6271 -0.2991
13369SOL     OW52165   9.801   3.278   6.866 -0.0323 -0.0487 -0.6644
13369SOL    HW152166   9.850   3.346   6.922  1.8333 -1.7231 -0.1914
13369SOL    HW252167   9.812   3.300   6.769  2.2127 -0.7338 -0.5872
13370SOL     OW52168   9.756   9.097   2.473 -0.0929 -0.0648 -0.2088
13370SOL    HW152169   9.692   9.066   2.544 -0.4801  1.8027  0.2867
13370SOL    HW252170   9.832   9.144   2.516  0.9997 -1.1785 -0.8894
13371SOL     OW52171   0.712   6.981   4.733 -0.4411 -0.3179 -0.2789
13371SOL    HW152172   0.789   7.028   4.775 -0.0753 -1.6727  0.5733
13371SOL    HW252173   0.738   6.947   4.643 -0.5337  0.5861 -0.6554
13372SOL     OW52174   3.173   6.835   6.523  0.0339 -0.3251  0.0660
13372SOL    HW152175   3.213   6.782   6.598 -0.6514  0.4482  0.9870
13372SOL    HW252176   3.239   6.841   6.447  1.9838  1.6019  1.8598
13373SOL     OW52177   0.173   8.806   7.081 -0.2159 -0.0701  0.1119
13373SOL    HW152178   0.235   8.806   7.003  0.3323  0.8337  0.5308
13373SOL    HW252179   0.220   8.767   7.160 -0.6935 -0.7732  0.0483
13374SOL     OW52180   9.085   5.787   8.419 -0.7030  0.0922  0.0307
13374SOL    HW152181   9.022   5.783   8.342 -0.4556 -1.1255 -0.1223
13374SOL    HW252182   9.148   5.864   8.408 -1.8243  1.0080 -0.0672
13375SOL     OW52183   5.424   1.573   1.220  0.2340 -0.0516  0.3805
13375SOL    HW152184   5.407   1.672   1.223 -1.6896 -0.3445 -0.0918
13375SOL    HW252185   5.339   1.525   1.241  0.0266 -1.6334 -3.7217
13376SOL     OW52186   2.765   7.867   3.531 -0.4651 -0.0930  0.5113
13376SOL    HW152187   2.797   7.962   3.533  0.4640 -0.3251 -1.5852
13376SOL    HW252188   2.769   7.833   3.437 -4.2016 -1.0813  0.6353
13377SOL     OW52189   7.102   0.667   2.370 -0.2181  0.5483 -0.5663
13377SOL    HW152190   7.064   0.611   2.297 -0.3714 -0.3317  0.1721
13377SOL    HW252191   7.074   0.629   2.459  1.8422  0.2549 -0.0196
13378SOL     OW52192   8.941   2.355   3.020 -0.0092  0.6863  0.3452
13378SOL    HW152193   8.973   2.287   3.086 -2.0923 -0.5022  0.1876
13378SOL    HW252194   9.019   2.396   2.974  1.3270 -1.0513  1.0063
13379SOL     OW52195   4.439   2.167   7.761 -0.1041  0.2017  0.2451
13379SOL    HW152196   4.394   2.102   7.823  2.0387 -1.4302  0.1547
13379SOL    HW252197   4.538   2.154   7.765  0.1868  1.4710 -1.9947
13380SOL     OW52198   3.065   6.594   1.726 -0.4471  0.0172 -0.6363
13380SOL    HW152199   3.054   6.536   1.807 -1.5438  1.2747  0.1523
13380SOL    HW252200   2.998   6.569   1.657  0.0553 -0.6239 -0.8949
13381SOL     OW52201   1.871   9.780   6.895 -0.1320 -0.7937 -0.3789
13381SOL    HW152202   1.954   9.751   6.942  0.1775 -0.8172 -0.9346
13381SOL    HW252203   1.791   9.759   6.951  0.2714 -0.3385  0.3648
13382SOL     OW52204   9.125   7.171   9.230  0.1628 -0.9383 -0.5404
13382SOL    HW152205   9.210   7.217   9.207 -0.6432 -0.5071 -2.7960
13382SOL    HW252206   9.113   7.091   9.171  0.1426 -2.3964  1.3891
13383SOL     OW52207   3.453   4.779   4.566  0.1213 -0.3533  0.1222
13383SOL    HW152208   3.414   4.834   4.640  0.6090  0.3407 -0.1352
13383SOL    HW252209   3.505   4.703   4.605  0.9919  0.4338  0.5120
13384SOL     OW52210   1.359   5.997   0.450  0.3773  0.1025  0.2875
13384SOL    HW152211   1.309   6.001   0.363 -0.9034 -1.2301  0.9458
13384SOL    HW252212   1.420   5.918   0.450  3.3940  2.3292 -0.9490
13385SOL     OW52213   9.154   8.052   9.786  0.4177 -0.6140 -0.2131
13385SOL    HW152214   9.095   8.013   9.714 -0.7604  3.2801 -1.5082
13385SOL    HW252215   9.250   8.042   9.759  0.0485 -0.6152 -1.5807
13386SOL     OW52216   7.926   0.588   5.895 -0.0425  0.1082  0.5884
13386SOL    HW152217   7.995   0.519   5.873  0.8900  0.7540  1.3874
13386SOL    HW252218   7.923   0.657   5.822  1.5857  1.1466  1.4694
13387SOL     OW52219   2.073   9.909   0.836  0.0516 -0.0536  0.1619
13387SOL    HW152220   2.038  10.000   0.859 -1.3992 -0.4690 -0.3480
13387SOL    HW252221   2.022   9.872   0.759 -0.2644 -1.8256  1.1803
13388SOL     OW52222   6.281   6.429   9.357 -0.2790 -0.2654 -0.1296
13388SOL    HW152223   6.231   6.481   9.288  1.0674  1.0378 -0.1410
13388SOL    HW252224   6.294   6.335   9.325 -1.0022 -0.0777 -0.9764
13389SOL     OW52225   5.036   5.291   8.619  0.1545  0.1605  0.7659
13389SOL    HW152226   4.965   5.297   8.689 -1.7495 -0.5828 -1.0427
13389SOL    HW252227   5.027   5.369   8.556  0.3941 -0.3727  0.0605
13390SOL     OW52228   9.688   8.927   5.426 -0.3610 -0.5274  0.0535
13390SOL    HW152229   9.707   8.853   5.490 -1.8236 -0.7471  0.2432
13390SOL    HW252230   9.743   9.007   5.449 -1.0806 -0.5099  1.7518
13391SOL     OW52231   3.067   3.925   7.409  0.2148  0.0685 -0.2073
13391SOL    HW152232   2.986   3.973   7.374  0.5250  0.7312 -0.0208
13391SOL    HW252233   3.148   3.983   7.397  0.4793 -0.1069  0.6776
13392SOL     OW52234   7.438   8.442   3.966 -0.4160  0.5217  0.0273
13392SOL    HW152235   7.414   8.381   3.890 -0.3254  0.6796 -0.1282
13392SOL    HW252236   7.355   8.461   4.019 -0.1334 -1.0908  1.0779
13393SOL     OW52237   2.131   9.421   4.682  0.1102 -0.9301 -0.3459
13393SOL    HW152238   2.151   9.355   4.609  2.3796 -0.6257 -0.0339
13393SOL    HW252239   2.173   9.509   4.660 -0.3893 -0.4286  0.6592
13394SOL     OW52240   0.830   6.353   6.023  0.4649  0.0465  0.3052
13394SOL    HW152241   0.841   6.383   5.928  0.5311  0.2982  0.3934
13394SOL    HW252242   0.919   6.330   6.062  0.2648 -1.7227 -0.2414
13395SOL     OW52243   9.703   7.975   1.162  0.1708 -0.1249 -0.0868
13395SOL    HW152244   9.652   8.015   1.238  3.2147  1.2348  1.3522
13395SOL    HW252245   9.699   7.875   1.167 -0.7648 -0.0290  1.0841
13396SOL     OW52246   6.654   3.024   2.572 -0.3763  0.4108 -0.0035
13396SOL    HW152247   6.580   2.958   2.556 -0.8924  1.0488 -0.3030
13396SOL    HW252248   6.705   3.037   2.487  0.8731 -0.9670  0.5202
13397SOL     OW52249   1.612   8.442   6.554 -0.0608 -0.3039 -0.2673
13397SOL    HW152250   1.517   8.444   6.586 -0.1517  0.5479 -0.5840
13397SOL    HW252251   1.659   8.365   6.596 -1.0313 -1.0378 -0.4934
13398SOL     OW52252   3.607   0.035   4.711  0.7029  0.2562 -0.1923
13398SOL    HW152253   3.605   0.051   4.612 -0.8404  0.7301 -0.0979
13398SOL    HW252254   3.533   0.086   4.755  1.0323 -0.3848  1.1466
13399SOL     OW52255   6.033   1.150   6.106  0.2906 -0.2366  0.3086
13399SOL    HW152256   6.077   1.114   6.188  0.0672  0.6245  0.8159
13399SOL    HW252257   6.020   1.249   6.116  0.9289 -0.0070 -1.0682
13400SOL     OW52258   5.327   5.877   1.152 -0.1310  0.3982 -0.4119
13400SOL    HW152259   5.237   5.841   1.129  0.9616 -1.7561 -1.4733
13400SOL    HW252260   5.389   5.864   1.074  1.9147 -1.0040  1.3978
13401SOL     OW52261   3.174   4.833   1.673 -0.2269  0.0913 -0.0712
13401SOL    HW152262   3.190   4.775   1.593  2.1875  1.2206 -0.4537
13401SOL    HW252263   3.207   4.785   1.755  0.9499  0.5192 -0.2776
13402SOL     OW52264   9.598   6.493   8.810  0.1714 -0.6860 -0.1777
13402SOL    HW152265   9.625   6.454   8.899 -0.7962 -0.4770  0.2197
13402SOL    HW252266   9.598   6.421   8.741  1.1984 -0.7977 -0.0716
13403SOL     OW52267   1.718   5.577   4.068  0.0754  0.6645 -0.9275
13403SOL    HW152268   1.805   5.569   4.115  0.1443 -1.1653 -1.3166
13403SOL    HW252269   1.648   5.608   4.132  0.7245  0.8106 -0.2869
13404SOL     OW52270   3.030   6.639   7.622  0.4147 -0.0854  0.5154
13404SOL    HW152271   3.130   6.647   7.627  0.5995 -0.1056 -2.7017
13404SOL    HW252272   3.003   6.549   7.658  1.4679  0.2269  2.1339
13405SOL     OW52273   3.771   6.819   9.909 -0.6423 -0.2363  0.2250
13405SOL    HW152274   3.868   6.842   9.909 -0.2569 -1.7910  0.8982
13405SOL    HW252275   3.739   6.809   9.814  0.4549 -2.1117  0.0350
13406SOL     OW52276   2.541   7.893   3.255  0.3410  0.5700  0.1192
13406SOL    HW152277   2.496   7.908   3.167  0.7122  2.2493  0.1949
13406SOL    HW252278   2.628   7.847   3.240 -0.4912 -0.9493 -0.1967
13407SOL     OW52279   0.589   6.865   7.387  0.0193 -0.5794 -0.0121
13407SOL    HW152280   0.598   6.916   7.473  0.0176 -0.3438 -0.1501
13407SOL    HW252281   0.521   6.910   7.330  0.6070 -0.2747 -0.4732
13408SOL     OW52282   9.663   1.755   7.606  0.2622 -0.3898 -0.1732
13408SOL    HW152283   9.626   1.663   7.592  0.0239 -0.2099 -0.7184
13408SOL    HW252284   9.705   1.787   7.522 -2.4711  1.2833 -0.9608
13409SOL     OW52285   4.180   4.849   0.573 -0.8151 -0.2298  0.0415
13409SOL    HW152286   4.247   4.908   0.529 -0.8991 -0.1857 -0.0287
13409SOL    HW252287   4.189   4.856   0.672 -2.4332  1.7714  0.0868
13410SOL     OW52288   5.036   3.082   5.262 -0.3528 -0.0609  1.0728
13410SOL    HW152289   5.080   3.066   5.174  0.2778  3.0875  0.7590
13410SOL    HW252290   5.091   3.042   5.335  1.0348  0.4837  0.3376
13411SOL     OW52291   1.947   3.121   4.315 -0.2305 -0.0280 -0.3921
13411SOL    HW152292   1.902   3.036   4.287  0.2199 -0.0016 -1.2196
13411SOL    HW252293   1.965   3.119   4.413  0.6600 -1.3112 -0.5699
13412SOL     OW52294   3.337   6.788   4.308 -0.5023 -0.1617 -0.2997
13412SOL    HW152295   3.282   6.848   4.250  1.2393  0.9497 -0.8425
13412SOL    HW252296   3.296   6.697   4.310 -2.7467  0.8174 -0.1013
13413SOL     OW52297   4.034   6.814   1.642  0.0246 -0.2137 -0.5742
13413SOL    HW152298   3.969   6.862   1.584 -0.0114 -1.7689 -1.8493
13413SOL    HW252299   4.121   6.805   1.594  0.0139 -1.4472 -0.3749
13414SOL     OW52300   7.424   8.049   7.660  0.3368 -0.3322  0.0040
13414SOL    HW152301   7.338   8.000   7.645  0.4396 -1.3804  2.6383
13414SOL    HW252302   7.412   8.145   7.635 -1.3315 -0.6615 -0.4974
13415SOL     OW52303   8.686   0.761   5.337 -0.1667  0.0265  0.2733
13415SOL    HW152304   8.734   0.674   5.328 -1.3824 -0.4546 -1.9158
13415SOL    HW252305   8.746   0.836   5.310  0.0547 -0.3736 -0.3489
13416SOL     OW52306   1.550   9.078   3.041 -0.1633 -0.3879  0.1412
13416SOL    HW152307   1.526   9.046   2.949 -0.1902 -2.0795  0.7153
13416SOL    HW252308   1.484   9.042   3.107  0.5735 -0.2190  0.9771
13417SOL     OW52309   5.302   1.292   4.655  0.5625 -0.5943 -0.1115
13417SOL    HW152310   5.331   1.366   4.715  1.1714  0.8769 -2.1834
13417SOL    HW252311   5.380   1.234   4.633  0.5306 -0.5869 -0.2444
13418SOL     OW52312   7.586   1.311   1.669  0.7971 -0.1098 -0.3099
13418SOL    HW152313   7.624   1.241   1.609  0.8182  0.7760 -1.3387
13418SOL    HW252314   7.492   1.331   1.641  1.4644  1.7284 -1.3131
13419SOL     OW52315   8.426   1.883   1.458 -0.1671  0.4537 -0.3607
13419SOL    HW152316   8.478   1.864   1.375  1.2088  3.1296 -0.1737
13419SOL    HW252317   8.346   1.938   1.435 -1.6229 -1.6061 -0.3214
13420SOL     OW52318   0.030   1.369   5.542 -0.1798 -0.2788  0.2334
13420SOL    HW152319  -0.049   1.316   5.511 -1.4165  2.1295 -0.8735
13420SOL    HW252320   0.001   1.433   5.614  0.6391  0.9819 -0.5303
13421SOL     OW52321   2.170   6.686   7.687  0.7437 -0.4412  0.2706
13421SOL    HW152322   2.111   6.633   7.626 -0.6055 -0.4872  1.5847
13421SOL    HW252323   2.138   6.781   7.691  1.5703 -0.1448 -0.0472
13422SOL     OW52324   8.368   6.630   5.618 -0.2398 -0.2789 -0.6549
13422SOL    HW152325   8.349   6.532   5.620  0.4979 -0.4132 -0.4779
13422SOL    HW252326   8.302   6.678   5.677  0.4265 -0.8313  0.5537
13423SOL     OW52327   3.685   6.301   1.469 -0.0804 -0.5454 -0.1686
13423SOL    HW152328   3.636   6.238   1.529  1.4595 -1.9118 -0.2996
13423SOL    HW252329   3.622   6.369   1.431 -1.5684 -1.3974  0.7787
13424SOL     OW52330   1.567   3.813   1.726 -0.5840  0.5393 -0.2464
13424SOL    HW152331   1.649   3.870   1.720 -0.4264  0.2935 -0.4436
13424SOL    HW252332   1.593   3.718   1.742 -0.8498  0.5395  0.1902
13425SOL     OW52333   1.365   4.272   5.950 -0.2994 -0.1050 -0.2937
13425SOL    HW152334   1.369   4.332   6.030 -1.0564 -0.5455  0.0791
13425SOL    HW252335   1.314   4.189   5.973 -0.6978 -0.1446 -1.2932
13426SOL     OW52336   3.134   6.098   3.344  0.0772  0.3860 -0.0078
13426SOL    HW152337   3.187   6.013   3.347 -1.0239 -0.3267 -0.4911
13426SOL    HW252338   3.099   6.111   3.251  1.5810  2.2000 -0.3426
13427SOL     OW52339   6.302   4.520   1.530  0.1291  0.0442  0.0456
13427SOL    HW152340   6.223   4.501   1.472  0.4530  2.5426 -1.3257
13427SOL    HW252341   6.272   4.535   1.624 -0.9786  0.4425 -0.3599
13428SOL     OW52342   6.832   0.273   4.017 -0.4394 -0.7039  0.3996
13428SOL    HW152343   6.871   0.219   3.942 -0.7775  2.5492 -2.2166
13428SOL    HW252344   6.905   0.298   4.081  0.2825 -1.5438 -0.0721
13429SOL     OW52345   8.440   6.186   9.610 -0.2696 -0.3201 -0.4497
13429SOL    HW152346   8.534   6.155   9.599 -0.0892  0.3533 -0.8229
13429SOL    HW252347   8.378   6.118   9.571  0.0444 -0.8850  0.0205
13430SOL     OW52348   4.793   6.098   1.105 -0.1976 -0.3924 -0.2555
13430SOL    HW152349   4.720   6.068   1.166  1.8592 -0.3247  2.3389
13430SOL    HW252350   4.845   6.172   1.149  0.2023  0.9289 -2.8804
13431SOL     OW52351   1.757   0.379   8.444  0.1339  0.0718 -0.3240
13431SOL    HW152352   1.797   0.351   8.531 -1.7792 -1.2151  0.1843
13431SOL    HW252353   1.692   0.453   8.459  1.3242  1.2673 -0.9639
13432SOL     OW52354   7.317   1.305   1.647  0.1634  0.3112  0.1690
13432SOL    HW152355   7.290   1.330   1.554  0.1978  2.4400  0.7121
13432SOL    HW252356   7.256   1.347   1.713  0.0199 -1.3461  1.1388
13433SOL     OW52357   0.051   8.809   7.495 -0.6202 -0.0667  0.1631
13433SOL    HW152358   0.044   8.900   7.454 -0.5382  0.1885  0.7220
13433SOL    HW252359  -0.007   8.745   7.443 -0.4296  0.2331 -0.4226
13434SOL     OW52360   7.066   7.490   2.229 -0.2852 -0.3455 -0.3032
13434SOL    HW152361   7.110   7.557   2.289  0.2322 -1.1948  0.2822
13434SOL    HW252362   6.982   7.458   2.272 -0.7217  0.1924 -0.7496
13435SOL     OW52363   9.230   4.942   6.698  0.0352 -0.2055 -0.7868
13435SOL    HW152364   9.242   4.843   6.701  2.1193 -0.0006 -1.2405
13435SOL    HW252365   9.310   4.987   6.737 -0.9626  1.3071 -0.4228
13436SOL     OW52366   9.638   9.419   3.291  0.4912 -0.1040 -0.1804
13436SOL    HW152367   9.569   9.350   3.273  0.6979 -0.2551 -0.4013
13436SOL    HW252368   9.686   9.398   3.377  0.0222  0.1973  0.1579
13437SOL     OW52369   9.594   0.968   5.676 -0.3077 -0.2596  0.2118
13437SOL    HW152370   9.610   0.876   5.710  1.1647 -0.3921 -0.7925
13437SOL    HW252371   9.534   1.017   5.739  0.9910 -1.0550  2.0916
13438SOL     OW52372   4.721   3.329   7.946  0.4236  1.1030 -0.2462
13438SOL    HW152373   4.752   3.234   7.947  0.0384  0.9610 -1.1894
13438SOL    HW252374   4.797   3.389   7.924  0.8489  1.0863  1.1474
13439SOL     OW52375   0.321   3.263   5.974 -0.1504  0.0821 -0.1270
13439SOL    HW152376   0.337   3.241   6.070 -0.8654 -1.2901 -0.3033
13439SOL    HW252377   0.255   3.338   5.968 -1.4155 -0.9600  0.4451
13440SOL     OW52378   8.875   5.357   3.591 -0.1300 -0.3044 -0.1613
13440SOL    HW152379   8.874   5.406   3.504 -0.6479 -2.5513 -1.4441
13440SOL    HW252380   8.968   5.324   3.609  0.1028  0.6480  0.4456
13441SOL     OW52381   9.775   0.883   6.711  0.2542  0.3469  0.4761
13441SOL    HW152382   9.859   0.862   6.660  0.6470  0.3439  1.1297
13441SOL    HW252383   9.745   0.976   6.688 -1.8149 -1.0399 -2.8776
13442SOL     OW52384   5.742   2.753   1.093 -0.1372  0.8416 -0.0300
13442SOL    HW152385   5.819   2.771   1.153 -1.6976  1.9893  1.6954
13442SOL    HW252386   5.724   2.833   1.036  0.2111  0.4205 -0.7341
13443SOL     OW52387   8.674   8.169   1.662 -0.0719  0.3444 -0.5201
13443SOL    HW152388   8.603   8.200   1.598  1.8147 -0.2623 -3.0038
13443SOL    HW252389   8.728   8.096   1.619  0.4132 -1.0626  2.3218
13444SOL     OW52390   2.486   8.374   9.495 -0.5270  0.3785  0.0275
13444SOL    HW152391   2.571   8.353   9.447 -0.2752 -0.7652  0.9359
13444SOL    HW252392   2.507   8.407   9.587 -1.0643 -0.8514  0.6117
13445SOL     OW52393   9.324   2.039   7.426 -0.3521  0.9205 -0.2388
13445SOL    HW152394   9.416   2.032   7.466 -0.5165 -3.7506 -0.4048
13445SOL    HW252395   9.330   2.076   7.334  1.7462 -1.8133 -1.2660
13446SOL     OW52396   9.408   3.590   8.632 -0.0247  0.5841  0.4329
13446SOL    HW152397   9.317   3.618   8.602  0.2820  1.6197  0.4224
13446SOL    HW252398   9.411   3.586   8.732  0.1174  1.3099  0.4659
13447SOL     OW52399   6.112   0.521   3.196 -0.1612 -0.3850  0.3343
13447SOL    HW152400   6.202   0.496   3.160 -0.0814 -0.3458  0.5077
13447SOL    HW252401   6.045   0.521   3.121  0.3002  1.1523 -0.1004
13448SOL     OW52402   8.385   4.398   3.251 -0.2600  0.5523  0.0397
13448SOL    HW152403   8.472   4.409   3.299  0.6738  1.1919 -1.7902
13448SOL    HW252404   8.370   4.475   3.189 -1.0391 -0.6920 -1.3609
13449SOL     OW52405   2.036   4.749   7.074  0.2258 -0.3344 -0.3996
13449SOL    HW152406   2.040   4.650   7.086  0.8541  0.0219  2.6641
13449SOL    HW252407   1.973   4.789   7.141 -1.7398  1.1790 -3.0083
13450SOL     OW52408   4.464   8.353   3.563  0.0037 -0.3912 -0.5522
13450SOL    HW152409   4.552   8.342   3.609 -1.6231 -0.7825  2.6032
13450SOL    HW252410   4.402   8.279   3.590 -1.3623 -0.0594 -2.6314
13451SOL     OW52411   3.428   4.227   6.541 -0.1968  0.5910 -0.2389
13451SOL    HW152412   3.374   4.145   6.526 -0.0990  0.4936 -0.0542
13451SOL    HW252413   3.413   4.262   6.634 -0.4256  0.9187 -0.4000
13452SOL     OW52414   7.633   8.490   2.362 -0.5463 -0.2512 -0.2068
13452SOL    HW152415   7.718   8.502   2.414 -0.4513  0.2516 -0.4765
13452SOL    HW252416   7.651   8.430   2.283  0.1277  1.7668 -1.6191
13453SOL     OW52417   1.701   2.004   7.787  0.1876  0.2014  0.8466
13453SOL    HW152418   1.607   1.969   7.782  0.2049  0.3122 -0.4045
13453SOL    HW252419   1.699   2.102   7.807 -0.0499  0.7144 -1.6053
13454SOL     OW52420   0.319   0.757   9.731 -0.1053 -0.6788  0.3711
13454SOL    HW152421   0.319   0.829   9.801  1.9100 -1.2295  0.9711
13454SOL    HW252422   0.251   0.688   9.754 -0.2130 -0.3020  1.2148
13455SOL     OW52423   2.148   9.754   2.956 -0.3271  0.3975  0.2358
13455SOL    HW152424   2.186   9.801   3.036  1.0664 -0.2673 -0.0076
13455SOL    HW252425   2.180   9.799   2.873  1.4863 -1.2831 -0.0108
13456SOL     OW52426   3.396   8.230   6.551  0.1206 -0.3621  0.0468
13456SOL    HW152427   3.322   8.295   6.539  0.7988  0.4178  0.0574
13456SOL    HW252428   3.454   8.258   6.628  1.1042 -0.3161 -0.6944
13457SOL     OW52429   3.133   9.667   6.793  0.0579  0.3954  0.2424
13457SOL    HW152430   3.094   9.701   6.879 -0.3812  0.8877 -0.1423
13457SOL    HW252431   3.107   9.729   6.719  1.8860  0.9270  0.0255
13458SOL     OW52432   9.926   1.167   2.631  0.3624 -0.1962 -0.1946
13458SOL    HW152433   9.915   1.071   2.607  1.4495 -0.6395  0.9925
13458SOL    HW252434   9.852   1.195   2.693 -0.0342 -0.2317 -0.6579
13459SOL     OW52435   0.418   5.886   9.720  0.6506 -0.4890  0.1036
13459SOL    HW152436   0.434   5.974   9.765  0.6609 -0.0288 -0.7753
13459SOL    HW252437   0.480   5.817   9.757  1.5009  0.1781 -0.0705
13460SOL     OW52438   3.059   7.580   2.979  0.2040  0.2962  0.2524
13460SOL    HW152439   3.092   7.582   3.073  0.8273 -0.0202  0.0430
13460SOL    HW252440   2.996   7.656   2.964 -0.3318  0.0194  1.0791
13461SOL     OW52441   6.821   4.590   9.637 -0.5960 -0.2160  0.0415
13461SOL    HW152442   6.872   4.588   9.723 -2.6473  0.2737  1.3185
13461SOL    HW252443   6.847   4.671   9.585  0.5005 -0.3899  0.3041
13462SOL     OW52444   8.831   4.686   9.275 -0.0459 -1.1741  0.3489
13462SOL    HW152445   8.909   4.689   9.212 -0.2504  0.1587  0.1228
13462SOL    HW252446   8.772   4.765   9.257  0.0129 -0.6570  2.3767
13463SOL     OW52447   9.730   3.588   1.192 -0.1228  0.2295 -0.6074
13463SOL    HW152448   9.702   3.633   1.107  0.2407  2.1450  0.2693
13463SOL    HW252449   9.777   3.654   1.251 -0.9125 -0.9214  1.3441
13464SOL     OW52450   1.225   5.911   3.416  0.8291  0.3993  0.5731
13464SOL    HW152451   1.299   5.856   3.377  0.5144  0.2080  0.2376
13464SOL    HW252452   1.229   5.906   3.515  0.2128 -1.0250  0.5391
13465SOL     OW52453   2.469   6.775   4.685  0.1207 -0.2188  0.5160
13465SOL    HW152454   2.493   6.746   4.777 -1.0351 -0.6002  0.7048
13465SOL    HW252455   2.535   6.736   4.620  0.4932 -0.5735  1.0971
13466SOL     OW52456   0.306   2.009   0.852 -0.6976 -0.1474 -0.7939
13466SOL    HW152457   0.234   2.059   0.804 -0.7595  1.8764  1.3514
13466SOL    HW252458   0.336   2.060   0.932  2.1121 -1.6549 -0.7920
13467SOL     OW52459   6.617   1.908   5.761 -0.2921 -0.4671  0.2954
13467SOL    HW152460   6.701   1.954   5.791  0.6592 -2.2949  0.5011
13467SOL    HW252461   6.554   1.975   5.723  1.5283  0.8459 -0.4552
13468SOL     OW52462   0.244   3.725   5.318  0.1885  0.1801 -0.2567
13468SOL    HW152463   0.183   3.788   5.270  0.6664 -0.1469 -1.3018
13468SOL    HW252464   0.206   3.704   5.408 -2.1113 -1.3914 -1.5694
13469SOL     OW52465   4.429   0.517   3.553  0.3828 -0.2993 -0.2409
13469SOL    HW152466   4.468   0.478   3.637  1.9054 -0.1625 -0.8735
13469SOL    HW252467   4.429   0.617   3.560  0.2555 -0.2960 -0.2886
13470SOL     OW52468   0.635   0.261  10.080 -0.0528  0.1719  0.0709
13470SOL    HW152469   0.567   0.188  10.070  0.4576 -0.2966  0.0530
13470SOL    HW252470   0.711   0.245  10.018  0.6019  0.1105  0.8916
13471SOL     OW52471   9.392   4.450   0.495  0.2756 -0.1331  0.5646
13471SOL    HW152472   9.390   4.526   0.430  0.3796  0.2579  1.0113
13471SOL    HW252473   9.303   4.443   0.540 -0.1056 -1.0047 -0.2966
13472SOL     OW52474   3.951   5.644   5.500 -0.2626 -0.8121  0.1082
13472SOL    HW152475   3.942   5.550   5.468  1.0576 -0.9320  0.0256
13472SOL    HW252476   4.046   5.660   5.529 -0.7071  0.2009  1.0523
13473SOL     OW52477   9.256   4.432   3.888  0.1892 -0.5544 -0.4788
13473SOL    HW152478   9.269   4.382   3.803  0.6775 -0.6456 -0.3500
13473SOL    HW252479   9.286   4.376   3.965 -2.2628 -1.3366 -0.0391
13474SOL     OW52480   2.992   4.056   1.201 -0.1909  0.0880 -0.0686
13474SOL    HW152481   2.907   4.047   1.251 -0.1787  0.4472  0.0176
13474SOL    HW252482   2.976   4.035   1.104 -0.3519  0.0472 -0.0332
13475SOL     OW52483   0.629   4.906   6.900  0.4730 -0.0414 -0.1317
13475SOL    HW152484   0.596   4.989   6.945 -0.0757 -0.8334  0.9387
13475SOL    HW252485   0.664   4.930   6.809 -1.3280  1.0894 -0.5636
13476SOL     OW52486   2.495   5.869   4.658 -0.4228  0.1811  0.2247
13476SOL    HW152487   2.483   5.769   4.660 -0.7922  0.2057 -0.7122
13476SOL    HW252488   2.570   5.892   4.596 -0.7928  0.5300 -0.0908
13477SOL     OW52489   9.515   7.336   7.367 -0.5656 -0.2997 -0.0677
13477SOL    HW152490   9.499   7.314   7.463 -1.3260  4.0436  0.8996
13477SOL    HW252491   9.454   7.411   7.338  2.2656  1.0982 -2.8060
13478SOL     OW52492   4.959   8.129   2.427  0.2450 -0.4822 -0.0534
13478SOL    HW152493   4.923   8.081   2.347  0.1698  1.4359 -1.2199
13478SOL    HW252494   5.053   8.100   2.444  0.5110 -0.3755 -1.3002
13479SOL     OW52495   8.526   2.840   8.257  0.3460  0.0841  0.2047
13479SOL    HW152496   8.589   2.773   8.217 -0.7432 -1.0823  0.3990
13479SOL    HW252497   8.520   2.826   8.356  0.2587  0.5959  0.2734
13480SOL     OW52498   3.301   4.433   4.125 -0.6394  0.2229 -0.4006
13480SOL    HW152499   3.350   4.371   4.063 -1.3312 -0.1396 -0.5906
13480SOL    HW252500   3.226   4.476   4.075  0.1505  1.6000 -0.4033
13481SOL     OW52501   7.832   9.254   6.119  0.5192 -0.1088  0.1095
13481SOL    HW152502   7.885   9.186   6.170 -0.4904 -0.0761  1.2235
13481SOL    HW252503   7.888   9.336   6.105  1.4942 -0.9016 -0.6177
13482SOL     OW52504   4.765   5.542   8.164  0.2976  0.0253  0.1108
13482SOL    HW152505   4.690   5.608   8.161 -0.9443 -1.3703  0.1170
13482SOL    HW252506   4.775   5.508   8.257  0.8646  0.0993  0.0802
13483SOL     OW52507   0.674   2.637   1.626  0.2931 -0.1099  0.4813
13483SOL    HW152508   0.754   2.691   1.652  1.5496 -1.4072 -0.5532
13483SOL    HW252509   0.703   2.543   1.605 -1.3933 -0.4051 -0.6431
13484SOL     OW52510   0.916   5.440   0.651 -0.4993  0.2082 -0.3194
13484SOL    HW152511   0.831   5.404   0.613 -1.9712  4.1259 -1.0367
13484SOL    HW252512   0.908   5.539   0.661  3.2788  0.4106  1.5333
13485SOL     OW52513   6.166   9.542   4.944  0.0076 -0.2096 -0.7351
13485SOL    HW152514   6.157   9.454   4.991 -1.0296  0.4395  0.3162
13485SOL    HW252515   6.105   9.609   4.986  0.1059  0.7808 -2.1148
13486SOL     OW52516   3.966   9.779   3.776  0.2030  0.0362 -0.0744
13486SOL    HW152517   4.023   9.706   3.813  0.2380  0.4784  0.7589
13486SOL    HW252518   3.935   9.838   3.850  1.1869  1.5985 -0.8864
13487SOL     OW52519   1.212   3.477   6.903 -0.1174 -0.1846 -0.3373
13487SOL    HW152520   1.170   3.390   6.930 -1.0040 -0.3360 -2.1459
13487SOL    HW252521   1.309   3.464   6.886 -0.1971 -0.7737 -0.3573
13488SOL     OW52522   2.513   6.976   6.451  0.6941  0.2725  0.2976
13488SOL    HW152523   2.574   7.049   6.480  0.8731  0.4883 -0.6064
13488SOL    HW252524   2.418   7.009   6.454  0.9374  1.2875 -2.2572
13489SOL     OW52525   6.700   1.999   8.734 -0.1713  0.1883 -0.3360
13489SOL    HW152526   6.729   1.911   8.697  0.2576  0.4258 -0.5783
13489SOL    HW252527   6.663   1.987   8.826  2.8585  0.1553  0.9302
13490SOL     OW52528   9.267   5.986   2.203 -0.3048  0.0366 -0.1696
13490SOL    HW152529   9.283   6.037   2.288 -0.3778 -1.0597  0.5186
13490SOL    HW252530   9.238   5.893   2.226 -0.0582 -0.3477 -1.4102
13491SOL     OW52531   1.422   2.895   2.521  0.2679 -0.1849 -0.2187
13491SOL    HW152532   1.467   2.819   2.473  0.0572 -0.9025  0.7002
13491SOL    HW252533   1.385   2.862   2.608  0.5464  1.0798  0.3914
13492SOL     OW52534   3.502   7.847   0.213 -0.3512 -0.4055 -0.4961
13492SOL    HW152535   3.600   7.831   0.202 -0.5572 -0.9661 -1.5744
13492SOL    HW252536   3.465   7.783   0.281 -0.1239 -0.7375 -0.6874
13493SOL     OW52537   7.745   5.915   5.066  1.0451 -0.3260  0.2213
13493SOL    HW152538   7.734   5.965   5.152  0.3564 -0.0557 -0.0210
13493SOL    HW252539   7.722   5.819   5.080  1.2404 -0.3442  0.4137
13494SOL     OW52540   1.664   8.102   2.887 -0.3529 -0.3280 -0.3927
13494SOL    HW152541   1.667   8.022   2.828 -0.8316  0.2532 -1.2037
13494SOL    HW252542   1.676   8.073   2.982  0.0646 -1.2966 -0.7363
13495SOL     OW52543   6.439   4.888  10.086 -0.0843 -0.3261 -0.2424
13495SOL    HW152544   6.450   4.966  10.023  0.3301 -0.1573  0.0366
13495SOL    HW252545   6.517   4.826  10.075 -0.7542 -1.0566 -0.9553
13496SOL     OW52546   4.652   1.331   8.010  0.5977  0.2382 -0.2571
13496SOL    HW152547   4.619   1.421   7.983  1.1301  0.1335 -1.2704
13496SOL    HW252548   4.580   1.263   7.999  0.8172  0.1943 -1.4323
13497SOL     OW52549   6.885   0.629   2.032  0.7699 -0.0317 -0.4185
13497SOL    HW152550   6.934   0.654   1.948  0.6017  2.6845  0.2549
13497SOL    HW252551   6.943   0.570   2.088  2.0443  0.5783 -1.0788
13498SOL     OW52552   4.926   8.415   0.948 -0.7504  0.7021 -0.1164
13498SOL    HW152553   4.846   8.386   1.001 -1.2604  0.7410 -0.8562
13498SOL    HW252554   5.001   8.350   0.964 -1.4531 -0.2730 -0.7021
13499SOL     OW52555   2.627   4.488   8.170  0.0527  0.2631 -0.2906
13499SOL    HW152556   2.700   4.476   8.103 -1.2738 -1.0802 -1.5261
13499SOL    HW252557   2.539   4.498   8.122 -0.7305  0.6599  1.2069
13500SOL     OW52558   8.866   8.746   5.243  0.1575 -0.3200  0.1329
13500SOL    HW152559   8.914   8.702   5.167  1.5769 -1.9255  1.8686
13500SOL    HW252560   8.815   8.677   5.295 -0.6279  0.7078  0.7534
13501SOL     OW52561   2.168   3.815   4.031 -0.8136  0.1032  0.2545
13501SOL    HW152562   2.089   3.809   4.093  1.0882 -1.1132  2.6660
13501SOL    HW252563   2.233   3.881   4.068  3.2441 -5.0830  3.1560
13502SOL     OW52564   7.789   5.475   8.794 -0.1122 -0.1347 -0.3204
13502SOL    HW152565   7.715   5.412   8.772  0.2969 -0.5021 -0.6739
13502SOL    HW252566   7.811   5.530   8.714 -0.3058  0.2914 -0.0818
13503SOL     OW52567   1.313   7.321   1.130 -0.4851 -0.0179 -0.3454
13503SOL    HW152568   1.330   7.365   1.042  2.0311 -2.3679 -1.0982
13503SOL    HW252569   1.392   7.333   1.189 -0.7417 -1.3980  0.3087
13504SOL     OW52570   6.792   6.460   2.083  0.2684  0.2985  0.5364
13504SOL    HW152571   6.745   6.548   2.078 -1.5381 -0.5870  1.4883
13504SOL    HW252572   6.734   6.393   2.128  1.7217 -1.3385  0.0659
13505SOL     OW52573   0.349   1.861   2.234  0.4138  0.3779  0.3670
13505SOL    HW152574   0.274   1.880   2.298  0.4483  2.9873 -0.2983
13505SOL    HW252575   0.433   1.905   2.267  1.0073 -0.2923 -0.2350
13506SOL     OW52576   7.063   9.358   7.861 -0.3163  0.1178 -0.0403
13506SOL    HW152577   6.998   9.291   7.827 -1.0159 -0.4039  2.2385
13506SOL    HW252578   7.152   9.315   7.874 -0.7375 -0.3556  1.3181
13507SOL     OW52579   9.973   8.810   9.764 -0.4225  0.2780 -0.3826
13507SOL    HW152580   9.879   8.822   9.796 -0.8213  0.7490 -1.6684
13507SOL    HW252581   9.993   8.880   9.695 -0.2365 -1.7935 -2.5099
13508SOL     OW52582   3.758   5.362   4.764  0.3141  0.2866  0.2706
13508SOL    HW152583   3.667   5.404   4.769  0.2775  0.3005 -0.4820
13508SOL    HW252584   3.754   5.279   4.709  1.1093  1.2713 -1.3373
13509SOL     OW52585   5.773   2.829   9.435  0.2247  0.2347 -0.3419
13509SOL    HW152586   5.788   2.890   9.513  0.3448  0.9986 -0.9560
13509SOL    HW252587   5.676   2.810   9.426  0.1774  0.4121 -0.2041
13510SOL     OW52588   5.780   3.216   9.436  0.0337  0.4397  0.3352
13510SOL    HW152589   5.743   3.171   9.355  0.1047 -2.2162  1.7243
13510SOL    HW252590   5.705   3.256   9.489 -0.3027 -0.2395  0.3767
13511SOL     OW52591   4.337   3.740   7.974 -0.4382 -0.3026  0.0462
13511SOL    HW152592   4.337   3.783   7.883  0.1992 -0.8077 -0.2023
13511SOL    HW252593   4.429   3.707   7.995 -0.5461 -0.0332  0.9543
13512SOL     OW52594   7.369   0.438   5.457  0.1141 -0.1034  0.5331
13512SOL    HW152595   7.329   0.372   5.521  1.4038  0.4981  1.9974
13512SOL    HW252596   7.295   0.488   5.411 -0.8482 -1.4584  0.5788
13513SOL     OW52597   7.601   1.875   5.201 -0.1564  0.0711  0.2631
13513SOL    HW152598   7.512   1.919   5.216 -0.3990  0.1425 -1.3004
13513SOL    HW252599   7.639   1.906   5.114  1.5733  0.3079  1.0908
13514SOL     OW52600   7.462   7.799   5.901 -0.7445  0.2790 -0.8022
13514SOL    HW152601   7.552   7.839   5.914  0.1275 -1.8092 -0.2327
13514SOL    HW252602   7.469   7.718   5.843 -2.1580 -0.2659 -0.2443
13515SOL     OW52603   7.337   3.806   7.434 -0.4313 -0.2882  0.0024
13515SOL    HW152604   7.395   3.726   7.422 -0.0145 -0.4729  2.8122
13515SOL    HW252605   7.366   3.878   7.371 -0.7234 -2.2672 -2.4501
13516SOL     OW52606   3.802   1.091   7.792 -0.2418 -0.4923 -0.1310
13516SOL    HW152607   3.717   1.133   7.823  0.5876  0.4471  0.8776
13516SOL    HW252608   3.780   1.015   7.731 -1.7964  0.0637 -0.3034
13517SOL     OW52609   7.302   6.234   2.041 -0.5486 -0.1819  0.5659
13517SOL    HW152610   7.229   6.236   2.110 -1.1497  1.1621 -0.1101
13517SOL    HW252611   7.263   6.213   1.952  0.1596 -1.3348  0.5162
13518SOL     OW52612   4.800   4.365   1.724 -0.6080 -0.8752  0.6666
13518SOL    HW152613   4.731   4.311   1.675 -1.3436  2.3724 -2.0850
13518SOL    HW252614   4.760   4.406   1.805 -1.5357 -0.2443 -0.0965
13519SOL     OW52615   9.503   4.268   3.528  0.2078  0.4096  0.0435
13519SOL    HW152616   9.528   4.298   3.621 -0.7187  1.1302  0.0613
13519SOL    HW252617   9.528   4.172   3.517  0.6091  0.4037  0.9396
13520SOL     OW52618   3.957   5.600   1.858 -0.1813  0.3827  0.7943
13520SOL    HW152619   3.872   5.555   1.886 -1.4259  1.6390 -0.8715
13520SOL    HW252620   4.022   5.531   1.824 -0.8168 -0.4973  1.3607
13521SOL     OW52621   9.678   1.258   4.654 -0.5653  0.0080  0.5480
13521SOL    HW152622   9.754   1.261   4.719  0.0769  3.7107 -0.2469
13521SOL    HW252623   9.707   1.210   4.571  0.1801 -0.4502  1.0630
13522SOL     OW52624   0.555   8.373   6.893  0.0931  0.2996  0.1686
13522SOL    HW152625   0.471   8.319   6.879  0.5121 -0.9122  2.1719
13522SOL    HW252626   0.532   8.459   6.938 -0.2516  0.6233 -0.6210
13523SOL     OW52627   2.222   0.501   9.613 -0.6626  0.5967  0.3984
13523SOL    HW152628   2.252   0.406   9.615 -0.9733  0.4685 -0.6703
13523SOL    HW252629   2.172   0.522   9.697 -1.0486 -0.3410  0.4087
13524SOL     OW52630   6.787   3.471   3.118 -0.0624 -0.2102 -0.1729
13524SOL    HW152631   6.822   3.459   3.211 -0.2656  1.0719  0.0743
13524SOL    HW252632   6.750   3.564   3.107  1.6831  0.2915 -2.0984
13525SOL     OW52633   8.452   8.532   0.528 -0.0394 -0.0542  0.3743
13525SOL    HW152634   8.458   8.625   0.493  1.5590 -0.4860 -0.5550
13525SOL    HW252635   8.518   8.474   0.480 -1.5307 -1.8364  0.4249
13526SOL     OW52636   0.808   9.166   3.533  0.3198 -0.0682 -0.1979
13526SOL    HW152637   0.728   9.107   3.520  1.7742 -1.8634 -1.2197
13526SOL    HW252638   0.777   9.260   3.549 -1.9787 -0.6239 -1.0770
13527SOL     OW52639   6.118   8.682   6.262  0.2526  0.0180  0.1205
13527SOL    HW152640   6.069   8.709   6.179  0.5969 -0.6611 -0.3104
13527SOL    HW252641   6.084   8.593   6.292 -0.3234  0.5585  1.0778
13528SOL     OW52642   0.934   0.833  10.057 -0.3492 -0.3640  0.2023
13528SOL    HW152643   0.871   0.865  10.128  0.0689 -0.1278  0.4682
13528SOL    HW252644   0.894   0.850   9.967 -0.4855  0.1663  0.3605
13529SOL     OW52645   9.876   8.981   0.398 -0.1288 -0.4516  0.0697
13529SOL    HW152646   9.952   8.924   0.368 -0.0423 -1.0962  1.4709
13529SOL    HW252647   9.866   9.059   0.336  1.0471 -0.8970 -0.6875
13530SOL     OW52648   4.253   7.880   0.882 -0.0165  0.1794 -0.2431
13530SOL    HW152649   4.351   7.896   0.888  0.2695 -1.3042 -0.9274
13530SOL    HW252650   4.204   7.965   0.903  1.3983  0.8492  0.3647
13531SOL     OW52651   3.046   9.010   6.664  0.0913 -0.2190  0.5783
13531SOL    HW152652   3.011   9.053   6.581 -1.1633 -1.0797  0.6472
13531SOL    HW252653   3.057   9.078   6.736 -1.8649  0.0077  0.6875
13532SOL     OW52654   1.566   4.885   3.626 -0.0301 -0.0124 -0.7137
13532SOL    HW152655   1.651   4.929   3.599  0.9933 -2.0608 -0.9777
13532SOL    HW252656   1.565   4.791   3.592 -2.5800  0.1000 -1.0461
13533SOL     OW52657   4.936   0.187   3.781 -0.2746  0.1592 -0.2097
13533SOL    HW152658   4.994   0.264   3.809 -1.0174  0.1729  1.3889
13533SOL    HW252659   4.965   0.105   3.829 -0.6466 -0.1469 -0.5108
13534SOL     OW52660   2.250   7.438   0.646  0.1519  0.1206 -0.0058
13534SOL    HW152661   2.189   7.414   0.722  1.2786 -1.9761  0.2630
13534SOL    HW252662   2.306   7.359   0.622  2.4539  1.8697 -0.5411
13535SOL     OW52663   3.089   2.031   1.456  0.6331 -0.1845  0.4425
13535SOL    HW152664   3.179   2.007   1.418  0.7414  2.9456 -1.4704
13535SOL    HW252665   3.100   2.061   1.551  1.3346 -1.5107  0.7970
13536SOL     OW52666   2.456   8.015   6.182  0.4523  0.4903 -0.3591
13536SOL    HW152667   2.417   8.006   6.274 -0.1102 -0.4429 -0.6829
13536SOL    HW252668   2.385   8.047   6.119  1.1872  2.5070 -0.2111
13537SOL     OW52669   4.084   4.451   2.935 -0.2342 -0.0900  0.1686
13537SOL    HW152670   4.173   4.452   2.982 -0.5562  0.1257  0.7679
13537SOL    HW252671   4.063   4.357   2.907  0.1311 -0.1601  0.1205
13538SOL     OW52672   6.981   8.662   4.081  0.1106 -0.2877 -0.0991
13538SOL    HW152673   7.022   8.753   4.080  1.6623 -0.9768 -1.1862
13538SOL    HW252674   6.934   8.647   3.994 -1.3929  0.0045  0.6423
13539SOL     OW52675   1.363   7.369   2.883  0.4400 -0.0956  0.1435
13539SOL    HW152676   1.330   7.408   2.798  1.5332  3.3003  1.2118
13539SOL    HW252677   1.312   7.407   2.960  1.2268 -1.1151  1.1907
13540SOL     OW52678   0.918   3.381   1.859  0.5503  0.1867  0.5961
13540SOL    HW152679   0.828   3.420   1.838  2.4323  3.5911 -1.6339
13540SOL    HW252680   0.944   3.316   1.787 -1.0751 -2.6468  2.4846
13541SOL     OW52681   1.072   3.186   8.974 -0.1913  0.2580  0.1931
13541SOL    HW152682   1.066   3.149   8.881  1.0261 -0.1091  0.2520
13541SOL    HW252683   1.156   3.239   8.984 -0.1039 -0.0463  1.1946
13542SOL     OW52684   1.836   5.631   7.760  0.1368 -0.2383 -0.5938
13542SOL    HW152685   1.867   5.637   7.665  1.0947 -0.6388 -0.3070
13542SOL    HW252686   1.770   5.705   7.778  0.0730 -0.0647 -1.5173
13543SOL     OW52687   2.081   7.063   5.818 -0.5527  0.0210 -0.5649
13543SOL    HW152688   2.072   7.082   5.916 -2.1414  2.9417 -1.2187
13543SOL    HW252689   2.177   7.064   5.793 -0.2405  1.0859  0.6300
13544SOL     OW52690   8.985   5.008   6.764  0.3162  0.1875 -0.0041
13544SOL    HW152691   8.995   5.053   6.853 -0.4925 -0.4132  0.3958
13544SOL    HW252692   9.075   4.978   6.732  0.5238 -0.2366  0.9575
13545SOL     OW52693   1.612   3.728   1.065  0.1009 -0.0184 -0.5688
13545SOL    HW152694   1.634   3.683   1.151 -1.1091 -1.5924 -1.0658
13545SOL    HW252695   1.550   3.671   1.012 -1.0331  2.0004 -1.4648
13546SOL     OW52696   7.147   5.917   8.369  0.4255 -0.0958  0.0444
13546SOL    HW152697   7.193   5.900   8.282  0.3710 -0.7116  0.1308
13546SOL    HW252698   7.141   6.015   8.386  3.5053 -0.0138  0.9678
13547SOL     OW52699   9.262   9.915   1.974  0.2916 -0.3460  0.1243
13547SOL    HW152700   9.260   9.927   1.875  0.4876  1.8591  0.3603
13547SOL    HW252701   9.178   9.869   2.004 -0.0898 -0.3791 -0.9871
13548SOL     OW52702   0.332   0.772   0.260 -0.2803  0.0671 -0.0507
13548SOL    HW152703   0.416   0.731   0.224  1.2102  1.9858  1.1703
13548SOL    HW252704   0.311   0.855   0.209 -0.9459  0.0962  0.2592
13549SOL     OW52705   9.759   8.152   8.477  0.0391 -0.1393  0.6849
13549SOL    HW152706   9.788   8.172   8.384  0.4261 -0.9018  0.6375
13549SOL    HW252707   9.823   8.193   8.542 -0.1213  0.2270  0.6128
13550SOL     OW52708   6.962   4.828   8.172  0.6164 -0.1340  0.4788
13550SOL    HW152709   6.963   4.806   8.270 -0.2557  2.0781  1.0176
13550SOL    HW252710   6.871   4.812   8.135  1.0990 -1.5428 -0.1280
13551SOL     OW52711   8.232   7.944   3.376 -0.0822  0.1884 -0.4675
13551SOL    HW152712   8.254   7.871   3.441 -1.3529  0.0834 -0.1570
13551SOL    HW252713   8.276   7.924   3.288  1.1692  0.0421  0.1736
13552SOL     OW52714   3.870   3.378   9.016  0.1034  0.3979 -0.1355
13552SOL    HW152715   3.908   3.353   8.927 -0.0486  0.7262 -0.2962
13552SOL    HW252716   3.876   3.301   9.079 -0.8086 -0.1828 -0.7629
13553SOL     OW52717   8.651   3.262   0.120  0.3137 -0.4717  0.7344
13553SOL    HW152718   8.749   3.252   0.134  0.4598 -0.0804  0.0206
13553SOL    HW252719   8.622   3.204   0.043  0.0611 -0.2819  0.6847
13554SOL     OW52720   9.185   1.729   3.963 -0.3131  0.5489  0.1714
13554SOL    HW152721   9.247   1.752   3.887 -1.0712 -0.1034 -0.6535
13554SOL    HW252722   9.096   1.701   3.926 -1.3537  2.1828  1.3514
13555SOL     OW52723   9.828   3.342   8.060 -0.1911 -0.3424  0.2240
13555SOL    HW152724   9.742   3.390   8.076  0.4068 -0.2296  3.5407
13555SOL    HW252725   9.852   3.289   8.142  1.7383 -2.2072 -1.4955
13556SOL     OW52726   8.971   6.339   4.440  0.5067  0.0854 -0.4553
13556SOL    HW152727   9.068   6.361   4.431  0.5903  0.0366  0.2638
13556SOL    HW252728   8.960   6.240   4.442  0.5149  0.0954  0.1744
13557SOL     OW52729   3.322   8.421   5.797 -0.1130 -0.0349  0.1710
13557SOL    HW152730   3.419   8.441   5.803 -0.3103  0.4370  2.0580
13557SOL    HW252731   3.306   8.351   5.726  1.5451  0.0671 -0.3140
13558SOL     OW52732   4.155   0.333   1.580  0.3121  0.0475 -0.8378
13558SOL    HW152733   4.102   0.260   1.624  0.4444  0.4693  0.0301
13558SOL    HW252734   4.109   0.360   1.496 -0.7997  0.3151 -0.1640
13559SOL     OW52735   8.304   9.691   2.425  0.6831  0.1460  0.4034
13559SOL    HW152736   8.403   9.704   2.421  0.5889  0.9682  0.5933
13559SOL    HW252737   8.261   9.774   2.461  0.0067 -0.5504  1.2310
13560SOL     OW52738   4.264   8.499   7.197 -0.7978  0.2571 -0.0506
13560SOL    HW152739   4.340   8.565   7.191 -1.9805  1.6195 -0.2008
13560SOL    HW252740   4.237   8.471   7.105  0.5380 -1.4290  0.0497
13561SOL     OW52741   1.048   5.123   7.835  0.4324  0.0387 -0.2171
13561SOL    HW152742   1.148   5.132   7.834  0.4945 -0.4240  0.9670
13561SOL    HW252743   1.009   5.192   7.896  0.0532 -0.0659 -0.3424
13562SOL     OW52744   3.690   0.630   1.917 -0.5016  0.3524  0.2262
13562SOL    HW152745   3.775   0.626   1.866 -2.2082 -1.3422 -2.6252
13562SOL    HW252746   3.614   0.644   1.854 -2.5310 -0.0516  2.5057
13563SOL     OW52747   7.388   6.753   7.726 -0.0026 -0.1402  0.1423
13563SOL    HW152748   7.363   6.719   7.817 -0.5368  0.6439  0.2860
13563SOL    HW252749   7.376   6.852   7.722  2.9552  0.2795  0.1850
13564SOL     OW52750   5.206   8.493   2.790 -0.0673  0.5180 -0.5384
13564SOL    HW152751   5.159   8.425   2.847  2.0409  2.3557  3.6288
13564SOL    HW252752   5.151   8.576   2.786 -0.0500  0.5118 -0.9077
13565SOL     OW52753   3.361   3.986   4.807 -0.7395 -0.4764  0.3247
13565SOL    HW152754   3.277   4.015   4.761  0.5983  0.7340 -1.4229
13565SOL    HW252755   3.385   4.053   4.878 -0.4495 -0.0442 -0.1816
13566SOL     OW52756   0.017   3.957   3.144 -0.1839 -0.1718  0.2985
13566SOL    HW152757   0.097   3.997   3.100 -0.8113 -0.8247 -1.4908
13566SOL    HW252758  -0.029   4.027   3.199 -0.2792  1.1439 -1.3834
13567SOL     OW52759   0.915   6.008   5.754  0.3001 -0.1695 -0.6444
13567SOL    HW152760   1.013   6.019   5.738  0.4652 -3.0768 -1.8318
13567SOL    HW252761   0.863   6.049   5.679  0.5234  2.2588  0.4715
13568SOL     OW52762   9.857   6.539   0.888  0.2081 -0.0647  0.2309
13568SOL    HW152763   9.824   6.633   0.878  1.5056  0.2593 -1.4286
13568SOL    HW252764   9.850   6.511   0.984 -2.0738  0.9889  0.4079
13569SOL     OW52765   1.186   9.018   9.051  0.4089  0.3758 -0.0739
13569SOL    HW152766   1.140   9.099   9.015  0.0911  0.7910  1.2316
13569SOL    HW252767   1.154   8.937   9.003 -0.6360  0.8289 -0.1531
13570SOL     OW52768   1.485   9.320   5.538 -0.1912 -0.4777  0.0125
13570SOL    HW152769   1.585   9.323   5.542 -0.1544 -0.9007 -0.6020
13570SOL    HW252770   1.447   9.396   5.592  0.4701  1.0155 -1.5953
13571SOL     OW52771   8.441   8.680   7.735  0.4335 -0.5150  0.9381
13571SOL    HW152772   8.384   8.691   7.816 -0.4615  0.8830  0.1325
13571SOL    HW252773   8.385   8.653   7.657  1.1598 -0.9881  0.5669
13572SOL     OW52774   5.211   9.333   6.949  0.2058 -0.2316 -0.1189
13572SOL    HW152775   5.145   9.396   6.991  1.0394  1.4390 -1.2444
13572SOL    HW252776   5.291   9.324   7.010  0.1802 -0.0230 -0.0534
13573SOL     OW52777   7.899   0.159   2.130  0.6090  0.7042 -0.3749
13573SOL    HW152778   7.805   0.126   2.122  0.0152  2.3768 -0.4929
13573SOL    HW252779   7.941   0.162   2.039  1.0652 -0.8528 -0.2202
13574SOL     OW52780   6.424   0.497   3.853 -0.1117  0.4093 -0.4681
13574SOL    HW152781   6.343   0.473   3.906  1.3591 -0.2925  1.4950
13574SOL    HW252782   6.463   0.414   3.812  1.2717  0.3035  1.0093
13575SOL     OW52783   2.943   5.689   6.722  0.4745  0.0935 -0.2317
13575SOL    HW152784   2.919   5.783   6.748  0.4626  0.3850 -1.2767
13575SOL    HW252785   3.011   5.691   6.649  1.0416 -0.7207  0.2784
13576SOL     OW52786   8.472   8.383   7.386  0.3211  0.2896  0.3584
13576SOL    HW152787   8.474   8.352   7.481 -0.8398  0.0797  0.3224
13576SOL    HW252788   8.557   8.432   7.365  1.2733 -1.0198  1.0338
13577SOL     OW52789   3.393   1.904   8.527 -0.4460 -0.7315  0.0984
13577SOL    HW152790   3.353   1.965   8.596 -0.5495 -1.7487  0.9492
13577SOL    HW252791   3.458   1.955   8.471  0.7189 -0.2224  1.8793
13578SOL     OW52792   3.467   6.516   5.125  0.3387  0.1357  0.5981
13578SOL    HW152793   3.503   6.427   5.153 -0.2566 -0.4825 -0.5704
13578SOL    HW252794   3.466   6.577   5.204  1.1561 -0.7544  1.3183
13579SOL     OW52795   3.433   3.817   8.231 -0.0582  0.4598 -0.4589
13579SOL    HW152796   3.364   3.757   8.190  0.9639 -0.2793 -1.1418
13579SOL    HW252797   3.476   3.770   8.308 -1.3957  1.5254  0.9472
13580SOL     OW52798   7.821   6.942   5.154  0.3535 -0.1878  0.6333
13580SOL    HW152799   7.841   6.844   5.155  2.2527  0.1833 -0.1869
13580SOL    HW252800   7.792   6.969   5.062  3.3918  0.6972 -0.1045
13581SOL     OW52801   2.826   3.241   6.534  0.1131 -0.3320  0.4728
13581SOL    HW152802   2.738   3.278   6.505  1.6799  1.8404 -1.7884
13581SOL    HW252803   2.837   3.253   6.632 -1.9196 -0.3044  0.7268
13582SOL     OW52804   7.270   7.799   7.622  0.0071  0.0163 -0.1196
13582SOL    HW152805   7.334   7.747   7.565 -1.7123 -2.0371 -0.2510
13582SOL    HW252806   7.225   7.869   7.566 -0.9072 -1.2989 -1.0638
13583SOL     OW52807   7.302   1.463   5.159 -0.7688  0.1600 -0.4046
13583SOL    HW152808   7.208   1.473   5.191 -0.4540  1.4345  0.1529
13583SOL    HW252809   7.305   1.476   5.060 -0.9719  1.6203 -0.2290
13584SOL     OW52810   0.327   6.998   5.197 -0.5759 -0.4241  0.3366
13584SOL    HW152811   0.288   6.945   5.122  0.5769 -1.1734  0.2478
13584SOL    HW252812   0.255   7.023   5.262 -1.3239 -1.1115 -0.2262
13585SOL     OW52813   6.930   0.340   6.323  0.1390  0.3916 -0.2049
13585SOL    HW152814   6.955   0.436   6.338 -0.2649  0.4180  0.3396
13585SOL    HW252815   6.985   0.302   6.249  1.7619  0.4447  0.9553
13586SOL     OW52816   4.435   3.188   6.654 -0.2298 -0.1068  0.5809
13586SOL    HW152817   4.451   3.184   6.752 -0.9812 -2.8572  0.6223
13586SOL    HW252818   4.473   3.106   6.610  2.9221  2.4983 -1.8853
13587SOL     OW52819   3.451   8.808  10.002  0.4537  0.3071 -0.4346
13587SOL    HW152820   3.416   8.714  10.002 -0.6847  0.7169 -0.3420
13587SOL    HW252821   3.383   8.869  10.044  1.0574  1.2122 -0.7526
13588SOL     OW52822   5.128   4.872   8.059 -0.3332 -0.0514 -0.6500
13588SOL    HW152823   5.150   4.816   7.979  1.7472 -0.0453 -0.1265
13588SOL    HW252824   5.029   4.879   8.069 -0.6375  0.2732 -3.4441
13589SOL     OW52825   4.872   6.609   0.901 -0.2748  0.3317 -0.0446
13589SOL    HW152826   4.849   6.513   0.884  0.5872  0.5447 -2.7734
13589SOL    HW252827   4.881   6.625   0.999 -3.1333 -1.7157  0.6157
13590SOL     OW52828   8.279   0.226   7.009 -0.2870 -0.0147 -0.6146
13590SOL    HW152829   8.230   0.256   7.091 -2.6407 -1.1616 -1.5439
13590SOL    HW252830   8.375   0.253   7.015 -1.4430  4.1754  0.3309
13591SOL     OW52831   8.509   8.562   9.942  0.5326 -0.1380 -0.0896
13591SOL    HW152832   8.498   8.479   9.886  0.2282 -0.1425 -0.0235
13591SOL    HW252833   8.600   8.601   9.926  0.0943  0.4002 -1.3254
13592SOL     OW52834   2.707   2.810   9.508 -0.4458 -0.0714 -0.2033
13592SOL    HW152835   2.635   2.869   9.545 -0.3441  0.9252 -1.5853
13592SOL    HW252836   2.796   2.845   9.537 -0.4963 -1.9496  2.4677
13593SOL     OW52837   8.612   4.400   1.355  0.3893  0.2928  0.1023
13593SOL    HW152838   8.637   4.304   1.347  1.2551  0.3783  1.4482
13593SOL    HW252839   8.634   4.448   1.270  0.0835 -0.6719 -0.5212
13594SOL     OW52840   8.375   9.235   0.866 -0.0723  0.0449 -0.0092
13594SOL    HW152841   8.361   9.259   0.962  0.1053  1.2191 -0.2760
13594SOL    HW252842   8.470   9.207   0.853 -0.3756 -1.2149  0.3766
13595SOL     OW52843   0.604   7.528   5.020  0.2036  0.3221 -0.6678
13595SOL    HW152844   0.543   7.590   4.970  0.2744  1.0201  0.1139
13595SOL    HW252845   0.686   7.510   4.965  0.6662  1.7446 -0.4582
13596SOL     OW52846   7.983   6.952   1.763 -0.0320 -0.5431  0.0898
13596SOL    HW152847   8.013   6.995   1.848 -0.2114 -2.3133  1.0712
13596SOL    HW252848   7.895   6.906   1.779  0.4211 -1.7294 -0.7904
13597SOL     OW52849   6.087   4.757   1.984  0.3113  0.1683 -0.3787
13597SOL    HW152850   6.030   4.770   1.904 -0.5443  2.4819  0.5744
13597SOL    HW252851   6.182   4.781   1.963 -0.4260  3.6439  0.0634
13598SOL     OW52852   4.008   5.554   0.215  0.2874  0.6876  0.0879
13598SOL    HW152853   4.000   5.505   0.301 -0.4501 -0.3925 -0.5763
13598SOL    HW252854   3.919   5.553   0.168  1.2198 -0.8001 -1.7555
13599SOL     OW52855   9.765   7.149   4.788  0.7169 -0.0443  0.4068
13599SOL    HW152856   9.810   7.189   4.868 -0.9795  0.4749  1.1181
13599SOL    HW252857   9.666   7.151   4.801  0.4726 -1.0963 -1.1735
13600SOL     OW52858   3.961   7.004   9.508  0.2182  0.0686 -0.1388
13600SOL    HW152859   3.929   6.924   9.458 -2.8060  0.6934  0.7152
13600SOL    HW252860   3.883   7.050   9.551  2.2328  1.9160  1.6547
13601SOL     OW52861   1.993   3.506   9.994 -0.1294 -0.0412  0.1980
13601SOL    HW152862   1.969   3.416   9.959 -0.6962  0.0368  0.3940
13601SOL    HW252863   2.086   3.529   9.965 -0.4910 -0.0990 -1.0158
13602SOL     OW52864   6.492   5.604   1.571  0.4288 -0.2791  0.0372
13602SOL    HW152865   6.550   5.648   1.503  1.2661 -1.7230 -0.1914
13602SOL    HW252866   6.543   5.592   1.656 -0.4953  1.1752  0.8059
13603SOL     OW52867   5.624   4.926   8.823  0.3369 -0.2951 -0.0797
13603SOL    HW152868   5.586   4.965   8.739  1.1129  1.3445  0.3126
13603SOL    HW252869   5.612   4.991   8.898 -0.8172 -1.9588  1.2093
13604SOL     OW52870   8.526   1.561   5.317 -0.0074 -0.1896  0.0243
13604SOL    HW152871   8.601   1.600   5.371 -0.0059  0.7531 -0.6465
13604SOL    HW252872   8.507   1.468   5.350  0.5629  0.0468  1.0751
13605SOL     OW52873   4.211   3.095   6.943  0.1480  0.5905  0.4153
13605SOL    HW152874   4.192   3.137   6.854  1.2525  0.1209 -0.0489
13605SOL    HW252875   4.152   3.137   7.012  0.1872  1.8666 -0.3059
13606SOL     OW52876   4.629   3.384   7.501  0.3468 -0.1440 -0.1898
13606SOL    HW152877   4.678   3.433   7.574  0.8862 -0.2421 -0.4830
13606SOL    HW252878   4.674   3.296   7.484  0.5594  0.1254 -1.0344
13607SOL     OW52879   5.352   5.398   1.433  0.3072  0.2414  0.6107
13607SOL    HW152880   5.306   5.473   1.386  1.5152  0.0867 -0.8418
13607SOL    HW252881   5.298   5.371   1.513 -1.0639  1.4202  0.1043
13608SOL     OW52882   1.618   6.144   4.075  0.4328 -0.3699 -0.1702
13608SOL    HW152883   1.565   6.060   4.088 -1.4939  0.9248  0.5039
13608SOL    HW252884   1.630   6.190   4.162  1.0937  0.2841 -0.6039
13609SOL     OW52885   4.112   0.809  10.005 -0.0049  0.1477 -0.5938
13609SOL    HW152886   4.172   0.742   9.962 -0.9377 -1.6113  0.7805
13609SOL    HW252887   4.146   0.901   9.987  1.2622 -0.6852 -2.5583
13610SOL     OW52888   0.477   0.149   6.173  0.0687  0.4207 -0.1351
13610SOL    HW152889   0.537   0.173   6.096  0.2979  3.0864  0.8245
13610SOL    HW252890   0.529   0.156   6.258 -1.6356  3.0446  0.7397
13611SOL     OW52891   4.614   5.478   1.530 -0.0411 -0.3621 -0.3012
13611SOL    HW152892   4.658   5.505   1.616 -1.7488  2.3608 -0.2329
13611SOL    HW252893   4.559   5.554   1.495 -2.7607 -2.8629 -1.6365
13612SOL     OW52894   4.949   9.010   0.616 -0.0747  0.5786 -0.3156
13612SOL    HW152895   4.985   9.005   0.523  1.6400 -0.6278  0.3951
13612SOL    HW252896   5.007   8.956   0.677 -1.3380  1.1450  1.4074
13613SOL     OW52897   8.428   9.297   2.551 -0.3384  0.0852 -0.3625
13613SOL    HW152898   8.487   9.377   2.538  0.8565 -1.1610 -3.1113
13613SOL    HW252899   8.467   9.219   2.502 -0.8282 -2.5451  3.2602
13614SOL     OW52900   9.452   9.903   0.002  0.3708 -0.2404  0.3698
13614SOL    HW152901   9.414   9.888   0.093 -0.3662  0.8356  0.2516
13614SOL    HW252902   9.380   9.890  -0.066  1.0503 -1.5791 -0.1018
13615SOL     OW52903   6.719   2.046   1.185  0.1343 -0.2077 -0.0853
13615SOL    HW152904   6.696   2.059   1.281  1.3192 -1.0230  0.3126
13615SOL    HW252905   6.675   2.118   1.130 -1.9766 -0.7664  0.8339
13616SOL     OW52906   2.472   5.664   7.208 -0.6880  0.0665 -0.2826
13616SOL    HW152907   2.429   5.734   7.265  3.0608  2.8191 -0.6807
13616SOL    HW252908   2.502   5.588   7.265  1.5944  2.0649  1.2510
13617SOL     OW52909   4.022   7.689   1.963 -0.2139  0.5340  0.1322
13617SOL    HW152910   4.097   7.671   2.025  0.6898 -1.2163 -1.3928
13617SOL    HW252911   4.029   7.628   1.884 -2.3986  1.3652 -0.7555
13618SOL     OW52912   1.002   7.094   8.973 -0.1834 -0.1876  0.1665
13618SOL    HW152913   1.084   7.148   8.992  0.4336 -0.9514 -0.2681
13618SOL    HW252914   1.024   6.996   8.981 -1.0180 -0.3995 -0.0723
13619SOL     OW52915   9.988   0.181   5.790  0.3640 -0.2207 -0.1582
13619SOL    HW152916   9.995   0.226   5.879 -0.0105 -1.3540  0.4557
13619SOL    HW252917  10.046   0.099   5.789  0.6313 -0.0286 -1.0708
13620SOL     OW52918   3.712   7.327   2.407 -0.4108  0.3455 -0.2827
13620SOL    HW152919   3.758   7.246   2.372 -0.8528 -0.5897  1.2619
13620SOL    HW252920   3.725   7.403   2.343  1.4112 -0.4833 -0.9264
13621SOL     OW52921   3.241   8.592   0.930  0.1202 -0.0082  0.1811
13621SOL    HW152922   3.278   8.534   0.857  1.5153  1.1122 -0.0247
13621SOL    HW252923   3.142   8.594   0.923  0.1503 -1.0568 -0.8170
13622SOL     OW52924   8.925   1.245   6.901 -0.1909  0.0449 -0.5023
13622SOL    HW152925   8.876   1.275   6.983  1.2912  0.1530  0.3517
13622SOL    HW252926   8.867   1.182   6.850 -1.1806  0.0622  0.5627
13623SOL     OW52927   2.202   7.084   6.439  0.1276  0.1974 -0.3595
13623SOL    HW152928   2.182   6.986   6.436  2.0545 -0.2247 -0.0230
13623SOL    HW252929   2.174   7.127   6.353 -0.9893 -0.5683 -0.3966
13624SOL     OW52930   6.422   7.818   4.399  0.1084 -0.0408 -0.4124
13624SOL    HW152931   6.503   7.792   4.452 -1.5190 -1.2764  1.4785
13624SOL    HW252932   6.394   7.910   4.426 -2.1648 -1.5775  2.7355
13625SOL     OW52933   7.351   1.093   7.818  0.5411  0.1475 -0.1395
13625SOL    HW152934   7.408   1.019   7.785  0.6512 -0.9038  2.3198
13625SOL    HW252935   7.406   1.176   7.830  0.8722  0.0240 -0.8200
13626SOL     OW52936   1.030   4.732   0.827  0.0281  0.5098 -0.6985
13626SOL    HW152937   1.031   4.815   0.771  0.7207 -1.4539 -3.7279
13626SOL    HW252938   0.954   4.735   0.891 -1.4967  2.3355 -2.5461
13627SOL     OW52939   1.157   5.401   2.096  0.4902  0.1803 -0.1506
13627SOL    HW152940   1.108   5.469   2.042 -2.0309  0.3089  2.1941
13627SOL    HW252941   1.132   5.309   2.065 -2.2756  0.2134  1.7823
13628SOL     OW52942   0.812   4.697   3.903 -0.5364  0.5757  0.0169
13628SOL    HW152943   0.787   4.763   3.974  0.5449  0.8702  0.1403
13628SOL    HW252944   0.859   4.744   3.828  2.1216 -0.3080  1.0573
13629SOL     OW52945   2.834   2.677   6.193  0.1441 -0.1185  0.1988
13629SOL    HW152946   2.870   2.771   6.194 -0.5795  0.1599  1.8004
13629SOL    HW252947   2.744   2.676   6.151  0.2405 -0.1218 -0.0064
13630SOL     OW52948   0.699   2.408   3.392 -0.2698  0.2741  0.7101
13630SOL    HW152949   0.677   2.329   3.336 -2.3287  0.1751  1.6033
13630SOL    HW252950   0.754   2.380   3.470 -0.4797 -0.1863  0.6949
13631SOL     OW52951   1.763   1.480   2.270 -0.1045 -0.1995  0.1834
13631SOL    HW152952   1.692   1.410   2.275 -0.4505  0.1946  0.7846
13631SOL    HW252953   1.733   1.563   2.318 -0.4198  0.9914 -2.0184
13632SOL     OW52954   6.646   6.087   9.087  0.7273  0.0316 -0.0486
13632SOL    HW152955   6.721   6.025   9.114  1.3994  1.3494  1.1736
13632SOL    HW252956   6.574   6.034   9.042  1.9075 -1.4302 -0.2697
13633SOL     OW52957   9.874   3.945   8.198 -0.3840 -0.1913 -0.2877
13633SOL    HW152958   9.935   3.887   8.144  1.1185 -0.2900  1.4818
13633SOL    HW252959   9.872   3.913   8.293 -2.1406  0.6321 -0.0246
13634SOL     OW52960   0.171   6.888   2.169 -0.0080 -0.0419  0.5630
13634SOL    HW152961   0.226   6.861   2.090  0.4103  1.0136  0.4749
13634SOL    HW252962   0.204   6.976   2.203 -3.2201  1.8871 -1.0461
13635SOL     OW52963   0.342   9.899   8.097 -0.0804  0.3168 -0.2733
13635SOL    HW152964   0.402   9.833   8.052  0.3124  0.4399  0.0579
13635SOL    HW252965   0.342   9.881   8.196 -2.4959 -1.2222 -0.4992
13636SOL     OW52966   4.012   4.205   0.760 -0.0297 -0.6179 -0.1310
13636SOL    HW152967   4.102   4.177   0.793 -1.0963 -2.3736  1.3827
13636SOL    HW252968   3.966   4.127   0.718 -1.3593 -0.0845  0.2967
13637SOL     OW52969   4.551   3.433   8.898 -0.0574  0.0693  0.4851
13637SOL    HW152970   4.529   3.414   8.802 -0.1208  2.0076  0.0951
13637SOL    HW252971   4.467   3.439   8.951 -0.0907  0.3644  0.3979
13638SOL     OW52972   1.837   7.118   2.934 -0.1106  0.2330  0.2094
13638SOL    HW152973   1.930   7.151   2.921  0.0525  0.7661  2.4695
13638SOL    HW252974   1.835   7.018   2.924  0.7614  0.1921  0.3860
13639SOL     OW52975   3.414   6.164   8.015 -0.7889 -0.0230  0.0231
13639SOL    HW152976   3.471   6.175   8.096  0.7042  1.7403 -1.2118
13639SOL    HW252977   3.414   6.068   7.987  0.6697 -0.2445  0.7353
13640SOL     OW52978   1.249   5.261   3.101  0.0393 -0.0356 -0.0790
13640SOL    HW152979   1.333   5.316   3.111  0.8646 -1.1781 -0.6094
13640SOL    HW252980   1.248   5.189   3.170 -0.3131 -0.2657 -0.3227
13641SOL     OW52981   8.548   8.714   4.825  0.4093 -0.0167  0.1986
13641SOL    HW152982   8.521   8.741   4.918 -0.1072 -1.5522  0.5078
13641SOL    HW252983   8.466   8.693   4.771  0.8012 -0.9973 -0.0170
13642SOL     OW52984   7.357   2.522   3.556 -0.1734  0.1988 -0.2067
13642SOL    HW152985   7.370   2.426   3.583 -0.8996  0.4251  0.9484
13642SOL    HW252986   7.260   2.546   3.562 -0.1025  0.7679 -1.3063
13643SOL     OW52987   3.930   5.516   4.611 -0.5359  0.1744 -0.3216
13643SOL    HW152988   3.870   5.470   4.676  0.5154  0.2155  0.6894
13643SOL    HW252989   3.974   5.448   4.552 -2.9867  0.2686 -2.3223
13644SOL     OW52990   2.257   5.908   3.068  0.5268  0.0639 -0.8440
13644SOL    HW152991   2.220   5.999   3.087  0.6029  0.3463 -2.0064
13644SOL    HW252992   2.224   5.877   2.979  2.1064 -0.1953 -1.3558
13645SOL     OW52993   3.933   2.301   1.673 -0.1976 -0.5061  0.1420
13645SOL    HW152994   4.007   2.281   1.608  0.0144  1.8937 -0.4158
13645SOL    HW252995   3.968   2.297   1.766 -0.0240 -2.0501  0.0130
13646SOL     OW52996   3.926   4.708   6.161 -0.4149  0.0736 -0.3012
13646SOL    HW152997   3.951   4.630   6.103  1.6450 -0.3487  1.1075
13646SOL    HW252998   3.841   4.688   6.209  0.5373 -1.7053  0.7121
13647SOL     OW52999   6.375   1.794   5.311 -0.1395 -0.3569  0.4793
13647SOL    HW153000   6.466   1.786   5.352  0.1013 -0.5378 -0.0902
13647SOL    HW253001   6.378   1.862   5.237 -0.6082  0.0782  0.8565
13648SOL     OW53002   5.205   3.794   0.763 -0.1675  0.0870 -0.3703
13648SOL    HW153003   5.107   3.812   0.777  0.0861  1.6135 -0.4735
13648SOL    HW253004   5.229   3.708   0.808 -1.5244 -0.2221 -0.1955
13649SOL     OW53005   9.546   9.605   2.043  0.7318 -0.2572  0.1037
13649SOL    HW153006   9.634   9.652   2.037 -0.1121  1.4562  0.7814
13649SOL    HW253007   9.481   9.661   2.094 -0.2854 -2.2237  1.0634
13650SOL     OW53008   7.251   0.297   4.678  0.2734  0.0724  0.0455
13650SOL    HW153009   7.207   0.338   4.757 -0.9011 -0.1280 -0.4975
13650SOL    HW253010   7.287   0.369   4.618 -0.5588  0.2804 -0.2113
13651SOL     OW53011   9.450   5.594   0.030 -0.2302 -0.7373  0.5476
13651SOL    HW153012   9.529   5.533   0.025 -1.1594 -2.1031  2.0545
13651SOL    HW253013   9.378   5.562  -0.031  0.0564  0.0439 -0.2110
13652SOL     OW53014   4.071   6.852   4.592 -0.3911 -0.4619 -0.3071
13652SOL    HW153015   4.123   6.807   4.664 -0.8299  1.3532  1.1676
13652SOL    HW253016   3.974   6.830   4.603 -0.5995  0.7584  0.3793
13653SOL     OW53017   7.948   7.332   3.159 -0.4305  0.1770  0.3791
13653SOL    HW153018   7.869   7.278   3.189 -1.9543  0.7240 -2.5205
13653SOL    HW253019   8.000   7.280   3.091  1.2633  0.1822  1.6224
13654SOL     OW53020   3.787   8.992   7.026 -0.1460  0.2421  0.7399
13654SOL    HW153021   3.860   8.947   6.974 -0.3189  0.8894 -0.0749
13654SOL    HW253022   3.698   8.966   6.988 -0.2097  2.2611 -0.5778
13655SOL     OW53023   3.905   1.469   5.395 -0.7846  0.4697 -0.3052
13655SOL    HW153024   3.946   1.413   5.323 -0.8364 -0.6077  0.4899
13655SOL    HW253025   3.887   1.561   5.360 -1.6027 -0.2929 -1.9251
13656SOL     OW53026   9.005   4.017   4.877  0.5047 -0.4811 -0.2720
13656SOL    HW153027   8.972   4.079   4.948  0.9289 -2.2307  1.5091
13656SOL    HW253028   8.964   4.041   4.789 -0.3334  1.4773  0.6365
13657SOL     OW53029   9.625   7.048   6.737  0.2238 -0.3059  0.7861
13657SOL    HW153030   9.669   6.996   6.811  4.1202 -0.2517 -1.3569
13657SOL    HW253031   9.616   6.990   6.656 -1.0697  0.5471  0.3134
13658SOL     OW53032   1.312   5.939   3.711 -0.5812  0.7626 -0.2203
13658SOL    HW153033   1.407   5.913   3.698 -0.3480  1.2465  0.5315
13658SOL    HW253034   1.305   6.008   3.783 -1.5733  0.2287  0.2058
13659SOL     OW53035   3.950   5.942   9.927  0.2148 -0.5082  0.2220
13659SOL    HW153036   3.856   5.917   9.950 -0.4902  2.2197  0.5715
13659SOL    HW253037   3.960   5.946   9.827  0.2466 -1.8132  0.1755
13660SOL     OW53038   2.836   7.597   6.545  0.7319  0.4786 -0.1191
13660SOL    HW153039   2.787   7.652   6.478  0.2274  1.3936  0.9854
13660SOL    HW253040   2.771   7.549   6.603  1.1652 -0.2706 -0.2523
13661SOL     OW53041   3.469   8.253   6.175 -0.3875  0.4755 -0.3126
13661SOL    HW153042   3.507   8.311   6.248  2.0539 -0.6792 -0.6039
13661SOL    HW253043   3.449   8.162   6.213  1.7057 -0.4026 -1.2142
13662SOL     OW53044   7.868   5.582   5.092 -0.4382 -0.3100 -0.4367
13662SOL    HW153045   7.805   5.588   5.170 -1.2218 -2.0164 -0.9204
13662SOL    HW253046   7.816   5.585   5.007  0.4035  1.3778 -0.9271
13663SOL     OW53047   4.392   9.667   4.424  0.0432 -0.2829  0.4602
13663SOL    HW153048   4.432   9.581   4.456  1.2343 -0.5495 -1.6833
13663SOL    HW253049   4.464   9.726   4.388 -0.7823  1.5976  1.8035
13664SOL     OW53050   3.179   9.739   3.661 -0.2350 -0.4303 -0.1325
13664SOL    HW153051   3.232   9.736   3.746  1.0562 -0.1418 -0.9058
13664SOL    HW253052   3.240   9.761   3.585 -1.6844  1.1069 -0.8828
13665SOL     OW53053   1.106   4.850   7.887  0.4841  0.1161  0.2101
13665SOL    HW153054   1.043   4.783   7.848  1.9790  0.1126 -2.2931
13665SOL    HW253055   1.060   4.938   7.897 -0.0345  0.0261 -1.3049
13666SOL     OW53056   3.848   9.592   7.315  0.4454  0.3083  0.2260
13666SOL    HW153057   3.939   9.627   7.293  0.5621  0.7214  1.3428
13666SOL    HW253058   3.799   9.659   7.371  0.3636 -0.9035  1.6536
13667SOL     OW53059   2.254   7.346   3.674 -0.0568 -0.1646  0.1193
13667SOL    HW153060   2.286   7.436   3.701  1.5719 -0.3939 -0.9814
13667SOL    HW253061   2.310   7.275   3.718  0.7534 -0.5719 -1.5306
13668SOL     OW53062   5.578   2.063   5.466  0.4230  0.2256  0.1496
13668SOL    HW153063   5.678   2.053   5.469  0.5781  1.6847  0.4854
13668SOL    HW253064   5.547   2.052   5.372  0.7456 -1.4732  0.2223
13669SOL     OW53065   8.581   6.808   1.653  0.1117 -0.3265  0.1828
13669SOL    HW153066   8.667   6.781   1.698  0.7391  0.5179 -0.4828
13669SOL    HW253067   8.504   6.776   1.708  0.8254 -2.2785  0.1219
13670SOL     OW53068   7.443   4.450  10.033  0.6402 -0.2474  0.3669
13670SOL    HW153069   7.417   4.500   9.951  0.0576 -1.3787 -0.1549
13670SOL    HW253070   7.421   4.353  10.021 -0.2026 -0.3093  2.1530
13671SOL     OW53071   1.280   2.575   9.038  0.0157 -0.0216  0.3324
13671SOL    HW153072   1.233   2.628   9.108 -0.0640 -0.4812  0.6264
13671SOL    HW253073   1.213   2.542   8.971  0.1949  1.0684 -0.3832
13672SOL     OW53074   6.936   2.732   2.601  0.3525  0.3240 -0.0242
13672SOL    HW153075   7.024   2.772   2.575  2.4499 -1.8561  3.4726
13672SOL    HW253076   6.889   2.793   2.665 -0.3568  1.0978 -1.2559
13673SOL     OW53077   5.014   8.526   6.301 -0.3115 -0.1914 -0.1433
13673SOL    HW153078   4.919   8.496   6.302  0.5695 -3.1523  0.6048
13673SOL    HW253079   5.020   8.616   6.257 -3.5839  0.6853  1.0289
13674SOL     OW53080   3.121   0.751   1.694 -0.5880  0.0268 -0.2713
13674SOL    HW153081   3.131   0.751   1.793 -1.7046  1.4977 -0.1404
13674SOL    HW253082   3.198   0.800   1.652 -1.0794  1.0576  0.0030
13675SOL     OW53083   8.243   8.917   7.361  0.3026  0.4830  0.0705
13675SOL    HW153084   8.209   8.982   7.428  0.4195  0.0583  0.5498
13675SOL    HW253085   8.197   8.931   7.274 -0.4436  0.5004  0.4651
13676SOL     OW53086   4.070   8.351   1.187  0.3497  0.3634  0.1026
13676SOL    HW153087   4.092   8.411   1.110  3.8527  0.2580  0.9588
13676SOL    HW253088   3.976   8.368   1.217  0.0786  2.8046 -2.0128
13677SOL     OW53089   2.867   9.124   9.871 -0.2141 -0.3562  0.2838
13677SOL    HW153090   2.879   9.152   9.776  0.3876  0.8280  0.7039
13677SOL    HW253091   2.855   9.024   9.875  0.2634 -0.4736 -0.9781
13678SOL     OW53092   3.138   5.500   5.661 -0.2528 -0.0979  0.3487
13678SOL    HW153093   3.048   5.458   5.675 -0.5889  0.6821  0.5756
13678SOL    HW253094   3.127   5.584   5.608  0.1247  1.0047  2.0057
13679SOL     OW53095   8.129   4.827   5.776 -0.0021 -0.5038  0.2717
13679SOL    HW153096   8.194   4.837   5.852 -2.0325 -1.7890  2.2638
13679SOL    HW253097   8.118   4.730   5.755 -1.0851 -0.2893 -0.1851
13680SOL     OW53098   3.721   3.415   3.027  0.1637  0.1769  0.2287
13680SOL    HW153099   3.737   3.510   3.051  3.2088 -0.8054  2.5652
13680SOL    HW253100   3.802   3.379   2.979  0.2712 -1.9364  1.9063
13681SOL     OW53101   2.899   3.049   3.909  0.6048 -0.3111  0.4178
13681SOL    HW153102   2.934   2.956   3.916 -0.8281 -0.9478 -0.8073
13681SOL    HW253103   2.816   3.050   3.854 -1.0287  1.2766  2.8201
13682SOL     OW53104   2.341   5.256   1.732 -0.0279  0.1481 -0.5661
13682SOL    HW153105   2.356   5.338   1.787 -0.4419 -0.2919  0.2205
13682SOL    HW253106   2.249   5.258   1.692  0.1114  0.2600 -0.8812
13683SOL     OW53107   4.081   2.231   7.000 -0.1385  0.1696  0.2468
13683SOL    HW153108   4.154   2.238   6.933  0.3860  1.1577  0.9128
13683SOL    HW253109   4.034   2.319   7.007 -1.1135 -0.3346  0.1380
13684SOL     OW53110   0.446   6.575   6.641  0.0214  0.0310 -0.2086
13684SOL    HW153111   0.377   6.647   6.632 -0.9303 -0.9063 -0.4347
13684SOL    HW253112   0.530   6.615   6.678  0.2397  1.7111 -2.3552
13685SOL     OW53113   7.208   7.499   2.724 -0.3249 -0.1198  0.8253
13685SOL    HW153114   7.143   7.550   2.667 -0.6067 -1.7158 -0.3499
13685SOL    HW253115   7.208   7.403   2.695  2.2934 -0.2181  1.0728
13686SOL     OW53116   3.506   9.361   1.889  0.0477 -0.1018 -0.0849
13686SOL    HW153117   3.573   9.427   1.854 -0.4317  0.6711  0.4466
13686SOL    HW253118   3.423   9.365   1.833  0.8558 -1.8759 -1.4583
13687SOL     OW53119   4.768   9.628   0.759  0.0445  0.4545 -0.0422
13687SOL    HW153120   4.864   9.641   0.732  0.2020 -1.0130 -0.2185
13687SOL    HW253121   4.763   9.560   0.832 -1.0514 -1.0433 -1.4902
13688SOL     OW53122   0.874   2.353   2.069 -0.5325  0.0342 -0.3616
13688SOL    HW153123   0.873   2.254   2.056 -0.4683 -0.2116  1.4337
13688SOL    HW253124   0.951   2.378   2.128 -1.7213  0.9410  0.8361
13689SOL     OW53125   1.653   4.924   4.178  1.2650 -0.2251  0.1733
13689SOL    HW153126   1.685   5.014   4.149 -0.5138  0.4535  0.2732
13689SOL    HW253127   1.630   4.869   4.098 -0.4931  0.4801  0.1744
13690SOL     OW53128   5.132   2.047   8.132 -0.8167  0.5758  0.3033
13690SOL    HW153129   5.108   2.078   8.040 -0.2380  0.8419  0.2400
13690SOL    HW253130   5.141   1.947   8.132  2.0498  0.7726 -0.6335
13691SOL     OW53131   4.201   3.873   6.504  0.1543 -0.9677 -0.4011
13691SOL    HW153132   4.294   3.840   6.490 -0.0347 -0.9074 -1.8645
13691SOL    HW253133   4.185   3.955   6.450 -0.9360 -1.3158 -0.6306
13692SOL     OW53134   9.792   2.104   2.368  0.3220  0.3357 -0.0904
13692SOL    HW153135   9.762   2.173   2.302 -1.0842 -0.5057 -0.3582
13692SOL    HW253136   9.827   2.149   2.450 -2.9182  1.3991  0.7752
13693SOL     OW53137   1.239   2.307   3.851 -0.1906  0.2501  0.0541
13693SOL    HW153138   1.213   2.402   3.837 -0.2055  0.1067 -0.9411
13693SOL    HW253139   1.305   2.300   3.926 -0.1237  1.0495  0.0663
13694SOL     OW53140   2.544   8.335   1.757  0.6928  0.5022  0.2217
13694SOL    HW153141   2.530   8.433   1.771 -0.7242  0.5099 -1.0640
13694SOL    HW253142   2.603   8.322   1.677 -0.2362  0.2843 -0.4277
13695SOL     OW53143   7.851   0.062   7.807 -0.4138 -0.5045 -0.5214
13695SOL    HW153144   7.767   0.109   7.781 -1.3350 -2.5313 -1.2801
13695SOL    HW253145   7.830  -0.031   7.836  1.6995 -1.5237 -2.1071
13696SOL     OW53146   8.905   6.571   4.867  0.4165 -0.9164 -0.2589
13696SOL    HW153147   8.870   6.614   4.951  1.2998 -1.5434  0.4420
13696SOL    HW253148   8.839   6.585   4.793 -1.2159 -1.8202  0.9729
13697SOL     OW53149   3.074   2.530   6.933 -0.6492 -0.1764  0.3291
13697SOL    HW153150   3.141   2.539   6.860 -0.5127  1.8054  0.6735
13697SOL    HW253151   3.073   2.614   6.988 -2.7981 -0.4947  0.8373
13698SOL     OW53152   2.549   7.524   7.808  0.1362 -0.3006  0.0494
13698SOL    HW153153   2.581   7.430   7.812 -1.1585 -0.7365  0.7817
13698SOL    HW253154   2.471   7.535   7.871  0.2643  1.2450 -0.0432
13699SOL     OW53155   7.793   6.952   7.865 -0.1527 -0.4683 -0.2580
13699SOL    HW153156   7.779   7.044   7.829 -1.1295  0.1717  1.6573
13699SOL    HW253157   7.879   6.949   7.916 -0.2729 -0.5318 -0.0566
13700SOL     OW53158   9.228   6.408   4.537 -0.0407  0.3762 -0.0958
13700SOL    HW153159   9.195   6.405   4.632  0.3281 -0.6432  0.0032
13700SOL    HW253160   9.257   6.501   4.515  0.6821  0.4339  1.0715
13701SOL     OW53161   5.966   9.104   4.410 -0.4679 -0.3241 -0.4052
13701SOL    HW153162   5.978   9.202   4.427  2.6633 -0.7490  0.1700
13701SOL    HW253163   5.954   9.088   4.312  1.1889  0.4976 -0.7748
13702SOL     OW53164   1.936   1.751   3.356  0.0081 -0.3352  0.5518
13702SOL    HW153165   1.953   1.849   3.359 -0.1206 -0.2584 -0.7854
13702SOL    HW253166   1.846   1.734   3.317  0.3604 -1.0132  0.0141
13703SOL     OW53167   4.267   5.634   1.009 -1.0343  0.3486  0.3402
13703SOL    HW153168   4.246   5.591   0.921  1.4049 -1.2877  0.5371
13703SOL    HW253169   4.245   5.571   1.083  1.2210 -0.0624  0.6914
13704SOL     OW53170   1.826   4.908   1.338 -0.1153 -0.0007  0.0095
13704SOL    HW153171   1.885   4.852   1.278 -0.5306 -0.6687  0.2194
13704SOL    HW253172   1.852   5.004   1.329  3.3870 -0.5975  2.7180
13705SOL     OW53173   6.384   5.186  10.002  0.0163 -0.3242 -0.3153
13705SOL    HW153174   6.318   5.235  10.058  0.3306 -0.7702  0.4493
13705SOL    HW253175   6.476   5.201  10.038  0.2701 -0.2315 -0.9875
13706SOL     OW53176   2.333   9.811   7.048 -0.9166 -0.1026 -0.6083
13706SOL    HW153177   2.284   9.894   7.023 -1.6394 -0.0835  0.7980
13706SOL    HW253178   2.402   9.833   7.117 -2.6844 -0.9979  1.5283
13707SOL     OW53179   4.789   8.725   1.968 -0.0134 -0.2171 -0.2753
13707SOL    HW153180   4.765   8.765   1.880 -0.8232 -0.4389 -0.1612
13707SOL    HW253181   4.796   8.797   2.037 -2.2626 -0.3363  0.1037
13708SOL     OW53182   2.885   1.212   5.061  0.0046  0.0417  0.3782
13708SOL    HW153183   2.856   1.282   5.126  1.4573 -1.5163  2.7587
13708SOL    HW253184   2.844   1.124   5.085 -3.2500  0.3047 -3.6369
13709SOL     OW53185   2.436   9.771   5.017  0.4696 -0.7781  0.3006
13709SOL    HW153186   2.535   9.765   5.009  0.5210  1.3823 -1.2305
13709SOL    HW253187   2.400   9.687   5.058  2.8829 -1.6884  0.6177
13710SOL     OW53188   4.031   2.300   5.058  0.7910 -0.0929 -0.1823
13710SOL    HW153189   4.066   2.393   5.058  2.3583 -0.6483 -1.1461
13710SOL    HW253190   4.066   2.251   5.138  0.1386  0.0831  0.2125
13711SOL     OW53191   6.659   1.226   5.991 -0.0572 -0.3541 -0.3118
13711SOL    HW153192   6.636   1.141   6.039 -0.6532 -0.3641 -0.6192
13711SOL    HW253193   6.740   1.267   6.034 -0.4505 -0.4838  0.5541
13712SOL     OW53194   8.125   3.436   1.493 -0.2982 -0.1822 -0.2847
13712SOL    HW153195   8.224   3.421   1.488 -0.0504  1.6270 -0.9009
13712SOL    HW253196   8.078   3.354   1.460  0.9801 -0.9934 -0.1506
13713SOL     OW53197   8.864   1.091   6.109  0.0976  0.2534  0.6246
13713SOL    HW153198   8.915   1.005   6.110  1.8564  1.2741  0.8733
13713SOL    HW253199   8.813   1.098   6.024  0.2964 -0.8213  0.4024
13714SOL     OW53200   6.318   3.995   0.368  0.1913  0.3127 -0.3388
13714SOL    HW153201   6.365   3.977   0.282 -0.6271  0.3388 -0.7940
13714SOL    HW253202   6.386   4.012   0.440  0.9029 -0.6983 -0.7490
13715SOL     OW53203   1.163   5.094   5.720  0.4395  0.2412 -0.7758
13715SOL    HW153204   1.072   5.095   5.679  0.5497  1.2411 -1.0084
13715SOL    HW253205   1.163   5.036   5.801 -0.5324  0.6404 -0.4847
13716SOL     OW53206   2.131   0.978   4.594 -0.3051 -0.4609 -0.2247
13716SOL    HW153207   2.063   1.017   4.656  0.8311  0.1172  0.6698
13716SOL    HW253208   2.216   0.961   4.644  0.1530 -1.3659 -1.2878
13717SOL     OW53209   2.720   7.240   3.252  0.0582 -0.2505 -0.5833
13717SOL    HW153210   2.774   7.156   3.260  0.9266  0.3216 -0.3335
13717SOL    HW253211   2.758   7.298   3.180  0.4857  0.6654  0.3642
13718SOL     OW53212   7.702   1.746   3.645 -0.4445  0.4428  0.4787
13718SOL    HW153213   7.628   1.694   3.687 -0.7106  1.4841  1.3430
13718SOL    HW253214   7.745   1.805   3.714  0.6550  0.4510 -0.1945
13719SOL     OW53215   2.208   6.774   2.065 -0.1433 -0.0836  0.6777
13719SOL    HW153216   2.126   6.768   2.010 -0.3342  2.5861  0.6344
13719SOL    HW253217   2.261   6.855   2.038  1.0560 -0.1925  2.6204
13720SOL     OW53218   9.005   6.126   9.965  0.2690 -0.3482  0.0395
13720SOL    HW153219   8.979   6.215  10.003 -0.4629 -0.0723 -1.0682
13720SOL    HW253220   8.926   6.064   9.971  0.0622 -0.2183 -1.2446
13721SOL     OW53221   2.727   4.190   4.631  0.2318  0.1028  0.0891
13721SOL    HW153222   2.668   4.267   4.656  0.3008  0.2699 -0.2565
13721SOL    HW253223   2.692   4.147   4.548  0.9448  0.5824 -0.4681
13722SOL     OW53224   3.695   6.688   8.903 -0.3956  0.3614  0.2681
13722SOL    HW153225   3.781   6.703   8.951  0.5962 -2.3340 -0.5484
13722SOL    HW253226   3.618   6.704   8.965  0.7213  1.5598  1.3664
13723SOL     OW53227   1.738   8.697   0.363  0.0013  0.3887 -0.1688
13723SOL    HW153228   1.770   8.613   0.407  0.8783  1.2133  0.8034
13723SOL    HW253229   1.805   8.725   0.294  0.3796  1.0007  0.4368
13724SOL     OW53230   2.328   9.465   1.151 -0.5452 -0.4400 -0.0570
13724SOL    HW153231   2.233   9.447   1.174 -1.2013 -0.1672 -2.4479
13724SOL    HW253232   2.387   9.400   1.200 -2.1456 -2.4308 -0.7057
13725SOL     OW53233   0.706   1.688   9.659  0.5250 -0.2231 -0.1606
13725SOL    HW153234   0.717   1.690   9.759  0.9689 -0.5578 -0.2027
13725SOL    HW253235   0.704   1.593   9.628 -1.6474 -0.1834 -0.2464
13726SOL     OW53236   0.152   7.576   9.060 -0.2216  0.1856  0.7278
13726SOL    HW153237   0.152   7.498   9.123 -1.5472  0.1425  0.6872
13726SOL    HW253238   0.116   7.547   8.971  0.7474  0.4760  0.2395
13727SOL     OW53239   0.294   9.826   2.409 -0.0025  0.4048  0.0901
13727SOL    HW153240   0.221   9.770   2.369  1.0702 -0.5375 -0.5818
13727SOL    HW253241   0.360   9.767   2.455 -0.0378  1.3097  1.3220
13728SOL     OW53242   4.649   0.074   6.353  0.0139 -0.5630  0.3913
13728SOL    HW153243   4.684  -0.002   6.408  2.8822 -0.2981 -0.9887
13728SOL    HW253244   4.631   0.043   6.259 -1.0601 -0.0664  0.4151
13729SOL     OW53245   4.382   8.472   0.295  0.2844  0.2684  0.2587
13729SOL    HW153246   4.283   8.467   0.283  0.3487 -3.3617  0.6303
13729SOL    HW253247   4.427   8.478   0.206 -0.1746 -1.2020 -0.0808
13730SOL     OW53248   4.924   3.113   4.850  0.1701  0.4330 -0.4027
13730SOL    HW153249   5.010   3.107   4.800  0.6003 -0.0127  0.3749
13730SOL    HW253250   4.940   3.158   4.938 -0.2812 -0.1135 -0.0312
13731SOL     OW53251   8.638   3.686   3.365 -0.1389  0.6657  0.0352
13731SOL    HW153252   8.599   3.720   3.279  0.9934  0.3432 -0.6075
13731SOL    HW253253   8.581   3.610   3.399 -0.5629  0.7605 -0.4502
13732SOL     OW53254   9.167   8.826   3.917  0.1045 -0.1985 -0.0043
13732SOL    HW153255   9.134   8.920   3.912  1.5836  0.2726 -0.8163
13732SOL    HW253256   9.089   8.765   3.936 -0.9794  1.0830 -0.2577
13733SOL     OW53257   9.592   0.614   5.090  0.1430  0.6408 -0.7123
13733SOL    HW153258   9.548   0.630   5.002 -0.1061 -1.9578 -1.1005
13733SOL    HW253259   9.560   0.681   5.157 -3.8812 -0.6738 -1.1852
13734SOL     OW53260   1.075   8.124   0.977 -0.2266  0.3667  0.2172
13734SOL    HW153261   1.160   8.148   1.025  0.3741 -1.9079  0.3391
13734SOL    HW253262   1.064   8.025   0.975 -3.1796  0.6289  0.6719
13735SOL     OW53263   4.841   7.943   5.284 -0.1187  0.2956 -0.2836
13735SOL    HW153264   4.811   7.991   5.202  0.6118  0.7255 -0.3028
13735SOL    HW253265   4.798   7.983   5.365  0.8860  1.3332 -0.2491
13736SOL     OW53266   2.317   6.392   0.890  0.4087  0.1433 -0.7827
13736SOL    HW153267   2.303   6.320   0.822 -0.5060 -1.2169  0.8028
13736SOL    HW253268   2.391   6.365   0.952  0.6384  0.9536 -0.7013
13737SOL     OW53269   1.761   0.134   8.335 -0.7139  0.5895 -0.1163
13737SOL    HW153270   1.735   0.089   8.421 -3.5253 -0.0798 -1.2621
13737SOL    HW253271   1.760   0.233   8.348 -2.1790  0.5277  0.3692
13738SOL     OW53272   8.799   1.010   8.149 -0.2697 -0.0109 -0.0031
13738SOL    HW153273   8.815   1.089   8.090  0.6161 -0.3706 -0.2501
13738SOL    HW253274   8.734   0.948   8.105 -1.6842  1.0154  0.6004
13739SOL     OW53275   0.771   1.494   2.005 -0.0742  0.2402 -0.3365
13739SOL    HW153276   0.738   1.527   2.093 -1.1181 -1.0843 -0.2166
13739SOL    HW253277   0.694   1.488   1.941  0.3513 -0.5294 -0.7896
13740SOL     OW53278   1.366   2.901   1.816 -0.1811  0.3402  0.3546
13740SOL    HW153279   1.408   2.879   1.728 -1.5392  0.1952 -0.2685
13740SOL    HW253280   1.370   2.999   1.832 -0.3884  0.4233 -0.1075
13741SOL     OW53281   3.674   5.138   7.087 -0.3205 -0.5975  0.0352
13741SOL    HW153282   3.720   5.063   7.135  0.7907 -0.1844 -0.3499
13741SOL    HW253283   3.579   5.143   7.116 -0.2377 -1.7473  0.5454
13742SOL     OW53284   2.756   9.449   5.195  0.5433 -0.6123  0.3955
13742SOL    HW153285   2.754   9.385   5.117 -1.6654  0.6513 -0.6383
13742SOL    HW253286   2.708   9.408   5.272 -1.6568  0.0781 -0.5517
13743SOL     OW53287   1.152   3.609   1.058 -0.1187 -0.1092  0.1514
13743SOL    HW153288   1.110   3.536   1.111  0.7117 -0.0106  0.9491
13743SOL    HW253289   1.251   3.612   1.077  0.1226  0.1819 -1.0847
13744SOL     OW53290   1.247   9.798   3.334 -0.2138 -0.0662 -0.6554
13744SOL    HW153291   1.231   9.895   3.316 -1.5803 -0.2274 -0.3586
13744SOL    HW253292   1.206   9.743   3.261 -0.0281 -0.4503 -0.4717
13745SOL     OW53293   9.335   2.275   1.232  0.0955  0.3348  0.3994
13745SOL    HW153294   9.272   2.340   1.189 -0.7465 -0.0195  1.0664
13745SOL    HW253295   9.321   2.184   1.192  0.5523  0.3578  0.1844
13746SOL     OW53296   5.324   9.137   5.078  0.4498  0.2541 -0.6973
13746SOL    HW153297   5.255   9.154   5.147  0.4821  0.7029 -0.7786
13746SOL    HW253298   5.360   9.044   5.089  1.6569  0.9087  0.9252
13747SOL     OW53299   2.482   0.416   7.639  0.4052 -0.3939  0.5229
13747SOL    HW153300   2.452   0.499   7.686 -2.2980 -0.8147 -0.3460
13747SOL    HW253301   2.491   0.342   7.706  1.0521  0.1224  1.0242
13748SOL     OW53302   5.932   4.744   0.407  0.0282 -0.0136 -0.0903
13748SOL    HW153303   5.904   4.764   0.313  0.3432 -0.1670 -0.2185
13748SOL    HW253304   5.996   4.668   0.407  1.2164  0.9590  0.0916
13749SOL     OW53305   0.897   0.059   6.260 -0.1950 -1.4704  0.5904
13749SOL    HW153306   0.964   0.116   6.309  0.2956 -0.4174 -1.2528
13749SOL    HW253307   0.910   0.070   6.161 -0.4931 -4.3729  0.2020
13750SOL     OW53308   3.648   0.737   0.371  0.1682 -0.6338 -0.3120
13750SOL    HW153309   3.637   0.654   0.316  1.2781  0.3030 -2.0049
13750SOL    HW253310   3.738   0.736   0.416 -0.5647 -1.1970  1.1659
13751SOL     OW53311   3.670   3.903   3.297  0.4051 -0.0953 -0.2742
13751SOL    HW153312   3.747   3.936   3.351  1.8011 -0.8470 -1.7608
13751SOL    HW253313   3.607   3.853   3.356  2.1981 -1.4172  0.5887
13752SOL     OW53314   4.777   9.254   6.900  0.2791  0.3671  0.3629
13752SOL    HW153315   4.806   9.158   6.898 -0.2180  0.2311 -0.7136
13752SOL    HW253316   4.781   9.292   6.808 -2.3249  0.5249  0.2753
13753SOL     OW53317   5.117   3.666   1.579 -0.2593  0.0401  0.1660
13753SOL    HW153318   5.069   3.583   1.608 -1.1302  0.4683 -0.0496
13753SOL    HW253319   5.153   3.714   1.659  1.6124 -1.3549  0.2049
13754SOL     OW53320   7.917   6.639   4.461  0.2519 -0.4124 -0.3608
13754SOL    HW153321   7.979   6.629   4.382  0.3111 -1.0406 -0.2383
13754SOL    HW253322   7.948   6.715   4.518 -1.1163  1.5424 -2.1538
13755SOL     OW53323   2.042   3.938   1.266  0.4132 -0.2295  0.7355
13755SOL    HW153324   2.021   3.898   1.356 -1.8913  0.0714  0.3581
13755SOL    HW253325   2.117   4.002   1.275  0.5844 -0.6350  2.3546
13756SOL     OW53326   1.027   3.830   5.326  0.2030 -0.3465 -0.1577
13756SOL    HW153327   0.950   3.795   5.273 -1.3189  3.7169 -0.7649
13756SOL    HW253328   1.070   3.905   5.276  2.0311  0.1252  2.0428
13757SOL     OW53329   4.946   2.484   7.407  0.8701 -0.2895 -0.1962
13757SOL    HW153330   4.936   2.412   7.475  0.7149  0.6447  0.7815
13757SOL    HW253331   4.856   2.518   7.379  0.9763  1.1562  1.1255
13758SOL     OW53332   5.867   4.504   9.328 -0.0005  0.1316 -0.0676
13758SOL    HW153333   5.785   4.448   9.333  0.0548  0.1277  1.0298
13758SOL    HW253334   5.849   4.586   9.273 -0.4467 -0.3526 -0.6394
13759SOL     OW53335   8.569   6.284   7.994 -0.2672 -0.0285  0.6193
13759SOL    HW153336   8.523   6.197   7.975  1.8363 -1.2043  0.7738
13759SOL    HW253337   8.558   6.345   7.915 -1.1225 -0.7027  0.2055
13760SOL     OW53338   1.513   1.290   7.198  0.1097 -0.0191 -0.3729
13760SOL    HW153339   1.431   1.343   7.179  1.1016  1.1366 -1.5119
13760SOL    HW253340   1.584   1.351   7.234  0.1642 -1.1745  1.5869
13761SOL     OW53341   8.447   0.708   6.754 -0.4111  0.1025  0.3396
13761SOL    HW153342   8.358   0.709   6.798 -0.2884 -0.5965  0.6050
13761SOL    HW253343   8.473   0.614   6.733 -0.1743  0.3776 -0.6238
13762SOL     OW53344   0.771   5.108   5.702  0.0302  0.4656 -0.7005
13762SOL    HW153345   0.801   5.160   5.622  0.3687  3.2045  1.1420
13762SOL    HW253346   0.677   5.134   5.724  0.3187  0.5575  0.4293
13763SOL     OW53347   3.897   3.730   2.625 -0.3688  0.1807  0.3181
13763SOL    HW153348   3.919   3.632   2.632 -1.2007  0.0308  0.9457
13763SOL    HW253349   3.864   3.763   2.714  0.6879  1.2298  0.3296
13764SOL     OW53350   3.051   5.320   6.039  0.1858 -0.2917  0.2866
13764SOL    HW153351   2.968   5.369   6.066  1.1519  2.3799 -1.3872
13764SOL    HW253352   3.111   5.382   5.989  3.7653 -1.8479  2.4990
13765SOL     OW53353   7.263   2.659   3.950  0.5540  0.1291  0.6578
13765SOL    HW153354   7.247   2.565   3.919  0.8647  0.0417  0.7648
13765SOL    HW253355   7.324   2.705   3.885 -0.6819  0.6821 -0.1279
13766SOL     OW53356   2.973   9.015   7.466  0.3593  0.6542 -0.4495
13766SOL    HW153357   3.035   9.087   7.436  0.1807  0.9067 -0.2099
13766SOL    HW253358   2.924   8.978   7.386  0.4589  0.7881 -0.5729
13767SOL     OW53359   2.052   0.375   2.709 -0.1495  0.8122  0.5322
13767SOL    HW153360   2.079   0.471   2.712  1.8437  0.3987 -1.8178
13767SOL    HW253361   2.120   0.319   2.757 -1.2882  0.5415  1.8737
13768SOL     OW53362   0.451   3.383   2.322  0.0473 -0.5441 -0.4284
13768SOL    HW153363   0.402   3.466   2.294  2.2698  0.1686 -2.3567
13768SOL    HW253364   0.523   3.407   2.386  1.2284 -0.8628 -1.6239
13769SOL     OW53365   2.986   6.973   1.064 -0.7497  0.4499  0.1913
13769SOL    HW153366   2.938   6.907   1.006 -0.0992 -0.2941  0.5031
13769SOL    HW253367   3.034   7.039   1.006  0.5753 -0.7766 -0.1349
13770SOL     OW53368   7.979   6.284   2.289 -0.5278 -0.5680  0.1914
13770SOL    HW153369   7.911   6.325   2.348 -1.5394 -2.4597  0.3936
13770SOL    HW253370   7.946   6.283   2.194  0.0879  0.3239 -0.0427
13771SOL     OW53371   1.249   5.021   8.244 -0.2378  0.3288  0.3156
13771SOL    HW153372   1.239   5.119   8.230  0.4557  0.2648 -0.6740
13771SOL    HW253373   1.160   4.979   8.258 -0.5532  1.0559  0.4870
13772SOL     OW53374   1.673   7.525   7.127 -0.1610  0.6727 -0.0312
13772SOL    HW153375   1.619   7.511   7.045 -0.9477 -2.5587  0.9911
13772SOL    HW253376   1.679   7.623   7.146 -1.3000  1.3771 -3.0111
13773SOL     OW53377   2.311   2.308   4.952 -0.5596  0.0878  0.4995
13773SOL    HW153378   2.252   2.246   5.004 -0.5682  0.3633  0.8190
13773SOL    HW253379   2.352   2.375   5.014  0.8810 -0.7215  0.4261
13774SOL     OW53380   9.237   9.490   8.843  0.1771  0.2420  0.3472
13774SOL    HW153381   9.152   9.523   8.800 -0.0169  1.1557  1.4103
13774SOL    HW253382   9.304   9.469   8.772  0.1469  2.5150 -0.4131
13775SOL     OW53383   7.093   6.387   5.095 -0.1527 -0.3348  0.0877
13775SOL    HW153384   7.014   6.432   5.137 -1.5598 -2.2505 -0.4395
13775SOL    HW253385   7.062   6.330   5.018  1.7199 -1.2276 -0.0336
13776SOL     OW53386   9.795   1.426   3.745  0.2682  0.0411 -0.0385
13776SOL    HW153387   9.700   1.455   3.756  0.7724  2.1514 -1.0180
13776SOL    HW253388   9.800   1.350   3.680 -0.5589  1.2806 -1.5865
13777SOL     OW53389   1.557   6.032   7.790  0.0932  1.0595  0.4711
13777SOL    HW153390   1.588   5.989   7.875  0.8830 -1.0583 -0.8537
13777SOL    HW253391   1.469   6.077   7.806 -0.2574 -0.1850  2.1487
13778SOL     OW53392   2.063   5.868   5.471 -0.2673 -0.5347 -0.5221
13778SOL    HW153393   2.047   5.781   5.423  0.7588 -0.0918 -1.7101
13778SOL    HW253394   2.005   5.873   5.552 -1.4924 -1.6453 -1.3062
13779SOL     OW53395   3.205   0.843   4.555  0.3329  0.0272 -0.7241
13779SOL    HW153396   3.272   0.777   4.590 -1.2749  0.4899  3.5433
13779SOL    HW253397   3.119   0.796   4.536  0.4802  0.2054 -1.8793
13780SOL     OW53398   0.438   5.517   1.554  0.2301  0.0950 -0.3792
13780SOL    HW153399   0.415   5.604   1.598  0.1795 -0.4495  0.7063
13780SOL    HW253400   0.427   5.443   1.621  0.7639 -0.6818 -1.1508
13781SOL     OW53401   3.293   5.341   8.500  0.0952  0.2482  0.3668
13781SOL    HW153402   3.390   5.362   8.483 -0.1650  1.6916  0.5880
13781SOL    HW253403   3.283   5.303   8.592  0.4775 -0.1148  0.2640
13782SOL     OW53404   2.589   1.588   5.094  0.2148 -0.4785  0.0136
13782SOL    HW153405   2.619   1.649   5.021 -0.9929 -0.4065 -0.4410
13782SOL    HW253406   2.513   1.532   5.061 -0.3054 -0.4785  1.1871
13783SOL     OW53407   4.768   2.581   7.977 -0.0742  0.0492  0.3310
13783SOL    HW153408   4.740   2.595   7.882 -0.0355 -2.9359 -0.1659
13783SOL    HW253409   4.866   2.595   7.985  0.0862 -0.7221 -0.2777
13784SOL     OW53410   2.642   7.182   6.544 -0.5514 -0.5522  0.0045
13784SOL    HW153411   2.723   7.233   6.514 -1.7526  0.9065 -0.8394
13784SOL    HW253412   2.650   7.160   6.641 -0.0723  1.4057  0.4299
13785SOL     OW53413   9.165   3.430   0.858  0.3280  0.1394 -0.1547
13785SOL    HW153414   9.105   3.497   0.813 -1.1722 -1.3821 -0.4711
13785SOL    HW253415   9.130   3.409   0.949  1.6641  0.9311  0.5538
13786SOL     OW53416   9.694   8.114   5.566 -0.2394 -0.1749  0.0349
13786SOL    HW153417   9.646   8.176   5.628  0.5810  0.7918 -0.2842
13786SOL    HW253418   9.645   8.112   5.478 -0.2066  0.1183  0.0063
13787SOL     OW53419   2.535   5.396   4.439 -0.5622 -0.5519 -0.4920
13787SOL    HW153420   2.526   5.304   4.476  0.0430 -0.3217  0.2479
13787SOL    HW253421   2.523   5.394   4.340 -4.0013 -0.9324 -0.1329
13788SOL     OW53422   0.197   5.597   4.731  0.3057 -0.2858  0.3274
13788SOL    HW153423   0.172   5.693   4.741  0.1226 -0.3072  0.0946
13788SOL    HW253424   0.170   5.566   4.640  0.9918 -0.3695  0.1551
13789SOL     OW53425   9.442   5.542   6.447 -0.6809 -0.7839 -0.8321
13789SOL    HW153426   9.524   5.499   6.484 -0.7836 -0.4887 -0.2631
13789SOL    HW253427   9.458   5.567   6.351  1.4472  3.2787  0.5084
13790SOL     OW53428   1.106   7.644   3.616 -0.0637  0.0077  0.4641
13790SOL    HW153429   1.163   7.640   3.534 -2.1252  3.8503 -1.2865
13790SOL    HW253430   1.139   7.718   3.676 -0.0550 -1.1775  1.9533
13791SOL     OW53431   2.032   7.639   4.420 -0.1618  0.7124  0.3617
13791SOL    HW153432   1.973   7.674   4.347 -0.8442  0.4362  0.7730
13791SOL    HW253433   2.126   7.632   4.387 -0.6500 -0.4215 -0.8304
13792SOL     OW53434   6.449   1.561   0.062  0.1675  0.3555 -0.3039
13792SOL    HW153435   6.352   1.542   0.047 -0.0964  2.0730 -0.9319
13792SOL    HW253436   6.479   1.518   0.148 -1.4487  0.8413  0.5242
13793SOL     OW53437   4.042   3.964   6.159  0.1723  0.0835  0.1875
13793SOL    HW153438   4.108   3.929   6.092 -1.1459  0.2150 -1.2227
13793SOL    HW253439   4.088   4.028   6.220  1.7472 -1.1854  0.3807
13794SOL     OW53440   2.916   5.462   3.414 -0.7962  0.1308 -0.1931
13794SOL    HW153441   3.013   5.455   3.437 -0.1283  2.7317 -2.0265
13794SOL    HW253442   2.902   5.438   3.318 -2.0208 -0.4668  0.1168
13795SOL     OW53443   9.283   7.101   6.510 -0.0781 -0.2012  0.0205
13795SOL    HW153444   9.212   7.130   6.447  0.5328 -2.8502 -1.9904
13795SOL    HW253445   9.361   7.163   6.504 -0.2430 -0.1283 -1.4622
13796SOL     OW53446   8.469   0.851   3.879  0.4756  0.0915  0.5095
13796SOL    HW153447   8.436   0.942   3.903 -0.6175 -0.0872 -0.2946
13796SOL    HW253448   8.556   0.834   3.926 -0.9783  0.2121  3.3214
13797SOL     OW53449   4.616   7.350   3.033 -0.1937  0.2134 -0.0125
13797SOL    HW153450   4.686   7.397   2.980  0.4889  0.4805  1.1097
13797SOL    HW253451   4.658   7.278   3.088 -0.6799  0.9056  1.2884
13798SOL     OW53452   3.453   7.051   9.662  0.0208  0.1461  0.2842
13798SOL    HW153453   3.455   7.004   9.750 -0.3405 -0.6527 -0.1256
13798SOL    HW253454   3.362   7.090   9.648  0.0535  0.2022  0.2294
13799SOL     OW53455   0.369   4.168   0.365 -0.1448  0.7183  0.0725
13799SOL    HW153456   0.297   4.229   0.399 -0.8675  0.2636 -0.6521
13799SOL    HW253457   0.458   4.209   0.384 -0.6167  1.7798  0.0144
13800SOL     OW53458   2.483   9.214   0.640 -0.6485  0.3306 -0.3186
13800SOL    HW153459   2.396   9.177   0.674 -0.0089 -2.0500 -1.1397
13800SOL    HW253460   2.470   9.306   0.606 -2.4349  0.7399  1.4059
13801SOL     OW53461   2.543   8.187   6.743  0.0663 -0.3206  0.6152
13801SOL    HW153462   2.571   8.104   6.695  1.4716  1.1477 -1.1403
13801SOL    HW253463   2.624   8.237   6.773 -0.7769  0.4516  1.6443
13802SOL     OW53464   4.203   5.148   2.400  0.0701  0.0112  0.0758
13802SOL    HW153465   4.221   5.246   2.410 -0.0982 -0.1229  1.8364
13802SOL    HW253466   4.283   5.104   2.360  0.8499  0.5917  0.9460
13803SOL     OW53467   2.990   9.032   0.111 -0.7741 -0.0425 -0.0450
13803SOL    HW153468   2.998   9.071   0.202 -0.5625 -3.6149  1.5272
13803SOL    HW253469   2.895   9.042   0.079 -1.3065 -0.5578  1.3795
13804SOL     OW53470   0.684   7.815   3.411  0.5720  0.3097 -0.1191
13804SOL    HW153471   0.704   7.902   3.456  0.7575  1.2199 -1.9273
13804SOL    HW253472   0.736   7.742   3.457  1.3424  1.3225  0.6617
13805SOL     OW53473   3.443   5.359   6.220  0.2246  0.6640  0.3207
13805SOL    HW153474   3.537   5.377   6.194  0.8181  0.1049  1.9807
13805SOL    HW253475   3.425   5.261   6.213 -0.5139  0.8781 -0.8605
13806SOL     OW53476   7.163   7.544   5.741 -0.2679 -1.0146  0.3827
13806SOL    HW153477   7.129   7.468   5.685 -0.4291  0.2429 -1.2446
13806SOL    HW253478   7.262   7.535   5.752  0.3350  0.6629 -3.1485
13807SOL     OW53479   6.113   0.113   5.108 -0.6778 -0.3229  0.0462
13807SOL    HW153480   6.109   0.040   5.039  1.0401  1.7259 -2.2935
13807SOL    HW253481   6.075   0.197   5.070  1.3222  1.1366  1.1740
13808SOL     OW53482   2.377   6.279   1.505  0.0909 -0.6017 -0.5033
13808SOL    HW153483   2.381   6.379   1.497  0.4340 -0.5571  0.2281
13808SOL    HW253484   2.299   6.245   1.453  0.0308  0.0399 -0.8377
13809SOL     OW53485   5.671   1.782   8.306  0.1260  0.4637 -0.6913
13809SOL    HW153486   5.652   1.721   8.229 -0.8821 -1.7245  1.2384
13809SOL    HW253487   5.719   1.731   8.378 -3.4875  1.0632  2.2545
13810SOL     OW53488   0.298   2.995   4.042  0.6931 -0.4129  0.0619
13810SOL    HW153489   0.243   3.040   4.112  0.0866 -2.4794  0.9600
13810SOL    HW253490   0.255   3.009   3.953  0.6648  1.0032  0.2900
13811SOL     OW53491   0.204   5.246   6.409  0.3588 -0.0591  0.1184
13811SOL    HW153492   0.252   5.296   6.481 -0.3976 -0.2024  0.7349
13811SOL    HW253493   0.125   5.199   6.449  0.9467 -1.5861 -0.4826
13812SOL     OW53494   2.348   0.757   8.918  0.2747  0.0480 -0.3213
13812SOL    HW153495   2.295   0.827   8.966  2.1672  0.3706  1.3543
13812SOL    HW253496   2.435   0.796   8.888  0.2533 -0.9034 -1.6366
13813SOL     OW53497   9.231   7.888   3.343 -0.1963  0.0770 -0.1430
13813SOL    HW153498   9.326   7.918   3.344 -0.3316  0.5195 -0.2347
13813SOL    HW253499   9.174   7.957   3.388 -0.8550  1.1178 -2.4778
13814SOL     OW53500   3.044   9.120   0.421 -0.0656  0.0820 -0.0556
13814SOL    HW153501   3.072   9.200   0.369  0.7605 -0.6779 -0.7972
13814SOL    HW253502   3.040   9.143   0.518  1.8822  0.5752 -0.0725
13815SOL     OW53503   8.116   5.230   4.722 -0.6455 -0.6095 -0.4521
13815SOL    HW153504   8.037   5.287   4.745  0.6841  1.6247 -1.2378
13815SOL    HW253505   8.186   5.240   4.792  0.1327 -0.2382 -1.2794
13816SOL     OW53506   0.276   2.772   6.135  0.3712 -0.3051 -0.0889
13816SOL    HW153507   0.370   2.757   6.166  0.5327  0.8924  0.0221
13816SOL    HW253508   0.213   2.718   6.193  1.0480 -1.9202 -0.8215
13817SOL     OW53509   0.783   3.956   7.065 -0.1135 -0.5367 -0.0527
13817SOL    HW153510   0.862   3.988   7.012 -0.8006  0.9956 -0.2056
13817SOL    HW253511   0.809   3.947   7.161 -0.0007  0.9730  0.0785
13818SOL     OW53512   6.012   9.149   7.306 -0.5503  0.4488 -0.3928
13818SOL    HW153513   5.927   9.103   7.277  0.6388 -1.5240 -0.8356
13818SOL    HW253514   6.090   9.109   7.258  0.7284  1.7142  0.5900
13819SOL     OW53515   5.919   2.229   9.434 -0.3244 -0.2026  0.1291
13819SOL    HW153516   5.829   2.185   9.438 -0.2762 -0.1422  4.6205
13819SOL    HW253517   5.913   2.319   9.476  1.3680  0.7843 -1.6983
13820SOL     OW53518   1.585   5.178   3.335  0.1338  0.0537  0.1342
13820SOL    HW153519   1.497   5.170   3.290  0.4129  1.1158 -0.6125
13820SOL    HW253520   1.572   5.201   3.431 -0.3892  1.2211 -0.2078
13821SOL     OW53521   0.786   6.243   1.305 -0.0338 -0.6863 -0.3958
13821SOL    HW153522   0.792   6.342   1.294  1.6469 -0.8951 -1.3761
13821SOL    HW253523   0.776   6.199   1.216 -3.3715 -1.2759  0.1770
13822SOL     OW53524   2.873   7.496   4.822  0.1145 -0.1009  0.0005
13822SOL    HW153525   2.935   7.522   4.748 -1.9880  0.9359 -1.4661
13822SOL    HW253526   2.778   7.515   4.794 -0.6911  1.0020  3.2229
13823SOL     OW53527   2.245   4.331   4.865  0.3461  0.1896 -0.5119
13823SOL    HW153528   2.240   4.255   4.800 -2.4565 -0.1888  0.0683
13823SOL    HW253529   2.330   4.324   4.918  1.6783 -0.6493 -2.6967
13824SOL     OW53530   7.939   2.385   4.618  0.1816  0.1533 -0.6050
13824SOL    HW153531   7.930   2.374   4.519  0.2163  0.6054 -0.6590
13824SOL    HW253532   7.860   2.345   4.664 -0.2337  0.6838 -0.8609
13825SOL     OW53533   4.861   1.146   5.485  0.6830 -0.3578 -0.2636
13825SOL    HW153534   4.906   1.106   5.405  0.3589  2.9094 -2.1642
13825SOL    HW253535   4.762   1.137   5.476  0.5485  1.8309 -1.2952
13826SOL     OW53536   6.639   3.271   1.018  0.5450 -0.1492  0.5509
13826SOL    HW153537   6.563   3.230   1.070  0.0658 -0.3168 -0.2628
13826SOL    HW253538   6.611   3.360   0.983  0.7166 -0.2294  0.2124
13827SOL     OW53539   7.239   1.176   9.567 -0.3111 -0.1233 -0.0300
13827SOL    HW153540   7.233   1.241   9.642 -0.4615  0.2089 -0.3252
13827SOL    HW253541   7.213   1.221   9.481  1.3536 -0.0655 -0.5204
13828SOL     OW53542   9.362   5.873   0.545  0.0070 -0.3027 -0.0557
13828SOL    HW153543   9.395   5.808   0.476 -0.9011 -0.8539  0.0171
13828SOL    HW253544   9.330   5.823   0.625  0.2509  0.2944  0.4132
13829SOL     OW53545   0.710   4.602   3.651  0.2098  0.5857 -0.2484
13829SOL    HW153546   0.725   4.644   3.741  0.4932 -2.2179  1.0753
13829SOL    HW253547   0.787   4.542   3.629 -1.2279 -1.0554 -0.9711
13830SOL     OW53548   0.444   9.468   4.155 -0.0937  1.0287 -0.8230
13830SOL    HW153549   0.405   9.457   4.063 -2.5220  0.0641  0.2832
13830SOL    HW253550   0.377   9.439   4.223  2.5618 -0.6498  1.1682
13831SOL     OW53551   0.563   6.994   2.460 -0.4625 -0.2036  0.1235
13831SOL    HW153552   0.582   6.981   2.557  0.4688 -0.8314 -0.1344
13831SOL    HW253553   0.517   6.913   2.423  1.3412 -0.9729 -0.4836
13832SOL     OW53554   4.680   6.464   2.207 -0.2430 -1.1902 -0.1535
13832SOL    HW153555   4.628   6.382   2.184 -0.6941 -1.3725  1.4394
13832SOL    HW253556   4.663   6.489   2.303  1.2915 -0.2804 -0.0927
13833SOL     OW53557   9.504   3.474   6.668  0.0491 -0.4306  0.4965
13833SOL    HW153558   9.487   3.569   6.644  0.8100 -0.6291 -0.8960
13833SOL    HW253559   9.417   3.426   6.678 -0.3294 -0.2627 -1.6807
13834SOL     OW53560   2.336   4.388   5.330 -0.2365 -0.2282  0.0299
13834SOL    HW153561   2.387   4.430   5.255  0.1652  0.7125  0.8130
13834SOL    HW253562   2.308   4.458   5.395 -2.5325 -0.7414 -0.3575
13835SOL     OW53563   0.698   5.656   7.587 -0.0621 -0.6729  0.6011
13835SOL    HW153564   0.752   5.582   7.628 -0.0017 -0.8682  0.1758
13835SOL    HW253565   0.760   5.719   7.539 -0.2718 -1.3001 -0.5204
13836SOL     OW53566   4.191   9.490   1.844  0.1766  1.0954  0.0616
13836SOL    HW153567   4.255   9.567   1.840  2.0235 -0.4946 -1.9431
13836SOL    HW253568   4.140   9.484   1.759 -1.4177  1.2662  0.9794
13837SOL     OW53569   9.523   5.627   9.544  0.0320 -0.0486 -0.1479
13837SOL    HW153570   9.547   5.530   9.548 -1.0237 -0.3245 -0.4762
13837SOL    HW253571   9.541   5.669   9.633 -1.6927 -1.0580  0.7002
13838SOL     OW53572   9.323   6.917   2.890  0.3626 -1.0618  0.0519
13838SOL    HW153573   9.240   6.962   2.858  0.0926 -1.3985  0.2767
13838SOL    HW253574   9.354   6.852   2.820  0.0678 -1.4152  0.2477
13839SOL     OW53575   0.235   3.651   6.761  0.3605  0.0765  0.2095
13839SOL    HW153576   0.252   3.676   6.665 -1.3623 -0.8475 -0.3557
13839SOL    HW253577   0.322   3.632   6.806  1.1434 -0.1289 -1.3643
13840SOL     OW53578   8.111   3.918   4.092  0.2280  0.0849 -0.5217
13840SOL    HW153579   8.175   3.860   4.142 -0.9587 -0.3807  0.4771
13840SOL    HW253580   8.048   3.860   4.039  1.2804  0.5568 -2.3597
13841SOL     OW53581   0.687   4.087   7.937  0.2943 -0.2938 -0.0075
13841SOL    HW153582   0.696   4.073   8.035  1.0136 -0.0163 -0.0289
13841SOL    HW253583   0.628   4.166   7.920 -0.0154 -0.4817  0.1956
13842SOL     OW53584   7.855   5.159   7.900 -0.0433 -0.9378  0.7320
13842SOL    HW153585   7.836   5.126   7.808  0.1528 -1.3338  0.8332
13842SOL    HW253586   7.953   5.153   7.919 -0.0179 -0.4078  0.7960
13843SOL     OW53587   3.955   9.571   8.664 -0.2419  0.5379 -0.6898
13843SOL    HW153588   3.874   9.563   8.723 -0.0404 -0.7700 -0.5783
13843SOL    HW253589   3.977   9.667   8.650 -2.3864  0.9228 -1.5104
13844SOL     OW53590   6.362   4.177   9.898  0.4537  0.6987  0.3735
13844SOL    HW153591   6.423   4.120   9.843  2.1735  0.9545  1.9742
13844SOL    HW253592   6.317   4.244   9.839  2.0987  0.8311 -0.7684
13845SOL     OW53593   2.526   1.795   7.453 -0.5906 -0.4869 -0.1040
13845SOL    HW153594   2.451   1.733   7.427 -0.9323 -0.4791  0.8525
13845SOL    HW253595   2.512   1.884   7.409 -1.6448 -0.1972  0.7959
13846SOL     OW53596   8.866   6.559   0.483  0.4100  0.4670  0.0539
13846SOL    HW153597   8.795   6.628   0.473  1.7732  2.0959  1.4176
13846SOL    HW253598   8.838   6.492   0.552 -0.7899 -0.2421 -1.0815
13847SOL     OW53599   0.203   0.691   0.864 -0.6492 -0.0667 -0.5528
13847SOL    HW153600   0.214   0.784   0.898 -2.9515 -0.5110  1.4560
13847SOL    HW253601   0.112   0.680   0.824 -0.1619 -1.2863 -1.3740
13848SOL     OW53602   6.392   0.450   6.259 -0.1431 -0.1104 -0.0526
13848SOL    HW153603   6.349   0.531   6.299  0.0901  0.4189 -0.8486
13848SOL    HW253604   6.490   0.453   6.274  0.0016  0.3091 -1.0111
13849SOL     OW53605   1.672   2.664   8.873  0.0285 -0.3844 -0.0896
13849SOL    HW153606   1.605   2.697   8.807  1.7426 -0.6480 -1.9963
13849SOL    HW253607   1.712   2.743   8.921 -1.3092 -0.2039  0.7720
13850SOL     OW53608   2.756   2.846   9.839  0.2230  0.1954  0.3781
13850SOL    HW153609   2.665   2.804   9.847  0.2451  0.6238  3.6687
13850SOL    HW253610   2.756   2.935   9.884  1.4682  1.6469 -2.3800
13851SOL     OW53611   1.660   3.990   7.551  0.7379  1.0550 -0.1767
13851SOL    HW153612   1.661   4.048   7.633 -0.2988  1.4134 -0.4105
13851SOL    HW253613   1.726   3.916   7.562  2.2595  2.4160  0.0375
13852SOL     OW53614   8.332   7.688   7.315  0.4342  0.2766  0.2521
13852SOL    HW153615   8.365   7.702   7.222  1.6445  1.2566  0.8149
13852SOL    HW253616   8.239   7.651   7.312 -0.2008  1.9495 -1.3213
13853SOL     OW53617   8.573   3.643   1.093  0.3346 -0.3184  0.8566
13853SOL    HW153618   8.510   3.625   1.018  0.1054  0.6865  0.7908
13853SOL    HW253619   8.566   3.571   1.161 -2.2976  0.7449  1.7770
13854SOL     OW53620   0.672   3.414   1.694 -0.0643  0.3993 -0.4340
13854SOL    HW153621   0.626   3.325   1.690 -1.0467  0.7141  2.6770
13854SOL    HW253622   0.606   3.487   1.676 -0.1009  0.6861  0.8370
13855SOL     OW53623   2.821   7.418   0.851  0.1900 -0.0661 -0.2393
13855SOL    HW153624   2.849   7.323   0.862  0.3918 -0.1563 -1.5236
13855SOL    HW253625   2.810   7.460   0.942  2.8551 -0.5009  0.3094
13856SOL     OW53626   4.898   3.395   0.599 -0.2403  0.5040 -0.3415
13856SOL    HW153627   4.930   3.320   0.542  1.1805  0.6582  0.2454
13856SOL    HW253628   4.916   3.482   0.552  0.6707  0.6161  0.2118
13857SOL     OW53629   4.571   4.242   6.022 -0.2614  0.0961 -0.4560
13857SOL    HW153630   4.586   4.264   6.118  1.2436  0.0001 -0.6521
13857SOL    HW253631   4.631   4.167   5.995  1.6463  2.1700 -2.2563
13858SOL     OW53632   3.927   8.308   6.973  0.0940  0.7125  0.1377
13858SOL    HW153633   4.025   8.326   6.982 -0.0472  1.1900  0.7605
13858SOL    HW253634   3.876   8.370   7.033 -0.5525  0.0676  0.2676
13859SOL     OW53635   4.783   5.791   1.496 -0.6396  0.1439  0.2971
13859SOL    HW153636   4.783   5.714   1.432 -0.0222 -1.5841  2.3181
13859SOL    HW253637   4.689   5.810   1.526 -0.8892  0.7392 -0.8196
13860SOL     OW53638   8.124   0.329   7.221  0.6048  0.1333  0.5198
13860SOL    HW153639   8.029   0.298   7.226  1.5510 -2.9362  0.3778
13860SOL    HW253640   8.162   0.333   7.314  0.6320  0.3563  0.4981
13861SOL     OW53641   6.944   3.191   2.805 -0.0319 -0.1141 -0.1375
13861SOL    HW153642   6.876   3.201   2.878  1.6767  1.7313  1.2544
13861SOL    HW253643   6.986   3.280   2.787  1.4979 -1.0882 -1.5018
13862SOL     OW53644   7.959   1.744   4.645 -0.3320  0.1571 -0.2387
13862SOL    HW153645   7.954   1.651   4.683 -0.3508  0.1806 -0.1837
13862SOL    HW253646   8.047   1.785   4.669 -0.1405 -0.0118 -0.6426
13863SOL     OW53647   9.765   2.791   1.464 -0.5622  0.2285 -0.0231
13863SOL    HW153648   9.710   2.741   1.396  0.9713  0.7662 -1.6885
13863SOL    HW253649   9.756   2.747   1.553 -1.6012 -1.2490 -0.8407
13864SOL     OW53650   8.084   9.551   8.382  0.0743 -0.1183  1.1724
13864SOL    HW153651   8.016   9.597   8.438 -0.7091 -0.3508  0.4171
13864SOL    HW253652   8.071   9.452   8.389 -0.5272 -0.1313 -0.0314
13865SOL     OW53653   0.140   3.016   6.154 -0.1992 -0.0485  0.5315
13865SOL    HW153654   0.145   2.917   6.151  0.7007  0.0358 -1.8269
13865SOL    HW253655   0.228   3.053   6.184 -0.5815  0.0456  1.5592
13866SOL     OW53656   5.246   4.620   6.949  0.0471  0.5873  0.1209
13866SOL    HW153657   5.249   4.665   6.859 -4.1510 -0.0334 -0.4490
13866SOL    HW253658   5.232   4.689   7.020  2.2924  0.9717  0.2142
13867SOL     OW53659   0.633   1.651   0.641  0.5419  0.3455  0.2274
13867SOL    HW153660   0.554   1.650   0.702  1.3126 -1.8674  1.2331
13867SOL    HW253661   0.683   1.737   0.654 -1.4449  1.6010 -0.1473
13868SOL     OW53662   8.863   0.659   3.395 -0.3604 -0.5783  0.3987
13868SOL    HW153663   8.901   0.585   3.340 -1.4058 -1.1028  0.3569
13868SOL    HW253664   8.878   0.746   3.348  2.6509 -0.5076  1.4079
13869SOL     OW53665   6.732   1.131   3.244 -0.1411 -0.5253 -0.3571
13869SOL    HW153666   6.773   1.068   3.178 -0.8195  0.4234 -1.7036
13869SOL    HW253667   6.800   1.155   3.313  0.6764 -1.2721 -0.8900
13870SOL     OW53668   9.040   3.382   5.306  0.0254  0.0086  0.2251
13870SOL    HW153669   9.021   3.388   5.208 -2.4121 -0.9721  0.5977
13870SOL    HW253670   9.088   3.297   5.325 -0.9919 -0.6027  0.0869
13871SOL     OW53671   3.011   0.859   0.038  0.4468  0.0049  0.3177
13871SOL    HW153672   3.099   0.878   0.083 -0.0488 -0.5635  1.5469
13871SOL    HW253673   2.991   0.761   0.045  0.0763  0.0123 -0.6316
13872SOL     OW53674   8.623   7.561   6.400 -0.8288 -0.2402 -0.0136
13872SOL    HW153675   8.610   7.648   6.447  3.1262  0.1076  0.6210
13872SOL    HW253676   8.597   7.485   6.460 -0.3377  0.3732  0.9765
13873SOL     OW53677   3.716   3.111   8.296  0.0886  0.1976  0.3326
13873SOL    HW153678   3.713   3.104   8.196 -0.9223 -0.7869  0.4262
13873SOL    HW253679   3.624   3.102   8.333  0.6203 -0.8068  1.4428
13874SOL     OW53680   8.478   2.682   5.618  0.1238 -0.0833  0.4278
13874SOL    HW153681   8.469   2.583   5.611  0.3330 -0.0941  0.3197
13874SOL    HW253682   8.428   2.725   5.542 -0.3869 -0.0880  0.7581
13875SOL     OW53683   7.753   1.208   2.282  0.3437  0.1805  0.1901
13875SOL    HW153684   7.789   1.253   2.200  1.6386 -0.0593  0.6119
13875SOL    HW253685   7.717   1.118   2.259 -1.2635  0.9824 -0.4756
13876SOL     OW53686   1.131   1.125   1.939  0.0728 -0.4004 -0.2123
13876SOL    HW153687   1.176   1.190   1.878 -0.1826  1.2531  1.3475
13876SOL    HW253688   1.045   1.094   1.897 -0.5512  1.4144 -0.3148
13877SOL     OW53689   2.414   2.356   5.540  0.0382 -0.0566 -0.0312
13877SOL    HW153690   2.419   2.315   5.631 -1.8562 -1.3065 -0.4611
13877SOL    HW253691   2.399   2.455   5.549  0.8731 -0.0118  1.0004
13878SOL     OW53692   1.372   7.656   4.186 -0.6710  0.1573 -0.2080
13878SOL    HW153693   1.394   7.644   4.283 -0.5443  3.5110  0.2469
13878SOL    HW253694   1.408   7.580   4.133  0.0428 -1.2663  2.2691
13879SOL     OW53695   6.911   7.685   6.306  0.3986 -0.5947 -0.1257
13879SOL    HW153696   6.844   7.610   6.309  0.0996 -0.3283 -0.1392
13879SOL    HW253697   6.932   7.715   6.398  1.5010 -1.5644 -0.0474
13880SOL     OW53698   9.061   9.331   6.589 -0.0124  0.2352  0.5860
13880SOL    HW153699   8.996   9.302   6.519 -1.6015  0.3874  1.9753
13880SOL    HW253700   9.056   9.271   6.668  0.4865  1.1117  1.3043
13881SOL     OW53701   4.689   0.062   0.785 -0.4170 -0.1203  0.8297
13881SOL    HW153702   4.771   0.116   0.766 -0.3585 -0.0803  1.1939
13881SOL    HW253703   4.613   0.123   0.807 -0.6468 -0.1413  0.1120
13882SOL     OW53704   3.984   2.152   5.502  0.1164  0.5055  0.0375
13882SOL    HW153705   3.897   2.188   5.468 -0.4734  0.3929  1.3873
13882SOL    HW253706   3.969   2.065   5.548  1.2210 -0.3949 -1.2741
13883SOL     OW53707   4.525   9.930   8.128 -0.4533 -0.1877 -0.1533
13883SOL    HW153708   4.512  10.000   8.198 -0.7675 -0.4870  0.0865
13883SOL    HW253709   4.499   9.840   8.165  1.5058 -0.6808  0.0943
13884SOL     OW53710   1.369   7.955   1.249 -0.8421  0.3499  0.4921
13884SOL    HW153711   1.382   7.917   1.340 -0.1783 -1.7863 -0.4628
13884SOL    HW253712   1.344   7.882   1.186 -0.1857  1.6212 -1.2825
13885SOL     OW53713   7.736   1.617   5.240  0.1506 -0.6204  0.6469
13885SOL    HW153714   7.666   1.568   5.291 -2.0928 -1.1351 -2.7418
13885SOL    HW253715   7.715   1.715   5.241 -0.1334 -0.6770  0.3707
13886SOL     OW53716   4.514   0.073   2.746 -0.6759 -0.6918 -0.2534
13886SOL    HW153717   4.535   0.096   2.841  0.4754 -1.9597 -0.1836
13886SOL    HW253718   4.463   0.148   2.704  0.9962  0.9773  0.6159
13887SOL     OW53719   3.202   1.552   3.492  0.8894  0.5168  0.2383
13887SOL    HW153720   3.122   1.601   3.457 -0.7176 -1.9518  0.3333
13887SOL    HW253721   3.284   1.604   3.471 -0.6215  2.4934 -1.0008
13888SOL     OW53722   9.318   6.473   7.404  0.7331  0.2516 -0.1009
13888SOL    HW153723   9.258   6.549   7.430  0.0378 -0.5630  0.7594
13888SOL    HW253724   9.317   6.404   7.477 -0.6979 -1.7716 -1.9597
13889SOL     OW53725   7.847   3.518   2.897 -0.0387 -0.2761  0.0000
13889SOL    HW153726   7.773   3.584   2.888 -0.2322 -0.6841 -1.3794
13889SOL    HW253727   7.873   3.483   2.807  1.3687 -0.6497  0.5291
13890SOL     OW53728   4.461   6.508   3.549 -0.6438  0.4916  0.0390
13890SOL    HW153729   4.516   6.591   3.555 -1.5126  1.0186  0.7526
13890SOL    HW253730   4.502   6.446   3.482  0.0349  1.4656 -0.4531
13891SOL     OW53731   5.064   7.718   2.159 -0.6587  0.3877 -0.1635
13891SOL    HW153732   5.131   7.788   2.184  1.7449 -1.3704 -1.4664
13891SOL    HW253733   5.007   7.751   2.084  0.1807  1.1027 -0.4856
13892SOL     OW53734   8.922   4.258   6.503  0.2334 -0.2236 -0.0290
13892SOL    HW153735   8.974   4.337   6.471 -2.3083  0.7739 -1.8997
13892SOL    HW253736   8.849   4.290   6.564 -0.5397 -1.1787 -0.4497
13893SOL     OW53737   0.277   1.180   1.018 -0.3888  0.3200 -0.5037
13893SOL    HW153738   0.278   1.254   0.951  2.0366  0.5295 -0.2954
13893SOL    HW253739   0.334   1.205   1.097 -0.0324 -1.4945 -0.1441
13894SOL     OW53740   6.255   8.853   2.202  0.1701  0.0664 -0.4743
13894SOL    HW153741   6.189   8.835   2.275  0.4309  0.7586 -0.0652
13894SOL    HW253742   6.207   8.865   2.115 -0.1408 -0.8181 -0.4299
13895SOL     OW53743   7.552   4.253   3.415 -0.6111 -0.0628  0.4280
13895SOL    HW153744   7.495   4.209   3.484  0.7817 -4.1568 -0.9022
13895SOL    HW253745   7.646   4.217   3.421 -0.1761  0.4002 -2.7589
13896SOL     OW53746   1.983   4.509   8.934 -0.6752 -0.1482  0.1085
13896SOL    HW153747   1.985   4.446   8.856 -0.5151  1.1126 -0.9124
13896SOL    HW253748   2.074   4.517   8.973 -0.3193  0.9199 -0.9461
13897SOL     OW53749   1.004   3.868   6.076 -0.0800  0.6145 -0.4123
13897SOL    HW153750   1.015   3.770   6.093  0.8740  1.0236  1.5497
13897SOL    HW253751   0.943   3.907   6.145  0.5513  1.6216 -0.4098
13898SOL     OW53752   1.244   4.475   7.758 -0.1926  0.4769 -0.5550
13898SOL    HW153753   1.190   4.522   7.828  1.5344  2.1756 -0.3252
13898SOL    HW253754   1.186   4.410   7.709 -1.7891  0.3546  1.4363
13899SOL     OW53755   6.705   7.693   2.272 -0.2353 -0.0638  0.0365
13899SOL    HW153756   6.738   7.710   2.364  1.3051 -1.0454 -0.3301
13899SOL    HW253757   6.672   7.599   2.264 -0.9004  0.1869 -0.2698
13900SOL     OW53758   1.964   1.187   4.455 -0.7508 -0.2012 -0.2956
13900SOL    HW153759   1.867   1.169   4.470 -0.9840 -0.2040 -1.8024
13900SOL    HW253760   2.016   1.102   4.461 -0.4668  0.1284  3.1186
13901SOL     OW53761   7.212   7.242   2.648  0.3885 -0.3347  0.4940
13901SOL    HW153762   7.144   7.172   2.626  1.2669 -0.7377 -1.0735
13901SOL    HW253763   7.295   7.198   2.682  0.9535 -0.0914 -0.5227
13902SOL     OW53764   2.629   3.158   9.257 -0.4342 -0.0483  0.0868
13902SOL    HW153765   2.624   3.255   9.234  1.6401 -0.0353 -0.4527
13902SOL    HW253766   2.624   3.148   9.357  1.5067  0.8270  0.3069
13903SOL     OW53767   8.702   6.001   0.205  0.5114  0.6825  0.5756
13903SOL    HW153768   8.711   6.019   0.107  0.5200 -0.3310  0.3779
13903SOL    HW253769   8.613   6.031   0.238  1.4599  3.3436  0.8005
13904SOL     OW53770   7.498   3.771   0.250 -0.1182  0.9317  0.0439
13904SOL    HW153771   7.459   3.835   0.184 -2.1759 -0.5558 -0.2314
13904SOL    HW253772   7.596   3.761   0.233 -0.3479  1.6973 -1.8357
13905SOL     OW53773   5.993   5.320   1.333 -0.2229 -0.7669 -0.6088
13905SOL    HW153774   6.008   5.392   1.401 -0.4446  0.4759 -1.8263
13905SOL    HW253775   5.989   5.362   1.242  0.7914 -2.4731 -1.4643
13906SOL     OW53776   2.477   6.913   2.211  0.4250  0.2569 -0.6940
13906SOL    HW153777   2.488   6.991   2.273 -2.5615  0.3577 -0.2014
13906SOL    HW253778   2.426   6.942   2.130  0.1500 -0.9529 -0.9698
13907SOL     OW53779   6.427   1.036   0.633 -0.3536 -0.0321  0.6915
13907SOL    HW153780   6.475   0.975   0.696  2.4431  1.1490 -0.2119
13907SOL    HW253781   6.458   1.130   0.647  0.0568  0.3216 -2.1444
13908SOL     OW53782   1.311   3.931   9.427  0.1097 -0.0825  0.2534
13908SOL    HW153783   1.320   3.874   9.509  2.7442 -0.3411 -0.1832
13908SOL    HW253784   1.220   3.918   9.388 -0.0277 -2.4778  1.2610
13909SOL     OW53785   7.224   9.742   5.793  0.3621 -0.0756  0.7808
13909SOL    HW153786   7.222   9.643   5.801 -0.3928 -0.1300  0.0243
13909SOL    HW253787   7.295   9.769   5.728 -0.4959 -0.2111 -0.2182
13910SOL     OW53788   9.235   8.607   4.735 -0.1127  0.0016 -0.0791
13910SOL    HW153789   9.230   8.526   4.792 -0.2997  0.1282  0.0824
13910SOL    HW253790   9.243   8.580   4.639  1.1226 -0.2109  0.0796
13911SOL     OW53791   9.331   3.384   8.812 -0.3534  0.4956 -0.7248
13911SOL    HW153792   9.274   3.447   8.865 -0.1393  1.0751 -1.1732
13911SOL    HW253793   9.289   3.293   8.812 -1.1420  0.8541 -0.8387
13912SOL     OW53794   3.065   1.483   0.780 -0.1939 -0.5896  0.2734
13912SOL    HW153795   3.027   1.457   0.869  0.8807 -1.0218  0.6041
13912SOL    HW253796   3.040   1.414   0.712 -4.8315  1.9080 -0.7918
13913SOL     OW53797   5.565   8.050   6.534 -0.0920  0.6526 -0.4032
13913SOL    HW153798   5.623   7.971   6.555 -2.5964 -1.1477 -0.0617
13913SOL    HW253799   5.538   8.047   6.438 -0.2726  1.0543 -0.3645
13914SOL     OW53800   5.606   1.289   6.181 -0.1948 -0.0316 -0.2849
13914SOL    HW153801   5.523   1.267   6.130 -0.2072  1.8300 -1.1164
13914SOL    HW253802   5.622   1.219   6.250 -3.5269  0.5210  1.1744
13915SOL     OW53803   3.992   2.351   9.589 -0.5210  0.2326 -0.5145
13915SOL    HW153804   4.057   2.415   9.548 -0.0152  2.2117  3.1790
13915SOL    HW253805   4.042   2.271   9.623 -0.0429  1.4222  1.6740
13916SOL     OW53806   1.858   9.945   0.374  0.2044 -0.1086  0.6256
13916SOL    HW153807   1.925  10.019   0.366 -0.0249 -0.0864 -1.3443
13916SOL    HW253808   1.835   9.910   0.283 -1.9440 -0.5940  1.3192
13917SOL     OW53809   5.706   0.041   2.839 -0.5383  0.1836 -0.4443
13917SOL    HW153810   5.658   0.105   2.899 -1.1302 -1.1069  0.4701
13917SOL    HW253811   5.644   0.011   2.766 -0.9371 -0.9987  0.3736
13918SOL     OW53812   7.960   7.220   2.555 -0.1650 -0.4784 -0.0622
13918SOL    HW153813   7.987   7.310   2.522  0.5309 -1.0390 -1.0518
13918SOL    HW253814   7.867   7.224   2.593 -0.5428  0.4189 -1.0676
13919SOL     OW53815   4.760   3.749   7.459 -0.0848  0.0400 -0.4046
13919SOL    HW153816   4.739   3.795   7.545 -0.1113 -1.0436  0.1838
13919SOL    HW253817   4.794   3.656   7.478  1.4961  0.3733 -1.4970
13920SOL     OW53818   4.343   6.842   1.149  0.4004 -0.0361  0.0826
13920SOL    HW153819   4.331   6.789   1.232 -1.9276  0.4571  0.0749
13920SOL    HW253820   4.376   6.782   1.076 -0.7456 -1.1448  0.4725
13921SOL     OW53821   0.577   3.361   0.598 -0.1988  0.2254 -0.2708
13921SOL    HW153822   0.652   3.427   0.600 -0.7949  0.9975 -2.4096
13921SOL    HW253823   0.502   3.395   0.654  0.6005 -0.0281  0.9785
13922SOL     OW53824   0.773   0.296   0.861  0.2553  0.0027  0.0230
13922SOL    HW153825   0.738   0.330   0.948 -0.2904 -0.0330 -0.1789
13922SOL    HW253826   0.784   0.197   0.865 -2.0038 -0.3051 -0.7061
13923SOL     OW53827   7.231   2.759   2.891  0.5466  0.2491 -0.4229
13923SOL    HW153828   7.140   2.783   2.926 -0.6065 -1.6780 -1.9361
13923SOL    HW253829   7.291   2.735   2.967 -1.2293 -1.7300  0.4187
13924SOL     OW53830   1.962   0.611   8.591 -0.3383 -0.5510 -0.1681
13924SOL    HW153831   2.038   0.599   8.527  0.4749 -0.4789  0.7653
13924SOL    HW253832   1.937   0.522   8.630  1.0297 -0.2375  1.4910
13925SOL     OW53833   4.060   8.870   7.039 -1.0837  0.0407  0.2552
13925SOL    HW153834   4.038   8.899   7.133 -1.3877  2.0390 -0.4214
13925SOL    HW253835   4.155   8.839   7.035 -0.2872  2.3715  0.6768
13926SOL     OW53836   8.083   4.080   3.473  0.0927 -0.1834  0.0573
13926SOL    HW153837   7.999   4.104   3.425  0.7130 -0.2020 -1.0582
13926SOL    HW253838   8.069   4.088   3.572  0.0292  3.9610 -0.2312
13927SOL     OW53839   3.134   5.554   2.970 -0.3684  0.1215  0.0753
13927SOL    HW153840   3.193   5.634   2.956  0.1293 -0.1862  0.3957
13927SOL    HW253841   3.078   5.569   3.052  0.8421 -0.5114  1.0332
13928SOL     OW53842   2.700   2.244   8.280 -0.5835 -0.3556  0.3730
13928SOL    HW153843   2.603   2.220   8.292 -0.7825  0.3410  0.1659
13928SOL    HW253844   2.714   2.339   8.309  0.2980 -0.8713  1.6624
13929SOL     OW53845   8.518   0.417   2.954  1.1987 -0.6318  0.4901
13929SOL    HW153846   8.481   0.462   3.036  2.1252  3.4891 -1.2492
13929SOL    HW253847   8.444   0.399   2.890  0.8944 -1.0558  0.9594
13930SOL     OW53848   3.605   3.589   8.779 -0.2599 -0.1881  0.1112
13930SOL    HW153849   3.532   3.521   8.786 -0.7078  0.2772 -0.0247
13930SOL    HW253850   3.605   3.647   8.861 -0.9702  0.7326 -0.5340
13931SOL     OW53851   9.414   9.226   7.359  0.3084  0.3670 -0.1355
13931SOL    HW153852   9.509   9.199   7.344  0.4633  0.4267  0.7055
13931SOL    HW253853   9.405   9.266   7.450 -0.5072  0.4505 -0.2500
13932SOL     OW53854   4.198   1.469   9.364 -0.1340 -0.1734 -0.4149
13932SOL    HW153855   4.202   1.427   9.274  0.9832 -2.2993  0.5839
13932SOL    HW253856   4.103   1.491   9.387 -0.2935  1.5336 -2.5786
13933SOL     OW53857   0.881   9.956   2.848 -0.4061 -0.3752  0.4607
13933SOL    HW153858   0.963   9.991   2.802 -0.0278  1.7821  2.6774
13933SOL    HW253859   0.906   9.877   2.904 -0.1013 -0.5849  0.0259
13934SOL     OW53860   0.989   0.896   9.755  0.0304  0.2604 -0.7814
13934SOL    HW153861   0.892   0.916   9.749  0.1972  0.5393 -2.8490
13934SOL    HW253862   1.042   0.980   9.748  0.4628 -0.0015 -0.7412
13935SOL     OW53863   3.674   9.470   7.510 -0.2160  0.4324  0.3226
13935SOL    HW153864   3.597   9.532   7.526  0.4396  1.2670  0.2423
13935SOL    HW253865   3.724   9.498   7.428  0.0622 -0.2178  0.2683
13936SOL     OW53866   4.050   9.293   5.599 -0.1218  0.3531 -0.3115
13936SOL    HW153867   4.090   9.370   5.649  0.8774 -0.5568  0.3029
13936SOL    HW253868   4.015   9.225   5.664 -0.2822 -0.0817 -0.8487
13937SOL     OW53869   2.857   8.157   8.772  0.1556 -0.3040  0.3392
13937SOL    HW153870   2.812   8.202   8.849  2.4543  2.4148  0.1944
13937SOL    HW253871   2.948   8.126   8.800 -0.2886 -2.3240 -0.3858
13938SOL     OW53872   8.805   7.690   8.882  0.2506  0.3733 -0.3098
13938SOL    HW153873   8.709   7.685   8.856  0.0632 -1.3443  0.6128
13938SOL    HW253874   8.818   7.762   8.951 -0.5335  0.0168  0.2105
13939SOL     OW53875   4.155   5.262  10.024  0.5503 -0.3676 -0.3918
13939SOL    HW153876   4.220   5.278   9.950 -0.2870 -0.9714 -1.2581
13939SOL    HW253877   4.090   5.338  10.027  0.9226 -0.0604  0.0984
13940SOL     OW53878   8.495   5.517   6.566 -0.2889 -0.4771 -0.0222
13940SOL    HW153879   8.553   5.482   6.493 -1.6085 -2.7204 -0.0500
13940SOL    HW253880   8.427   5.579   6.527  1.5959  1.5907 -0.0855
13941SOL     OW53881   6.110   1.979   8.543  0.0634 -0.2688  0.0010
13941SOL    HW153882   6.114   2.020   8.634  1.6710  0.3961 -0.3572
13941SOL    HW253883   6.195   1.930   8.525  0.0139  0.1444 -1.4054
13942SOL     OW53884   0.519   1.828   0.848  0.0369 -0.0405 -0.2654
13942SOL    HW153885   0.443   1.893   0.858  0.8438  0.6830  1.2720
13942SOL    HW253886   0.602   1.867   0.889  0.8845 -1.4386 -0.6322
13943SOL     OW53887   7.156   4.053  10.020  0.2104 -0.6791  0.3540
13943SOL    HW153888   7.138   4.024   9.926 -0.9439  0.0361  0.3400
13943SOL    HW253889   7.217   3.987  10.064 -0.8088 -2.0737 -0.2770
13944SOL     OW53890   3.423   4.082   1.682  0.2497 -0.1281  0.1255
13944SOL    HW153891   3.366   4.025   1.623  0.1116 -1.4180  1.4945
13944SOL    HW253892   3.516   4.085   1.646 -0.1531  0.1948 -0.9007
13945SOL     OW53893   9.067   8.890   9.379  0.3573 -0.4578  0.2388
13945SOL    HW153894   9.109   8.921   9.465  2.2390  0.6669 -1.0641
13945SOL    HW253895   9.090   8.793   9.364 -0.5460 -0.8561  1.3152
13946SOL     OW53896   8.268   3.545   3.163  0.5116 -0.5744  0.0460
13946SOL    HW153897   8.303   3.609   3.231 -0.2571  2.2197 -2.1159
13946SOL    HW253898   8.168   3.540   3.169  0.4418 -0.3539 -0.8194
13947SOL     OW53899   1.229   5.628   4.450  0.0416  0.1323  0.4762
13947SOL    HW153900   1.157   5.591   4.393 -1.1699  1.1573  1.3115
13947SOL    HW253901   1.225   5.587   4.541 -0.1594  0.9528  0.8461
13948SOL     OW53902   3.094   5.568   4.473 -0.6892  0.0340  0.3620
13948SOL    HW153903   3.144   5.570   4.560 -0.9671  0.7862  0.5135
13948SOL    HW253904   3.092   5.660   4.434  0.0393 -0.4331 -0.7947
13949SOL     OW53905   0.969   2.600   0.229 -0.5581  0.2234  0.1592
13949SOL    HW153906   1.061   2.560   0.237 -0.8100 -0.2154  0.9504
13949SOL    HW253907   0.905   2.529   0.200 -0.6333  0.5474 -0.4640
13950SOL     OW53908   2.205   2.349   9.232 -0.0198 -0.0118 -0.7189
13950SOL    HW153909   2.258   2.326   9.150  0.1922 -2.0725 -0.0282
13950SOL    HW253910   2.251   2.312   9.312 -0.7314  1.1698  0.2497
13951SOL     OW53911   4.425   4.563   5.436 -1.0232  0.0220 -0.4470
13951SOL    HW153912   4.490   4.502   5.479 -0.2987  0.8804 -0.3069
13951SOL    HW253913   4.472   4.618   5.366 -2.1192 -1.1940 -2.2040
13952SOL     OW53914   3.244   1.513   6.293  0.0893  0.0209 -0.5610
13952SOL    HW153915   3.172   1.563   6.341  0.5190  0.3408 -0.2427
13952SOL    HW253916   3.302   1.467   6.360 -1.3062 -2.3240 -0.8992
13953SOL     OW53917   8.150   6.856   6.275 -0.1228  0.2412 -0.1677
13953SOL    HW153918   8.192   6.945   6.297  1.9980 -0.7562 -0.0352
13953SOL    HW253919   8.086   6.867   6.199 -0.4195  2.0068  0.3032
13954SOL     OW53920   7.411   3.227   3.406  0.4561  0.3530  0.0524
13954SOL    HW153921   7.478   3.268   3.344  0.8825 -0.9788 -0.3885
13954SOL    HW253922   7.321   3.230   3.363  0.4595  0.9137  0.0712
13955SOL     OW53923   9.048   8.422   4.211 -0.4526  0.5033 -0.3503
13955SOL    HW153924   9.037   8.401   4.114  1.7608 -0.4995 -0.3972
13955SOL    HW253925   8.968   8.474   4.242 -1.0984  1.0182 -2.7400
13956SOL     OW53926   8.317   2.678   1.569 -0.1928  0.3460 -0.5132
13956SOL    HW153927   8.230   2.715   1.601  0.1846  1.0109 -0.2295
13956SOL    HW253928   8.326   2.694   1.470 -1.2975 -1.5776 -0.9461
13957SOL     OW53929   2.926   9.907   2.672  0.0788  0.0572 -0.6332
13957SOL    HW153930   2.936   9.877   2.767 -1.3513  0.8600 -0.2139
13957SOL    HW253931   2.986   9.985   2.655 -1.3007  1.3069  0.2426
13958SOL     OW53932   3.220   0.800   2.631  0.2079  0.4902 -0.6433
13958SOL    HW153933   3.280   0.873   2.663 -0.7593  0.3041  1.7107
13958SOL    HW253934   3.125   0.831   2.634 -0.2781 -1.0668  1.0712
13959SOL     OW53935   3.683   4.180   6.354 -0.4310  0.2581  0.5750
13959SOL    HW153936   3.602   4.207   6.406 -0.2573 -0.7976  1.4179
13959SOL    HW253937   3.655   4.129   6.273 -0.5969 -1.0096  1.4081
13960SOL     OW53938   4.625   3.014   1.716 -0.2916  0.1527 -0.4926
13960SOL    HW153939   4.665   2.934   1.671  0.0648  0.5583 -0.9033
13960SOL    HW253940   4.551   2.985   1.777  0.1695 -0.5415 -0.2549
13961SOL     OW53941   1.476   7.328   3.738  0.1181  0.1364  0.5525
13961SOL    HW153942   1.441   7.320   3.645  1.8115 -0.2945 -0.0539
13961SOL    HW253943   1.420   7.273   3.800 -0.0356 -0.8791 -0.4781
13962SOL     OW53944   9.378   0.468   1.292  0.1686 -0.3349  0.1158
13962SOL    HW153945   9.453   0.528   1.319 -0.0318 -0.0297  0.0044
13962SOL    HW253946   9.313   0.460   1.368 -0.2055  0.2238 -0.1346
13963SOL     OW53947   7.205   0.617   5.815  0.1129 -0.0932  0.3137
13963SOL    HW153948   7.125   0.675   5.829  0.4019  0.4695 -0.3333
13963SOL    HW253949   7.246   0.595   5.904 -2.0407 -2.2592  0.8236
13964SOL     OW53950   0.940   3.010   8.676  0.2223 -0.3561  0.1121
13964SOL    HW153951   1.015   3.030   8.613 -0.3025  0.3019 -0.3082
13964SOL    HW253952   0.887   3.093   8.693  0.1895 -0.5920  1.2042
13965SOL     OW53953   1.307   5.238   2.824 -0.4400 -0.2052  0.4651
13965SOL    HW153954   1.367   5.315   2.800 -2.5784  1.0987 -0.9330
13965SOL    HW253955   1.273   5.251   2.917 -0.8021  0.5695  0.2334
13966SOL     OW53956   7.434   9.845   5.636 -0.7607  0.4187 -0.0847
13966SOL    HW153957   7.387   9.922   5.594 -0.2112  0.1149 -1.2796
13966SOL    HW253958   7.491   9.877   5.712 -0.8946  1.1267 -0.2859
13967SOL     OW53959   3.047   9.205   3.775 -0.4548 -0.2549 -0.1988
13967SOL    HW153960   3.132   9.253   3.750  0.0729 -0.8690  0.3805
13967SOL    HW253961   3.001   9.175   3.692  1.2560 -2.2242 -0.4827
13968SOL     OW53962   9.000   1.546   9.430  0.0512  0.1057 -0.3145
13968SOL    HW153963   9.099   1.545   9.413 -0.1792  1.2056 -1.9092
13968SOL    HW253964   8.965   1.639   9.417 -0.9951 -0.0273  1.4849
13969SOL     OW53965   2.513   3.449   8.342 -0.0063 -0.0991  0.2353
13969SOL    HW153966   2.535   3.500   8.425  0.2089 -1.1660  0.8397
13969SOL    HW253967   2.535   3.353   8.354  2.5484  0.1382 -2.0107
13970SOL     OW53968   9.484   9.789   3.972  0.8228 -0.0883 -0.1279
13970SOL    HW153969   9.471   9.884   3.998  0.6501 -0.4756  1.2288
13970SOL    HW253970   9.503   9.783   3.874 -0.5482  1.2114 -0.4729
13971SOL     OW53971   8.910   5.725   5.475  0.8601  0.2215 -0.3937
13971SOL    HW153972   9.001   5.765   5.459  2.7283 -1.5740  4.7438
13971SOL    HW253973   8.911   5.629   5.446  1.1454 -0.2181  1.0126
13972SOL     OW53974   8.643   1.839   3.213 -0.0341  0.0419  0.1391
13972SOL    HW153975   8.567   1.860   3.151  0.0733 -0.0935 -0.0397
13972SOL    HW253976   8.663   1.741   3.210  1.3866  0.3481 -1.2604
13973SOL     OW53977   1.667   4.874   7.017 -0.3440  0.2307 -0.1530
13973SOL    HW153978   1.618   4.840   7.097  0.7731 -0.9311  0.0442
13973SOL    HW253979   1.641   4.822   6.936  0.9502 -0.7627  0.0499
13974SOL     OW53980   7.040   1.125   9.322  0.3459 -0.3459  0.2891
13974SOL    HW153981   7.126   1.165   9.289  0.2702 -0.3354  0.1086
13974SOL    HW253982   7.050   1.026   9.325 -0.5135 -0.5421 -2.2317
13975SOL     OW53983   6.167   5.399   7.867 -0.0431  0.4177 -0.3470
13975SOL    HW153984   6.212   5.479   7.908  0.9023 -0.6304  0.6858
13975SOL    HW253985   6.141   5.420   7.773  1.2133  1.5691 -0.4547
13976SOL     OW53986   8.765   1.586   3.212 -0.6507 -0.0953  0.1662
13976SOL    HW153987   8.816   1.506   3.180  0.2655  0.9405 -1.0193
13976SOL    HW253988   8.807   1.669   3.175 -1.2078  0.9794  1.8974
13977SOL     OW53989   0.054   2.185   0.298  0.4534  0.3170 -0.6031
13977SOL    HW153990  -0.021   2.129   0.333 -0.2723  0.8309 -1.3066
13977SOL    HW253991   0.131   2.182   0.362 -0.3606  0.1978  0.3842
13978SOL     OW53992   3.679   1.710   0.065  0.3764 -0.0636  0.1137
13978SOL    HW153993   3.750   1.654   0.023 -0.2412  0.3682 -1.5300
13978SOL    HW253994   3.626   1.653   0.129  0.2277 -1.1617 -0.9679
13979SOL     OW53995   2.013   5.541   6.589  0.3574 -0.0836  0.1516
13979SOL    HW153996   2.007   5.478   6.511 -1.1214 -1.5878  1.4220
13979SOL    HW253997   1.935   5.525   6.650 -1.0601  4.2112 -0.3455
13980SOL     OW53998   4.485   1.803   4.708  0.1345  0.2548 -0.3360
13980SOL    HW153999   4.474   1.882   4.769 -0.1080  1.3247 -1.7265
13980SOL    HW254000   4.422   1.730   4.735  1.0786  0.1223  1.5972
13981SOL     OW54001   2.468   7.100   2.390 -0.0093 -0.2546  0.6369
13981SOL    HW154002   2.506   7.057   2.472 -0.3076  0.1695  1.0003
13981SOL    HW254003   2.370   7.114   2.402 -0.3890 -1.7741 -0.4803
13982SOL     OW54004   2.295   7.247   2.069 -0.2904 -0.4599 -0.1177
13982SOL    HW154005   2.203   7.275   2.041  0.4169  0.8611 -1.2019
13982SOL    HW254006   2.348   7.327   2.095  0.0205 -1.3848  2.2376
13983SOL     OW54007   0.821   8.653   9.916 -0.7421 -0.0159 -0.2564
13983SOL    HW154008   0.732   8.613   9.895 -1.3789  2.2327 -2.0559
13983SOL    HW254009   0.818   8.751   9.898  1.1460  0.6787  2.8195
13984SOL     OW54010   9.104   9.981   5.858  0.0224  0.0933 -0.0413
13984SOL    HW154011   9.154   9.914   5.804  0.2122 -0.7946  1.1900
13984SOL    HW254012   9.121   9.964   5.956 -1.2423  0.8994  0.3368
13985SOL     OW54013   0.433   5.025   2.917  0.2888 -0.2142  0.8346
13985SOL    HW154014   0.341   4.992   2.937  0.5675 -1.9120 -0.5188
13985SOL    HW254015   0.473   4.970   2.843  2.3353  0.5675  1.3089
13986SOL     OW54016   7.565   2.098   3.874 -0.1031 -0.6444  0.8106
13986SOL    HW154017   7.635   2.067   3.939  1.6079 -1.8448 -1.5526
13986SOL    HW254018   7.607   2.115   3.785 -2.5654  0.1643 -0.2381
13987SOL     OW54019   0.135   4.735   5.806 -0.1297  0.3314 -0.6668
13987SOL    HW154020   0.086   4.821   5.818  0.9154  1.0344 -1.3613
13987SOL    HW254021   0.177   4.732   5.716  3.6068  1.0921  0.9423
13988SOL     OW54022   9.081   2.617   8.542 -0.2846  0.0353  0.0692
13988SOL    HW154023   8.988   2.655   8.546  0.2852  1.6637 -1.4374
13988SOL    HW254024   9.131   2.661   8.467  2.0188 -0.1143  1.4930
13989SOL     OW54025   2.297   8.679   5.728  0.0721  0.3047  0.4220
13989SOL    HW154026   2.363   8.741   5.770  1.0222  0.9734 -1.9668
13989SOL    HW254027   2.245   8.728   5.658 -1.6200 -0.7145  0.9364
13990SOL     OW54028   9.231   6.660   9.905 -0.4700  0.0433 -0.1772
13990SOL    HW154029   9.302   6.590   9.906 -1.0677 -0.5754 -0.5458
13990SOL    HW254030   9.211   6.686   9.811 -1.0804 -0.1515 -0.1054
13991SOL     OW54031   3.952   4.641   8.403  0.0240 -0.0677 -0.2833
13991SOL    HW154032   3.863   4.603   8.377 -0.1591  1.4757 -2.1056
13991SOL    HW254033   3.940   4.713   8.471  0.0577 -1.1027  0.8161
13992SOL     OW54034   5.717   8.995   3.230 -0.1388 -0.2382  0.0072
13992SOL    HW154035   5.774   8.916   3.252  1.0213  0.0283 -1.8958
13992SOL    HW254036   5.721   9.061   3.305  0.2753 -1.2100  0.8586
13993SOL     OW54037   0.845   6.603   2.809 -0.1764 -0.0287  0.5706
13993SOL    HW154038   0.795   6.680   2.768  0.5150  0.0412 -0.1523
13993SOL    HW254039   0.929   6.638   2.852  0.4498 -0.4477 -0.2911
13994SOL     OW54040   1.457   0.499   6.442 -0.3485 -0.0024 -0.1022
13994SOL    HW154041   1.380   0.508   6.505 -1.1616  0.1170 -1.1008
13994SOL    HW254042   1.542   0.505   6.493 -1.0033 -2.3680  1.3443
13995SOL     OW54043   0.978   8.027   5.890 -0.7328 -0.3289  0.6167
13995SOL    HW154044   0.940   8.035   5.982 -2.6430  3.9346 -0.4274
13995SOL    HW254045   1.068   8.073   5.888 -0.8065 -0.1998  0.3148
13996SOL     OW54046   2.888   2.403   0.515  0.0849  0.1292 -0.2608
13996SOL    HW154047   2.986   2.405   0.495  0.0656 -0.5035 -0.4630
13996SOL    HW254048   2.872   2.431   0.610  0.1754  3.2631 -1.1327
13997SOL     OW54049   4.829   5.407   4.140 -0.1574  0.2130 -0.2490
13997SOL    HW154050   4.855   5.404   4.043 -0.4865  0.4295 -0.3410
13997SOL    HW254051   4.795   5.317   4.168  3.8469 -1.1290  0.7319
13998SOL     OW54052   0.241   6.170   5.185  0.2244  0.4886  0.0388
13998SOL    HW154053   0.288   6.153   5.099 -0.7232  0.7872 -0.5410
13998SOL    HW254054   0.299   6.225   5.245  0.9543  0.1297 -0.3324
13999SOL     OW54055   4.421   1.623   1.409  0.7286 -0.0735 -0.4148
13999SOL    HW154056   4.502   1.671   1.444  0.3068 -0.3586  0.9858
13999SOL    HW254057   4.352   1.690   1.381  1.4019  0.1685 -1.4955
14000SOL     OW54058   3.603   6.400   8.328 -0.0360 -0.3708  0.5803
14000SOL    HW154059   3.583   6.436   8.237  1.2333 -0.8683  0.0963
14000SOL    HW254060   3.536   6.436   8.393 -1.2844 -0.4487 -0.6370
14001SOL     OW54061   7.462   9.396   2.542  0.0392 -0.3194 -0.4841
14001SOL    HW154062   7.405   9.456   2.486 -1.6486  0.7022  2.2008
14001SOL    HW254063   7.424   9.304   2.541  0.0107 -0.3016 -0.9987
14002SOL     OW54064   5.122   5.699   1.162  0.0044  0.2099  0.0881
14002SOL    HW154065   5.113   5.605   1.130 -0.0709 -0.5463  2.2798
14002SOL    HW254066   5.036   5.748   1.146  0.0027 -0.1147 -0.9397
14003SOL     OW54067   6.847   2.931   2.764  0.1463 -0.1629  0.5005
14003SOL    HW154068   6.776   2.964   2.702 -0.7240 -0.2777  1.4275
14003SOL    HW254069   6.915   3.004   2.777 -0.1283  0.1700  0.1084
14004SOL     OW54070   7.986   8.889   2.448  0.0893  0.1821 -0.2017
14004SOL    HW154071   8.008   8.852   2.539  0.8392 -2.0753 -1.2424
14004SOL    HW254072   8.057   8.860   2.384 -1.9826 -0.7848 -2.1082
14005SOL     OW54073   4.118   5.320   9.065  0.0704 -0.7710  0.4708
14005SOL    HW154074   4.157   5.294   9.154  0.4137  0.2559  0.6275
14005SOL    HW254075   4.019   5.320   9.071  0.1142  1.0212  1.3642
14006SOL     OW54076   1.641   4.916   1.125  0.3427 -0.7726 -0.3185
14006SOL    HW154077   1.547   4.908   1.158  0.3762  0.4367  0.0623
14006SOL    HW254078   1.704   4.920   1.202  0.5227  0.7543 -0.5407
14007SOL     OW54079   1.996   6.051   6.293  0.3990 -0.3257  0.0607
14007SOL    HW154080   1.946   6.134   6.268  1.8628  0.9623  1.2957
14007SOL    HW254081   2.091   6.074   6.313  0.7150 -2.2289  0.8622
14008SOL     OW54082   5.729   1.191   4.952  0.0922 -0.4176 -0.2522
14008SOL    HW154083   5.738   1.161   5.047  0.3575  1.5147  0.3615
14008SOL    HW254084   5.816   1.178   4.905  0.4782  0.1986  0.2671
14009SOL     OW54085   2.301   5.323   7.808  0.7174  0.3884 -0.2858
14009SOL    HW154086   2.382   5.378   7.832 -0.4663  1.9505  0.1983
14009SOL    HW254087   2.221   5.360   7.854 -0.6728  0.1902 -2.4905
14010SOL     OW54088   5.977   4.619   9.842  0.0428 -0.1771  0.3041
14010SOL    HW154089   5.922   4.589   9.764  1.4171  1.0436 -1.1663
14010SOL    HW254090   5.996   4.540   9.901 -0.6651 -1.2022 -0.8105
14011SOL     OW54091   5.398   1.450   8.076 -0.0912  0.1845  0.3456
14011SOL    HW154092   5.418   1.359   8.039  1.2075 -0.0550  1.5744
14011SOL    HW254093   5.313   1.484   8.037 -0.5824 -1.5529 -0.1462
14012SOL     OW54094   0.517   5.498   2.431 -0.3792  0.3730  0.2088
14012SOL    HW154095   0.430   5.449   2.439 -0.5435  0.6198 -0.0699
14012SOL    HW254096   0.524   5.540   2.341 -0.0055  0.4249  0.2604
14013SOL     OW54097   3.118   7.192   3.210 -0.0605 -0.0199  0.2458
14013SOL    HW154098   3.144   7.204   3.306 -2.0170 -2.3888  1.1283
14013SOL    HW254099   3.193   7.222   3.151  2.2816 -1.0667  2.5903
14014SOL     OW54100   9.683   8.417   4.315  0.3031 -0.2244 -0.2749
14014SOL    HW154101   9.667   8.475   4.235  0.8804  1.7736  1.0382
14014SOL    HW254102   9.780   8.415   4.336 -0.1229  1.3651  1.9306
14015SOL     OW54103   1.934   2.499   5.974 -0.2231  0.0758  0.1250
14015SOL    HW154104   1.966   2.569   6.037 -0.8464 -0.5223  1.1079
14015SOL    HW254105   1.886   2.543   5.897 -1.0311  0.7108  0.9749
14016SOL     OW54106   8.556   9.039   2.465  0.3838  0.2487  0.6565
14016SOL    HW154107   8.501   9.045   2.382 -1.5506  1.0630  1.9641
14016SOL    HW254108   8.540   8.951   2.510  0.7390  0.1685  0.6254
14017SOL     OW54109   1.725   4.026   4.360  0.2928  0.7262 -0.2316
14017SOL    HW154110   1.715   4.007   4.458 -0.9194  0.4284 -0.4121
14017SOL    HW254111   1.669   3.962   4.307 -1.0300  2.4721 -1.0026
14018SOL     OW54112   7.735   1.331   2.656 -0.5021 -0.2003  0.3319
14018SOL    HW154113   7.766   1.254   2.601 -1.3845 -0.0575 -0.3734
14018SOL    HW254114   7.802   1.405   2.651 -0.9568  0.1273 -1.2127
14019SOL     OW54115   1.329   4.251   2.507  0.0191 -0.1341  0.1344
14019SOL    HW154116   1.314   4.340   2.551 -0.2010 -0.2425  0.2855
14019SOL    HW254117   1.362   4.186   2.576 -0.2345 -0.2796  0.1206
14020SOL     OW54118   2.318   9.877   6.632  0.0419  0.0521 -0.3720
14020SOL    HW154119   2.292   9.781   6.624 -1.4139  0.5205 -1.4270
14020SOL    HW254120   2.378   9.902   6.556 -0.1299  0.1525 -0.4743
14021SOL     OW54121   4.208   3.369   2.630  0.4919  0.1963  0.5875
14021SOL    HW154122   4.282   3.419   2.675  1.3058 -1.2133  0.8464
14021SOL    HW254123   4.203   3.276   2.667  1.5752 -1.1918 -2.5632
14022SOL     OW54124   0.041   3.323   4.511  0.3766 -0.6882 -0.1105
14022SOL    HW154125  -0.010   3.239   4.530 -1.8442  0.3198 -1.4227
14022SOL    HW254126   0.030   3.347   4.415  2.2892  0.2635 -0.1031
14023SOL     OW54127   1.347   6.319   7.345  0.7155  0.1575 -0.0588
14023SOL    HW154128   1.250   6.309   7.370  1.0501  1.5537  1.9170
14023SOL    HW254129   1.360   6.406   7.298  1.1699  0.4545  0.6060
14024SOL     OW54130   0.373   9.503   3.892  0.3631 -0.0331  0.6051
14024SOL    HW154131   0.413   9.594   3.881 -1.6992  0.6544 -1.7847
14024SOL    HW254132   0.395   9.447   3.812 -0.8314 -0.6352  0.6801
14025SOL     OW54133   1.068   4.084   2.747 -0.1239  0.3630 -0.0543
14025SOL    HW154134   1.025   4.068   2.836 -0.5636  1.1552 -0.1259
14025SOL    HW254135   1.024   4.161   2.701  0.9505  0.7707 -0.4112
14026SOL     OW54136   3.174   6.144   4.990  0.2418  0.2056  0.0379
14026SOL    HW154137   3.222   6.111   5.071  0.2033 -0.0404 -0.0402
14026SOL    HW254138   3.080   6.168   5.014 -0.6956 -2.7431 -0.5561
14027SOL     OW54139   5.543   3.767   0.959 -0.3787  0.4795 -0.2963
14027SOL    HW154140   5.522   3.803   0.868  0.1473 -1.0484 -1.0458
14027SOL    HW254141   5.459   3.757   1.012 -0.9095 -0.3169 -1.2749
14028SOL     OW54142   1.813   5.285   6.798  0.2892 -0.0796  0.1063
14028SOL    HW154143   1.827   5.187   6.811  0.4047  0.2222  2.4665
14028SOL    HW254144   1.794   5.304   6.701  0.8089 -2.3472 -0.4609
14029SOL     OW54145   1.462   0.074   7.792 -0.3492 -0.0288  0.0284
14029SOL    HW154146   1.364   0.053   7.801 -0.0235 -0.7727  2.1819
14029SOL    HW254147   1.499   0.097   7.881  1.3019  1.0311 -0.9069
14030SOL     OW54148   4.656   5.494   3.750 -0.8751 -0.1704 -0.0966
14030SOL    HW154149   4.619   5.584   3.776 -3.2352 -0.7956 -1.1040
14030SOL    HW254150   4.679   5.495   3.653  2.3086  0.3517  0.6257
14031SOL     OW54151   1.124   5.729   7.447  0.1237  0.1063  0.5823
14031SOL    HW154152   1.168   5.810   7.485 -0.5191  0.7638 -0.0432
14031SOL    HW254153   1.039   5.710   7.496 -0.3146  0.5050 -0.0018
14032SOL     OW54154   3.270   6.459   1.092  0.2661  0.4027  0.1754
14032SOL    HW154155   3.226   6.375   1.124 -1.3669  1.1154 -0.1095
14032SOL    HW254156   3.285   6.520   1.170  2.0106 -0.3900  0.4718
14033SOL     OW54157   9.086   4.138   6.883 -0.2123  0.6933  0.2031
14033SOL    HW154158   9.015   4.189   6.931  0.2363  1.6755 -0.1514
14033SOL    HW254159   9.174   4.154   6.928  0.2460  1.7921 -1.0487
14034SOL     OW54160   7.271   6.327   9.614 -0.7111  0.1325 -0.2141
14034SOL    HW154161   7.242   6.264   9.685 -0.2868  2.7559  2.3563
14034SOL    HW254162   7.194   6.346   9.553 -1.2149 -1.7408 -0.1891
14035SOL     OW54163   8.602   5.325   4.421  0.1144  0.2459  0.3919
14035SOL    HW154164   8.675   5.393   4.408  1.3285 -0.8832  1.0929
14035SOL    HW254165   8.547   5.350   4.501  0.7887  0.2138  0.8717
14036SOL     OW54166   9.169   3.327   8.572  0.0048  0.0088  0.1953
14036SOL    HW154167   9.180   3.419   8.536  1.4010 -0.0464  0.4526
14036SOL    HW254168   9.183   3.327   8.671  2.5601 -0.8523 -0.1079
14037SOL     OW54169   2.921   6.006   6.760 -0.0397  0.1682  0.2496
14037SOL    HW154170   2.844   6.018   6.696  1.1278  1.5808 -0.9393
14037SOL    HW254171   2.898   6.049   6.848 -1.0064 -0.3159  0.2379
14038SOL     OW54172   1.818   2.759   9.118 -0.6111 -0.6670  0.2599
14038SOL    HW154173   1.866   2.754   9.205 -0.2384 -0.5202  0.0643
14038SOL    HW254174   1.881   2.732   9.044 -0.4072  0.8892 -0.1531
14039SOL     OW54175   9.405   8.992   6.037  0.0050  0.2288  0.0158
14039SOL    HW154176   9.385   9.053   5.960  1.8649  0.6407 -0.1775
14039SOL    HW254177   9.407   9.045   6.122  0.1685  0.1825  0.0420
14040SOL     OW54178   2.196   6.404   5.135  0.2510 -0.1408  0.5129
14040SOL    HW154179   2.235   6.352   5.211  0.4004  0.3129  0.7469
14040SOL    HW254180   2.181   6.498   5.163 -0.9507 -0.2903  0.4001
14041SOL     OW54181   6.814   5.241   8.140  0.0446  0.0993  0.6226
14041SOL    HW154182   6.870   5.173   8.094  1.2142  0.9338  0.7887
14041SOL    HW254183   6.860   5.330   8.136 -0.8102  0.5940  1.6096
14042SOL     OW54184   5.722   3.633   0.019 -0.1613 -0.2052  0.3541
14042SOL    HW154185   5.765   3.706   0.072  0.3084 -0.2746  0.0703
14042SOL    HW254186   5.657   3.584   0.077 -0.1449  0.1482  0.6744
14043SOL     OW54187   4.959   0.900   4.720  0.3870 -0.0349 -0.5457
14043SOL    HW154188   4.896   0.899   4.642 -0.1276 -1.4676 -0.1354
14043SOL    HW254189   5.052   0.884   4.689 -0.0096 -2.0577 -0.7291
14044SOL     OW54190   9.733   1.954   5.226  0.5898 -0.1354  0.1002
14044SOL    HW154191   9.666   1.889   5.262 -0.8366  1.0081 -0.4645
14044SOL    HW254192   9.748   1.936   5.129 -0.1659  0.6767 -0.1698
14045SOL     OW54193   6.232   8.309   1.917 -0.5007 -0.2178 -0.4415
14045SOL    HW154194   6.178   8.232   1.884  1.0292 -1.4321 -0.2095
14045SOL    HW254195   6.272   8.286   2.006  1.2831  0.1812 -1.1082
14046SOL     OW54196   9.826   8.389   2.442  0.0671  0.6742  0.4640
14046SOL    HW154197   9.768   8.361   2.519 -0.1555  0.3784  0.1945
14046SOL    HW254198   9.913   8.424   2.476  1.0444 -1.9640  0.7479
14047SOL     OW54199   2.980   5.804   2.623 -0.2815  0.4555 -0.7873
14047SOL    HW154200   3.015   5.811   2.530 -2.2123 -0.8022 -1.6462
14047SOL    HW254201   2.954   5.710   2.642 -0.4034  0.8048  0.8444
14048SOL     OW54202   0.505   1.346   1.528  0.2064  0.9885  0.1971
14048SOL    HW154203   0.578   1.295   1.573  0.8396  2.3012  0.6808
14048SOL    HW254204   0.535   1.374   1.437 -1.1291 -1.7962 -1.1555
14049SOL     OW54205   3.322   9.084   3.528 -0.3613 -0.0965 -0.0935
14049SOL    HW154206   3.266   9.152   3.481  0.3929  0.4374 -0.2200
14049SOL    HW254207   3.402   9.062   3.472  0.4351  0.3842  0.8326
14050SOL     OW54208   9.164   7.174   2.896 -0.1646 -0.1800 -0.0037
14050SOL    HW154209   9.261   7.192   2.909 -0.2790  2.8005 -2.6828
14050SOL    HW254210   9.115   7.191   2.982  1.4732 -0.2506  0.9604
14051SOL     OW54211   7.916   3.910   5.539 -0.7924 -0.2128  0.6970
14051SOL    HW154212   7.905   3.823   5.492  2.4775 -0.3434  0.0698
14051SOL    HW254213   7.898   3.985   5.475 -1.7349 -0.4177  0.7202
14052SOL     OW54214   4.129   5.409   0.695  0.1441 -0.5666 -0.0013
14052SOL    HW154215   4.102   5.474   0.624  1.6192  0.4061  0.3038
14052SOL    HW254216   4.051   5.390   0.754 -0.8294 -0.6332 -1.3000
14053SOL     OW54217   9.022   6.132   7.901  0.0207 -0.2941  0.1105
14053SOL    HW154218   8.999   6.054   7.844 -0.0195  0.0619 -0.3651
14053SOL    HW254219   8.999   6.112   7.997  1.0550 -1.2835  0.1602
14054SOL     OW54220   8.928   6.044   4.318 -0.7819  0.2184  0.1729
14054SOL    HW154221   8.873   6.010   4.394  0.9222 -2.7776  0.1049
14054SOL    HW254222   9.018   6.001   4.319 -1.2234 -1.0753 -4.4241
14055SOL     OW54223   8.922   5.491   7.678  0.1093  0.1729 -0.1568
14055SOL    HW154224   9.013   5.451   7.668 -0.7908 -1.4373 -2.3909
14055SOL    HW254225   8.865   5.430   7.733  0.0979  0.7075  0.4251
14056SOL     OW54226   0.089   0.833   1.628  0.2161  0.5050 -0.2377
14056SOL    HW154227   0.061   0.741   1.602  0.5486  0.9396 -2.2052
14056SOL    HW254228   0.091   0.892   1.547 -1.4994  2.6524  1.2142
14057SOL     OW54229   3.867   3.461   7.025 -0.2044  0.2702 -0.2597
14057SOL    HW154230   3.814   3.395   6.971 -1.8292  1.0242  0.3805
14057SOL    HW254231   3.955   3.477   6.981  0.7241 -3.1796  0.1513
14058SOL     OW54232   0.309   0.431   4.211  1.1152  0.1583 -0.3737
14058SOL    HW154233   0.382   0.444   4.278  0.4907 -0.2177  0.3813
14058SOL    HW254234   0.345   0.382   4.132  1.4549 -0.8952  0.4163
14059SOL     OW54235   3.028   5.076   5.704 -0.1521 -0.1842 -0.4515
14059SOL    HW154236   3.093   5.001   5.689 -2.7084 -1.9132 -3.4039
14059SOL    HW254237   3.008   5.084   5.802 -0.6953 -4.1267 -0.1769
14060SOL     OW54238   7.945   5.915   8.503  0.4656  0.6883  0.0692
14060SOL    HW154239   8.009   5.886   8.432  0.1283  0.6017 -0.2048
14060SOL    HW254240   7.882   5.983   8.464 -0.6979 -0.4902 -0.1367
14061SOL     OW54241   2.640   7.514   6.301  0.3795  0.4393  0.3413
14061SOL    HW154242   2.606   7.450   6.232 -1.1469  0.6176  0.9216
14061SOL    HW254243   2.728   7.551   6.271  0.7428 -1.0786 -0.5201
14062SOL     OW54244   4.526   2.930   5.675  0.0085  0.1379 -0.1942
14062SOL    HW154245   4.461   2.881   5.733 -0.2428 -1.5781 -1.8881
14062SOL    HW254246   4.476   2.993   5.615  0.2409  1.6525  1.1720
14063SOL     OW54247   1.652   8.733   0.763  0.2098  0.1941  0.4910
14063SOL    HW154248   1.734   8.780   0.730 -0.6631  2.2998  1.2052
14063SOL    HW254249   1.573   8.765   0.710 -0.3607 -0.6853  0.8093
14064SOL     OW54250   6.589   2.196   9.724  0.0525  0.0765 -0.0427
14064SOL    HW154251   6.565   2.291   9.704 -1.0083  0.2953  2.1368
14064SOL    HW254252   6.632   2.191   9.814 -0.1239 -1.5393 -0.0467
14065SOL     OW54253   1.776   9.346   6.765  0.1118  0.2400  0.6007
14065SOL    HW154254   1.804   9.278   6.832 -1.0332 -0.5784  0.2579
14065SOL    HW254255   1.855   9.372   6.709  0.5365 -0.8757  0.6735
14066SOL     OW54256   0.586   3.408   5.990 -0.4633  0.1835  0.2451
14066SOL    HW154257   0.626   3.493   5.954  0.9470 -1.4290 -2.1017
14066SOL    HW254258   0.520   3.372   5.924 -0.8378 -0.6908  1.0987
14067SOL     OW54259   9.120   7.357   8.754 -0.4342 -0.2469 -0.0646
14067SOL    HW154260   9.022   7.379   8.751 -0.5386 -0.7844 -0.8079
14067SOL    HW254261   9.173   7.441   8.762 -0.9265  0.1057 -0.4776
14068SOL     OW54262   8.152   6.817   4.865  0.0163 -0.4805 -0.6380
14068SOL    HW154263   8.222   6.883   4.893 -1.4710  1.4162 -1.3336
14068SOL    HW254264   8.196   6.743   4.814  1.9680 -1.0694  1.7851
14069SOL     OW54265   7.769   2.511   8.413  0.6425 -0.1623  0.0357
14069SOL    HW154266   7.707   2.490   8.489 -0.2047  1.2890 -0.2495
14069SOL    HW254267   7.778   2.610   8.403  1.9774 -0.3533 -0.7735
14070SOL     OW54268   0.322   5.134   7.280 -0.1018 -0.0404  0.0606
14070SOL    HW154269   0.227   5.136   7.247 -0.7887  1.6850  2.0335
14070SOL    HW254270   0.330   5.069   7.355  0.8168 -1.8253 -1.5363
14071SOL     OW54271   7.033   4.856   9.803  0.5537  0.0046  0.4725
14071SOL    HW154272   7.070   4.765   9.785 -1.3784 -1.3197  2.7756
14071SOL    HW254273   7.068   4.889   9.891 -0.4015  0.5628  0.6521
14072SOL     OW54274   0.181   5.697   2.901 -0.4479 -0.0287 -0.0567
14072SOL    HW154275   0.163   5.642   2.982 -1.5092  0.1002 -0.1931
14072SOL    HW254276   0.135   5.785   2.909 -1.5549 -0.4675 -1.2993
14073SOL     OW54277   6.672   9.067   6.207 -0.2168  0.3438 -0.2639
14073SOL    HW154278   6.722   9.152   6.195  0.4201  0.0292  0.1354
14073SOL    HW254279   6.608   9.077   6.283 -0.1899  0.4802 -0.2581
14074SOL     OW54280   1.542   2.804   2.805  0.1838 -0.0414  0.3882
14074SOL    HW154281   1.557   2.791   2.903  2.0769 -1.0628 -0.0193
14074SOL    HW254282   1.575   2.724   2.755 -1.5214  0.1203 -1.0306
14075SOL     OW54283   6.344   7.797   7.214  0.1859 -0.5533  0.2462
14075SOL    HW154284   6.420   7.846   7.173 -1.1480  1.8879  0.6053
14075SOL    HW254285   6.342   7.813   7.312 -1.4955  0.4660  0.0780
14076SOL     OW54286   2.280   9.623   8.779  0.1417 -0.1298  0.1268
14076SOL    HW154287   2.293   9.547   8.842  0.1358 -0.9355 -0.8396
14076SOL    HW254288   2.354   9.624   8.712 -0.5068 -0.0072 -0.5916
14077SOL     OW54289   8.792   9.742   4.762  0.3968  0.5144 -0.8529
14077SOL    HW154290   8.781   9.669   4.694  2.3406  2.1146 -2.9477
14077SOL    HW254291   8.874   9.795   4.741  0.6742  1.4658  2.3976
14078SOL     OW54292   6.324   1.097   1.527  0.5211  0.2568 -0.5611
14078SOL    HW154293   6.250   1.083   1.593  0.4058  1.7611 -0.3435
14078SOL    HW254294   6.408   1.122   1.575  1.1955 -1.4372 -0.8103
14079SOL     OW54295   1.446   0.163   8.057 -0.0268 -0.1334  0.4357
14079SOL    HW154296   1.388   0.135   8.133 -0.0004 -0.8907  0.1760
14079SOL    HW254297   1.527   0.210   8.092  0.3589 -1.1498  0.9156
14080SOL     OW54298   9.531   1.055   6.981  0.5863 -0.3697  0.2306
14080SOL    HW154299   9.571   0.992   7.048  0.5960 -0.9184 -0.2830
14080SOL    HW254300   9.469   1.004   6.922 -1.2439  0.5712  1.3265
14081SOL     OW54301   3.917   9.729   1.498 -0.3620  0.0947  0.3663
14081SOL    HW154302   3.976   9.795   1.453 -1.0589  0.3816 -0.1319
14081SOL    HW254303   3.833   9.717   1.445  0.2117 -1.9984 -0.1219
14082SOL     OW54304   7.875   1.539   3.347  0.0309  0.3935 -0.3213
14082SOL    HW154305   7.942   1.571   3.280 -0.2890  1.4280 -0.1483
14082SOL    HW254306   7.821   1.616   3.380 -1.1662 -0.4176 -0.3703
14083SOL     OW54307   9.071   9.754   9.908 -0.5332 -0.0834  0.5829
14083SOL    HW154308   9.075   9.654   9.900  1.8375  0.1190 -1.4835
14083SOL    HW254309   8.992   9.788   9.855 -0.5366 -0.7822  0.1291
14084SOL     OW54310   1.762   5.121   9.860  0.0796  0.2597 -0.3783
14084SOL    HW154311   1.818   5.041   9.882 -0.2892 -0.3595 -1.6222
14084SOL    HW254312   1.804   5.203   9.900  1.3681 -0.3307 -0.4817
14085SOL     OW54313   5.327   0.217   9.055 -0.5373 -0.7754  1.4148
14085SOL    HW154314   5.376   0.160   9.121 -1.1697 -2.0786  0.7788
14085SOL    HW254315   5.243   0.170   9.026 -0.6624  0.1313  0.2654
14086SOL     OW54316   9.839   1.778   9.853  0.3764  0.7601 -0.1098
14086SOL    HW154317   9.758   1.729   9.821  0.1835  1.1025 -0.1476
14086SOL    HW254318   9.817   1.875   9.867  0.9703  1.0133 -0.8604
14087SOL     OW54319   9.977   3.783   9.596 -0.1535 -0.0304 -0.4982
14087SOL    HW154320  10.012   3.873   9.571  0.4904  0.0134  0.5515
14087SOL    HW254321   9.900   3.793   9.659  0.8068 -0.2470  0.7164
14088SOL     OW54322   8.094   5.883   7.270  0.3517 -0.1953  0.0155
14088SOL    HW154323   8.150   5.880   7.353  0.9467  0.7581 -0.3534
14088SOL    HW254324   8.074   5.790   7.240  1.2726 -0.5406  0.4626
14089SOL     OW54325   0.585   2.963   9.655  0.4956 -0.4861 -0.1676
14089SOL    HW154326   0.675   2.924   9.671  0.4855  0.3855  2.1978
14089SOL    HW254327   0.583   3.057   9.690 -0.5426  0.4451 -2.5749
14090SOL     OW54328   7.441   8.738   8.380  0.3934 -0.2150 -0.9332
14090SOL    HW154329   7.469   8.716   8.474  0.8848 -1.3103 -1.3220
14090SOL    HW254330   7.517   8.718   8.318  0.3181  1.2061 -1.4874
14091SOL     OW54331   3.553   1.572   6.555  0.0307  0.0854 -0.5584
14091SOL    HW154332   3.510   1.661   6.567 -2.0912 -0.6514 -2.3906
14091SOL    HW254333   3.482   1.502   6.546  1.6438 -1.4382 -1.7482
14092SOL     OW54334   0.932   1.821   3.263  0.0889 -0.9072 -0.1603
14092SOL    HW154335   0.955   1.742   3.319  1.8149 -1.9493 -2.2309
14092SOL    HW254336   0.968   1.904   3.306 -1.5881 -1.2329  1.9351
14093SOL     OW54337   5.441   7.366   3.469  0.6562 -0.2745  0.2267
14093SOL    HW154338   5.505   7.413   3.409  1.8685 -0.4622  1.3487
14093SOL    HW254339   5.402   7.287   3.421  2.0887 -0.7862 -0.1238
14094SOL     OW54340   8.316   5.937   6.588  0.2865  0.9319 -0.0952
14094SOL    HW154341   8.220   5.911   6.600  0.5375 -0.4351 -0.9299
14094SOL    HW254342   8.365   5.928   6.675 -0.0841  0.5438  0.0719
14095SOL     OW54343   5.325   5.403   9.705 -0.0766  0.3025  0.2795
14095SOL    HW154344   5.369   5.314   9.694 -0.3012  0.4102 -1.5427
14095SOL    HW254345   5.320   5.449   9.617 -0.3705  1.9344  1.1380
14096SOL     OW54346   3.072   1.775   3.347 -0.0511  0.4194 -0.0623
14096SOL    HW154347   3.131   1.854   3.329  1.1812 -0.3633  0.4123
14096SOL    HW254348   3.059   1.723   3.263  0.5257  0.2082 -0.0236
14097SOL     OW54349   2.134   0.381   7.276 -0.3206  0.4535  0.3872
14097SOL    HW154350   2.146   0.465   7.330 -1.8595  1.0374 -0.1569
14097SOL    HW254351   2.116   0.304   7.337 -0.1842  0.7540  0.8086
14098SOL     OW54352   6.599   3.985   9.258 -0.2267 -0.4211  0.5648
14098SOL    HW154353   6.556   3.918   9.198 -3.5964  2.0238  0.1348
14098SOL    HW254354   6.536   4.009   9.332  0.6610  2.6704  0.3926
14099SOL     OW54355   7.630   0.515   0.471 -0.2730  0.1406  0.2920
14099SOL    HW154356   7.548   0.474   0.432 -0.7421  0.3057  1.1011
14099SOL    HW254357   7.611   0.546   0.564  0.4098  1.1120  0.1201
14100SOL     OW54358   5.875   4.290   2.169  0.8189  0.4227  0.0648
14100SOL    HW154359   5.846   4.313   2.262 -0.3719  1.3851 -0.5202
14100SOL    HW254360   5.956   4.231   2.173 -0.5738 -1.4617  1.7537
14101SOL     OW54361   9.098   6.198   2.749 -0.2448  0.3363 -0.9293
14101SOL    HW154362   9.122   6.106   2.720  1.4703  1.1997 -2.3447
14101SOL    HW254363   9.010   6.224   2.709 -0.6430 -0.6086 -0.6797
14102SOL     OW54364   2.430   2.500   5.107  0.2677  0.1653 -0.1262
14102SOL    HW154365   2.483   2.464   5.184 -0.8786  0.4544  0.8067
14102SOL    HW254366   2.384   2.584   5.134 -0.1105  0.2883 -1.1383
14103SOL     OW54367   8.539   1.717   8.347 -0.1655 -0.2724 -0.4197
14103SOL    HW154368   8.568   1.809   8.319 -0.1441  0.0710  0.7191
14103SOL    HW254369   8.440   1.709   8.339 -0.6474  1.1767  3.2208
14104SOL     OW54370   0.924   6.768   4.688 -0.1176  0.5060 -0.0023
14104SOL    HW154371   0.842   6.732   4.733 -0.1844  0.6764  0.0131
14104SOL    HW254372   0.999   6.770   4.754 -0.6776  2.3939  0.5856
14105SOL     OW54373   9.014   4.567   3.948  0.0549  0.8324 -0.4013
14105SOL    HW154374   9.104   4.525   3.948 -1.0218 -1.6737  2.1928
14105SOL    HW254375   9.013   4.644   4.012 -0.0563 -0.2126  0.8872
14106SOL     OW54376   8.449   7.056   5.895  0.3789 -0.1736  0.0307
14106SOL    HW154377   8.539   7.016   5.880  0.4734 -0.6054  1.6533
14106SOL    HW254378   8.390   6.989   5.941 -0.3561  0.5589  0.1745
14107SOL     OW54379   2.953   9.656   1.005  0.5418 -0.1386 -0.4224
14107SOL    HW154380   2.860   9.692   1.010  0.4419  0.2454 -3.7756
14107SOL    HW254381   2.950   9.556   1.012  0.2806  0.0483  3.0880
14108SOL     OW54382   3.234   4.755   9.933  0.1084  0.1762 -0.0355
14108SOL    HW154383   3.195   4.668   9.964  0.2654  0.0223 -0.2650
14108SOL    HW254384   3.322   4.770   9.979  0.8941 -0.6109 -1.2473
14109SOL     OW54385   1.876   3.834   6.706  0.1231  0.2338 -0.6743
14109SOL    HW154386   1.975   3.844   6.719  0.1959  0.3715 -1.3268
14109SOL    HW254387   1.859   3.761   6.640 -0.2364 -0.3104  0.0164
14110SOL     OW54388   0.299   7.754   5.641 -0.2340  0.9020 -0.1102
14110SOL    HW154389   0.351   7.765   5.726  0.9318  0.8038 -0.8006
14110SOL    HW254390   0.347   7.691   5.580 -1.1805  0.7915 -0.7563
14111SOL     OW54391   9.544   4.497   2.185  0.1917 -0.5315 -0.2793
14111SOL    HW154392   9.468   4.501   2.250 -0.7008 -1.9888 -1.2008
14111SOL    HW254393   9.518   4.544   2.101  1.0430  0.6596  0.1296
14112SOL     OW54394   2.887   5.446   7.413  0.0921 -0.2723 -0.0071
14112SOL    HW154395   2.908   5.477   7.506 -0.8593  0.4986 -0.0413
14112SOL    HW254396   2.889   5.346   7.410 -2.0139 -0.3924  1.3661
14113SOL     OW54397   6.540   8.118   6.005  0.3849 -0.0621 -0.1526
14113SOL    HW154398   6.551   8.199   5.947 -0.5921  0.0941 -0.1322
14113SOL    HW254399   6.469   8.059   5.965  0.1525 -0.2573  0.5485
14114SOL     OW54400   6.115   9.485   7.706 -0.0906 -0.1917  0.2051
14114SOL    HW154401   6.210   9.515   7.718  0.0452 -0.5480  0.0319
14114SOL    HW254402   6.106   9.391   7.739 -0.2606 -0.3459 -0.2764
14115SOL     OW54403   2.096   5.319   9.576 -0.0822 -0.1911 -0.1202
14115SOL    HW154404   2.142   5.322   9.665 -0.5349 -1.0947  0.1476
14115SOL    HW254405   2.016   5.379   9.577  0.4021  0.4535 -0.1936
14116SOL     OW54406   3.681   1.014   2.891  0.6150 -0.2027 -0.3085
14116SOL    HW154407   3.632   1.003   2.977  0.2782 -0.2978 -0.5110
14116SOL    HW254408   3.621   0.986   2.815  0.5718  0.7784 -0.6454
14117SOL     OW54409   8.910   3.793   5.317  0.7273 -0.2387 -0.3263
14117SOL    HW154410   8.996   3.747   5.342  1.8181  1.6352 -0.5339
14117SOL    HW254411   8.914   3.888   5.345 -0.5330  0.3460 -2.0597
14118SOL     OW54412   2.940   0.403   6.790 -0.2946 -0.7640 -0.7907
14118SOL    HW154413   2.972   0.309   6.779  0.3652 -1.0170  2.8419
14118SOL    HW254414   3.017   0.466   6.782  0.0416 -0.8871  1.3502
14119SOL     OW54415   2.590   1.432   0.182 -0.1156 -0.1731  0.0839
14119SOL    HW154416   2.619   1.363   0.115  0.9629  0.2293  0.1253
14119SOL    HW254417   2.559   1.514   0.134  0.1347 -0.0886  0.0669
14120SOL     OW54418   4.084   4.898   4.556  0.0906  0.1622 -0.2339
14120SOL    HW154419   4.153   4.851   4.501 -1.4664 -0.0815 -2.0457
14120SOL    HW254420   4.125   4.976   4.602  1.2169  1.0565 -2.6669
14121SOL     OW54421   0.163   9.216   0.790 -0.1414  0.2925 -0.1644
14121SOL    HW154422   0.101   9.294   0.797 -0.6687 -0.0980 -0.3756
14121SOL    HW254423   0.249   9.245   0.748 -0.4174  0.7152 -0.4498
14122SOL     OW54424   2.391   1.274   6.726  0.1141 -0.3835 -0.7899
14122SOL    HW154425   2.297   1.281   6.760  0.2843  1.6517 -0.7248
14122SOL    HW254426   2.447   1.347   6.764  1.6601 -1.3689 -1.1122
14123SOL     OW54427   4.683   2.478   0.464  0.2884  0.2801 -0.4233
14123SOL    HW154428   4.628   2.556   0.433 -1.3380 -1.0058 -0.8769
14123SOL    HW254429   4.764   2.511   0.511 -2.3464  2.3149  2.9676
14124SOL     OW54430   7.640   9.306   5.400  0.4210 -0.3505  0.1310
14124SOL    HW154431   7.578   9.252   5.458  1.8280 -0.1151  1.9028
14124SOL    HW254432   7.591   9.385   5.364 -0.8229 -1.1748 -0.0099
14125SOL     OW54433   3.560   0.304   3.149  0.3441  0.3328  0.3462
14125SOL    HW154434   3.573   0.338   3.242  1.8253 -0.7789  0.5597
14125SOL    HW254435   3.595   0.211   3.142 -0.2535  0.2067 -1.1898
14126SOL     OW54436   9.708   0.259   2.441  0.2366 -0.0919 -0.2726
14126SOL    HW154437   9.756   0.347   2.441 -1.7594  1.0287  0.3850
14126SOL    HW254438   9.690   0.232   2.536  0.2970 -0.9042 -0.4941
14127SOL     OW54439   0.461   6.227   4.665  0.3688  0.2079 -0.3012
14127SOL    HW154440   0.384   6.265   4.612  0.0831 -1.2134 -0.9414
14127SOL    HW254441   0.503   6.153   4.613 -0.6546 -2.0185  1.9471
14128SOL     OW54442   6.702   5.523   1.353  0.2995 -0.2704  0.0176
14128SOL    HW154443   6.651   5.598   1.309 -0.4275  0.7225  2.4557
14128SOL    HW254444   6.749   5.470   1.283 -2.3798  0.0632 -2.1502
14129SOL     OW54445   2.622   4.738   7.324 -0.2536 -0.0964 -0.2733
14129SOL    HW154446   2.633   4.648   7.366 -0.9507  0.5713  1.3913
14129SOL    HW254447   2.710   4.784   7.321 -0.2020 -0.1274  0.5416
14130SOL     OW54448   4.445   0.208   1.555 -0.4456  0.2295 -0.2177
14130SOL    HW154449   4.358   0.256   1.567  0.0778  0.9998  0.5951
14130SOL    HW254450   4.463   0.151   1.635  0.2621  0.8382  0.0618
14131SOL     OW54451   4.401   3.587   1.226  0.1862 -0.1257 -0.6157
14131SOL    HW154452   4.401   3.676   1.182  1.2646 -1.0888 -2.6283
14131SOL    HW254453   4.328   3.530   1.187  2.2186 -1.5608 -2.4210
14132SOL     OW54454   5.171   5.816   8.753 -0.1068 -0.2732 -0.7734
14132SOL    HW154455   5.187   5.903   8.799  0.4334 -1.7817  1.9938
14132SOL    HW254456   5.125   5.753   8.816 -3.3467 -1.0137 -3.7176
14133SOL     OW54457   3.011   4.888   5.084  0.1933 -0.4679 -0.0547
14133SOL    HW154458   2.983   4.961   5.147 -0.3579 -0.6750 -0.0615
14133SOL    HW254459   2.930   4.848   5.042  0.3451 -2.6220  1.6405
14134SOL     OW54460   2.693   2.632   4.416 -0.2442 -0.1847  0.0045
14134SOL    HW154461   2.658   2.725   4.414 -2.7697 -1.0637  1.3666
14134SOL    HW254462   2.710   2.606   4.511  1.7778 -0.6494 -0.4657
14135SOL     OW54463   7.228   7.730   2.221 -0.1604  0.0672  0.0678
14135SOL    HW154464   7.269   7.640   2.207 -3.3394 -1.5457  0.6380
14135SOL    HW254465   7.300   7.797   2.240  2.4468 -1.9022 -2.4305
14136SOL     OW54466   3.309   9.378   4.970  0.5929  0.0715  0.7519
14136SOL    HW154467   3.296   9.368   5.069  0.6552  0.2159  0.7737
14136SOL    HW254468   3.287   9.291   4.925  1.3094 -0.2181  0.9636
14137SOL     OW54469   8.353   4.649   0.448  0.1850  0.0819  0.1195
14137SOL    HW154470   8.407   4.704   0.512 -0.3178  0.6390  0.0756
14137SOL    HW254471   8.412   4.582   0.403  0.9417  1.0218 -0.3020
14138SOL     OW54472   2.344   2.045   7.698  0.0467  0.6094  0.3277
14138SOL    HW154473   2.299   2.126   7.737  0.0703  0.5740  0.4273
14138SOL    HW254474   2.274   1.979   7.671  0.0788  0.0202  1.6331
14139SOL     OW54475   8.172   3.329   8.105 -0.0916 -0.3464  0.3396
14139SOL    HW154476   8.099   3.275   8.063 -1.0658  2.3690 -1.6456
14139SOL    HW254477   8.261   3.297   8.072 -0.6633 -0.7120 -0.8619
14140SOL     OW54478   0.314   7.143   7.711  0.1193  0.2364  0.6449
14140SOL    HW154479   0.383   7.158   7.781 -1.3293  0.4998  2.0364
14140SOL    HW254480   0.312   7.221   7.648 -0.1048  1.0086  1.6142
14141SOL     OW54481   4.077   4.667   5.002  0.3719  0.0172 -0.1334
14141SOL    HW154482   4.077   4.767   4.997  0.2660 -0.0463 -1.5029
14141SOL    HW254483   4.044   4.629   4.916 -2.0258 -1.1677  1.2591
14142SOL     OW54484   3.752   9.351   3.489 -0.5135 -0.1837 -0.1531
14142SOL    HW154485   3.787   9.426   3.546  0.6062  1.1793 -2.5644
14142SOL    HW254486   3.653   9.359   3.481 -0.5497  0.2719  0.6462
14143SOL     OW54487   0.702   7.241   6.404 -0.1501  0.1063  0.2387
14143SOL    HW154488   0.657   7.167   6.453  0.5314 -0.1603  0.4631
14143SOL    HW254489   0.739   7.207   6.318 -0.5834  0.3831 -0.0661
14144SOL     OW54490   0.771   4.401   7.749  0.0339 -0.2753 -0.4088
14144SOL    HW154491   0.819   4.337   7.690  0.8870  0.4971 -0.5695
14144SOL    HW254492   0.685   4.429   7.706  1.3550  1.4559 -2.0254
14145SOL     OW54493   6.901   8.105   7.557 -0.2428  0.7406 -0.1067
14145SOL    HW154494   6.927   8.190   7.602  0.7417  1.1775 -1.4742
14145SOL    HW254495   6.807   8.113   7.522 -0.5806  0.8256  0.8248
14146SOL     OW54496   1.247   9.427   7.508  1.0145 -0.0973  0.5138
14146SOL    HW154497   1.254   9.515   7.461  0.6292 -0.0423  0.5543
14146SOL    HW254498   1.189   9.365   7.455  1.4774 -0.4095  0.3656
14147SOL     OW54499   0.469   4.375   5.227  0.0259  0.9613  0.3003
14147SOL    HW154500   0.383   4.380   5.176 -0.0628 -0.4573  0.2919
14147SOL    HW254501   0.531   4.311   5.182  0.1574  0.1318  1.6402
14148SOL     OW54502   1.621   0.371   3.226  0.0287 -0.6325 -0.0635
14148SOL    HW154503   1.674   0.456   3.221  0.3007 -0.5846  2.7804
14148SOL    HW254504   1.680   0.297   3.258 -0.6868 -1.4720 -0.6546
14149SOL     OW54505   6.594   0.536   5.280 -0.0696  0.1718  0.0638
14149SOL    HW154506   6.553   0.506   5.194  0.2528  1.1578 -0.4436
14149SOL    HW254507   6.578   0.634   5.291 -1.5750 -0.2621  1.9401
14150SOL     OW54508   3.146   3.986   3.856 -0.2200 -0.4978  0.0476
14150SOL    HW154509   3.067   3.947   3.808 -0.6228 -2.8228  2.5095
14150SOL    HW254510   3.126   4.080   3.880 -2.1083 -0.9259  0.2829
14151SOL     OW54511   4.176   4.962   5.312 -0.3800 -0.4199  0.1667
14151SOL    HW154512   4.229   4.886   5.351 -1.0180 -0.6713  0.5568
14151SOL    HW254513   4.083   4.959   5.349 -0.5666  0.2172 -0.2581
14152SOL     OW54514   2.683   5.990   5.999 -0.3486  0.2968  0.4607
14152SOL    HW154515   2.740   5.965   6.077  0.1096 -1.0012 -0.2668
14152SOL    HW254516   2.696   5.923   5.926 -1.8563  0.6832 -0.1821
14153SOL     OW54517   0.159   9.474   0.058  0.0916 -0.3056  0.0695
14153SOL    HW154518   0.102   9.433   0.129  1.6880 -2.0811  0.3713
14153SOL    HW254519   0.102   9.528  -0.004 -1.6590 -0.6940  1.3045
14154SOL     OW54520   3.123   2.548   1.786 -0.0485  0.1833  0.2966
14154SOL    HW154521   3.172   2.464   1.810  1.4982  1.1699  0.6599
14154SOL    HW254522   3.099   2.597   1.870  1.0645  1.2253  0.0167
14155SOL     OW54523   1.686   9.995   5.936 -0.6362 -0.2433 -0.1020
14155SOL    HW154524   1.745   9.915   5.940 -2.8376 -1.9740 -1.2449
14155SOL    HW254525   1.700  10.042   5.848 -2.1707 -1.6285 -1.1034
14156SOL     OW54526   8.377   0.653   2.024  0.2927 -0.1648 -0.1392
14156SOL    HW154527   8.422   0.710   1.956 -1.0811  0.5141 -0.4985
14156SOL    HW254528   8.308   0.706   2.073  0.0972 -1.0934  0.6202
14157SOL     OW54529   2.782   6.513   4.015  0.0850 -0.0531 -0.2331
14157SOL    HW154530   2.783   6.575   3.937 -2.8511 -1.3456 -1.3531
14157SOL    HW254531   2.832   6.429   3.992 -1.0458 -0.5630 -0.8530
14158SOL     OW54532   4.193   7.551   5.345  0.0286 -0.3189  0.2779
14158SOL    HW154533   4.247   7.564   5.428  0.9745  0.6534 -0.4866
14158SOL    HW254534   4.253   7.533   5.267 -0.8432 -1.0426 -0.2419
14159SOL     OW54535   2.675   8.399   5.502 -0.4456  0.0994 -0.0855
14159SOL    HW154536   2.735   8.329   5.541 -0.4627  0.8961  1.3751
14159SOL    HW254537   2.719   8.441   5.423  1.1249  0.9998  1.2452
14160SOL     OW54538   4.390   1.654   8.636 -0.2418  0.5413 -0.2581
14160SOL    HW154539   4.338   1.577   8.671  1.8316 -0.9951 -0.4440
14160SOL    HW254540   4.329   1.718   8.590 -2.0152 -0.9153  0.0348
14161SOL     OW54541   4.092   1.935   7.680 -0.0023  0.8201  0.0865
14161SOL    HW154542   4.019   1.870   7.700 -0.1730  0.8488 -0.4448
14161SOL    HW254543   4.096   2.004   7.752  0.2355  0.1773  0.6952
14162SOL     OW54544   0.997   9.346   1.893  0.1841  0.1655 -0.3673
14162SOL    HW154545   0.925   9.280   1.915  0.1661  0.2326 -0.2213
14162SOL    HW254546   1.062   9.305   1.830  0.2957 -0.0672 -0.1002
14163SOL     OW54547   5.341   0.938   6.128 -0.0075 -0.5203  0.3992
14163SOL    HW154548   5.361   1.035   6.139  0.0903 -0.3062 -1.5122
14163SOL    HW254549   5.375   0.907   6.038 -2.2066 -1.7333 -0.0370
14164SOL     OW54550   9.853   2.016   0.680 -0.0220  0.0926  0.1630
14164SOL    HW154551   9.842   1.999   0.582  0.2754 -0.5408  0.2357
14164SOL    HW254552   9.764   2.012   0.725 -0.1271  0.1142 -0.0443
14165SOL     OW54553   4.099   0.556   5.252  0.1958  0.5601 -0.1003
14165SOL    HW154554   4.007   0.517   5.252  0.7418 -0.7493  1.5552
14165SOL    HW254555   4.160   0.496   5.200  0.5618  0.3201  0.5984
14166SOL     OW54556   7.600   3.268   1.683 -0.1025 -0.2227 -0.1401
14166SOL    HW154557   7.520   3.209   1.696  0.1722 -0.3360  1.1252
14166SOL    HW254558   7.683   3.213   1.694  0.1585  0.4693  1.4740
14167SOL     OW54559   2.798   3.587   2.592  0.7096 -0.0192 -0.4128
14167SOL    HW154560   2.816   3.648   2.669  1.4446 -0.5077 -0.1894
14167SOL    HW254561   2.833   3.628   2.508  1.5996 -0.3136 -0.1984
14168SOL     OW54562   2.674   5.224   4.721  0.4572  0.3946 -0.0708
14168SOL    HW154563   2.641   5.291   4.787 -1.4729 -0.6434  0.0501
14168SOL    HW254564   2.698   5.269   4.636 -1.3113  1.1902 -0.1645
14169SOL     OW54565   2.440   1.479   1.639 -0.0869 -0.3898  0.1396
14169SOL    HW154566   2.486   1.407   1.587  0.6012  0.2505 -0.1521
14169SOL    HW254567   2.497   1.504   1.718 -1.1991 -1.4725  1.3083
14170SOL     OW54568   2.264   2.345   3.460 -0.2565  0.2721 -0.3880
14170SOL    HW154569   2.340   2.409   3.456  0.8618 -1.0142 -0.0962
14170SOL    HW254570   2.261   2.290   3.376  0.1278 -0.7777  0.2716
14171SOL     OW54571   8.865   9.842   9.216 -0.4473  0.0525 -0.1785
14171SOL    HW154572   8.848   9.745   9.234  0.6805 -0.1017  0.0982
14171SOL    HW254573   8.797   9.897   9.263  1.3859 -0.4237  3.1453
14172SOL     OW54574   1.935   8.518   8.009 -0.2825 -0.3876 -0.4624
14172SOL    HW154575   1.953   8.615   7.993  0.7583 -0.5620 -0.3400
14172SOL    HW254576   1.941   8.468   7.922  0.4238 -0.5448 -0.3185
14173SOL     OW54577   9.488   4.514   0.732 -0.1084 -0.2263 -0.6997
14173SOL    HW154578   9.473   4.449   0.658 -0.0746  1.4301 -2.2057
14173SOL    HW254579   9.565   4.483   0.789 -0.8005 -2.0423 -0.7176
14174SOL     OW54580   8.990   8.145   6.491 -0.2335 -0.1681 -0.4859
14174SOL    HW154581   9.002   8.046   6.482 -1.4283 -0.2455 -1.3368
14174SOL    HW254582   8.919   8.176   6.428 -0.0553  1.1996 -0.0368
14175SOL     OW54583   9.131   4.021   8.011 -0.5462  0.1281  0.0561
14175SOL    HW154584   9.127   4.077   7.929 -0.6129  0.6023  0.3809
14175SOL    HW254585   9.222   3.981   8.020 -0.2193  0.9331  0.3181
14176SOL     OW54586   5.239   4.334   7.037 -0.1074 -0.0043 -0.3960
14176SOL    HW154587   5.313   4.380   6.989  0.9173 -1.5692 -0.3366
14176SOL    HW254588   5.151   4.358   6.995  0.5502  0.7234 -1.3586
14177SOL     OW54589   6.410   4.551   2.384 -0.0489 -0.6513  0.0912
14177SOL    HW154590   6.364   4.501   2.457  0.9451  1.7584  2.4403
14177SOL    HW254591   6.509   4.548   2.399  0.1513  0.0380 -1.0590
14178SOL     OW54592   1.757   1.089   6.066  0.3742 -0.0229  0.0629
14178SOL    HW154593   1.689   1.058   6.131 -0.3607 -0.0616 -0.7136
14178SOL    HW254594   1.803   1.010   6.025 -1.1310 -0.1066 -1.5276
14179SOL     OW54595   7.215   1.649   0.889 -0.0310  0.1075  0.0370
14179SOL    HW154596   7.214   1.716   0.815  0.4562 -1.0768 -1.0530
14179SOL    HW254597   7.256   1.691   0.970 -0.0005  1.2223 -0.5402
14180SOL     OW54598   3.227   6.935   5.294  0.1871  0.3201 -0.8108
14180SOL    HW154599   3.212   7.016   5.237 -1.0466  1.3750  0.9872
14180SOL    HW254600   3.140   6.889   5.309  0.5347 -0.0268  0.1189
14181SOL     OW54601   3.824   6.975   4.308  0.2783  0.3737 -0.1769
14181SOL    HW154602   3.923   6.958   4.301  0.4376  1.2505 -0.0301
14181SOL    HW254603   3.792   7.022   4.226 -0.1949 -0.7110 -0.6321
14182SOL     OW54604   3.528   0.970   3.123 -0.7894 -0.1438  0.0236
14182SOL    HW154605   3.548   1.014   3.210  0.9422 -0.9022  0.0202
14182SOL    HW254606   3.438   0.927   3.127 -0.4620 -0.6957  1.6377
14183SOL     OW54607   2.310   0.569   5.657 -0.2103  0.0236 -0.2152
14183SOL    HW154608   2.280   0.475   5.673 -1.0529  0.2197 -0.5952
14183SOL    HW254609   2.307   0.588   5.559  1.0933  0.0782 -0.2486
14184SOL     OW54610   0.006   6.059   5.225 -0.1829 -0.2748  0.6291
14184SOL    HW154611   0.010   5.978   5.284  1.3824  1.4565  2.9375
14184SOL    HW254612   0.099   6.089   5.203 -0.7495  0.9684 -0.1352
14185SOL     OW54613   8.868   0.429   6.289  0.2822  0.1787  0.6284
14185SOL    HW154614   8.925   0.454   6.211 -0.0038 -2.3182 -0.4218
14185SOL    HW254615   8.783   0.387   6.257 -0.7756  1.0085  2.2471
14186SOL     OW54616   3.316   3.040   5.461  0.0300  0.0443  0.0755
14186SOL    HW154617   3.394   2.988   5.425 -1.6797 -1.7905 -1.0770
14186SOL    HW254618   3.294   3.114   5.398 -0.3911 -0.6575 -0.6111
14187SOL     OW54619   2.210   7.711   6.873  0.1627 -0.5940 -0.0279
14187SOL    HW154620   2.220   7.805   6.904  1.1105 -0.4147 -0.8661
14187SOL    HW254621   2.115   7.695   6.844 -0.1864 -0.1369  0.8618
14188SOL     OW54622   8.560   2.504   6.458 -0.1296  0.5126  0.2858
14188SOL    HW154623   8.655   2.497   6.427 -0.4057  3.8788 -1.5593
14188SOL    HW254624   8.552   2.577   6.526 -1.6108  1.2750 -0.6823
14189SOL     OW54625   6.949   9.157   4.300 -0.2594 -0.1382 -0.4732
14189SOL    HW154626   7.004   9.163   4.383 -0.8410  1.8823 -0.2201
14189SOL    HW254627   6.852   9.164   4.322 -0.4235  0.3045 -1.3096
14190SOL     OW54628   9.448   1.490   1.889  0.2828  0.4886  0.2033
14190SOL    HW154629   9.473   1.427   1.963 -1.6207 -0.8061 -0.1959
14190SOL    HW254630   9.493   1.462   1.804 -1.5004 -1.1328 -0.2525
14191SOL     OW54631   0.976   0.601   5.348 -0.3141 -0.0855 -0.2869
14191SOL    HW154632   0.893   0.648   5.378 -0.9317 -1.6160  0.4538
14191SOL    HW254633   1.055   0.639   5.396 -1.1468 -1.7196  2.4747
14192SOL     OW54634   3.961   3.604   3.371 -0.4970  1.1011 -0.2181
14192SOL    HW154635   3.863   3.626   3.372 -0.4912  1.1249 -0.1099
14192SOL    HW254636   3.999   3.621   3.462 -0.1441  2.1700 -0.5726
14193SOL     OW54637   5.146   7.697   1.573 -0.4672 -0.0492  0.2399
14193SOL    HW154638   5.189   7.673   1.660  0.0295 -1.2337 -0.3259
14193SOL    HW254639   5.132   7.615   1.519  0.3438  0.8158 -1.3146
14194SOL     OW54640   4.293   8.928   7.203  0.6074  0.1461  0.0543
14194SOL    HW154641   4.346   8.845   7.188 -1.7477 -1.0502 -1.9631
14194SOL    HW254642   4.207   8.905   7.248  1.1032  1.8628  1.9435
14195SOL     OW54643   0.177   4.274   8.784  0.6028 -0.0716  0.3605
14195SOL    HW154644   0.172   4.254   8.687 -1.1415  0.0569  0.4214
14195SOL    HW254645   0.220   4.363   8.798  2.1347 -0.6991 -0.2053
14196SOL     OW54646   1.414   6.491   4.296 -0.1386 -0.3728 -0.3076
14196SOL    HW154647   1.446   6.401   4.328 -0.7084 -0.1739  0.8774
14196SOL    HW254648   1.487   6.558   4.309  0.7618 -0.9016 -2.4356
14197SOL     OW54649   2.553   2.306   1.361 -0.0832  0.4792 -0.0146
14197SOL    HW154650   2.503   2.366   1.300  0.2961 -0.0963 -0.8962
14197SOL    HW254651   2.523   2.211   1.347 -0.4303  0.4099  1.1159
14198SOL     OW54652   2.953   1.653   5.555  0.1498 -0.9945  0.0327
14198SOL    HW154653   3.026   1.603   5.509 -0.2902 -2.2784  0.7142
14198SOL    HW254654   2.988   1.742   5.584  0.9750 -0.9440 -1.0748
14199SOL     OW54655   9.224   9.066   1.299 -0.1544  0.0073  0.2061
14199SOL    HW154656   9.218   9.143   1.363 -0.0138  0.2198 -0.0315
14199SOL    HW254657   9.282   8.995   1.338 -0.4602 -0.0684  0.5192
14200SOL     OW54658   5.042   1.211   0.382  0.1634 -0.4728 -0.3022
14200SOL    HW154659   4.961   1.269   0.388  0.2851 -0.5175  2.2695
14200SOL    HW254660   5.014   1.116   0.364 -0.3224 -0.3909  0.0210
14201SOL     OW54661   3.022   5.118   8.261 -0.1624 -0.4225 -0.2959
14201SOL    HW154662   3.002   5.090   8.354 -0.0502 -0.0652 -0.1655
14201SOL    HW254663   3.110   5.166   8.259  0.1209 -0.9554 -0.6757
14202SOL     OW54664   7.924   6.418   9.615  0.0328  0.0748  0.0480
14202SOL    HW154665   7.932   6.398   9.712 -1.0620 -1.2698 -0.1234
14202SOL    HW254666   7.834   6.456   9.595  0.1942  0.2060 -0.4584
14203SOL     OW54667   0.758   2.568   3.693 -0.2291  0.6436  0.2987
14203SOL    HW154668   0.824   2.508   3.648 -0.3033  1.6669 -1.2010
14203SOL    HW254669   0.673   2.518   3.708  0.0970  0.0224  0.1182
14204SOL     OW54670   5.774   1.801   0.338  0.6622 -0.1260 -0.2323
14204SOL    HW154671   5.786   1.789   0.239  0.8510  1.1335 -0.3721
14204SOL    HW254672   5.677   1.813   0.358  0.6117 -0.5014 -0.2561
14205SOL     OW54673   5.609   1.990   8.634  0.0138  0.2007 -0.0365
14205SOL    HW154674   5.621   2.060   8.564  0.0360 -0.7746 -1.0178
14205SOL    HW254675   5.695   1.941   8.648 -0.2612 -0.2960 -0.0780
14206SOL     OW54676   3.278   5.280   8.769  0.1728 -0.5752  0.2531
14206SOL    HW154677   3.229   5.200   8.732  0.8087 -0.9818  0.2927
14206SOL    HW254678   3.211   5.346   8.804 -0.3705 -0.9271 -0.1138
14207SOL     OW54679   2.817   6.122   2.564 -0.1677 -0.0804 -0.2599
14207SOL    HW154680   2.796   6.205   2.616  3.1327  0.0827  0.9687
14207SOL    HW254681   2.901   6.136   2.512 -1.1023 -1.7307 -2.2591
14208SOL     OW54682   3.019   9.978   9.104  0.4100  0.4394 -0.0672
14208SOL    HW154683   2.942   9.988   9.167 -0.7968 -0.1513 -1.4466
14208SOL    HW254684   3.084  10.054   9.119 -0.7959  1.3562  0.5863
14209SOL     OW54685   9.101   3.889   9.862 -0.6729  0.2865 -0.1192
14209SOL    HW154686   9.201   3.886   9.861 -0.7257 -1.9324  0.4609
14209SOL    HW254687   9.068   3.890   9.767 -0.1734 -3.3534 -0.4099
14210SOL     OW54688   3.312   5.250   2.852  0.2016 -0.3256  0.0924
14210SOL    HW154689   3.329   5.297   2.766  0.3611 -0.3842  0.0920
14210SOL    HW254690   3.215   5.227   2.859 -0.0636  0.8767  0.5375
14211SOL     OW54691   1.877   7.709   6.245 -0.6831  0.2699  0.0605
14211SOL    HW154692   1.969   7.730   6.213 -1.2552  0.7731 -1.3031
14211SOL    HW254693   1.862   7.751   6.335  0.4824 -0.0149  0.4023
14212SOL     OW54694   9.612   5.602   3.632 -0.0295  0.3811  0.7624
14212SOL    HW154695   9.613   5.587   3.533  1.1872  1.1049  0.6475
14212SOL    HW254696   9.649   5.521   3.678  3.1004  1.5109  0.3636
14213SOL     OW54697   2.326   9.159   2.402 -0.4918  0.5484  0.1924
14213SOL    HW154698   2.300   9.229   2.335 -1.2536  0.8591  0.8119
14213SOL    HW254699   2.391   9.096   2.360 -0.7496  0.9048 -0.7534
14214SOL     OW54700   8.318   5.007   2.678  0.4512 -0.1269  0.2776
14214SOL    HW154701   8.411   5.016   2.713  0.3949  1.2255  0.1003
14214SOL    HW254702   8.318   5.026   2.580 -0.0061 -0.1858  0.2666
14215SOL     OW54703   9.505   3.242   8.448  0.2413  0.2325  0.4046
14215SOL    HW154704   9.488   3.254   8.351 -0.5727 -2.0836  0.2213
14215SOL    HW254705   9.443   3.173   8.485  1.2143  0.3427  2.3508
14216SOL     OW54706   1.784   7.702   6.647  0.3551 -0.4960 -0.6985
14216SOL    HW154707   1.815   7.730   6.738 -0.2250 -2.3347  0.0860
14216SOL    HW254708   1.719   7.769   6.612 -0.1086 -0.2312  0.6250
14217SOL     OW54709   3.851   9.628   2.745  0.6881  0.5654 -0.0029
14217SOL    HW154710   3.822   9.700   2.682  0.7363 -0.1157 -0.8151
14217SOL    HW254711   3.877   9.547   2.693  1.2595  0.1785  0.8695
14218SOL     OW54712   3.892   4.077   6.679 -0.1259 -0.6730  0.5921
14218SOL    HW154713   3.869   4.062   6.776 -0.2253  0.7729  0.7935
14218SOL    HW254714   3.900   4.175   6.661  0.7045 -0.9633 -0.6872
14219SOL     OW54715   8.635   6.555   7.415  0.1229  0.4114  0.5369
14219SOL    HW154716   8.553   6.506   7.447  1.1405 -0.8704  1.2327
14219SOL    HW254717   8.655   6.630   7.478 -1.0869  1.3740 -0.1928
14220SOL     OW54718   2.973   3.163   0.326  0.4774 -0.1870  0.5951
14220SOL    HW154719   2.900   3.227   0.301  0.2992 -0.7311 -0.2953
14220SOL    HW254720   3.012   3.123   0.243  2.2978  0.6475  1.0186
14221SOL     OW54721   1.272   5.091   0.080 -0.6218  0.0480  0.9706
14221SOL    HW154722   1.244   5.146   0.002 -1.9176 -1.5701  0.2971
14221SOL    HW254723   1.314   5.006   0.049  0.6493  0.2518  2.0284
14222SOL     OW54724   5.466   9.991   7.001 -0.4785 -0.1904  0.0296
14222SOL    HW154725   5.382  10.040   7.025  0.2513  0.5579  1.0865
14222SOL    HW254726   5.495   9.935   7.079  0.6774  0.5142  0.1177
14223SOL     OW54727   4.498   1.255   4.750 -0.3253 -0.0651  0.1759
14223SOL    HW154728   4.580   1.217   4.793 -0.5428 -0.1396  0.5338
14223SOL    HW254729   4.509   1.354   4.742 -0.6268  0.0580  1.1899
14224SOL     OW54730   8.119   0.181   1.145 -0.4895  0.0112  0.8010
14224SOL    HW154731   8.072   0.145   1.064  0.4016 -0.2341  0.3920
14224SOL    HW254732   8.088   0.274   1.162  0.7330  0.7788 -0.9791
14225SOL     OW54733   3.705   7.705   4.564 -0.0318  0.7508 -0.0013
14225SOL    HW154734   3.700   7.645   4.643 -0.6976 -0.0387 -0.6452
14225SOL    HW254735   3.778   7.674   4.503  2.5112  3.0867  1.7196
14226SOL     OW54736   1.527   1.547   4.954 -0.1024 -0.6748  0.0216
14226SOL    HW154737   1.554   1.599   5.034  2.6374  1.3647 -2.1071
14226SOL    HW254738   1.604   1.491   4.923 -1.2764 -1.8054 -0.9197
14227SOL     OW54739   9.721   6.373   5.239  0.0788  0.3801  0.2145
14227SOL    HW154740   9.747   6.434   5.165  0.7875 -1.6717 -1.2806
14227SOL    HW254741   9.792   6.374   5.310  1.0790 -0.2192 -0.7619
14228SOL     OW54742   2.695   2.003   0.349 -0.3334 -0.4207 -0.3416
14228SOL    HW154743   2.730   2.049   0.431  0.3540 -1.1682 -0.2164
14228SOL    HW254744   2.602   1.970   0.367 -0.1304 -0.7139  0.1927
14229SOL     OW54745   1.928   2.095   7.981  0.3340  0.4030  0.1916
14229SOL    HW154746   1.920   2.163   8.054 -0.0027  0.5362  0.0326
14229SOL    HW254747   1.847   2.036   7.982  0.9620 -0.4454  0.7823
14230SOL     OW54748   8.002   3.018   0.237 -0.4393  0.6600 -0.5762
14230SOL    HW154749   7.925   3.058   0.189 -0.7454  0.1662 -0.4986
14230SOL    HW254750   8.061   3.091   0.273 -1.7255  1.0586  0.7620
14231SOL     OW54751   7.391   9.205   5.993  0.2867  0.5109  0.0024
14231SOL    HW154752   7.371   9.291   6.039 -1.3951  1.1759 -1.9419
14231SOL    HW254753   7.488   9.203   5.968  0.7171  1.0845  1.5560
14232SOL     OW54754   3.573   3.417   8.047 -0.3018 -0.1568 -0.0591
14232SOL    HW154755   3.532   3.504   8.020  0.4417 -0.1492 -1.1611
14232SOL    HW254756   3.502   3.360   8.090 -1.2946  0.1780 -1.2079
14233SOL     OW54757   2.341   8.433   3.529  0.3415 -0.0951  0.3897
14233SOL    HW154758   2.246   8.437   3.500  0.2995 -2.4804  0.1034
14233SOL    HW254759   2.346   8.401   3.624  0.8094  0.9979  0.7393
14234SOL     OW54760   1.398   6.105   8.945 -0.1974 -0.0828 -0.2096
14234SOL    HW154761   1.435   6.017   8.972 -1.3151 -0.6920 -0.6498
14234SOL    HW254762   1.300   6.108   8.966  0.2548  1.8746  1.8631
14235SOL     OW54763   9.099   5.258   5.858 -0.2637  0.1075  0.2638
14235SOL    HW154764   9.108   5.240   5.956 -1.8165 -1.9025  0.0545
14235SOL    HW254765   9.189   5.254   5.815  0.4272  0.9901  1.5871
14236SOL     OW54766   2.984   0.511   5.061  0.0884  0.4285 -0.4819
14236SOL    HW154767   2.912   0.543   5.122 -1.2530 -1.4356 -1.0315
14236SOL    HW254768   2.947   0.500   4.969  0.8108 -1.4433 -0.5707
14237SOL     OW54769   0.819   8.384   7.240 -0.1766 -0.2969  0.6630
14237SOL    HW154770   0.728   8.366   7.278  0.2239 -0.1043  1.7330
14237SOL    HW254771   0.843   8.480   7.254 -1.2276  0.5266 -2.7271
14238SOL     OW54772   8.948   9.188   0.680 -0.1938  0.0531  0.4585
14238SOL    HW154773   9.033   9.220   0.639  0.0750 -1.5149 -0.2463
14238SOL    HW254774   8.890   9.267   0.702  0.7073  1.0473 -0.6474
14239SOL     OW54775   0.987   3.492   8.193 -0.0709  0.0588  0.3036
14239SOL    HW154776   0.921   3.476   8.120  0.1071 -1.1509  0.4021
14239SOL    HW254777   1.068   3.436   8.178 -0.7549 -1.5921  2.3596
14240SOL     OW54778   0.667   3.107   7.549  0.2316 -0.2155  0.2937
14240SOL    HW154779   0.727   3.048   7.495 -0.1660 -0.4315  0.0813
14240SOL    HW254780   0.605   3.156   7.487  0.0963 -0.1018  0.5205
14241SOL     OW54781   3.626   5.760   4.790  0.3436 -0.0208  0.5122
14241SOL    HW154782   3.544   5.771   4.847 -0.4077  2.0294 -0.9264
14241SOL    HW254783   3.704   5.802   4.836  0.3957 -1.0448  1.3966
14242SOL     OW54784   1.605   5.416   9.740  0.4017 -0.0440 -0.3731
14242SOL    HW154785   1.615   5.326   9.699 -0.9365 -0.1717 -0.4220
14242SOL    HW254786   1.583   5.483   9.668  1.9122  0.4304 -0.4195
14243SOL     OW54787   8.682   8.104   9.729 -0.2783  0.5496  0.0380
14243SOL    HW154788   8.658   8.201   9.720  0.3637  0.6057 -1.1930
14243SOL    HW254789   8.646   8.054   9.651  0.1052 -0.0599  0.2492
14244SOL     OW54790   0.958   1.000   5.300 -0.7278  0.0377 -0.4150
14244SOL    HW154791   0.887   0.929   5.307 -0.1782 -0.6704 -1.7822
14244SOL    HW254792   0.932   1.067   5.230 -1.9072  1.9910  1.8489
14245SOL     OW54793   4.393   9.885   0.943  0.5475  0.2167 -0.0355
14245SOL    HW154794   4.452   9.844   0.874 -1.6489 -1.3334 -1.0189
14245SOL    HW254795   4.349   9.966   0.906 -2.1026 -1.6804 -1.1446
14246SOL     OW54796   8.407   1.555   2.636  0.4822 -0.7382  0.3527
14246SOL    HW154797   8.376   1.648   2.617  1.2899 -0.2793  1.1882
14246SOL    HW254798   8.348   1.489   2.589 -0.0106  0.2001 -0.3543
14247SOL     OW54799   9.076   2.327   1.700  0.1772  0.3049  0.3109
14247SOL    HW154800   9.163   2.317   1.652  0.1601 -2.3558  0.7299
14247SOL    HW254801   9.001   2.319   1.635  0.1970 -0.9313  0.4280
14248SOL     OW54802   6.621   3.008   0.016  0.0206 -0.0760  0.2365
14248SOL    HW154803   6.596   3.100   0.046  0.5818  0.2089 -0.1635
14248SOL    HW254804   6.667   3.013  -0.073  2.2521 -0.4978  1.3273
14249SOL     OW54805   8.177   1.339   1.720  0.6575 -0.0510 -0.4460
14249SOL    HW154806   8.274   1.321   1.740 -0.3208 -2.7640  2.3589
14249SOL    HW254807   8.138   1.261   1.672 -0.3195  0.7346 -0.9443
14250SOL     OW54808   7.861   6.968   4.034 -0.6984 -0.1405 -0.4418
14250SOL    HW154809   7.784   6.965   3.970 -2.2856 -0.9218  1.4637
14250SOL    HW254810   7.874   7.062   4.066 -1.6053 -0.2005  0.1140
14251SOL     OW54811   2.754   0.708   0.965  0.1499 -0.2040  0.0540
14251SOL    HW154812   2.825   0.712   1.035  1.1465 -1.0855 -0.8854
14251SOL    HW254813   2.781   0.765   0.887 -0.4330 -0.1080 -0.0814
14252SOL     OW54814   1.906   7.505   4.675  0.7976  0.4689 -0.4011
14252SOL    HW154815   1.981   7.465   4.728 -0.0403  0.9564  1.1923
14252SOL    HW254816   1.942   7.543   4.590  2.0696 -0.9417 -0.5230
14253SOL     OW54817   9.799   4.089   2.869 -0.1548  0.3741  0.2007
14253SOL    HW154818   9.729   4.103   2.800 -0.5659 -1.4619  0.2373
14253SOL    HW254819   9.757   4.083   2.960  0.1738  0.4549  0.3624
14254SOL     OW54820   5.447   0.384   3.836  0.7130  0.3686  0.5028
14254SOL    HW154821   5.401   0.384   3.747  0.7091  0.9858  0.5050
14254SOL    HW254822   5.546   0.375   3.822  0.6091 -0.8721  0.4958
14255SOL     OW54823   4.328   3.084   1.651 -0.4050  0.0200  0.1642
14255SOL    HW154824   4.239   3.056   1.615 -0.8888  1.7710 -0.0915
14255SOL    HW254825   4.391   3.099   1.575  0.1678 -1.3686  0.3537
14256SOL     OW54826   3.787   2.417   5.191  0.4499  0.0180  0.1164
14256SOL    HW154827   3.752   2.339   5.243  2.3967 -0.4336  0.7956
14256SOL    HW254828   3.860   2.386   5.130 -0.6187  0.8551 -1.6343
14257SOL     OW54829   7.810   3.221   1.409 -0.6059 -0.5200 -0.0147
14257SOL    HW154830   7.749   3.292   1.376  1.0454  0.2066 -1.5787
14257SOL    HW254831   7.760   3.135   1.417 -1.6054 -0.1687 -2.1823
14258SOL     OW54832   6.923   3.615   2.276  0.6224 -0.1938 -0.2115
14258SOL    HW154833   6.835   3.574   2.298 -0.2266 -0.0499 -3.1541
14258SOL    HW254834   6.972   3.555   2.212  0.7488  1.8313 -2.0377
14259SOL     OW54835   9.195   6.655   5.948 -0.2327  0.0894 -0.6310
14259SOL    HW154836   9.216   6.591   5.874 -2.4273  0.9350 -2.0273
14259SOL    HW254837   9.163   6.605   6.028 -1.1944 -0.6035 -1.4515
14260SOL     OW54838   7.427   9.932   4.899 -0.0137  0.1983  0.2826
14260SOL    HW154839   7.434  10.023   4.858 -0.2602  0.3263  0.5206
14260SOL    HW254840   7.439   9.939   4.998  0.9043 -0.1492  0.2016
14261SOL     OW54841   1.799   1.414   7.228 -0.0222 -0.1941 -0.6666
14261SOL    HW154842   1.843   1.411   7.318  0.0876 -0.5435 -0.7302
14261SOL    HW254843   1.776   1.509   7.205 -0.7314 -0.1802  0.0637
14262SOL     OW54844   4.234   5.018   9.733  0.1330 -0.4716 -0.1471
14262SOL    HW154845   4.168   5.088   9.707 -0.7762 -1.1362  0.3458
14262SOL    HW254846   4.225   4.998   9.831  0.7548 -0.8947 -0.1721
14263SOL     OW54847   7.949   2.466   1.550  0.3077  0.3954  0.2154
14263SOL    HW154848   7.853   2.440   1.555  0.5442 -0.6372 -0.3988
14263SOL    HW254849   7.958   2.565   1.557 -0.7584  0.4585  0.7722
14264SOL     OW54850   2.488   8.990   2.288  0.0732  0.8356 -0.3257
14264SOL    HW154851   2.526   8.987   2.195  0.6568  2.1852 -0.1430
14264SOL    HW254852   2.468   8.897   2.319 -0.0312  0.3699 -1.7663
14265SOL     OW54853   0.908   2.816   1.688  0.3845  0.3563 -0.7898
14265SOL    HW154854   0.923   2.887   1.756 -0.3568  0.6786 -0.9575
14265SOL    HW254855   0.972   2.828   1.612 -0.6359  1.6561 -1.4565
14266SOL     OW54856   1.635   2.680   4.146  0.7341 -0.4387  0.6998
14266SOL    HW154857   1.629   2.764   4.092  1.9260 -0.4366  0.5755
14266SOL    HW254858   1.715   2.683   4.205  0.5095 -1.2807  1.0537
14267SOL     OW54859   8.310   9.911   8.573 -0.4687  0.2164 -0.0142
14267SOL    HW154860   8.282   9.986   8.633 -1.8505  0.7042 -1.2570
14267SOL    HW254861   8.229   9.872   8.529  0.6497  0.7508 -2.6266
14268SOL     OW54862   2.203   0.055   7.249  0.2381 -0.1437  0.3379
14268SOL    HW154863   2.286   0.108   7.258  1.7477 -2.0491 -1.7591
14268SOL    HW254864   2.177   0.049   7.153 -1.4216 -0.9292  0.8043
14269SOL     OW54865   0.435   6.147   6.042  0.1794  0.3270  0.2423
14269SOL    HW154866   0.397   6.188   6.125 -0.0187  1.8595 -0.5875
14269SOL    HW254867   0.532   6.126   6.056  0.2434  0.9408  0.7311
14270SOL     OW54868   2.668   8.283   8.257 -0.0498  0.2106  0.1649
14270SOL    HW154869   2.623   8.267   8.345 -2.5968  1.2041 -0.8839
14270SOL    HW254870   2.678   8.382   8.243 -0.7410  0.0955 -1.1615
14271SOL     OW54871   8.674   0.156   6.577 -0.4687 -0.2815 -0.0085
14271SOL    HW154872   8.615   0.117   6.648  0.5717  0.4505  1.2741
14271SOL    HW254873   8.753   0.097   6.564 -0.1366  0.1186  0.1836
14272SOL     OW54874   0.463   1.908   8.759  0.2043 -0.3277  0.3531
14272SOL    HW154875   0.474   1.980   8.828 -1.2741  0.9258 -0.6876
14272SOL    HW254876   0.401   1.838   8.794 -1.5093  0.9162 -0.1393
14273SOL     OW54877   0.635   5.875   0.650 -0.7829 -0.0505 -0.0558
14273SOL    HW154878   0.554   5.895   0.594  0.3155 -0.0893 -1.6903
14273SOL    HW254879   0.680   5.961   0.676  0.0679 -0.0984 -1.3037
14274SOL     OW54880   0.573   1.022   6.880  0.1787 -0.9268  0.1175
14274SOL    HW154881   0.539   0.963   6.953 -0.2627 -0.1377  0.5532
14274SOL    HW254882   0.540   1.115   6.894  0.5134 -0.6627 -0.8058
14275SOL     OW54883   8.542   3.493   9.959 -0.2558 -0.1742 -0.2037
14275SOL    HW154884   8.505   3.569   9.905 -0.2892 -0.0788 -0.0478
14275SOL    HW254885   8.581   3.528  10.044 -0.2753 -0.3309 -0.1286
14276SOL     OW54886   7.136   2.303   3.485 -0.0492 -0.1183  0.2520
14276SOL    HW154887   7.232   2.292   3.458  0.5058 -0.0398  2.1595
14276SOL    HW254888   7.115   2.400   3.494 -0.1637 -0.1505  0.3245
14277SOL     OW54889   4.868   6.691   2.409  0.4392  0.4994 -0.1885
14277SOL    HW154890   4.896   6.596   2.394  0.0373  0.5688 -1.3699
14277SOL    HW254891   4.877   6.743   2.324 -0.9914  1.0997  0.0060
14278SOL     OW54892   2.208   4.051   7.290 -0.1628  0.3409 -0.2558
14278SOL    HW154893   2.274   4.126   7.280  0.5703 -0.0581  1.3503
14278SOL    HW254894   2.169   4.054   7.382 -0.3914 -1.0408 -0.2980
14279SOL     OW54895   4.521   2.149   9.368 -0.3204 -0.1730 -0.1548
14279SOL    HW154896   4.465   2.231   9.377 -0.3070  0.0131 -1.6905
14279SOL    HW254897   4.598   2.167   9.307  0.6794 -0.8140  0.8968
14280SOL     OW54898   4.248   9.082   0.533  0.5891  0.5999  0.1145
14280SOL    HW154899   4.325   9.030   0.569  0.6200  0.0505 -0.7166
14280SOL    HW254900   4.163   9.045   0.569  0.6078 -0.0739 -0.4994
14281SOL     OW54901   5.719   3.156   1.986 -0.2197 -0.0709  0.7531
14281SOL    HW154902   5.652   3.215   2.031  0.4483 -0.2853  2.0428
14281SOL    HW254903   5.695   3.060   2.002 -0.4129 -0.1535 -0.0050
14282SOL     OW54904   9.057   7.667   8.738 -0.3941  0.0279  0.0995
14282SOL    HW154905   9.154   7.659   8.760 -0.3611 -0.5041 -0.2420
14282SOL    HW254906   9.016   7.739   8.794  0.2660  0.4608  0.0243
14283SOL     OW54907   8.850   9.889   9.766 -0.5734 -0.8062 -0.5125
14283SOL    HW154908   8.759   9.912   9.733 -1.3530 -0.4389  1.8195
14283SOL    HW254909   8.905   9.972   9.773 -1.4653 -0.4137  2.1935
14284SOL     OW54910   8.083   0.191   1.926 -0.1123  0.4097  0.1312
14284SOL    HW154911   8.160   0.153   1.874  0.8372  0.0259  1.8104
14284SOL    HW254912   8.091   0.291   1.929 -0.5907  0.4944 -1.1016
14285SOL     OW54913   8.328   7.566   5.852  0.0032  0.3153 -0.0377
14285SOL    HW154914   8.389   7.645   5.842 -2.5052  2.2847 -0.2582
14285SOL    HW254915   8.257   7.570   5.781 -1.8862 -0.5168  1.7720
14286SOL     OW54916   5.129   8.788   5.505  0.3039  0.3646  0.1606
14286SOL    HW154917   5.085   8.698   5.494  1.0482  0.0618 -0.4361
14286SOL    HW254918   5.124   8.816   5.600 -1.0486  0.2673  0.1256
14287SOL     OW54919   7.821   9.533   6.302 -0.1479 -0.4223  0.1641
14287SOL    HW154920   7.881   9.613   6.294  0.2642 -0.7988 -0.5834
14287SOL    HW254921   7.726   9.560   6.284  0.0802 -0.2263 -0.7766
14288SOL     OW54922   2.035   4.467   4.999  0.0722  0.1712  0.0208
14288SOL    HW154923   2.109   4.432   4.940 -0.3893  0.6583 -0.8547
14288SOL    HW254924   2.010   4.559   4.970 -1.5139 -0.3332 -0.2962
14289SOL     OW54925   0.830   1.897   9.515 -0.4087 -0.1351 -0.3027
14289SOL    HW154926   0.770   1.960   9.466 -1.2373  1.3886  2.5543
14289SOL    HW254927   0.773   1.829   9.563  0.2636 -0.1185  0.5192
14290SOL     OW54928   1.689   4.420   3.909  0.1186  0.1983 -0.1513
14290SOL    HW154929   1.673   4.366   3.992 -0.6330 -0.0586 -0.4641
14290SOL    HW254930   1.785   4.413   3.883  0.4116  0.4329  0.8073
14291SOL     OW54931   8.965   2.753   4.205 -0.2883 -0.6619 -0.3121
14291SOL    HW154932   9.008   2.751   4.296 -1.8020 -0.1160  0.4283
14291SOL    HW254933   8.925   2.663   4.186 -1.9165 -0.1385  0.5317
14292SOL     OW54934   3.326   0.995   3.525  0.0913  0.2269  0.1868
14292SOL    HW154935   3.337   0.928   3.451 -0.0930  0.2795  0.1108
14292SOL    HW254936   3.264   1.067   3.495 -0.7533 -0.2657  0.7349
14293SOL     OW54937   3.272   5.731   5.561  0.5422  0.1751 -0.0621
14293SOL    HW154938   3.292   5.736   5.659  1.4203  0.9464 -0.2766
14293SOL    HW254939   3.346   5.773   5.509 -0.1664  0.2466 -1.0387
14294SOL     OW54940   1.931   7.232   2.308 -0.1536 -0.1817 -0.1689
14294SOL    HW154941   1.837   7.251   2.334 -0.2170 -1.4019  0.5300
14294SOL    HW254942   1.992   7.299   2.351 -0.7564  1.1288 -1.3005
14295SOL     OW54943   1.422   8.345   5.936  0.2915 -0.2350 -0.0265
14295SOL    HW154944   1.516   8.312   5.945  0.6417  0.3999 -1.1664
14295SOL    HW254945   1.404   8.366   5.840 -0.4647  1.2749  0.4345
14296SOL     OW54946   8.322   7.169   8.539 -0.0718 -0.1683  0.2144
14296SOL    HW154947   8.262   7.151   8.461  0.9333  0.0357 -0.6128
14296SOL    HW254948   8.328   7.267   8.554 -0.1782 -0.2035  0.4831
14297SOL     OW54949   3.131   6.541   6.837 -0.2895  0.3450  0.3348
14297SOL    HW154950   3.055   6.564   6.898 -0.6718 -0.9001  0.3261
14297SOL    HW254951   3.172   6.455   6.865  0.1836  0.2742 -0.5559
14298SOL     OW54952   6.261   1.745   6.506 -0.3596 -0.1224  0.3313
14298SOL    HW154953   6.260   1.802   6.589 -0.8664 -0.6987  0.7284
14298SOL    HW254954   6.309   1.793   6.433  0.3509  0.2731  1.0491
14299SOL     OW54955   3.769   6.302   4.581 -0.0018 -0.3444  0.4380
14299SOL    HW154956   3.717   6.358   4.516 -0.4194  0.5445  1.5276
14299SOL    HW254957   3.851   6.352   4.609  0.5374 -1.0183  0.0642
14300SOL     OW54958   9.155   0.715   8.188 -0.1875 -0.2427  0.2235
14300SOL    HW154959   9.124   0.806   8.159  1.6368  0.1313 -0.6228
14300SOL    HW254960   9.208   0.723   8.273  0.1530 -0.4841  0.0345
14301SOL     OW54961   3.745   1.724   1.945 -0.3443  0.3507 -0.1457
14301SOL    HW154962   3.708   1.726   1.852 -0.9576 -0.7670  0.0615
14301SOL    HW254963   3.677   1.758   2.009  0.1634  1.3396 -0.1346
14302SOL     OW54964   2.895   9.857   5.482 -0.1582  0.3462  0.0973
14302SOL    HW154965   2.845   9.828   5.400 -1.2068  1.8586  0.1956
14302SOL    HW254966   2.918   9.776   5.537 -0.2363 -0.5916 -1.2328
14303SOL     OW54967   6.013   4.697   1.422 -0.4957  0.4990 -0.1380
14303SOL    HW154968   5.949   4.691   1.499 -1.1693  0.3100 -0.7131
14303SOL    HW254969   6.086   4.762   1.444 -1.0575  0.9490  0.3848
14304SOL     OW54970   0.883   5.845   1.192 -0.3486  0.4030  0.0379
14304SOL    HW154971   0.851   5.837   1.097 -0.0544 -0.3470 -0.0045
14304SOL    HW254972   0.805   5.849   1.253 -0.5367  0.0334 -0.1760
14305SOL     OW54973   0.855   7.454   4.866  0.1706 -0.0728  0.4017
14305SOL    HW154974   0.879   7.389   4.794  0.2427  0.0813  0.2867
14305SOL    HW254975   0.912   7.436   4.947  1.4918  1.0244 -0.2599
14306SOL     OW54976   0.668   0.856   3.103  0.2392 -0.0194 -0.3323
14306SOL    HW154977   0.728   0.919   3.054  0.4250 -1.3369 -1.8522
14306SOL    HW254978   0.703   0.762   3.093 -1.5475 -0.6948 -0.4493
14307SOL     OW54979   9.021   8.382   2.540 -0.2613  0.3790 -0.0114
14307SOL    HW154980   8.924   8.396   2.519 -0.8171 -1.3457  1.3070
14307SOL    HW254981   9.038   8.285   2.554  2.0175  0.4776 -1.8596
14308SOL     OW54982   0.658   3.690  10.082  0.7181  0.2782 -0.4909
14308SOL    HW154983   0.560   3.691  10.064  0.6933  1.1178 -0.3421
14308SOL    HW254984   0.695   3.783  10.075  1.2178  0.2056  0.9459
14309SOL     OW54985   7.184   3.715   0.524 -0.0938  0.5552  0.0306
14309SOL    HW154986   7.192   3.752   0.616  0.8553  0.3820  0.0219
14309SOL    HW254987   7.103   3.657   0.518 -0.7713  1.4393  0.4461
14310SOL     OW54988   7.470   2.991   4.196 -0.1591  0.1391 -0.3092
14310SOL    HW154989   7.556   3.040   4.181 -0.0274 -0.0073 -0.0322
14310SOL    HW254990   7.396   3.040   4.150 -0.0875  0.8025  0.2664
14311SOL     OW54991   2.671   3.957   7.463  0.5163  0.4577 -0.4421
14311SOL    HW154992   2.666   3.999   7.554  0.9552  0.3591 -0.3732
14311SOL    HW254993   2.585   3.910   7.444  1.7268 -2.6895  1.4488
14312SOL     OW54994   4.384   9.663   3.140 -0.4326 -0.9687  0.2038
14312SOL    HW154995   4.317   9.679   3.212 -1.3235 -0.5333 -0.7045
14312SOL    HW254996   4.406   9.750   3.096  1.8939 -0.8732  1.4995
14313SOL     OW54997   0.080   6.478   5.563 -0.5999  0.5205 -0.3475
14313SOL    HW154998   0.045   6.442   5.649  1.1698 -0.4563  0.0102
14313SOL    HW254999   0.054   6.417   5.488 -1.7837  1.1460 -0.4472
14314SOL     OW55000   4.597   8.775   3.916  0.1099 -0.9463  0.6416
14314SOL    HW155001   4.604   8.813   4.008  1.2237 -1.1836  0.6644
14314SOL    HW255002   4.657   8.826   3.854  0.9226 -2.0872  0.4859
14315SOL     OW55003   7.995   9.358   5.753 -0.6796  0.0620  0.0037
14315SOL    HW155004   8.013   9.310   5.839  0.1421  0.6919  0.1934
14315SOL    HW255005   8.057   9.325   5.682  0.4174  1.3475  0.3315
14316SOL     OW55006   4.020   7.095   4.050  0.3445 -0.0184 -0.0026
14316SOL    HW155007   3.922   7.100   4.070  0.7318 -0.8955  2.1823
14316SOL    HW255008   4.066   7.175   4.088  0.4565  0.5189 -1.2476
14317SOL     OW55009   2.744   5.218   2.264  0.3150  0.0623 -0.5016
14317SOL    HW155010   2.718   5.171   2.180 -1.2330  0.5375 -0.3095
14317SOL    HW255011   2.844   5.221   2.272  0.4477 -1.3641 -1.5238
14318SOL     OW55012   3.290   0.602   7.419  0.3694  0.2624  0.3872
14318SOL    HW155013   3.386   0.621   7.398 -0.0544  0.1035 -1.9213
14318SOL    HW255014   3.235   0.616   7.336 -1.2854 -1.8954  1.0780
14319SOL     OW55015   8.043   7.069   2.017 -0.2242 -0.2040  0.1913
14319SOL    HW155016   7.994   7.066   2.104 -1.3395  3.8878 -0.1774
14319SOL    HW255017   8.135   7.106   2.032 -1.3190  3.0152 -0.6322
14320SOL     OW55018   2.778   6.192   5.847  0.3687 -0.2413  0.3509
14320SOL    HW155019   2.740   6.120   5.904  3.5431 -1.7058  0.6914
14320SOL    HW255020   2.735   6.188   5.756 -0.3258 -1.7996  0.7262
14321SOL     OW55021   3.848   2.512   7.880 -0.1103 -0.0905 -0.6645
14321SOL    HW155022   3.879   2.476   7.792 -1.1134  0.7927 -1.3914
14321SOL    HW255023   3.748   2.511   7.883 -0.0777 -0.9792  0.8434
14322SOL     OW55024   3.416   7.637   4.758  0.0380 -0.1824 -0.1149
14322SOL    HW155025   3.489   7.704   4.765  0.8941 -1.0522 -0.6941
14322SOL    HW255026   3.453   7.548   4.732 -1.1111 -0.8467  0.4375
14323SOL     OW55027   1.520   5.178   6.271  0.1937  0.5485 -0.4199
14323SOL    HW155028   1.585   5.254   6.275 -0.2136  0.8131  1.6525
14323SOL    HW255029   1.428   5.213   6.255  0.2933  0.3031 -1.6126
14324SOL     OW55030   8.911   5.426   8.849 -0.8661 -0.3683  0.0015
14324SOL    HW155031   8.928   5.438   8.752  0.4824 -1.6520  0.0522
14324SOL    HW255032   8.933   5.332   8.875 -0.0637  0.2928  1.7891
14325SOL     OW55033   2.612   2.466   6.358 -0.7776 -0.5660 -0.0873
14325SOL    HW155034   2.564   2.553   6.364 -0.2275 -0.4368  3.0835
14325SOL    HW255035   2.566   2.407   6.291 -1.4040  1.9509 -1.9588
14326SOL     OW55036   4.258   9.498   9.889  0.0376  0.0263  0.1064
14326SOL    HW155037   4.244   9.587   9.931 -1.8817 -0.6301  0.9041
14326SOL    HW255038   4.321   9.444   9.946  1.4797  0.9834 -0.5659
14327SOL     OW55039   0.638   7.748   8.602 -0.0507  0.1491 -0.4443
14327SOL    HW155040   0.645   7.847   8.591 -1.0999  0.1269 -1.3810
14327SOL    HW255041   0.588   7.727   8.686 -0.7849  0.4373 -0.8003
14328SOL     OW55042   5.053   6.187   9.689 -0.0097 -0.0335  0.0198
14328SOL    HW155043   4.967   6.135   9.687  1.6648 -2.8926 -0.6607
14328SOL    HW255044   5.100   6.175   9.602  0.3071  2.9563 -0.2780
14329SOL     OW55045   7.879   9.569   9.073 -0.6844  0.0012 -0.3735
14329SOL    HW155046   7.801   9.555   9.012  0.9961 -2.8738 -1.9991
14329SOL    HW255047   7.909   9.664   9.068 -1.4765  0.1501 -2.9468
14330SOL     OW55048   3.506   6.888   1.671  0.0782 -0.1449 -0.2560
14330SOL    HW155049   3.517   6.922   1.765 -1.5971 -0.0641 -0.0784
14330SOL    HW255050   3.531   6.961   1.607  4.2879 -1.1674  0.0530
14331SOL     OW55051   9.827   7.919   3.378  0.0046 -0.1346  0.2147
14331SOL    HW155052   9.736   7.881   3.397 -0.4490  0.6043 -0.4083
14331SOL    HW255053   9.864   7.877   3.295 -0.8728  1.3475 -0.9756
14332SOL     OW55054   4.692   1.467   0.056  0.3646  0.5677 -0.2135
14332SOL    HW155055   4.642   1.493  -0.027  0.3695  1.3561  0.0244
14332SOL    HW255056   4.781   1.514   0.057  2.1292 -2.5848 -1.7594
14333SOL     OW55057   7.631   1.739   8.535  0.2676 -0.1067 -0.0511
14333SOL    HW155058   7.611   1.734   8.633 -1.4898 -1.0792 -0.4396
14333SOL    HW255059   7.658   1.648   8.502 -0.0902  0.0066 -0.6615
14334SOL     OW55060   6.544   9.570   5.832  0.0807  0.2117  0.5462
14334SOL    HW155061   6.447   9.545   5.833 -0.4020  2.0686  1.0681
14334SOL    HW255062   6.597   9.496   5.790 -1.5131 -0.9676  0.5908
14335SOL     OW55063   6.478   3.744   0.442  0.2320 -0.3361 -0.1371
14335SOL    HW155064   6.483   3.841   0.465 -0.5675 -0.5627  1.0487
14335SOL    HW255065   6.390   3.726   0.397  0.1488 -0.5979  0.1259
14336SOL     OW55066   4.243   3.738   0.109 -0.5383 -0.6237  0.0882
14336SOL    HW155067   4.148   3.768   0.102  0.1063  0.6989 -4.6637
14336SOL    HW255068   4.284   3.775   0.193 -2.9137  2.6351 -0.1068
14337SOL     OW55069   3.791   0.431   4.955 -0.2399 -0.4652 -0.4356
14337SOL    HW155070   3.791   0.355   4.890 -1.3607 -0.0802 -0.8994
14337SOL    HW255071   3.780   0.518   4.905 -2.8905 -0.2838  0.3513
14338SOL     OW55072   2.130   5.765   6.660 -0.6408  0.1242  0.2738
14338SOL    HW155073   2.096   5.682   6.616 -1.1467  0.3883  0.1642
14338SOL    HW255074   2.054   5.825   6.683 -0.6000 -0.9126  3.3854
14339SOL     OW55075   3.064   6.857   6.940  0.2443  0.6485  0.5306
14339SOL    HW155076   3.042   6.924   6.870  1.3764  1.1469  0.6399
14339SOL    HW255077   3.004   6.777   6.930 -0.1256  1.0486 -0.5093
14340SOL     OW55078   8.411   9.855   2.085  0.8839  0.6268  0.1587
14340SOL    HW155079   8.323   9.897   2.104  0.0398 -1.0863  0.1128
14340SOL    HW255080   8.449   9.818   2.170  1.8654  1.8767  0.2932
14341SOL     OW55081   1.274   8.408   0.623 -0.5445 -0.1232  0.3044
14341SOL    HW155082   1.307   8.466   0.697 -0.5259 -1.5862  1.4751
14341SOL    HW255083   1.348   8.392   0.557  0.2414 -0.9360  1.3521
14342SOL     OW55084   3.517   6.826   0.741  0.3742  0.0210 -0.2583
14342SOL    HW155085   3.610   6.797   0.719  0.0249 -0.7971 -0.6939
14342SOL    HW255086   3.487   6.783   0.826  0.7102  0.9827  0.3529
14343SOL     OW55087   4.974   1.490   3.872  0.5410  0.3033 -0.2015
14343SOL    HW155088   4.923   1.438   3.940  0.8391  0.8356  0.4379
14343SOL    HW255089   5.010   1.429   3.802  0.9087 -0.3471  0.5569
14344SOL     OW55090   9.781   8.511   8.436  0.1391 -0.3251 -0.0158
14344SOL    HW155091   9.808   8.513   8.340 -0.0361  0.9589 -0.0380
14344SOL    HW255092   9.754   8.602   8.466 -0.9401 -0.9352  0.9376
14345SOL     OW55093   7.246   0.335   6.731  0.0811 -0.1540 -0.1240
14345SOL    HW155094   7.334   0.384   6.733  1.1935 -2.1434  1.7878
14345SOL    HW255095   7.256   0.251   6.679 -1.0041  0.1526 -0.8365
14346SOL     OW55096   2.903   5.855   2.873  0.1518  0.2561 -0.1660
14346SOL    HW155097   2.814   5.900   2.875  0.2585  0.4503  0.1283
14346SOL    HW255098   2.941   5.861   2.780  0.5539  1.5137  0.0755
14347SOL     OW55099   7.650   1.377   1.128  0.1302 -0.0838 -0.0502
14347SOL    HW155100   7.728   1.383   1.067  0.4069  0.0561  0.3187
14347SOL    HW255101   7.639   1.463   1.178  2.6225 -1.6351  3.4180
14348SOL     OW55102   6.945   4.291   2.044  0.4374  0.1359 -0.3033
14348SOL    HW155103   6.919   4.351   1.968 -2.3109  0.9008  1.1718
14348SOL    HW255104   7.033   4.247   2.024  0.0330  0.7567 -3.6424
14349SOL     OW55105   2.935   5.590   3.698  0.1935  0.5707 -0.3689
14349SOL    HW155106   2.977   5.672   3.658 -0.9259  0.6175 -1.5000
14349SOL    HW255107   2.870   5.551   3.632 -1.6554  0.6172  1.3889
14350SOL     OW55108   6.474   2.050   0.520  0.4535 -0.3950 -0.3875
14350SOL    HW155109   6.400   2.064   0.586  1.1745 -2.6369  0.9673
14350SOL    HW255110   6.530   2.132   0.514 -1.9556  1.2434 -1.2268
14351SOL     OW55111   0.230   7.735   7.099 -0.0194  0.4891 -0.0080
14351SOL    HW155112   0.298   7.703   7.166 -0.6411  2.0736  1.4149
14351SOL    HW255113   0.222   7.834   7.106 -1.9852  0.3800 -0.6505
14352SOL     OW55114   0.068   4.696   4.926 -0.0231 -0.3130  0.1829
14352SOL    HW155115   0.114   4.699   4.837  0.4872 -0.6451  0.4382
14352SOL    HW255116   0.122   4.746   4.993 -0.8237  0.6659  0.1213
14353SOL     OW55117   5.088   5.293   9.281  0.2526 -0.4426  0.0068
14353SOL    HW155118   5.171   5.319   9.232  0.0158  0.5255  0.1154
14353SOL    HW255119   5.097   5.199   9.313  0.3755 -1.1282 -1.9610
14354SOL     OW55120   6.564   1.276   2.855 -0.8282  0.3148 -0.0074
14354SOL    HW155121   6.595   1.304   2.945  0.2272 -0.0126 -0.2653
14354SOL    HW255122   6.523   1.185   2.861  1.6440 -0.8642 -0.2955
14355SOL     OW55123   4.392   1.986   4.880  0.2532  0.2921 -0.1656
14355SOL    HW155124   4.367   2.061   4.941  0.9402  0.8090 -0.5093
14355SOL    HW255125   4.324   1.978   4.807  2.0401  3.0267 -2.2835
14356SOL     OW55126   3.346   1.033   4.445  0.4967  0.2842 -0.0619
14356SOL    HW155127   3.277   1.090   4.399  0.0387  0.8957  1.3570
14356SOL    HW255128   3.302   0.954   4.486  0.4581  1.2575  1.8046
14357SOL     OW55129   1.487   2.728   1.067  0.0763  0.4540  0.4066
14357SOL    HW155130   1.572   2.675   1.066  0.1507  0.5598  1.2803
14357SOL    HW255131   1.427   2.693   1.139 -0.3827  0.7697  0.1808
14358SOL     OW55132   3.671   9.664   5.725  0.0738  0.1594 -0.1839
14358SOL    HW155133   3.770   9.678   5.720 -0.0978  2.1341  1.0123
14358SOL    HW255134   3.625   9.753   5.724 -1.6835 -0.7351 -0.6424
14359SOL     OW55135   5.130   7.632   6.025  0.4570  0.0542 -0.4442
14359SOL    HW155136   5.204   7.636   5.958  0.8258 -1.4342 -0.1329
14359SOL    HW255137   5.133   7.714   6.083  1.2297  0.4867 -1.0975
14360SOL     OW55138   1.946   3.321   5.340 -0.2039 -0.1771  0.6398
14360SOL    HW155139   1.867   3.382   5.350 -0.1983 -0.5617  3.5437
14360SOL    HW255140   1.915   3.226   5.344 -0.0039 -0.3727 -2.0353
14361SOL     OW55141   5.395   0.518   5.118  0.2602  0.6340  0.2082
14361SOL    HW155142   5.396   0.574   5.200 -0.4349 -0.1788  0.7791
14361SOL    HW255143   5.376   0.423   5.142 -4.1302  0.9873 -1.2084
14362SOL     OW55144   5.262   4.740   1.384 -0.2937 -0.0896  0.4033
14362SOL    HW155145   5.317   4.780   1.310 -0.4681 -1.3798 -0.4484
14362SOL    HW255146   5.187   4.802   1.408 -0.4888  0.1442 -0.7951
14363SOL     OW55147   7.380   7.275   1.651  0.5215 -0.2764  0.0914
14363SOL    HW155148   7.395   7.179   1.677  1.0376 -0.4790 -0.9325
14363SOL    HW255149   7.430   7.295   1.567 -0.3971  0.6227 -0.2461
14364SOL     OW55150   4.816   8.877   5.037  0.2897 -0.6407 -0.0829
14364SOL    HW155151   4.788   8.836   5.124 -1.3058 -0.4125 -0.4646
14364SOL    HW255152   4.903   8.838   5.008  1.9515  0.7956  2.6742
14365SOL     OW55153   1.515   7.248   6.535 -0.1095  0.3199 -0.0894
14365SOL    HW155154   1.453   7.297   6.474 -0.0280  0.2930 -0.1937
14365SOL    HW255155   1.607   7.251   6.498  0.1445  1.2809  0.6124
14366SOL     OW55156   6.144   8.563   3.541 -0.1124 -1.1189 -0.9255
14366SOL    HW155157   6.106   8.530   3.454  1.8082 -2.0287 -1.4638
14366SOL    HW255158   6.223   8.622   3.522  1.8699 -3.2995  0.1959
14367SOL     OW55159   9.199   0.665   7.908 -0.0950 -0.3243 -0.3075
14367SOL    HW155160   9.187   0.656   8.007  1.0325  0.2563 -0.1178
14367SOL    HW255161   9.124   0.618   7.862 -0.0185 -1.5987  0.8113
14368SOL     OW55162   6.791   3.308   0.189 -0.5781  0.0973 -0.3882
14368SOL    HW155163   6.807   3.249   0.269  0.5750 -0.5298 -1.0781
14368SOL    HW255164   6.695   3.298   0.161 -0.8496 -0.1091  0.5736
14369SOL     OW55165   2.020   8.785   0.892  0.4761 -0.2766  0.5688
14369SOL    HW155166   1.988   8.708   0.837  4.1267 -1.3100 -0.2784
14369SOL    HW255167   1.998   8.871   0.845  0.2001 -0.9828 -0.6321
14370SOL     OW55168   7.100   0.041   1.790 -0.1888 -0.0129  0.3486
14370SOL    HW155169   7.145   0.130   1.797  2.9581 -1.4114 -0.9023
14370SOL    HW255170   7.010   0.052   1.749  0.0521  2.6299  0.4523
14371SOL     OW55171   4.305   2.813   8.578  0.1129  0.0322 -0.3404
14371SOL    HW155172   4.241   2.849   8.510 -0.8628 -2.1119 -0.5867
14371SOL    HW255173   4.382   2.770   8.531  0.0137 -0.4322 -0.0802
14372SOL     OW55174   4.010   5.483   7.544 -0.0317  0.1879 -0.8580
14372SOL    HW155175   4.041   5.578   7.540  1.7900 -0.4215 -1.8649
14372SOL    HW255176   3.977   5.455   7.454  0.2036 -0.3875 -0.7646
14373SOL     OW55177   5.060   8.213   4.562 -0.2043  0.4141  0.4337
14373SOL    HW155178   5.121   8.292   4.565  0.7461 -0.2498 -1.2120
14373SOL    HW255179   5.084   8.149   4.635 -1.9531  2.3034  2.7759
14374SOL     OW55180   3.036   7.784   7.943 -0.7047 -0.1518  0.2345
14374SOL    HW155181   3.108   7.816   8.005  1.6727 -1.2124 -1.8844
14374SOL    HW255182   3.007   7.860   7.885  0.4906 -0.3063 -0.5787
14375SOL     OW55183   8.758   1.709   1.992  0.0602  0.2347  0.2553
14375SOL    HW155184   8.795   1.617   1.979 -1.1575 -0.5627  2.2799
14375SOL    HW255185   8.674   1.704   2.045 -0.7606  2.4075 -0.8046
14376SOL     OW55186   1.940   9.567   2.550  0.1462 -0.0827  0.0622
14376SOL    HW155187   1.846   9.592   2.574  0.6103  0.0455  1.7907
14376SOL    HW255188   1.993   9.553   2.633  1.7260  0.0520 -0.9059
14377SOL     OW55189   9.284   3.177   3.906 -0.0640  0.1545  0.0529
14377SOL    HW155190   9.272   3.122   3.988  1.6138  0.0366  0.2338
14377SOL    HW255191   9.218   3.252   3.906 -0.8064 -0.4852  0.9448
14378SOL     OW55192   5.234   7.322   4.253  0.3536 -0.4564  0.2515
14378SOL    HW155193   5.292   7.331   4.334  0.6715  1.4094 -0.1755
14378SOL    HW255194   5.163   7.393   4.254  0.0986 -0.6860 -0.9062
14379SOL     OW55195   8.877   2.129   7.916 -0.2074 -0.3076 -0.3257
14379SOL    HW155196   8.902   2.037   7.889  2.4959  0.0583  0.7333
14379SOL    HW255197   8.860   2.131   8.015 -1.5508  0.0761 -0.5532
14380SOL     OW55198   4.391   2.435   9.333 -0.0715  0.2219  0.1570
14380SOL    HW155199   4.304   2.468   9.295  0.3598  0.8863 -0.2505
14380SOL    HW255200   4.466   2.469   9.277  0.4591 -0.3027  0.5537
14381SOL     OW55201   1.708   7.971   3.111 -0.5734  0.5451  0.4953
14381SOL    HW155202   1.731   8.014   3.198  0.0123 -0.7635  1.0046
14381SOL    HW255203   1.644   7.896   3.127  0.0889 -0.1518 -0.1201
14382SOL     OW55204   8.091   4.553   0.707  0.0508 -0.0527  0.8964
14382SOL    HW155205   8.157   4.479   0.691 -0.6733 -0.1712 -1.6352
14382SOL    HW255206   8.116   4.633   0.653 -0.5946  0.7093  1.7017
14383SOL     OW55207   5.751   1.452   9.150  0.0780 -0.0605 -0.1593
14383SOL    HW155208   5.815   1.421   9.219  0.0541  0.8427  0.2694
14383SOL    HW255209   5.763   1.399   9.066  0.9291 -0.3310  0.1383
14384SOL     OW55210   0.974   1.555   7.404 -0.5925  0.0460  0.0057
14384SOL    HW155211   1.013   1.470   7.369  0.7660  0.7353 -0.1702
14384SOL    HW255212   1.003   1.568   7.499  0.3723  1.0245 -0.4174
14385SOL     OW55213   7.709   5.237   0.233 -0.0309 -0.1372 -0.0592
14385SOL    HW155214   7.631   5.296   0.211  0.0836  0.0681  0.0845
14385SOL    HW255215   7.709   5.217   0.331  0.5602  0.5200  0.0732
14386SOL     OW55216   6.448   4.948   0.272  0.3233  0.5956  0.0808
14386SOL    HW155217   6.458   4.951   0.173  2.4189  1.1527  0.2751
14386SOL    HW255218   6.537   4.926   0.314 -0.4690  0.6490  1.8423
14387SOL     OW55219   6.381   4.836   2.348  0.8186 -0.0450  0.3804
14387SOL    HW155220   6.372   4.737   2.336  1.7587 -0.1237  0.2904
14387SOL    HW255221   6.327   4.865   2.427  1.5263 -0.8172  1.1513
14388SOL     OW55222   3.099   0.322   5.750 -0.8569 -0.1642  0.6129
14388SOL    HW155223   3.016   0.344   5.699 -1.1039 -0.8375  0.7141
14388SOL    HW255224   3.074   0.278   5.836 -0.4304  0.6327  1.1434
14389SOL     OW55225   8.807   2.571   4.465  0.2892  0.2886 -0.0662
14389SOL    HW155226   8.805   2.555   4.366 -0.8209 -0.1104  0.0132
14389SOL    HW255227   8.796   2.484   4.512  0.3345  0.5450  0.4177
14390SOL     OW55228   5.748   8.325   4.242 -0.0951  0.0546 -0.1598
14390SOL    HW155229   5.690   8.252   4.279 -1.5695  1.4209  0.2670
14390SOL    HW255230   5.693   8.406   4.223  1.2511  0.5557 -2.1036
14391SOL     OW55231   6.630   7.245   5.041  0.1904  0.0294  0.1645
14391SOL    HW155232   6.612   7.266   4.945  0.8149  0.7408  0.2034
14391SOL    HW255233   6.690   7.165   5.047  0.0351 -0.1017 -0.0337
14392SOL     OW55234   9.696   5.065   8.258 -0.1365  0.1475  0.0389
14392SOL    HW155235   9.661   5.140   8.203  1.4145  0.2425 -0.8483
14392SOL    HW255236   9.774   5.097   8.312  0.6424 -0.8516 -0.4711
14393SOL     OW55237   2.225   8.322   0.744 -0.4119 -0.0837  0.0319
14393SOL    HW155238   2.301   8.370   0.789  0.7881 -1.5763 -0.3768
14393SOL    HW255239   2.242   8.320   0.645 -0.8456 -0.6597 -0.0302
14394SOL     OW55240   1.507   2.191   2.758  0.3158  0.2513 -0.2596
14394SOL    HW155241   1.536   2.166   2.665  2.3947  0.8134  0.2091
14394SOL    HW255242   1.415   2.157   2.774  0.0425 -0.1359 -2.4260
14395SOL     OW55243   7.985   5.223   3.143 -0.3211  0.0859  0.0578
14395SOL    HW155244   8.029   5.140   3.109 -0.2079  0.2642 -0.2368
14395SOL    HW255245   8.021   5.302   3.093  0.1946  0.4076  0.9332
14396SOL     OW55246   3.941   0.925   8.784 -0.2909 -0.3109 -0.1267
14396SOL    HW155247   3.851   0.919   8.739 -0.6128 -1.9118  0.6712
14396SOL    HW255248   4.000   0.986   8.732 -1.2708 -0.6395 -1.6751
14397SOL     OW55249   1.065   3.239   4.638  0.0084 -0.2623 -0.0868
14397SOL    HW155250   0.967   3.257   4.641 -0.0555 -0.7939  0.9035
14397SOL    HW255251   1.080   3.142   4.620  0.3534 -0.2018 -0.1168
14398SOL     OW55252   9.346   0.681   5.267 -0.7757  0.0940  0.1122
14398SOL    HW155253   9.427   0.683   5.326 -0.6097 -0.9779 -0.0711
14398SOL    HW255254   9.292   0.599   5.287 -1.6034  0.5831 -0.0609
14399SOL     OW55255   3.509   8.850   3.162  0.0511  0.2077 -0.1681
14399SOL    HW155256   3.520   8.753   3.185 -0.4904  0.4152  1.0292
14399SOL    HW255257   3.591   8.883   3.117  0.2040 -0.8346 -0.6703
14400SOL     OW55258   8.472   0.882   5.257 -0.6825 -0.4462  0.2485
14400SOL    HW155259   8.441   0.945   5.327  2.4425  0.9191  0.5261
14400SOL    HW255260   8.541   0.821   5.295  1.8149  0.9819 -1.7513
14401SOL     OW55261   4.330   0.204   9.934 -0.5029 -0.0981  0.7239
14401SOL    HW155262   4.390   0.282   9.952 -0.9934  0.1873  1.1419
14401SOL    HW255263   4.356   0.160   9.848  0.4338 -0.0978  1.0020
14402SOL     OW55264   8.318   1.122   3.534 -0.1653 -0.1951  0.1416
14402SOL    HW155265   8.270   1.046   3.577 -0.1210 -0.5582 -0.4411
14402SOL    HW255266   8.394   1.151   3.592 -0.0259 -0.7598  0.2427
14403SOL     OW55267   7.525   9.498   3.223 -0.1498  0.5438  0.0133
14403SOL    HW155268   7.530   9.408   3.267  0.3288  0.6626  0.1951
14403SOL    HW255269   7.435   9.538   3.241 -0.9828 -0.6164 -1.4581
14404SOL     OW55270   8.620   5.130   8.435 -0.5012  0.0244 -0.3512
14404SOL    HW155271   8.588   5.060   8.371  0.6863 -0.6068 -0.2612
14404SOL    HW255272   8.702   5.173   8.399 -0.4703  0.4526  0.2248
14405SOL     OW55273   0.458   7.003   9.798  0.1796 -0.1250  0.2409
14405SOL    HW155274   0.477   6.935   9.869  0.6524 -0.3643 -0.1088
14405SOL    HW255275   0.541   7.018   9.743 -0.8789 -1.8713 -1.9131
14406SOL     OW55276   5.442   8.538   5.427 -0.1320 -0.2508  0.0913
14406SOL    HW155277   5.448   8.638   5.423 -0.4032 -0.2489 -0.3796
14406SOL    HW255278   5.407   8.510   5.516 -2.0153  0.1825 -0.4783
14407SOL     OW55279   2.623   0.068   0.578  0.3120  0.2926  0.2016
14407SOL    HW155280   2.603  -0.030   0.584  2.4383 -0.1348  0.6454
14407SOL    HW255281   2.570   0.117   0.647  1.6755 -0.9568  2.1858
14408SOL     OW55282   2.103   8.531   6.279  0.1239 -0.1418 -0.1614
14408SOL    HW155283   2.019   8.504   6.326 -1.1250 -0.9439 -2.7922
14408SOL    HW255284   2.154   8.450   6.253 -0.1997  0.2007 -1.9272
14409SOL     OW55285   4.392   9.979   2.151  0.0175 -0.1171 -0.2425
14409SOL    HW155286   4.440  10.011   2.232 -2.9700 -1.2070  2.0411
14409SOL    HW255287   4.387   9.879   2.152 -0.6499 -0.1134 -1.4370
14410SOL     OW55288   9.132   1.114   1.447 -0.0527 -0.1490  0.0505
14410SOL    HW155289   9.118   1.111   1.349 -0.4467 -0.3808  0.1127
14410SOL    HW255290   9.058   1.064   1.493 -0.2589  0.5699  0.4989
14411SOL     OW55291   0.575   6.815   9.984 -0.8213 -0.1557 -0.0098
14411SOL    HW155292   0.651   6.757  10.014 -0.4023 -0.1421 -1.0298
14411SOL    HW255293   0.559   6.887  10.052  0.8888  0.5947 -0.3724
14412SOL     OW55294   3.981   9.020   0.684  0.1087  0.1076 -0.1170
14412SOL    HW155295   3.939   9.043   0.772  0.8384 -1.4363  0.6542
14412SOL    HW255296   3.912   9.024   0.612 -0.7696  0.2048  0.7135
14413SOL     OW55297   6.342   0.661   6.053 -0.3318 -0.2857  0.3939
14413SOL    HW155298   6.262   0.674   5.994  0.6923  1.6873 -0.6169
14413SOL    HW255299   6.396   0.584   6.019  1.2345  1.9572 -2.4591
14414SOL     OW55300   0.178   8.199   2.258 -0.1148 -0.2777 -0.1553
14414SOL    HW155301   0.121   8.178   2.338  0.6375  2.1071  1.0457
14414SOL    HW255302   0.130   8.263   2.199 -0.2908 -1.3400 -1.1736
14415SOL     OW55303   7.045   1.705   9.750  0.1138 -0.4780 -0.0938
14415SOL    HW155304   7.123   1.644   9.734  1.5818  1.2373  0.4350
14415SOL    HW255305   6.994   1.716   9.665  0.3261 -1.7433 -0.4042
14416SOL     OW55306   4.677   1.593   6.879 -0.1835  0.3156  0.0716
14416SOL    HW155307   4.641   1.621   6.968 -0.3068  0.2791  0.0333
14416SOL    HW255308   4.720   1.671   6.835 -0.2936  0.3803  0.0797
14417SOL     OW55309   2.675   9.555   0.785 -0.1763  0.1247 -0.6412
14417SOL    HW155310   2.668   9.609   0.868 -0.7499 -2.0402  0.7586
14417SOL    HW255311   2.693   9.459   0.808  1.4859 -0.2130 -3.0732
14418SOL     OW55312   1.432   2.025   3.677  0.0568  0.4559  0.5630
14418SOL    HW155313   1.360   1.956   3.676  1.1426 -0.7038  0.2783
14418SOL    HW255314   1.512   1.989   3.726  0.5872  1.5595  0.5243
14419SOL     OW55315   5.563   8.159   2.463 -0.6500 -0.1571  0.4517
14419SOL    HW155316   5.534   8.225   2.531  0.2496  0.6165  0.0986
14419SOL    HW255317   5.660   8.139   2.476 -0.6990 -0.7187 -0.0206
14420SOL     OW55318   1.052   3.682   6.988 -0.3238 -0.0939 -0.1557
14420SOL    HW155319   1.108   3.755   7.027 -0.5354 -0.7218  1.3578
14420SOL    HW255320   1.111   3.617   6.940  0.1915 -0.4624  0.9585
14421SOL     OW55321   0.166   7.805   4.211 -0.6165 -0.5095  0.0068
14421SOL    HW155322   0.239   7.834   4.150 -0.0576  0.5388  1.1708
14421SOL    HW255323   0.140   7.710   4.189  2.3728 -1.5631  0.8223
14422SOL     OW55324   7.887   5.191   6.969  0.2035  0.2550 -0.5380
14422SOL    HW155325   7.793   5.198   7.003  0.6478  3.0052  0.2386
14422SOL    HW255326   7.894   5.234   6.879  1.1743  2.1838  0.4278
14423SOL     OW55327   4.732   2.814   6.922  0.6597  0.7349 -0.1655
14423SOL    HW155328   4.825   2.790   6.896  1.4453  0.2055  2.8797
14423SOL    HW255329   4.732   2.846   7.017 -2.0095  2.4066 -0.6881
14424SOL     OW55330   5.034   7.824   4.444  0.1011  0.6298 -0.9414
14424SOL    HW155331   5.119   7.875   4.456 -0.8069  1.8607  0.4293
14424SOL    HW255332   4.990   7.810   4.532 -1.5963  0.8513 -1.7284
14425SOL     OW55333   7.013   0.663   1.789  0.0070  0.1740  0.1526
14425SOL    HW155334   6.939   0.727   1.770  0.9687  1.1761 -0.3282
14425SOL    HW255335   6.994   0.576   1.744 -0.8927  0.4141  0.0588
14426SOL     OW55336   8.169   5.403   1.432  0.0638  0.5509 -0.6143
14426SOL    HW155337   8.085   5.426   1.383 -0.7136  1.5284  1.1609
14426SOL    HW255338   8.217   5.487   1.457 -0.3513  0.1261  1.6950
14427SOL     OW55339   3.680   0.780   6.243  0.0501 -0.1086 -0.5021
14427SOL    HW155340   3.728   0.698   6.273  0.0262  0.0581 -0.0018
14427SOL    HW255341   3.637   0.763   6.154 -2.5288 -1.6611  0.9652
14428SOL     OW55342   8.957   8.595   0.211  0.5677  0.1676 -0.7623
14428SOL    HW155343   8.984   8.500   0.223  0.1022  0.3001  1.5441
14428SOL    HW255344   9.024   8.655   0.255 -0.2088  0.7967 -0.4254
14429SOL     OW55345   6.950   9.204   2.158 -0.2382 -0.6476  0.2022
14429SOL    HW155346   7.018   9.133   2.173  0.8110  0.7188  2.3003
14429SOL    HW255347   6.877   9.194   2.226 -0.6804 -0.4194 -0.2386
14430SOL     OW55348   9.492   5.101   6.527 -0.4610  0.5842 -0.1223
14430SOL    HW155349   9.573   5.091   6.469 -0.1856 -0.9963  0.5091
14430SOL    HW255350   9.417   5.137   6.473 -0.2257 -0.9294 -1.4960
14431SOL     OW55351   7.766   3.279   9.672 -0.0308 -0.3238  0.1475
14431SOL    HW155352   7.679   3.306   9.629 -1.5080 -2.2385  1.8897
14431SOL    HW255353   7.797   3.352   9.733 -0.0772  0.6191 -0.9327
14432SOL     OW55354   0.599   0.300   6.861  0.1777 -0.1466 -0.2942
14432SOL    HW155355   0.513   0.258   6.892 -0.9532  0.8576 -1.9657
14432SOL    HW255356   0.645   0.344   6.938 -0.1742 -1.7923  0.8641
14433SOL     OW55357   5.531   2.398   8.819 -0.0636 -0.4744 -0.0226
14433SOL    HW155358   5.551   2.446   8.733 -0.9640 -0.9305 -0.4920
14433SOL    HW255359   5.456   2.445   8.865  0.7325  0.0531  0.7647
14434SOL     OW55360   5.742   0.792   4.233  0.0288  0.3651 -0.4710
14434SOL    HW155361   5.813   0.800   4.163 -0.1703 -0.2060 -0.7392
14434SOL    HW255362   5.677   0.867   4.222 -0.3765 -0.1041 -1.3261
14435SOL     OW55363   9.326   9.220   6.500 -0.3625 -0.1298  0.2888
14435SOL    HW155364   9.226   9.226   6.500 -0.3949 -0.3903 -1.7142
14435SOL    HW255365   9.363   9.292   6.559 -1.7031  0.4676  0.4325
14436SOL     OW55366   8.052   0.405   4.052 -0.0452  0.0925  0.0405
14436SOL    HW155367   7.995   0.411   4.134  0.5002  2.1930  0.3038
14436SOL    HW255368   8.147   0.426   4.076  0.4390 -1.1038 -0.8006
14437SOL     OW55369   0.460   8.806   5.690  0.6070  0.0018 -0.5433
14437SOL    HW155370   0.470   8.872   5.764  0.0042  0.1941 -0.6315
14437SOL    HW255371   0.363   8.796   5.667  0.6717 -1.0845 -0.3715
14438SOL     OW55372   1.692   2.488   8.319  0.3414  0.4702 -0.4918
14438SOL    HW155373   1.679   2.507   8.416 -0.1589  0.8948 -0.6374
14438SOL    HW255374   1.785   2.512   8.292  0.2824  0.9548 -0.2581
14439SOL     OW55375   1.932   0.389   4.526 -0.7903 -0.0734  0.3598
14439SOL    HW155376   1.853   0.445   4.548 -0.6046  0.2584  0.1832
14439SOL    HW255377   1.984   0.370   4.609 -0.4768  0.5916  0.3238
14440SOL     OW55378   1.491   1.470   6.862  0.1084  0.3712 -0.4662
14440SOL    HW155379   1.391   1.470   6.875  0.0949  0.9962 -0.5527
14440SOL    HW255380   1.530   1.388   6.905 -0.3630  0.4924  0.1978
14441SOL     OW55381   9.249   2.077   6.087 -0.1621  0.1702 -0.3681
14441SOL    HW155382   9.295   2.021   6.017 -1.0499  1.4554 -2.0139
14441SOL    HW255383   9.257   2.173   6.063 -0.8733  0.6029  1.0946
14442SOL     OW55384   8.969   9.129   1.656  0.5516  0.3758  0.1760
14442SOL    HW155385   9.063   9.121   1.689  0.9241  1.3905 -0.6202
14442SOL    HW255386   8.960   9.210   1.599 -0.3656 -0.7212 -1.2933
14443SOL     OW55387   8.745   2.004   1.417 -0.0826 -0.2232 -0.7706
14443SOL    HW155388   8.683   2.006   1.338 -1.7025 -0.1266  0.4934
14443SOL    HW255389   8.698   2.037   1.498  2.0126  1.0735 -0.0329
14444SOL     OW55390   0.158   0.010   2.590 -0.0660  0.3270  0.1594
14444SOL    HW155391   0.224  -0.056   2.556 -1.1082  1.1233 -3.7050
14444SOL    HW255392   0.071  -0.036   2.610  0.1931  0.0169  0.5592
14445SOL     OW55393   3.440   4.561   5.061 -0.3160 -0.3332  0.8033
14445SOL    HW155394   3.400   4.557   5.152  1.2558 -3.1757  1.4266
14445SOL    HW255395   3.392   4.497   5.001  0.9774 -1.1584  0.6288
14446SOL     OW55396   4.361   4.958   9.348  0.7419 -0.4149  0.1762
14446SOL    HW155397   4.399   4.988   9.436 -0.7549  0.8656  0.4193
14446SOL    HW255398   4.401   4.871   9.322  1.8226 -0.4005  1.7276
14447SOL     OW55399   0.483   7.610   5.503  0.1867  0.0149  0.3764
14447SOL    HW155400   0.511   7.550   5.428 -1.9556 -0.0897 -0.3559
14447SOL    HW255401   0.563   7.661   5.536  1.7965 -2.2758  0.1611
14448SOL     OW55402   3.779   2.074   1.039 -0.2840 -0.2499 -0.4566
14448SOL    HW155403   3.860   2.113   0.996 -1.1282  1.0194 -0.9263
14448SOL    HW255404   3.731   2.015   0.973  0.0518 -0.7177 -0.2888
14449SOL     OW55405   3.387   5.157   4.734 -0.8201  0.5076  0.0192
14449SOL    HW155406   3.298   5.119   4.710 -0.9420 -0.5459  1.9836
14449SOL    HW255407   3.438   5.089   4.788  1.3931  0.8713 -1.5587
14450SOL     OW55408   1.669   8.765   4.580 -0.6390  0.0741  0.2066
14450SOL    HW155409   1.700   8.787   4.487 -0.6456 -0.7241  0.0147
14450SOL    HW255410   1.585   8.711   4.575  0.1948 -1.2576  0.6550
14451SOL     OW55411   0.468   6.125   6.682  0.2221  0.4843 -0.1677
14451SOL    HW155412   0.420   6.038   6.671  1.8282 -0.1302 -2.5037
14451SOL    HW255413   0.489   6.139   6.779  0.4724 -2.0173  0.1780
14452SOL     OW55414   8.046   1.231   7.800 -0.9243 -0.3287 -0.2423
14452SOL    HW155415   8.141   1.204   7.814 -1.2162 -1.4106 -0.3049
14452SOL    HW255416   8.036   1.330   7.817  0.8705  0.4704 -3.5394
14453SOL     OW55417   2.412   9.531   5.445 -0.1375 -0.5794 -0.4834
14453SOL    HW155418   2.332   9.514   5.388 -0.4600  0.6113 -0.3893
14453SOL    HW255419   2.431   9.450   5.501  0.2661 -1.8218 -2.3601
14454SOL     OW55420   3.119   4.105   3.173 -0.3685 -0.3114  0.2611
14454SOL    HW155421   3.107   4.202   3.156 -0.9101 -0.1928  1.2856
14454SOL    HW255422   3.069   4.052   3.104  0.6167  0.1222 -0.7944
14455SOL     OW55423   8.767   3.165   2.400 -0.1311  0.5755 -0.5804
14455SOL    HW155424   8.808   3.239   2.346  0.2726  1.1843  0.5394
14455SOL    HW255425   8.710   3.205   2.472 -0.0857 -0.2066 -0.1099
14456SOL     OW55426   6.304   7.323   6.236 -0.6547  0.1038  0.3326
14456SOL    HW155427   6.283   7.362   6.146  0.0330 -0.3804 -0.0442
14456SOL    HW255428   6.224   7.275   6.271 -0.5439 -0.7824 -0.5936
14457SOL     OW55429   8.583   3.771   3.079  0.1642  0.1135  0.3265
14457SOL    HW155430   8.653   3.711   3.041 -1.2493 -1.7397  0.5686
14457SOL    HW255431   8.549   3.833   3.008  1.5403  0.5463  0.0359
14458SOL     OW55432   3.173   1.727   1.726 -0.6359 -0.7716 -0.0615
14458SOL    HW155433   3.122   1.716   1.642  0.8232 -0.2494 -1.0365
14458SOL    HW255434   3.224   1.813   1.723  0.4252 -1.3563  0.8145
14459SOL     OW55435   8.338   1.441   8.870  0.1055 -0.3220 -0.3364
14459SOL    HW155436   8.396   1.398   8.802 -1.0276  0.9818 -2.1788
14459SOL    HW255437   8.380   1.528   8.899  1.1826 -1.4415  1.5587
14460SOL     OW55438   5.023   8.781   6.191  0.2496  0.0604 -0.1509
14460SOL    HW155439   5.020   8.867   6.242 -1.4380  0.5544 -1.0460
14460SOL    HW255440   4.953   8.782   6.120 -0.7678 -2.6196  0.7296
14461SOL     OW55441   5.380   4.341   0.766  0.2876  0.1693  0.4889
14461SOL    HW155442   5.325   4.267   0.805 -1.2439 -0.1168 -2.0746
14461SOL    HW255443   5.320   4.410   0.726  1.7486  1.8675  1.1454
14462SOL     OW55444   3.017   9.380   0.257 -0.0434 -0.4249  0.7432
14462SOL    HW155445   2.938   9.348   0.205  0.1951 -0.0648  0.1496
14462SOL    HW255446   2.995   9.467   0.301  0.7728  0.8737 -1.3507
14463SOL     OW55447   3.307   7.310   3.052  0.8208 -0.1490 -0.2856
14463SOL    HW155448   3.377   7.263   2.998  1.0684  1.0555 -1.0212
14463SOL    HW255449   3.295   7.403   3.018 -2.1449 -0.7859 -1.0724
14464SOL     OW55450   4.845   9.986   8.293 -0.0105  0.0403 -0.2185
14464SOL    HW155451   4.804  10.066   8.249  0.7394 -0.4707 -1.8972
14464SOL    HW255452   4.773   9.929   8.333 -0.5875  1.2555  0.4819
14465SOL     OW55453   2.916   1.804   6.196 -0.2903 -0.1101  0.4523
14465SOL    HW155454   2.869   1.763   6.118  2.4302 -1.2099 -0.6954
14465SOL    HW255455   2.884   1.897   6.210 -2.5438 -0.7192 -0.4481
14466SOL     OW55456   4.250   9.921   8.621 -0.1337  0.3601 -0.1331
14466SOL    HW155457   4.320   9.850   8.622 -0.5524 -0.0819 -1.2833
14466SOL    HW255458   4.280   9.996   8.562 -1.0011 -0.2222 -1.3266
14467SOL     OW55459   5.570   0.816   6.940 -0.1629 -0.3877 -0.7771
14467SOL    HW155460   5.597   0.735   6.887 -0.2810 -0.9264 -0.0257
14467SOL    HW255461   5.639   0.888   6.928  1.1024 -1.3878  0.3050
14468SOL     OW55462   6.939   1.941   4.445  0.1079 -0.3855 -0.1195
14468SOL    HW155463   6.943   1.931   4.544  0.8610  0.0818 -0.0973
14468SOL    HW255464   6.853   1.985   4.419  0.2228  0.1424  0.3804
14469SOL     OW55465   4.255   8.929   3.730 -0.2395  0.5194 -0.0299
14469SOL    HW155466   4.283   8.860   3.663  2.1339 -0.7476  2.1775
14469SOL    HW255467   4.297   9.017   3.708  0.3575  0.1605 -0.3347
14470SOL     OW55468   8.402   7.489   8.229 -0.4696  0.2113  0.1473
14470SOL    HW155469   8.309   7.471   8.262 -0.6731  2.0270  0.6006
14470SOL    HW255470   8.412   7.452   8.137 -1.2760 -0.9980  0.5273
14471SOL     OW55471   1.200   1.571   0.976 -0.0313  0.1196  0.3384
14471SOL    HW155472   1.247   1.626   0.907 -1.7289  1.4833  0.2190
14471SOL    HW255473   1.153   1.632   1.040 -1.7578 -1.1816  0.3519
14472SOL     OW55474   6.705   7.481   6.380  0.0644 -0.7593 -0.3868
14472SOL    HW155475   6.791   7.454   6.338  1.1230  0.2102  1.0685
14472SOL    HW255476   6.706   7.455   6.477 -0.8755  0.0694 -0.1426
14473SOL     OW55477   2.322   7.216   9.404 -0.3065 -0.0857 -0.0932
14473SOL    HW155478   2.333   7.315   9.418  0.4185 -0.6052  3.4778
14473SOL    HW255479   2.409   7.170   9.422 -1.3595 -1.6383  1.1139
14474SOL     OW55480   9.532   7.112   4.288 -0.0172 -0.0515 -0.1391
14474SOL    HW155481   9.628   7.091   4.304  0.0260  0.4542  0.3067
14474SOL    HW255482   9.474   7.056   4.347 -0.0035 -0.4440 -0.4967
14475SOL     OW55483   0.720   3.377   9.029 -0.1796  0.0339 -0.0559
14475SOL    HW155484   0.731   3.279   9.011 -1.6433 -0.2598  0.5363
14475SOL    HW255485   0.628   3.394   9.065  0.0368  1.6421 -0.2185
14476SOL     OW55486   1.265   0.996   1.462 -0.1462 -0.1963 -0.0590
14476SOL    HW155487   1.238   0.916   1.407 -0.0130 -0.7506  0.6816
14476SOL    HW255488   1.310   0.965   1.545  0.1543  0.6663  0.0988
14477SOL     OW55489   0.784   8.382   2.555 -0.6459 -0.4590 -0.0512
14477SOL    HW155490   0.686   8.364   2.544 -0.6032 -1.0232  0.4795
14477SOL    HW255491   0.837   8.314   2.505 -0.5002 -1.1992  1.1079
14478SOL     OW55492   2.842   8.005   1.206 -0.0283  0.1726 -0.2044
14478SOL    HW155493   2.869   8.057   1.286  0.7456 -0.1758 -0.2323
14478SOL    HW255494   2.906   7.929   1.192 -0.7018 -0.3348 -0.5996
14479SOL     OW55495   2.471   9.834   7.307  0.4976 -0.7675 -0.0796
14479SOL    HW155496   2.427   9.746   7.324  2.3924 -1.7951 -0.3846
14479SOL    HW255497   2.570   9.824   7.314  0.7948  1.0856 -1.2573
14480SOL     OW55498   1.671   3.267   6.041  0.3664  0.0732  0.3316
14480SOL    HW155499   1.584   3.278   5.993 -1.2485 -1.9124  2.7188
14480SOL    HW255500   1.726   3.198   5.995 -0.2081 -0.2007  0.0542
14481SOL     OW55501   5.411   2.809   7.082 -0.1892  0.0323 -0.3537
14481SOL    HW155502   5.409   2.908   7.069  0.1326  0.2049  0.8796
14481SOL    HW255503   5.503   2.775   7.063 -0.1073  0.0738 -0.0308
14482SOL     OW55504   2.608   2.557   9.574  0.5648 -0.4742 -0.3734
14482SOL    HW155505   2.605   2.522   9.667  0.0983  1.5144  0.4015
14482SOL    HW255506   2.660   2.642   9.572 -2.0056  1.1528 -1.3170
14483SOL     OW55507   0.626   3.443   2.525  0.3642  0.1084  0.5686
14483SOL    HW155508   0.700   3.388   2.563 -0.6661 -0.8828  1.1639
14483SOL    HW255509   0.607   3.520   2.586 -0.9833 -1.2283  1.8885
14484SOL     OW55510   1.824   4.268   1.229 -0.3160 -0.0681 -0.8175
14484SOL    HW155511   1.773   4.188   1.262 -0.4409 -0.1580 -1.2224
14484SOL    HW255512   1.807   4.346   1.289  0.2317 -0.4892 -0.1039
14485SOL     OW55513   1.621   7.867   2.720  0.1803  0.0582  0.1786
14485SOL    HW155514   1.546   7.822   2.671  0.1972  0.8729 -0.6275
14485SOL    HW255515   1.661   7.804   2.786 -0.4379 -0.7728 -0.2292
14486SOL     OW55516   5.432   0.458   4.754 -0.1027 -0.1149 -0.9747
14486SOL    HW155517   5.501   0.529   4.771 -1.8824  2.1738 -2.9010
14486SOL    HW255518   5.476   0.368   4.751  2.3921  1.0213  0.2845
14487SOL     OW55519   7.486   5.707   1.235  0.6767 -0.2672  0.3030
14487SOL    HW155520   7.555   5.674   1.299 -0.2716 -0.2926  1.3356
14487SOL    HW255521   7.492   5.807   1.229  2.3455 -0.4413 -1.4309
14488SOL     OW55522   4.700   1.125   0.910 -0.5848  0.1688 -0.0373
14488SOL    HW155523   4.693   1.212   0.862  2.5210  1.7951  2.3320
14488SOL    HW255524   4.642   1.127   0.992 -0.5331 -0.0293  0.0058
14489SOL     OW55525   6.985   7.852   4.621 -0.0413  0.1392  0.5317
14489SOL    HW155526   6.964   7.770   4.568 -0.9510 -1.2903  3.0018
14489SOL    HW255527   7.084   7.859   4.635 -0.0046 -0.9075  0.8401
14490SOL     OW55528   9.041   9.501   7.051 -0.0969  0.0848  0.5693
14490SOL    HW155529   8.977   9.571   7.083 -1.4698 -1.0887  0.3930
14490SOL    HW255530   9.087   9.460   7.130 -2.0486 -1.4299  0.9697
14491SOL     OW55531   3.024   4.681   8.685 -0.6183 -0.1048 -0.5868
14491SOL    HW155532   3.079   4.598   8.679  0.6504  0.4796  2.1086
14491SOL    HW255533   2.958   4.683   8.610  0.2131 -2.8780 -1.4487
14492SOL     OW55534   2.253   8.952   8.817 -0.7846  0.1008  0.2877
14492SOL    HW155535   2.168   8.921   8.860 -0.4922 -0.5604  0.4063
14492SOL    HW255536   2.329   8.939   8.881 -0.6550  1.0828  0.3345
14493SOL     OW55537   3.845   4.291   4.708  0.1997 -0.2370  0.0918
14493SOL    HW155538   3.879   4.342   4.629 -0.9262 -1.4174 -1.1864
14493SOL    HW255539   3.834   4.194   4.683 -2.9209 -0.1127  0.7855
14494SOL     OW55540   8.831   8.009   0.282  0.2486  0.6320 -0.3151
14494SOL    HW155541   8.811   7.921   0.239  0.7449 -0.0609  0.8375
14494SOL    HW255542   8.746   8.053   0.311 -0.0654  0.9723 -1.7355
14495SOL     OW55543   9.368   2.037   5.816  0.3206 -0.5325 -0.2947
14495SOL    HW155544   9.390   1.959   5.757 -2.3529 -1.8743  0.3969
14495SOL    HW255545   9.376   2.122   5.764  0.1717 -1.5277 -1.9708
14496SOL     OW55546   9.701   3.321   3.232 -0.8611 -0.6268 -0.3587
14496SOL    HW155547   9.778   3.269   3.269 -0.2260  0.0702 -0.6694
14496SOL    HW255548   9.652   3.365   3.307 -0.5001 -0.4589 -0.2173
14497SOL     OW55549   9.781   7.741   2.423 -0.1684 -0.8396 -0.1976
14497SOL    HW155550   9.694   7.699   2.399  0.1844 -1.2269 -0.8270
14497SOL    HW255551   9.856   7.678   2.402  0.3047 -0.2704 -0.2592
14498SOL     OW55552   7.349   1.001   5.064  0.6547  0.2592 -0.1903
14498SOL    HW155553   7.274   0.972   5.123 -1.6850  0.8815 -2.7336
14498SOL    HW255554   7.426   1.033   5.120 -1.8125  1.7083  2.4930
14499SOL     OW55555   3.319   7.682   5.193 -0.2111 -0.2237 -0.5074
14499SOL    HW155556   3.345   7.598   5.146 -0.5764  0.2879 -1.6402
14499SOL    HW255557   3.339   7.674   5.291 -0.0508 -1.5392 -0.6502
14500SOL     OW55558   0.770   9.197   9.302 -0.2260 -0.0640 -0.1240
14500SOL    HW155559   0.674   9.224   9.312 -0.0594  0.5203 -0.0919
14500SOL    HW255560   0.780   9.100   9.325 -0.7411 -0.0329  0.2406
14501SOL     OW55561   0.992   9.619   9.223  0.4410 -0.5548 -0.3677
14501SOL    HW155562   1.085   9.592   9.246  0.5114  0.5661  0.6910
14501SOL    HW255563   0.932   9.600   9.301  0.1327  0.5215 -0.3445
14502SOL     OW55564   1.664   5.018   2.671  0.2577  0.0485 -0.5402
14502SOL    HW155565   1.601   5.085   2.633 -2.8303 -0.4455  3.3814
14502SOL    HW255566   1.688   5.044   2.765  0.8369 -3.1015  0.2390
14503SOL     OW55567   9.929   4.885   3.864  0.2250 -0.0736  0.0976
14503SOL    HW155568   9.930   4.861   3.961 -0.5379 -3.8357 -0.7428
14503SOL    HW255569  10.018   4.922   3.838  0.9236 -0.4308  1.9139
14504SOL     OW55570   3.601   0.146  10.031  0.5785 -0.1831 -0.4895
14504SOL    HW155571   3.575   0.125   9.936  1.3900  0.1649 -0.7957
14504SOL    HW255572   3.594   0.245  10.046 -0.4605 -0.3465  0.0931
14505SOL     OW55573   0.846   6.321   3.949  0.3022 -0.4632  0.4854
14505SOL    HW155574   0.821   6.413   3.919  2.2806  0.7694  2.4785
14505SOL    HW255575   0.918   6.286   3.889 -0.5834 -0.8070 -0.3894
14506SOL     OW55576   1.798   5.007   0.464 -0.2304 -0.3879  0.0269
14506SOL    HW155577   1.778   4.926   0.410  0.2676  0.4930 -1.4916
14506SOL    HW255578   1.841   5.077   0.407 -3.0640  1.9977  0.6820
14507SOL     OW55579   5.312   0.313   4.091  0.5530 -0.4146  0.1372
14507SOL    HW155580   5.371   0.321   4.011 -0.0465  1.0518 -0.1736
14507SOL    HW255581   5.252   0.393   4.097  0.7799 -0.3663  2.2107
14508SOL     OW55582   4.490   6.239   2.162  1.0575 -0.3857 -0.0252
14508SOL    HW155583   4.454   6.219   2.253 -0.3541  1.4812 -0.1306
14508SOL    HW255584   4.541   6.161   2.128 -0.8563 -2.2070  1.1733
14509SOL     OW55585   5.085   3.427   5.126  0.6807 -0.1861  0.6415
14509SOL    HW155586   5.010   3.361   5.115  2.0424 -1.4929 -1.0812
14509SOL    HW255587   5.064   3.509   5.073 -0.1748  0.0498  1.3225
14510SOL     OW55588   3.169   2.159   5.514  0.4833 -0.0819  0.2418
14510SOL    HW155589   3.158   2.258   5.523  2.7674  0.1546  0.7281
14510SOL    HW255590   3.230   2.126   5.586 -0.6571 -1.9307  0.3903
14511SOL     OW55591   0.417   8.051   0.856  0.6117 -0.0194  0.7225
14511SOL    HW155592   0.318   8.056   0.867  0.4175 -1.4269 -0.2846
14511SOL    HW255593   0.453   8.142   0.837 -0.7010  0.2462 -0.5968
14512SOL     OW55594   4.283   5.684   8.650 -0.1512  0.0441 -1.0266
14512SOL    HW155595   4.251   5.662   8.742 -0.6468  0.6686 -1.0445
14512SOL    HW255596   4.365   5.630   8.629 -1.1410 -1.5336 -0.9518
14513SOL     OW55597   9.693   7.673   3.132 -0.5274  0.1042 -0.1308
14513SOL    HW155598   9.713   7.577   3.151 -0.0481  0.4561  1.2226
14513SOL    HW255599   9.778   7.723   3.121 -0.7590  0.5676  0.1839
14514SOL     OW55600   6.332   8.985   5.244  0.2609 -0.2842  0.0348
14514SOL    HW155601   6.289   8.896   5.256 -0.8530 -0.0639 -2.1115
14514SOL    HW255602   6.286   9.053   5.300 -0.4935 -0.5729 -0.2357
14515SOL     OW55603   0.394   2.120   1.102  0.3855  0.2029  0.6251
14515SOL    HW155604   0.420   2.216   1.089 -0.1800  0.3145  0.3081
14515SOL    HW255605   0.372   2.104   1.198 -1.3375  0.8461  0.3505
14516SOL     OW55606   2.085   0.392   5.771  0.2575  0.1553 -0.1683
14516SOL    HW155607   2.037   0.383   5.859 -0.3728  0.4012 -0.4816
14516SOL    HW255608   2.021   0.426   5.702  0.3522 -1.5054 -1.0953
14517SOL     OW55609   4.766   3.571   1.075  0.4585  0.0202 -0.4919
14517SOL    HW155610   4.790   3.664   1.103 -1.5979  0.2495  0.6391
14517SOL    HW255611   4.835   3.536   1.012  2.1242  1.7036  0.3414
14518SOL     OW55612   7.882   3.673   9.213 -0.2492  0.4184  0.2218
14518SOL    HW155613   7.876   3.619   9.129 -0.3321 -0.9593  1.0875
14518SOL    HW255614   7.796   3.666   9.263  0.4522 -0.3835  1.3607
14519SOL     OW55615   1.259   5.981   2.017 -0.1113  0.7331  0.0402
14519SOL    HW155616   1.232   5.961   2.111 -0.2652 -0.7173 -0.2989
14519SOL    HW255617   1.208   5.921   1.955  1.0664  0.6639 -0.8697
14520SOL     OW55618   7.561   3.823   3.505  0.6860  0.0555  0.7718
14520SOL    HW155619   7.634   3.780   3.558  1.1037 -1.2363 -0.7982
14520SOL    HW255620   7.565   3.790   3.410  0.1526  2.5551 -0.1447
14521SOL     OW55621   8.609   8.504   2.219 -0.3524 -0.6703  0.4205
14521SOL    HW155622   8.698   8.498   2.263 -0.3546  2.4607  0.9775
14521SOL    HW255623   8.621   8.514   2.121  0.2047  4.1566  0.8507
14522SOL     OW55624   8.179   5.895   6.235  0.2019  0.5211 -0.3596
14522SOL    HW155625   8.232   5.970   6.274  1.2098 -0.6113  0.4663
14522SOL    HW255626   8.216   5.808   6.266 -0.1976 -0.3634 -2.2983
14523SOL     OW55627   2.735   2.352   9.796  0.1208  0.3906 -0.0345
14523SOL    HW155628   2.780   2.441   9.805  0.7569 -0.0045  0.8753
14523SOL    HW255629   2.777   2.287   9.860  0.5234 -0.9176 -1.5827
14524SOL     OW55630   9.910   9.894   2.576  0.4062 -0.2991  0.5552
14524SOL    HW155631   9.913   9.944   2.489  2.9346 -0.3541  0.5728
14524SOL    HW255632   9.843   9.820   2.570  0.4591 -0.2193 -1.3113
14525SOL     OW55633   4.514   7.786   4.768 -0.1810 -0.4284 -0.5350
14525SOL    HW155634   4.462   7.820   4.846 -1.4559 -1.1133 -1.0834
14525SOL    HW255635   4.607   7.765   4.798  0.0641  1.6478  0.2445
14526SOL     OW55636   1.570   0.369   7.420  0.5055 -0.2048  0.4030
14526SOL    HW155637   1.648   0.429   7.402  0.6884  0.0931  2.0730
14526SOL    HW255638   1.558   0.305   7.344  0.5654  1.6577 -1.2025
14527SOL     OW55639   3.410   3.282   3.313 -0.7457  0.0515  0.0507
14527SOL    HW155640   3.376   3.188   3.311 -0.9248  0.1276 -1.7220
14527SOL    HW255641   3.490   3.289   3.254  0.0295  0.7423  1.1731
14528SOL     OW55642   1.991   7.026   1.877 -0.1883  0.2190 -0.6199
14528SOL    HW155643   1.969   7.025   1.975  1.5932  0.6787 -0.2041
14528SOL    HW255644   2.018   6.934   1.848 -0.4934  0.1330 -0.6352
14529SOL     OW55645   8.109   8.705   2.046 -0.0124  0.0832 -0.3024
14529SOL    HW155646   8.101   8.774   1.974  0.1092  0.5732  0.1448
14529SOL    HW255647   8.060   8.622   2.019 -0.5279  0.5012 -0.6568
14530SOL     OW55648   0.190   0.180   6.510 -0.3988  0.2259 -0.0437
14530SOL    HW155649   0.215   0.139   6.598  1.4272 -1.9277 -1.5352
14530SOL    HW255650   0.100   0.146   6.482  0.2579 -1.2627 -0.3481
14531SOL     OW55651   8.869   9.559   6.732  0.1786  0.3906 -0.5618
14531SOL    HW155652   8.969   9.556   6.728  0.1642  0.3895 -0.9018
14531SOL    HW255653   8.832   9.467   6.727  0.1485  0.4121 -0.7542
14532SOL     OW55654   1.888   5.931   5.676  0.2909  0.1365  0.0723
14532SOL    HW155655   1.807   5.872   5.677  0.8479 -0.6498  2.1007
14532SOL    HW255656   1.917   5.948   5.770  0.5372  3.1510 -0.5108
14533SOL     OW55657   8.059   9.261   7.862  0.0737 -0.4457  0.0774
14533SOL    HW155658   7.994   9.187   7.844 -0.3648  0.3979 -1.8701
14533SOL    HW255659   8.151   9.232   7.834 -0.0546 -0.3420 -0.4509
14534SOL     OW55660   2.675   6.425   5.953  0.2426  0.4047 -0.1026
14534SOL    HW155661   2.731   6.482   5.893 -0.7495  1.5177  0.0269
14534SOL    HW255662   2.714   6.332   5.956  1.6870  0.9816 -0.5437
14535SOL     OW55663   9.492   1.674   6.346  0.2492 -0.5716 -0.1839
14535SOL    HW155664   9.441   1.747   6.391  0.0985 -0.8148  0.0480
14535SOL    HW255665   9.590   1.691   6.354  0.2010  0.0841 -0.9420
14536SOL     OW55666   8.570   6.371   1.865  0.1164  0.4663  0.0432
14536SOL    HW155667   8.628   6.445   1.901  1.6310 -0.0480 -1.3041
14536SOL    HW255668   8.494   6.356   1.928  0.8526  1.8655  1.3192
14537SOL     OW55669   8.296   3.076   7.456 -0.1244  0.6639  0.1715
14537SOL    HW155670   8.371   3.012   7.471  1.0965  2.3467  1.4034
14537SOL    HW255671   8.210   3.035   7.488  1.1875  1.0158  4.5270
14538SOL     OW55672   9.629   3.511   8.146  0.1433 -0.6071 -0.1146
14538SOL    HW155673   9.547   3.561   8.115  1.8856  1.2284 -1.9768
14538SOL    HW255674   9.664   3.553   8.230 -0.4778 -1.0287  0.3609
14539SOL     OW55675   2.477   4.393   2.446  0.2890  0.1230 -1.0232
14539SOL    HW155676   2.544   4.459   2.413 -0.0878  0.3579 -1.3213
14539SOL    HW255677   2.508   4.355   2.533 -1.2423  3.4751  1.0947
14540SOL     OW55678   4.323   7.612   4.679  0.5609  0.2433 -0.3222
14540SOL    HW155679   4.412   7.654   4.695  1.0460 -1.2651  1.0188
14540SOL    HW255680   4.272   7.668   4.614  1.8887  1.9260  0.0301
14541SOL     OW55681   8.347   8.502   1.790  0.2048 -0.0775  0.3114
14541SOL    HW155682   8.366   8.516   1.888  2.2188  0.0388 -0.0712
14541SOL    HW255683   8.357   8.405   1.768  2.2988  0.2352 -0.2603
14542SOL     OW55684   8.898   1.538   8.977  0.2977 -0.1542  0.4199
14542SOL    HW155685   8.868   1.610   9.040 -0.5254  0.6743 -0.9057
14542SOL    HW255686   8.906   1.576   8.885 -0.6623 -1.9002 -0.3983
14543SOL     OW55687   1.719   7.405   9.326 -0.4259 -0.1165 -0.4317
14543SOL    HW155688   1.669   7.475   9.276 -0.9229  1.0264  1.6191
14543SOL    HW255689   1.752   7.442   9.413  0.9470 -1.8728 -0.1630
14544SOL     OW55690   7.221   8.744   5.046 -0.1572  0.2196 -0.5378
14544SOL    HW155691   7.191   8.668   5.103 -2.5019  0.0814 -1.8993
14544SOL    HW255692   7.288   8.712   4.979  0.5195 -0.1807  0.3285
14545SOL     OW55693   0.041   8.716   9.413 -0.1111 -0.4898  0.2991
14545SOL    HW155694   0.028   8.815   9.421  0.3087 -0.4675  0.7243
14545SOL    HW255695  -0.023   8.669   9.474 -1.4951 -0.5380 -1.1807
14546SOL     OW55696   2.987   2.195   7.914 -0.0109 -0.1311 -0.1467
14546SOL    HW155697   2.907   2.175   7.969  0.7296  0.8567  1.3402
14546SOL    HW255698   3.068   2.152   7.954  0.6697  1.2324 -0.0015
14547SOL     OW55699   7.917   3.336   1.870  0.3053 -0.3735 -0.2415
14547SOL    HW155700   7.926   3.408   1.802 -1.3776 -0.4994 -0.6204
14547SOL    HW255701   7.906   3.248   1.824 -2.8862 -0.2236  0.0976
14548SOL     OW55702   9.714   3.055   8.556  0.3047 -0.3826  0.2629
14548SOL    HW155703   9.748   2.979   8.501  0.4319  0.0287 -0.2326
14548SOL    HW255704   9.676   3.125   8.496 -1.4655 -0.8469  0.8107
14549SOL     OW55705   0.249   4.168   9.220  0.1592  0.7371 -1.1973
14549SOL    HW155706   0.217   4.164   9.126 -2.5261 -3.0504 -0.2248
14549SOL    HW255707   0.261   4.075   9.255  1.0051  2.0725  2.2619
14550SOL     OW55708   9.113   6.019   9.726 -0.0200 -0.5522 -0.1213
14550SOL    HW155709   9.201   5.971   9.732  0.3849  0.1766 -0.2389
14550SOL    HW255710   9.086   6.052   9.816  0.5691  0.5488 -0.3448
14551SOL     OW55711   7.547   5.813   1.544  0.3919  0.0093 -0.0243
14551SOL    HW155712   7.482   5.737   1.543  0.6286 -0.2220  1.1673
14551SOL    HW255713   7.501   5.897   1.514 -0.0158 -0.4891 -0.7947
14552SOL     OW55714   3.238   3.672   5.078  0.1307  0.1002 -0.3396
14552SOL    HW155715   3.277   3.764   5.075 -0.4218  0.3214 -1.0215
14552SOL    HW255716   3.277   3.621   5.154 -0.3337  1.2500  0.6835
14553SOL     OW55717   5.797   1.292   1.348 -0.1306 -0.1685  0.4374
14553SOL    HW155718   5.871   1.340   1.301 -0.5635 -1.0499 -1.1797
14553SOL    HW255719   5.714   1.295   1.292 -1.4402  1.1312  2.4047
14554SOL     OW55720   9.434   7.194   2.987 -0.2772 -0.4359  0.0639
14554SOL    HW155721   9.426   7.096   3.004  0.6015 -0.1414  2.3705
14554SOL    HW255722   9.530   7.218   2.977 -0.4245  0.3364  0.4796
14555SOL     OW55723   0.540   3.229   9.676 -0.3874  0.4294  0.0551
14555SOL    HW155724   0.540   3.237   9.576 -1.5126  0.4590  0.0576
14555SOL    HW255725   0.520   3.318   9.717 -0.9920  0.1865  0.2884
14556SOL     OW55726   8.439   0.534   5.324 -0.3109 -0.1834 -0.0445
14556SOL    HW155727   8.359   0.523   5.266  0.1114  0.5277 -0.7809
14556SOL    HW255728   8.515   0.570   5.269 -0.3988  2.1208  1.2710
14557SOL     OW55729   1.206   2.358   9.249  1.0215  0.4882  0.5919
14557SOL    HW155730   1.251   2.427   9.192  0.6298 -0.0272 -0.3614
14557SOL    HW255731   1.275   2.300   9.292  1.2955 -1.5013 -2.3557
14558SOL     OW55732   0.591   6.990   2.725  0.5236  0.4549  0.2227
14558SOL    HW155733   0.520   7.058   2.744  0.5476  0.1716  1.3817
14558SOL    HW255734   0.606   6.935   2.807 -0.1380 -1.5519 -0.9583
14559SOL     OW55735   7.394   1.607   2.959 -0.3163  0.1146  0.3770
14559SOL    HW155736   7.447   1.574   2.881  0.9946  0.4626  1.0993
14559SOL    HW255737   7.338   1.685   2.930  0.5621  0.5798 -0.1105
14560SOL     OW55738   3.580   2.318   2.100  0.7341  0.1167  0.3258
14560SOL    HW155739   3.521   2.237   2.093  1.8969 -0.9516  2.4566
14560SOL    HW255740   3.531   2.390   2.151 -0.0362  0.5170 -0.9638
14561SOL     OW55741   1.064   3.977   9.309  0.1605 -0.4365 -0.0047
14561SOL    HW155742   0.996   3.990   9.237 -1.1557 -0.9252  1.1149
14561SOL    HW255743   1.080   4.064   9.356  0.0247 -0.3932 -0.0379
14562SOL     OW55744   2.641   1.694   4.852 -0.4086 -0.1855  0.7410
14562SOL    HW155745   2.555   1.737   4.824 -1.2418 -1.5076  1.2396
14562SOL    HW255746   2.708   1.765   4.874 -1.8890  0.8653  1.9367
14563SOL     OW55747   4.352   2.518   6.401 -0.2852  0.3525  0.1199
14563SOL    HW155748   4.291   2.440   6.384  1.9357 -1.1054 -1.4502
14563SOL    HW255749   4.356   2.575   6.319  1.9644 -0.6600 -0.5126
14564SOL     OW55750   5.484   3.830   6.815  0.3130  0.0650  0.7522
14564SOL    HW155751   5.403   3.827   6.756  1.3534 -0.6119 -0.6760
14564SOL    HW255752   5.459   3.803   6.908 -1.3508  1.1190  0.6351
14565SOL     OW55753   1.626   6.650   5.612  0.2288 -0.0737  0.3382
14565SOL    HW155754   1.694   6.702   5.561 -0.0823  1.7409  1.6910
14565SOL    HW255755   1.542   6.643   5.559  0.3787  0.5622  0.0128
14566SOL     OW55756   3.554   9.751   0.779  0.0149 -0.0281 -0.0890
14566SOL    HW155757   3.641   9.706   0.801 -0.8664 -1.9379 -0.3393
14566SOL    HW255758   3.488   9.682   0.748 -2.0505  1.1615  1.4925
14567SOL     OW55759   6.268   1.387   2.349  0.0554 -0.1649 -0.4023
14567SOL    HW155760   6.356   1.364   2.308  0.3494  0.8497 -0.3420
14567SOL    HW255761   6.270   1.481   2.383 -0.6240 -0.5672  0.7666
14568SOL     OW55762   8.684   5.500   8.521  1.1388  0.3377  0.0425
14568SOL    HW155763   8.781   5.484   8.505  1.2771  2.2459 -1.2114
14568SOL    HW255764   8.631   5.466   8.443  0.7986 -0.6294  0.6864
14569SOL     OW55765   0.063   2.385   4.436 -0.2411 -0.4129  0.7079
14569SOL    HW155766   0.087   2.349   4.527 -0.5337  1.3190  1.4894
14569SOL    HW255767   0.126   2.459   4.412 -2.2055  1.4097  0.9891
14570SOL     OW55768   2.361   0.283   4.921  0.1638 -0.5830  0.2609
14570SOL    HW155769   2.413   0.304   5.003 -1.6290  0.1772  1.2331
14570SOL    HW255770   2.378   0.188   4.895  1.3358 -0.6041  1.0585
14571SOL     OW55771   3.059   5.127   9.044 -0.5973  0.1444  0.2635
14571SOL    HW155772   3.012   5.171   8.968  1.2158  1.5694 -0.0618
14571SOL    HW255773   3.063   5.029   9.028 -2.7176  0.0837 -0.0890
14572SOL     OW55774   5.475   7.731   2.170 -0.7467  0.0615 -0.6216
14572SOL    HW155775   5.554   7.793   2.174 -0.9960  0.2792  1.7409
14572SOL    HW255776   5.391   7.784   2.163 -0.9210 -0.0329  0.7466
14573SOL     OW55777   0.844   3.636   3.882 -0.2832 -0.0010 -0.2298
14573SOL    HW155778   0.899   3.633   3.798  0.2583  0.4955  0.1008
14573SOL    HW255779   0.891   3.692   3.950 -0.8974 -0.1047  0.2813
14574SOL     OW55780   6.467   8.972   1.761 -0.9740  0.2844 -0.5414
14574SOL    HW155781   6.526   8.894   1.742 -0.5173  0.5817 -0.3577
14574SOL    HW255782   6.523   9.055   1.766 -1.2621  0.3955  0.8027
14575SOL     OW55783   2.593   0.071   9.145  0.9755 -0.2370 -0.3543
14575SOL    HW155784   2.636   0.144   9.091 -0.1327  0.0543 -0.8573
14575SOL    HW255785   2.569  -0.005   9.084  1.4502 -0.7089  0.0473
14576SOL     OW55786   0.330   5.246   8.062  0.5512 -0.4871 -0.6856
14576SOL    HW155787   0.422   5.280   8.043 -0.1659  1.2069 -1.1550
14576SOL    HW255788   0.291   5.295   8.139  0.3716 -1.8263  0.0844
14577SOL     OW55789   9.156   8.961   4.307  0.1888 -0.3830  0.0265
14577SOL    HW155790   9.152   8.861   4.305 -2.0868 -0.3674  1.7152
14577SOL    HW255791   9.138   8.997   4.216  1.1824 -1.5077 -0.6288
14578SOL     OW55792   5.227   9.624   8.915 -0.1998 -0.3070  0.3277
14578SOL    HW155793   5.190   9.683   8.843  0.2293 -0.9326 -0.4049
14578SOL    HW255794   5.169   9.543   8.925 -0.4526 -0.0649  0.9361
14579SOL     OW55795   3.954   3.447   6.487  0.2753  0.0424  0.5373
14579SOL    HW155796   3.884   3.447   6.559  0.7266  0.2626  0.9830
14579SOL    HW255797   3.920   3.398   6.407 -0.2478 -0.1730  0.8901
14580SOL     OW55798   9.511   1.357   1.021  0.1959 -0.6500 -0.2382
14580SOL    HW155799   9.534   1.445   1.062 -2.6141 -0.0302  0.1078
14580SOL    HW255800   9.521   1.285   1.089  2.0386 -0.5490 -0.3865
14581SOL     OW55801   2.479   7.481   6.522 -0.8265  0.3331  0.6324
14581SOL    HW155802   2.546   7.476   6.596 -0.3195  0.3612  0.1754
14581SOL    HW255803   2.525   7.473   6.434 -1.0825  3.1796  0.1953
14582SOL     OW55804   1.153   1.182   9.411 -0.5129  0.1527  0.2214
14582SOL    HW155805   1.087   1.256   9.425 -1.7983 -1.6817  4.6078
14582SOL    HW255806   1.126   1.128   9.332 -3.9816 -0.1965  1.5637
14583SOL     OW55807   2.832   8.909   4.338 -0.0527 -0.8392  0.4368
14583SOL    HW155808   2.910   8.968   4.358  0.7736 -2.6139  2.6771
14583SOL    HW255809   2.747   8.955   4.365  0.2417  0.7816 -1.2879
14584SOL     OW55810   6.915   1.257   5.297  0.3934  0.4685 -0.6405
14584SOL    HW155811   6.929   1.193   5.373  0.6591  0.2097 -0.9064
14584SOL    HW255812   6.833   1.229   5.246 -0.3081  1.1768  0.0923
14585SOL     OW55813   8.758   1.708   9.133  0.2113  0.3864 -0.0688
14585SOL    HW155814   8.774   1.748   9.223  0.4559  0.1805 -0.0198
14585SOL    HW255815   8.689   1.636   9.140  0.0855  0.5044 -0.0820
14586SOL     OW55816   5.131   1.792   4.572 -0.1840 -0.2933  0.3499
14586SOL    HW155817   5.105   1.886   4.593  1.0845  0.6620 -2.0991
14586SOL    HW255818   5.049   1.736   4.559 -0.9440  0.6973  0.8298
14587SOL     OW55819   3.430   3.558   3.746  0.1508  0.4761 -0.5059
14587SOL    HW155820   3.351   3.521   3.795  0.0323 -0.3859 -1.3431
14587SOL    HW255821   3.403   3.585   3.654  0.3251  2.3195 -0.0468
14588SOL     OW55822   9.628   1.061   2.217 -0.2070 -0.3928 -0.4839
14588SOL    HW155823   9.546   1.101   2.176  0.2429 -0.7592 -1.7481
14588SOL    HW255824   9.628   0.962   2.201 -0.6437 -0.7255  1.4675
14589SOL     OW55825   5.627   1.235   2.017  0.2175  0.1763  0.1492
14589SOL    HW155826   5.635   1.184   2.103 -1.1088  1.2656  0.9429
14589SOL    HW255827   5.543   1.209   1.970  0.2948  0.5175 -0.1864
14590SOL     OW55828   2.915   9.311   4.294 -0.0292  0.5784  0.1166
14590SOL    HW155829   2.835   9.320   4.354 -0.5766 -1.4975 -0.2969
14590SOL    HW255830   2.890   9.262   4.211  1.8629 -0.8411  0.3561
14591SOL     OW55831   8.504   2.347   7.750 -0.0158 -0.1032 -0.2072
14591SOL    HW155832   8.489   2.445   7.765  2.9290  0.2688  0.7147
14591SOL    HW255833   8.495   2.298   7.836 -2.3693 -0.8327 -0.8170
14592SOL     OW55834   9.777   4.637   4.437  0.3397  0.1835 -0.0482
14592SOL    HW155835   9.762   4.542   4.411 -2.7315  0.4568  0.4280
14592SOL    HW255836   9.802   4.642   4.534 -1.0307 -0.0755  0.3294
14593SOL     OW55837   6.595   6.979   5.410 -0.1111 -0.0534 -0.2117
14593SOL    HW155838   6.684   7.000   5.369  0.2126 -0.3242  0.3443
14593SOL    HW255839   6.609   6.934   5.498 -0.8054  0.6635  0.2630
14594SOL     OW55840   7.438   7.676   6.144 -0.0012 -0.5580 -0.5128
14594SOL    HW155841   7.344   7.705   6.164 -0.0650 -0.9284 -0.2770
14594SOL    HW255842   7.479   7.739   6.078  0.0210  0.3398  0.3632
14595SOL     OW55843   0.869   0.838   5.731 -0.1418 -0.3585 -0.1316
14595SOL    HW155844   0.960   0.848   5.690  0.0246  0.9452  0.5260
14595SOL    HW255845   0.873   0.866   5.827 -1.1864 -0.5739 -0.0214
14596SOL     OW55846   3.628   3.633   9.245 -0.4117 -0.0428 -0.6469
14596SOL    HW155847   3.607   3.700   9.316 -1.2438  1.3757 -2.1805
14596SOL    HW255848   3.720   3.596   9.259  0.8995  2.9856 -0.9744
14597SOL     OW55849   8.862   7.305   1.379  0.0192 -0.0302  0.3510
14597SOL    HW155850   8.804   7.326   1.457 -0.8889  0.0425 -0.3354
14597SOL    HW255851   8.881   7.206   1.378  0.3563  0.0257  0.8740
14598SOL     OW55852   2.815   4.433   8.872 -0.2366 -0.1173 -0.0521
14598SOL    HW155853   2.764   4.381   8.802  0.1225 -0.7921  0.1809
14598SOL    HW255854   2.900   4.468   8.832  1.6029 -3.3017  0.8826
14599SOL     OW55855   8.943   1.265   9.379 -0.1014 -0.2188 -0.4125
14599SOL    HW155856   8.968   1.356   9.411 -1.7337 -0.0387  0.3664
14599SOL    HW255857   9.024   1.206   9.381  0.5064  0.6337  1.1352
14600SOL     OW55858   9.317   1.368   5.315  0.3700 -0.1671  0.2458
14600SOL    HW155859   9.354   1.285   5.271 -0.3963 -0.9620  1.0941
14600SOL    HW255860   9.218   1.359   5.326  0.3503  0.6684  0.7719
14601SOL     OW55861   5.507   9.679   2.686  0.1082 -0.1293 -0.4368
14601SOL    HW155862   5.455   9.764   2.695  0.7172  0.1592  0.4395
14601SOL    HW255863   5.490   9.621   2.765  1.0527 -0.0623 -0.1754
14602SOL     OW55864   0.264   1.236   9.405  0.7974  0.2867  0.5911
14602SOL    HW155865   0.228   1.143   9.416 -0.9930  0.9310  0.3290
14602SOL    HW255866   0.315   1.262   9.487 -0.3691 -0.2101  1.4801
14603SOL     OW55867   4.346   6.422   0.185  0.3970  0.5670  0.0644
14603SOL    HW155868   4.310   6.338   0.225  1.7604 -0.4780 -0.8611
14603SOL    HW255869   4.421   6.456   0.241  1.2470 -0.0105 -0.7172
14604SOL     OW55870   2.876   3.927   4.410  0.8005  0.6783  0.2213
14604SOL    HW155871   2.931   3.927   4.326  0.9053 -1.1594  0.2724
14604SOL    HW255872   2.798   3.988   4.399  0.5895  0.1367 -1.3858
14605SOL     OW55873   3.958   2.605   8.427  0.6438 -0.3032  0.8747
14605SOL    HW155874   3.990   2.679   8.368 -1.3602  0.1867  0.3371
14605SOL    HW255875   3.916   2.644   8.509 -0.7846 -0.7925  0.4033
14606SOL     OW55876   0.254   0.054   9.688 -0.3072 -0.2990 -0.0271
14606SOL    HW155877   0.336  -0.003   9.687 -0.1948 -0.1702  0.8925
14606SOL    HW255878   0.183   0.012   9.631  0.1006 -0.8659 -0.1196
14607SOL     OW55879   2.996   9.205   6.465  0.0419  0.0478 -0.1768
14607SOL    HW155880   2.966   9.295   6.499  0.6852  1.4598 -3.2224
14607SOL    HW255881   3.095   9.205   6.453 -0.1819 -0.3546 -2.1760
14608SOL     OW55882   1.405   1.991   5.638  0.1023 -0.0336 -0.1739
14608SOL    HW155883   1.369   2.006   5.730 -0.8131 -1.9363 -0.2113
14608SOL    HW255884   1.333   2.012   5.571  0.3824  0.1598 -0.4178
14609SOL     OW55885   6.955   2.868   9.987  0.2261  0.9792  0.4219
14609SOL    HW155886   7.052   2.869   9.960  0.0801  0.4827 -0.1335
14609SOL    HW255887   6.902   2.823   9.916 -0.0656 -0.9610  1.8357
14610SOL     OW55888   5.283   5.046   1.665 -0.1849  0.0393 -0.2819
14610SOL    HW155889   5.364   5.079   1.712  0.0590 -2.0509  0.8177
14610SOL    HW255890   5.244   4.969   1.715 -0.8869 -1.1734 -2.6041
14611SOL     OW55891   4.157   1.039   2.965 -0.0807 -0.3880 -0.1202
14611SOL    HW155892   4.095   1.116   2.979 -1.9034 -1.2439 -3.1064
14611SOL    HW255893   4.132   0.964   3.027 -2.2185 -0.8159 -1.4679
14612SOL     OW55894   3.410   4.249   6.821 -0.0184  0.2943  0.1519
14612SOL    HW155895   3.360   4.171   6.858 -0.4804  1.2334  1.5309
14612SOL    HW255896   3.489   4.268   6.878  1.0766 -0.2337 -1.1699
14613SOL     OW55897   9.440   6.719   5.365  0.2035  0.2526 -0.0373
14613SOL    HW155898   9.357   6.717   5.421 -0.7232  1.5992 -1.3350
14613SOL    HW255899   9.476   6.626   5.358 -0.3066 -0.1245  1.8126
14614SOL     OW55900   2.512   7.533   8.521  0.2633 -0.2910 -0.0139
14614SOL    HW155901   2.450   7.612   8.525  3.6015  2.4855 -0.2610
14614SOL    HW255902   2.551   7.527   8.430  2.1786 -0.4569  0.7944
14615SOL     OW55903   0.215   2.779   8.104 -0.2422  0.2819 -0.6695
14615SOL    HW155904   0.299   2.830   8.087 -0.3357  0.6184 -0.1293
14615SOL    HW255905   0.232   2.681   8.094 -0.0271  0.4086 -1.5582
14616SOL     OW55906   6.941   8.904   6.358  0.7158 -0.2602  0.9086
14616SOL    HW155907   6.899   8.841   6.422 -0.2831 -0.3517  0.1784
14616SOL    HW255908   6.895   8.898   6.269  2.2221 -0.3042  0.1071
14617SOL     OW55909   6.170   7.777   5.085 -0.1856  0.3655  0.3443
14617SOL    HW155910   6.216   7.688   5.085  2.4088  1.6294 -0.9295
14617SOL    HW255911   6.186   7.822   5.173  0.8437  0.6793  0.0094
14618SOL     OW55912   2.473   7.197   4.750  0.2055  0.3409  0.4157
14618SOL    HW155913   2.498   7.264   4.680  0.4860  0.5649  0.7269
14618SOL    HW255914   2.556   7.168   4.799 -0.0651  0.6624  1.0745
14619SOL     OW55915   4.365   0.189   3.834  0.1693 -0.0849 -0.0121
14619SOL    HW155916   4.330   0.194   3.741 -2.0241  3.1956  0.8597
14619SOL    HW255917   4.417   0.272   3.854 -1.4304  0.4122  2.3727
14620SOL     OW55918   2.838   2.567   7.660  0.1351 -0.3767 -0.1323
14620SOL    HW155919   2.897   2.558   7.581 -1.5370 -0.0191 -1.4479
14620SOL    HW255920   2.770   2.494   7.660 -0.4850  0.1850  0.4502
14621SOL     OW55921   2.313   0.353   8.299  0.0453 -0.1339  0.5243
14621SOL    HW155922   2.397   0.317   8.258 -0.3861 -1.3436  0.6799
14621SOL    HW255923   2.241   0.284   8.291 -0.6956  0.5696  1.1562
14622SOL     OW55924   3.476   2.808   9.767  0.0582 -0.1065  0.6708
14622SOL    HW155925   3.443   2.842   9.679  0.3286  0.3020  0.7273
14622SOL    HW255926   3.461   2.878   9.837  1.9347  0.4687  0.5151
14623SOL     OW55927   0.030   3.259   9.767  0.1814  0.2633 -0.3386
14623SOL    HW155928   0.002   3.224   9.678  0.5274  0.2535 -0.4411
14623SOL    HW255929  -0.006   3.198   9.839  0.0569  0.1738 -0.4771
14624SOL     OW55930   4.772   1.099   9.179  0.5401  0.0980  0.0926
14624SOL    HW155931   4.792   1.179   9.236  0.1181 -0.0293  0.4250
14624SOL    HW255932   4.797   1.016   9.228 -0.6265 -0.0547  0.4477
14625SOL     OW55933   5.572   8.443   3.640  0.1156 -0.1780 -1.0083
14625SOL    HW155934   5.621   8.357   3.632  0.3246 -0.0354 -1.2528
14625SOL    HW255935   5.631   8.518   3.611 -0.7153 -0.1483 -2.7274
14626SOL     OW55936   6.666   0.121   8.204 -0.4674 -0.0811  0.0124
14626SOL    HW155937   6.639   0.132   8.300 -1.4307 -1.1416 -0.1268
14626SOL    HW255938   6.737   0.187   8.182 -0.4711  0.3965  1.3720
14627SOL     OW55939   8.524   5.579   6.214 -0.4457  0.5519 -0.0421
14627SOL    HW155940   8.597   5.543   6.272 -1.2087  0.5747  0.9452
14627SOL    HW255941   8.563   5.638   6.144  0.4482  0.9877  0.8079
14628SOL     OW55942   3.761   3.348   3.302 -0.1330 -0.2128 -0.0247
14628SOL    HW155943   3.861   3.348   3.304 -0.1354  0.6508  0.9097
14628SOL    HW255944   3.729   3.360   3.208  0.6655  1.9037 -0.0653
14629SOL     OW55945   9.862   2.416   7.687  0.4408 -0.0416 -0.5682
14629SOL    HW155946   9.765   2.423   7.666  0.7422  1.6334 -1.4877
14629SOL    HW255947   9.915   2.423   7.602  1.3228 -2.0425 -0.2003
14630SOL     OW55948   4.922   5.863   1.040 -0.6175  0.0532  0.3936
14630SOL    HW155949   4.849   5.800   1.014 -3.2783  2.3279  2.1446
14630SOL    HW255950   4.888   5.957   1.040  3.2684  1.6167 -2.1743
14631SOL     OW55951   0.054   6.595   6.031  0.0664  0.2208 -0.7246
14631SOL    HW155952   0.023   6.587   6.125  1.0483  0.3837 -0.3904
14631SOL    HW255953   0.102   6.511   6.004  0.5304  0.5168 -0.8118
14632SOL     OW55954   5.893   0.800   5.813  0.2640  0.2296 -0.0299
14632SOL    HW155955   5.902   0.771   5.908 -0.9598  0.2595  0.1031
14632SOL    HW255956   5.930   0.729   5.753  0.7737  0.0826  0.4529
14633SOL     OW55957   3.945   8.724   2.987 -0.1140 -0.0079 -0.5760
14633SOL    HW155958   3.946   8.755   2.892 -1.4775  1.0952 -0.2465
14633SOL    HW255959   4.038   8.704   3.017  0.4253  0.6183 -1.8174
14634SOL     OW55960   6.751   1.120   5.071 -0.5798 -0.6106 -0.5054
14634SOL    HW155961   6.816   1.058   5.028 -1.8751 -2.4996  0.1868
14634SOL    HW255962   6.778   1.215   5.053  1.1098 -1.3599 -2.0596
14635SOL     OW55963   0.859   6.366   7.857 -0.1280  0.3983 -0.1337
14635SOL    HW155964   0.772   6.319   7.843 -0.0494  0.0785  0.4588
14635SOL    HW255965   0.910   6.322   7.930  0.7527  0.2831 -0.8040
14636SOL     OW55966   3.028   3.723   5.703 -0.4573 -0.0468  0.0924
14636SOL    HW155967   3.013   3.626   5.720 -1.9048  0.1031 -0.2661
14636SOL    HW255968   2.960   3.777   5.754  0.3150  0.7732  0.2617
14637SOL     OW55969   9.554   3.986   4.424  0.2371  0.4639  0.3310
14637SOL    HW155970   9.575   3.953   4.516  0.7874 -0.6800 -0.1949
14637SOL    HW255971   9.550   3.908   4.361 -1.4081  1.1076 -0.3739
14638SOL     OW55972   3.704   3.637   4.326  0.4231  0.0815  0.2649
14638SOL    HW155973   3.792   3.620   4.371  0.0779  0.6689  1.1958
14638SOL    HW255974   3.703   3.730   4.290  0.6163 -0.3205 -0.7722
14639SOL     OW55975   3.022   7.452   1.182  0.4759  0.0881 -0.1860
14639SOL    HW155976   3.064   7.520   1.123 -0.5111  0.8038 -0.0729
14639SOL    HW255977   2.932   7.427   1.145  0.9953 -1.4398 -0.4447
14640SOL     OW55978   4.115   7.294   9.932 -0.4103  0.3165  0.3031
14640SOL    HW155979   4.209   7.276   9.962 -0.1954  0.6374 -0.1732
14640SOL    HW255980   4.094   7.239   9.851 -1.1782 -0.9653  1.3478
14641SOL     OW55981   9.707   9.793   6.821 -0.0999 -0.0301  0.4094
14641SOL    HW155982   9.791   9.769   6.772 -0.1883 -0.4535  0.4675
14641SOL    HW255983   9.725   9.796   6.919  0.0028  0.5310  0.3777
14642SOL     OW55984   9.726   1.339   6.026  0.1093  0.1648  0.3716
14642SOL    HW155985   9.656   1.306   6.089 -0.3669  2.4971  1.1136
14642SOL    HW255986   9.682   1.392   5.953  1.0476  1.5102  0.7541
14643SOL     OW55987   2.610   7.083   8.430  0.1886 -0.3007 -0.0021
14643SOL    HW155988   2.568   7.169   8.460  0.0557 -0.0326 -0.9364
14643SOL    HW255989   2.550   7.007   8.455 -0.6559  0.0472 -0.9161
14644SOL     OW55990   6.758   1.325   8.951  0.8727 -0.4757  0.3394
14644SOL    HW155991   6.693   1.253   8.929  0.5184  0.1781 -0.8051
14644SOL    HW255992   6.728   1.411   8.910  1.6734  0.1677  1.0680
14645SOL     OW55993   0.582   5.941   0.922  0.2894  0.7279 -0.8921
14645SOL    HW155994   0.533   5.874   0.978 -0.6863  1.4941 -0.8115
14645SOL    HW255995   0.576   5.914   0.825 -0.2528  0.7914 -0.8774
14646SOL     OW55996   3.692   3.549   3.510 -0.2944  0.2190 -0.0012
14646SOL    HW155997   3.674   3.512   3.419 -1.9796  0.1665  0.3493
14646SOL    HW255998   3.761   3.494   3.556 -1.0357 -1.0602 -0.4073
14647SOL     OW55999   9.122   5.262   3.281  0.0766  0.3291 -0.4543
14647SOL    HW156000   9.185   5.299   3.349 -0.9388  1.3337 -0.0473
14647SOL    HW256001   9.049   5.328   3.264 -0.1400 -0.2639 -1.9050
14648SOL     OW56002   3.111   7.316   6.144 -0.5231  0.1125 -0.2900
14648SOL    HW156003   3.031   7.267   6.179 -0.7670  0.7352  0.0342
14648SOL    HW256004   3.130   7.395   6.202  0.7698 -0.4325  0.0507
14649SOL     OW56005   1.414   7.823   8.944  0.5431  0.1635  0.4504
14649SOL    HW156006   1.474   7.823   8.864  0.6513 -2.9822  0.4425
14649SOL    HW256007   1.469   7.811   9.027  0.1567 -0.2967  0.6460
14650SOL     OW56008   6.507   2.739   4.700 -0.0303  0.1729  0.1965
14650SOL    HW156009   6.592   2.709   4.656 -1.2084  0.4028 -2.3327
14650SOL    HW256010   6.522   2.748   4.798  2.0538 -2.7237  0.2244
14651SOL     OW56011   3.477   3.565   6.131 -0.1157  0.0615  0.4701
14651SOL    HW156012   3.517   3.480   6.097  0.1623  0.3073  0.1775
14651SOL    HW256013   3.379   3.567   6.109 -0.0979 -0.1310  0.3743
14652SOL     OW56014   4.491   7.920   0.452  0.1897 -0.1501  0.1681
14652SOL    HW156015   4.564   7.927   0.384  0.0840  0.1903  0.0943
14652SOL    HW256016   4.458   7.825   0.454 -0.2778 -0.0117 -0.7334
14653SOL     OW56017   4.441   2.032   0.996 -0.6792  0.1990 -0.1139
14653SOL    HW156018   4.501   2.083   0.934 -1.3898  1.3786  0.1608
14653SOL    HW256019   4.407   2.093   1.067 -1.1720 -0.7758  0.4982
14654SOL     OW56020   8.866   6.320   1.142 -0.2821  0.3226  0.1951
14654SOL    HW156021   8.806   6.264   1.199 -0.8442  0.6485 -0.0614
14654SOL    HW256022   8.951   6.271   1.124 -0.6452 -0.3293  0.2185
14655SOL     OW56023   5.097   1.546   5.303 -0.0263 -1.1348  0.0551
14655SOL    HW156024   5.166   1.474   5.294 -0.6520 -1.9172  1.2285
14655SOL    HW256025   5.138   1.635   5.286  0.8103 -1.7532 -1.2522
14656SOL     OW56026   2.332   1.302   0.204 -0.1749 -0.1886 -0.0967
14656SOL    HW156027   2.298   1.287   0.111 -1.3848 -0.9387  0.4502
14656SOL    HW256028   2.420   1.349   0.200 -0.9873  1.2747 -1.5743
14657SOL     OW56029   6.924   2.495   0.429 -0.9962 -0.6460  0.2551
14657SOL    HW156030   6.826   2.478   0.431 -1.1948 -0.0081 -2.5045
14657SOL    HW256031   6.964   2.453   0.348  0.6739  0.8224  0.2745
14658SOL     OW56032   2.293   9.607   6.544  0.7816  0.2287 -0.1789
14658SOL    HW156033   2.246   9.615   6.456  0.5569 -1.9010 -0.2755
14658SOL    HW256034   2.315   9.511   6.561  3.0081  0.9283  0.9702
14659SOL     OW56035   9.504   4.651   2.767  0.3754  0.1827 -0.2141
14659SOL    HW156036   9.594   4.644   2.809 -0.2582  0.1521  1.1489
14659SOL    HW256037   9.462   4.561   2.760  1.3964 -0.1277 -3.0055
14660SOL     OW56038   4.139   3.873   4.096 -0.0423  0.1827  0.0780
14660SOL    HW156039   4.230   3.903   4.123 -0.7168  2.1407  0.3140
14660SOL    HW256040   4.096   3.944   4.040 -0.9294 -1.2824 -1.1402
14661SOL     OW56041   9.481   5.736   2.112 -0.4005  0.9598  0.1331
14661SOL    HW156042   9.418   5.788   2.170 -1.6684  0.6146 -0.9144
14661SOL    HW256043   9.429   5.682   2.046  0.9160 -1.2949  0.8847
14662SOL     OW56044   7.952   8.038   0.872 -0.0022 -0.1752  0.2408
14662SOL    HW156045   7.881   7.986   0.825  0.4342 -1.3001  0.8136
14662SOL    HW256046   7.917   8.129   0.895 -1.8654 -1.3045  2.0743
14663SOL     OW56047   6.982   4.485   9.225 -0.0424  0.5481  0.0704
14663SOL    HW156048   7.075   4.466   9.195  0.1274  1.1993  0.1894
14663SOL    HW256049   6.917   4.438   9.165  0.3710 -0.3658  0.3241
14664SOL     OW56050   1.040   8.114   2.755  0.3214  0.3716 -0.4462
14664SOL    HW156051   1.049   8.162   2.842 -2.0345 -1.6430  0.9552
14664SOL    HW256052   1.105   8.038   2.751 -0.0999 -0.0054 -0.1194
14665SOL     OW56053   2.205   7.700   4.889  0.2789 -0.3924 -0.1446
14665SOL    HW156054   2.115   7.724   4.923  0.0466  0.5440 -1.4150
14665SOL    HW256055   2.203   7.607   4.851 -0.5743  0.2370 -1.6780
14666SOL     OW56056   6.020   2.271   1.862 -0.3272  0.0955  0.2047
14666SOL    HW156057   5.957   2.207   1.818 -1.4444  1.4525 -0.2512
14666SOL    HW256058   5.986   2.294   1.953 -0.4639  0.7703 -0.0114
14667SOL     OW56059   0.851   1.002   0.989 -0.3906 -0.2634  0.2283
14667SOL    HW156060   0.915   1.026   0.915 -0.4764 -2.8882 -0.7666
14667SOL    HW256061   0.903   0.982   1.072 -0.0405 -0.4879 -0.0391
14668SOL     OW56062   9.639   7.835   6.413  0.7049 -0.6340 -0.1849
14668SOL    HW156063   9.586   7.869   6.335  0.7578  0.1576  0.1211
14668SOL    HW256064   9.737   7.847   6.394  0.6930  0.3658  0.3651
14669SOL     OW56065   2.120   5.207   6.803  0.2571  0.4176  0.8122
14669SOL    HW156066   2.041   5.241   6.854 -0.8796 -1.8266  0.6270
14669SOL    HW256067   2.181   5.158   6.865 -0.5682 -1.3567  0.2566
14670SOL     OW56068   8.967   0.875   0.968 -0.3662  0.3721 -0.1542
14670SOL    HW156069   8.965   0.787   0.921  0.2881  0.1634  0.1918
14670SOL    HW256070   9.062   0.898   0.990 -0.3809  1.8357 -1.4964
14671SOL     OW56071   6.270   0.547   3.603 -0.2545 -0.0190  0.6540
14671SOL    HW156072   6.338   0.567   3.673  1.2654 -1.8740 -0.2609
14671SOL    HW256073   6.308   0.564   3.512 -1.2133 -0.4506  0.1605
14672SOL     OW56074   9.973   9.708   3.257  0.3622  0.0878  0.1009
14672SOL    HW156075   9.993   9.635   3.191  2.5840 -0.0742  0.9298
14672SOL    HW256076  10.057   9.735   3.304 -1.0011  0.9686  2.1004
14673SOL     OW56077   3.175   2.814   3.455  0.0890  0.1856  0.0260
14673SOL    HW156078   3.154   2.775   3.365  2.9587  1.5585 -1.3179
14673SOL    HW256079   3.095   2.862   3.490 -1.5890 -1.7580 -1.0286
14674SOL     OW56080   2.372   5.253   8.277 -0.6132 -0.2516 -0.1967
14674SOL    HW156081   2.414   5.180   8.223 -2.2098 -1.5891  0.3292
14674SOL    HW256082   2.285   5.279   8.236 -0.2856  1.0304 -0.0959
14675SOL     OW56083   4.712   3.286   8.646  0.2182 -0.2852 -0.4182
14675SOL    HW156084   4.680   3.217   8.711 -0.3682 -0.7933 -1.2466
14675SOL    HW256085   4.729   3.243   8.557  0.8602  0.4373 -0.6489
14676SOL     OW56086   3.765   5.065   7.549 -0.4523 -0.0354  0.4364
14676SOL    HW156087   3.844   5.065   7.488 -1.6996 -0.4365 -1.2085
14676SOL    HW256088   3.758   4.977   7.596 -1.9793 -1.3911 -2.1926
14677SOL     OW56089   3.329   0.946   5.435  0.0627 -0.2720 -0.3340
14677SOL    HW156090   3.247   0.947   5.377 -0.4139  0.3624  0.3480
14677SOL    HW256091   3.303   0.952   5.531  0.9200  0.2176 -0.1233
14678SOL     OW56092   5.042   5.332   0.266 -0.2152 -0.2331  0.7455
14678SOL    HW156093   5.084   5.386   0.194 -1.4098  2.2678  1.8508
14678SOL    HW256094   5.110   5.271   0.307  1.4077  1.0839  0.0600
14679SOL     OW56095   2.371   1.731   5.639  0.7225 -0.0788  0.3908
14679SOL    HW156096   2.398   1.655   5.698  0.1437  0.8651  1.9013
14679SOL    HW256097   2.287   1.708   5.591  1.0419 -0.7428  0.1503
14680SOL     OW56098   9.590   2.032   7.553  0.1727  0.0228  0.0576
14680SOL    HW156099   9.664   2.090   7.519 -0.1272  0.3896  0.0271
14680SOL    HW256100   9.627   1.943   7.581  0.8355  0.6677  1.2969
14681SOL     OW56101   2.469   1.143   5.358  0.5331 -0.3010  0.2812
14681SOL    HW156102   2.401   1.108   5.423 -0.3782 -0.8616 -0.9509
14681SOL    HW256103   2.482   1.241   5.374 -0.7091 -0.1416  0.4313
14682SOL     OW56104   7.459   0.031   7.646 -0.1378  0.6533  0.5153
14682SOL    HW156105   7.401  -0.037   7.602  1.7511 -0.2208 -0.7085
14682SOL    HW256106   7.448   0.024   7.745  0.4641 -1.9000  0.4536
14683SOL     OW56107   0.397   3.570   9.974  0.1967 -0.0168  0.4325
14683SOL    HW156108   0.348   3.630   9.911 -0.0469 -0.3404  0.3169
14683SOL    HW256109   0.467   3.519   9.924 -0.2255 -0.5282  0.3603
14684SOL     OW56110   7.938   9.820   1.584 -0.8247 -0.3000  0.1643
14684SOL    HW156111   7.887   9.736   1.569 -0.6822 -0.5051  0.8065
14684SOL    HW256112   8.027   9.799   1.625 -1.1265  0.2185  1.1106
14685SOL     OW56113   3.314   3.398   9.386 -0.2138  0.3024  0.6199
14685SOL    HW156114   3.400   3.351   9.365 -0.5660 -1.3850  2.8379
14685SOL    HW256115   3.311   3.485   9.336  1.9894 -0.4137 -0.8337
14686SOL     OW56116   3.173   3.083   9.180 -0.1046 -0.1194 -0.3971
14686SOL    HW156117   3.248   3.024   9.151  0.0204  0.4334 -1.1927
14686SOL    HW256118   3.114   3.032   9.243  0.2322 -0.9611 -0.7484
14687SOL     OW56119   7.483   6.041   8.761  0.0179  0.0141 -0.5980
14687SOL    HW156120   7.417   6.074   8.693 -0.1190  1.2862  0.1337
14687SOL    HW256121   7.570   6.087   8.747  0.1090 -0.0337 -0.1910
14688SOL     OW56122   0.751   4.096   3.897  0.5010  0.4266  0.0686
14688SOL    HW156123   0.795   4.126   3.982 -0.0594  0.8860  0.1912
14688SOL    HW256124   0.766   4.164   3.826  1.3646 -0.1703 -0.3354
14689SOL     OW56125   3.875   0.197   6.639 -0.1851 -0.0121  0.5392
14689SOL    HW156126   3.776   0.196   6.653 -0.4913 -1.5579 -1.4447
14689SOL    HW256127   3.903   0.285   6.603 -0.8532  0.3970  1.0124
14690SOL     OW56128   8.999   6.378   7.580 -0.0203 -0.0841  0.7113
14690SOL    HW156129   8.956   6.467   7.561 -0.1644 -0.1161  0.8900
14690SOL    HW256130   8.929   6.307   7.585 -0.0792  0.0694  2.2787
14691SOL     OW56131   0.795   6.080   9.694 -0.4710 -0.5930 -0.1643
14691SOL    HW156132   0.847   6.009   9.740  0.0204 -0.4671 -0.5270
14691SOL    HW256133   0.846   6.114   9.615  0.1313  1.4475  1.0568
14692SOL     OW56134   2.991   9.602   3.966 -0.0241  0.1083  0.3176
14692SOL    HW156135   3.065   9.653   4.010  1.7045 -0.0852 -2.2820
14692SOL    HW256136   2.959   9.652   3.886  1.0071 -2.3115 -1.6987
14693SOL     OW56137   9.420   5.608   8.637 -0.1672 -0.0676  0.0331
14693SOL    HW156138   9.449   5.691   8.685 -0.4064  0.2015 -0.2872
14693SOL    HW256139   9.348   5.563   8.690 -2.4853  1.7729 -1.4887
14694SOL     OW56140   3.021   6.449   0.842 -0.1068  0.0406 -0.9250
14694SOL    HW156141   3.054   6.542   0.829  1.1328 -0.1534  0.5991
14694SOL    HW256142   3.080   6.402   0.909 -2.2461 -1.0131  0.2634
14695SOL     OW56143   7.715   7.715   7.388  0.1327 -0.1069 -0.2738
14695SOL    HW156144   7.728   7.794   7.449 -0.4595  0.6306 -1.0905
14695SOL    HW256145   7.617   7.695   7.380  0.1747  0.1463 -1.4203
14696SOL     OW56146   5.149   1.980   0.133 -0.2947 -0.1801 -0.1893
14696SOL    HW156147   5.219   2.048   0.151 -1.6217  1.3834 -0.7488
14696SOL    HW256148   5.130   1.977   0.034 -1.0099 -0.5667 -0.0430
14697SOL     OW56149   4.395   8.644   0.739  0.5315  0.0501  0.0845
14697SOL    HW156150   4.422   8.622   0.645  0.2433 -1.1614  0.2777
14697SOL    HW256151   4.450   8.720   0.772 -0.4659  1.5474 -1.6211
14698SOL     OW56152   7.672   4.666   7.013  0.2494 -0.0111  0.4929
14698SOL    HW156153   7.672   4.651   7.112 -0.9553  0.0751  0.5149
14698SOL    HW256154   7.604   4.735   6.990  0.0596 -0.5060 -0.4658
14699SOL     OW56155   0.073   7.735   1.481  0.1001  0.3283 -0.4865
14699SOL    HW156156   0.170   7.712   1.486  0.0392  0.4917  2.3390
14699SOL    HW256157   0.019   7.664   1.527 -0.8062  1.8422  0.8644
14700SOL     OW56158   4.914   8.604   7.131 -0.3775  0.6226 -0.2619
14700SOL    HW156159   4.874   8.531   7.186  0.1854  0.4182 -0.1253
14700SOL    HW256160   5.011   8.586   7.118 -0.7471 -0.0074 -2.3827
14701SOL     OW56161   7.825   7.715   9.302 -0.2757 -0.2497  0.3946
14701SOL    HW156162   7.902   7.680   9.355 -0.4811  0.9533  1.5123
14701SOL    HW256163   7.747   7.652   9.311  1.0817 -2.3823 -2.1551
14702SOL     OW56164   8.410   7.375   1.425  0.3226 -0.0661 -0.1783
14702SOL    HW156165   8.361   7.382   1.512  0.8593  1.9457 -0.0079
14702SOL    HW256166   8.409   7.464   1.379  3.2336 -0.1681 -0.4928
14703SOL     OW56167   9.798   4.612   4.013  0.5407 -0.1094 -0.0650
14703SOL    HW156168   9.722   4.659   3.968 -0.8738 -2.0714  0.2511
14703SOL    HW256169   9.770   4.580   4.103  1.0304 -2.7604 -0.8155
14704SOL     OW56170   9.541   0.963   6.009  0.5299 -0.0744  0.0119
14704SOL    HW156171   9.598   0.884   5.987 -0.3509 -0.8063  0.3421
14704SOL    HW256172   9.573   1.005   6.094  1.6524  0.5667 -0.7107
14705SOL     OW56173   1.292   3.380   9.597  0.4115  0.4966 -0.1913
14705SOL    HW156174   1.204   3.352   9.637 -0.1980  1.7245 -0.6609
14705SOL    HW256175   1.349   3.299   9.583 -0.3862 -0.2400  0.7318
14706SOL     OW56176   5.342   3.079   7.056 -0.3424  0.7105  0.3415
14706SOL    HW156177   5.386   3.165   7.029  0.3616  0.1621 -0.2735
14706SOL    HW256178   5.243   3.093   7.063 -0.2295  1.5781  0.2742
14707SOL     OW56179   7.615   9.275   6.277  0.0820  0.2442 -0.0669
14707SOL    HW156180   7.665   9.282   6.364 -2.2108 -1.6276  1.4737
14707SOL    HW256181   7.679   9.261   6.202  1.9903  0.0276  1.5732
14708SOL     OW56182   7.683   9.873   7.430 -0.6881  0.1897  0.6200
14708SOL    HW156183   7.598   9.830   7.462 -0.3072 -1.0382 -0.0063
14708SOL    HW256184   7.660   9.954   7.376 -1.4786 -0.4474 -0.0083
14709SOL     OW56185   4.873   1.293   4.034  0.4151 -0.3723 -0.1909
14709SOL    HW156186   4.813   1.344   4.096  0.1075 -2.4870  1.3143
14709SOL    HW256187   4.820   1.226   3.982  0.9123  0.3408 -1.6505
14710SOL     OW56188   7.816   0.749   9.047 -0.3733  0.0263  0.5363
14710SOL    HW156189   7.883   0.816   9.080 -1.8486  1.3095  0.9704
14710SOL    HW256190   7.837   0.725   8.953  1.5886 -0.7329  1.1300
14711SOL     OW56191   2.575   4.647   3.901  0.4115  0.7015  0.1809
14711SOL    HW156192   2.477   4.663   3.913  0.6823  0.8230  2.4594
14711SOL    HW256193   2.616   4.626   3.989  1.9160 -2.3257 -1.1548
14712SOL     OW56194   0.466   1.709   4.309 -0.2317  0.0001 -0.1013
14712SOL    HW156195   0.434   1.744   4.222 -0.9451 -0.2748  0.0522
14712SOL    HW256196   0.536   1.638   4.293 -1.1018 -0.7791 -0.4678
14713SOL     OW56197   6.791   7.803   2.663 -0.2769  0.5030  1.1269
14713SOL    HW156198   6.847   7.811   2.745  1.5419 -1.8022  0.1620
14713SOL    HW256199   6.842   7.838   2.584 -1.0041  0.3344  0.5764
14714SOL     OW56200   1.912   0.204   5.915  0.4776 -0.3315 -0.0029
14714SOL    HW156201   1.876   0.190   5.823 -0.1282 -2.7239  0.5566
14714SOL    HW256202   1.841   0.244   5.973 -0.1991 -1.7946  0.2079
14715SOL     OW56203   3.412   4.509   9.603 -0.3071 -0.0333  0.5960
14715SOL    HW156204   3.382   4.491   9.696 -2.5719  2.0035  0.3004
14715SOL    HW256205   3.461   4.596   9.600  1.3916 -0.9848  0.1901
14716SOL     OW56206   8.707   1.800   0.733  0.2525  0.1163  0.2027
14716SOL    HW156207   8.705   1.753   0.822 -1.1320 -0.9105 -0.3505
14716SOL    HW256208   8.778   1.760   0.676 -0.0673 -0.4478  0.1987
14717SOL     OW56209   4.230   8.160   6.408 -0.0061 -0.0667  0.1284
14717SOL    HW156210   4.204   8.138   6.314  0.0972  0.1644  0.0448
14717SOL    HW256211   4.194   8.090   6.470 -0.6181  0.1207 -0.0134
14718SOL     OW56212   9.097   4.275   5.012 -0.3541 -0.2062  0.1026
14718SOL    HW156213   9.025   4.324   4.962 -0.2483  0.7951  0.9118
14718SOL    HW256214   9.056   4.224   5.088 -0.3842 -0.8605 -0.3479
14719SOL     OW56215   4.144   9.607   4.267 -0.1792 -0.4279 -0.0392
14719SOL    HW156216   4.210   9.679   4.247 -0.3984  0.3491  1.9149
14719SOL    HW256217   4.172   9.557   4.349 -1.2922 -0.9909  0.0164
14720SOL     OW56218   3.341   4.601   8.071  0.0593  0.3254 -0.9990
14720SOL    HW156219   3.387   4.677   8.116  1.1167 -0.0947 -1.3552
14720SOL    HW256220   3.405   4.525   8.060 -1.0317 -0.6837 -0.4876
14721SOL     OW56221   6.917   3.016   1.081 -0.2006 -0.4804 -0.0473
14721SOL    HW156222   6.941   3.109   1.108 -0.6117 -0.3493 -0.1298
14721SOL    HW256223   6.976   2.986   1.006 -0.0672 -0.2889 -0.0186
14722SOL     OW56224   0.490   1.911   1.515 -0.5040 -0.3129 -0.2029
14722SOL    HW156225   0.421   1.839   1.525  0.9928 -1.8683 -0.9417
14722SOL    HW256226   0.473   1.963   1.432 -0.8201 -0.6560 -0.3516
14723SOL     OW56227   8.628   7.508   8.398 -0.0109 -0.1195  0.7509
14723SOL    HW156228   8.680   7.426   8.424 -0.5129  0.1024  2.5205
14723SOL    HW256229   8.563   7.484   8.325  1.1956 -0.8334 -0.1143
14724SOL     OW56230   3.010   4.505   9.207 -0.0747 -0.5787  0.1134
14724SOL    HW156231   2.967   4.415   9.208 -0.1174 -0.5532  1.2894
14724SOL    HW256232   2.943   4.575   9.228  0.3715 -0.4655  1.1866
14725SOL     OW56233   8.578   5.539   3.422 -0.2972 -0.1372 -0.2812
14725SOL    HW156234   8.575   5.622   3.366 -0.8586 -0.1548 -0.2774
14725SOL    HW256235   8.594   5.460   3.364 -1.2640 -0.1998 -0.4606
14726SOL     OW56236   3.113   3.693   1.223 -0.1707 -0.5930 -0.2447
14726SOL    HW156237   3.209   3.672   1.204 -0.1429 -0.2483 -0.4868
14726SOL    HW256238   3.063   3.702   1.137  0.1053  1.6599 -0.2013
14727SOL     OW56239   0.229   6.947   1.101 -0.4747  0.4094  0.4728
14727SOL    HW156240   0.130   6.945   1.091 -0.3641 -0.3091 -0.6020
14727SOL    HW256241   0.267   6.858   1.075  0.4836  0.8053  0.4979
14728SOL     OW56242   7.885   1.561   2.569  0.8462  0.3380  0.9284
14728SOL    HW156243   7.975   1.518   2.566  1.2114  1.1468 -0.0465
14728SOL    HW256244   7.850   1.571   2.475  0.2741  1.1203  1.2202
14729SOL     OW56245   8.669   6.516   4.020 -0.1483  0.2876 -0.1316
14729SOL    HW156246   8.711   6.606   4.030 -0.6724  0.5039  0.1605
14729SOL    HW256247   8.741   6.446   4.013  0.2670  0.5900  0.9782
14730SOL     OW56248   7.911   7.533   8.986 -0.3198 -0.4161  0.4189
14730SOL    HW156249   7.831   7.476   8.966  0.7081 -2.2209  1.2430
14730SOL    HW256250   7.925   7.536   9.085 -0.1698  1.0220  0.3541
14731SOL     OW56251   4.869   7.467   2.040 -0.4059  0.1472  0.6086
14731SOL    HW156252   4.862   7.558   2.000 -1.2552  1.1484  2.9189
14731SOL    HW256253   4.965   7.444   2.057 -0.0677 -0.1745 -1.6700
14732SOL     OW56254   9.173   1.772   5.169 -0.4145 -0.2975 -0.2578
14732SOL    HW156255   9.206   1.687   5.129 -1.2715 -1.1179  0.7277
14732SOL    HW256256   9.164   1.761   5.268 -1.2329  0.6954 -0.2018
14733SOL     OW56257   8.434   4.361   0.342 -0.9699 -0.1262  0.1608
14733SOL    HW156258   8.467   4.283   0.396 -0.1848  0.1186  0.0477
14733SOL    HW256259   8.402   4.328   0.253  1.0606 -0.1385 -0.6055
14734SOL     OW56260   7.651   3.985   2.973  0.0338  0.0315  0.0551
14734SOL    HW156261   7.680   4.019   3.062  1.4524  1.1522 -0.8000
14734SOL    HW256262   7.551   3.983   2.969 -0.0599 -2.4789  2.5474
14735SOL     OW56263   1.114   1.633   2.273 -0.1470  0.2857 -0.7381
14735SOL    HW156264   1.114   1.615   2.174  0.2741  1.7530 -1.0240
14735SOL    HW256265   1.152   1.724   2.290  0.3903 -0.2187  0.8376
14736SOL     OW56266   5.055   9.788   3.052  0.2386  0.0489  0.0192
14736SOL    HW156267   5.011   9.703   3.080  0.7381 -0.3134 -0.2825
14736SOL    HW256268   5.002   9.830   2.978  0.3212 -0.3169 -0.2535
14737SOL     OW56269   5.137   1.980   6.759  0.2811 -0.1217 -0.0094
14737SOL    HW156270   5.114   2.060   6.814  1.5101 -0.4211  0.9480
14737SOL    HW256271   5.072   1.972   6.683 -0.9752  0.7154  0.9633
14738SOL     OW56272   1.867   0.504   7.929 -0.3084  0.6926 -0.2325
14738SOL    HW156273   1.787   0.454   7.897 -0.2419  0.4539 -0.0320
14738SOL    HW256274   1.887   0.478   8.024 -0.7138  1.6457  0.1200
14739SOL     OW56275   0.023   1.083   3.355  0.0549 -0.2574  0.0258
14739SOL    HW156276   0.108   1.030   3.354  0.4377  0.3331 -2.0788
14739SOL    HW256277  -0.041   1.042   3.420  1.3573 -1.6717  0.4546
14740SOL     OW56278   7.381   5.715   0.054 -0.2911  0.1889  0.2987
14740SOL    HW156279   7.471   5.745   0.085  0.6065 -0.5102 -1.5473
14740SOL    HW256280   7.324   5.692   0.133  0.6570  1.9748  1.5491
14741SOL     OW56281   6.840   9.569   5.114  0.2001 -0.1240  0.8251
14741SOL    HW156282   6.898   9.576   5.033  1.3189 -1.2840  1.5084
14741SOL    HW256283   6.816   9.661   5.145  3.7206  0.5040  1.9594
14742SOL     OW56284   8.239   5.493   7.213 -0.4949 -0.0946 -1.4030
14742SOL    HW156285   8.309   5.554   7.175 -1.3703  1.6068 -0.3704
14742SOL    HW256286   8.245   5.403   7.169  4.1986 -0.9313  0.5569
14743SOL     OW56287   8.747   8.080   3.991  0.0040  0.1258 -0.6793
14743SOL    HW156288   8.773   8.056   4.085  1.9202  2.9214 -0.4559
14743SOL    HW256289   8.803   8.028   3.926 -0.9102 -1.3651 -0.2988
14744SOL     OW56290   0.047   5.478   4.915  0.0294 -0.2324 -0.1824
14744SOL    HW156291   0.111   5.502   4.842  0.8358 -1.8740 -0.0364
14744SOL    HW256292  -0.035   5.439   4.875 -0.0505  0.0149 -0.2640
14745SOL     OW56293   3.829   2.636   3.939 -0.6258 -0.6405  0.4770
14745SOL    HW156294   3.856   2.574   3.865 -0.7091  0.6513 -0.6715
14745SOL    HW256295   3.846   2.730   3.910 -1.0843 -0.1030  1.9475
14746SOL     OW56296   0.593   7.214   8.652 -0.3788  0.3299 -0.2897
14746SOL    HW156297   0.536   7.160   8.714 -0.4862 -0.4054 -1.0160
14746SOL    HW256298   0.555   7.306   8.644  0.3861  0.8519  1.7589
14747SOL     OW56299   7.751   6.872   4.262 -0.3130  0.3465  0.5180
14747SOL    HW156300   7.799   6.886   4.176  1.3902  0.9707  1.5368
14747SOL    HW256301   7.766   6.779   4.294  0.0042  0.4532  0.6886
14748SOL     OW56302   5.455   6.719   2.184  0.1396 -0.1865 -0.1676
14748SOL    HW156303   5.437   6.689   2.090  1.7859 -0.6457 -0.3574
14748SOL    HW256304   5.417   6.652   2.247  2.5072 -1.9866 -0.5802
14749SOL     OW56305   0.689   5.078   2.428 -0.1053  0.0776 -0.3405
14749SOL    HW156306   0.695   5.157   2.490  0.2468  0.3210 -0.6845
14749SOL    HW256307   0.661   5.108   2.337 -3.1612 -0.5932  0.3198
14750SOL     OW56308   8.910   3.168   9.738 -0.4133 -0.2894  0.1801
14750SOL    HW156309   8.877   3.209   9.653  0.9449  1.2709  0.3895
14750SOL    HW256310   8.992   3.115   9.721  0.0988  0.3650  0.5688
14751SOL     OW56311   8.197   3.117   2.740  0.3226 -0.1155  0.6692
14751SOL    HW156312   8.123   3.054   2.764  0.8668 -0.7831  0.5946
14751SOL    HW256313   8.214   3.179   2.817 -1.3516  1.0563  0.1247
14752SOL     OW56314   7.023   0.063   3.893 -0.2437  0.7248 -0.5095
14752SOL    HW156315   7.035   0.066   3.794  1.2825  0.1565 -0.3674
14752SOL    HW256316   6.949  -0.001   3.916  1.2010 -1.2562 -1.1834
14753SOL     OW56317   1.412   8.853   0.641  0.0605 -1.0208 -0.3066
14753SOL    HW156318   1.389   8.812   0.553  0.6916 -1.0233 -0.4696
14753SOL    HW256319   1.422   8.952   0.629 -0.8980 -0.8868 -0.0271
14754SOL     OW56320   2.353   1.518   1.944 -0.0847  0.0772  0.0273
14754SOL    HW156321   2.265   1.552   1.910  0.6547  0.0632 -1.9347
14754SOL    HW256322   2.412   1.596   1.966 -0.8983  0.0998  2.2403
14755SOL     OW56323   8.612   6.351   6.929  0.4592 -0.4035  0.5086
14755SOL    HW156324   8.519   6.363   6.965 -0.2396 -2.1019 -0.6565
14755SOL    HW256325   8.636   6.254   6.931  1.9139 -0.0603  0.0657
14756SOL     OW56326   2.854   3.585  10.087  0.3348  0.1642 -0.1327
14756SOL    HW156327   2.770   3.588  10.032  0.8774 -1.7957 -1.1170
14756SOL    HW256328   2.933   3.591  10.027  0.9366 -1.6281  0.4598
14757SOL     OW56329   7.634   8.835   8.652 -0.0759  0.2302  0.1203
14757SOL    HW156330   7.639   8.735   8.658  0.7435  0.3372  1.4359
14757SOL    HW256331   7.657   8.874   8.741 -0.4305  1.5963 -0.3868
14758SOL     OW56332   0.577   6.203   1.019  0.4515  0.0160 -0.2366
14758SOL    HW156333   0.506   6.228   1.085  0.8701 -0.9146  0.5734
14758SOL    HW256334   0.572   6.105   1.001  1.7372 -0.1039  0.0664
14759SOL     OW56335   3.604   7.040   3.160 -0.0096  0.4706  0.3665
14759SOL    HW156336   3.622   6.993   3.247 -0.7863  0.8288  0.7208
14759SOL    HW256337   3.682   7.026   3.099  0.7140  0.5331  1.2526
14760SOL     OW56338   9.795   3.607   7.720 -0.1496 -0.5353 -0.4562
14760SOL    HW156339   9.696   3.602   7.734 -0.4357  2.5220 -0.9838
14760SOL    HW256340   9.826   3.529   7.666 -2.3845 -1.1165 -0.9145
14761SOL     OW56341   3.536   6.998   2.213 -0.6878 -0.1712  0.4896
14761SOL    HW156342   3.628   6.967   2.238  0.2318  0.9284 -1.4378
14761SOL    HW256343   3.491   6.928   2.157  0.2399  0.6244 -1.3039
14762SOL     OW56344   8.957   5.439   3.168  0.1233 -0.3484  0.2944
14762SOL    HW156345   8.902   5.469   3.090  1.8797 -1.6323 -1.4723
14762SOL    HW256346   8.972   5.516   3.230  0.2866  1.1588 -1.5754
14763SOL     OW56347   4.860   6.291   9.212 -0.3846 -0.7293  0.3166
14763SOL    HW156348   4.782   6.230   9.202 -0.5775 -0.2041 -1.6708
14763SOL    HW256349   4.872   6.316   9.308 -3.6245  0.3950  0.4797
14764SOL     OW56350   0.081   2.889   7.505 -0.1836  0.4272  0.0731
14764SOL    HW156351   0.066   2.841   7.418 -2.3581 -1.0425  1.2286
14764SOL    HW256352   0.110   2.824   7.574 -4.2046  0.4852  1.9449
14765SOL     OW56353   2.657   0.509   7.439  0.4580  0.2741 -0.7513
14765SOL    HW156354   2.587   0.463   7.493  0.8431  0.6064  0.0496
14765SOL    HW256355   2.745   0.502   7.486  0.6870  1.0737 -1.0392
14766SOL     OW56356   8.992   7.159   9.737 -0.1140  0.3848 -0.6414
14766SOL    HW156357   9.002   7.148   9.639 -0.8795  0.2080 -0.6967
14766SOL    HW256358   9.074   7.123   9.783 -0.1395 -0.3287 -1.1523
14767SOL     OW56359   4.830   9.606   6.652 -0.0709  0.2124  0.3688
14767SOL    HW156360   4.930   9.613   6.657 -0.0266  1.1695 -1.3414
14767SOL    HW256361   4.805   9.513   6.625  0.3570 -0.0412  0.8320
14768SOL     OW56362   2.042   7.504   3.444 -0.0090 -0.2480 -0.1000
14768SOL    HW156363   1.982   7.457   3.379 -0.3211 -0.6424  0.4620
14768SOL    HW256364   2.104   7.437   3.485 -0.9597 -0.3102  1.2611
14769SOL     OW56365   4.898   4.881   6.221  0.1799  0.2243 -0.1769
14769SOL    HW156366   4.866   4.857   6.129  1.5025  0.8962 -0.8428
14769SOL    HW256367   4.982   4.935   6.213  0.7885 -0.4486  1.4590
14770SOL     OW56368   6.321   2.086   9.968  0.0606 -0.4411  0.3287
14770SOL    HW156369   6.328   2.071   9.869 -0.5204 -2.2242  0.5473
14770SOL    HW256370   6.412   2.079  10.008  0.0815 -1.3311  0.1358
14771SOL     OW56371   0.420   4.988   4.882  0.0256 -0.1891 -0.4251
14771SOL    HW156372   0.361   5.064   4.909  1.0386  0.6134 -0.4497
14771SOL    HW256373   0.364   4.913   4.848 -0.9729  0.6400 -0.6246
14772SOL     OW56374   0.171   8.084   3.752  0.4483 -0.2300  0.1237
14772SOL    HW156375   0.136   8.019   3.819  0.6636 -0.9046 -0.4160
14772SOL    HW256376   0.186   8.172   3.797 -0.6831 -0.2937  0.6592
14773SOL     OW56377   2.295   4.214   1.057  0.6793 -0.0931  0.0232
14773SOL    HW156378   2.328   4.278   0.987  0.3247  0.8770  0.7294
14773SOL    HW256379   2.276   4.126   1.014  1.2757  0.2286 -0.9494
14774SOL     OW56380   3.700   4.737   9.411 -0.2391  0.7042  0.4222
14774SOL    HW156381   3.758   4.785   9.345 -0.7268 -0.0009 -0.5221
14774SOL    HW256382   3.750   4.658   9.447 -0.6733 -0.0183 -0.5388
14775SOL     OW56383   3.739   7.221   9.334  0.6475 -0.0791 -0.5220
14775SOL    HW156384   3.786   7.292   9.281 -0.6754  4.2346  3.7411
14775SOL    HW256385   3.641   7.227   9.317  0.5483 -1.1486 -0.3524
14776SOL     OW56386   9.684   4.825   5.819  0.0854 -0.4483  0.2473
14776SOL    HW156387   9.624   4.880   5.878 -2.9355 -1.9247 -1.3254
14776SOL    HW256388   9.659   4.839   5.724  2.8309 -0.4950 -0.5030
14777SOL     OW56389   2.254   4.470   6.481  0.6428  0.7570  0.1153
14777SOL    HW156390   2.228   4.467   6.578 -0.5008 -2.5007 -0.2188
14777SOL    HW256391   2.347   4.505   6.472  1.0658  0.2948  2.4590
14778SOL     OW56392   4.767   9.536   2.117 -0.7036 -0.6754 -0.3205
14778SOL    HW156393   4.726   9.616   2.161 -1.1408 -2.5500  2.8832
14778SOL    HW256394   4.796   9.560   2.024  0.3711  3.4913  0.9877
14779SOL     OW56395   6.169   0.931   1.148  0.2001 -0.1640  1.1350
14779SOL    HW156396   6.102   0.951   1.076  2.5108 -0.6651 -1.2161
14779SOL    HW256397   6.200   1.017   1.190 -0.9389  0.1452  1.3723
14780SOL     OW56398   7.300   9.867   8.600  0.0273 -0.2487  0.4444
14780SOL    HW156399   7.262   9.780   8.568  1.5791 -0.7094 -0.1589
14780SOL    HW256400   7.328   9.859   8.695  1.5959 -0.8794 -0.0618
14781SOL     OW56401   3.915   5.128   9.435  0.2802  0.1376  0.4449
14781SOL    HW156402   3.889   5.119   9.339 -1.9534  2.3357  0.7873
14781SOL    HW256403   4.014   5.117   9.444  0.1435 -3.5281 -1.6047
14782SOL     OW56404   0.689   0.869   3.537  0.0506  0.1245  0.2097
14782SOL    HW156405   0.719   0.780   3.503 -0.7571  0.0280 -0.2604
14782SOL    HW256406   0.763   0.913   3.588  0.4401 -0.8281  0.4576
14783SOL     OW56407   3.903   6.955   8.453 -0.1036 -0.1396 -0.7327
14783SOL    HW156408   3.884   6.872   8.400 -0.2796  0.6267 -1.8773
14783SOL    HW256409   3.826   6.975   8.513 -0.3151 -0.4743 -0.8893
14784SOL     OW56410   7.154   3.064   0.300  0.2066  0.6167 -0.0525
14784SOL    HW156411   7.120   3.000   0.370 -0.0627 -0.4196 -1.1085
14784SOL    HW256412   7.076   3.103   0.251  0.4149  0.9602 -0.1060
14785SOL     OW56413   9.425   9.786   4.631 -0.1574 -0.0992  0.2860
14785SOL    HW156414   9.389   9.716   4.571 -1.3410  0.0320  0.8222
14785SOL    HW256415   9.514   9.758   4.666 -0.3684 -1.0810  0.0524
14786SOL     OW56416   9.740   4.517   7.737 -0.5833  0.6250  0.3484
14786SOL    HW156417   9.710   4.426   7.708 -0.0547 -0.0942  1.9828
14786SOL    HW256418   9.681   4.550   7.811 -0.8009  1.6362 -0.2676
14787SOL     OW56419   0.989   2.532   1.413 -0.0325  0.0102  1.0245
14787SOL    HW156420   1.019   2.620   1.376  1.3680 -0.6986  0.4365
14787SOL    HW256421   0.995   2.534   1.513 -3.0042  1.6331  1.2243
14788SOL     OW56422   9.224   0.223   8.965  0.4980 -0.2759  0.1434
14788SOL    HW156423   9.131   0.256   8.980  1.1974  1.3773  1.0036
14788SOL    HW256424   9.251   0.243   8.871  0.6250  0.9386  0.4226
14789SOL     OW56425   4.605   5.977   8.226 -0.1015  0.3756  0.1308
14789SOL    HW156426   4.575   6.073   8.232 -2.5613 -0.3920  0.5453
14789SOL    HW256427   4.693   5.973   8.179  0.2532  2.8839  0.4877
14790SOL     OW56428   7.606   4.915   0.976  0.1654 -0.3891 -0.2275
14790SOL    HW156429   7.629   5.010   0.953  0.7636 -0.7692 -1.2119
14790SOL    HW256430   7.628   4.856   0.899 -0.9535 -1.2287  0.0837
14791SOL     OW56431   2.906   2.071   6.954  0.2571  0.0697  0.0370
14791SOL    HW156432   2.983   2.075   7.017 -0.4797  0.2654  0.9433
14791SOL    HW256433   2.877   2.164   6.931 -0.5188  0.0041  0.7199
14792SOL     OW56434   4.806   2.846   8.464 -0.0397  0.1268 -0.4243
14792SOL    HW156435   4.823   2.766   8.407  0.5165  0.8121 -1.2358
14792SOL    HW256436   4.892   2.873   8.509 -0.0935  0.6326 -0.6279
14793SOL     OW56437   0.449   2.128   0.237  0.1459 -0.0742  0.0341
14793SOL    HW156438   0.409   2.037   0.246  2.8206 -1.3719 -0.4808
14793SOL    HW256439   0.459   2.151   0.140  0.3695  0.3375  0.1542
14794SOL     OW56440   3.221   3.954   8.915  0.1241  0.0094 -0.8456
14794SOL    HW156441   3.248   4.048   8.937  1.1367 -0.3172 -0.6771
14794SOL    HW256442   3.284   3.916   8.847  0.3920 -0.9390 -0.0653
14795SOL     OW56443   7.121   9.682   2.050  0.3869  0.2703  0.3115
14795SOL    HW156444   7.041   9.740   2.065 -0.4609 -0.3563 -1.5769
14795SOL    HW256445   7.095   9.586   2.059  1.2474  0.1095  1.0926
14796SOL     OW56446   1.778   5.263   5.304  0.0200  0.1174  0.2000
14796SOL    HW156447   1.811   5.214   5.223 -0.1851  0.2885  0.0113
14796SOL    HW256448   1.759   5.198   5.377  1.0776  0.0465  0.4176
14797SOL     OW56449   8.520   9.623   7.643 -0.1932 -0.4041  0.8703
14797SOL    HW156450   8.559   9.547   7.696 -0.3930 -0.2776  1.1992
14797SOL    HW256451   8.549   9.710   7.683 -0.1996 -0.3062  0.6649
14798SOL     OW56452   7.530   7.988   4.912 -0.4316  0.5463 -0.3047
14798SOL    HW156453   7.605   8.008   4.850  1.0789 -3.8900 -0.0623
14798SOL    HW256454   7.461   7.932   4.866 -0.8657 -0.0972  1.0789
14799SOL     OW56455   7.870   7.671   5.197  0.1617  0.1246  0.0302
14799SOL    HW156456   7.959   7.646   5.160 -0.1479 -0.7539 -0.1558
14799SOL    HW256457   7.861   7.634   5.289 -0.0226  0.1797  0.0344
14800SOL     OW56458   2.471   1.405   6.004 -0.1217  0.3545 -0.3842
14800SOL    HW156459   2.545   1.386   6.068  0.6195  0.1774 -1.2798
14800SOL    HW256460   2.409   1.327   5.999 -1.2857  1.1077  1.5644
14801SOL     OW56461   4.563   7.896   3.563  0.7575  0.0664 -0.0604
14801SOL    HW156462   4.607   7.843   3.491  0.6782  1.6687 -1.3301
14801SOL    HW256463   4.464   7.893   3.551  0.8140  2.0965 -1.3633
14802SOL     OW56464   8.599   5.758   5.581 -0.0842  0.8852  0.3720
14802SOL    HW156465   8.576   5.708   5.665  0.9782  1.6215  1.1203
14802SOL    HW256466   8.698   5.755   5.567 -0.3775 -0.4118 -1.6198
14803SOL     OW56467   8.901   5.578   6.214  0.3526 -0.0694 -0.0511
14803SOL    HW156468   8.865   5.668   6.238  0.6422  0.2121 -0.6504
14803SOL    HW256469   8.998   5.585   6.191 -0.1507 -0.1379 -2.3024
14804SOL     OW56470   4.339   7.627   1.726  0.0952  0.4356 -0.0263
14804SOL    HW156471   4.300   7.703   1.675  0.6449  0.0302 -1.0692
14804SOL    HW256472   4.436   7.643   1.742  0.1496  0.0879  0.0087
14805SOL     OW56473   2.313   4.118   5.368 -0.6669 -0.0763  0.0221
14805SOL    HW156474   2.335   4.215   5.376  0.4150 -0.3594  0.6441
14805SOL    HW256475   2.219   4.102   5.399  0.8597  0.0182  5.1853
14806SOL     OW56476   9.344   4.708   8.331 -0.1935  0.3398  0.1240
14806SOL    HW156477   9.439   4.735   8.345  0.0835 -1.0497  1.0257
14806SOL    HW256478   9.284   4.785   8.354  0.5488  0.0810  3.0918
14807SOL     OW56479   0.014   1.043   7.177 -0.0996  0.6497  0.2077
14807SOL    HW156480  -0.071   1.077   7.217 -0.3177  0.7597 -0.3454
14807SOL    HW256481  -0.007   0.980   7.103  0.3043  0.7732 -0.0129
14808SOL     OW56482   8.021   8.102   4.630 -0.0017  0.1999 -0.1481
14808SOL    HW156483   7.955   8.132   4.562  0.0706 -0.6307 -0.5837
14808SOL    HW256484   8.068   8.020   4.597  0.5665  0.2342  0.5717
14809SOL     OW56485   4.986   1.124   6.558 -0.1096 -0.3986 -0.5501
14809SOL    HW156486   4.997   1.185   6.479 -0.9084  0.8422  0.2810
14809SOL    HW256487   5.073   1.081   6.579  0.2609 -0.2364 -1.7138
14810SOL     OW56488   8.203   0.829   2.212  0.1007 -0.1799 -0.2573
14810SOL    HW156489   8.214   0.908   2.272  0.9375 -0.4013 -0.1047
14810SOL    HW256490   8.200   0.746   2.268  0.3306 -0.3402 -0.4803
14811SOL     OW56491   9.674   9.925   6.058 -0.6977 -0.0773  0.2248
14811SOL    HW156492   9.653   9.850   6.122  0.0497  0.5331  1.1989
14811SOL    HW256493   9.763   9.908   6.015 -0.9498 -0.2080 -0.2519
14812SOL     OW56494   3.248   7.003   9.018 -0.8893 -0.5489  0.0261
14812SOL    HW156495   3.208   7.014   8.927 -0.4760 -1.6480 -0.2897
14812SOL    HW256496   3.344   6.980   9.010 -1.3372 -2.7033  0.6937
14813SOL     OW56497   0.901   5.227   7.177 -0.0815 -0.0408 -0.2946
14813SOL    HW156498   0.842   5.160   7.222 -2.6584  1.3540 -1.4785
14813SOL    HW256499   0.959   5.180   7.111 -0.7891 -1.3077 -0.0476
14814SOL     OW56500   0.247   2.026   6.297 -0.0270 -0.4157 -0.7175
14814SOL    HW156501   0.331   1.998   6.250  0.0928 -0.1197 -0.6855
14814SOL    HW256502   0.170   1.976   6.259  0.0467 -0.0641 -1.3517
14815SOL     OW56503   1.085   4.563   4.522 -0.0116  0.2369  0.0872
14815SOL    HW156504   1.116   4.473   4.489  0.6607  0.2830  0.5642
14815SOL    HW256505   1.127   4.581   4.612  1.8985  2.1314 -1.1239
14816SOL     OW56506   5.686   8.929   2.769  0.0018 -0.1128 -0.3981
14816SOL    HW156507   5.639   8.885   2.692 -0.4868 -0.8880  0.3319
14816SOL    HW256508   5.693   8.864   2.845  1.1823  0.3896 -0.0639
14817SOL     OW56509   3.093   7.341   9.839 -0.2113 -0.0708 -0.5822
14817SOL    HW156510   3.070   7.418   9.779 -0.4395  0.1742 -0.1849
14817SOL    HW256511   3.089   7.371   9.935 -1.2660 -0.8281 -0.3788
14818SOL     OW56512   0.538   0.699   6.224  0.3481  0.0803 -0.4365
14818SOL    HW156513   0.445   0.662   6.221 -0.3290  1.8519 -3.9053
14818SOL    HW256514   0.604   0.624   6.219 -0.8590 -1.1835  1.9015
14819SOL     OW56515   8.730   8.067   2.414 -0.4237 -0.2983  0.0713
14819SOL    HW156516   8.678   8.133   2.468 -1.5703 -1.5890  0.5912
14819SOL    HW256517   8.721   8.088   2.317 -1.1113  0.0747  0.2111
14820SOL     OW56518   6.485   4.783   9.721 -0.3146  0.0425  0.7172
14820SOL    HW156519   6.523   4.794   9.630 -0.4491  1.0868  0.7812
14820SOL    HW256520   6.387   4.763   9.714  0.0884 -1.9721  0.5748
14821SOL     OW56521   3.881   1.789   8.221  0.0089 -0.5483  0.8699
14821SOL    HW156522   3.886   1.703   8.169  0.2179 -0.2921  0.4625
14821SOL    HW256523   3.973   1.821   8.241 -0.0719 -0.8428  1.7371
14822SOL     OW56524   9.120   8.263   0.911 -0.3437 -0.1117 -0.3051
14822SOL    HW156525   9.140   8.223   1.001  1.8960 -0.7102 -1.0264
14822SOL    HW256526   9.179   8.343   0.897  1.1474 -1.4956 -2.2330
14823SOL     OW56527   0.907   7.354   2.906 -0.3722 -0.0104 -0.1363
14823SOL    HW156528   0.901   7.255   2.922 -1.9914 -0.3260 -2.4606
14823SOL    HW256529   0.970   7.371   2.830 -1.1394  0.6522 -0.6233
14824SOL     OW56530   2.988   3.026   1.477  0.2846 -0.3013 -0.6976
14824SOL    HW156531   2.939   3.114   1.477 -0.0925 -0.4953  0.7751
14824SOL    HW256532   3.047   3.021   1.558 -1.5020 -2.3853  0.5363
14825SOL     OW56533   3.682   1.189   5.700 -0.2171  0.5993 -0.1924
14825SOL    HW156534   3.687   1.259   5.772 -1.3635  1.5687 -1.0269
14825SOL    HW256535   3.709   1.229   5.613 -0.6933 -0.0506 -0.6446
14826SOL     OW56536   1.705   1.915   8.032  0.2778 -0.2047 -0.3168
14826SOL    HW156537   1.619   1.944   8.074 -0.3163 -2.8088  0.3606
14826SOL    HW256538   1.694   1.909   7.933  0.1994  1.1393 -0.3913
14827SOL     OW56539   5.972   6.193   0.630  0.1888 -0.6905  0.2681
14827SOL    HW156540   6.019   6.251   0.697  2.9064 -0.8663 -1.4395
14827SOL    HW256541   5.935   6.251   0.556  0.9501 -0.9203 -0.2911
14828SOL     OW56542   4.415   5.158   4.820 -0.2685  0.4315  0.1622
14828SOL    HW156543   4.473   5.129   4.896 -2.5055 -0.4155  1.5960
14828SOL    HW256544   4.399   5.256   4.826  0.5856  0.5861  0.0376
14829SOL     OW56545   0.203   6.676   7.721 -0.2511  0.4572  0.0742
14829SOL    HW156546   0.106   6.699   7.708 -0.3118  1.0664  1.5727
14829SOL    HW256547   0.240   6.643   7.634 -2.1219 -1.0044 -0.2032
14830SOL     OW56548   8.575   9.201   2.769 -0.0716  0.3824 -0.1249
14830SOL    HW156549   8.504   9.216   2.700 -1.0220  1.3890  1.0527
14830SOL    HW256550   8.646   9.141   2.732 -1.5574 -0.6661 -1.2958
14831SOL     OW56551   3.696   1.088   4.800 -0.1548 -0.4226 -0.0380
14831SOL    HW156552   3.732   1.063   4.710  0.0260 -0.7410  0.1238
14831SOL    HW256553   3.611   1.037   4.816 -1.8632  1.9143 -1.3347
14832SOL     OW56554   4.385   1.792   9.669 -0.2089 -0.1868 -0.0025
14832SOL    HW156555   4.317   1.719   9.678  0.6509 -0.9080  0.7455
14832SOL    HW256556   4.408   1.805   9.572  1.2870 -2.4723 -0.0049
14833SOL     OW56557   9.545   8.335   4.745  0.7727  0.0335  0.5395
14833SOL    HW156558   9.543   8.379   4.655 -0.1534 -0.2408  0.4140
14833SOL    HW256559   9.623   8.369   4.797 -0.0081  1.9825  0.5073
14834SOL     OW56560   8.779   8.764   7.079  0.0230  0.6609  0.3319
14834SOL    HW156561   8.701   8.717   7.120 -0.1147  0.8428  0.2772
14834SOL    HW256562   8.816   8.830   7.144 -1.4048  2.3455 -0.5494
14835SOL     OW56563   8.859   2.822   5.899  0.0458  0.0121  0.0074
14835SOL    HW156564   8.805   2.879   5.837 -0.0271  0.5564  0.5706
14835SOL    HW256565   8.925   2.879   5.948  0.3962 -0.4857  0.1175
14836SOL     OW56566   7.948   5.169   8.431  0.2850  0.2773 -0.0757
14836SOL    HW156567   7.889   5.243   8.464  0.0697 -0.0810  0.3510
14836SOL    HW256568   8.032   5.208   8.393  0.5872  0.7074  0.9976
14837SOL     OW56569   4.540   6.508   0.338  0.0566 -0.1765 -0.3946
14837SOL    HW156570   4.530   6.449   0.418  0.4769  1.8811  1.2060
14837SOL    HW256571   4.614   6.474   0.280 -0.1087 -1.5493  0.1821
14838SOL     OW56572   8.113   3.572   0.950 -0.2969 -0.3385 -0.0145
14838SOL    HW156573   8.051   3.494   0.940 -0.7957  0.0230  0.2526
14838SOL    HW256574   8.061   3.657   0.948  0.2002 -0.0270  0.1192
14839SOL     OW56575   7.899   0.277   8.538  0.1178 -0.4558  0.1041
14839SOL    HW156576   7.845   0.209   8.488 -0.2924 -0.4339  0.5217
14839SOL    HW256577   7.841   0.326   8.602  0.6807 -0.5804  0.7174
14840SOL     OW56578   9.132   7.975   4.248 -0.1330 -0.3853  0.3151
14840SOL    HW156579   9.128   7.944   4.343  0.7025 -1.2198  0.0890
14840SOL    HW256580   9.199   7.921   4.198  1.8090  2.1452  0.0421
14841SOL     OW56581   0.168   8.861   4.198 -0.1882  0.0159  0.3973
14841SOL    HW156582   0.231   8.853   4.121  1.2999 -1.0283  1.6750
14841SOL    HW256583   0.127   8.952   4.200  0.1258  0.2013 -1.3232
14842SOL     OW56584   8.031   9.730   7.079 -0.5710 -0.2735 -0.0556
14842SOL    HW156585   8.106   9.738   7.144  0.0815 -0.5809 -0.7555
14842SOL    HW256586   7.992   9.639   7.083 -0.3297 -0.3899 -0.3004
14843SOL     OW56587   9.622   8.172   1.711 -0.8538  0.0157 -0.2353
14843SOL    HW156588   9.631   8.151   1.808  0.2750 -0.4242 -0.4259
14843SOL    HW256589   9.555   8.110   1.670  0.3576 -1.3460 -0.2047
14844SOL     OW56590   3.788   2.282   3.433 -0.3670  0.0804  0.3433
14844SOL    HW156591   3.847   2.341   3.378  1.3055 -0.2880  1.6783
14844SOL    HW256592   3.761   2.331   3.516 -3.0273  0.7074 -0.8398
14845SOL     OW56593   7.227   5.712   3.059 -0.5532 -0.0032 -0.1772
14845SOL    HW156594   7.319   5.696   3.097 -0.1742 -0.5555 -1.2868
14845SOL    HW256595   7.170   5.758   3.127 -0.2871 -2.1082  1.5148
14846SOL     OW56596   2.266   2.428   8.406 -0.1510  0.1883  0.5086
14846SOL    HW156597   2.258   2.447   8.503 -3.2227  2.0996 -0.0622
14846SOL    HW256598   2.329   2.494   8.365  0.4297 -0.0403  1.0226
14847SOL     OW56599   8.912   5.325   0.354  0.1507 -0.0710  0.3268
14847SOL    HW156600   8.815   5.350   0.356  0.0860 -0.3878  1.6474
14847SOL    HW256601   8.955   5.366   0.274 -1.1371 -0.1616 -0.4296
14848SOL     OW56602   3.176   1.239   8.373  0.0246  0.8064  0.0531
14848SOL    HW156603   3.260   1.247   8.427 -0.6606  2.3409  0.9127
14848SOL    HW256604   3.106   1.300   8.410 -0.5661  1.6907 -2.3758
14849SOL     OW56605   9.561   8.259   5.754 -0.3251  0.6613 -0.5739
14849SOL    HW156606   9.486   8.209   5.797 -0.0492  1.1116  0.4406
14849SOL    HW256607   9.535   8.355   5.744  0.5967  1.0929  0.9692
14850SOL     OW56608   0.727   5.940   5.209  0.4236  0.6244 -0.2427
14850SOL    HW156609   0.772   5.858   5.174 -0.6132  0.1705 -0.5234
14850SOL    HW256610   0.753   6.019   5.154  1.8828  0.5973  0.3767
14851SOL     OW56611   7.406   6.094   7.574  0.3596  0.1888 -0.4416
14851SOL    HW156612   7.328   6.134   7.623  0.6315  1.8230 -1.3186
14851SOL    HW256613   7.394   6.107   7.476  1.3803 -0.2374 -0.6266
14852SOL     OW56614   5.024   0.382   2.233 -0.4405 -0.0098  0.2331
14852SOL    HW156615   4.971   0.465   2.248 -1.1065 -0.1885 -1.0262
14852SOL    HW256616   4.998   0.342   2.145  1.2665 -0.4935 -0.0650
14853SOL     OW56617   0.887   3.785   2.750 -0.2090  0.5656 -0.5584
14853SOL    HW156618   0.948   3.813   2.676 -0.6290  2.4354 -0.2303
14853SOL    HW256619   0.861   3.866   2.804  0.3137 -0.7764  1.8047
14854SOL     OW56620   5.013   2.665   0.037  0.3053  0.0695 -0.4863
14854SOL    HW156621   5.064   2.602  -0.021 -0.4099 -0.0828 -0.9579
14854SOL    HW256622   4.939   2.707  -0.016 -0.1282  0.2023  0.2156
14855SOL     OW56623   1.169   5.736   2.931  0.0464  0.2988  0.1241
14855SOL    HW156624   1.097   5.805   2.931 -0.1120  0.1735  2.0933
14855SOL    HW256625   1.198   5.717   2.837 -0.1840  2.7378 -0.4716
14856SOL     OW56626   3.949   5.373   5.431  0.5078  0.1786 -0.3268
14856SOL    HW156627   4.024   5.385   5.366  0.0785  0.0860 -0.8411
14856SOL    HW256628   3.899   5.289   5.410 -1.4443  1.6368 -1.7059
14857SOL     OW56629   9.580   3.765   4.234 -0.2744 -0.1410 -0.1203
14857SOL    HW156630   9.603   3.688   4.174 -1.0339 -0.1281 -0.4313
14857SOL    HW256631   9.486   3.795   4.216 -0.9656 -0.9854  1.9955
14858SOL     OW56632   8.876   4.829   7.241  0.2795 -0.1447 -0.3407
14858SOL    HW156633   8.805   4.861   7.179  0.0475 -2.2135 -1.2076
14858SOL    HW256634   8.962   4.875   7.220 -0.2649  0.6301 -0.8748
14859SOL     OW56635   6.229   0.705   0.826  0.0850 -0.1446 -0.3148
14859SOL    HW156636   6.253   0.650   0.906 -0.2901  0.2348  0.0633
14859SOL    HW256637   6.181   0.648   0.759  0.6518 -0.5305 -0.3964
14860SOL     OW56638   9.244   6.165   6.516  0.1638  0.2055 -0.3131
14860SOL    HW156639   9.299   6.224   6.575 -0.1631  0.6418 -0.4414
14860SOL    HW256640   9.155   6.148   6.559  0.8017 -1.4248  0.4302
14861SOL     OW56641   1.755   2.910   5.779  0.1418 -0.6157 -0.7309
14861SOL    HW156642   1.787   2.962   5.701  0.3744  0.0018 -0.2280
14861SOL    HW256643   1.796   2.946   5.863 -0.6303 -0.8282 -0.2532
14862SOL     OW56644   6.387   0.035   3.881  0.4939  0.3318  0.7435
14862SOL    HW156645   6.461   0.067   3.940 -0.6384  1.2008  1.7114
14862SOL    HW256646   6.355   0.111   3.824  0.1634  0.0199  0.5120
14863SOL     OW56647   4.148   4.450   5.638 -0.1494  0.0744 -0.1017
14863SOL    HW156648   4.171   4.472   5.732 -2.3184  2.5244 -0.0977
14863SOL    HW256649   4.192   4.516   5.576  0.5410 -0.9833 -0.7649
14864SOL     OW56650   9.552   1.484   4.038  0.0146  0.2476  0.2540
14864SOL    HW156651   9.648   1.480   4.065  0.2887 -1.7171 -0.9403
14864SOL    HW256652   9.541   1.448   3.945 -1.6959  1.6521 -0.1284
14865SOL     OW56653   9.982   0.829   6.531 -0.6773  0.2395  0.1386
14865SOL    HW156654   9.978   0.735   6.498  1.1925 -0.1864  1.0726
14865SOL    HW256655  10.002   0.891   6.454  0.3468 -0.3809 -0.1056
14866SOL     OW56656   7.398   0.049   4.574  0.4941 -0.5272  0.1234
14866SOL    HW156657   7.346  -0.026   4.615 -2.4687  0.8374 -1.0224
14866SOL    HW256658   7.366   0.136   4.612  1.4270  0.3918 -1.1837
14867SOL     OW56659   7.377   2.504   9.182 -0.6802 -0.1915  0.3464
14867SOL    HW156660   7.354   2.497   9.085 -2.4848 -0.0177  0.7354
14867SOL    HW256661   7.374   2.414   9.224 -1.4736 -0.0749  0.5592
14868SOL     OW56662   4.489   5.811   9.249 -0.3769 -0.0807  0.6681
14868SOL    HW156663   4.399   5.795   9.210 -0.5805 -0.3449  1.2378
14868SOL    HW256664   4.520   5.729   9.298  0.5542 -0.2990 -0.2639
14869SOL     OW56665   3.050   7.466   3.430  0.1938  0.0780  0.2634
14869SOL    HW156666   3.060   7.379   3.478 -1.4577  0.4187  1.2856
14869SOL    HW256667   3.113   7.533   3.470 -1.4229  0.4577  2.2519
14870SOL     OW56668   0.778   6.108   0.696 -0.0597 -0.1888  0.5416
14870SOL    HW156669   0.744   6.175   0.762  0.0085  0.1158  0.2668
14870SOL    HW256670   0.875   6.090   0.714 -0.2832 -0.8175  1.1234
14871SOL     OW56671   8.698   1.917   5.343  0.0872 -0.2189  0.1710
14871SOL    HW156672   8.718   1.849   5.273 -1.1407 -0.2866 -0.1236
14871SOL    HW256673   8.769   1.915   5.413  0.6349 -1.0380 -0.4064
14872SOL     OW56674   1.768   9.953   7.924 -0.0066 -0.4162 -0.8154
14872SOL    HW156675   1.688   9.912   7.969 -0.6404 -0.3564 -1.8577
14872SOL    HW256676   1.805   9.888   7.857 -0.3335  0.2770 -1.6762
14873SOL     OW56677   7.479   9.487   2.800 -0.0904 -0.5483 -0.2748
14873SOL    HW156678   7.382   9.497   2.821 -0.3466 -0.3740 -1.5080
14873SOL    HW256679   7.491   9.475   2.701  1.1628 -0.2782 -0.1633
14874SOL     OW56680   4.752   0.216   5.767  0.3056  0.5815 -0.8963
14874SOL    HW156681   4.667   0.250   5.809  0.0318 -1.2473  0.0648
14874SOL    HW256682   4.762   0.258   5.676 -0.6972  2.1906 -0.2989
14875SOL     OW56683   7.744   8.778   8.203  0.0779 -0.5063 -0.2030
14875SOL    HW156684   7.696   8.690   8.205  1.6404 -1.4305 -1.8735
14875SOL    HW256685   7.796   8.786   8.117 -1.1879  2.6722 -0.7564
14876SOL     OW56686   0.120   1.564   4.742  0.3697 -0.6178  0.3356
14876SOL    HW156687   0.053   1.499   4.706  0.8009 -1.4364  0.9769
14876SOL    HW256688   0.199   1.568   4.681 -1.7949  3.1315 -2.4125
14877SOL     OW56689   7.363   2.944   0.142 -0.4006 -0.6475  0.2109
14877SOL    HW156690   7.437   2.938   0.210  0.4678 -0.7628 -0.7277
14877SOL    HW256691   7.289   3.000   0.179 -0.6076 -1.9683  1.8491
14878SOL     OW56692   6.955   8.678   7.501  0.9076  0.1725 -0.3173
14878SOL    HW156693   6.892   8.748   7.535  0.2361 -0.2294 -0.7250
14878SOL    HW256694   6.966   8.688   7.402 -1.9512 -2.4601 -0.9757
14879SOL     OW56695   1.512   9.106   3.728  0.4619 -0.2639  0.0456
14879SOL    HW156696   1.539   9.111   3.632 -0.8273 -3.5848 -0.5593
14879SOL    HW256697   1.422   9.146   3.740  1.1663  1.3332  0.1443
14880SOL     OW56698   0.213   0.799   5.325 -0.0239 -0.0784 -0.5841
14880SOL    HW156699   0.282   0.745   5.276  0.3154 -0.6916  0.5393
14880SOL    HW256700   0.173   0.742   5.397 -1.8901  0.1981 -1.3925
14881SOL     OW56701   8.732   8.847   6.819 -0.2040 -0.1252 -0.5321
14881SOL    HW156702   8.751   8.834   6.916 -0.1108  2.6869 -0.1349
14881SOL    HW256703   8.737   8.758   6.772  2.9341 -1.0759  1.4512
14882SOL     OW56704   6.847   9.991   3.383  0.0398 -0.2008 -0.1899
14882SOL    HW156705   6.920  10.052   3.350 -1.8437  1.7484 -0.8868
14882SOL    HW256706   6.800   9.951   3.304 -1.5623  0.9215  0.1733
14883SOL     OW56707   7.701   2.531   1.094  0.1154  0.3261 -0.2274
14883SOL    HW156708   7.622   2.565   1.144  2.0867  1.3798  2.2596
14883SOL    HW256709   7.743   2.607   1.043  0.2656  0.0412 -0.5294
14884SOL     OW56710   8.635   6.762   0.055 -0.2791  0.0884  0.1347
14884SOL    HW156711   8.618   6.823  -0.022 -0.0666 -0.0293 -0.0049
14884SOL    HW256712   8.593   6.673   0.037 -0.2627  0.0723  0.1739
14885SOL     OW56713   4.172   3.833   1.712  0.3313  0.1672 -0.1827
14885SOL    HW156714   4.148   3.799   1.803 -2.3114 -0.1115 -0.9379
14885SOL    HW256715   4.236   3.910   1.720  0.1379  0.1219  1.9079
14886SOL     OW56716   3.846   4.633   1.304  0.1284 -0.4532 -0.2035
14886SOL    HW156717   3.836   4.731   1.290 -1.8086 -0.2584  2.1013
14886SOL    HW256718   3.823   4.585   1.220 -1.4584  0.9927 -0.6329
14887SOL     OW56719   0.972   9.930   7.536  0.0943 -0.1678 -0.6894
14887SOL    HW156720   1.003  10.023   7.514  1.3581 -0.9079 -2.1692
14887SOL    HW256721   0.902   9.902   7.471 -0.4840 -0.1628 -0.0766
14888SOL     OW56722   1.099   6.462   8.026  0.0260  0.2663 -0.0865
14888SOL    HW156723   1.081   6.453   8.124  0.0787  0.1131 -0.0905
14888SOL    HW256724   1.049   6.541   7.990 -0.3773  0.0402 -0.0308
14889SOL     OW56725   0.647   0.148   8.609  0.0923 -0.2493  0.3668
14889SOL    HW156726   0.641   0.201   8.524 -4.3529 -0.6918  0.2810
14889SOL    HW256727   0.698   0.064   8.593  0.5997  0.3934 -1.4576
14890SOL     OW56728   1.060   0.510   7.449 -0.0374  0.5589 -0.2346
14890SOL    HW156729   1.128   0.492   7.378  0.5875 -1.8931  0.9295
14890SOL    HW256730   1.106   0.540   7.532 -0.2861 -1.7027  0.7501
14891SOL     OW56731   3.694   2.872   0.985  0.3667 -0.3730  0.4224
14891SOL    HW156732   3.670   2.965   0.958 -1.0552 -0.5993  0.8832
14891SOL    HW256733   3.623   2.808   0.955  1.5313 -1.3679 -0.2471
14892SOL     OW56734   2.330   6.614   6.964 -0.1066 -0.1632  0.2880
14892SOL    HW156735   2.407   6.668   6.932  0.1774 -1.5500 -1.4762
14892SOL    HW256736   2.244   6.656   6.933  0.0240  0.3270  0.5924
14893SOL     OW56737   2.915   1.152   1.423  0.2552 -0.0812 -0.2563
14893SOL    HW156738   2.904   1.076   1.487 -2.2834 -0.1489 -0.7242
14893SOL    HW256739   2.891   1.123   1.331  0.9861  0.8206 -0.7447
14894SOL     OW56740   9.688   4.264   2.196  0.3998  0.3367 -0.5906
14894SOL    HW156741   9.637   4.348   2.210  0.9608  0.2997  1.8316
14894SOL    HW256742   9.630   4.198   2.147 -1.0498  1.1255  0.0234
14895SOL     OW56743   0.200   5.036   3.640 -0.0008 -0.2435 -0.1534
14895SOL    HW156744   0.103   5.052   3.624  0.1496  1.1475  0.2717
14895SOL    HW256745   0.212   4.952   3.694 -0.8930 -0.9776 -1.0802
14896SOL     OW56746   3.534   6.134   8.270 -0.1940 -0.1141 -0.5072
14896SOL    HW156747   3.561   6.223   8.305  1.5473 -0.8527  0.0629
14896SOL    HW256748   3.521   6.071   8.347  0.8795 -0.9784 -1.0304
14897SOL     OW56749   3.503   2.422   8.523  0.1613 -0.0528  0.1139
14897SOL    HW156750   3.453   2.416   8.610 -0.9019  0.7713 -0.4282
14897SOL    HW256751   3.532   2.516   8.508 -0.3484 -0.0453 -0.8147
14898SOL     OW56752   2.497   5.359   5.724  0.6031  0.1553  0.0203
14898SOL    HW156753   2.540   5.305   5.797 -1.1179 -0.1330  0.8683
14898SOL    HW256754   2.480   5.452   5.757  0.0328  0.0901 -0.0739
14899SOL     OW56755   4.385   6.269   3.182 -0.0941  0.0287  0.4137
14899SOL    HW156756   4.480   6.279   3.212 -0.3342  1.3279  0.7584
14899SOL    HW256757   4.363   6.172   3.172  0.7790 -0.3372  1.9166
14900SOL     OW56758   5.196   1.341   6.656 -0.2265  0.1143 -0.1914
14900SOL    HW156759   5.218   1.355   6.560  1.7571 -1.2925  0.0130
14900SOL    HW256760   5.163   1.248   6.670 -2.3634  0.9123  0.2005
14901SOL     OW56761   7.246   0.913   2.130 -0.1977 -0.0384 -0.2497
14901SOL    HW156762   7.274   0.824   2.095 -0.1720 -0.2289  0.2544
14901SOL    HW256763   7.310   0.983   2.098  0.1309 -0.2896 -0.1412
14902SOL     OW56764   1.392   7.013   0.463  0.3260 -0.3308 -0.4027
14902SOL    HW156765   1.477   6.987   0.509 -0.9477 -0.4442  1.9252
14902SOL    HW256766   1.408   7.017   0.364  2.6796 -1.6850 -0.1105
14903SOL     OW56767   7.325   0.775   3.591 -0.0058  0.0649  0.1606
14903SOL    HW156768   7.367   0.742   3.676  1.7915  1.0941 -0.2948
14903SOL    HW256769   7.319   0.875   3.594  0.1735  0.1136 -0.9496
14904SOL     OW56770   2.160   2.097   5.078  0.0001 -0.1640 -0.6102
14904SOL    HW156771   2.122   2.015   5.035  1.4346 -1.2898  0.2040
14904SOL    HW256772   2.087   2.147   5.125 -0.8795 -1.0070 -1.0606
14905SOL     OW56773   9.307   8.579   5.283 -0.3338  0.6234  0.1086
14905SOL    HW156774   9.332   8.499   5.338 -0.3776  0.0050 -0.7668
14905SOL    HW256775   9.314   8.661   5.339 -0.9626 -0.0688  1.2269
14906SOL     OW56776   7.960   5.640   4.169 -0.4746 -0.0533 -0.1648
14906SOL    HW156777   8.049   5.676   4.142 -0.4083  0.7511  1.0590
14906SOL    HW256778   7.970   5.579   4.248 -1.0893  0.7361  0.5430
14907SOL     OW56779   6.864   9.500   7.139 -0.4438  0.6261  0.6668
14907SOL    HW156780   6.867   9.472   7.235 -1.2221 -1.4393  0.1173
14907SOL    HW256781   6.769   9.501   7.108 -0.3191  2.6367  0.2809
14908SOL     OW56782   3.899   1.485   1.085  0.3167  0.9419 -0.4338
14908SOL    HW156783   3.861   1.476   0.993  0.3398  1.4025 -0.4927
14908SOL    HW256784   3.838   1.440   1.151 -0.8453  2.4584 -0.4128
14909SOL     OW56785   9.983   9.711   0.165 -0.1926 -0.0963  0.1455
14909SOL    HW156786   9.893   9.686   0.131  0.3131 -0.1153 -1.1980
14909SOL    HW256787   9.980   9.803   0.204 -0.7279  0.0123 -0.1498
14910SOL     OW56788   4.202   6.550   4.717  0.3149 -0.3987 -0.5504
14910SOL    HW156789   4.256   6.579   4.638  2.0398  0.3063  0.8459
14910SOL    HW256790   4.211   6.618   4.790 -2.6572 -0.1587 -0.3557
14911SOL     OW56791   0.281   9.682   7.370  0.0093 -0.0538  0.0927
14911SOL    HW156792   0.286   9.780   7.353  0.1453 -0.4043 -1.9324
14911SOL    HW256793   0.278   9.633   7.284 -3.0668 -1.7179  1.0947
14912SOL     OW56794   1.699   5.437   2.553 -0.0318 -0.0335  0.5531
14912SOL    HW156795   1.749   5.524   2.552 -1.3760  0.7592 -0.7048
14912SOL    HW256796   1.750   5.369   2.501  0.9183  0.0593  1.3487
14913SOL     OW56797   6.631   7.922   3.692  0.2116 -0.1049 -0.3604
14913SOL    HW156798   6.664   7.887   3.779  0.8788  2.1090  0.2879
14913SOL    HW256799   6.531   7.912   3.688 -0.0030  1.3009  1.3449
14914SOL     OW56800   8.505   0.496   7.314 -0.0404 -0.0278 -0.7354
14914SOL    HW156801   8.471   0.473   7.222 -1.5013 -1.6304  0.1636
14914SOL    HW256802   8.437   0.551   7.361  0.2752 -0.0452 -0.2619
14915SOL     OW56803   8.231   4.308   7.391 -0.1776  0.7003  0.0996
14915SOL    HW156804   8.143   4.347   7.366 -1.1286 -0.4826  1.5199
14915SOL    HW256805   8.217   4.221   7.438  1.8068 -0.1593 -0.8424
14916SOL     OW56806   2.255   2.169   1.620  0.6706  0.0522 -0.1788
14916SOL    HW156807   2.312   2.122   1.553  0.3866 -2.2642  1.1495
14916SOL    HW256808   2.292   2.260   1.637  1.8211 -0.0415 -2.0718
14917SOL     OW56809   0.618   1.724   1.838  0.0784 -0.1964 -0.3902
14917SOL    HW156810   0.611   1.624   1.839  1.8537 -0.3404  1.2293
14917SOL    HW256811   0.548   1.763   1.897  1.4321 -0.6798  1.5855
14918SOL     OW56812   9.902   0.708   2.061  0.9971 -0.1490 -0.1919
14918SOL    HW156813   9.918   0.801   2.028 -0.8891 -0.3581 -1.7890
14918SOL    HW256814   9.882   0.648   1.983 -3.8205 -0.6208  1.2730
14919SOL     OW56815   1.143   4.700   6.441  0.2715  0.0650  0.0819
14919SOL    HW156816   1.108   4.625   6.496 -0.3573 -0.2106 -0.6963
14919SOL    HW256817   1.231   4.730   6.479  0.6114 -1.1718  0.2890
14920SOL     OW56818   1.222   1.559   9.139 -0.1682 -0.3942 -0.0481
14920SOL    HW156819   1.255   1.551   9.233  2.1167 -1.5339 -0.8980
14920SOL    HW256820   1.263   1.640   9.096  0.6027 -1.1294 -0.7310
14921SOL     OW56821   6.662   8.466   4.040  0.2808 -0.2453 -0.0770
14921SOL    HW156822   6.753   8.427   4.026  0.3513 -0.4065  0.8027
14921SOL    HW256823   6.607   8.454   3.958  0.9653 -0.3958 -0.5120
14922SOL     OW56824   6.196   9.782   7.856 -0.1148  0.3963 -0.3324
14922SOL    HW156825   6.233   9.854   7.914  1.5977 -0.9075  0.2553
14922SOL    HW256826   6.129   9.729   7.908 -0.0334  0.4441 -0.1779
14923SOL     OW56827   2.252   5.584   9.841 -0.0563 -0.4207  0.1061
14923SOL    HW156828   2.294   5.588   9.931  0.6486 -1.3056 -0.1838
14923SOL    HW256829   2.310   5.532   9.779 -0.1133  0.9165 -1.0948
14924SOL     OW56830   1.879   1.144   1.124 -0.0186 -0.0925 -0.1597
14924SOL    HW156831   1.949   1.101   1.180 -0.3199 -1.4316 -0.7940
14924SOL    HW256832   1.788   1.114   1.153 -0.1917 -0.5549 -1.1420
14925SOL     OW56833   8.719   1.666   3.605  0.1177 -0.2251  0.3726
14925SOL    HW156834   8.681   1.747   3.560  1.8477  0.6554  0.4447
14925SOL    HW256835   8.653   1.591   3.601 -1.1549  0.9286 -0.4790
14926SOL     OW56836   8.590   3.721   7.090  0.8842 -0.2347  0.6625
14926SOL    HW156837   8.684   3.689   7.089  1.1613  0.5733 -2.0719
14926SOL    HW256838   8.587   3.820   7.081 -0.2616 -0.4200 -1.3268
14927SOL     OW56839   1.027   3.834   8.170  0.2186 -0.1411  0.1619
14927SOL    HW156840   0.966   3.791   8.236 -1.0521  2.0306  0.4243
14927SOL    HW256841   0.980   3.844   8.082  0.8451 -0.1804 -0.1830
14928SOL     OW56842   9.525   5.308   9.846  0.4230 -0.1116  0.6457
14928SOL    HW156843   9.597   5.329   9.781 -1.2734  1.3192 -0.8048
14928SOL    HW256844   9.470   5.232   9.812 -0.4318  0.5978  0.4355
14929SOL     OW56845   9.043   9.473   8.101 -0.0344  0.0362 -0.1458
14929SOL    HW156846   9.120   9.416   8.073  0.3049 -0.8246  2.3820
14929SOL    HW256847   9.029   9.546   8.034  2.3764 -0.3341 -1.1054
14930SOL     OW56848   8.656   6.162   4.996 -0.3476 -0.3768  0.6219
14930SOL    HW156849   8.657   6.186   5.093 -0.6808  0.8584  0.3252
14930SOL    HW256850   8.563   6.170   4.960 -0.1333 -0.2999  0.0707
14931SOL     OW56851   7.013   6.982   6.403 -0.7952  0.4564  0.0572
14931SOL    HW156852   7.050   6.889   6.390  2.7908  1.8067  0.0276
14931SOL    HW256853   6.984   6.993   6.498 -2.0431 -0.9520 -0.1456
14932SOL     OW56854   9.218   2.910   3.596 -0.2007 -0.1799 -0.0918
14932SOL    HW156855   9.248   2.840   3.661 -0.5169 -1.1860 -1.0061
14932SOL    HW256856   9.258   2.998   3.621 -0.0503 -0.6187  1.2594
14933SOL     OW56857   3.990   3.008   5.982  0.8271 -0.2428 -0.4912
14933SOL    HW156858   3.939   2.933   5.940 -0.7124  1.0694 -0.9870
14933SOL    HW256859   4.022   3.071   5.911 -0.9819  1.4770  0.1763
14934SOL     OW56860   3.859   0.459   7.258  0.2483  0.1172 -0.2801
14934SOL    HW156861   3.871   0.378   7.202 -1.7490  0.1933 -0.8368
14934SOL    HW256862   3.918   0.532   7.224  0.8397 -0.5829 -0.7697
14935SOL     OW56863   4.413   0.637   8.194  0.2862 -0.3450 -1.0439
14935SOL    HW156864   4.491   0.682   8.237  0.2044  1.9523 -3.2020
14935SOL    HW256865   4.361   0.588   8.263  1.8968  0.6663  0.9341
14936SOL     OW56866   0.192   5.967   4.168  0.6181  0.1782  0.1785
14936SOL    HW156867   0.258   5.903   4.208 -0.3682 -0.9399  0.0406
14936SOL    HW256868   0.232   6.010   4.088  1.6131  0.3830  0.7846
14937SOL     OW56869   8.936   3.383   2.653 -0.1760  0.2290  0.1234
14937SOL    HW156870   8.956   3.399   2.556  1.0792 -0.7069  0.2082
14937SOL    HW256871   8.838   3.374   2.666 -0.3496  0.3154 -1.0798
14938SOL     OW56872   1.657   3.134   1.106  0.0604  0.4603  0.0550
14938SOL    HW156873   1.693   3.225   1.125  1.6531 -0.2542  0.4504
14938SOL    HW256874   1.590   3.141   1.032 -0.3833  2.0571  0.5761
14939SOL     OW56875   2.902   5.741   6.319 -0.0001  0.8333 -0.0247
14939SOL    HW156876   2.854   5.672   6.265  1.0228  1.1447 -1.3606
14939SOL    HW256877   2.871   5.832   6.291 -0.6317  0.9427  1.0403
14940SOL     OW56878   1.181   5.180   6.079  0.0977 -0.2109  0.0681
14940SOL    HW156879   1.087   5.204   6.056 -0.6918 -0.6771  2.6074
14940SOL    HW256880   1.193   5.081   6.075  0.3119 -0.1996  0.3505
14941SOL     OW56881   9.070   5.973   3.433 -0.3071 -0.4614 -0.2987
14941SOL    HW156882   9.114   5.996   3.346 -0.2637  0.1750 -0.1091
14941SOL    HW256883   8.971   5.983   3.424 -0.2205  0.7328  0.0630
14942SOL     OW56884   7.317   6.125   5.447  0.3739  0.0668 -0.2376
14942SOL    HW156885   7.286   6.136   5.542 -0.8462  0.1731 -0.6461
14942SOL    HW256886   7.407   6.168   5.437  0.2183  0.6436  0.7075
14943SOL     OW56887   8.120   8.192   3.347 -0.9136  0.1604  0.1572
14943SOL    HW156888   8.148   8.098   3.366 -2.5990 -0.3093  0.4039
14943SOL    HW256889   8.098   8.201   3.250 -2.2059 -0.1040  0.4158
14944SOL     OW56890   3.722   9.104   9.108  0.5377 -0.4062  0.0095
14944SOL    HW156891   3.688   9.137   9.196 -0.1355  1.0725 -0.7884
14944SOL    HW256892   3.645   9.097   9.043  1.1967 -0.4422 -0.7795
14945SOL     OW56893   8.799   3.595   3.073 -0.7648 -0.5476  0.2188
14945SOL    HW156894   8.795   3.562   3.167  1.6740  1.3468  1.0540
14945SOL    HW256895   8.817   3.518   3.011  2.0481 -1.2693  1.8284
14946SOL     OW56896   7.252   5.346   0.715  0.1129  0.6414 -0.3361
14946SOL    HW156897   7.331   5.285   0.719 -0.4071 -0.1456 -1.8514
14946SOL    HW256898   7.230   5.378   0.807  0.0701 -1.8796  0.5841
14947SOL     OW56899   8.737   2.936   9.473  0.2098 -0.1511 -0.3763
14947SOL    HW156900   8.728   3.033   9.449  0.8337 -0.4975 -2.1181
14947SOL    HW256901   8.789   2.927   9.558  0.0153  1.0456 -0.1265
14948SOL     OW56902   7.276   8.512   7.995  0.1610  0.2472 -0.5760
14948SOL    HW156903   7.224   8.520   8.080  0.4173  1.1805 -0.4939
14948SOL    HW256904   7.273   8.599   7.946  0.9592  0.0668 -0.9635
14949SOL     OW56905   8.171   5.776   6.947 -0.3450 -0.4725 -0.0556
14949SOL    HW156906   8.193   5.804   6.853  0.7835  0.6433  0.5322
14949SOL    HW256907   8.232   5.822   7.011 -1.2017 -1.1248  1.2540
14950SOL     OW56908   6.666   5.632   7.907 -0.5340 -0.0676  0.2402
14950SOL    HW156909   6.673   5.691   7.827 -0.5903  0.3153  0.5178
14950SOL    HW256910   6.615   5.550   7.884  0.2607 -0.3967 -0.3707
14951SOL     OW56911   4.306   1.759   7.661 -0.2015 -0.0132  0.1697
14951SOL    HW156912   4.290   1.679   7.719 -2.5887 -0.3673 -0.9066
14951SOL    HW256913   4.231   1.825   7.673 -0.2052  0.3568 -1.7248
14952SOL     OW56914   7.013   9.720   3.760 -0.1151  0.7182 -0.2279
14952SOL    HW156915   7.111   9.723   3.779  0.3035  0.4367 -2.1805
14952SOL    HW256916   6.973   9.639   3.802  1.0782 -0.7761 -1.8951
14953SOL     OW56917   0.137   3.598   1.019  0.1371  0.2587  0.5711
14953SOL    HW156918   0.129   3.505   1.056  2.5684 -0.2922 -0.2183
14953SOL    HW256919   0.095   3.601   0.928  1.7664 -0.5881 -0.2306
14954SOL     OW56920   4.149   8.954   2.978  0.2176  0.8619  0.1294
14954SOL    HW156921   4.103   8.966   3.066  0.4561 -2.3331  0.7496
14954SOL    HW256922   4.230   8.896   2.990 -0.2883 -0.4282 -2.3315
14955SOL     OW56923   1.166   8.652   9.129 -0.0646  0.7064  0.1501
14955SOL    HW156924   1.231   8.725   9.152  1.2700 -0.0622 -1.0614
14955SOL    HW256925   1.136   8.606   9.212 -0.9019  2.5966  0.9363
14956SOL     OW56926   3.669   7.828   3.680 -0.8607  0.4517  0.5312
14956SOL    HW156927   3.720   7.900   3.632 -0.7383  1.1203  1.6636
14956SOL    HW256928   3.598   7.792   3.619 -0.8703  1.4703 -0.0761
14957SOL     OW56929   0.219   9.892   1.242  0.6703  0.3970 -0.2591
14957SOL    HW156930   0.180   9.870   1.331 -0.2058  0.6671 -0.5704
14957SOL    HW256931   0.293   9.829   1.222  0.0714 -0.4313  0.1258
14958SOL     OW56932   4.935   9.828   4.931 -0.2061 -0.7811 -0.0926
14958SOL    HW156933   5.024   9.784   4.915 -0.3625 -1.4209  0.7624
14958SOL    HW256934   4.950   9.919   4.969  0.0876 -0.7642 -0.2390
14959SOL     OW56935   4.665   9.818   8.396 -0.2715  0.4816 -0.0804
14959SOL    HW156936   4.574   9.780   8.383  0.4594 -1.1525 -0.5138
14959SOL    HW256937   4.727   9.747   8.428  1.2355  1.1503 -1.4054
14960SOL     OW56938   1.213   9.924   7.786  0.4576  0.8195 -0.1712
14960SOL    HW156939   1.115   9.907   7.789  0.5038  0.5488 -0.0912
14960SOL    HW256940   1.236   9.978   7.705  0.1398  1.6150  0.2700
14961SOL     OW56941   8.368   0.599   9.245  0.2954 -0.0046 -0.0318
14961SOL    HW156942   8.365   0.699   9.245  1.5846  0.0650 -1.7917
14961SOL    HW256943   8.463   0.569   9.239 -0.1456 -1.3223 -0.4867
14962SOL     OW56944   3.717   6.216   0.537  0.4708  0.5587  0.2983
14962SOL    HW156945   3.710   6.120   0.564  0.8142  0.4199 -0.1194
14962SOL    HW256946   3.741   6.271   0.618  0.5909  0.2576  0.4679
14963SOL     OW56947   9.451   6.845   0.497 -0.1317  0.3309 -0.2572
14963SOL    HW156948   9.462   6.943   0.484 -0.0912  0.1342 -1.7682
14963SOL    HW256949   9.364   6.827   0.544  0.8883  1.2036  2.0298
14964SOL     OW56950   8.081   3.196   4.708 -0.1025 -0.1664 -0.1748
14964SOL    HW156951   8.166   3.204   4.760 -0.5129  0.6125  0.3891
14964SOL    HW256952   8.032   3.283   4.711 -0.7545 -0.5118 -0.7779
14965SOL     OW56953   8.818   9.178   0.308  0.2274 -0.1146 -0.0091
14965SOL    HW156954   8.765   9.159   0.391  1.0217 -1.9078  0.1040
14965SOL    HW256955   8.776   9.132   0.230 -0.0456  0.8905 -0.4676
14966SOL     OW56956   1.589   3.107   2.432  0.3013 -0.2256 -0.2180
14966SOL    HW156957   1.516   3.040   2.444 -0.7488  0.7599 -0.9979
14966SOL    HW256958   1.586   3.143   2.338  1.0340  0.6986  0.1043
14967SOL     OW56959   1.399   6.310   3.206  0.0946 -0.6370 -0.1225
14967SOL    HW156960   1.348   6.274   3.284 -0.0540 -2.0299 -0.8550
14967SOL    HW256961   1.475   6.248   3.184  1.1881  0.6293 -0.0036
14968SOL     OW56962   7.419   2.825   0.889 -0.0150  0.3556  0.0053
14968SOL    HW156963   7.461   2.916   0.883  0.8940 -0.1050 -0.8246
14968SOL    HW256964   7.432   2.777   0.802  0.7044 -1.0780  0.8949
14969SOL     OW56965   2.810   3.011   1.760 -0.3142  0.4121  0.7170
14969SOL    HW156966   2.795   3.016   1.661 -0.4863  1.7266  0.7908
14969SOL    HW256967   2.740   2.953   1.802 -0.1604 -0.2607  0.0543
14970SOL     OW56968   1.504   5.840   4.653 -0.6326 -0.4512  0.0960
14970SOL    HW156969   1.452   5.898   4.590 -1.1569 -0.2587  0.7009
14970SOL    HW256970   1.442   5.795   4.716 -0.1911 -1.3763 -0.1107
14971SOL     OW56971   8.707   4.000   9.107  0.1124  0.1203 -0.1884
14971SOL    HW156972   8.751   3.928   9.054 -0.4942  1.5120 -2.6322
14971SOL    HW256973   8.608   3.983   9.111  0.2136 -0.2703  0.9910
14972SOL     OW56974   4.657   7.481   0.488  0.3106 -0.3458  0.3035
14972SOL    HW156975   4.733   7.545   0.476  1.1644 -1.1745  1.1629
14972SOL    HW256976   4.687   7.389   0.464  0.0857 -0.9368  2.2019
14973SOL     OW56977   8.215   8.178   0.309  0.1117 -0.1658 -0.0472
14973SOL    HW156978   8.237   8.086   0.342  0.7694 -0.5917 -1.6410
14973SOL    HW256979   8.249   8.189   0.216  2.9421  2.7901  1.2351
14974SOL     OW56980   0.064   8.982   1.974  0.6829  0.1651  0.4291
14974SOL    HW156981   0.041   9.006   1.879  1.2621  0.3178  0.3292
14974SOL    HW256982  -0.014   8.935   2.016  1.1679 -1.7287 -0.7450
14975SOL     OW56983   1.937   5.580   0.794  0.4796  0.2182  0.7539
14975SOL    HW156984   1.933   5.654   0.862 -0.9229  1.7395 -0.9203
14975SOL    HW256985   1.856   5.522   0.804 -0.0366  0.8042 -0.0069
14976SOL     OW56986   2.083   3.305   1.004 -0.2479 -0.2974 -0.2273
14976SOL    HW156987   1.988   3.310   0.972 -0.0950 -0.1861 -0.6753
14976SOL    HW256988   2.137   3.374   0.955 -0.0874  0.1375  0.5591
14977SOL     OW56989   4.096   8.133   4.056 -0.1338 -0.5355  0.0111
14977SOL    HW156990   4.122   8.155   3.963  0.8232  0.8261  0.5843
14977SOL    HW256991   4.128   8.040   4.078  1.1387 -0.2291 -0.4739
14978SOL     OW56992   7.599   2.728   2.166 -0.5605 -0.4200 -0.7679
14978SOL    HW156993   7.507   2.703   2.135 -1.0473 -0.8768  0.9639
14978SOL    HW256994   7.662   2.654   2.143 -1.3904 -1.8753  1.4820
14979SOL     OW56995   6.736   1.497   4.028 -0.0723 -0.0044 -0.2639
14979SOL    HW156996   6.815   1.435   4.035  0.5620  0.7550 -0.5990
14979SOL    HW256997   6.680   1.471   3.950  0.4141  0.0882 -0.6479
14980SOL     OW56998   6.811   0.622   0.534 -0.0880 -0.7473 -0.3263
14980SOL    HW156999   6.737   0.689   0.532 -0.3480 -1.0285 -0.1374
14980SOL    HW257000   6.800   0.558   0.457 -0.0751 -0.8273 -0.2616
14981SOL     OW57001   9.704   9.697   2.567  0.4845  0.0770 -0.0084
14981SOL    HW157002   9.679   9.636   2.642  0.9855 -0.5841 -0.3694
14981SOL    HW257003   9.624   9.712   2.508  0.2853 -0.0018  0.2397
14982SOL     OW57004   3.396   9.545   0.119  0.2626 -0.2099  0.1596
14982SOL    HW157005   3.403   9.508   0.212 -0.6507  1.0798  0.7482
14982SOL    HW257006   3.300   9.543   0.089  0.1355  2.0303  0.3488
14983SOL     OW57007   6.724   0.235   1.336 -0.4828  0.2142  0.1008
14983SOL    HW157008   6.747   0.326   1.370  1.4574  0.5737 -2.0729
14983SOL    HW257009   6.804   0.194   1.292 -1.9984 -1.5741 -1.0864
14984SOL     OW57010   5.529   2.584   0.554 -0.1571  0.8204  0.0877
14984SOL    HW157011   5.453   2.609   0.495 -0.1036 -0.5850 -0.5924
14984SOL    HW257012   5.510   2.497   0.599  0.1871  1.4426  1.4627
14985SOL     OW57013   9.935   2.706   0.112  0.4475 -0.0297  0.1478
14985SOL    HW157014   9.989   2.623   0.122  1.2687  0.5524  0.6314
14985SOL    HW257015   9.963   2.754   0.029 -0.7130 -0.7237 -0.6728
14986SOL     OW57016   9.638   2.268   0.360 -0.1886 -0.4144 -0.0963
14986SOL    HW157017   9.553   2.251   0.312 -0.8693 -1.0122  1.2806
14986SOL    HW257018   9.631   2.353   0.412  0.0874 -0.3959 -0.0884
14987SOL     OW57019   8.789   6.488   5.816  0.4424  0.2775  0.9275
14987SOL    HW157020   8.746   6.404   5.847 -1.8643  1.3118  0.6576
14987SOL    HW257021   8.873   6.504   5.867 -0.7779 -0.5350  3.2269
14988SOL     OW57022   0.589   7.501   5.287  0.2134 -0.0260  0.7507
14988SOL    HW157023   0.598   7.504   5.188 -0.0341 -0.5808  0.7125
14988SOL    HW257024   0.583   7.406   5.318  0.9281  0.1133  1.3523
14989SOL     OW57025   6.438   2.693   9.076  0.3590  0.1536 -0.1440
14989SOL    HW157026   6.432   2.774   9.017  1.2810  0.7387  0.5514
14989SOL    HW257027   6.415   2.612   9.023 -1.3052  0.9425 -0.6710
14990SOL     OW57028   4.340   7.633   4.306 -0.0021  0.5077  0.6949
14990SOL    HW157029   4.353   7.542   4.347  0.4276  0.0246 -0.4761
14990SOL    HW257030   4.243   7.654   4.301 -0.2332 -0.7232 -0.7361
14991SOL     OW57031   1.944   6.211   4.468 -0.1534  0.2237 -0.3981
14991SOL    HW157032   1.854   6.216   4.425 -0.2345  1.3289 -0.1224
14991SOL    HW257033   1.935   6.174   4.560 -0.5116  1.5089  0.1017
14992SOL     OW57034   7.995   9.805   9.027 -0.5758  0.0974 -0.3253
14992SOL    HW157035   7.967   9.901   9.035 -0.6664  0.1080 -0.7478
14992SOL    HW257036   8.093   9.800   9.008 -0.2790  0.0603  1.1374
14993SOL     OW57037   4.846   2.924   9.098 -0.1600  0.2363  0.1477
14993SOL    HW157038   4.944   2.919   9.117 -0.1558 -2.3423 -0.3333
14993SOL    HW257039   4.832   2.943   9.001 -0.1381  0.7212  0.2390
14994SOL     OW57040   9.374   3.846   9.866  0.2034  0.0304 -0.2676
14994SOL    HW157041   9.327   3.770   9.910 -1.9238  0.7939 -1.1770
14994SOL    HW257042   9.427   3.896   9.934  0.0068 -1.0748  0.7061
14995SOL     OW57043   0.560   4.809   9.272 -0.1010 -0.0624 -0.0764
14995SOL    HW157044   0.509   4.797   9.187 -0.7370 -1.3775  0.4787
14995SOL    HW257045   0.603   4.899   9.272  0.1154 -0.1379 -1.8977
14996SOL     OW57046   9.352   4.472   2.356 -0.3607  0.1840  0.2787
14996SOL    HW157047   9.388   4.386   2.391 -0.1064  0.3132  0.3323
14996SOL    HW257048   9.252   4.467   2.354 -0.3271 -0.3194 -0.2521
14997SOL     OW57049   7.330   0.584   9.046 -0.0583  0.5691  0.6486
14997SOL    HW157050   7.281   0.669   9.029  1.4254  1.5384  1.1682
14997SOL    HW257051   7.360   0.581   9.141 -1.1075 -1.0741  0.9521
14998SOL     OW57052   6.274   1.854   9.578  0.4160 -0.1725 -0.4868
14998SOL    HW157053   6.353   1.807   9.619  0.6466  0.3950 -0.2858
14998SOL    HW257054   6.272   1.949   9.608  0.5091  0.2177 -1.6748
14999SOL     OW57055   1.203   3.789   1.545  0.0240  0.3455 -0.3487
14999SOL    HW157056   1.107   3.767   1.561 -0.2593  1.1357 -0.9350
14999SOL    HW257057   1.244   3.821   1.630 -0.4009  0.6163 -0.2410
15000SOL     OW57058   9.564   3.420   3.457 -1.1639  0.5482 -0.2664
15000SOL    HW157059   9.509   3.502   3.473  0.4439  1.5774  0.1169
15000SOL    HW257060   9.636   3.414   3.527 -0.4280 -0.4439 -1.0958
15001SOL     OW57061   8.335   0.219   7.842  0.1857  0.2277 -0.3364
15001SOL    HW157062   8.369   0.182   7.929 -2.5283 -1.3777  0.1285
15001SOL    HW257063   8.351   0.153   7.769 -1.8988 -0.6222 -0.0830
15002SOL     OW57064   1.459   6.119   0.700  0.0435  0.4859  0.0903
15002SOL    HW157065   1.433   6.096   0.607  0.4151  1.5574 -0.2844
15002SOL    HW257066   1.559   6.122   0.707  0.0219  0.0406  0.6143
15003SOL     OW57067   9.617   1.770   2.174  0.1548 -0.2098 -0.3606
15003SOL    HW157068   9.549   1.755   2.246 -0.7814  1.2545 -0.8976
15003SOL    HW257069   9.684   1.696   2.175 -0.5177 -0.8321  1.2402
15004SOL     OW57070   2.239   6.163   9.583 -0.3598 -0.3129  0.1054
15004SOL    HW157071   2.325   6.196   9.543 -0.1011 -0.2640  0.6963
15004SOL    HW257072   2.247   6.162   9.683 -1.7128  1.5269  0.2560
15005SOL     OW57073   9.680   9.166   0.987  0.1447 -0.1143 -0.2228
15005SOL    HW157074   9.590   9.129   1.006 -0.0850 -0.0567 -1.1849
15005SOL    HW257075   9.737   9.160   1.070 -1.7127  2.7624  1.3389
15006SOL     OW57076   1.247   4.628   1.343  0.0658 -0.3232 -0.0668
15006SOL    HW157077   1.303   4.626   1.260 -1.8935  0.6068 -1.4581
15006SOL    HW257078   1.295   4.679   1.414  1.1263  0.1744 -1.1229
15007SOL     OW57079   4.157   7.338   0.897 -0.1064  0.0728  0.4510
15007SOL    HW157080   4.255   7.351   0.878 -0.4212  0.3441 -1.0620
15007SOL    HW257081   4.104   7.390   0.830 -1.3197 -2.5131 -0.6415
15008SOL     OW57082   0.391   1.369   0.847  0.4050 -0.2296 -0.0288
15008SOL    HW157083   0.311   1.423   0.819 -0.2917 -0.8130  0.7881
15008SOL    HW257084   0.395   1.285   0.793 -1.4578 -1.7907  2.1419
15009SOL     OW57085   4.432   8.802   1.881  0.2768  1.4638  0.4790
15009SOL    HW157086   4.429   8.791   1.981 -2.0434  0.2315  0.3108
15009SOL    HW257087   4.485   8.728   1.841 -1.2585  0.2808  0.6020
15010SOL     OW57088   0.650   9.504   9.286 -0.2493 -0.2374 -0.1483
15010SOL    HW157089   0.707   9.545   9.358 -0.5257  0.5630 -0.3815
15010SOL    HW257090   0.634   9.572   9.214 -0.0363 -1.0193 -0.9277
15011SOL     OW57091   0.826   7.457   1.777 -0.3556  0.0102 -0.0849
15011SOL    HW157092   0.782   7.515   1.846 -0.2778 -1.0037  0.8214
15011SOL    HW257093   0.757   7.396   1.736 -0.4081  0.6341 -0.9311
15012SOL     OW57094   9.413   2.507   9.153  0.0863  0.0198  0.5969
15012SOL    HW157095   9.508   2.476   9.161  0.0440 -0.3048 -0.0568
15012SOL    HW257096   9.412   2.604   9.126  0.2546 -0.2946 -0.6062
15013SOL     OW57097   0.799   5.830   7.897 -0.0677  0.1631 -0.0328
15013SOL    HW157098   0.862   5.830   7.820 -0.1116 -0.1652 -0.0693
15013SOL    HW257099   0.791   5.737   7.934 -0.0671  0.3145  0.3494
15014SOL     OW57100   3.145   1.007   0.949 -0.6105 -0.6698  0.8015
15014SOL    HW157101   3.103   0.918   0.937  0.3972 -1.1733  0.9387
15014SOL    HW257102   3.241   1.003   0.920 -0.2426  0.0664  1.8891
15015SOL     OW57103   0.183   4.025   6.613 -0.1639  0.1394 -0.5225
15015SOL    HW157104   0.245   4.070   6.678  0.8984 -2.0098 -0.0131
15015SOL    HW257105   0.183   4.076   6.527  0.6177  1.4113  0.2151
15016SOL     OW57106   1.153   7.562   9.377 -0.0768 -0.5900  0.0242
15016SOL    HW157107   1.073   7.536   9.433 -0.7755 -0.5125 -0.9298
15016SOL    HW257108   1.216   7.485   9.372 -0.0094 -0.6044  0.9146
15017SOL     OW57109   1.515   9.752   2.354 -0.5875  0.5889  0.4655
15017SOL    HW157110   1.534   9.822   2.423  0.8592 -0.1652  0.8664
15017SOL    HW257111   1.601   9.718   2.318 -1.2593 -1.3891  0.6903
15018SOL     OW57112   5.679   0.467   1.295 -0.5642 -0.0037  0.2090
15018SOL    HW157113   5.592   0.513   1.285 -0.0197  1.1728  0.8015
15018SOL    HW257114   5.749   0.533   1.322  0.9343 -0.5617 -2.1530
15019SOL     OW57115   0.032   8.119   3.215 -0.3305 -0.2586  0.1341
15019SOL    HW157116   0.008   8.206   3.173  0.5317 -0.0454  0.0743
15019SOL    HW257117   0.017   8.124   3.314  2.0219  0.7819  0.4735
15020SOL     OW57118   1.309   7.702   8.172 -0.2380  0.2609  0.2857
15020SOL    HW157119   1.256   7.652   8.103 -1.3800  2.1482 -0.2503
15020SOL    HW257120   1.405   7.706   8.143 -0.9424  2.2445 -1.9470
15021SOL     OW57121   1.490   1.945   4.772  0.2980  0.0851  0.0743
15021SOL    HW157122   1.404   1.924   4.817 -0.1605  3.0016  0.6699
15021SOL    HW257123   1.538   2.016   4.823  1.4781  0.9037 -2.0818
15022SOL     OW57124   7.134   3.248   3.296  0.7065  0.3754  0.1525
15022SOL    HW157125   7.094   3.335   3.270  0.9356  1.0019  1.7963
15022SOL    HW257126   7.073   3.201   3.360  0.2465 -1.0208 -1.2693
15023SOL     OW57127   5.972   8.901   2.770 -0.4725 -0.0769 -0.7879
15023SOL    HW157128   6.038   8.972   2.747 -0.7011 -0.0547 -1.3984
15023SOL    HW257129   5.879   8.935   2.754 -0.6089 -0.2709 -0.4052
15024SOL     OW57130   1.305   3.017   9.026 -0.3160 -0.2992  0.1901
15024SOL    HW157131   1.296   3.001   8.928 -0.2399 -0.7785  0.2627
15024SOL    HW257132   1.388   3.069   9.044 -0.9382  0.8103 -0.1095
15025SOL     OW57133   4.024   4.072   5.781 -0.8534 -0.1975 -0.0507
15025SOL    HW157134   4.082   4.148   5.810 -0.0079 -0.6129 -0.6163
15025SOL    HW257135   4.021   4.068   5.681 -0.6821 -1.0621 -0.0271
15026SOL     OW57136   2.307   2.902   9.719  0.6305  0.4654  0.0102
15026SOL    HW157137   2.269   2.841   9.650  3.0634 -0.1193 -0.8554
15026SOL    HW257138   2.340   2.986   9.675  3.8515 -0.6759  0.1336
15027SOL     OW57139   4.578   3.880   4.937 -0.1182  0.3353 -0.4923
15027SOL    HW157140   4.669   3.859   4.973  0.2117  2.0963 -0.2196
15027SOL    HW257141   4.558   3.977   4.952 -1.3507  0.3574 -2.0898
15028SOL     OW57142   7.419   2.627   5.014 -0.6179  0.3502  0.1443
15028SOL    HW157143   7.470   2.713   5.012  0.1855 -0.0941  1.2754
15028SOL    HW257144   7.470   2.558   5.065 -0.5248 -1.2733 -2.0527
15029SOL     OW57145   4.008   4.519   6.495 -0.3122 -0.6252 -0.0506
15029SOL    HW157146   4.014   4.615   6.520  0.5222 -0.4185 -1.0022
15029SOL    HW257147   3.928   4.505   6.437  0.1067 -0.3239 -0.7037
15030SOL     OW57148   1.028   5.652   3.976  0.2678  0.0993 -0.1769
15030SOL    HW157149   1.011   5.729   3.914  2.0315  1.0667  0.5078
15030SOL    HW257150   1.105   5.599   3.942  0.3317 -0.1951  0.4345
15031SOL     OW57151   1.912   6.679   7.291  0.2609 -0.3270  0.2026
15031SOL    HW157152   1.817   6.691   7.320 -0.0051 -0.0721 -0.7516
15031SOL    HW257153   1.915   6.663   7.192  1.0953 -1.8769  0.4563
15032SOL     OW57154   8.358   8.219   5.305  0.1825 -0.8908 -0.0279
15032SOL    HW157155   8.376   8.309   5.344  1.4762 -1.6967  1.2780
15032SOL    HW257156   8.344   8.227   5.206  1.4771  0.5646 -0.0983
15033SOL     OW57157   9.468   1.555   2.380  0.2076 -0.0340  0.2228
15033SOL    HW157158   9.392   1.619   2.394 -0.0532 -0.0405 -1.0492
15033SOL    HW257159   9.533   1.563   2.455 -0.9855  0.0669  1.2639
15034SOL     OW57160   9.428   3.749   7.070 -0.1042  0.0646 -0.4668
15034SOL    HW157161   9.483   3.736   6.987 -0.5568 -0.6033 -0.6628
15034SOL    HW257162   9.481   3.718   7.150  0.1258  0.2105 -0.5619
15035SOL     OW57163   9.215   6.117   3.942 -0.4013 -0.4551  0.4319
15035SOL    HW157164   9.185   6.095   3.849  0.5591 -1.3658  0.3329
15035SOL    HW257165   9.306   6.158   3.940 -0.5827 -0.0162  0.9303
15036SOL     OW57166   0.389   0.244   9.389 -0.5696  0.5770 -0.5861
15036SOL    HW157167   0.397   0.235   9.290 -3.7547  2.2212 -1.0557
15036SOL    HW257168   0.356   0.335   9.412  0.4937  0.3458  2.0408
15037SOL     OW57169   6.914   5.387   2.869 -0.2616 -0.1634 -0.2490
15037SOL    HW157170   6.946   5.469   2.821  0.3980  0.4313  1.1744
15037SOL    HW257171   6.849   5.337   2.811 -1.1696  1.7018 -0.8590
15038SOL     OW57172   3.988   8.858   6.093 -0.2422 -0.2635  0.0498
15038SOL    HW157173   4.019   8.941   6.047 -0.2678  0.1672  0.7983
15038SOL    HW257174   3.901   8.828   6.054 -0.2257  0.0516 -0.2308
15039SOL     OW57175   8.224   0.298   7.495 -0.0487 -0.0837 -0.5536
15039SOL    HW157176   8.140   0.325   7.542  1.6494  3.2935  0.7368
15039SOL    HW257177   8.281   0.243   7.557 -0.5209 -0.9095 -0.8409
15040SOL     OW57178   8.981   9.625   3.143 -0.0349  0.0580  0.7854
15040SOL    HW157179   9.074   9.634   3.179 -0.0770  0.7692  0.7321
15040SOL    HW257180   8.955   9.710   3.097 -0.0037 -0.8034 -0.8609
15041SOL     OW57181   9.298   1.898   2.995 -0.0883 -0.0942  0.4444
15041SOL    HW157182   9.288   1.966   2.923 -0.7440 -0.1464  0.4841
15041SOL    HW257183   9.223   1.832   2.989 -1.2820  1.0153  2.3649
15042SOL     OW57184   6.943   4.857   2.791  0.0746 -0.3487  0.1149
15042SOL    HW157185   6.929   4.842   2.889  1.5057  1.6107  0.6319
15042SOL    HW257186   6.977   4.949   2.775 -0.7164 -0.4429 -2.2992
15043SOL     OW57187   0.323   6.852   5.785  0.2252  0.1402  0.1611
15043SOL    HW157188   0.334   6.795   5.866  0.1540 -0.3556 -0.1739
15043SOL    HW257189   0.225   6.865   5.766  0.2393  1.5815  1.0775
15044SOL     OW57190   2.915   5.210   3.961  0.2284 -0.4103 -0.0540
15044SOL    HW157191   2.998   5.265   3.955 -0.3453  0.5520  0.7317
15044SOL    HW257192   2.923   5.145   4.036 -0.6837  1.3395  1.5920
15045SOL     OW57193   0.149   0.430   3.866  1.0281 -0.2487 -0.4023
15045SOL    HW157194   0.166   0.333   3.881  0.8955 -0.1957  0.1029
15045SOL    HW257195   0.142   0.448   3.768 -0.9145 -1.0850 -0.4504
15046SOL     OW57196   9.716   4.598   2.947 -0.6140  0.2329 -0.1672
15046SOL    HW157197   9.714   4.672   3.014 -1.3661  0.5297 -0.5128
15046SOL    HW257198   9.810   4.570   2.931 -0.4834 -0.4449  1.6865
15047SOL     OW57199   7.348   3.243   8.179 -0.3186 -0.1514  0.0605
15047SOL    HW157200   7.297   3.181   8.239 -0.7037 -0.4330 -0.5368
15047SOL    HW257201   7.285   3.279   8.109  0.1952 -0.1269 -0.3922
15048SOL     OW57202   7.822   6.106   2.622  0.0247  0.0550  0.0558
15048SOL    HW157203   7.879   6.031   2.590  1.5559  0.4152  1.8365
15048SOL    HW257204   7.827   6.182   2.557 -0.5577 -0.9177 -1.1285
15049SOL     OW57205   7.360   6.351   7.164  0.2728  0.3113  0.0479
15049SOL    HW157206   7.291   6.387   7.100 -0.4145 -1.1613 -0.0489
15049SOL    HW257207   7.384   6.423   7.230  0.2160  1.5080 -1.2143
15050SOL     OW57208   8.139   8.432   2.914 -0.0606 -0.4763  0.7307
15050SOL    HW157209   8.097   8.518   2.885 -1.0558 -0.4938  2.0866
15050SOL    HW257210   8.151   8.372   2.835 -0.3269  0.4925 -0.0507
15051SOL     OW57211   2.287   6.390   7.337 -0.0441 -0.1629 -0.0820
15051SOL    HW157212   2.210   6.442   7.372 -1.0932 -1.2862 -0.6869
15051SOL    HW257213   2.293   6.402   7.238 -0.3471 -1.2322 -0.2409
15052SOL     OW57214   2.794   7.112   1.588 -0.2722  0.1353 -0.4302
15052SOL    HW157215   2.697   7.087   1.593  0.1668 -1.6145 -0.5351
15052SOL    HW257216   2.834   7.107   1.679 -0.1312  0.3116 -0.4822
15053SOL     OW57217   0.989   5.636   8.758 -0.1153 -0.1176  0.3917
15053SOL    HW157218   0.996   5.711   8.693  1.4012  0.3533  1.0591
15053SOL    HW257219   0.974   5.672   8.850 -0.1589 -0.6615  0.6013
15054SOL     OW57220   7.822   8.401   3.491  0.1644 -1.1462 -0.0983
15054SOL    HW157221   7.855   8.318   3.445 -0.7339 -1.3316 -0.4230
15054SOL    HW257222   7.874   8.416   3.575  0.7451 -1.6999 -0.3613
15055SOL     OW57223   7.503   9.479   8.006 -0.2340 -0.5321  0.5057
15055SOL    HW157224   7.424   9.426   8.037  0.4747 -1.7030  0.3589
15055SOL    HW257225   7.548   9.521   8.085 -0.2499 -0.9372  0.7361
15056SOL     OW57226   2.407   2.601   3.418 -0.2348  0.0741 -0.3998
15056SOL    HW157227   2.366   2.687   3.389 -2.1488  0.2155  2.5795
15056SOL    HW257228   2.471   2.618   3.493 -0.5729 -1.0830  0.1675
15057SOL     OW57229   3.764   7.750   9.158  0.4033  0.0455  0.2167
15057SOL    HW157230   3.685   7.688   9.157 -0.2029  0.8202 -0.4469
15057SOL    HW257231   3.813   7.739   9.244  0.0132 -1.0046  0.3112
15058SOL     OW57232   6.571   0.769   7.703  0.2317 -0.0086  0.0756
15058SOL    HW157233   6.496   0.788   7.639  0.4615  1.5753  0.2759
15058SOL    HW257234   6.575   0.670   7.720 -0.0262 -0.4173 -2.1135
15059SOL     OW57235   1.781   5.007   6.585 -0.5392 -0.6142 -0.3211
15059SOL    HW157236   1.705   4.989   6.647 -0.0217  0.7901  0.7490
15059SOL    HW257237   1.866   4.977   6.628 -0.2011  0.1812 -0.4170
15060SOL     OW57238   0.054   3.505   8.110  0.0652  0.5813  0.5523
15060SOL    HW157239   0.047   3.551   8.022 -0.0515 -1.0577 -0.3116
15060SOL    HW257240  -0.015   3.432   8.116  1.1386 -0.3934  1.3385
15061SOL     OW57241   9.639   3.241   4.408 -0.1408 -0.0673  0.0386
15061SOL    HW157242   9.620   3.143   4.405  0.7349 -0.2742  0.9656
15061SOL    HW257243   9.648   3.270   4.503 -3.1484  1.4792 -0.1155
15062SOL     OW57244   9.752   2.238   5.127  0.2451  0.8046  0.2568
15062SOL    HW157245   9.742   2.251   5.028 -2.4086 -0.0099  0.3713
15062SOL    HW257246   9.744   2.141   5.148  0.9006  0.9653  1.2918
15063SOL     OW57247   6.799   1.888   2.378  0.6168 -0.4434 -0.1865
15063SOL    HW157248   6.842   1.974   2.352 -0.8844 -0.0047 -1.2445
15063SOL    HW257249   6.707   1.905   2.411  0.4737 -1.6107  0.0348
15064SOL     OW57250   7.992   9.115   2.631  0.4243  0.6477 -0.5344
15064SOL    HW157251   7.908   9.167   2.618  0.3315  0.5225 -0.4416
15064SOL    HW257252   8.007   9.054   2.553 -1.0547 -1.3800  0.7337
15065SOL     OW57253   7.677   1.078   8.439 -0.5487 -0.2367  0.0585
15065SOL    HW157254   7.695   0.994   8.389  0.7073 -0.0529  0.1790
15065SOL    HW257255   7.689   1.156   8.377 -2.2905 -0.1647 -0.2098
15066SOL     OW57256   2.560   2.370   5.300 -0.1126  0.3874  0.4437
15066SOL    HW157257   2.552   2.391   5.397  0.8845  0.6794  0.4687
15066SOL    HW257258   2.534   2.275   5.284  1.0286 -0.0622  1.2043
15067SOL     OW57259   3.699   6.442   7.081  0.3752  0.4661 -0.3648
15067SOL    HW157260   3.669   6.395   6.998  0.1964  2.2694 -1.3540
15067SOL    HW257261   3.620   6.458   7.140  0.7910 -2.5762  1.1223
15068SOL     OW57262   8.784   3.146   7.845 -0.1235  0.1748  0.0608
15068SOL    HW157263   8.878   3.114   7.855 -0.0474 -0.2650 -1.8431
15068SOL    HW257264   8.727   3.106   7.917  1.2597  0.9565  1.6204
15069SOL     OW57265   3.269   9.376   7.457 -0.2761 -0.3132  0.6329
15069SOL    HW157266   3.348   9.378   7.395  0.4469  0.2175  1.5732
15069SOL    HW257267   3.245   9.469   7.484 -1.9257 -0.3821 -0.5131
15070SOL     OW57268   4.641   3.066   8.783  0.0181  0.0718 -0.2541
15070SOL    HW157269   4.577   3.031   8.851 -1.1999  1.3258 -0.7269
15070SOL    HW257270   4.726   3.013   8.787 -0.1472 -0.1055  1.9996
15071SOL     OW57271   2.326   9.440   3.038  0.2739 -0.2640 -0.0644
15071SOL    HW157272   2.378   9.507   3.091 -1.5430 -0.4068  1.9775
15071SOL    HW257273   2.354   9.348   3.065 -1.2369 -0.3490  1.3514
15072SOL     OW57274   8.844   4.846   3.262  0.3943 -0.4290  0.1146
15072SOL    HW157275   8.884   4.771   3.209  1.0021  0.2231 -0.3551
15072SOL    HW257276   8.886   4.932   3.235 -0.3936  0.1027  0.5630
15073SOL     OW57277   0.037   9.971  10.072 -0.0291  0.2080  0.2586
15073SOL    HW157278   0.064  10.056  10.027  1.2053 -0.4136 -0.1970
15073SOL    HW257279  -0.029   9.923  10.014  1.3172 -0.4361 -0.7623
15074SOL     OW57280   6.895   3.502   8.210 -0.1456 -0.2074 -0.1441
15074SOL    HW157281   6.853   3.591   8.226  1.9232  0.4245  2.3477
15074SOL    HW257282   6.825   3.432   8.203 -1.7029  1.2409  0.6980
15075SOL     OW57283   3.520   9.702   7.897 -0.2084  0.1291 -0.2526
15075SOL    HW157284   3.434   9.701   7.947  0.0290  0.8884  0.1752
15075SOL    HW257285   3.558   9.794   7.897  0.8348 -0.2908 -0.0409
15076SOL     OW57286   7.916   4.453   5.541 -0.6450 -0.2193  0.6193
15076SOL    HW157287   7.824   4.422   5.520 -0.6450 -0.8937  1.5759
15076SOL    HW257288   7.981   4.408   5.479 -0.5503 -2.8804  2.5585
15077SOL     OW57289   3.869   7.282   2.635 -0.5492  0.3217 -0.3070
15077SOL    HW157290   3.893   7.187   2.616 -1.3952 -0.1081  0.7231
15077SOL    HW257291   3.812   7.317   2.560 -1.7271 -0.5481  0.1590
15078SOL     OW57292   2.167   6.555   3.707 -0.1097  0.0917  0.4456
15078SOL    HW157293   2.191   6.482   3.643  0.3935  0.2707  0.4294
15078SOL    HW257294   2.209   6.536   3.796 -0.5960 -0.0225  0.6543
15079SOL     OW57295   7.146   6.173   8.393 -0.2934 -0.4033  0.6394
15079SOL    HW157296   7.071   6.192   8.457 -1.5247 -1.2619 -0.5370
15079SOL    HW257297   7.125   6.213   8.304  0.7919 -0.4063  0.3758
15080SOL     OW57298   6.240   0.912   3.609  0.0108  0.0736  0.4029
15080SOL    HW157299   6.244   0.962   3.695  1.3397  1.9884 -0.7313
15080SOL    HW257300   6.145   0.904   3.579 -0.1809  2.5814  0.2681
15081SOL     OW57301   5.079   1.814   0.577  0.0354  0.2274 -0.4507
15081SOL    HW157302   5.145   1.889   0.592 -1.0608  0.6864  2.4558
15081SOL    HW257303   5.126   1.727   0.588  0.6855  0.5136 -0.8750
15082SOL     OW57304   0.241   7.370   4.479 -0.4104  0.2776  0.6195
15082SOL    HW157305   0.331   7.345   4.513 -0.3797  0.1036  0.4142
15082SOL    HW257306   0.210   7.453   4.523 -0.2516  0.2043  0.8673
15083SOL     OW57307   4.240   3.323   4.321 -0.2721  0.3253 -0.4109
15083SOL    HW157308   4.273   3.234   4.287  0.6947  0.2808  0.6230
15083SOL    HW257309   4.205   3.377   4.245  0.3797 -0.4196 -1.2447
15084SOL     OW57310   8.527   4.342   9.877  0.2982 -0.2377 -0.0613
15084SOL    HW157311   8.573   4.332   9.965  0.6293 -0.3793 -0.2492
15084SOL    HW257312   8.474   4.427   9.876  0.0648 -0.3737  0.3749
15085SOL     OW57313   2.389   8.223   4.255  0.3286  0.2280 -0.2394
15085SOL    HW157314   2.316   8.154   4.259  1.3575 -0.8375  0.6036
15085SOL    HW257315   2.466   8.186   4.203  0.5858  1.0528 -0.4450
15086SOL     OW57316   9.098   2.985   0.469  0.6060  0.7330  0.1244
15086SOL    HW157317   9.150   2.901   0.488 -1.8795 -1.0359 -0.5800
15086SOL    HW257318   9.098   3.001   0.370  0.6889  1.2880  0.2175
15087SOL     OW57319   5.593   1.412   3.696  0.0460  0.1819  0.4138
15087SOL    HW157320   5.603   1.392   3.599 -1.0390 -0.5241  0.4375
15087SOL    HW257321   5.496   1.413   3.720  0.2525  1.5117  1.2538
15088SOL     OW57322   1.852   1.530   2.686  0.0900 -0.1607  0.2490
15088SOL    HW157323   1.900   1.503   2.603  0.1681  2.8355 -0.7527
15088SOL    HW257324   1.905   1.502   2.766  1.1488 -1.0440 -0.7377
15089SOL     OW57325   0.554   2.940   0.322  0.1570 -0.4810 -0.5963
15089SOL    HW157326   0.554   3.002   0.244 -1.4186  1.9168  1.2594
15089SOL    HW257327   0.464   2.899   0.333 -0.0032  0.1839  0.7038
15090SOL     OW57328   4.828   7.888   0.850  0.0755 -0.0646  0.0176
15090SOL    HW157329   4.870   7.806   0.812  1.1232  0.0346  0.9353
15090SOL    HW257330   4.777   7.936   0.778  0.3706 -0.9261 -0.7779
15091SOL     OW57331   3.864   2.945   8.430  0.5260  0.2014 -0.3227
15091SOL    HW157332   3.812   3.013   8.378 -1.2729 -0.0138  1.1549
15091SOL    HW257333   3.859   2.966   8.527  0.0057 -1.9859  0.1483
15092SOL     OW57334   3.536   6.205   5.857  0.4511  0.4549 -0.4713
15092SOL    HW157335   3.607   6.135   5.861  0.4439  0.4441 -0.5509
15092SOL    HW257336   3.469   6.189   5.930  1.5719  1.5747  0.8387
15093SOL     OW57337   7.749   3.961   9.954  0.2173 -0.2832  0.8492
15093SOL    HW157338   7.783   4.047   9.918  0.0508  0.6061  2.7357
15093SOL    HW257339   7.781   3.885   9.897  2.8503  0.7696  0.8500
15094SOL     OW57340   6.704   3.731   2.797 -0.2582  0.5150  0.0991
15094SOL    HW157341   6.740   3.652   2.747 -1.1827  0.1271  0.0297
15094SOL    HW257342   6.778   3.776   2.847  0.3255 -0.2283 -0.0882
15095SOL     OW57343   4.593   5.537   4.127 -0.4873 -0.3249 -0.5146
15095SOL    HW157344   4.689   5.508   4.120 -0.4573 -0.0050 -1.5359
15095SOL    HW257345   4.585   5.608   4.197 -0.0917 -0.8333  0.0508
15096SOL     OW57346   0.600   1.518   0.957 -0.0966 -0.1392 -0.3545
15096SOL    HW157347   0.553   1.607   0.955  1.6526  0.8243  0.6914
15096SOL    HW257348   0.549   1.453   0.900 -0.6010  1.9332 -2.3533
15097SOL     OW57349   6.207   1.568   5.264  0.1241 -0.6463 -0.2274
15097SOL    HW157350   6.253   1.512   5.195  0.1825  0.3198 -0.9819
15097SOL    HW257351   6.270   1.638   5.297 -0.4867  0.0632 -0.5531
15098SOL     OW57352   4.438   9.001   5.206  0.2658  0.0811 -0.2806
15098SOL    HW157353   4.453   9.091   5.247  0.5198  0.4012 -1.0619
15098SOL    HW257354   4.481   8.998   5.116 -2.4192  0.2655 -1.6347
15099SOL     OW57355   4.317   8.936   3.985  0.2085  0.3207 -0.2947
15099SOL    HW157356   4.331   8.840   4.007  0.5394  0.3939 -0.1868
15099SOL    HW257357   4.278   8.944   3.893 -0.5879  0.0463  0.0125
15100SOL     OW57358   4.293   5.185   3.109 -0.3409 -0.1138 -0.3006
15100SOL    HW157359   4.384   5.144   3.116 -0.2252  0.1263 -0.3668
15100SOL    HW257360   4.258   5.205   3.200 -1.1123 -1.9068 -0.2003
15101SOL     OW57361   0.387   5.636   3.758 -0.1658  0.5485 -0.0182
15101SOL    HW157362   0.402   5.554   3.703 -1.8957  0.4308 -0.3319
15101SOL    HW257363   0.403   5.614   3.855 -0.8540 -0.2256 -0.0749
15102SOL     OW57364   9.295   9.565   9.283 -0.0849  0.2282  0.0605
15102SOL    HW157365   9.380   9.548   9.232 -0.1524 -1.4007  0.4648
15102SOL    HW257366   9.317   9.597   9.375  0.0427  2.5779 -0.7527
15103SOL     OW57367   9.452   2.659   5.328 -0.1245 -0.0065 -0.0369
15103SOL    HW157368   9.468   2.583   5.265 -0.1644 -1.8896  2.1632
15103SOL    HW257369   9.532   2.719   5.328  1.1898 -1.7025  0.4176
15104SOL     OW57370   0.291   2.293   8.359 -0.3184 -0.2896  0.5326
15104SOL    HW157371   0.223   2.286   8.432  0.4368 -0.3386  1.2377
15104SOL    HW257372   0.267   2.369   8.299 -1.3970 -0.7624  0.3516
15105SOL     OW57373   8.623   5.594   4.667  0.1876  0.3960  0.1091
15105SOL    HW157374   8.608   5.495   4.668  0.3872  0.2665 -3.5831
15105SOL    HW257375   8.535   5.641   4.663  0.1564  0.3155 -0.1434
15106SOL     OW57376   2.957   8.714   7.537  0.5863 -0.3513 -0.2317
15106SOL    HW157377   3.029   8.768   7.581  0.8444 -1.4529  0.7129
15106SOL    HW257378   2.982   8.617   7.539 -0.6953 -0.6895 -0.3410
15107SOL     OW57379   3.917   2.770   7.427 -0.2674 -0.2345  0.1639
15107SOL    HW157380   3.928   2.673   7.407 -0.1128 -0.0105 -0.8847
15107SOL    HW257381   3.984   2.799   7.495  0.0755 -0.7310  0.0335
15108SOL     OW57382   2.041   6.043   2.562 -0.2979  0.1911 -0.5016
15108SOL    HW157383   1.989   6.128   2.576  0.1289  0.1355  1.6300
15108SOL    HW257384   2.133   6.055   2.598  0.1660 -0.7553 -1.3861
15109SOL     OW57385   1.645   6.778   1.665 -0.0505 -0.1970  0.3979
15109SOL    HW157386   1.557   6.738   1.691 -0.1459 -0.0908  0.2308
15109SOL    HW257387   1.703   6.784   1.747  0.2770 -1.4739  0.2659
15110SOL     OW57388   6.710   3.869   1.023 -0.1118 -0.5862  0.5787
15110SOL    HW157389   6.676   3.852   0.931  0.1305 -0.5450  0.4805
15110SOL    HW257390   6.698   3.787   1.079 -0.7807 -0.4262  0.6716
15111SOL     OW57391   4.686   9.287   5.562  0.0415  0.4066  0.4991
15111SOL    HW157392   4.616   9.225   5.599  1.7895 -1.8849  0.0951
15111SOL    HW257393   4.768   9.282   5.618  1.3422 -0.1142 -1.4219
15112SOL     OW57394   3.551   8.405   1.066 -0.4405 -0.2200 -0.2878
15112SOL    HW157395   3.478   8.341   1.043  0.4227 -0.5515 -2.2039
15112SOL    HW257396   3.637   8.372   1.029  0.2977  1.2777  0.0438
15113SOL     OW57397   0.272   8.277   7.627 -0.2442  0.0948  0.2304
15113SOL    HW157398   0.273   8.298   7.529  0.9932 -0.5425  0.1082
15113SOL    HW257399   0.331   8.199   7.646 -2.2501 -1.2387  1.1754
15114SOL     OW57400   6.620   8.209   3.730  0.0251  0.3102 -0.6751
15114SOL    HW157401   6.701   8.243   3.777 -0.9475  1.7722 -0.0112
15114SOL    HW257402   6.623   8.109   3.727  1.7017  0.3377 -0.4282
15115SOL     OW57403   9.967   5.394   7.077  1.0836  0.0499  0.0826
15115SOL    HW157404   9.931   5.444   6.998  2.5537 -2.6699 -2.4174
15115SOL    HW257405   9.930   5.433   7.161 -3.0358  1.0376 -2.0543
15116SOL     OW57406   9.950   8.603   0.904 -0.6510 -0.3037 -0.5267
15116SOL    HW157407   9.927   8.700   0.890  0.8763  0.1049 -0.3495
15116SOL    HW257408   9.901   8.568   0.983 -1.2538  0.3125 -0.6207
15117SOL     OW57409   5.803   7.541   5.440  0.0116  0.5810 -0.1406
15117SOL    HW157410   5.767   7.634   5.428  0.4492  1.2010  3.0523
15117SOL    HW257411   5.728   7.478   5.461  0.0168  0.6797  0.1748
15118SOL     OW57412   6.668   7.352   5.622  0.2627 -0.0724  0.2051
15118SOL    HW157413   6.709   7.411   5.552 -0.9811  1.4835  0.7588
15118SOL    HW257414   6.739   7.325   5.688  1.0166  0.1374 -0.5080
15119SOL     OW57415   2.486   5.867   7.514  0.4244  0.1060 -0.2406
15119SOL    HW157416   2.493   5.944   7.577  2.9322 -0.0776 -0.2576
15119SOL    HW257417   2.513   5.783   7.561 -0.7017 -0.5269 -0.6917
15120SOL     OW57418   1.369   6.211   6.720  0.3357  0.3724 -0.3103
15120SOL    HW157419   1.459   6.241   6.687  1.1322  1.3732  2.6072
15120SOL    HW257420   1.298   6.267   6.678  1.2360  0.9639 -1.0659
15121SOL     OW57421   4.239   7.882   1.622  0.1778 -0.8381 -0.0505
15121SOL    HW157422   4.196   7.950   1.562 -0.5127 -2.1370 -1.0549
15121SOL    HW257423   4.220   7.906   1.718 -0.6859 -0.0149 -0.4113
15122SOL     OW57424   1.080   4.605   0.107 -0.3384  0.5640  0.0601
15122SOL    HW157425   1.104   4.615   0.204  2.7762  0.0908 -0.6090
15122SOL    HW257426   1.067   4.696   0.067  0.3081  0.8450  0.4715
15123SOL     OW57427   8.081   5.339   2.399 -0.0104  0.9232  0.5322
15123SOL    HW157428   8.029   5.415   2.360 -0.9142  0.3399  0.5669
15123SOL    HW257429   8.047   5.320   2.492 -0.7862 -0.4422 -0.0153
15124SOL     OW57430   8.882   4.290   9.893 -0.0831 -0.0278  0.0560
15124SOL    HW157431   8.924   4.380   9.893  2.5868 -1.2332 -0.1266
15124SOL    HW257432   8.882   4.253   9.800 -0.1118 -0.6997  0.3181
15125SOL     OW57433   8.641   0.260   7.324  1.1036 -0.1229  0.1933
15125SOL    HW157434   8.713   0.251   7.393  0.5893  0.1684  0.7772
15125SOL    HW257435   8.611   0.355   7.320  1.7965  0.0549 -1.1181
15126SOL     OW57436   9.010   2.937   9.051  0.1994 -0.6558 -0.3612
15126SOL    HW157437   9.086   2.874   9.037  1.1487  0.6249 -1.1676
15126SOL    HW257438   8.934   2.890   9.095  0.0958 -2.8893 -2.7996
15127SOL     OW57439   9.119   5.520   2.950  0.2427 -0.2151  0.0914
15127SOL    HW157440   9.095   5.494   3.043 -2.3227  0.2523 -0.3975
15127SOL    HW257441   9.102   5.618   2.937 -1.2168 -0.6338 -1.3669
15128SOL     OW57442   2.238   8.806   4.121  0.1540  0.3518 -0.4687
15128SOL    HW157443   2.222   8.809   4.219 -0.7099  0.9755 -0.6267
15128SOL    HW257444   2.335   8.822   4.102  0.2745  0.4710  0.2599
15129SOL     OW57445   1.793   1.883   5.400 -0.6529  0.1318  0.6685
15129SOL    HW157446   1.722   1.924   5.458  0.6183  1.5579  1.2599
15129SOL    HW257447   1.844   1.956   5.354 -0.1882 -0.9154 -0.5151
15130SOL     OW57448   7.831   6.351   5.556 -0.0701  0.0548  0.2170
15130SOL    HW157449   7.920   6.392   5.537  0.3975 -1.3638 -0.7153
15130SOL    HW257450   7.818   6.341   5.654  1.4362 -1.0921  0.3098
15131SOL     OW57451   0.737   3.968   0.689 -0.3291  0.4141  0.4167
15131SOL    HW157452   0.824   4.018   0.691  0.0626 -0.1078 -1.9364
15131SOL    HW257453   0.744   3.891   0.626 -3.0901  1.5190 -1.3490
15132SOL     OW57454   2.887   1.021   1.838 -0.2957  0.0683  0.0207
15132SOL    HW157455   2.980   1.051   1.858 -0.8020  0.0851  2.5206
15132SOL    HW257456   2.882   0.989   1.743  1.9953  0.9994 -0.4505
15133SOL     OW57457   8.717   4.134   3.349  0.3440 -0.5688 -0.5314
15133SOL    HW157458   8.766   4.221   3.342 -0.3751 -0.2766 -2.1284
15133SOL    HW257459   8.778   4.066   3.390  0.8256  0.7260  0.9878
15134SOL     OW57460   0.094   9.174   7.760  0.3820 -0.1071  0.7169
15134SOL    HW157461   0.117   9.238   7.687 -2.0395  0.5258  0.4731
15134SOL    HW257462   0.010   9.204   7.806  0.0628 -2.2557  1.6036
15135SOL     OW57463   1.345   4.211   4.560  0.0868 -0.2252 -0.4675
15135SOL    HW157464   1.384   4.118   4.559  0.4821 -0.0579 -1.4086
15135SOL    HW257465   1.304   4.229   4.649  1.6381 -0.6352  0.3387
15136SOL     OW57466   0.039   2.351   2.252 -0.0171  0.1867  0.7401
15136SOL    HW157467  -0.009   2.395   2.328 -0.4252 -0.9200  1.1342
15136SOL    HW257468  -0.009   2.370   2.166 -0.2393  0.4318  0.9186
15137SOL     OW57469   5.940   5.219   2.103 -0.8336  0.3564 -0.2741
15137SOL    HW157470   5.954   5.122   2.122 -0.9001 -0.0035 -1.9217
15137SOL    HW257471   6.004   5.273   2.156 -1.1435 -0.5562  1.0517
15138SOL     OW57472   2.580   2.491   4.208  0.0214 -0.3588 -0.5092
15138SOL    HW157473   2.671   2.496   4.166 -0.0501 -0.1770 -0.6446
15138SOL    HW257474   2.581   2.542   4.294 -0.0786  0.0393 -0.7434
15139SOL     OW57475   5.736   9.166   1.532  0.2948  0.2167 -0.6882
15139SOL    HW157476   5.720   9.250   1.582  1.5542 -0.8885  1.6340
15139SOL    HW257477   5.649   9.131   1.496 -1.5008 -1.4226  4.7643
15140SOL     OW57478   8.229   3.955   0.645  0.0002 -0.3236  0.6028
15140SOL    HW157479   8.258   3.981   0.737 -0.0454 -1.1040  0.8458
15140SOL    HW257480   8.294   3.889   0.608 -0.0103 -0.0461  0.0962
15141SOL     OW57481   1.678   9.505   5.864  0.7817 -0.5210 -0.6920
15141SOL    HW157482   1.665   9.443   5.941 -0.8203 -0.3388 -0.8001
15141SOL    HW257483   1.708   9.594   5.898  1.8712 -0.9787 -0.4397
15142SOL     OW57484   5.218   8.461   3.959 -0.2326 -0.0770  0.1702
15142SOL    HW157485   5.287   8.532   3.948 -1.5980  1.0404 -1.3790
15142SOL    HW257486   5.221   8.425   4.053  3.0036 -0.6677 -0.1114
15143SOL     OW57487   5.422   2.003   4.934 -0.0026  0.0448 -0.0639
15143SOL    HW157488   5.458   1.998   4.842 -0.1403 -1.0059 -0.0616
15143SOL    HW257489   5.356   1.929   4.949  0.7768 -0.4256  1.1971
15144SOL     OW57490   9.965   4.318   4.018 -0.4676 -0.2245  0.0420
15144SOL    HW157491   9.940   4.238   3.964  0.7585 -0.6885  0.1360
15144SOL    HW257492   9.979   4.396   3.958  0.6940 -0.6888 -0.3047
15145SOL     OW57493   2.176   0.333   0.315  0.1675 -0.5297  0.4312
15145SOL    HW157494   2.264   0.296   0.286 -0.0623 -0.6377 -0.1524
15145SOL    HW257495   2.136   0.273   0.385  0.5121 -0.5322  0.6251
15146SOL     OW57496   9.922   0.192   0.671  0.2160  0.5019 -0.4695
15146SOL    HW157497   9.912   0.092   0.681 -0.1076  0.4427 -1.4193
15146SOL    HW257498   9.870   0.237   0.744  2.3278 -0.0632  1.4697
15147SOL     OW57499   9.226   7.078   1.735 -0.1441  0.1962  0.4828
15147SOL    HW157500   9.208   7.112   1.643 -0.4162 -0.6993  0.1951
15147SOL    HW257501   9.297   7.133   1.778 -0.4659  1.0172 -0.0240
15148SOL     OW57502   5.116   4.082   1.407  0.6765  0.3471  0.1450
15148SOL    HW157503   5.043   4.133   1.362  0.5873 -0.8176 -1.0788
15148SOL    HW257504   5.201   4.136   1.405  0.0735  1.3362  0.7980
15149SOL     OW57505   2.716   9.401   2.966  0.4310 -0.5149 -0.3814
15149SOL    HW157506   2.693   9.304   2.957  0.0094 -0.5931  1.3643
15149SOL    HW257507   2.664   9.441   3.041  1.8966  0.6334  0.0529
15150SOL     OW57508   0.113   0.717   5.021  0.2516  0.0628  0.4605
15150SOL    HW157509   0.124   0.815   5.005 -0.8613 -0.2244 -2.2926
15150SOL    HW257510   0.021   0.699   5.057 -0.7443 -0.2618 -2.1447
15151SOL     OW57511   2.854   2.124   4.250  0.4205  0.4699  0.0562
15151SOL    HW157512   2.763   2.089   4.273  0.5256  1.1235  1.5634
15151SOL    HW257513   2.881   2.193   4.317  3.0085 -1.4118  1.0437
15152SOL     OW57514   1.813   3.374   1.451  0.1756 -0.4204  0.0029
15152SOL    HW157515   1.862   3.460   1.468 -1.6851  0.6671 -0.0438
15152SOL    HW257516   1.880   3.301   1.438  1.7955  0.9611  0.2527
15153SOL     OW57517   3.098   4.080   2.852 -0.7405 -0.5265  0.2936
15153SOL    HW157518   3.140   3.992   2.873 -0.5792 -0.5237 -0.0135
15153SOL    HW257519   2.999   4.069   2.843 -0.5677 -0.9605 -1.2245
15154SOL     OW57520   6.566   3.511   9.955  0.0683 -0.0616 -0.5010
15154SOL    HW157521   6.634   3.580   9.928 -0.7787  0.3770 -1.5804
15154SOL    HW257522   6.522   3.539  10.040 -0.1970  0.7004 -0.8766
15155SOL     OW57523   5.954   0.146   2.917  0.1682  0.1074 -0.0205
15155SOL    HW157524   5.891   0.080   2.875  0.0520 -0.0129  0.3384
15155SOL    HW257525   5.921   0.169   3.009  0.1139  0.8023 -0.2105
15156SOL     OW57526   7.071   2.237   8.816 -0.0993  0.3609  0.0325
15156SOL    HW157527   7.007   2.202   8.748 -0.9932  1.3589  0.3432
15156SOL    HW257528   7.160   2.253   8.772 -0.2909 -0.2433 -0.5908
15157SOL     OW57529   6.973   0.775   5.868  0.2351 -0.0407  0.1591
15157SOL    HW157530   6.982   0.802   5.772  0.8597  0.0359  0.2375
15157SOL    HW257531   6.892   0.818   5.907  1.4540  2.0711  0.3960
15158SOL     OW57532   0.906   7.904   5.624 -0.3873  0.5526 -0.1914
15158SOL    HW157533   0.998   7.911   5.584 -0.6064 -1.8247 -1.1840
15158SOL    HW257534   0.904   7.954   5.710  1.9547  0.3289  0.0391
15159SOL     OW57535   2.899   6.421   2.783  0.5070 -0.0910  0.1209
15159SOL    HW157536   2.949   6.495   2.738  1.4206 -0.4582  0.5375
15159SOL    HW257537   2.923   6.418   2.880  0.2963 -0.7963  0.1552
15160SOL     OW57538   2.648   6.127   5.047  0.0447 -0.3857 -0.4571
15160SOL    HW157539   2.639   6.077   5.133  1.8188  0.3533  0.1752
15160SOL    HW257540   2.573   6.192   5.038 -0.0320 -0.3193  0.6282
15161SOL     OW57541   7.805   8.390   6.337  0.3186 -0.4854  0.3077
15161SOL    HW157542   7.727   8.430   6.386 -0.2515 -0.4661 -0.5933
15161SOL    HW257543   7.827   8.446   6.258  0.4029 -1.2086 -0.1865
15162SOL     OW57544   4.227   5.624   3.065  0.0682  0.2033  0.4037
15162SOL    HW157545   4.171   5.552   3.105  0.0667 -1.3048 -2.2073
15162SOL    HW257546   4.169   5.702   3.040 -0.2845  0.1683  1.1042
15163SOL     OW57547   5.007   2.275   0.084 -0.1081 -0.6459  0.5699
15163SOL    HW157548   5.084   2.216   0.109  0.1405  0.3222  2.1914
15163SOL    HW257549   4.967   2.313   0.167 -1.8485 -0.5201 -0.3240
15164SOL     OW57550   3.408   1.950   2.699 -0.0461 -0.1302 -1.2825
15164SOL    HW157551   3.340   2.005   2.651 -0.9923 -0.0585  0.1087
15164SOL    HW257552   3.456   2.008   2.765  1.3874 -0.1805 -2.2562
15165SOL     OW57553   4.166   7.421   3.159 -0.3478 -0.5124  0.5019
15165SOL    HW157554   4.162   7.519   3.140 -0.8315 -0.6351 -0.0439
15165SOL    HW257555   4.098   7.397   3.228 -1.1895 -0.6786 -0.3602
15166SOL     OW57556   0.265   6.694   6.943  0.0044  0.1727  0.2354
15166SOL    HW157557   0.281   6.713   6.846 -0.5621 -0.0011  0.1018
15166SOL    HW257558   0.267   6.780   6.994  3.9634 -0.0859  0.6621
15167SOL     OW57559   0.478   7.725   4.860  0.2586  0.0306 -0.4912
15167SOL    HW157560   0.469   7.816   4.900 -3.1470 -0.8568  0.9798
15167SOL    HW257561   0.546   7.727   4.786  0.2880  3.7182 -0.4581
15168SOL     OW57562   8.944   9.014   4.482  0.4872 -0.4258 -0.2132
15168SOL    HW157563   9.027   8.990   4.431 -0.5861 -1.4234 -1.5298
15168SOL    HW257564   8.871   8.950   4.459 -1.3644  1.8704 -0.9231
15169SOL     OW57565   8.155   5.661   2.901 -0.3308  0.5428 -0.0198
15169SOL    HW157566   8.216   5.669   2.979 -1.3879 -0.4416  0.9221
15169SOL    HW257567   8.061   5.677   2.930 -0.4637  2.9387 -1.6217
15170SOL     OW57568   0.256   4.139   4.055 -0.0722 -0.5738 -0.8021
15170SOL    HW157569   0.191   4.190   3.999 -1.0695 -2.0310 -1.0256
15170SOL    HW257570   0.256   4.043   4.026  0.1188 -1.1581  1.0491
15171SOL     OW57571   8.000   6.966   6.036  0.0895  0.1401  0.0181
15171SOL    HW157572   7.908   6.973   5.997  0.4447 -0.9384 -1.0493
15171SOL    HW257573   8.022   7.051   6.084 -0.9034  0.9819 -0.9713
15172SOL     OW57574   7.617   2.005   3.113  0.3399 -0.4253  0.1301
15172SOL    HW157575   7.569   1.942   3.174  0.4920 -0.9319 -0.2639
15172SOL    HW257576   7.615   1.969   3.020  1.2430 -0.3199  0.0633
15173SOL     OW57577   9.078   1.690   5.438  0.0052  0.4468 -0.1379
15173SOL    HW157578   9.014   1.625   5.398 -0.7010  1.6635 -1.0302
15173SOL    HW257579   9.031   1.775   5.459  1.2576  1.2856 -0.6003
15174SOL     OW57580   5.672   5.277   2.205 -0.8504 -0.6922  0.4907
15174SOL    HW157581   5.763   5.243   2.184 -0.5790 -2.5210  4.3297
15174SOL    HW257582   5.604   5.206   2.186 -1.4450  0.3562 -1.4952
15175SOL     OW57583   0.171   1.030   9.034  0.2474  0.3754  0.2947
15175SOL    HW157584   0.244   1.092   9.064 -0.2584  0.6941  0.8735
15175SOL    HW257585   0.208   0.967   8.965  1.1473  0.3453  0.7893
15176SOL     OW57586   6.787   6.221   1.346 -0.2035  0.2541 -0.1126
15176SOL    HW157587   6.700   6.219   1.296 -0.3729 -0.0451  0.1918
15176SOL    HW257588   6.770   6.248   1.441  0.0092 -0.0271  0.0033
15177SOL     OW57589   3.937   8.627   5.868 -0.2525  0.0365  0.3274
15177SOL    HW157590   3.977   8.647   5.958  0.6312 -0.7387  0.1165
15177SOL    HW257591   4.007   8.586   5.809 -0.6859  1.0134 -0.8950
15178SOL     OW57592   7.160   5.915   0.373 -0.7993  0.1261  0.1776
15178SOL    HW157593   7.118   5.893   0.285 -2.0237  1.5593  0.3881
15178SOL    HW257594   7.246   5.865   0.383 -0.5816  0.0691 -1.8989
15179SOL     OW57595   9.959   6.910   7.087 -0.3027 -0.0714 -0.4399
15179SOL    HW157596   9.994   6.895   6.994  1.2630 -1.1612  0.3083
15179SOL    HW257597   9.924   6.824   7.123 -0.6869  0.2989  0.0633
15180SOL     OW57598   4.119   9.490   8.871  0.2638  0.6194 -0.4290
15180SOL    HW157599   4.209   9.449   8.859  0.0360  0.5898 -2.1120
15180SOL    HW257600   4.090   9.533   8.786 -2.1940 -1.1407 -0.5315
15181SOL     OW57601   9.070   9.400   9.440 -0.1166  0.1822  0.6367
15181SOL    HW157602   9.061   9.430   9.535 -1.0962  3.4654 -0.4197
15181SOL    HW257603   9.121   9.469   9.388 -0.0287 -1.3286 -1.3282
15182SOL     OW57604   8.627   7.187   6.985 -0.2521 -0.1425  0.1379
15182SOL    HW157605   8.701   7.156   6.926 -1.3571 -2.6451 -0.0111
15182SOL    HW257606   8.661   7.199   7.078  0.8429  1.0075 -0.3970
15183SOL     OW57607   8.004   5.442   4.353  0.4913  0.5003  0.3135
15183SOL    HW157608   8.079   5.480   4.407  0.9018 -0.1531  0.2095
15183SOL    HW257609   8.031   5.353   4.315  0.0260  0.7178 -0.5488
15184SOL     OW57610   9.576   7.042   3.811 -0.2367  0.0519  0.3019
15184SOL    HW157611   9.517   7.030   3.891  1.6068  1.3239  1.8936
15184SOL    HW257612   9.635   7.121   3.825  0.9883 -0.4704 -1.7965
15185SOL     OW57613   8.807   7.821   2.519 -0.0909  0.0600 -0.3771
15185SOL    HW157614   8.780   7.917   2.521  0.5919  0.2264  1.9356
15185SOL    HW257615   8.878   7.804   2.587 -0.4687 -2.1788 -0.4760
15186SOL     OW57616   8.709   7.347   0.795  0.0018 -0.5082 -0.3222
15186SOL    HW157617   8.804   7.318   0.799 -0.3707 -1.7352 -0.1804
15186SOL    HW257618   8.703   7.445   0.814  1.2910 -0.2949 -0.9740
15187SOL     OW57619   7.566   1.874   2.875 -0.0996  0.1764  0.1453
15187SOL    HW157620   7.480   1.853   2.921 -0.0487  0.0616  0.1883
15187SOL    HW257621   7.619   1.790   2.862 -0.1894  0.1845 -0.2765
15188SOL     OW57622   3.320   1.384   7.878  0.4535  0.1156 -0.2654
15188SOL    HW157623   3.308   1.336   7.965 -0.5055  0.3144 -0.2847
15188SOL    HW257624   3.405   1.436   7.880  0.9206 -0.6653  0.1887
15189SOL     OW57625   0.630   1.386   6.605 -0.1869  0.4573  0.1380
15189SOL    HW157626   0.608   1.362   6.510 -1.1248 -0.3454  0.5558
15189SOL    HW257627   0.546   1.413   6.653 -0.0009 -0.9213  1.2537
15190SOL     OW57628   5.021   2.295   4.807  0.5863  0.2036 -0.6085
15190SOL    HW157629   4.953   2.267   4.874  0.0744 -2.6170 -2.2182
15190SOL    HW257630   5.113   2.282   4.845  0.2922 -0.0946  0.0016
15191SOL     OW57631   1.839   2.220   0.553 -0.6557  0.1703  0.1006
15191SOL    HW157632   1.836   2.209   0.652  1.7724  1.2411  0.3235
15191SOL    HW257633   1.825   2.131   0.509  3.0516 -1.2455  1.5254
15192SOL     OW57634   2.893   2.857   2.487 -0.2224  0.1724  0.2902
15192SOL    HW157635   2.822   2.916   2.526 -0.4222  1.1900 -1.5282
15192SOL    HW257636   2.973   2.913   2.464  0.0891 -0.4872 -0.2385
15193SOL     OW57637   5.140   2.616   8.545  0.3806 -0.0874 -0.1415
15193SOL    HW157638   5.228   2.644   8.583 -0.6773  0.9254  1.6325
15193SOL    HW257639   5.122   2.521   8.570  0.3571  0.1282  0.6876
15194SOL     OW57640   5.397   0.013   8.838 -0.3474 -0.4240 -0.0109
15194SOL    HW157641   5.403   0.003   8.739 -0.0437 -1.9363  0.1442
15194SOL    HW257642   5.401   0.110   8.862  0.1390 -0.0756 -1.4355
15195SOL     OW57643   1.528   8.184   2.340  0.3894 -0.2269  0.1103
15195SOL    HW157644   1.480   8.208   2.425  0.4712  2.5800 -0.5727
15195SOL    HW257645   1.469   8.126   2.284 -0.6963  0.0314  0.9579
15196SOL     OW57646   1.531   9.929   6.435  0.0958  0.3262  0.0239
15196SOL    HW157647   1.604   9.881   6.484 -0.1784 -0.9827 -0.8196
15196SOL    HW257648   1.544   9.919   6.337 -0.8371  0.6517 -0.1360
15197SOL     OW57649   0.011   9.601   1.069 -0.6377  0.5275 -0.5111
15197SOL    HW157650  -0.081   9.634   1.050 -0.7372 -0.4632 -1.8466
15197SOL    HW257651   0.032   9.614   1.166 -1.7129  1.8816 -0.4435
15198SOL     OW57652   4.652   9.493   4.896  0.6306 -0.4793  0.3488
15198SOL    HW157653   4.620   9.473   4.988 -0.1182  2.2548  0.7209
15198SOL    HW257654   4.587   9.455   4.830 -0.4016  0.1347  1.0031
15199SOL     OW57655   3.580   2.604   9.591  0.2990  0.1487  0.1461
15199SOL    HW157656   3.553   2.628   9.498  0.9240 -1.5759 -0.4947
15199SOL    HW257657   3.544   2.672   9.655 -1.6854  0.3429 -1.1501
15200SOL     OW57658   0.482   1.282   4.830  0.1933 -0.5000  1.2176
15200SOL    HW157659   0.489   1.221   4.909  0.4156 -0.1253  1.4838
15200SOL    HW257660   0.418   1.356   4.850 -1.0619 -1.3552  0.4349
15201SOL     OW57661   9.396   5.177   3.841  0.2568  0.3703 -0.2525
15201SOL    HW157662   9.380   5.273   3.865 -1.3295  0.2289 -0.6793
15201SOL    HW257663   9.472   5.141   3.895  0.4743  1.7067  0.3404
15202SOL     OW57664   2.600   4.408   5.866 -0.0818 -0.0751  0.2637
15202SOL    HW157665   2.538   4.338   5.830 -1.3695  1.8276 -1.3553
15202SOL    HW257666   2.695   4.379   5.853 -0.5746 -2.3168  1.3081
15203SOL     OW57667   0.780   3.662   2.184  0.1743  0.6319  0.0099
15203SOL    HW157668   0.832   3.724   2.242 -0.3507  0.2526  0.8989
15203SOL    HW257669   0.825   3.573   2.183 -1.6305 -0.4007  2.6561
15204SOL     OW57670   2.699   4.201   0.311  0.1300 -0.0883  0.2755
15204SOL    HW157671   2.657   4.123   0.264 -1.8035  1.4778 -0.6310
15204SOL    HW257672   2.638   4.235   0.382  0.2061  1.6924 -0.4931
15205SOL     OW57673   8.213   8.395   3.808 -0.2832  0.2665  0.0998
15205SOL    HW157674   8.242   8.461   3.738 -1.1283  0.1807 -0.3429
15205SOL    HW257675   8.272   8.315   3.805  0.8776  1.0772  0.7693
15206SOL     OW57676   9.700   3.581   4.658 -0.6398 -0.2642 -0.3564
15206SOL    HW157677   9.602   3.603   4.654 -0.5065  0.9510  1.7657
15206SOL    HW257678   9.749   3.631   4.587 -1.5803 -0.9962 -1.5242
15207SOL     OW57679   4.612   2.292   6.748 -0.7602 -0.0263  0.3777
15207SOL    HW157680   4.548   2.284   6.672 -1.8262  0.7222  1.1911
15207SOL    HW257681   4.594   2.377   6.799 -0.3747 -0.7549  1.7585
15208SOL     OW57682   0.545   0.020   3.965 -0.2976 -0.6232  0.5142
15208SOL    HW157683   0.645   0.010   3.963 -0.2378  0.0959 -1.2249
15208SOL    HW257684   0.523   0.111   4.000 -0.3309 -0.6796  0.6380
15209SOL     OW57685   1.441   8.839   2.129 -0.1831 -0.0009 -0.5469
15209SOL    HW157686   1.364   8.886   2.170 -0.1471 -2.0789  1.9964
15209SOL    HW257687   1.511   8.906   2.104 -0.9380  1.4764  1.2068
15210SOL     OW57688   7.794   7.773   7.131 -0.3526 -0.1211 -0.5911
15210SOL    HW157689   7.881   7.822   7.129  0.2481 -1.1752 -0.5995
15210SOL    HW257690   7.783   7.728   7.219 -1.4517  0.9868 -0.1438
15211SOL     OW57691   3.748   0.089   6.027 -0.9227 -0.4783 -0.0333
15211SOL    HW157692   3.800   0.005   6.044  0.0190  0.0689 -0.1735
15211SOL    HW257693   3.718   0.092   5.932  1.8269  0.8420 -0.9247
15212SOL     OW57694   8.273   2.103   9.346 -0.0511 -0.0347  1.0685
15212SOL    HW157695   8.365   2.088   9.312 -0.5269 -0.5733 -0.0121
15212SOL    HW257696   8.272   2.182   9.408  1.1133 -0.0127  1.0674
15213SOL     OW57697   1.455   2.513   6.071  0.1456  0.0822  0.5572
15213SOL    HW157698   1.494   2.534   5.982  0.4820 -1.0015  0.4449
15213SOL    HW257699   1.522   2.532   6.142  0.0938  0.3560  0.5325
15214SOL     OW57700   5.549   5.613   0.279  0.7509  0.9726  0.3861
15214SOL    HW157701   5.507   5.638   0.192  2.3400 -0.2554 -0.7628
15214SOL    HW257702   5.610   5.687   0.308 -0.0369  1.5305  0.6289
15215SOL     OW57703   8.511   3.298   8.446 -0.1299 -0.1287  0.9466
15215SOL    HW157704   8.603   3.294   8.484  0.7977 -0.4291 -1.2631
15215SOL    HW257705   8.469   3.207   8.448 -0.2041 -0.0782  1.5482
15216SOL     OW57706   0.220   7.871   9.442  0.7184  0.1237  0.1852
15216SOL    HW157707   0.212   7.971   9.443  0.5125  0.0978  1.5089
15216SOL    HW257708   0.149   7.831   9.500  0.2305 -0.8396 -1.0587
15217SOL     OW57709   2.884   8.721   9.449  0.0583  0.5562  0.4881
15217SOL    HW157710   2.923   8.628   9.454  3.8581  2.0967  1.2858
15217SOL    HW257711   2.932   8.773   9.378 -0.5062  2.6042  1.5839
15218SOL     OW57712   1.671   9.119   0.663  0.4855 -0.0345  0.2017
15218SOL    HW157713   1.717   9.197   0.622 -0.9994  1.3832  1.1799
15218SOL    HW257714   1.720   9.091   0.745  0.4938  0.4754  0.3725
15219SOL     OW57715   7.898   3.709   5.331  0.0345 -0.0110 -0.0325
15219SOL    HW157716   7.893   3.610   5.324 -1.7957  0.1858 -1.8245
15219SOL    HW257717   7.985   3.741   5.292  0.5520 -0.8775  0.4028
15220SOL     OW57718   1.100   3.530   6.621  0.3082  0.1585  0.3160
15220SOL    HW157719   1.134   3.624   6.626 -0.1075  0.2660  1.3154
15220SOL    HW257720   1.105   3.488   6.711 -1.5540 -0.0495  0.3355
15221SOL     OW57721   1.335   2.434   0.916 -0.5447 -0.3693 -0.4591
15221SOL    HW157722   1.347   2.427   1.015 -0.9736  0.6741 -0.3189
15221SOL    HW257723   1.301   2.526   0.893  1.3209  0.0428 -1.7389
15222SOL     OW57724   4.057   8.553   3.403 -0.6545  0.0847  0.8850
15222SOL    HW157725   4.047   8.455   3.385 -2.6764  0.5092 -0.5163
15222SOL    HW257726   4.146   8.571   3.444  0.4822 -2.1355 -0.5151
15223SOL     OW57727   4.986   8.145   6.801  0.1577 -0.1892 -0.1815
15223SOL    HW157728   4.930   8.221   6.769 -0.1155 -0.3288 -0.0395
15223SOL    HW257729   5.083   8.168   6.792  0.0761  0.5705  0.8135
15224SOL     OW57730   0.203   5.195   3.228 -0.5357 -0.0146 -0.4446
15224SOL    HW157731   0.295   5.234   3.219 -0.6058 -0.0847 -1.5537
15224SOL    HW257732   0.210   5.100   3.258 -0.1887 -0.3216 -1.4544
15225SOL     OW57733   9.644   8.210   6.599  0.0047  0.2229  0.3320
15225SOL    HW157734   9.646   8.275   6.675  0.3609 -1.4022  1.7604
15225SOL    HW257735   9.732   8.161   6.595 -0.9086 -1.4747  0.4859
15226SOL     OW57736   8.855   6.955   0.101 -0.1564  0.0250 -0.1057
15226SOL    HW157737   8.952   6.931   0.091 -0.2351 -2.1086  3.4678
15226SOL    HW257738   8.799   6.873   0.088 -1.2120  0.4725  1.4349
15227SOL     OW57739   6.078   8.241   2.538  0.1399  0.4060  0.1911
15227SOL    HW157740   6.098   8.236   2.636 -0.5916  0.3055  0.3407
15227SOL    HW257741   5.980   8.255   2.525  0.3182  1.0053 -0.5198
15228SOL     OW57742   4.852   1.185   7.108  0.2064 -0.1669 -0.1807
15228SOL    HW157743   4.927   1.162   7.170  0.3732  0.3996 -0.1638
15228SOL    HW257744   4.771   1.206   7.161 -0.4592 -2.4293 -0.2482
15229SOL     OW57745   1.397   5.019   1.178  0.4344  0.0952 -0.2969
15229SOL    HW157746   1.403   5.113   1.211  1.2101 -0.6007  1.6045
15229SOL    HW257747   1.358   5.018   1.085 -0.5996  2.1908  0.1018
15230SOL     OW57748   1.452   5.927   4.032 -0.3090 -0.4000 -0.2675
15230SOL    HW157749   1.436   5.831   4.057  0.7182 -1.1194 -2.2598
15230SOL    HW257750   1.366   5.968   4.002 -1.3371  0.1658  3.2829
15231SOL     OW57751   4.020   7.058   4.865 -0.3358  0.1540  0.1048
15231SOL    HW157752   4.050   6.963   4.857  1.5016  0.7613 -0.4269
15231SOL    HW257753   3.976   7.086   4.779 -1.0916 -0.2783  0.3456
15232SOL     OW57754   0.312   8.440   7.115  0.6582  1.0296 -0.3234
15232SOL    HW157755   0.292   8.385   7.034 -0.4899  1.4414 -0.3301
15232SOL    HW257756   0.371   8.517   7.090 -0.4099  1.6558 -0.9419
15233SOL     OW57757   1.982   7.488   8.662 -0.3801 -0.7411  0.4272
15233SOL    HW157758   1.980   7.391   8.685 -0.6872 -0.6711  0.7056
15233SOL    HW257759   2.038   7.502   8.580 -0.2296 -1.1349  0.4617
15234SOL     OW57760   0.548   7.562   2.740  0.6283  0.5739 -0.6240
15234SOL    HW157761   0.577   7.642   2.794  0.9179 -0.6399  1.0584
15234SOL    HW257762   0.629   7.517   2.703  0.6600 -0.5546  0.7909
15235SOL     OW57763   7.784   0.808   3.135 -0.1927  0.4794 -0.4785
15235SOL    HW157764   7.769   0.862   3.052  0.8476  0.7794 -0.4807
15235SOL    HW257765   7.698   0.767   3.164 -0.6855  0.8744 -1.3590
15236SOL     OW57766   4.199   5.188   9.293 -0.0725  0.1738 -0.3771
15236SOL    HW157767   4.226   5.244   9.371 -0.5860  0.3357 -0.3116
15236SOL    HW257768   4.268   5.118   9.276 -0.9255 -1.1421  1.4791
15237SOL     OW57769   0.612   9.981   5.351 -0.6176 -0.2365  0.2488
15237SOL    HW157770   0.549  10.003   5.277 -0.6949 -0.8446  0.1299
15237SOL    HW257771   0.663  10.063   5.377 -1.2000  0.1755  0.1015
15238SOL     OW57772   1.172   1.958   5.498 -0.0770  0.3604  0.4377
15238SOL    HW157773   1.077   1.927   5.508  0.0857 -0.7776 -1.2589
15238SOL    HW257774   1.233   1.878   5.501  0.7985  1.0378  1.0057
15239SOL     OW57775   2.509   2.056   7.358 -0.6030  0.2044  0.0266
15239SOL    HW157776   2.555   2.076   7.272 -2.2054  1.0542 -0.6577
15239SOL    HW257777   2.439   2.126   7.375  1.0255  1.2085  3.0142
15240SOL     OW57778   3.536   9.345   9.707  0.0575  0.2480 -0.3284
15240SOL    HW157779   3.559   9.378   9.799  1.6420 -0.8161 -0.3233
15240SOL    HW257780   3.511   9.248   9.713  1.4252 -0.1738 -1.1750
15241SOL     OW57781   7.448   2.358   8.375 -0.2463  0.2373  0.0440
15241SOL    HW157782   7.478   2.386   8.466  1.4892  0.9571 -0.7271
15241SOL    HW257783   7.352   2.382   8.363 -0.5044  0.1061  1.6911
15242SOL     OW57784   7.945   0.808   4.536 -0.3697  0.5165 -0.3939
15242SOL    HW157785   7.850   0.777   4.535 -0.2695  0.1368  1.2020
15242SOL    HW257786   7.948   0.907   4.543 -0.6361  0.4788  0.2187
15243SOL     OW57787   0.558   7.483   8.618 -0.4006 -0.1910 -0.3531
15243SOL    HW157788   0.556   7.582   8.602 -1.4745 -0.2151 -0.3427
15243SOL    HW257789   0.629   7.462   8.685 -0.1423  0.5671 -0.3826
15244SOL     OW57790   1.123   9.986   6.600  0.4260 -0.5415 -0.3377
15244SOL    HW157791   1.149   9.906   6.545 -0.3782  0.0174 -1.5593
15244SOL    HW257792   1.103  10.062   6.539  1.2289  0.6156  0.8246
15245SOL     OW57793   9.311   7.191   3.404  0.3421 -0.5898  0.7002
15245SOL    HW157794   9.319   7.260   3.332  1.0866 -0.9141  0.4707
15245SOL    HW257795   9.302   7.237   3.493 -1.9639 -0.1802  0.2699
15246SOL     OW57796   3.923   1.210   8.915  0.3662  0.3301  0.6345
15246SOL    HW157797   3.865   1.243   8.990  1.3701 -1.2148  2.1289
15246SOL    HW257798   3.924   1.110   8.915  1.3462  0.3255 -0.6947
15247SOL     OW57799   1.206   5.326   8.238  0.1813 -0.0443 -1.1521
15247SOL    HW157800   1.108   5.307   8.244  0.1054  0.1205 -1.7686
15247SOL    HW257801   1.228   5.352   8.144  0.8760 -0.4113 -1.0888
15248SOL     OW57802   7.899   8.765   8.965 -0.3263  0.1456 -0.3881
15248SOL    HW157803   7.859   8.849   9.003  0.7238  0.1610  0.7288
15248SOL    HW257804   7.964   8.789   8.894 -2.3077  0.1199 -2.2627
15249SOL     OW57805   3.944   6.565   8.559 -0.0740 -0.2365  0.3649
15249SOL    HW157806   3.862   6.609   8.595 -1.3803 -1.1397 -1.4156
15249SOL    HW257807   3.920   6.476   8.520  1.8637 -0.7806  0.3354
15250SOL     OW57808   2.169   0.194   0.063  0.6221  0.1106 -0.3744
15250SOL    HW157809   2.153   0.257   0.138  0.1829  1.0126 -1.2067
15250SOL    HW257810   2.119   0.109   0.080 -0.9300  0.9827 -0.4875
15251SOL     OW57811   6.777   8.987   7.417  0.4708  0.3249  0.8835
15251SOL    HW157812   6.747   9.076   7.382  1.1978  0.1515 -0.2095
15251SOL    HW257813   6.755   8.916   7.349 -1.3350 -0.5358  2.3247
15252SOL     OW57814   8.785   0.761   4.720 -0.6573  0.1170  0.0177
15252SOL    HW157815   8.700   0.729   4.763 -1.0018 -1.2468 -1.6610
15252SOL    HW257816   8.784   0.861   4.717 -0.9182  0.2394  2.5431
15253SOL     OW57817   6.218   0.061   6.384 -0.2792  0.0133  0.0196
15253SOL    HW157818   6.127   0.094   6.407  0.6413  2.2414  0.6032
15253SOL    HW257819   6.258   0.118   6.312  1.6154  0.6736  1.5448
15254SOL     OW57820   1.642   1.086   5.372  0.2388 -0.0664 -0.1260
15254SOL    HW157821   1.548   1.053   5.356 -0.4277  0.8532  1.7864
15254SOL    HW257822   1.669   1.065   5.466  1.2386  1.3873 -0.0772
15255SOL     OW57823   0.237   4.994   2.186 -0.1148  0.6041 -0.4076
15255SOL    HW157824   0.295   5.071   2.213 -0.0023  1.3553 -2.6956
15255SOL    HW257825   0.145   5.027   2.164 -0.6753 -0.2238  0.6157
15256SOL     OW57826   1.140   3.253   7.343 -0.2056 -0.4572 -0.2362
15256SOL    HW157827   1.142   3.170   7.287 -1.0262  0.4964 -1.7057
15256SOL    HW257828   1.098   3.328   7.291  1.3685  1.1380  0.7101
15257SOL     OW57829   5.168   1.807   5.302 -0.3168 -0.5175  0.0116
15257SOL    HW157830   5.223   1.850   5.230  0.7319 -2.2236 -0.2236
15257SOL    HW257831   5.145   1.876   5.371  0.3138  0.6989 -0.9596
15258SOL     OW57832   8.549   9.250   9.210 -0.0354  0.2299 -0.2052
15258SOL    HW157833   8.572   9.268   9.305  0.4044  1.2898 -0.5009
15258SOL    HW257834   8.463   9.200   9.205 -0.5021  0.9291  0.7129
15259SOL     OW57835   1.438   6.777   2.145  0.6292  0.0310 -0.1198
15259SOL    HW157836   1.514   6.760   2.207  0.7645  0.5357 -0.1463
15259SOL    HW257837   1.382   6.694   2.137  1.6316 -0.5915 -0.7303
15260SOL     OW57838   9.803   3.351   6.014  0.2356  0.2292  0.6368
15260SOL    HW157839   9.845   3.265   5.985  0.4627  0.2924  0.7848
15260SOL    HW257840   9.744   3.334   6.093 -1.5053 -0.2115 -0.7186
15261SOL     OW57841   7.123   1.136   4.469  0.7018 -0.3834  0.1654
15261SOL    HW157842   7.188   1.060   4.467  0.4552 -0.5671 -1.1839
15261SOL    HW257843   7.100   1.163   4.376 -0.4619  0.2779  0.6306
15262SOL     OW57844   9.113   5.041   9.843  0.0566 -0.5871 -0.4166
15262SOL    HW157845   9.073   5.116   9.790 -0.3590  0.4643  1.3410
15262SOL    HW257846   9.134   5.073   9.935  0.2774 -2.5306  0.2328
15263SOL     OW57847   0.665   2.126   9.419  0.0404  0.0123  0.0171
15263SOL    HW157848   0.699   2.209   9.376 -1.3812  0.3941 -0.3890
15263SOL    HW257849   0.565   2.125   9.416  0.0199 -1.3535  0.6860
15264SOL     OW57850   9.132   7.217   1.161  0.5897  0.8388 -0.5884
15264SOL    HW157851   9.049   7.266   1.134 -0.7295 -1.6685 -1.2148
15264SOL    HW257852   9.147   7.227   1.260 -0.4229  1.3308 -0.4872
15265SOL     OW57853   9.997   4.899   4.615 -0.6509 -0.5281  0.0470
15265SOL    HW157854   9.943   4.896   4.699 -1.1956 -0.8584 -0.3140
15265SOL    HW257855   9.937   4.920   4.538 -0.2058 -0.5677 -0.3087
15266SOL     OW57856   3.378   7.410   9.839  0.6445 -0.3254  0.6175
15266SOL    HW157857   3.414   7.324   9.873  0.5248  0.4276  2.7496
15266SOL    HW257858   3.278   7.405   9.837  0.6561 -0.4018  0.3214
15267SOL     OW57859   3.223   6.477   6.312 -0.1226  0.2972  0.2950
15267SOL    HW157860   3.320   6.498   6.302  0.2764 -0.5941  2.2060
15267SOL    HW257861   3.211   6.378   6.319 -1.3804  0.2533 -1.9637
15268SOL     OW57862   4.008   9.822   2.212 -0.1741  0.6764  0.2386
15268SOL    HW157863   4.070   9.871   2.274  1.4603 -1.3811  0.2716
15268SOL    HW257864   3.944   9.768   2.266  0.0353  0.3475  0.1557
15269SOL     OW57865   8.342   1.581   6.210 -0.6436 -0.4743  0.9679
15269SOL    HW157866   8.325   1.611   6.116  2.0563 -1.0519  0.2407
15269SOL    HW257867   8.390   1.653   6.260  0.6563 -1.3151  0.9577
15270SOL     OW57868   7.394   8.499   2.494 -0.7402  0.2227 -0.0631
15270SOL    HW157869   7.356   8.591   2.485 -0.6317  0.2541 -0.2109
15270SOL    HW257870   7.469   8.488   2.430 -0.5651  0.1268  0.1602
15271SOL     OW57871   1.705   5.637   5.077  0.1730 -0.1692  0.4076
15271SOL    HW157872   1.735   5.604   5.167 -2.2593 -0.3566  1.1899
15271SOL    HW257873   1.628   5.582   5.045  0.6142  0.2978 -1.5239
15272SOL     OW57874   1.595   8.001   4.112 -0.4659  0.2422 -0.2882
15272SOL    HW157875   1.610   7.954   4.024 -0.2153 -0.9541  0.3855
15272SOL    HW257876   1.500   7.989   4.140 -0.0530 -1.0397  0.5647
15273SOL     OW57877   7.840   4.109   5.370 -0.3949 -0.2009  0.3467
15273SOL    HW157878   7.919   4.168   5.359  0.2356 -1.0970  0.0743
15273SOL    HW257879   7.793   4.098   5.283  0.5639 -1.6006 -0.0157
15274SOL     OW57880   3.718   5.285   9.881 -0.1819  0.4650  0.3569
15274SOL    HW157881   3.635   5.340   9.873 -1.1667 -1.2463 -1.6973
15274SOL    HW257882   3.696   5.200   9.929  1.0077  1.1403  2.1740
15275SOL     OW57883   1.523   7.267   5.771  0.1453  0.3368  0.2284
15275SOL    HW157884   1.580   7.191   5.802 -1.2720 -1.0964 -0.5889
15275SOL    HW257885   1.475   7.307   5.850  1.0838  0.5657  0.6948
15276SOL     OW57886   3.715   8.616   2.752 -0.8779 -0.3510  0.2810
15276SOL    HW157887   3.749   8.524   2.732 -3.0230 -0.7674 -1.7197
15276SOL    HW257888   3.729   8.674   2.671 -0.6552  0.7423  1.0963
15277SOL     OW57889   9.959   9.001   1.106  0.2148 -0.0780  0.1453
15277SOL    HW157890  10.043   8.966   1.064  0.3636  0.4662 -0.0216
15277SOL    HW257891   9.881   8.945   1.077  0.3572  0.1216 -0.6401
15278SOL     OW57892   0.558   3.094   3.811 -0.0388 -0.3756  0.4143
15278SOL    HW157893   0.652   3.101   3.778  0.1770  0.5440  1.2006
15278SOL    HW257894   0.551   3.016   3.874 -0.3516 -1.8565 -1.4055
15279SOL     OW57895   8.248   5.128   1.960 -0.1701  0.2023 -0.1995
15279SOL    HW157896   8.288   5.039   1.940 -1.1556  0.2545 -2.5395
15279SOL    HW257897   8.223   5.132   2.057  1.2553 -1.4932  0.2711
15280SOL     OW57898   9.079   5.458   0.143 -0.1746 -0.8649  0.2174
15280SOL    HW157899   9.172   5.488   0.161  0.6058 -2.9634 -0.1652
15280SOL    HW257900   9.031   5.527   0.089  1.2310  0.1085  0.1899
15281SOL     OW57901   3.385   1.733   8.823 -0.1053  0.5383 -0.0129
15281SOL    HW157902   3.381   1.688   8.912 -1.6573  1.9034  0.6259
15281SOL    HW257903   3.336   1.678   8.755 -3.2662  1.9352  1.0829
15282SOL     OW57904   2.397   7.581   2.180 -0.4752  0.2904  0.5489
15282SOL    HW157905   2.455   7.653   2.218 -1.7192 -0.2764  3.6914
15282SOL    HW257906   2.453   7.514   2.132  1.3616  0.3254  2.5713
15283SOL     OW57907   3.223   9.165   9.536  0.4018  0.0338  0.5493
15283SOL    HW157908   3.275   9.126   9.611  0.5804  0.9167  0.8982
15283SOL    HW257909   3.273   9.243   9.498 -0.4989  0.6794  0.6570
15284SOL     OW57910   5.407   9.684   4.080  0.4658 -0.1522  0.2119
15284SOL    HW157911   5.410   9.585   4.096 -0.8820 -0.3512 -0.6821
15284SOL    HW257912   5.345   9.703   4.003  1.0485  1.3524  0.1047
15285SOL     OW57913   3.798   2.081   8.520 -0.1977  0.2310  0.4850
15285SOL    HW157914   3.797   2.078   8.620  0.5155 -0.5954  0.4744
15285SOL    HW257915   3.842   2.165   8.490 -4.7177  2.8837  0.8321
15286SOL     OW57916   7.970   9.898   7.346 -0.4031 -0.0415 -0.1512
15286SOL    HW157917   7.916   9.852   7.417 -0.4312  0.0064 -0.1415
15286SOL    HW257918   7.957   9.851   7.258  0.4159 -0.7112  0.0790
15287SOL     OW57919   3.253   3.038   0.312 -0.1154  0.6265 -0.0557
15287SOL    HW157920   3.292   2.966   0.369  1.4557  2.3069  1.0400
15287SOL    HW257921   3.210   3.107   0.370  0.6784  1.8792 -0.9321
15288SOL     OW57922   0.433   6.800   1.708 -0.0479 -0.6522 -0.4775
15288SOL    HW157923   0.348   6.845   1.681  0.2598  0.4760  0.3961
15288SOL    HW257924   0.439   6.711   1.664  0.0901  0.8007 -3.5284
15289SOL     OW57925   5.355   2.204   9.593  0.0598  0.1292  0.3395
15289SOL    HW157926   5.339   2.109   9.618  0.9303  0.6597  3.0336
15289SOL    HW257927   5.268   2.247   9.570 -0.4048 -1.1511 -0.3479
15290SOL     OW57928   3.344   2.406   1.101  0.2577 -0.2841  0.1367
15290SOL    HW157929   3.408   2.370   1.033  0.4665 -0.7232  0.5691
15290SOL    HW257930   3.250   2.395   1.068  0.2337 -2.4627  0.8458
15291SOL     OW57931   8.054   2.135   1.826  0.4027 -0.3348 -0.4568
15291SOL    HW157932   7.982   2.134   1.758  0.1711 -0.9552 -0.2072
15291SOL    HW257933   8.017   2.105   1.914  0.5551  1.0374  0.0882
15292SOL     OW57934   8.978   9.309   2.891  0.5892 -0.0062 -0.0441
15292SOL    HW157935   9.039   9.275   2.963  0.7144  0.2644 -0.0191
15292SOL    HW257936   8.888   9.327   2.929  1.5076  3.2288  0.8080
15293SOL     OW57937   6.485   9.073   7.831  0.0792 -0.0740  0.0871
15293SOL    HW157938   6.523   8.985   7.861 -0.7591 -0.8547 -1.0978
15293SOL    HW257939   6.422   9.107   7.901  1.6602  0.4217  1.3105
15294SOL     OW57940   5.124   0.458   6.940  0.0880  0.1241 -0.4036
15294SOL    HW157941   5.096   0.547   6.977 -0.1242 -0.0299 -0.1889
15294SOL    HW257942   5.064   0.433   6.864 -0.2683 -0.1385 -0.0380
15295SOL     OW57943   9.311   8.960   0.732 -0.4353  0.5696 -0.3110
15295SOL    HW157944   9.347   9.046   0.697  0.0685  0.4554 -0.0747
15295SOL    HW257945   9.273   8.974   0.824  0.0726  0.4445 -0.0786
15296SOL     OW57946   7.521   3.285   9.542 -0.0144  0.4289  0.3686
15296SOL    HW157947   7.428   3.282   9.580 -0.0533  1.5431  0.3953
15296SOL    HW257948   7.556   3.192   9.532 -1.1070 -0.0010  0.4287
15297SOL     OW57949   8.504   7.771   9.336 -0.0078 -0.1664 -0.3759
15297SOL    HW157950   8.572   7.818   9.280  0.0049 -0.3341 -0.5017
15297SOL    HW257951   8.485   7.681   9.297 -1.7557  0.6515 -1.4434
15298SOL     OW57952   1.508   6.025   1.707 -0.2408 -0.0961  0.7131
15298SOL    HW157953   1.599   5.984   1.697  0.1149  0.6035  1.0342
15298SOL    HW257954   1.510   6.092   1.781 -0.0109  2.6832 -1.6997
15299SOL     OW57955   7.565   7.897   7.901 -0.1128 -0.1789  0.2114
15299SOL    HW157956   7.615   7.983   7.915 -0.7501 -0.0660  1.9872
15299SOL    HW257957   7.488   7.913   7.839  2.2510 -0.4552 -2.9178
15300SOL     OW57958   0.081   8.793   8.206  0.9602 -0.4422 -0.5455
15300SOL    HW157959   0.125   8.718   8.157  1.6839  1.2257 -2.5133
15300SOL    HW257960   0.016   8.839   8.145 -1.0638 -0.7785  1.3000
15301SOL     OW57961   8.023   7.331   6.620  0.0371  0.1980  0.5950
15301SOL    HW157962   8.052   7.369   6.708  0.2706  0.7423  0.2865
15301SOL    HW257963   8.033   7.401   6.549 -0.1492 -0.2402  0.1363
15302SOL     OW57964   3.783   4.301   7.338 -0.9331  0.1722 -0.4280
15302SOL    HW157965   3.772   4.396   7.369 -0.2992  0.2297 -0.3773
15302SOL    HW257966   3.779   4.240   7.417  0.4916  0.3039 -0.2469
15303SOL     OW57967   7.873   0.652   8.774 -0.2013  0.2405 -0.1306
15303SOL    HW157968   7.882   0.737   8.721 -0.3972 -0.2336 -0.9193
15303SOL    HW257969   7.875   0.574   8.712 -0.7593 -0.3010  0.5351
15304SOL     OW57970   3.414   0.613   3.713 -0.4433 -0.3083 -0.3651
15304SOL    HW157971   3.482   0.623   3.641 -0.5030 -0.4183 -0.4374
15304SOL    HW257972   3.391   0.517   3.725  0.2076 -0.3726  0.4016
15305SOL     OW57973   0.111   7.055   4.850 -0.2814  0.2855  0.2003
15305SOL    HW157974   0.198   7.088   4.887 -0.1261  0.8593 -0.6615
15305SOL    HW257975   0.128   7.004   4.765 -0.5236 -1.9417  1.4495
15306SOL     OW57976   5.803   2.680   1.686  0.2192 -0.4362  0.8227
15306SOL    HW157977   5.876   2.654   1.750  0.7641 -0.4764  0.1899
15306SOL    HW257978   5.843   2.725   1.606 -0.5524  0.5518  0.9829
15307SOL     OW57979   3.151   7.388   0.027 -0.1478  0.7930 -0.0096
15307SOL    HW157980   3.233   7.421   0.073 -0.9736  0.7717  1.5122
15307SOL    HW257981   3.073   7.394   0.090 -0.8195 -1.6014 -0.5674
15308SOL     OW57982   8.207   7.187   7.421  0.1174 -0.2218 -0.6719
15308SOL    HW157983   8.141   7.112   7.412  0.1234 -0.1159 -1.6207
15308SOL    HW257984   8.239   7.191   7.516 -2.0112  0.3774  0.0576
15309SOL     OW57985   0.822   0.794   8.740 -0.0652  0.0684 -0.2836
15309SOL    HW157986   0.758   0.719   8.728 -0.6137  0.5193 -0.1963
15309SOL    HW257987   0.894   0.788   8.671  0.2353 -0.8747  0.0959
15310SOL     OW57988   3.795   7.385   5.763 -0.0454  0.4357  0.2833
15310SOL    HW157989   3.875   7.441   5.783  0.2529  0.2212 -0.2969
15310SOL    HW257990   3.799   7.301   5.817  1.7350 -1.0237 -2.0278
15311SOL     OW57991   0.945   8.589   8.742  0.4292  0.5554 -0.6056
15311SOL    HW157992   0.889   8.593   8.824  1.3868  1.7247 -0.0008
15311SOL    HW257993   0.907   8.520   8.679 -0.7606  0.2267  0.4548
15312SOL     OW57994   4.415   0.879   9.321  0.2762  0.1286 -0.3722
15312SOL    HW157995   4.363   0.821   9.258 -1.5743  0.8028  0.5158
15312SOL    HW257996   4.400   0.847   9.415 -2.1874  3.0767  0.2993
15313SOL     OW57997   2.035   2.795   6.937  0.3401  0.3419  0.5884
15313SOL    HW157998   2.122   2.828   6.973  0.1468  0.1067  1.2952
15313SOL    HW257999   2.024   2.699   6.961 -0.4446  0.5660  1.1519
15314SOL     OW58000   9.972   8.400   6.676  0.1542  0.0723 -0.2644
15314SOL    HW158001  10.067   8.368   6.678 -0.6081 -2.1641  0.3751
15314SOL    HW258002   9.942   8.408   6.581  1.1022  1.2076 -0.4849
15315SOL     OW58003   2.530   0.232   7.827  0.2924 -0.0003  0.0030
15315SOL    HW158004   2.440   0.197   7.803  0.7413 -0.1479 -1.5331
15315SOL    HW258005   2.597   0.158   7.825  0.2616 -0.1247  2.3006
15316SOL     OW58006   1.605   2.286   1.196 -0.0855  0.2225  0.0333
15316SOL    HW158007   1.623   2.212   1.261  1.2703  0.8959  0.4502
15316SOL    HW258008   1.632   2.257   1.104 -0.3954 -0.1223  0.0519
15317SOL     OW58009   3.907   0.084   8.048  0.4473  0.3276 -0.4373
15317SOL    HW158010   3.988   0.033   8.078  1.4708  1.0929 -1.8574
15317SOL    HW258011   3.927   0.182   8.051 -1.0947  0.6219  1.0735
15318SOL     OW58012   2.638   8.520   1.188  0.2268  0.3291 -0.3875
15318SOL    HW158013   2.686   8.546   1.272  0.2144 -1.3680  0.1678
15318SOL    HW258014   2.704   8.497   1.117  0.2351  0.6079 -0.4710
15319SOL     OW58015   3.752   7.294   1.508 -0.4434  0.0550 -0.3628
15319SOL    HW158016   3.843   7.253   1.518 -0.4703  0.2116  0.6298
15319SOL    HW258017   3.751   7.384   1.552 -0.6848  0.6630 -1.5998
15320SOL     OW58018   4.784   0.210   8.153 -0.1354  0.2682 -0.8022
15320SOL    HW158019   4.804   0.262   8.071 -0.9723  0.4177 -0.9138
15320SOL    HW258020   4.841   0.243   8.228 -1.3387  2.0113 -0.6229
15321SOL     OW58021   0.787   3.156   1.523  0.5038 -0.3647  0.2507
15321SOL    HW158022   0.788   3.074   1.466  0.3326 -0.5768  0.5581
15321SOL    HW258023   0.868   3.157   1.581 -0.6118 -1.4270  1.8492
15322SOL     OW58024   5.957   2.797   1.250 -0.1474  0.0103 -0.2853
15322SOL    HW158025   6.001   2.709   1.235 -1.3366 -0.5608 -0.5022
15322SOL    HW258026   5.950   2.816   1.348  0.2172 -0.0746 -0.2436
15323SOL     OW58027   5.046   2.638   8.010  0.6323 -0.1300 -0.6296
15323SOL    HW158028   5.076   2.677   8.097  0.8558  0.7402 -1.0954
15323SOL    HW258029   5.032   2.711   7.944  1.0671 -0.8440 -1.5164
15324SOL     OW58030   6.663  10.003   2.308  0.7935 -0.1456  0.2059
15324SOL    HW158031   6.599   9.998   2.232 -0.5320 -0.4700  1.3295
15324SOL    HW258032   6.722   9.922   2.309  0.0657 -0.6759  0.1791
15325SOL     OW58033   6.924   8.736   5.334  0.0231  0.6319 -0.0922
15325SOL    HW158034   6.944   8.649   5.379  0.9359  2.3600  2.9906
15325SOL    HW258035   6.828   8.758   5.345 -0.1755  0.1193 -0.7388
15326SOL     OW58036   0.647   8.325   4.647 -0.0894 -0.1950 -0.1950
15326SOL    HW158037   0.592   8.388   4.593  1.4076  0.2322 -1.2713
15326SOL    HW258038   0.740   8.361   4.656  0.0919 -1.0008  1.3941
15327SOL     OW58039   9.233   7.156   7.022 -0.2572 -0.2659 -0.1326
15327SOL    HW158040   9.226   7.073   7.078 -1.4265 -0.4011 -0.4831
15327SOL    HW258041   9.154   7.214   7.038 -1.6065 -1.2024 -3.0695
15328SOL     OW58042   1.285   1.156   0.895 -0.2596  0.2867 -0.1732
15328SOL    HW158043   1.385   1.158   0.888 -0.1474  0.1374  1.2860
15328SOL    HW258044   1.256   1.215   0.970 -1.0713 -2.1900  1.4760
15329SOL     OW58045   7.854   4.214   7.547  0.1354 -0.0129  0.4492
15329SOL    HW158046   7.888   4.261   7.465 -3.4558  1.5164 -0.2854
15329SOL    HW258047   7.870   4.116   7.539  1.0584  0.2731 -1.4647
15330SOL     OW58048   4.310   9.593   5.060  0.4581  0.3479 -0.3498
15330SOL    HW158049   4.234   9.553   5.113  2.4017 -0.8960  1.5805
15330SOL    HW258050   4.332   9.533   4.983  0.4391 -0.0280 -0.0650
15331SOL     OW58051   3.446   4.793   7.134 -0.5918  0.2066 -0.1344
15331SOL    HW158052   3.383   4.731   7.181 -1.8690  2.9283  1.9067
15331SOL    HW258053   3.528   4.806   7.190  0.4872 -0.9759 -1.3903
15332SOL     OW58054   1.712   1.739   2.397 -0.0607  0.4176 -0.0928
15332SOL    HW158055   1.612   1.749   2.396 -0.0903  0.0712 -0.9620
15332SOL    HW258056   1.751   1.797   2.326  0.3682  0.6336  0.3203
15333SOL     OW58057   6.867   0.606   3.810 -0.1659  0.3589 -0.3759
15333SOL    HW158058   6.870   0.649   3.900 -0.9226  0.1775 -0.2695
15333SOL    HW258059   6.939   0.647   3.753 -0.5696  1.4372 -0.1327
15334SOL     OW58060   7.581   8.639   4.241 -0.1699 -0.1478 -0.2351
15334SOL    HW158061   7.567   8.715   4.305 -0.3205  0.3536 -0.8649
15334SOL    HW258062   7.497   8.584   4.237 -0.5834  0.5189 -0.9148
15335SOL     OW58063   2.824   3.269   4.519 -0.2258  0.1424  0.1541
15335SOL    HW158064   2.877   3.314   4.591  1.8787  0.7150 -1.6826
15335SOL    HW258065   2.872   3.279   4.431 -1.8072 -2.0998 -1.0201
15336SOL     OW58066   9.006   3.298   8.837  0.2341 -0.2982  0.2830
15336SOL    HW158067   8.938   3.334   8.773  1.4140 -0.8718 -1.3072
15336SOL    HW258068   9.021   3.365   8.910 -1.4955  0.1374  0.2807
15337SOL     OW58069   8.428   7.882   7.482 -0.8148 -0.3680 -0.3448
15337SOL    HW158070   8.391   7.815   7.418 -3.4423  2.5499 -1.9959
15337SOL    HW258071   8.362   7.897   7.556  0.3252 -0.5321  0.7286
15338SOL     OW58072   1.001   4.103   0.636 -0.3368  0.3202  0.3030
15338SOL    HW158073   1.017   4.095   0.734  0.2833 -1.9914  0.0300
15338SOL    HW258074   1.085   4.132   0.590  0.2276 -1.5451  0.1195
15339SOL     OW58075   9.004   6.521   2.864 -0.3189  0.3266  0.0258
15339SOL    HW158076   8.911   6.485   2.851 -1.1663  1.6494  2.1908
15339SOL    HW258077   9.063   6.449   2.900 -0.1572 -0.8609 -2.4953
15340SOL     OW58078   9.721   3.956   6.982  0.3014 -0.5240 -0.1492
15340SOL    HW158079   9.769   3.889   6.925 -0.2293 -0.3537 -0.8024
15340SOL    HW258080   9.722   3.926   7.078  0.4232 -1.2556 -0.3802
15341SOL     OW58081   4.749   0.552   2.970 -0.0129 -0.0546 -0.1875
15341SOL    HW158082   4.808   0.533   3.048 -0.7168  0.3898  0.4643
15341SOL    HW258083   4.681   0.621   2.995  0.4418  0.9067 -1.5211
15342SOL     OW58084   9.900   8.783   4.370 -0.8035 -0.8089  0.0225
15342SOL    HW158085   9.928   8.837   4.290  1.2241 -0.2852  1.0728
15342SOL    HW258086   9.907   8.685   4.348  0.1699 -0.6710 -0.3189
15343SOL     OW58087   9.312   6.800   6.430  0.1736  0.3184 -0.2550
15343SOL    HW158088   9.301   6.886   6.479 -1.2536 -0.6334  1.1541
15343SOL    HW258089   9.241   6.794   6.359  0.0770  0.1715 -0.1471
15344SOL     OW58090   1.362   8.249   6.516 -0.1770 -0.3381 -0.0157
15344SOL    HW158091   1.289   8.316   6.534 -1.0495 -1.4668  0.7223
15344SOL    HW258092   1.383   8.248   6.419 -1.9244 -0.7692 -0.4090
15345SOL     OW58093   4.746   6.582   1.172  0.0637  0.1619 -0.5739
15345SOL    HW158094   4.790   6.658   1.123  1.1019 -0.4937 -0.6718
15345SOL    HW258095   4.672   6.618   1.230 -0.9384  1.0030 -2.3162
15346SOL     OW58096   6.649   9.340   7.970 -0.5102 -0.2357 -0.4171
15346SOL    HW158097   6.668   9.346   7.872 -1.9005 -0.8540 -0.7410
15346SOL    HW258098   6.734   9.351   8.021  0.1555  0.6778 -1.6658
15347SOL     OW58099   1.643   7.075   7.686  0.1076  0.1193  0.4545
15347SOL    HW158100   1.612   6.982   7.707 -2.0915  0.8384  0.4888
15347SOL    HW258101   1.620   7.136   7.761  0.9999  0.8103  0.1756
15348SOL     OW58102   2.980   6.276   7.127  0.3410 -0.4393 -0.6059
15348SOL    HW158103   3.046   6.349   7.106 -0.8456  0.3236 -1.7705
15348SOL    HW258104   2.914   6.310   7.194  0.6919 -0.9533 -0.0016
15349SOL     OW58105   4.439   9.243   6.044 -0.0001  0.0758 -0.3620
15349SOL    HW158106   4.420   9.179   6.118  3.2823 -1.1814 -0.5137
15349SOL    HW258107   4.424   9.337   6.077 -0.8297 -0.5714  1.1676
15350SOL     OW58108   5.969   0.874   3.554 -0.0235 -0.4331  0.0570
15350SOL    HW158109   5.994   0.789   3.509  0.1887 -0.9834  1.2100
15350SOL    HW258110   5.957   0.946   3.485 -1.3007 -1.6496 -1.0130
15351SOL     OW58111   2.472   3.295   1.907 -0.9701  0.3043  0.0633
15351SOL    HW158112   2.390   3.295   1.850 -0.3539  3.4770 -0.9193
15351SOL    HW258113   2.550   3.329   1.854 -0.0206  1.7884  2.3235
15352SOL     OW58114   3.246   3.030   1.646 -0.7083  0.0499  0.7625
15352SOL    HW158115   3.247   2.930   1.645 -0.2415  0.0032  3.1371
15352SOL    HW258116   3.210   3.063   1.733  0.3277  1.9458  0.5266
15353SOL     OW58117   9.567   8.288   0.459  1.1231 -0.3265 -0.6229
15353SOL    HW158118   9.658   8.319   0.484  0.3323  1.2944  0.3461
15353SOL    HW258119   9.569   8.190   0.437  2.8311 -0.5913  0.6501
15354SOL     OW58120   4.563   1.055   1.456 -0.2095 -0.3664 -0.2328
15354SOL    HW158121   4.617   1.096   1.383  0.0566 -0.4150 -0.0655
15354SOL    HW258122   4.467   1.080   1.445 -0.1681 -0.3690 -0.5939
15355SOL     OW58123   8.388   8.063   8.585 -0.3231 -0.0845  0.0150
15355SOL    HW158124   8.324   8.110   8.524 -1.4378 -0.6281  0.7727
15355SOL    HW258125   8.439   8.131   8.638  0.0062  0.3597 -0.8584
15356SOL     OW58126   3.705   9.789   7.439  0.0311  0.2577  0.2370
15356SOL    HW158127   3.657   9.752   7.518 -0.0849  2.4074  1.1906
15356SOL    HW258128   3.709   9.889   7.445 -0.8900  0.5485 -2.9776
15357SOL     OW58129   0.860   6.120   9.379  0.9254  0.5684 -0.3213
15357SOL    HW158130   0.908   6.092   9.296  1.0365  1.8118 -0.6858
15357SOL    HW258131   0.817   6.040   9.421  1.6957 -0.2304 -1.0371
15358SOL     OW58132   3.058   4.753   4.755 -0.6660 -0.1730 -0.2049
15358SOL    HW158133   2.984   4.810   4.718 -0.3539 -0.5238 -1.4018
15358SOL    HW258134   3.112   4.716   4.679  2.5598  2.4614  0.6384
15359SOL     OW58135   2.706   7.730   1.232 -0.3213  0.5738  0.2623
15359SOL    HW158136   2.618   7.779   1.229 -0.3711  0.4521 -0.3019
15359SOL    HW258137   2.774   7.782   1.182 -1.1962 -1.5564 -3.3189
15360SOL     OW58138   9.816   6.383   4.379 -0.1151 -0.1238  0.5931
15360SOL    HW158139   9.729   6.423   4.351 -0.0881 -0.7273 -0.3866
15360SOL    HW258140   9.801   6.303   4.436 -0.2549 -1.5143 -1.3491
15361SOL     OW58141   9.562   6.903   6.470 -0.5589 -0.0920  0.2248
15361SOL    HW158142   9.473   6.876   6.433  0.4144 -0.8123 -1.6379
15361SOL    HW258143   9.580   6.852   6.554 -2.7044  1.4250  1.6784
15362SOL     OW58144   4.068   5.244   8.452 -0.0549 -0.7335 -0.1735
15362SOL    HW158145   3.976   5.260   8.487 -0.6117 -0.2471 -1.8097
15362SOL    HW258146   4.070   5.156   8.403 -0.1722  0.1460 -1.8062
15363SOL     OW58147   7.116   0.479   4.841 -0.4212  0.0806  0.2064
15363SOL    HW158148   7.085   0.517   4.753  1.9734  2.3391  0.2878
15363SOL    HW258149   7.067   0.524   4.915 -0.2876  0.2955  0.1632
15364SOL     OW58150   9.702   8.341   6.197  0.6977  0.0450  0.8293
15364SOL    HW158151   9.689   8.421   6.139  0.5969 -0.4278  0.1903
15364SOL    HW258152   9.618   8.286   6.195  0.3045  0.5776  2.2834
15365SOL     OW58153   0.355   9.104   7.918  0.2567 -0.2045  0.6518
15365SOL    HW158154   0.267   9.140   7.887  0.3512 -1.3706 -1.0589
15365SOL    HW258155   0.429   9.155   7.874  0.4244  0.2597  1.4768
15366SOL     OW58156   9.722   1.514   0.328 -0.5000  0.2206  0.0230
15366SOL    HW158157   9.809   1.469   0.306  1.2655  1.9802  2.9986
15366SOL    HW258158   9.670   1.456   0.390 -0.4928  0.0966 -0.0857
15367SOL     OW58159   4.358   1.431   3.839  0.2710 -0.1127 -0.2849
15367SOL    HW158160   4.407   1.476   3.914  0.1290  0.1606 -0.3547
15367SOL    HW258161   4.292   1.366   3.877  0.8842 -0.6911 -0.1953
15368SOL     OW58162   6.998   2.808   3.005 -0.3633  0.0899  0.0171
15368SOL    HW158163   7.034   2.885   3.057  0.3711 -0.5818  0.5082
15368SOL    HW258164   6.898   2.811   3.004 -0.3272  1.2398 -0.2609
15369SOL     OW58165   7.030   9.239   4.863 -0.3992  0.4230  0.2552
15369SOL    HW158166   6.941   9.248   4.817 -0.1456  0.9947 -0.1335
15369SOL    HW258167   7.039   9.146   4.900 -1.4816  0.5908  0.9787
15370SOL     OW58168   1.482   7.554   7.876  0.1996 -0.0569 -0.4029
15370SOL    HW158169   1.502   7.606   7.959 -0.0838  0.5005 -0.6824
15370SOL    HW258170   1.533   7.592   7.799 -1.1898  0.7864 -0.9309
15371SOL     OW58171   9.284   8.606   9.737 -0.1929  0.2182 -0.0355
15371SOL    HW158172   9.328   8.593   9.647 -1.3517 -0.6219 -0.4923
15371SOL    HW258173   9.351   8.587   9.809  0.7241  0.7926 -0.7111
15372SOL     OW58174   7.312   5.211   0.417 -0.0700 -0.0167  0.3115
15372SOL    HW158175   7.288   5.232   0.322 -0.0313  0.0636  0.3192
15372SOL    HW258176   7.349   5.293   0.461  0.9484 -0.3420  0.0698
15373SOL     OW58177   1.257   3.770   9.630 -0.2451  0.7520  0.3671
15373SOL    HW158178   1.214   3.824   9.702 -3.4240 -1.6608  0.3690
15373SOL    HW258179   1.294   3.685   9.668  0.5736  0.7478 -0.3990
15374SOL     OW58180   7.924   7.537   7.457 -0.4180 -0.1855  0.4714
15374SOL    HW158181   7.860   7.613   7.447  0.3467  0.2965 -1.0039
15374SOL    HW258182   8.007   7.557   7.405  0.9828 -0.7386  2.4649
15375SOL     OW58183   5.060   9.666   2.041  0.3344 -0.6796 -0.1386
15375SOL    HW158184   5.049   9.574   2.079 -0.5482 -0.9547 -1.0561
15375SOL    HW258185   5.069   9.732   2.116 -0.1698 -1.3635  0.5290
15376SOL     OW58186   8.457   2.403   5.533 -0.3446 -0.0019 -0.0097
15376SOL    HW158187   8.555   2.383   5.530 -0.2983  0.3056 -0.6617
15376SOL    HW258188   8.408   2.323   5.567  0.2974  0.4356  1.9525
15377SOL     OW58189   1.130   4.647   4.953  0.0213 -0.0134  0.0916
15377SOL    HW158190   1.044   4.650   4.902 -0.1565 -1.8754  0.2549
15377SOL    HW258191   1.149   4.738   4.990 -1.8985  0.4237  0.0899
15378SOL     OW58192   2.028   4.201   3.445 -0.5116  0.3875 -0.0603
15378SOL    HW158193   2.121   4.199   3.482 -1.1961  0.4564  1.7092
15378SOL    HW258194   2.029   4.166   3.352  1.0543 -1.0867  0.4706
15379SOL     OW58195   1.229   9.558   2.502  0.3463  0.0517 -0.7195
15379SOL    HW158196   1.316   9.570   2.550 -1.3454  1.0457  2.2217
15379SOL    HW258197   1.216   9.462   2.480  1.5098 -0.3282  0.2009
15380SOL     OW58198   3.776   6.100   3.406  0.0433  0.1121 -0.3549
15380SOL    HW158199   3.807   6.133   3.316 -0.7183 -0.4916 -0.8441
15380SOL    HW258200   3.685   6.137   3.425 -0.6484 -1.3613 -0.7293
15381SOL     OW58201   4.349   6.226   0.894 -0.4831 -0.1289  0.0671
15381SOL    HW158202   4.331   6.211   0.991  0.1986  1.3483  0.4348
15381SOL    HW258203   4.421   6.294   0.884  0.0110 -0.8588 -1.4698
15382SOL     OW58204   7.955   4.437   0.482  0.0273  0.5218 -0.5903
15382SOL    HW158205   8.031   4.445   0.547 -0.8357  1.5064  0.3077
15382SOL    HW258206   7.909   4.349   0.495 -0.4148  0.8996  0.4417
15383SOL     OW58207   6.929   2.786   1.525 -0.2100  0.0134 -0.0664
15383SOL    HW158208   6.889   2.817   1.612 -0.5086 -0.4521 -0.0365
15383SOL    HW258209   6.962   2.692   1.535 -3.6070 -1.4090 -1.5015
15384SOL     OW58210   2.133   9.407   7.795 -0.2438 -0.1524  0.4860
15384SOL    HW158211   2.153   9.487   7.737 -0.0597  1.0764  2.1987
15384SOL    HW258212   2.076   9.435   7.872 -2.3140 -2.1967 -0.2494
15385SOL     OW58213   0.057   7.099   7.865  0.1326  0.1377  0.1753
15385SOL    HW158214   0.048   7.185   7.916 -1.0014 -0.4870  1.0539
15385SOL    HW258215   0.123   7.111   7.791 -2.5189  2.8379 -1.9009
15386SOL     OW58216   7.847   1.967   3.241 -0.3012 -0.7639 -0.2671
15386SOL    HW158217   7.764   1.992   3.190 -1.6581 -1.3560  1.5785
15386SOL    HW258218   7.821   1.917   3.323  1.9207 -0.9635  0.3401
15387SOL     OW58219   1.606   7.301   7.500 -0.2861  0.0649  0.0913
15387SOL    HW158220   1.533   7.307   7.432 -0.8587 -1.5922  0.5388
15387SOL    HW258221   1.594   7.218   7.554  0.8707  0.7430  1.4036
15388SOL     OW58222   4.261   5.020   6.453 -0.2518  0.6700  0.2162
15388SOL    HW158223   4.201   5.101   6.451  0.7143  1.4205  0.8593
15388SOL    HW258224   4.213   4.942   6.414 -1.1275  1.6122 -0.6286
15389SOL     OW58225   2.643   2.061   7.628  0.2702 -0.6397  0.0400
15389SOL    HW158226   2.605   2.053   7.536 -0.9265  0.9039  0.3765
15389SOL    HW258227   2.581   2.019   7.694 -0.2738  0.7732  0.4500
15390SOL     OW58228   0.483   4.538   7.733 -0.1963  0.2445 -0.2254
15390SOL    HW158229   0.451   4.494   7.817 -1.7486  1.2324 -0.2641
15390SOL    HW258230   0.408   4.541   7.667  0.2428  1.7903 -0.6713
15391SOL     OW58231   4.484   3.477   9.899  0.2762 -0.5787 -0.7798
15391SOL    HW158232   4.405   3.434   9.942  0.7800 -0.5792  0.1695
15391SOL    HW258233   4.477   3.470   9.800  1.1350 -4.2606 -0.6445
15392SOL     OW58234   1.776   9.505   8.535 -0.1075 -0.4691 -0.8442
15392SOL    HW158235   1.759   9.414   8.496  2.2980 -0.8726 -0.9990
15392SOL    HW258236   1.851   9.499   8.602 -0.1342  1.3555 -0.6361
15393SOL     OW58237   3.204   8.895   8.270  0.8451  0.1534 -0.4550
15393SOL    HW158238   3.127   8.959   8.274  1.0092  0.2457  2.5656
15393SOL    HW258239   3.249   8.891   8.360  1.4972 -3.4127 -0.8484
15394SOL     OW58240   6.334   3.811   0.058 -0.1724  0.2919 -0.0176
15394SOL    HW158241   6.297   3.749   0.126 -0.9621 -0.9484 -1.5364
15394SOL    HW258242   6.263   3.876   0.030  0.1725  0.8495  0.3980
15395SOL     OW58243   7.160   7.888   7.860 -0.1082  0.2334 -0.2178
15395SOL    HW158244   7.210   7.850   7.782 -0.8769 -0.5722 -0.3350
15395SOL    HW258245   7.083   7.943   7.825  0.3478  0.9918 -0.0366
15396SOL     OW58246   2.382   2.970   2.770 -0.2676  0.0343  0.1579
15396SOL    HW158247   2.403   2.908   2.845  0.8069 -2.0236 -1.7647
15396SOL    HW258248   2.298   2.939   2.724  0.4068 -0.1603 -0.9651
15397SOL     OW58249   7.217   2.828   8.726 -0.2750 -0.3214  0.7611
15397SOL    HW158250   7.162   2.746   8.710 -0.1039 -0.4874  1.0343
15397SOL    HW258251   7.295   2.828   8.664 -0.6903  0.0138  0.2337
15398SOL     OW58252   9.736   3.383   3.679  0.1935  0.2809 -0.0025
15398SOL    HW158253   9.800   3.440   3.730 -0.1026  1.0990 -0.5382
15398SOL    HW258254   9.679   3.332   3.742 -1.1678  2.3971  0.5082
15399SOL     OW58255   3.909   1.906   9.058 -0.0489 -0.0575 -0.2415
15399SOL    HW158256   3.924   1.926   8.961 -0.1640  0.7994 -0.0921
15399SOL    HW258257   3.986   1.941   9.111 -1.0096  1.4791  0.1935
15400SOL     OW58258   6.026   3.317   9.538 -0.4258 -0.2621  0.0287
15400SOL    HW158259   5.938   3.308   9.490 -0.0803 -1.4238 -0.3957
15400SOL    HW258260   6.098   3.338   9.472  0.0291 -1.7320  0.0340
15401SOL     OW58261   2.967   1.065   0.684 -0.3233  0.1818  0.1029
15401SOL    HW158262   3.009   1.080   0.594  0.2885  1.7575  0.6413
15401SOL    HW258263   3.038   1.036   0.749 -1.1254 -3.0486 -0.4078
15402SOL     OW58264   1.195   9.639   2.244  0.8200  0.1820  0.2197
15402SOL    HW158265   1.215   9.618   2.340  0.4658 -2.0740 -0.1812
15402SOL    HW258266   1.233   9.729   2.221  0.3861  1.0123  2.6279
15403SOL     OW58267   2.133   3.187   6.734 -0.1858  0.2519  0.1390
15403SOL    HW158268   2.163   3.182   6.829 -2.2776 -1.5171  0.7697
15403SOL    HW258269   2.148   3.098   6.690  0.8160  1.0743 -1.2153
15404SOL     OW58270   5.962   9.123   2.394  0.2098 -0.3252 -0.3860
15404SOL    HW158271   6.006   9.039   2.427 -1.2484 -0.5537  1.0305
15404SOL    HW258272   5.905   9.102   2.315  1.3926 -0.3128 -1.2475
15405SOL     OW58273   1.082   4.234   7.601 -0.2452 -0.2449 -0.1377
15405SOL    HW158274   1.145   4.157   7.586  0.2628  0.3353 -1.0401
15405SOL    HW258275   1.011   4.207   7.667  0.4078 -1.2089  0.1837
15406SOL     OW58276   2.840   9.329   0.899  0.3591 -0.2934 -0.8728
15406SOL    HW158277   2.913   9.372   0.846  2.0209 -2.8559 -0.7428
15406SOL    HW258278   2.865   9.328   0.996  0.5118 -1.8419 -0.9201
15407SOL     OW58279   0.146   9.097   5.042  0.2080  0.3200  0.2072
15407SOL    HW158280   0.245   9.109   5.034  0.1599  1.0274  0.5670
15407SOL    HW258281   0.125   9.004   5.070  0.7331 -0.0714 -0.6995
15408SOL     OW58282   8.705   5.055   9.907  0.0514  0.1465  0.0991
15408SOL    HW158283   8.613   5.033   9.875 -0.2488  1.4252  0.0653
15408SOL    HW258284   8.766   5.065   9.828 -0.0599  0.5211  0.0588
15409SOL     OW58285   3.198   0.436   0.342 -0.4592 -0.0828 -0.5667
15409SOL    HW158286   3.291   0.401   0.339  0.1878  1.5641 -0.1335
15409SOL    HW258287   3.163   0.430   0.435 -0.3122  0.5061 -0.4730
15410SOL     OW58288   1.267   3.676   2.193 -0.5619  0.1763  0.1616
15410SOL    HW158289   1.315   3.588   2.193 -0.0996  0.4228 -0.7534
15410SOL    HW258290   1.210   3.683   2.111 -1.3140  0.3496  0.6927
15411SOL     OW58291   4.204   7.067   3.037  0.3989  0.0760  0.5616
15411SOL    HW158292   4.125   7.007   3.026  0.3829  0.3425 -0.8172
15411SOL    HW258293   4.247   7.083   2.948  0.1190  2.5054  0.8441
15412SOL     OW58294   5.031   4.925   2.617  0.0210 -0.0967 -0.0739
15412SOL    HW158295   4.961   4.856   2.599  2.7741 -2.5032 -1.7840
15412SOL    HW258296   5.093   4.893   2.688 -0.2515  1.8076  1.0742
15413SOL     OW58297   2.414   4.987   4.933  0.3322  0.2650 -0.0266
15413SOL    HW158298   2.459   5.077   4.928 -0.3940  0.5536 -1.4907
15413SOL    HW258299   2.481   4.916   4.913  0.8587  0.4806  0.9166
15414SOL     OW58300   9.992   5.858   7.464 -0.4704  0.0657 -0.5799
15414SOL    HW158301  10.009   5.811   7.551 -0.1598  0.5858 -0.3580
15414SOL    HW258302  10.069   5.842   7.402 -0.8106 -0.5215 -0.8577
15415SOL     OW58303   4.166   2.887   9.273 -0.6603 -0.1363 -0.2997
15415SOL    HW158304   4.080   2.934   9.297 -0.8676 -1.0102  0.7027
15415SOL    HW258305   4.212   2.857   9.357  0.5758  0.2309 -0.8448
15416SOL     OW58306   0.272   4.294   4.322 -0.1001 -0.3003  0.5440
15416SOL    HW158307   0.176   4.319   4.320  0.1288  0.5185 -0.3447
15416SOL    HW258308   0.293   4.232   4.247 -0.3107 -1.9200  1.7898
15417SOL     OW58309   3.983   3.365   8.514 -0.1841 -0.5397  0.4686
15417SOL    HW158310   3.972   3.305   8.592  0.7253 -0.1076  0.9412
15417SOL    HW258311   4.072   3.348   8.471 -0.2247 -0.0400  0.1790
15418SOL     OW58312   5.066   0.034   8.528  0.1860 -0.0776  0.2723
15418SOL    HW158313   4.986   0.008   8.475 -0.2345 -0.3210  1.0256
15418SOL    HW258314   5.054   0.127   8.562  0.6724  0.2613 -0.4611
15419SOL     OW58315   6.582   6.145   0.537 -0.3816  0.6549  0.4350
15419SOL    HW158316   6.620   6.052   0.542 -2.0422 -0.0485  0.5397
15419SOL    HW258317   6.584   6.177   0.443  1.2621  0.9865  0.5685
15420SOL     OW58318   3.549   7.571   7.824  0.6815  0.0495 -0.0430
15420SOL    HW158319   3.617   7.629   7.869 -0.9375  1.7813  0.2521
15420SOL    HW258320   3.548   7.591   7.726  1.0899 -0.4861 -0.1558
15421SOL     OW58321   7.901   7.904   1.401  0.0790  0.2084 -0.0539
15421SOL    HW158322   7.846   7.874   1.479  0.3008  2.8666  1.1781
15421SOL    HW258323   7.870   7.995   1.372  1.7450  0.3679 -1.3831
15422SOL     OW58324   3.722   3.158   5.567 -0.9883  0.1966  0.1002
15422SOL    HW158325   3.664   3.239   5.564 -0.5874  0.5770  2.0936
15422SOL    HW258326   3.814   3.182   5.534 -1.8533 -0.3715 -2.9076
15423SOL     OW58327   1.800   0.199   1.792  0.0078 -1.0033 -0.3694
15423SOL    HW158328   1.709   0.188   1.831 -0.1368  1.6044  0.1427
15423SOL    HW258329   1.793   0.203   1.692 -0.2877 -1.9818 -0.3931
15424SOL     OW58330   1.058   9.835   1.265 -0.1633 -0.0781  0.2449
15424SOL    HW158331   1.145   9.880   1.243 -1.1317  1.8313  0.1746
15424SOL    HW258332   1.039   9.846   1.363  0.4901 -1.9830  0.5965
15425SOL     OW58333   1.141   3.409   2.999 -0.0829  0.7590  0.0259
15425SOL    HW158334   1.117   3.440   2.907  1.0575 -0.6548 -0.7704
15425SOL    HW258335   1.061   3.416   3.059 -0.4961  2.8818 -0.7359
15426SOL     OW58336   8.004   1.507   3.931 -0.7730  0.1252 -0.0912
15426SOL    HW158337   7.942   1.526   3.855  0.5339  2.9836 -0.5340
15426SOL    HW258338   7.970   1.552   4.014  0.6275  1.6447 -0.3206
15427SOL     OW58339   1.984   4.821   5.040 -0.2643 -0.2202 -0.5173
15427SOL    HW158340   2.017   4.915   5.039 -0.3068 -0.2039 -0.2469
15427SOL    HW258341   2.043   4.765   5.097 -0.5346 -0.2522 -0.2685
15428SOL     OW58342   7.469   2.279   9.989  0.5945 -0.3978  0.6769
15428SOL    HW158343   7.497   2.361   9.940  1.0123 -0.0627  1.4756
15428SOL    HW258344   7.482   2.292  10.087 -0.4055 -0.9988  0.9042
15429SOL     OW58345   8.078   6.486   9.394  0.7482 -0.2432 -0.0642
15429SOL    HW158346   8.160   6.429   9.387 -0.6530 -2.2420 -0.4466
15429SOL    HW258347   8.010   6.441   9.452 -0.8384  0.4605 -1.3309
15430SOL     OW58348   9.123   9.908   4.455  0.1178  0.4895  0.1532
15430SOL    HW158349   9.131  10.003   4.486  1.9936  0.5538 -0.5233
15430SOL    HW258350   9.205   9.857   4.482 -1.2826 -1.1993  1.3554
15431SOL     OW58351   2.281   6.133   6.212 -0.2032  0.2736 -0.3346
15431SOL    HW158352   2.378   6.141   6.187 -0.0162 -0.6277  0.0820
15431SOL    HW258353   2.267   6.172   6.303 -0.3864  1.1427 -0.7329
15432SOL     OW58354   4.962   8.457   1.806 -0.1425 -0.1351  0.1444
15432SOL    HW158355   5.052   8.483   1.842 -0.1309 -0.0160  0.0312
15432SOL    HW258356   4.897   8.451   1.881  0.2449 -1.4433  0.3851
15433SOL     OW58357   0.682   9.401   4.921 -0.1547 -0.1070  0.0612
15433SOL    HW158358   0.690   9.495   4.888 -0.7350 -0.4510 -1.0871
15433SOL    HW258359   0.645   9.343   4.848  0.9006 -1.3709  0.5114
15434SOL     OW58360   7.931   2.811   0.045  0.8799  0.0766 -0.0538
15434SOL    HW158361   7.961   2.841   0.135  0.2253  0.0641  0.1760
15434SOL    HW258362   7.965   2.718   0.028 -0.4822 -0.6205  0.9367
15435SOL     OW58363   3.628   0.351   1.564  0.2299  0.1564  0.1741
15435SOL    HW158364   3.597   0.424   1.625 -1.6293  1.1285 -1.8486
15435SOL    HW258365   3.673   0.392   1.484  1.3265 -1.0214  0.1800
15436SOL     OW58366   4.534   3.960   9.066 -0.4405  0.5944  0.3388
15436SOL    HW158367   4.455   3.902   9.045  0.9750 -1.3229  0.1964
15436SOL    HW258368   4.531   3.986   9.163  0.0754 -1.5780  0.9659
15437SOL     OW58369   9.784   0.645   0.332 -0.4509 -0.1760  0.5299
15437SOL    HW158370   9.829   0.556   0.346  2.5302  1.1978  0.0760
15437SOL    HW258371   9.848   0.707   0.286 -3.3903  1.4070 -1.5392
15438SOL     OW58372   2.191   2.079   6.453 -0.4466 -0.3155  0.2993
15438SOL    HW158373   2.219   1.983   6.459 -1.3781 -0.5538  0.8730
15438SOL    HW258374   2.130   2.101   6.529 -1.1937  0.4153 -0.5022
15439SOL     OW58375   4.305   1.283   7.755  0.8246  0.2562 -0.5242
15439SOL    HW158376   4.394   1.313   7.721  1.0744 -0.0602 -0.1548
15439SOL    HW258377   4.302   1.183   7.755  0.9838  0.2500  0.7827
15440SOL     OW58378   5.590   8.377   6.913 -0.0241  0.3603 -0.3195
15440SOL    HW158379   5.603   8.375   7.012  2.1401 -0.7425 -0.5952
15440SOL    HW258380   5.648   8.307   6.870 -0.1907  1.4812 -2.4433
15441SOL     OW58381   0.150   6.258   0.308  0.7888 -0.1670  0.8140
15441SOL    HW158382   0.215   6.288   0.238  1.5433 -1.6511  0.8616
15441SOL    HW258383   0.145   6.327   0.381  1.7060  0.3210  0.4192
15442SOL     OW58384   5.778   3.096   8.966 -0.6385 -0.4434 -0.2983
15442SOL    HW158385   5.707   3.124   8.902 -0.2075 -0.0614 -0.6203
15442SOL    HW258386   5.800   2.999   8.952 -1.0984 -0.5626 -0.1912
15443SOL     OW58387   2.997   1.553   2.704 -0.5664  0.2620 -0.4068
15443SOL    HW158388   2.966   1.512   2.619  1.1299 -0.6141 -0.6293
15443SOL    HW258389   2.920   1.597   2.750 -1.7384 -0.2993 -1.7883
15444SOL     OW58390   0.007   1.640   4.157  0.4687  0.7162 -0.1625
15444SOL    HW158391   0.091   1.594   4.128 -1.0460 -1.5223 -1.1149
15444SOL    HW258392  -0.042   1.674   4.077 -1.0145 -0.6401  0.1591
15445SOL     OW58393   9.733   5.683   9.347 -0.4354 -0.3950 -0.0240
15445SOL    HW158394   9.645   5.662   9.391 -0.3537 -0.7923 -0.0496
15445SOL    HW258395   9.803   5.696   9.418 -0.3878 -0.6509 -0.0249
15446SOL     OW58396   0.192   5.294   7.538  0.2221  0.0315 -0.0102
15446SOL    HW158397   0.242   5.236   7.473  0.6497  0.3349  0.0417
15446SOL    HW258398   0.206   5.258   7.631 -0.9208 -0.7796 -0.1504
15447SOL     OW58399   9.890   8.393   6.398  0.0484  0.1352 -0.4469
15447SOL    HW158400   9.954   8.461   6.364 -0.0868  0.2710 -0.4303
15447SOL    HW258401   9.829   8.364   6.324  0.8624 -0.8367 -0.7545
15448SOL     OW58402   9.571   7.135   5.215  0.6089 -0.3767  0.7936
15448SOL    HW158403   9.522   7.062   5.167  1.2636  1.0778 -2.1972
15448SOL    HW258404   9.664   7.143   5.178  1.0463  0.9898  2.1286
15449SOL     OW58405   8.106   5.314   6.352 -0.0966 -0.8995  0.4197
15449SOL    HW158406   8.186   5.350   6.304 -0.9219  0.1893 -0.1682
15449SOL    HW258407   8.025   5.322   6.292 -1.1752  0.6009  2.0212
15450SOL     OW58408   4.156   3.968   7.688  0.7041  0.2638 -0.6317
15450SOL    HW158409   4.253   3.973   7.715  0.7716  0.5296 -0.9183
15450SOL    HW258410   4.100   4.013   7.757  0.5887 -1.6256  0.5349
15451SOL     OW58411   2.776   4.750   6.101 -0.6475 -0.0242 -0.0940
15451SOL    HW158412   2.769   4.849   6.091  0.0045  0.0686  0.3186
15451SOL    HW258413   2.739   4.705   6.020 -0.7039  0.5617 -0.3920
15452SOL     OW58414   1.196   7.957   3.555 -0.4580 -0.2262  0.3114
15452SOL    HW158415   1.262   8.010   3.609 -1.1115 -0.8237  1.7216
15452SOL    HW258416   1.245   7.885   3.505  0.2115  0.6277 -0.2804
15453SOL     OW58417   1.051   6.685   5.870 -0.2295 -0.6946 -1.0143
15453SOL    HW158418   0.995   6.607   5.842 -1.0359 -0.5562  0.1685
15453SOL    HW258419   1.131   6.692   5.811 -0.8449 -1.6180 -1.9657
15454SOL     OW58420   3.824   5.078   5.043  0.3091  0.2440  0.5124
15454SOL    HW158421   3.875   4.991   5.049 -1.2820 -0.8392 -1.2003
15454SOL    HW258422   3.889   5.154   5.037  1.7340 -0.9791  0.0183
15455SOL     OW58423   3.127   6.586   9.622  0.0862 -0.5676 -0.6255
15455SOL    HW158424   3.135   6.489   9.597 -0.3449 -0.7436 -0.0959
15455SOL    HW258425   3.155   6.598   9.718  0.7617 -0.0641 -0.8857
15456SOL     OW58426   1.766   0.687   0.805 -0.5616  0.0537 -0.5299
15456SOL    HW158427   1.780   0.766   0.866 -1.2827 -0.8213  0.7703
15456SOL    HW258428   1.838   0.687   0.735  2.5978 -1.0258  2.5518
15457SOL     OW58429   1.069   9.223   8.687 -0.3052  0.3592  0.1940
15457SOL    HW158430   1.166   9.201   8.680 -0.1861  1.7169 -2.9228
15457SOL    HW258431   1.058   9.322   8.689 -1.5695  0.2173  2.2722
15458SOL     OW58432   3.731   8.522   0.201 -0.2432  0.3781  0.1119
15458SOL    HW158433   3.639   8.560   0.211 -0.8111 -0.9208 -0.0959
15458SOL    HW258434   3.789   8.587   0.152 -1.3264  0.7770 -0.6531
15459SOL     OW58435   3.518   4.557   4.718 -0.5488  0.2290  0.0936
15459SOL    HW158436   3.544   4.464   4.692  0.7896 -0.0819  2.4708
15459SOL    HW258437   3.424   4.557   4.754 -0.3499 -0.2751  0.6047
15460SOL     OW58438   8.571   9.891   3.790  0.1150 -0.6467  0.0731
15460SOL    HW158439   8.648   9.955   3.788 -1.5365  1.5020  2.0888
15460SOL    HW258440   8.498   9.924   3.731 -0.7760 -0.6113  1.1762
15461SOL     OW58441   4.374   1.040   4.548 -0.8236  0.0323 -0.7845
15461SOL    HW158442   4.282   1.056   4.510 -1.3513 -0.2758  0.3494
15461SOL    HW258443   4.366   0.986   4.632  0.2405  1.9009  0.5207
15462SOL     OW58444   1.691   1.542   0.970  0.0592 -0.0148  0.6321
15462SOL    HW158445   1.726   1.633   0.952 -1.3239  0.2898 -0.6076
15462SOL    HW258446   1.627   1.546   1.047 -1.6973  0.4723 -0.8293
15463SOL     OW58447   2.809   0.022   9.284  0.1084 -0.3576  0.2446
15463SOL    HW158448   2.797   0.076   9.367  0.0534 -2.1908  1.4492
15463SOL    HW258449   2.726   0.029   9.228  1.2917  3.4126 -1.2284
15464SOL     OW58450   4.777   5.622   1.267  0.9502  0.3785  0.2405
15464SOL    HW158451   4.795   5.659   1.176  0.5126  2.4307  0.9534
15464SOL    HW258452   4.779   5.522   1.264 -1.7353  0.3503 -2.6013
15465SOL     OW58453   9.271   3.411   5.076  0.7949 -0.1023 -0.3995
15465SOL    HW158454   9.262   3.417   5.175  0.2100  0.3944 -0.4840
15465SOL    HW258455   9.265   3.502   5.035 -0.3054 -0.4345 -1.0019
15466SOL     OW58456   6.270   1.386   3.976 -0.2348 -0.0942  0.3674
15466SOL    HW158457   6.173   1.375   3.958 -0.5181  0.7912  1.3122
15466SOL    HW258458   6.323   1.329   3.913 -1.3135  0.5733 -1.1709
15467SOL     OW58459   6.208   1.586   9.445 -0.2341 -0.3791 -0.4361
15467SOL    HW158460   6.254   1.614   9.361  0.8505 -1.0127 -0.0599
15467SOL    HW258461   6.263   1.612   9.524  1.1973 -4.1108 -0.0754
15468SOL     OW58462   1.426   0.889   9.542  0.0063 -0.2059  0.4180
15468SOL    HW158463   1.385   0.859   9.628 -0.8341  0.3516  0.2140
15468SOL    HW258464   1.417   0.989   9.533  1.9362  0.0193  0.6553
15469SOL     OW58465   4.867   9.291   2.734  0.1568  0.6809 -0.1440
15469SOL    HW158466   4.809   9.369   2.758 -1.1658 -0.6318  0.9168
15469SOL    HW258467   4.826   9.240   2.659  0.4195  0.2960 -0.0296
15470SOL     OW58468   9.649   7.535   1.524 -0.1375 -0.3852  0.7704
15470SOL    HW158469   9.621   7.630   1.538 -0.1704 -0.3951  0.7686
15470SOL    HW258470   9.594   7.495   1.451 -0.8810 -0.7446  1.5310
15471SOL     OW58471   3.230   9.387   9.913  0.1681 -0.3304  0.2772
15471SOL    HW158472   3.311   9.333   9.936  1.7977  1.3145 -1.3339
15471SOL    HW258473   3.214   9.455   9.984  0.6518 -0.1861  0.2505
15472SOL     OW58474   9.998   2.666   6.222 -0.1168  0.1782  0.0895
15472SOL    HW158475   9.996   2.577   6.176 -0.5646  0.5796 -0.6620
15472SOL    HW258476   9.905   2.697   6.238  0.0370  0.3033  0.7752
15473SOL     OW58477   0.892   9.012   2.455  0.0376 -0.5260  0.4920
15473SOL    HW158478   0.906   8.918   2.424  0.4459 -0.2015 -0.3258
15473SOL    HW258479   0.977   9.064   2.440  0.4336 -0.5096  2.6772
15474SOL     OW58480   7.433   4.561   0.479  0.3346  0.5633 -0.4085
15474SOL    HW158481   7.407   4.577   0.574 -1.8640 -0.0838 -0.8761
15474SOL    HW258482   7.533   4.562   0.471  0.5182  1.3325  1.7690
15475SOL     OW58483   9.107   6.169   5.811 -0.4593 -0.1318 -0.3278
15475SOL    HW158484   9.184   6.113   5.842 -1.4727 -1.2937  0.1076
15475SOL    HW258485   9.036   6.110   5.773 -0.9077  0.9773 -1.2564
15476SOL     OW58486   0.373   0.785   6.966  0.6540 -0.4574 -0.6924
15476SOL    HW158487   0.308   0.758   6.895 -0.0714 -1.2001  0.2349
15476SOL    HW258488   0.455   0.729   6.960  0.4249 -0.7949 -0.6964
15477SOL     OW58489   4.290   0.958   5.237  0.1957 -0.4496 -0.3182
15477SOL    HW158490   4.207   0.907   5.210 -0.0598  0.5331 -1.4624
15477SOL    HW258491   4.371   0.904   5.213 -0.0966 -0.8610 -0.3902
15478SOL     OW58492   7.154   1.509   4.259 -0.0586  0.4421  0.2643
15478SOL    HW158493   7.141   1.608   4.258  2.4208  0.7945  0.6102
15478SOL    HW258494   7.067   1.464   4.240 -1.4404  2.6604  1.1611
15479SOL     OW58495   5.482   2.935   4.880  0.4843 -0.2432  0.6506
15479SOL    HW158496   5.555   2.913   4.945  0.8465 -1.9128 -0.2714
15479SOL    HW258497   5.425   2.854   4.867  0.3877  0.0818 -1.0588
15480SOL     OW58498   9.697   2.695   6.251 -0.1600  0.2912  0.0984
15480SOL    HW158499   9.686   2.596   6.259 -2.1988  0.4281 -0.6311
15480SOL    HW258500   9.700   2.736   6.342 -2.4449 -0.1587  0.4170
15481SOL     OW58501   3.417   7.535   2.879  0.0350 -0.4925  0.0535
15481SOL    HW158502   3.502   7.500   2.839 -0.8455 -2.7369  0.0567
15481SOL    HW258503   3.342   7.523   2.814 -0.5269  0.2211  0.5658
15482SOL     OW58504   8.880   1.432   2.014 -0.0845 -0.4418 -0.3127
15482SOL    HW158505   8.906   1.338   1.990 -0.4673 -0.2834 -1.3705
15482SOL    HW258506   8.831   1.431   2.101 -0.3804 -1.2724 -0.4761
15483SOL     OW58507   4.847   1.731   0.469  0.1231 -0.3725  0.1199
15483SOL    HW158508   4.928   1.771   0.512  0.8860 -1.3868 -0.3438
15483SOL    HW258509   4.862   1.726   0.370 -0.8963  0.3059 -0.0800
15484SOL     OW58510   4.837   9.080   5.213 -0.3748 -0.0290  0.4588
15484SOL    HW158511   4.832   9.037   5.303 -0.2154  0.4909  0.7188
15484SOL    HW258512   4.798   9.019   5.145 -0.1098 -0.5991  0.8189
15485SOL     OW58513   7.880   4.337   4.290  0.0817 -0.7692 -0.4735
15485SOL    HW158514   7.903   4.433   4.277 -0.0686 -0.6159  0.3951
15485SOL    HW258515   7.787   4.320   4.256 -0.4784 -0.2714  0.7824
15486SOL     OW58516   3.276   7.962   1.065  0.8459  0.4220 -0.1283
15486SOL    HW158517   3.185   7.948   1.104  0.2918 -0.8430 -1.8460
15486SOL    HW258518   3.345   7.928   1.129  0.1274  1.0631  1.0267
15487SOL     OW58519   2.294   2.540   7.135  0.1519  0.2537 -0.0982
15487SOL    HW158520   2.201   2.542   7.101  0.7484 -0.0848 -1.7625
15487SOL    HW258521   2.305   2.610   7.206 -1.1469  0.8116 -0.4438
15488SOL     OW58522   3.673   6.954   8.177  0.2245 -0.2735  0.0654
15488SOL    HW158523   3.683   6.892   8.256 -1.4856 -0.3143  0.2684
15488SOL    HW258524   3.742   6.931   8.109  0.8987 -1.0987  0.9985
15489SOL     OW58525   4.714   5.078   2.167 -0.4586 -0.7791 -0.4065
15489SOL    HW158526   4.686   5.070   2.262 -2.4887  2.1553 -0.6967
15489SOL    HW258527   4.672   5.004   2.114 -1.1350 -1.0968  0.5630
15490SOL     OW58528   8.177   0.056   3.103  0.3670  0.3682  0.4628
15490SOL    HW158529   8.098   0.052   3.041  2.0569  0.5269 -1.7874
15490SOL    HW258530   8.185   0.149   3.140  1.1748  1.1872 -1.6565
15491SOL     OW58531   3.214   0.947   8.127 -0.0508  0.1352 -0.4302
15491SOL    HW158532   3.197   0.951   8.225 -0.0889 -1.7931 -0.3457
15491SOL    HW258533   3.298   0.896   8.110  1.4305  2.7265 -1.2830
15492SOL     OW58534   2.992   7.152   5.529  0.1971 -0.7624 -0.1942
15492SOL    HW158535   2.976   7.193   5.439 -0.9967  1.0284  0.7939
15492SOL    HW258536   3.081   7.108   5.530  0.7133  0.1720 -1.9122
15493SOL     OW58537   7.943   4.368   2.507 -0.0815  0.5914 -0.7246
15493SOL    HW158538   7.864   4.313   2.535  0.9129 -0.3148  0.3136
15493SOL    HW258539   8.011   4.309   2.464  0.9942  0.9907  0.4038
15494SOL     OW58540   4.677   2.864   0.039  0.4429 -0.2146 -0.1329
15494SOL    HW158541   4.603   2.802   0.068 -0.0030  0.0786 -0.6482
15494SOL    HW258542   4.728   2.821  -0.036 -0.8129  0.6793 -1.5279
15495SOL     OW58543   9.724   5.735   7.653  0.3718 -0.2727 -0.2437
15495SOL    HW158544   9.788   5.809   7.669 -0.2441  0.0632  0.7667
15495SOL    HW258545   9.774   5.651   7.634  1.0642  0.5883 -2.3161
15496SOL     OW58546   7.530   8.061   8.686 -0.5685  0.0111  0.1421
15496SOL    HW158547   7.470   8.070   8.765 -0.1491 -0.4174  0.5170
15496SOL    HW258548   7.508   7.976   8.637  0.0440 -0.3859  0.5511
15497SOL     OW58549   4.792   7.218   0.526 -0.7840 -0.6814 -0.0734
15497SOL    HW158550   4.792   7.213   0.626 -0.4771  1.6914  0.0570
15497SOL    HW258551   4.731   7.147   0.490 -1.4487 -1.1068  1.8101
15498SOL     OW58552   0.222   4.362   4.874  0.9782  0.1960  0.1499
15498SOL    HW158553   0.197   4.447   4.828  2.4911  1.0071  0.7650
15498SOL    HW258554   0.252   4.382   4.968 -3.3176 -1.5596  2.0531
15499SOL     OW58555   4.859   8.677   3.668 -0.0240  0.4170  0.2415
15499SOL    HW158556   4.863   8.767   3.712  0.4746  1.4023 -1.7609
15499SOL    HW258557   4.949   8.634   3.671  0.3383  1.0501 -0.8965
15500SOL     OW58558   1.048   5.432   5.484  0.1020 -0.1986  0.0566
15500SOL    HW158559   0.986   5.509   5.466  0.6163  0.2674  0.2682
15500SOL    HW258560   1.104   5.414   5.403  0.1339 -0.2096  0.0809
15501SOL     OW58561   1.173   4.674   4.003 -0.2413  0.1677 -0.1341
15501SOL    HW158562   1.211   4.766   4.018  1.7121 -0.7525  0.7214
15501SOL    HW258563   1.096   4.659   4.065 -0.2482  1.0386  0.0711
15502SOL     OW58564   4.959   0.649   5.075 -0.3902 -0.3475 -0.1655
15502SOL    HW158565   5.045   0.612   5.039 -0.3491 -1.0707  0.6478
15502SOL    HW258566   4.927   0.723   5.017  0.0435 -1.0265 -1.2761
15503SOL     OW58567   0.535   8.508   3.094  0.6251  0.4452 -0.6571
15503SOL    HW158568   0.455   8.461   3.131 -0.2188  1.7186 -0.8292
15503SOL    HW258569   0.507   8.596   3.056  2.1341  0.9709 -0.5798
15504SOL     OW58570   6.898   0.925   4.933  0.1789 -0.4258  0.5778
15504SOL    HW158571   6.909   0.875   5.019 -1.4634 -2.1626 -0.2047
15504SOL    HW258572   6.843   0.871   4.870  0.6839  1.1990 -1.2822
15505SOL     OW58573   9.079   7.951   2.199 -0.5206 -0.5833  0.0928
15505SOL    HW158574   9.101   7.854   2.210 -0.7933 -0.5431  0.9981
15505SOL    HW258575   9.162   8.001   2.173 -0.2009 -0.9214  0.4631
15506SOL     OW58576   6.366   1.775   3.014  0.0288 -0.4463  0.0999
15506SOL    HW158577   6.372   1.759   3.112 -0.8193  0.9530  0.3824
15506SOL    HW258578   6.454   1.753   2.972  0.8088  0.2241  1.3585
15507SOL     OW58579   6.538   9.080   2.830  0.3009  0.4194 -0.6154
15507SOL    HW158580   6.545   9.094   2.928  0.9181  0.4866 -0.6729
15507SOL    HW258581   6.567   9.163   2.781 -0.2581  0.4828 -0.8499
15508SOL     OW58582   0.048   7.999   1.676  0.7913 -0.1000 -0.0457
15508SOL    HW158583   0.103   8.057   1.616 -0.0356  0.9320  0.1901
15508SOL    HW258584   0.053   7.905   1.644  2.7197 -0.0397 -0.0242
15509SOL     OW58585   1.399   9.686   6.108  0.6507 -0.1440  0.5990
15509SOL    HW158586   1.384   9.695   6.207 -2.8877 -0.3071  0.1553
15509SOL    HW258587   1.367   9.596   6.078 -1.1831  1.0523 -1.1293
15510SOL     OW58588   0.444   8.167   0.007 -0.3608  0.0314 -0.3587
15510SOL    HW158589   0.362   8.221   0.029 -0.3682 -0.1790  0.1525
15510SOL    HW258590   0.433   8.074   0.043  0.0918 -0.0059 -0.3123
15511SOL     OW58591   7.333   0.843   0.536 -0.3210 -0.2890  0.9285
15511SOL    HW158592   7.402   0.843   0.609 -0.7717 -0.0762  1.3607
15511SOL    HW258593   7.248   0.883   0.571 -0.9463 -1.3822  0.6648
15512SOL     OW58594   2.251   8.636   8.080  0.7961 -0.4804  0.1461
15512SOL    HW158595   2.337   8.660   8.124  0.4875  0.2505  0.3608
15512SOL    HW258596   2.198   8.719   8.063  1.7995 -0.5315 -3.5148
15513SOL     OW58597   2.510   4.937   4.318 -0.3126  0.4335 -0.1043
15513SOL    HW158598   2.486   4.861   4.257 -2.0948 -0.1924  1.3640
15513SOL    HW258599   2.500   5.023   4.269  0.9617 -0.2011 -1.5390
15514SOL     OW58600   6.537   9.979   7.123 -0.1836 -0.9365 -0.0480
15514SOL    HW158601   6.482  10.017   7.198 -0.6710  0.4064 -1.0680
15514SOL    HW258602   6.545   9.880   7.135 -0.4624 -0.7754  1.6397
15515SOL     OW58603   1.968   9.491   4.057  0.0158  0.1245  0.1418
15515SOL    HW158604   1.932   9.450   4.142 -2.0485 -0.2025 -0.8680
15515SOL    HW258605   2.030   9.426   4.013  0.4977 -0.0038  0.9826
15516SOL     OW58606   3.974   1.283   8.463 -0.0100  0.2232  0.3048
15516SOL    HW158607   4.018   1.282   8.553 -0.9167 -0.5537  0.7489
15516SOL    HW258608   4.043   1.266   8.392  0.7051  0.8162  0.8454
15517SOL     OW58609   1.596   7.080   8.114 -0.1345  0.1274 -0.0831
15517SOL    HW158610   1.528   7.044   8.178 -0.3668  3.5385  1.6888
15517SOL    HW258611   1.552   7.144   8.051  1.2529  1.6978  0.5161
15518SOL     OW58612   2.620   0.900   0.538 -0.2386 -0.1301 -0.1724
15518SOL    HW158613   2.695   0.894   0.473  1.1489  0.9181  1.2991
15518SOL    HW258614   2.576   0.990   0.530 -1.8922 -1.0255 -1.5872
15519SOL     OW58615   1.803   2.401   8.879  0.2400 -0.2168 -0.5929
15519SOL    HW158616   1.750   2.318   8.897  0.9846 -0.7193 -0.7329
15519SOL    HW258617   1.741   2.480   8.880 -0.2422 -0.6024  0.9628
15520SOL     OW58618   1.835   2.968   3.722 -0.3474 -0.2891 -0.4537
15520SOL    HW158619   1.779   3.046   3.695 -0.4394  0.6445  2.3485
15520SOL    HW258620   1.920   3.001   3.763 -0.4132 -1.6535  0.7966
15521SOL     OW58621   1.645   1.074   0.601 -0.5004  0.2656 -0.4950
15521SOL    HW158622   1.622   1.026   0.516 -0.1727 -0.0234 -0.4210
15521SOL    HW258623   1.739   1.055   0.625 -0.3996  0.8616 -0.4037
15522SOL     OW58624   9.955   6.842   2.543  0.0256  0.3042 -0.2873
15522SOL    HW158625  10.024   6.813   2.609 -1.1554 -0.8217  0.4501
15522SOL    HW258626   9.985   6.817   2.450  0.8124  0.2550 -0.0270
15523SOL     OW58627   7.940   5.375   6.084  0.3076  0.0611 -0.1203
15523SOL    HW158628   7.947   5.434   6.003  0.2362 -1.9595 -1.6463
15523SOL    HW258629   8.002   5.298   6.074  0.4222 -0.1287  1.8673
15524SOL     OW58630   1.669   4.443   3.625  0.1572  0.0834  0.4751
15524SOL    HW158631   1.752   4.485   3.587  0.5395  0.0624  1.2679
15524SOL    HW258632   1.676   4.441   3.725 -1.3941  1.3011  0.6173
15525SOL     OW58633   8.365   3.872   5.664  0.0032 -0.0943  0.3879
15525SOL    HW158634   8.321   3.953   5.703 -0.6960  0.1023 -0.8070
15525SOL    HW258635   8.355   3.795   5.727 -1.0515  0.2419  0.6374
15526SOL     OW58636   7.799   9.639   5.981  0.1963 -0.1234  0.6502
15526SOL    HW158637   7.721   9.578   5.967  0.2072 -0.4658  2.0791
15526SOL    HW258638   7.855   9.640   5.898 -1.3490  0.1635 -0.3989
15527SOL     OW58639   5.210   2.850   2.195  0.3594 -0.2222 -1.0422
15527SOL    HW158640   5.282   2.904   2.238  0.5542  0.9811 -2.8682
15527SOL    HW258641   5.121   2.882   2.226  0.5157  0.2524 -1.0849
15528SOL     OW58642   8.513   3.834   8.579 -0.3040  0.1769 -0.2094
15528SOL    HW158643   8.492   3.928   8.550  0.5250  0.2267 -0.6846
15528SOL    HW258644   8.486   3.770   8.507 -1.6472 -0.0266  0.4710
15529SOL     OW58645   1.741   3.666  10.035 -0.4210  0.3285 -0.3870
15529SOL    HW158646   1.757   3.755  10.078 -0.6326  0.0386  0.3026
15529SOL    HW258647   1.829   3.624  10.013 -0.2004 -0.8282  2.4964
15530SOL     OW58648   3.014   5.791   7.832  0.0608 -0.7899  0.2967
15530SOL    HW158649   3.050   5.881   7.808  1.8815 -1.6997 -0.5065
15530SOL    HW258650   2.926   5.802   7.878 -0.7749  1.2738 -1.7020
15531SOL     OW58651   1.261   1.340   1.106  0.4747  0.4424  0.3628
15531SOL    HW158652   1.262   1.413   1.038  0.9926  1.6433  1.6441
15531SOL    HW258653   1.263   1.380   1.198 -0.4409 -1.1505  1.0914
15532SOL     OW58654   4.104   4.948   5.052 -0.2377 -0.4181 -0.0570
15532SOL    HW158655   4.125   5.045   5.040  0.9737 -0.4649  1.4959
15532SOL    HW258656   4.116   4.923   5.149  1.1055 -2.4911 -0.7310
15533SOL     OW58657   9.955   9.415   0.820  0.3472  0.0811  0.2984
15533SOL    HW158658   9.992   9.487   0.761 -1.3011 -0.1417 -1.0650
15533SOL    HW258659   9.856   9.427   0.829  0.4381 -0.4740  2.2388
15534SOL     OW58660   0.625   8.910   8.053 -0.1522 -0.1186  0.0762
15534SOL    HW158661   0.570   8.940   8.131 -0.2335 -1.1714  0.4357
15534SOL    HW258662   0.627   8.810   8.050  1.1666 -0.0911 -0.3428
15535SOL     OW58663   5.148   9.305   7.586  0.4829 -0.4814 -0.6876
15535SOL    HW158664   5.056   9.303   7.625  0.9951 -1.5327  0.5259
15535SOL    HW258665   5.144   9.334   7.491 -1.3079 -2.3544 -1.2157
15536SOL     OW58666   9.257   5.111   7.392 -0.7732  0.1119  1.0188
15536SOL    HW158667   9.159   5.090   7.387 -0.7493  0.1299  0.3817
15536SOL    HW258668   9.302   5.079   7.308 -0.4466  1.2231  0.7642
15537SOL     OW58669   0.575   8.522   9.992 -0.2923  0.4198  0.1206
15537SOL    HW158670   0.499   8.527  10.057 -0.2161 -0.4558  0.2794
15537SOL    HW258671   0.644   8.458  10.027 -0.2918 -0.1220 -0.8668
15538SOL     OW58672   3.171   1.219   5.375 -0.4195  0.2029  0.1640
15538SOL    HW158673   3.182   1.318   5.363  0.2867  0.2776  1.3223
15538SOL    HW258674   3.260   1.175   5.363 -0.6648 -0.2485  0.0253
15539SOL     OW58675   1.667   0.361   7.837  0.4478  0.2536 -0.1831
15539SOL    HW158676   1.681   0.266   7.809  1.1753  0.1928  0.3675
15539SOL    HW258677   1.589   0.399   7.788 -0.9517 -1.1732  0.9188
15540SOL     OW58678   8.236   8.277   5.710  0.1279 -0.2056 -0.2932
15540SOL    HW158679   8.149   8.323   5.729  0.5803 -0.7786  3.5296
15540SOL    HW258680   8.309   8.345   5.702  0.0775  0.0397  1.1470
15541SOL     OW58681   3.427   4.280   3.958 -0.0059  0.0298  0.2672
15541SOL    HW158682   3.460   4.308   3.868 -0.4563  0.6499  0.2933
15541SOL    HW258683   3.381   4.191   3.950  1.5791 -0.8012  0.2174
15542SOL     OW58684   9.859   0.575   8.583 -0.2395 -0.1582 -0.0010
15542SOL    HW158685   9.948   0.576   8.629  0.2743 -0.6612 -0.9645
15542SOL    HW258686   9.800   0.645   8.622  0.8592  0.7220  0.1032
15543SOL     OW58687   7.483   3.681   8.136 -0.1269 -0.1239  0.5694
15543SOL    HW158688   7.417   3.753   8.155  1.6411  2.5376 -2.8329
15543SOL    HW258689   7.571   3.704   8.177 -0.3759 -1.9963  2.2252
15544SOL     OW58690   3.851   0.793   4.326  0.3080  0.1354 -0.1288
15544SOL    HW158691   3.854   0.720   4.395  0.1827 -0.1481 -0.4202
15544SOL    HW258692   3.761   0.837   4.329  0.5692  0.6308  0.4091
15545SOL     OW58693   9.099   5.163   2.645 -0.0474 -0.0180 -0.4550
15545SOL    HW158694   9.184   5.111   2.650 -0.3235 -0.4603 -0.3691
15545SOL    HW258695   9.021   5.102   2.659 -0.3298  0.6034  0.7496
15546SOL     OW58696   5.469   5.783   8.460 -0.1758  0.2948 -0.2877
15546SOL    HW158697   5.470   5.715   8.535 -1.7428  0.0224 -0.4801
15546SOL    HW258698   5.476   5.735   8.373  0.9892  0.5664 -0.3497
15547SOL     OW58699   2.452   1.797   6.393 -0.3980 -0.0618  0.2113
15547SOL    HW158700   2.379   1.795   6.461  0.0660  0.7715  0.7445
15547SOL    HW258701   2.481   1.704   6.372 -0.3972 -0.3102  1.3180
15548SOL     OW58702   0.452   0.324   4.524 -0.1659  0.6594  0.3472
15548SOL    HW158703   0.356   0.319   4.552  0.0956  1.8023  1.5068
15548SOL    HW258704   0.468   0.409   4.473  0.2341  0.4915  0.1900
15549SOL     OW58705   7.018   3.587   1.336 -0.6140 -0.2086 -0.2107
15549SOL    HW158706   7.083   3.595   1.260  0.0942  4.3354  0.7619
15549SOL    HW258707   7.069   3.569   1.420 -0.6402  2.1705  0.3522
15550SOL     OW58708   3.050   5.727   9.125 -0.7022 -0.2259 -0.1673
15550SOL    HW158709   3.007   5.817   9.130 -1.5562 -0.6572  0.6437
15550SOL    HW258710   3.050   5.686   9.217 -1.8366 -1.7255 -0.8046
15551SOL     OW58711   8.062   4.770   2.066 -0.1836  0.2720  0.1357
15551SOL    HW158712   7.983   4.709   2.060 -0.0428  0.0867  0.1653
15551SOL    HW258713   8.042   4.855   2.018  0.3877 -0.6185 -1.7203
15552SOL     OW58714   9.010   4.567   0.887 -0.0899 -0.2312 -0.3450
15552SOL    HW158715   9.094   4.513   0.891 -0.5133 -0.9919 -1.4074
15552SOL    HW258716   9.025   4.648   0.830 -0.1477 -0.5077 -0.7561
15553SOL     OW58717   3.831   1.709   0.613  0.0630 -0.2003  0.4157
15553SOL    HW158718   3.767   1.702   0.536  1.9000  0.7533 -1.2324
15553SOL    HW258719   3.840   1.805   0.640  1.5379 -0.2073 -0.0182
15554SOL     OW58720   9.104   6.493   6.170  1.0079  0.1888  0.1727
15554SOL    HW158721   9.096   6.586   6.206  1.4878  0.4773 -0.4574
15554SOL    HW258722   9.141   6.433   6.241  2.0268  0.7692  0.1297
15555SOL     OW58723   3.012   6.652   6.297  0.5672  0.0403 -0.3549
15555SOL    HW158724   3.033   6.713   6.374  0.5686 -0.2526 -0.1245
15555SOL    HW258725   3.088   6.588   6.285  0.1962 -0.4511 -0.0769
15556SOL     OW58726   3.986   9.027   2.373 -0.3931 -0.0283  0.3809
15556SOL    HW158727   3.897   9.032   2.329 -1.6103  0.8747  2.8274
15556SOL    HW258728   3.982   9.074   2.461  1.9999 -1.5349  1.3559
15557SOL     OW58729   3.764   3.395   2.303 -0.3222 -0.0931  0.4481
15557SOL    HW158730   3.822   3.384   2.222 -0.1165  0.6122  0.4974
15557SOL    HW258731   3.754   3.493   2.323 -2.9544 -0.0914 -0.6095
15558SOL     OW58732   1.944   8.119   4.396  0.2972 -0.2547 -0.5624
15558SOL    HW158733   1.906   8.209   4.374 -1.8956 -0.9865  0.0972
15558SOL    HW258734   2.037   8.112   4.360 -0.1216  1.6509 -2.0887
15559SOL     OW58735   8.196   3.844   8.209 -0.3876 -0.0983 -0.0122
15559SOL    HW158736   8.229   3.938   8.217 -0.9017  0.1627 -0.8827
15559SOL    HW258737   8.145   3.833   8.124 -0.9768 -0.9771  0.4388
15560SOL     OW58738   9.908   3.927   6.341  0.4264  0.6722  0.3864
15560SOL    HW158739   9.962   3.878   6.273 -1.7271 -0.5905 -0.4892
15560SOL    HW258740   9.922   4.025   6.331 -0.9336  0.6025 -2.8843
15561SOL     OW58741   4.898   3.946   1.976 -0.5729 -0.2140 -0.0076
15561SOL    HW158742   4.922   4.042   1.963  1.7685 -0.9027 -0.9344
15561SOL    HW258743   4.804   3.931   1.944 -1.1179  1.8372  0.5561
15562SOL     OW58744   6.958   4.477   3.372  0.3688  0.3466  0.5388
15562SOL    HW158745   6.928   4.536   3.297  1.2814 -0.4715 -0.4831
15562SOL    HW258746   6.992   4.391   3.335  0.4521 -0.2298  1.9275
15563SOL     OW58747   7.455   5.314   7.964 -0.8903  0.1517  0.1775
15563SOL    HW158748   7.453   5.307   7.865 -2.5705  1.2913  0.1037
15563SOL    HW258749   7.544   5.347   7.994 -0.4970  0.1613 -0.9841
15564SOL     OW58750   1.580   4.642   6.854  0.0619  0.1811 -0.5564
15564SOL    HW158751   1.619   4.592   6.777  0.4696  1.0176 -0.8961
15564SOL    HW258752   1.517   4.583   6.904  0.1357 -0.4992 -1.2703
15565SOL     OW58753   3.266   4.682   2.534 -0.5093 -0.1685  0.0120
15565SOL    HW158754   3.211   4.598   2.536  0.8363 -1.1778 -2.5945
15565SOL    HW258755   3.323   4.686   2.615 -0.0637 -2.1661 -0.1721
15566SOL     OW58756   6.958   0.826   0.989 -0.5733 -0.0568  0.4062
15566SOL    HW158757   6.917   0.765   0.921 -0.8527  0.9694 -0.3518
15566SOL    HW258758   7.058   0.823   0.981 -0.6421  1.7176 -1.5394
15567SOL     OW58759   4.953   4.262   1.236 -0.3372  0.2130  0.2327
15567SOL    HW158760   4.881   4.311   1.285  0.6215  3.1376 -1.1806
15567SOL    HW258761   5.019   4.328   1.200  1.5266 -2.2253 -0.9202
15568SOL     OW58762   9.040   0.591   7.497 -0.1267 -0.0078  0.1404
15568SOL    HW158763   9.050   0.666   7.432 -1.6113  0.7489  0.7814
15568SOL    HW258764   8.987   0.517   7.456  0.5687 -0.3341 -0.1750
15569SOL     OW58765   9.038   9.562   4.368 -0.0462  0.4907  0.0354
15569SOL    HW158766   8.951   9.575   4.415 -0.5459 -0.6480 -0.5565
15569SOL    HW258767   9.110   9.542   4.434  0.2380  3.5714  0.7492
15570SOL     OW58768   3.919   0.001   3.071 -0.2184 -0.5086  0.1499
15570SOL    HW158769   3.977   0.074   3.034 -1.3007  1.3035  1.8939
15570SOL    HW258770   3.974  -0.056   3.133  0.0139  0.4520  0.8473
15571SOL     OW58771   2.919   6.836   4.500  0.0855  0.1498  0.2431
15571SOL    HW158772   2.984   6.760   4.505 -0.7247 -0.5505  0.3690
15571SOL    HW258773   2.960   6.912   4.451  0.9413 -0.3430  0.1830
15572SOL     OW58774   1.171   1.113   6.188 -0.3769  0.9208 -0.0980
15572SOL    HW158775   1.099   1.046   6.172 -0.1564  0.7230 -0.2745
15572SOL    HW258776   1.155   1.160   6.275 -0.1371  0.1234  0.3841
15573SOL     OW58777   5.188   7.820   1.878 -0.2093  0.2364 -0.0737
15573SOL    HW158778   5.225   7.741   1.829 -0.2183  1.4099 -1.9896
15573SOL    HW258779   5.257   7.855   1.942  0.7574  0.3373 -1.1639
15574SOL     OW58780   1.729   5.270   4.258  0.2634 -0.0787 -0.1743
15574SOL    HW158781   1.799   5.249   4.190  0.7035  0.0686  0.2216
15574SOL    HW258782   1.760   5.348   4.313 -0.8760  0.9233 -0.9534
15575SOL     OW58783   4.060   9.230   3.802 -0.4622  0.8527 -0.3702
15575SOL    HW158784   3.963   9.216   3.782  0.1034 -1.6824 -1.4879
15575SOL    HW258785   4.082   9.189   3.890 -0.3078  1.1334 -0.2755
15576SOL     OW58786   0.979   5.815   4.439 -0.0817  0.0810 -0.2580
15576SOL    HW158787   1.046   5.863   4.495  0.3840 -2.5650  1.5286
15576SOL    HW258788   0.890   5.816   4.485 -0.3363  0.1252 -0.7396
15577SOL     OW58789   6.311   3.561   8.631 -0.5347  0.3187  0.6168
15577SOL    HW158790   6.371   3.494   8.586 -0.9302 -0.3948  1.1474
15577SOL    HW258791   6.323   3.650   8.588  1.7139  0.4343  1.4465
15578SOL     OW58792   2.055   4.997   8.389 -0.0392  0.7332 -0.5911
15578SOL    HW158793   2.064   4.983   8.291 -0.3915  0.4917 -0.5895
15578SOL    HW258794   2.033   5.093   8.407  1.0783  1.0132 -0.6808
15579SOL     OW58795   9.581   3.189   5.082  0.0837 -0.3820 -0.0458
15579SOL    HW158796   9.529   3.127   5.140  0.9691 -0.2706  0.8888
15579SOL    HW258797   9.530   3.207   4.997 -0.5914 -1.6348  0.0850
15580SOL     OW58798   4.899   0.650   6.984 -0.1978 -0.2070 -0.9790
15580SOL    HW158799   4.927   0.599   6.902 -1.3565 -0.7095 -1.0784
15580SOL    HW258800   4.877   0.744   6.958 -4.1845 -1.3253 -1.9652
15581SOL     OW58801   7.961   8.733   4.940 -0.3668  0.0789  0.2117
15581SOL    HW158802   7.922   8.825   4.937 -1.4486 -0.3960 -0.6005
15581SOL    HW258803   8.011   8.720   5.026  0.3392  1.6341  0.0493
15582SOL     OW58804   7.276   4.570   9.484  0.2677  0.3238  0.0348
15582SOL    HW158805   7.375   4.580   9.477  0.3672 -0.8048 -0.2110
15582SOL    HW258806   7.232   4.653   9.449  1.0865  0.0191 -1.8037
15583SOL     OW58807   9.110   8.440   3.727 -0.1238 -0.4432 -0.1892
15583SOL    HW158808   9.031   8.382   3.747 -1.4759  1.1705 -0.7965
15583SOL    HW258809   9.164   8.397   3.654 -1.1884 -0.8750 -0.7385
15584SOL     OW58810   5.261   3.723   8.062 -0.5781 -0.1777  0.2115
15584SOL    HW158811   5.270   3.663   7.983  3.1116  0.3641  0.1541
15584SOL    HW258812   5.273   3.669   8.146  1.6702  0.2149  0.1844
15585SOL     OW58813   1.282   1.626   4.805 -0.1132  0.0849  0.0018
15585SOL    HW158814   1.360   1.624   4.868 -0.5755  0.2135  0.5845
15585SOL    HW258815   1.279   1.541   4.753 -0.0531 -0.2524  0.5508
15586SOL     OW58816   8.935   2.913   3.221 -0.3259  0.0597  0.3520
15586SOL    HW158817   8.998   2.879   3.152 -0.6200  0.7640 -0.2647
15586SOL    HW258818   8.848   2.864   3.213  0.0382 -0.7129  1.0201
15587SOL     OW58819   4.027   2.471   4.088  0.5529  0.0237 -0.3500
15587SOL    HW158820   4.077   2.433   4.010 -0.0034  0.3111 -0.8478
15587SOL    HW258821   3.960   2.537   4.055  1.9557  1.9336  0.5587
15588SOL     OW58822   1.895   8.862   5.040 -0.6069  0.4952 -0.0334
15588SOL    HW158823   1.881   8.821   4.950 -2.4227  2.1919 -0.5751
15588SOL    HW258824   1.814   8.915   5.065  0.5126  1.3551  1.9000
15589SOL     OW58825   7.932   2.142   9.643  0.2631  0.0760  1.3295
15589SOL    HW158826   7.905   2.236   9.622  0.4093 -0.3088 -0.6695
15589SOL    HW258827   7.870   2.104   9.713  0.4858  1.7865  2.4874
15590SOL     OW58828   0.323   5.329   1.972  0.3176 -0.1642  0.2800
15590SOL    HW158829   0.316   5.233   1.947 -1.5162 -0.2849  1.2089
15590SOL    HW258830   0.283   5.385   1.899  0.2436 -0.1805  0.3080
15591SOL     OW58831   5.710   5.526   1.701  0.3148 -0.6910 -0.2282
15591SOL    HW158832   5.692   5.574   1.616  1.5374  0.8203  0.3569
15591SOL    HW258833   5.798   5.478   1.696 -0.1408 -1.5461 -0.2207
15592SOL     OW58834   3.403   3.120   4.000  0.7635  0.1125 -0.5868
15592SOL    HW158835   3.437   3.029   3.975  3.5104  0.8921  0.1846
15592SOL    HW258836   3.353   3.114   4.086  1.4222 -0.5597 -0.2477
15593SOL     OW58837   9.393   6.390   6.615 -0.1538  0.0114 -0.5741
15593SOL    HW158838   9.459   6.352   6.681 -0.7926  2.0974  1.3197
15593SOL    HW258839   9.442   6.438   6.542  0.5635 -2.3447 -1.7064
15594SOL     OW58840   0.926   8.000   2.257 -0.0841  0.1265  0.1162
15594SOL    HW158841   0.945   8.024   2.161  1.0866  1.0827  0.5729
15594SOL    HW258842   0.829   8.013   2.276 -0.4203 -0.5409 -1.0728
15595SOL     OW58843   7.528   4.062   7.360 -0.0743  0.1862  0.7898
15595SOL    HW158844   7.570   4.025   7.277 -0.6161 -1.8620  1.3912
15595SOL    HW258845   7.434   4.090   7.341 -0.2584 -0.4548  0.7472
15596SOL     OW58846   5.170   1.787   8.103  0.0994 -0.5657  0.1754
15596SOL    HW158847   5.085   1.735   8.104 -0.0561 -0.3078  0.3345
15596SOL    HW258848   5.228   1.758   8.179  1.4504 -2.8799 -1.6501
15597SOL     OW58849   2.340   5.752   1.969  0.2251  1.1797  0.0317
15597SOL    HW158850   2.241   5.763   1.963  0.1522  0.5426  0.0570
15597SOL    HW258851   2.385   5.827   1.919 -0.2629  1.5399  0.1307
15598SOL     OW58852   4.953   1.901   6.544 -0.2150 -0.1563 -0.0061
15598SOL    HW158853   4.983   1.818   6.497  0.6249 -0.4732  1.0861
15598SOL    HW258854   4.948   1.977   6.478  1.6764 -0.4121 -0.4806
15599SOL     OW58855   7.253   1.876   5.340  0.6265  0.2011  0.0840
15599SOL    HW158856   7.169   1.893   5.390 -1.0323 -2.0182 -1.8338
15599SOL    HW258857   7.330   1.871   5.404 -1.0682 -0.2447  2.1222
15600SOL     OW58858   7.065   3.037   5.058  0.5792  0.2933  0.3837
15600SOL    HW158859   7.110   2.947   5.060 -0.9692 -0.4801  0.6374
15600SOL    HW258860   7.084   3.081   4.970  0.1388 -0.9119 -0.3287
15601SOL     OW58861   9.769   7.529   8.725  0.6008  0.7120  0.3409
15601SOL    HW158862   9.750   7.431   8.722  0.6628  0.6868  0.7648
15601SOL    HW258863   9.751   7.569   8.635  1.8075  0.0801 -0.1947
15602SOL     OW58864   5.287   0.869   6.977 -0.2688 -0.0373  0.8934
15602SOL    HW158865   5.386   0.875   6.965 -0.1368  1.5243  2.5635
15602SOL    HW258866   5.262   0.907   7.066 -2.6250  2.0131 -0.5759
15603SOL     OW58867   2.271   3.005   0.416 -0.0674  0.7243  0.7082
15603SOL    HW158868   2.311   3.068   0.349 -1.3563  0.9141  0.1095
15603SOL    HW258869   2.342   2.977   0.481  0.8545  1.6764  0.1353
15604SOL     OW58870   3.328   2.368   0.528 -0.1004 -0.1331  0.3571
15604SOL    HW158871   3.284   2.439   0.583 -2.3333 -0.0448 -1.4856
15604SOL    HW258872   3.270   2.346   0.449  1.8468 -2.0637 -0.5778
15605SOL     OW58873   0.675   7.617   5.801 -0.2465 -0.3593 -0.2578
15605SOL    HW158874   0.613   7.540   5.786  0.5165 -0.9757 -0.3005
15605SOL    HW258875   0.724   7.637   5.717  0.2070 -0.4086 -0.0075
15606SOL     OW58876   8.143   3.646   9.322 -0.8650 -0.2657 -0.0752
15606SOL    HW158877   8.066   3.645   9.258 -0.0670  1.6627 -1.1117
15606SOL    HW258878   8.217   3.701   9.283  0.2066 -0.3036  1.8750
15607SOL     OW58879   1.661   1.865   0.668 -0.1313  0.0424 -0.6988
15607SOL    HW158880   1.589   1.934   0.656 -0.8836 -0.7523 -0.8512
15607SOL    HW258881   1.681   1.856   0.766 -0.8007 -0.2795 -0.5840
15608SOL     OW58882   5.351   3.611   8.288  0.2761  0.3234 -0.1563
15608SOL    HW158883   5.450   3.608   8.277  0.4078  2.6543  0.2376
15608SOL    HW258884   5.327   3.681   8.354 -1.6167 -0.6981  0.2827
15609SOL     OW58885   3.402   8.625   4.151 -0.0251  0.2520 -0.0676
15609SOL    HW158886   3.326   8.644   4.214  0.6075  0.3110  0.6773
15609SOL    HW258887   3.378   8.659   4.060 -1.1853 -0.3482 -0.0044
15610SOL     OW58888   3.004   1.596   7.467  0.0456  0.0703 -0.1407
15610SOL    HW158889   2.972   1.691   7.470 -2.3769 -0.7362  0.9554
15610SOL    HW258890   2.971   1.547   7.548  3.2611 -1.1239  0.5074
15611SOL     OW58891   4.164   9.285   4.737  0.2448 -0.0893 -0.2688
15611SOL    HW158892   4.191   9.312   4.645 -1.0973 -3.4708 -1.7031
15611SOL    HW258893   4.172   9.186   4.747 -1.1162  0.0498  2.7733
15612SOL     OW58894   2.088   4.552   1.339  0.2861  0.0249  0.3388
15612SOL    HW158895   2.046   4.598   1.261  1.0604  2.0852  1.1067
15612SOL    HW258896   2.032   4.567   1.421  0.1002 -1.1277  0.4357
15613SOL     OW58897   2.642   2.644   2.260  0.0862 -0.2273 -0.3113
15613SOL    HW158898   2.613   2.739   2.247 -1.4462 -0.7042 -0.4849
15613SOL    HW258899   2.677   2.632   2.352  2.3311  1.0138 -0.9790
15614SOL     OW58900   1.051   7.127   9.399 -0.4206 -0.0056  0.5060
15614SOL    HW158901   1.145   7.107   9.374 -0.5343  0.2197 -0.0957
15614SOL    HW258902   1.021   7.063   9.470 -0.8039 -2.0497 -1.4555
15615SOL     OW58903   0.593   5.567   8.445 -0.1859  0.7614  0.2842
15615SOL    HW158904   0.588   5.467   8.456 -0.3785  0.8745  1.3214
15615SOL    HW258905   0.514   5.599   8.394  0.4327  0.2639 -1.0005
15616SOL     OW58906   0.984   3.743   1.320  0.1606  0.1958  0.0727
15616SOL    HW158907   1.056   3.807   1.349  0.5267  0.3748 -1.2116
15616SOL    HW258908   0.992   3.727   1.222  0.3038 -2.1379  0.4544
15617SOL     OW58909   3.320   1.359   5.861  0.1314  0.3947  0.4120
15617SOL    HW158910   3.303   1.327   5.768  1.8972 -0.7145  0.4340
15617SOL    HW258911   3.367   1.447   5.858 -0.0291  0.4744  0.2575
15618SOL     OW58912   9.856   1.230   4.181 -0.4351 -0.4619 -0.0955
15618SOL    HW158913   9.815   1.321   4.177  0.4700 -0.1178 -2.2808
15618SOL    HW258914   9.842   1.183   4.094  0.5375 -1.7975  0.4494
15619SOL     OW58915   1.913   2.454   2.596  0.1420  0.1162  0.2988
15619SOL    HW158916   1.816   2.431   2.591 -0.1774  1.0653  2.0093
15619SOL    HW258917   1.936   2.487   2.687  1.8557  0.8950 -0.3794
15620SOL     OW58918   0.347   2.312   0.413  0.0444  0.7253  0.1774
15620SOL    HW158919   0.389   2.252   0.345  0.5669  1.7279 -0.3910
15620SOL    HW258920   0.319   2.397   0.369 -1.9161  0.3787  0.7021
15621SOL     OW58921   3.777   4.056   9.024 -0.0264 -0.0333  0.2049
15621SOL    HW158922   3.816   4.002   9.099 -0.2681  0.5215  0.7330
15621SOL    HW258923   3.750   4.146   9.058  1.2168  0.7608 -0.8604
15622SOL     OW58924   8.092   6.446   0.880 -0.5161  0.0914  0.1907
15622SOL    HW158925   8.160   6.475   0.947  0.1351 -1.2896  0.1477
15622SOL    HW258926   8.135   6.437   0.790 -0.6652 -1.0725  0.2215
15623SOL     OW58927   7.324   8.981   7.603  0.1512  0.2257  0.0011
15623SOL    HW158928   7.345   8.884   7.607  0.4736  0.2024 -1.7639
15623SOL    HW258929   7.229   8.993   7.576  0.2900  0.4061 -0.4070
15624SOL     OW58930   3.553   4.385   7.102 -0.4391  0.3396  0.3621
15624SOL    HW158931   3.645   4.423   7.094 -0.6024  0.6339 -0.1278
15624SOL    HW258932   3.552   4.293   7.063 -0.8652  1.1777 -1.6787
15625SOL     OW58933   9.730   9.070   2.204  0.4529 -0.6757  0.5173
15625SOL    HW158934   9.742   9.167   2.183 -1.5185 -0.2039  1.4306
15625SOL    HW258935   9.740   9.056   2.303 -1.2597 -1.0604  0.6524
15626SOL     OW58936   7.985   9.017   6.120  0.0591 -0.3648 -0.4261
15626SOL    HW158937   8.051   9.059   6.183 -0.7365 -0.8099  0.7277
15626SOL    HW258938   8.013   9.035   6.026  0.6442  1.3145  0.0466
15627SOL     OW58939   0.127   0.837   2.270  0.0646  0.4932  0.3063
15627SOL    HW158940   0.146   0.923   2.319  0.8679  0.3997  0.1769
15627SOL    HW258941   0.065   0.855   2.194  1.2571  1.2032 -0.5109
15628SOL     OW58942   5.980   1.692   4.946 -0.0419 -0.0298 -0.2997
15628SOL    HW158943   5.901   1.698   5.007  0.3110  1.9188 -0.0199
15628SOL    HW258944   5.947   1.674   4.853 -0.6593 -1.5733  0.1943
15629SOL     OW58945   7.379   9.605   8.355  0.3006 -0.0610 -0.3188
15629SOL    HW158946   7.342   9.647   8.272  0.1262  0.6680  0.1231
15629SOL    HW258947   7.311   9.611   8.429  0.9868  0.5521  0.2706
15630SOL     OW58948   8.523   4.039   1.669 -0.1308 -0.3994 -0.2077
15630SOL    HW158949   8.490   4.120   1.620 -1.9712 -1.4525 -0.7462
15630SOL    HW258950   8.622   4.033   1.659 -0.2791  0.2952 -2.4654
15631SOL     OW58951   1.157   8.069   7.205 -0.1831 -0.0864  0.5208
15631SOL    HW158952   1.058   8.067   7.198 -0.3244 -0.0962  2.2882
15631SOL    HW258953   1.189   7.992   7.261  0.7210  0.5959  0.9652
15632SOL     OW58954   4.083   2.568   5.154  0.4603  0.3602  0.5876
15632SOL    HW158955   4.027   2.628   5.096  0.1695  0.7868  1.2958
15632SOL    HW258956   4.177   2.601   5.154  0.3969  0.5486  0.5998
15633SOL     OW58957   0.199   5.552   1.093  0.5038  0.6166 -0.2149
15633SOL    HW158958   0.203   5.650   1.111  2.5445  0.2348  1.6238
15633SOL    HW258959   0.213   5.536   0.995  0.1527  2.1496 -0.5284
15634SOL     OW58960   2.107   8.219   2.388 -0.0862  0.3279  0.0010
15634SOL    HW158961   2.142   8.220   2.482  0.3653 -0.5281 -0.1518
15634SOL    HW258962   2.007   8.224   2.390 -0.1184 -0.3409  0.5611
15635SOL     OW58963   4.225   2.246   8.329 -0.1440 -0.1462 -0.0842
15635SOL    HW158964   4.295   2.222   8.395  0.3343  2.6536  0.4962
15635SOL    HW258965   4.238   2.193   8.245  3.1196  0.8043 -0.2537
15636SOL     OW58966   0.488   3.914   5.308 -0.3444 -0.1107  0.0764
15636SOL    HW158967   0.578   3.886   5.343 -0.2292  0.7852  0.5337
15636SOL    HW258968   0.443   3.836   5.265  0.7909 -0.4943 -0.4462
15637SOL     OW58969   8.180   7.321   7.805 -0.3775 -0.5716 -0.5318
15637SOL    HW158970   8.274   7.305   7.836 -0.3466  1.2869  0.3708
15637SOL    HW258971   8.164   7.419   7.795 -1.5005 -0.9539 -2.9975
15638SOL     OW58972   9.095   1.239   6.297 -0.4750 -0.5225  0.5199
15638SOL    HW158973   9.024   1.209   6.233  0.2834 -0.6220 -0.2723
15638SOL    HW258974   9.164   1.292   6.248  0.7169 -1.5790  1.0457
15639SOL     OW58975   2.375   6.279   2.755 -0.2076 -0.0375  0.0575
15639SOL    HW158976   2.348   6.346   2.824 -0.6815  2.1987 -2.2533
15639SOL    HW258977   2.475   6.274   2.751 -0.1766 -0.5464  1.2208
15640SOL     OW58978   1.999   6.348   2.096 -0.4180  0.0169  0.5774
15640SOL    HW158979   2.051   6.313   2.174  0.6908  1.8266  0.6953
15640SOL    HW258980   1.937   6.420   2.127  0.4669  1.1726 -0.2770
15641SOL     OW58981   0.503   1.314   9.968 -0.0809  0.2038  0.0748
15641SOL    HW158982   0.497   1.382   9.895 -0.1408 -0.2805 -0.3641
15641SOL    HW258983   0.590   1.265   9.962 -0.6457 -0.7414 -0.4562
15642SOL     OW58984   9.796   4.914   4.368  0.2039 -0.0145  0.6806
15642SOL    HW158985   9.784   4.816   4.381  0.8675 -0.1330  0.4170
15642SOL    HW258986   9.744   4.964   4.437 -1.1632 -0.5252  0.0360
15643SOL     OW58987   5.405   4.047   1.066  0.4583 -0.3953  0.1265
15643SOL    HW158988   5.502   4.056   1.091 -0.0977  1.1415  1.8518
15643SOL    HW258989   5.372   3.958   1.095  0.9132 -0.2332  1.1765
15644SOL     OW58990   9.596   1.709   1.479  0.1389  0.2412  0.1653
15644SOL    HW158991   9.676   1.719   1.538  0.2419  3.9472 -0.5178
15644SOL    HW258992   9.531   1.646   1.523  1.3584  0.8389  2.9599
15645SOL     OW58993   4.196   8.944   9.097 -0.3005  0.8275 -0.1532
15645SOL    HW158994   4.106   8.988   9.107 -0.3614 -0.0314  3.5117
15645SOL    HW258995   4.257   8.977   9.168  1.5694 -0.4837 -1.1150
15646SOL     OW58996   3.318   0.094   8.689  1.0240 -0.0244  0.2919
15646SOL    HW158997   3.240   0.086   8.752  0.3987 -1.2473 -0.6217
15646SOL    HW258998   3.348   0.003   8.661  1.1109  0.5049 -1.3923
15647SOL     OW58999   8.814   9.143   8.336 -0.7761 -0.0116 -0.0336
15647SOL    HW159000   8.882   9.126   8.265 -1.4871 -0.8391 -0.5320
15647SOL    HW259001   8.813   9.240   8.359  1.4134 -0.1763  0.8439
15648SOL     OW59002   4.076   2.570   5.989  0.0141 -0.0850 -0.3983
15648SOL    HW159003   4.174   2.569   6.006 -0.4525  0.4458  2.6255
15648SOL    HW259004   4.041   2.477   5.988  0.8143 -0.3982 -3.4486
15649SOL     OW59005   2.970   3.693   0.993  0.3832  0.1535 -0.3447
15649SOL    HW159006   2.903   3.621   1.013  0.7598 -0.8720 -2.6063
15649SOL    HW259007   2.925   3.769   0.948  0.2629  0.6697  0.6377
15650SOL     OW59008   4.918   4.704   1.086  0.3238 -0.4426 -0.1481
15650SOL    HW159009   4.971   4.788   1.079 -0.0016 -0.3201 -1.2488
15650SOL    HW259010   4.955   4.647   1.160  3.0996 -1.1439 -1.9812
15651SOL     OW59011   9.740   2.923   2.731 -0.5233  0.2170  0.2036
15651SOL    HW159012   9.794   2.841   2.709  0.9507  0.9001  1.1883
15651SOL    HW259013   9.671   2.899   2.799  0.6993  0.0320  1.4083
15652SOL     OW59014   7.516   6.388   0.552  0.2599  0.1804  0.2913
15652SOL    HW159015   7.466   6.346   0.628  2.3674 -3.1089 -0.0104
15652SOL    HW259016   7.588   6.446   0.588 -1.3220  1.9001  0.7467
15653SOL     OW59017   8.143   8.050   7.901  0.4043 -0.0065  0.2914
15653SOL    HW159018   8.109   7.996   7.978 -0.3117  1.2014  0.8365
15653SOL    HW259019   8.211   8.116   7.934  1.0917 -0.3853 -0.3332
15654SOL     OW59020   4.561   8.674   6.476  0.1213  0.3795  0.1575
15654SOL    HW159021   4.594   8.761   6.510 -0.9923  1.0487 -0.4472
15654SOL    HW259022   4.463   8.681   6.455 -0.1847 -1.2645  0.9568
15655SOL     OW59023   2.575   5.623   0.853 -0.0532  0.7647 -0.1018
15655SOL    HW159024   2.636   5.607   0.931 -0.2606 -1.6216 -0.3720
15655SOL    HW259025   2.543   5.535   0.818 -0.1445  1.7976 -2.7440
15656SOL     OW59026   7.102   1.362   1.815 -0.4559  0.1346 -0.1775
15656SOL    HW159027   7.108   1.402   1.906 -1.5824 -0.9822  0.4013
15656SOL    HW259028   7.027   1.405   1.764  1.3234  2.0473 -1.2597
15657SOL     OW59029   8.991   7.422   9.063 -0.0726 -0.3864 -0.8825
15657SOL    HW159030   9.090   7.434   9.076 -0.1650 -0.8095  0.2798
15657SOL    HW259031   8.973   7.396   8.968  0.8975  0.0142 -1.1886
15658SOL     OW59032   6.878   2.223   8.299 -0.9179 -0.1735 -0.1828
15658SOL    HW159033   6.806   2.155   8.302 -1.1700  0.1417  1.2488
15658SOL    HW259034   6.967   2.178   8.291 -1.0680 -0.6814  0.9616
15659SOL     OW59035   6.414   4.039   0.859 -0.9153  0.3172  0.1032
15659SOL    HW159036   6.416   4.003   0.953  1.6711  0.9017  0.3274
15659SOL    HW259037   6.482   4.113   0.851 -0.7002 -0.1152 -2.3802
15660SOL     OW59038   8.421   3.820   4.029 -0.1764 -0.0494  0.2692
15660SOL    HW159039   8.343   3.834   3.968  0.3310 -1.2729 -0.6595
15660SOL    HW259040   8.483   3.898   4.022 -0.3865  0.0626 -0.3880
15661SOL     OW59041   6.130   7.789   7.036 -0.3870 -0.2075  0.1802
15661SOL    HW159042   6.054   7.837   7.078  1.1560  2.0812  0.4582
15661SOL    HW259043   6.206   7.784   7.101  0.0433 -1.5891 -0.4216
15662SOL     OW59044   7.943   2.110   3.951 -0.0563  0.3157 -0.6288
15662SOL    HW159045   7.965   2.086   4.046  0.3585  1.4331 -0.4377
15662SOL    HW259046   8.026   2.143   3.905 -0.4661  0.7082 -1.0916
15663SOL     OW59047   1.233   1.729   6.639  0.0134  0.3222  0.3198
15663SOL    HW159048   1.258   1.814   6.591  0.7547 -0.1512 -0.1465
15663SOL    HW259049   1.237   1.745   6.738  0.3764  0.7758  0.2369
15664SOL     OW59050   7.343   5.991   1.853  0.8648 -0.1541  0.2758
15664SOL    HW159051   7.318   5.958   1.944 -0.6412  1.1397  0.3389
15664SOL    HW259052   7.434   5.956   1.829  1.5529 -0.0036  2.5315
15665SOL     OW59053   2.831   8.069   9.692 -0.5513 -0.3563  0.2501
15665SOL    HW159054   2.795   8.046   9.602  1.1054 -0.2239 -0.4811
15665SOL    HW259055   2.916   8.018   9.708 -0.6221 -0.0821  1.5732
15666SOL     OW59056   3.307   3.556   3.342  0.1660  0.2950 -0.1793
15666SOL    HW159057   3.314   3.464   3.303  4.3485  0.3966  0.1638
15666SOL    HW259058   3.247   3.554   3.422 -1.1938 -1.7482 -1.2145
15667SOL     OW59059   5.117   8.333   7.044  0.2523  0.5484  0.3715
15667SOL    HW159060   5.180   8.258   7.062 -1.3746 -0.8080  0.4486
15667SOL    HW259061   5.164   8.405   6.993  1.8955 -0.3756  0.5773
15668SOL     OW59062   8.936   7.517   9.431 -0.6901  0.1909 -0.5821
15668SOL    HW159063   8.895   7.442   9.379  0.4423  0.3587 -1.7229
15668SOL    HW259064   8.890   7.602   9.408  0.3000  0.3887 -1.9130
15669SOL     OW59065   0.307   5.839   0.878  0.2248 -0.0910 -0.2971
15669SOL    HW159066   0.212   5.858   0.852  0.2451  1.9438  0.9965
15669SOL    HW259067   0.338   5.756   0.833 -2.2817 -0.9541 -0.5029
15670SOL     OW59068   8.123   6.296  10.019  0.8204 -0.1395  0.5179
15670SOL    HW159069   8.143   6.208   9.976  1.0519 -0.3087  0.9751
15670SOL    HW259070   8.183   6.366   9.981  0.0881 -0.0217 -0.4258
15671SOL     OW59071   0.840   6.924   5.108 -0.4830 -0.1449 -0.3546
15671SOL    HW159072   0.742   6.903   5.119 -0.2537 -0.3045  1.5234
15671SOL    HW259073   0.892   6.839   5.113 -0.1547  0.0672 -0.1855
15672SOL     OW59074   6.490   5.264   0.841  0.8122 -0.1299  0.3278
15672SOL    HW159075   6.520   5.169   0.846 -0.3452 -0.6009 -1.4244
15672SOL    HW259076   6.397   5.269   0.805  1.2299  1.7138 -0.5887
15673SOL     OW59077   9.924   7.137   5.386 -0.2111 -0.1843 -0.5129
15673SOL    HW159078   9.895   7.164   5.478 -0.8567 -0.5405 -0.6085
15673SOL    HW259079  10.019   7.166   5.371 -1.0334  2.4334 -0.7883
15674SOL     OW59080   2.237   9.925   0.559 -0.0556  0.2567 -0.1153
15674SOL    HW159081   2.294   9.927   0.641 -2.3991  0.4725  1.5826
15674SOL    HW259082   2.277   9.864   0.492  0.6271 -1.9629  2.2231
15675SOL     OW59083   9.225   4.886   9.636  0.1078 -0.2005  0.2162
15675SOL    HW159084   9.158   4.939   9.688 -0.7565  0.6925 -1.7592
15675SOL    HW259085   9.280   4.947   9.579  1.3011 -1.1232  0.3487
15676SOL     OW59086   8.805   3.648   9.954  0.1191  0.5425  0.6941
15676SOL    HW159087   8.876   3.602   9.901 -0.7460  0.5490 -0.5030
15676SOL    HW259088   8.806   3.746   9.933  0.5280  0.7387  1.5870
15677SOL     OW59089   0.665   1.588   2.241  0.1126 -0.2582 -0.2174
15677SOL    HW159090   0.573   1.621   2.258  0.4719  0.1589  0.9999
15677SOL    HW259091   0.715   1.581   2.328  0.8721 -1.5307 -0.7300
15678SOL     OW59092   9.272   4.644   3.683  0.0423  0.3664 -0.7331
15678SOL    HW159093   9.175   4.626   3.665  0.1839  0.6711 -1.8747
15678SOL    HW259094   9.301   4.594   3.764 -1.6634  2.1309  1.0447
15679SOL     OW59095   6.255   8.308   4.553  0.0445 -0.2575 -0.1667
15679SOL    HW159096   6.277   8.315   4.650 -0.8363 -0.3937  0.0459
15679SOL    HW259097   6.335   8.335   4.498  0.2531  0.6658  0.5862
15680SOL     OW59098   7.953   7.732   0.698 -0.3578  0.0146 -0.2281
15680SOL    HW159099   7.939   7.633   0.705  0.1416 -0.0359  0.1461
15680SOL    HW259100   7.879   7.780   0.745 -1.2205 -0.1523 -1.4094
15681SOL     OW59101   9.622   2.906   3.540  0.4624  0.2461 -0.3676
15681SOL    HW159102   9.633   3.005   3.542 -0.3575  0.3124  0.8264
15681SOL    HW259103   9.654   2.867   3.626  1.6920 -0.6327 -1.1999
15682SOL     OW59104   1.400   2.082   6.862 -0.1703 -0.4149  0.1257
15682SOL    HW159105   1.329   2.152   6.865  1.6744  1.5079  0.2280
15682SOL    HW259106   1.416   2.054   6.768 -0.3882 -0.1112 -0.0032
15683SOL     OW59107   8.932   3.667   1.522 -0.2062  0.6356 -0.2385
15683SOL    HW159108   9.018   3.682   1.570  0.4490  1.0268 -1.5168
15683SOL    HW259109   8.877   3.600   1.573  1.1104 -0.1026  0.2536
15684SOL     OW59110   8.159   5.069   5.373  0.3297  0.2858  0.6015
15684SOL    HW159111   8.083   5.130   5.391  0.1290 -0.2604  1.6614
15684SOL    HW259112   8.199   5.039   5.460  1.2670 -0.0315  0.0725
15685SOL     OW59113   1.143   1.279   5.952  0.0949 -0.1939  0.1488
15685SOL    HW159114   1.160   1.233   6.039  0.0777 -1.3187 -0.4299
15685SOL    HW259115   1.046   1.269   5.927  0.1345 -0.0130 -0.0777
15686SOL     OW59116   7.594   4.598   9.725  0.4309 -0.0999  0.5785
15686SOL    HW159117   7.663   4.545   9.774 -0.5401 -0.5850  1.4399
15686SOL    HW259118   7.549   4.661   9.789  0.6741  0.8346 -0.1615
15687SOL     OW59119   7.473   2.345   2.182  0.0135 -0.3013 -0.1016
15687SOL    HW159120   7.470   2.362   2.280  3.1114  0.4627 -0.0834
15687SOL    HW259121   7.504   2.251   2.166 -0.6968 -0.4953 -0.3669
15688SOL     OW59122   2.809   2.347   5.199  0.0918  0.4485  0.0179
15688SOL    HW159123   2.720   2.370   5.238  0.6232  1.6810  0.5317
15688SOL    HW259124   2.851   2.273   5.251  1.2896  2.8080  2.5539
15689SOL     OW59125   2.114   0.741   6.314 -0.0125  0.2332 -0.2765
15689SOL    HW159126   2.122   0.837   6.338 -0.7615  0.0854  0.6060
15689SOL    HW259127   2.105   0.731   6.215  1.2066  0.9872 -0.4701
15690SOL     OW59128   1.559   4.515   8.980  0.0844 -0.3598  0.6354
15690SOL    HW159129   1.564   4.612   9.002 -3.0160 -0.0120  0.0097
15690SOL    HW259130   1.494   4.470   9.042  2.2344 -2.2604  1.5906
15691SOL     OW59131   6.523   4.586   9.886  0.1972 -0.1058 -0.3245
15691SOL    HW159132   6.522   4.662   9.820  2.5112  0.0541 -0.2078
15691SOL    HW259133   6.572   4.508   9.847  0.2646 -0.5493  0.6315
15692SOL     OW59134   2.765   7.754   5.769 -0.3445  0.4873  0.1314
15692SOL    HW159135   2.811   7.792   5.689 -1.7935  0.6971 -0.6245
15692SOL    HW259136   2.771   7.818   5.846 -0.6549  1.1639 -0.4064
15693SOL     OW59137   1.463   2.623   9.773  0.1119 -0.2488 -0.1651
15693SOL    HW159138   1.497   2.529   9.780 -1.5664 -0.7054  2.5350
15693SOL    HW259139   1.370   2.621   9.737 -0.6266  0.1874  1.6518
15694SOL     OW59140   3.272   5.195   1.613 -0.6361  0.5894 -0.6104
15694SOL    HW159141   3.342   5.130   1.583  1.0485  2.2372 -0.2982
15694SOL    HW259142   3.185   5.147   1.623  0.1382 -1.2171 -2.2607
15695SOL     OW59143   6.206   7.970   3.909  0.0715 -0.3720 -0.9451
15695SOL    HW159144   6.229   7.905   3.981  0.3445  0.3992 -0.3310
15695SOL    HW259145   6.112   7.955   3.878 -0.0242 -0.7392 -0.4698
15696SOL     OW59146   1.405   3.800   5.911  0.1220  0.2670  0.0189
15696SOL    HW159147   1.480   3.866   5.912 -0.3530  0.8133 -0.4778
15696SOL    HW259148   1.379   3.778   6.005  1.0972 -0.1454  0.1990
15697SOL     OW59149   0.183   6.982   3.854  0.4974  1.0620  0.9727
15697SOL    HW159150   0.092   6.940   3.854  0.2443  1.5895  0.0643
15697SOL    HW259151   0.249   6.919   3.895  0.4265 -0.8906 -1.8024
15698SOL     OW59152   4.489   7.655   2.122  0.0704 -0.1067 -0.0588
15698SOL    HW159153   4.543   7.586   2.074  0.5016  0.2017 -0.0206
15698SOL    HW259154   4.508   7.746   2.084 -1.7819 -0.1988 -1.2553
15699SOL     OW59155   0.546   0.323   5.065  0.2477  0.5263 -0.2546
15699SOL    HW159156   0.518   0.264   4.990  1.8385  0.8461 -1.1148
15699SOL    HW259157   0.497   0.411   5.059  0.0660  0.3984 -0.6631
15700SOL     OW59158   6.952   7.942   5.344  0.3561 -0.1305 -0.0685
15700SOL    HW159159   7.039   7.902   5.374  0.6623 -0.0709 -0.8763
15700SOL    HW259160   6.967   7.998   5.263 -0.2639  0.7460  0.4181
15701SOL     OW59161   7.844   7.706   2.451 -0.0197  0.3174 -0.1617
15701SOL    HW159162   7.896   7.648   2.513 -0.9170 -1.2359 -0.8458
15701SOL    HW259163   7.830   7.659   2.364 -1.5658  1.1786 -0.4014
15702SOL     OW59164   7.275   2.406   0.434  0.1550 -0.2170 -0.1065
15702SOL    HW159165   7.255   2.418   0.532  1.4240 -0.0111  0.1345
15702SOL    HW259166   7.190   2.413   0.382 -0.7909 -2.1296  1.1381
15703SOL     OW59167   3.347   1.264   2.807  0.0919  0.1120  0.1772
15703SOL    HW159168   3.402   1.297   2.730  1.3870 -1.6984  0.2932
15703SOL    HW259169   3.398   1.279   2.892 -0.1223 -0.4859  0.4084
15704SOL     OW59170   9.007   6.264   5.240  0.0757  0.7371  0.1517
15704SOL    HW159171   9.061   6.180   5.249  1.5293  1.6048 -0.1705
15704SOL    HW259172   9.013   6.298   5.146  1.5341  2.5032  0.8524
15705SOL     OW59173   6.947   7.084   6.148 -0.3015  0.0214  0.1228
15705SOL    HW159174   7.022   7.053   6.089  0.4642  2.1039 -0.0299
15705SOL    HW259175   6.961   7.049   6.241  0.2216 -0.5699 -0.1729
15706SOL     OW59176   3.327   2.449   4.417 -0.1509  0.5694 -0.0939
15706SOL    HW159177   3.321   2.356   4.380 -1.3142 -0.3703  2.2775
15706SOL    HW259178   3.411   2.492   4.387  0.5810 -1.3926 -0.9558
15707SOL     OW59179   0.805   9.548   3.925  0.2670  0.4841  0.0007
15707SOL    HW159180   0.760   9.468   3.965 -0.5421  0.2331 -1.3832
15707SOL    HW259181   0.763   9.631   3.960  1.2517  0.3302  1.6143
15708SOL     OW59182   5.919   8.136   4.728 -0.0303  0.4092  0.1302
15708SOL    HW159183   5.958   8.141   4.636  1.8321 -0.6236  0.8246
15708SOL    HW259184   5.854   8.061   4.733  1.9018 -1.3170  0.3360
15709SOL     OW59185   9.050   0.011   5.481  0.0167 -0.1748 -0.0009
15709SOL    HW159186   9.071   0.097   5.527  0.2906  0.9031 -2.0635
15709SOL    HW259187   8.958  -0.020   5.507 -0.8006  1.6812 -0.6148
15710SOL     OW59188   3.432   9.774   8.293 -0.0881  0.5273 -0.1997
15710SOL    HW159189   3.431   9.680   8.327  0.4964  0.2633 -0.9007
15710SOL    HW259190   3.389   9.777   8.203 -0.6171  1.0314  0.0680
15711SOL     OW59191   2.460   0.261   7.281 -0.0804 -0.1751 -0.6323
15711SOL    HW159192   2.474   0.336   7.217  1.7264  0.6365  0.6768
15711SOL    HW259193   2.428   0.297   7.368 -0.5050 -1.0713 -0.4135
15712SOL     OW59194   4.480   2.415   0.967 -0.3522 -0.0145  0.7381
15712SOL    HW159195   4.525   2.326   0.962 -0.5327 -0.1082  0.7703
15712SOL    HW259196   4.460   2.437   1.062 -0.3295  0.0504  0.7279
15713SOL     OW59197   7.639   7.031   5.335  0.0862 -0.2130 -0.1166
15713SOL    HW159198   7.705   7.003   5.265  3.7812 -0.9715  3.4980
15713SOL    HW259199   7.587   6.951   5.365  0.7353 -0.5238  0.2077
15714SOL     OW59200   5.456   7.388   4.442 -0.2010  0.5838 -0.2018
15714SOL    HW159201   5.418   7.406   4.532 -0.6430 -0.2356 -0.2236
15714SOL    HW259202   5.534   7.326   4.450 -0.3626  0.3519 -0.3993
15715SOL     OW59203   3.286   6.236   2.173  0.3280 -0.2130  0.3835
15715SOL    HW159204   3.193   6.223   2.139  0.2485 -0.1816  0.5884
15715SOL    HW259205   3.316   6.330   2.153  0.0645 -0.0129  0.9182
15716SOL     OW59206   5.551   3.162   9.691 -0.0717 -0.4165 -0.3942
15716SOL    HW159207   5.588   3.239   9.743  1.0887 -1.3522  0.2006
15716SOL    HW259208   5.452   3.173   9.681  0.1767  1.5082 -0.9475
15717SOL     OW59209   2.281   9.746   0.361 -0.9617  0.6985  0.0519
15717SOL    HW159210   2.209   9.688   0.400  0.1172 -1.2382 -0.7652
15717SOL    HW259211   2.257   9.770   0.267 -0.2276 -0.5199 -0.4521
15718SOL     OW59212   0.202   7.355   2.977 -0.4720 -0.6139  0.7092
15718SOL    HW159213   0.268   7.383   3.047 -0.9216 -1.2515  1.3947
15718SOL    HW259214   0.140   7.286   3.015 -1.4537 -0.1196  0.0352
15719SOL     OW59215   9.491   6.237   0.090  0.3568  0.1922 -0.2483
15719SOL    HW159216   9.423   6.294   0.136 -0.7195  0.2202 -1.8364
15719SOL    HW259217   9.496   6.148   0.134  1.4230  1.2053  1.7111
15720SOL     OW59218   1.375   9.840   0.543 -0.1349 -0.3892 -0.5570
15720SOL    HW159219   1.384   9.804   0.450  0.9997 -0.3657 -0.4682
15720SOL    HW259220   1.357   9.765   0.606  0.6417 -0.6114 -0.5912
15721SOL     OW59221   1.981   4.305   1.933  0.0177  0.3327  0.2220
15721SOL    HW159222   1.987   4.207   1.950 -0.5946  0.3693  0.6498
15721SOL    HW259223   1.885   4.334   1.936  0.4128  1.4810  3.0484
15722SOL     OW59224   4.197   6.336   2.529 -0.3363 -0.2160  0.0132
15722SOL    HW159225   4.221   6.431   2.506  1.9902 -0.1137  2.6268
15722SOL    HW259226   4.265   6.274   2.490  0.4580 -0.4604  1.7452
15723SOL     OW59227   7.207   5.135   3.152  0.3273  0.1741  0.5437
15723SOL    HW159228   7.149   5.105   3.227 -0.4420  1.2739  0.3969
15723SOL    HW259229   7.166   5.214   3.107 -0.9904 -2.4762 -3.1997
15724SOL     OW59230   5.482   9.127   1.505  0.5817 -0.1456 -0.1742
15724SOL    HW159231   5.399   9.126   1.448  0.5934 -1.8153 -0.1968
15724SOL    HW259232   5.460   9.090   1.595  1.4107 -1.1244 -0.3628
15725SOL     OW59233   0.485   9.778   4.240 -0.6715  0.1394  0.2476
15725SOL    HW159234   0.440   9.690   4.253 -1.9817  0.7205 -0.3061
15725SOL    HW259235   0.584   9.765   4.244 -0.8718 -1.0725  1.9428
15726SOL     OW59236   0.153   7.711   8.425 -0.1303  0.2828 -0.0033
15726SOL    HW159237   0.209   7.674   8.351  1.4528  0.3277  1.1554
15726SOL    HW259238   0.206   7.714   8.510 -1.4127  1.7459  0.7839
15727SOL     OW59239   2.320   6.782   6.243 -0.1888 -0.3251 -0.4232
15727SOL    HW159240   2.268   6.708   6.201  0.0566 -1.0845  0.5924
15727SOL    HW259241   2.416   6.777   6.213 -0.0411 -0.7875  0.1324
15728SOL     OW59242   4.803   0.073   4.474  0.0602 -0.0070 -0.4073
15728SOL    HW159243   4.897   0.096   4.498 -0.8081  1.9244  1.3391
15728SOL    HW259244   4.787  -0.024   4.491  1.4195 -0.0982  0.4454
15729SOL     OW59245   2.840   5.396   3.161 -0.3752 -0.5501  0.2647
15729SOL    HW159246   2.868   5.456   3.086 -0.4295  2.2660  2.4143
15729SOL    HW259247   2.741   5.385   3.159 -0.2306 -1.7288 -0.9574
15730SOL     OW59248   8.053   4.482  10.014 -0.1813 -0.1411 -0.1294
15730SOL    HW159249   8.027   4.493  10.110 -0.1380 -0.3402 -0.0953
15730SOL    HW259250   8.145   4.443  10.009  0.4257  1.2550 -0.2469
15731SOL     OW59251   3.649   7.550   3.587 -0.1755 -0.8759 -0.3970
15731SOL    HW159252   3.711   7.472   3.582 -2.9324 -3.0917 -1.4772
15731SOL    HW259253   3.616   7.560   3.681  2.2221  0.7237  0.3306
15732SOL     OW59254   5.252   5.165   0.332  0.3106  0.2922  0.1769
15732SOL    HW159255   5.243   5.070   0.303 -0.4499 -0.2875  2.2527
15732SOL    HW259256   5.348   5.188   0.342  0.4828 -0.4057  0.1557
15733SOL     OW59257   1.020   1.565   2.534  0.1899 -0.3270 -0.7548
15733SOL    HW159258   1.051   1.588   2.441 -0.8179 -1.9923 -1.5193
15733SOL    HW259259   1.015   1.648   2.589  0.0444  0.7887 -2.4204
15734SOL     OW59260   6.220   5.102   9.484  0.3607  0.0496  0.8074
15734SOL    HW159261   6.245   5.113   9.388 -1.4312 -0.5291  0.2612
15734SOL    HW259262   6.302   5.109   9.541  1.4452  0.2863 -0.7679
15735SOL     OW59263   1.675   6.405   6.507  0.2999 -0.2359  0.1159
15735SOL    HW159264   1.632   6.318   6.530 -0.0152 -0.1592 -0.1849
15735SOL    HW259265   1.608   6.479   6.520  0.1191 -0.1904 -1.0612
15736SOL     OW59266   2.750   0.411   9.911 -0.2409 -0.5635  0.2381
15736SOL    HW159267   2.701   0.499   9.910  1.0892  0.3145  3.6852
15736SOL    HW259268   2.838   0.422   9.865  2.1848  1.4867  4.9816
15737SOL     OW59269   7.509   9.875   4.147 -0.2014  0.6071 -0.8336
15737SOL    HW159270   7.473   9.786   4.119 -1.0614  0.1847  1.4929
15737SOL    HW259271   7.566   9.863   4.228  0.4515  2.0649 -1.0643
15738SOL     OW59272   1.863   1.244   1.756  0.2306  0.6453 -0.2444
15738SOL    HW159273   1.806   1.326   1.755 -0.6273  0.0596 -0.0559
15738SOL    HW259274   1.917   1.241   1.840 -1.0720  0.1201  0.5894
15739SOL     OW59275   1.217   5.466   0.757 -0.1409  0.1899  0.1847
15739SOL    HW159276   1.126   5.463   0.715 -0.4748  0.4659  0.8896
15739SOL    HW259277   1.259   5.375   0.751  0.7588  0.7443 -2.8103
15740SOL     OW59278   0.710   0.817   7.032  0.6972  0.0564  0.3235
15740SOL    HW159279   0.796   0.860   7.056  0.8795 -1.2337  2.1058
15740SOL    HW259280   0.679   0.758   7.107 -1.9334  0.7852 -0.1207
15741SOL     OW59281   4.428   8.712   2.232 -0.1249  0.2602  0.3917
15741SOL    HW159282   4.385   8.693   2.320  0.4634 -1.8199  0.2570
15741SOL    HW259283   4.518   8.754   2.247 -0.0910  0.0513  0.7822
15742SOL     OW59284   9.157   0.813   4.400 -0.4825 -0.3525  0.1177
15742SOL    HW159285   9.115   0.828   4.311  3.9443  2.5582 -1.6978
15742SOL    HW259286   9.205   0.725   4.400  1.8421  0.8433 -1.5038
15743SOL     OW59287   4.767   9.335   6.630 -0.1952  0.0208 -0.2039
15743SOL    HW159288   4.690   9.365   6.574 -0.0853  0.0432 -0.3433
15743SOL    HW259289   4.845   9.314   6.571 -0.5156 -1.2788 -0.1864
15744SOL     OW59290   3.280   1.416   0.213  0.1484  0.0575  0.2379
15744SOL    HW159291   3.286   1.381   0.120 -3.0496  1.8717 -0.7517
15744SOL    HW259292   3.244   1.510   0.211 -0.8180 -0.1853  3.3378
15745SOL     OW59293   0.120   3.489  10.046 -0.2683  0.0037 -0.6419
15745SOL    HW159294   0.095   3.584  10.067 -0.6832  0.0260 -1.2077
15745SOL    HW259295   0.217   3.484  10.025 -0.0072  0.1115  0.4909
15746SOL     OW59296   9.153   7.735   6.310 -0.4673 -0.0726 -0.5068
15746SOL    HW159297   9.192   7.826   6.323 -0.8420 -0.0003  0.1024
15746SOL    HW259298   9.141   7.718   6.212 -2.0914  1.2437 -0.5580
15747SOL     OW59299   9.160   9.048   0.341  0.0406  0.1917  0.1360
15747SOL    HW159300   9.194   8.955   0.352 -0.2950  0.0451 -0.0596
15747SOL    HW259301   9.145   9.067   0.244 -1.0976  0.0150  0.2765
15748SOL     OW59302   6.612   3.417   9.700 -0.1773 -0.3126  0.3531
15748SOL    HW159303   6.586   3.462   9.786  2.0291  0.1582  0.8013
15748SOL    HW259304   6.688   3.353   9.718 -0.1512 -0.7090 -1.1385
15749SOL     OW59305   9.434   5.745   4.421 -0.6512 -0.2872  0.9650
15749SOL    HW159306   9.498   5.818   4.398 -0.8691 -0.6273 -0.7960
15749SOL    HW259307   9.484   5.668   4.461  0.2036 -0.9817 -1.3856
15750SOL     OW59308   2.991   8.917   3.057  0.4137  0.0960 -0.3398
15750SOL    HW159309   3.076   8.870   3.079  1.6994  1.1993 -2.7663
15750SOL    HW259310   3.008   8.985   2.986 -2.0559  1.9404  0.7495
15751SOL     OW59311   0.295   0.273   2.141 -0.1869  0.1031 -0.1556
15751SOL    HW159312   0.308   0.200   2.209  0.3239  1.5667  1.3460
15751SOL    HW259313   0.362   0.346   2.158 -0.8033  0.9945 -1.5445
15752SOL     OW59314   6.920   0.888   5.611  0.2580 -0.2208  0.0511
15752SOL    HW159315   6.832   0.843   5.604  0.0993 -0.1907  1.6835
15752SOL    HW259316   6.909   0.987   5.599 -0.0136 -0.1617  0.7549
15753SOL     OW59317   9.990   2.739   4.471  0.5592 -0.4594 -0.5390
15753SOL    HW159318   9.966   2.687   4.553  0.3576  1.4154  0.6195
15753SOL    HW259319   9.952   2.694   4.390  0.1434 -1.9307  0.4599
15754SOL     OW59320   7.919   6.846   0.393 -0.5412  0.8738 -0.1465
15754SOL    HW159321   8.010   6.829   0.430  0.7877  0.3132 -3.5012
15754SOL    HW259322   7.901   6.945   0.392  0.1473  1.0040  0.2787
15755SOL     OW59323   1.480   2.140   8.451  0.3149 -0.0743  0.0558
15755SOL    HW159324   1.390   2.174   8.422  1.1943  1.5177 -0.8830
15755SOL    HW259325   1.501   2.176   8.542  0.3777  0.2596 -0.0903
15756SOL     OW59326   9.215   3.650   3.237 -0.0614  0.2410  0.0687
15756SOL    HW159327   9.220   3.740   3.195 -1.3430  1.0449  1.5803
15756SOL    HW259328   9.182   3.583   3.170  1.9471  0.6463 -1.3790
15757SOL     OW59329   1.655   4.711   0.793 -0.1871  0.3383 -0.1167
15757SOL    HW159330   1.670   4.804   0.758  0.5169 -0.2117 -1.3174
15757SOL    HW259331   1.651   4.647   0.716  0.9679 -0.8426  0.7820
15758SOL     OW59332   4.512   9.008   7.052  0.4614  0.2408  0.5828
15758SOL    HW159333   4.473   8.982   7.141  1.0306  1.2962  1.1473
15758SOL    HW259334   4.516   8.927   6.993  0.0818 -0.4735  1.5153
15759SOL     OW59335   8.343   9.975   9.084  0.0358  0.0801  0.1968
15759SOL    HW159336   8.294  10.034   9.148  1.4403 -0.5015  1.8550
15759SOL    HW259337   8.419  10.025   9.043 -1.1376  0.5957 -1.4057
15760SOL     OW59338   6.626   8.052   2.946 -0.0261 -0.0376 -0.3940
15760SOL    HW159339   6.708   8.047   2.890  0.1254  0.4397 -0.2172
15760SOL    HW259340   6.651   8.042   3.043 -0.4179 -2.1367 -0.4741
15761SOL     OW59341   4.052   4.836   1.701  0.6320 -0.4073  0.7234
15761SOL    HW159342   4.008   4.906   1.644  2.5860 -0.4384 -0.8857
15761SOL    HW259343   3.983   4.789   1.755 -1.2124  0.0513 -1.1664
15762SOL     OW59344   3.609   6.101   7.199  0.2939 -0.4807  0.0929
15762SOL    HW159345   3.521   6.096   7.151  1.0001 -0.2370 -1.2441
15762SOL    HW259346   3.648   6.010   7.207  1.4144 -0.2410 -2.1717
15763SOL     OW59347   1.695   0.192   2.442 -0.1890  0.2497 -0.4629
15763SOL    HW159348   1.642   0.239   2.512 -0.4217 -2.0151  0.9328
15763SOL    HW259349   1.792   0.194   2.467 -0.1396  0.4031 -0.6628
15764SOL     OW59350   0.066   4.104   2.636  0.1957 -0.1747 -0.0610
15764SOL    HW159351  -0.000   4.162   2.589  0.0590 -0.7329 -0.5716
15764SOL    HW259352   0.022   4.019   2.665  0.7106 -0.6080 -0.5244
15765SOL     OW59353   8.210   4.537   6.941  0.2448 -0.2218  0.5019
15765SOL    HW159354   8.117   4.562   6.968  0.5015  0.9423  0.3584
15765SOL    HW259355   8.238   4.455   6.991  0.1977  1.0758  2.7423
15766SOL     OW59356   9.081   9.889   2.899  0.4270  0.1116 -0.1810
15766SOL    HW159357   9.024   9.949   2.843  0.2240 -0.2495 -0.3673
15766SOL    HW259358   9.109   9.810   2.844  1.2128  0.3494 -0.1291
15767SOL     OW59359   2.977   1.964   5.172  0.6002 -0.2447 -0.5889
15767SOL    HW159360   2.882   1.995   5.169  0.5960  0.1249  2.0625
15767SOL    HW259361   3.031   2.014   5.104 -0.6742  1.0454 -0.6698
15768SOL     OW59362   2.420   3.403   1.190  0.1187 -0.6109  0.1055
15768SOL    HW159363   2.390   3.443   1.103  2.4110  0.7974 -0.0885
15768SOL    HW259364   2.436   3.305   1.178  0.4340 -0.4228 -1.0810
15769SOL     OW59365   0.073   2.295   2.780 -0.1009  0.0764  0.3368
15769SOL    HW159366   0.024   2.321   2.863 -1.6040  0.2831 -0.5906
15769SOL    HW259367   0.136   2.367   2.754  0.4592 -0.0422  1.3692
15770SOL     OW59368   7.221   3.563   3.252  0.6230  0.4527  0.1093
15770SOL    HW159369   7.272   3.553   3.167  1.2911  1.3458  0.3907
15770SOL    HW259370   7.274   3.522   3.327 -0.0228 -0.4555  0.0846
15771SOL     OW59371   9.678   1.431   2.829  0.2143  0.2592 -0.0024
15771SOL    HW159372   9.596   1.374   2.818  1.4805 -1.4502 -0.8212
15771SOL    HW259373   9.718   1.414   2.918 -0.0320  0.7182  0.1969
15772SOL     OW59374   1.789   0.839   5.343  0.0900 -0.1327  0.2093
15772SOL    HW159375   1.875   0.869   5.302 -0.7768 -0.6978 -2.0542
15772SOL    HW259376   1.736   0.919   5.371  0.6814  0.2483  0.2464
15773SOL     OW59377   7.393   3.110   1.121  0.5253  0.3237 -0.4135
15773SOL    HW159378   7.333   3.165   1.179 -0.1839 -0.1857 -0.6522
15773SOL    HW259379   7.358   3.110   1.028  0.4605 -0.6292 -0.3889
15774SOL     OW59380   4.474   0.066   4.803 -0.1702 -0.0602  0.1839
15774SOL    HW159381   4.462   0.115   4.890  2.0068 -1.7504  1.4801
15774SOL    HW259382   4.485   0.133   4.729 -0.8728  1.4042  1.3642
15775SOL     OW59383   8.914   9.331   8.625 -0.5713  0.0835 -0.2818
15775SOL    HW159384   8.976   9.283   8.686 -0.6018  1.6418  1.0085
15775SOL    HW259385   8.958   9.344   8.536  0.4458  0.0391  0.2093
15776SOL     OW59386   3.499   8.851   8.203 -0.1404 -0.0540  0.3234
15776SOL    HW159387   3.404   8.822   8.204 -0.9639  2.3244 -2.3685
15776SOL    HW259388   3.507   8.940   8.248  0.6138  0.3104 -0.5185
15777SOL     OW59389   7.713   1.006   2.964  0.1379  0.3349 -0.4440
15777SOL    HW159390   7.670   1.067   3.031 -0.3995 -1.8368  1.2343
15777SOL    HW259391   7.768   1.060   2.900  1.7234  2.3536  2.5279
15778SOL     OW59392   6.476   1.329   6.738 -0.1100  0.0704  0.1216
15778SOL    HW159393   6.501   1.412   6.688  0.8343  0.7780  1.7469
15778SOL    HW259394   6.546   1.308   6.806 -1.3791 -0.8805  1.1670
15779SOL     OW59395   7.367   3.057   5.199  0.1058 -0.8116  0.9298
15779SOL    HW159396   7.343   2.961   5.181  1.3579 -0.8793 -0.4559
15779SOL    HW259397   7.289   3.115   5.175  0.0897 -1.3181 -0.3068
15780SOL     OW59398   6.229   5.456   0.549  0.7577 -0.0352  0.3593
15780SOL    HW159399   6.234   5.556   0.550  1.1038 -0.0371 -0.7689
15780SOL    HW259400   6.143   5.428   0.506  0.6987 -0.2321  0.6034
15781SOL     OW59401   4.066   6.599   3.482  0.6948  0.4363 -0.5825
15781SOL    HW159402   4.076   6.501   3.496 -0.8322  0.4552  0.8669
15781SOL    HW259403   3.969   6.622   3.475  0.8746  2.1278  1.6471
15782SOL     OW59404   6.193   0.228   2.350  0.2316  0.0461  0.5521
15782SOL    HW159405   6.281   0.197   2.313  0.4968 -0.1597  1.3456
15782SOL    HW259406   6.120   0.205   2.286  0.9255  1.5832 -0.8481
15783SOL     OW59407   8.814   0.573   2.625 -0.2191 -0.2740 -0.0849
15783SOL    HW159408   8.755   0.587   2.704 -0.1992 -0.0397 -0.1121
15783SOL    HW259409   8.905   0.610   2.644 -0.2541 -0.0865 -0.2698
15784SOL     OW59410   3.321   4.828   9.032  0.4323  0.1879 -0.3068
15784SOL    HW159411   3.412   4.829   8.989  0.3400  0.6620 -0.4947
15784SOL    HW259412   3.331   4.837   9.131  0.5896  0.2105 -0.3231
15785SOL     OW59413   8.656   4.933   3.575 -0.0422 -0.1485  0.1937
15785SOL    HW159414   8.746   4.893   3.563 -0.2814 -0.6806  0.1334
15785SOL    HW259415   8.588   4.860   3.586 -0.4901  0.2391  0.0545
15786SOL     OW59416   9.192   9.322   9.075  0.4042  0.6631  0.0298
15786SOL    HW159417   9.238   9.367   8.999 -1.5872  0.9360 -1.0492
15786SOL    HW259418   9.151   9.391   9.134 -2.8227  0.3563 -1.7297
15787SOL     OW59419   3.969   7.520   1.747 -0.1951  0.3506  0.3051
15787SOL    HW159420   3.978   7.446   1.814  0.7515  1.3750  1.3344
15787SOL    HW259421   3.875   7.524   1.714 -0.3896 -0.9516  0.6457
15788SOL     OW59422   9.560   6.951   0.889 -0.4099  0.0053 -0.5799
15788SOL    HW159423   9.511   7.037   0.870 -1.0692  0.0666  1.3071
15788SOL    HW259424   9.516   6.904   0.965  2.3456 -0.0436  1.0559
15789SOL     OW59425   7.297   7.652   4.347 -0.4067 -0.5369 -0.7772
15789SOL    HW159426   7.383   7.695   4.319  1.2347 -1.9885  1.8678
15789SOL    HW259427   7.282   7.569   4.294  0.1211 -0.6026 -0.8220
15790SOL     OW59428   0.443   4.518   1.886 -0.3121  0.3577  0.1712
15790SOL    HW159429   0.521   4.536   1.946 -0.8080  0.5963  0.7496
15790SOL    HW259430   0.461   4.557   1.795 -0.1476  1.2343  0.5757
15791SOL     OW59431   1.413   7.154   4.634 -0.5867 -0.1927  0.1827
15791SOL    HW159432   1.413   7.210   4.551  1.0933 -0.5092 -0.0529
15791SOL    HW259433   1.375   7.064   4.613  0.8506 -0.6498 -0.5314
15792SOL     OW59434   8.875   8.689   8.388 -0.1040  0.1245  0.2536
15792SOL    HW159435   8.827   8.768   8.347  0.3725  0.5627  0.5365
15792SOL    HW259436   8.973   8.701   8.378 -0.0333 -0.4976  0.1982
15793SOL     OW59437   4.915   7.807   2.598 -0.3076 -0.4891  0.1784
15793SOL    HW159438   4.915   7.830   2.695 -1.2263  1.7818 -0.3271
15793SOL    HW259439   4.822   7.813   2.562 -0.0145 -1.5456 -0.7848
15794SOL     OW59440   4.498   0.398   9.998 -0.4636 -0.0888 -0.1911
15794SOL    HW159441   4.539   0.384  10.088 -2.6403  2.5362  1.2663
15794SOL    HW259442   4.567   0.433   9.935  0.8673 -1.1350  0.6515
15795SOL     OW59443   0.359   7.478   0.469 -0.4912 -0.5522 -0.0943
15795SOL    HW159444   0.299   7.552   0.500  1.6621  1.4863 -0.6695
15795SOL    HW259445   0.384   7.494   0.374 -2.1956 -3.5328 -1.1051
15796SOL     OW59446   2.784   4.822   0.803 -0.1793 -0.3658 -0.3299
15796SOL    HW159447   2.794   4.922   0.804 -2.3543 -0.1144 -1.1190
15796SOL    HW259448   2.788   4.789   0.709  0.1928 -0.9859 -0.0970
15797SOL     OW59449   1.045   7.617   1.124 -0.6710 -0.2685  0.0627
15797SOL    HW159450   1.117   7.589   1.188 -0.6260 -2.1538 -0.7550
15797SOL    HW259451   1.080   7.690   1.065 -0.7423  1.5354  2.1870
15798SOL     OW59452   1.989   1.788   8.889 -0.7847 -0.3367  0.3141
15798SOL    HW159453   1.941   1.870   8.857 -1.0330 -0.8691 -0.7042
15798SOL    HW259454   2.071   1.774   8.832 -0.6446 -0.6883  0.6040
15799SOL     OW59455   4.272   6.326   3.531 -0.4869  0.2446  0.0935
15799SOL    HW159456   4.196   6.333   3.596  0.3542  1.9553  0.9126
15799SOL    HW259457   4.334   6.403   3.544  1.6216 -1.3556 -0.2803
15800SOL     OW59458   1.959   5.004   0.689 -0.1016  0.2305  0.0490
15800SOL    HW159459   1.914   4.987   0.602 -0.0387  0.0653  0.0485
15800SOL    HW259460   1.975   4.917   0.736  0.7051  0.2467 -0.1918
15801SOL     OW59461   9.669   2.401   6.239  0.3391 -0.4634  0.2033
15801SOL    HW159462   9.570   2.390   6.250  0.2717  0.0711  0.1527
15801SOL    HW259463   9.703   2.334   6.173 -0.1877  0.1440 -0.7084
15802SOL     OW59464   5.339   2.795   9.893  0.1529  0.3361 -0.3447
15802SOL    HW159465   5.367   2.819   9.800 -1.7896  2.1565 -0.4845
15802SOL    HW259466   5.386   2.855   9.958 -0.2771  0.6161 -0.2968
15803SOL     OW59467   2.915   2.759   7.932  0.5309 -0.0602 -0.1654
15803SOL    HW159468   2.818   2.749   7.910  0.1950 -1.6352  1.8386
15803SOL    HW259469   2.950   2.672   7.968  2.2717  0.9585  0.7025
15804SOL     OW59470   3.690   1.027   5.943  0.5761  0.1058  0.0478
15804SOL    HW159471   3.676   1.060   5.849  0.5392 -2.2316 -0.7964
15804SOL    HW259472   3.787   1.005   5.956  0.8731  1.8945  1.0873
15805SOL     OW59473   5.158   1.653   9.893  0.2763 -1.1382  0.1385
15805SOL    HW159474   5.226   1.669   9.822 -1.4120 -0.2343 -1.3137
15805SOL    HW259475   5.191   1.582   9.956  1.4290 -2.5774 -2.0318
15806SOL     OW59476   1.942   7.462   6.206 -0.2568  0.0814  0.6550
15806SOL    HW159477   1.903   7.554   6.208  2.0944  1.1920 -1.6523
15806SOL    HW259478   2.003   7.450   6.285 -0.9991  0.2648  1.2666
15807SOL     OW59479   3.806   8.793   0.910 -0.1156 -0.2020 -0.1122
15807SOL    HW159480   3.773   8.887   0.911  0.2680 -0.0764  0.9979
15807SOL    HW259481   3.902   8.790   0.938 -0.2829 -0.9791  0.4072
15808SOL     OW59482   1.273   9.913   2.187  0.0140  0.5952 -0.1509
15808SOL    HW159483   1.323   9.925   2.101  0.1848 -2.7901 -0.5857
15808SOL    HW259484   1.175   9.925   2.170  0.1908  1.7196 -0.4262
15809SOL     OW59485   7.126   9.652   5.431 -0.5365 -0.2669  0.1399
15809SOL    HW159486   7.041   9.606   5.407 -0.6113 -0.7067  1.2474
15809SOL    HW259487   7.113   9.751   5.425 -1.0689 -0.3372  0.1436
15810SOL     OW59488   0.747   8.091   6.427 -0.1038  0.1418 -0.0221
15810SOL    HW159489   0.800   8.010   6.453 -0.7123  0.2385  1.5791
15810SOL    HW259490   0.788   8.172   6.468 -0.4315  0.4517 -0.3049
15811SOL     OW59491   3.355   5.666   1.286  0.0674 -0.5517 -0.3336
15811SOL    HW159492   3.353   5.690   1.383  0.1325  1.1423 -0.7312
15811SOL    HW259493   3.442   5.624   1.264  0.4711  0.0309  0.1280
15812SOL     OW59494   9.540   9.406   7.910  0.2246 -0.4799 -0.2635
15812SOL    HW159495   9.448   9.442   7.900  0.1997 -0.5562 -0.3127
15812SOL    HW259496   9.605   9.468   7.866  0.2494 -0.1749  0.2044
15813SOL     OW59497   0.485   4.075   6.711 -0.3541 -0.4199  0.7311
15813SOL    HW159498   0.417   4.103   6.779  1.2976 -0.5808  2.5068
15813SOL    HW259499   0.571   4.124   6.728 -0.2935  0.5597 -2.1138
15814SOL     OW59500   7.777   7.765   4.962  0.5741 -0.6498  1.0202
15814SOL    HW159501   7.819   7.734   5.047  0.6120  0.6684  1.4927
15814SOL    HW259502   7.701   7.827   4.983  0.0728 -0.9456  0.1081
15815SOL     OW59503   4.378   2.454   4.900 -0.6598  0.5777 -0.8334
15815SOL    HW159504   4.363   2.363   4.938  0.6556  0.7674  0.1811
15815SOL    HW259505   4.301   2.479   4.842 -0.8475 -1.3334 -1.4280
15816SOL     OW59506   6.597   9.131   3.108  0.2041  0.4032  1.2105
15816SOL    HW159507   6.512   9.182   3.093 -1.0474 -0.7717  3.9093
15816SOL    HW259508   6.653   9.180   3.174  1.6501  1.1541 -0.5382
15817SOL     OW59509   8.597   8.493   4.038  0.5244  0.2964 -0.2331
15817SOL    HW159510   8.570   8.414   3.984  2.4591 -0.8579  0.4326
15817SOL    HW259511   8.665   8.547   3.989  1.9939 -0.5389  0.8297
15818SOL     OW59512   6.429   0.315   3.145  0.2814  0.0182  0.0865
15818SOL    HW159513   6.423   0.286   3.240 -0.2325 -0.4811 -0.0863
15818SOL    HW259514   6.365   0.260   3.090  0.5606  0.3112 -0.5381
15819SOL     OW59515   3.495   6.986   9.376  0.4809  0.0667  0.1797
15819SOL    HW159516   3.564   6.914   9.386 -0.8204 -1.2042  0.2768
15819SOL    HW259517   3.454   7.005   9.465  0.6031  0.7143  0.0963
15820SOL     OW59518   8.323   7.532   3.834 -0.1704 -0.2129 -0.1096
15820SOL    HW159519   8.394   7.511   3.766 -0.4628  1.4453 -0.9390
15820SOL    HW259520   8.242   7.569   3.788 -0.2539  1.2383  1.1660
15821SOL     OW59521   8.535   9.063   5.218  0.2569  0.4466  0.3001
15821SOL    HW159522   8.608   9.042   5.282  0.4823  0.4792  0.0541
15821SOL    HW259523   8.519   8.983   5.159 -0.4947  0.1294  0.9196
15822SOL     OW59524   7.857   0.253   0.222 -0.3437 -0.2120  0.5746
15822SOL    HW159525   7.767   0.292   0.206 -0.4716  0.5156  2.9391
15822SOL    HW259526   7.927   0.325   0.216 -0.0479 -0.5378  0.0389
15823SOL     OW59527   3.311   2.821   2.226  0.4763 -0.1184 -0.1344
15823SOL    HW159528   3.286   2.877   2.147 -0.7573 -0.4128  0.0433
15823SOL    HW259529   3.339   2.730   2.195 -0.9963 -0.5633 -0.1561
15824SOL     OW59530   2.885   0.579   5.515  0.8552 -0.0076  0.0128
15824SOL    HW159531   2.874   0.638   5.596 -0.9091 -0.0252 -0.1945
15824SOL    HW259532   2.865   0.485   5.541  0.3550 -0.0223 -0.4318
15825SOL     OW59533   9.361   5.400   2.681  0.5019 -0.5997  0.7211
15825SOL    HW159534   9.374   5.311   2.638 -1.5499 -0.2850 -0.6277
15825SOL    HW259535   9.385   5.395   2.778 -0.1686 -2.7719  0.7975
15826SOL     OW59536   5.436   3.096   0.588  0.6224 -0.9238  0.4054
15826SOL    HW159537   5.466   3.159   0.659 -0.4507  0.1880 -0.1229
15826SOL    HW259538   5.361   3.040   0.623 -0.8626  0.6042 -0.3039
15827SOL     OW59539   4.325   5.494   4.036  0.0575  0.1071 -0.3746
15827SOL    HW159540   4.241   5.484   4.090  0.6136 -3.6563 -0.0624
15827SOL    HW259541   4.403   5.508   4.096  0.1178  0.0350 -0.4341
15828SOL     OW59542   8.551   4.697   2.035  0.8072  0.4262 -0.9551
15828SOL    HW159543   8.452   4.704   2.052  0.8084 -2.1010  0.4447
15828SOL    HW259544   8.570   4.720   1.940 -1.3671 -0.5447 -1.6710
15829SOL     OW59545   6.641   9.442   1.829 -0.0423 -0.1280  0.1180
15829SOL    HW159546   6.739   9.438   1.811 -0.0844  1.6708 -0.6145
15829SOL    HW259547   6.605   9.530   1.799 -2.1198 -1.2339 -0.7764
15830SOL     OW59548   0.731   3.979   8.220  0.0440 -0.2518  0.1584
15830SOL    HW159549   0.745   3.904   8.155 -1.9795 -0.0877 -0.5236
15830SOL    HW259550   0.687   3.943   8.303 -0.5748  0.0980 -0.0107
15831SOL     OW59551   4.857   2.921   8.838  0.2445  0.3287 -0.2298
15831SOL    HW159552   4.920   2.938   8.762  0.3646 -0.3542 -0.2919
15831SOL    HW259553   4.846   2.822   8.850 -0.8114  0.4475 -0.2150
15832SOL     OW59554   9.587   7.130   1.280 -0.2772 -0.7151 -0.2217
15832SOL    HW159555   9.511   7.067   1.297 -1.3803  1.2361  2.3219
15832SOL    HW259556   9.673   7.078   1.275 -1.3426 -2.5734  0.3606
15833SOL     OW59557   0.233   3.239   6.628 -0.3771 -0.6323  0.4066
15833SOL    HW159558   0.156   3.303   6.630 -1.5166 -1.9647  0.2124
15833SOL    HW259559   0.250   3.204   6.720 -0.8582 -1.3269  0.2342
15834SOL     OW59560   0.345   4.607   9.385  0.0514 -0.0446  0.0224
15834SOL    HW159561   0.413   4.670   9.347  0.1792 -0.0192  0.2925
15834SOL    HW259562   0.392   4.532   9.432 -0.1130  0.8862  1.7140
15835SOL     OW59563   8.797   5.043   5.469 -0.1759 -0.3867 -0.0968
15835SOL    HW159564   8.716   5.070   5.521  0.3710  1.9354 -0.3874
15835SOL    HW259565   8.843   5.125   5.434  2.1107 -1.6822 -0.2293
15836SOL     OW59566   8.809   7.034   0.421 -0.1484 -0.2358 -0.2129
15836SOL    HW159567   8.780   7.056   0.515  0.4142  0.4199 -0.1968
15836SOL    HW259568   8.731   6.994   0.372 -1.0452  1.2969 -0.0922
15837SOL     OW59569   2.137   3.631   6.440 -0.2200 -0.1013  0.1574
15837SOL    HW159570   2.140   3.708   6.377 -0.3717 -2.3623 -2.7168
15837SOL    HW259571   2.042   3.610   6.463 -0.3449 -0.9877 -1.0998
15838SOL     OW59572   9.111   1.411   2.270 -0.0149 -0.0942  0.1378
15838SOL    HW159573   9.149   1.480   2.208 -1.7720  0.8465  0.0577
15838SOL    HW259574   9.047   1.352   2.220 -0.0784 -0.4674  0.6551
15839SOL     OW59575   0.312   7.613   1.473 -0.4702  0.6362  0.0520
15839SOL    HW159576   0.343   7.519   1.491 -5.1659 -1.0841 -0.1583
15839SOL    HW259577   0.349   7.644   1.385  0.4535 -1.3635 -0.2909
15840SOL     OW59578   8.183   7.575   0.909  1.2958  0.1286  0.4421
15840SOL    HW159579   8.149   7.670   0.910  0.2992 -0.2339  1.6824
15840SOL    HW259580   8.185   7.542   0.814 -1.0399  0.4587  0.2454
15841SOL     OW59581   4.012   5.020   8.098  0.1988 -0.3435  0.2057
15841SOL    HW159582   3.953   5.051   8.023  1.0820  0.3235 -0.2201
15841SOL    HW259583   4.100   4.992   8.061  0.1659 -1.3047  0.8536
15842SOL     OW59584   1.504   2.112   0.211  0.5652 -0.4403  0.0394
15842SOL    HW159585   1.594   2.153   0.197  0.7625 -0.5815  0.8542
15842SOL    HW259586   1.499   2.073   0.303 -0.9814  1.2261  0.6866
15843SOL     OW59587   0.593   6.151   1.465  0.0463  0.2958 -0.0871
15843SOL    HW159588   0.563   6.062   1.431  0.9216 -0.2594  0.5646
15843SOL    HW259589   0.669   6.184   1.408 -0.3414  0.6741 -0.3878
15844SOL     OW59590   3.147   1.256   4.960  0.3154 -0.8559  0.1405
15844SOL    HW159591   3.055   1.241   4.995  0.4628 -1.7416  0.1592
15844SOL    HW259592   3.204   1.177   4.983  0.8499 -0.6960 -0.6446
15845SOL     OW59593   7.191   0.461   5.166 -0.0937  0.0890 -0.7547
15845SOL    HW159594   7.091   0.469   5.165 -0.1009  1.2070  2.2699
15845SOL    HW259595   7.232   0.548   5.142  0.1405 -0.0677 -0.9258
15846SOL     OW59596   5.760   9.191   2.802 -0.4330  0.0243  0.3167
15846SOL    HW159597   5.695   9.229   2.737 -2.1792 -1.5232  1.1262
15846SOL    HW259598   5.750   9.092   2.805  1.7670 -0.2140  0.6903
15847SOL     OW59599   4.334   0.830   2.274  0.3242 -0.1245 -0.6679
15847SOL    HW159600   4.407   0.778   2.229  1.4209  1.5307 -0.8281
15847SOL    HW259601   4.311   0.910   2.218  0.1182  0.7051  0.5987
15848SOL     OW59602   3.493   6.701   9.787  0.4890 -0.2653  0.0398
15848SOL    HW159603   3.520   6.718   9.692  1.2544  0.0992  0.3197
15848SOL    HW259604   3.395   6.716   9.796  0.3024 -0.8969 -0.8261
15849SOL     OW59605   0.944   9.282   4.907  0.6273  0.0461  0.9070
15849SOL    HW159606   0.941   9.197   4.960 -0.1471  0.2519  1.1977
15849SOL    HW259607   0.854   9.326   4.910  1.7727  2.3076  3.0793
15850SOL     OW59608   3.317   0.938   5.701 -0.1583 -0.1121  0.1473
15850SOL    HW159609   3.273   0.853   5.729  0.3565 -0.4299 -0.0009
15850SOL    HW259610   3.341   0.992   5.782 -0.8151  0.0603  0.2282
15851SOL     OW59611   1.435   8.479   7.071  0.0727 -0.2457 -0.1000
15851SOL    HW159612   1.418   8.577   7.082  0.6680 -0.0698 -0.7864
15851SOL    HW259613   1.402   8.431   7.153 -0.0926  0.5365  0.2994
15852SOL     OW59614   8.154   5.499   6.852 -0.0153 -0.4180 -0.2058
15852SOL    HW159615   8.112   5.508   6.761 -0.4946 -0.5656  0.0007
15852SOL    HW259616   8.177   5.590   6.887 -0.3320 -0.3209 -0.2428
15853SOL     OW59617   5.115   2.485   1.506 -0.0574  0.0638  0.2946
15853SOL    HW159618   5.169   2.435   1.573 -0.1918 -0.7109 -0.1765
15853SOL    HW259619   5.143   2.581   1.506  1.0624 -0.2543  0.3260
15854SOL     OW59620   7.632   3.020   3.309 -0.0393 -0.1523  0.9435
15854SOL    HW159621   7.681   3.094   3.355 -0.4960 -0.7357  2.4173
15854SOL    HW259622   7.595   2.957   3.378  0.6907 -1.9827 -0.2956
15855SOL     OW59623   9.790   1.558   2.114  0.4311  0.0545  0.3964
15855SOL    HW159624   9.847   1.479   2.135  2.2478  1.6341  1.6102
15855SOL    HW259625   9.804   1.585   2.019  1.1264 -0.0722  0.4548
15856SOL     OW59626   4.240   5.845   4.183  0.1607 -0.3072 -0.9336
15856SOL    HW159627   4.256   5.790   4.265 -1.7607 -0.7711 -0.8289
15856SOL    HW259628   4.316   5.832   4.119  1.4291 -0.3277  0.5512
15857SOL     OW59629   0.127   5.355   9.753  0.8050  1.0347  0.2672
15857SOL    HW159630   0.188   5.390   9.682  1.0339  0.9147  0.4063
15857SOL    HW259631   0.181   5.318   9.828  0.5716  0.0517 -0.0371
15858SOL     OW59632   9.129   4.384   8.435 -0.3330 -0.5836 -0.0872
15858SOL    HW159633   9.140   4.368   8.337 -0.6914 -0.6591 -0.1157
15858SOL    HW259634   9.219   4.383   8.479 -0.2833 -2.0211 -0.1917
15859SOL     OW59635   8.051   7.822   3.048  0.1610  0.4616 -0.2568
15859SOL    HW159636   8.084   7.730   3.067 -0.4322 -0.3033 -2.7584
15859SOL    HW259637   8.129   7.884   3.039  0.5238  0.5087  2.6478
15860SOL     OW59638   9.384   9.929   7.045  0.0099 -0.3238  0.3095
15860SOL    HW159639   9.367   9.870   7.124  0.7519 -0.9435  0.0062
15860SOL    HW259640   9.479   9.961   7.046  0.3509 -1.2596 -0.9422
15861SOL     OW59641   8.266   4.607   1.972  0.1337 -0.5360  0.5903
15861SOL    HW159642   8.204   4.665   2.024 -0.6282 -1.5021  0.7841
15861SOL    HW259643   8.305   4.659   1.896  0.0203  0.4234  1.1842
15862SOL     OW59644   4.049   7.417   2.128 -0.8110  0.1425  0.4289
15862SOL    HW159645   4.092   7.504   2.153  0.6510 -0.5775  0.4633
15862SOL    HW259646   4.070   7.349   2.198 -2.0882 -0.1965  0.4783
15863SOL     OW59647   2.797   6.820   4.768  0.8875 -0.0037  0.6633
15863SOL    HW159648   2.709   6.775   4.759 -0.8228  2.9242  2.1118
15863SOL    HW259649   2.844   6.821   4.680  0.3939 -3.2988  0.3086
15864SOL     OW59650   3.854   3.760   6.167 -0.1953 -0.0498  0.2383
15864SOL    HW159651   3.923   3.832   6.168 -0.5206  0.2598  0.7920
15864SOL    HW259652   3.899   3.671   6.179  0.1126  0.1469  0.5490
15865SOL     OW59653   0.590   8.423   1.695  0.2932 -0.0539 -0.0746
15865SOL    HW159654   0.587   8.337   1.644  0.0477 -0.2512  0.2680
15865SOL    HW259655   0.530   8.490   1.651  1.8078  0.5057 -1.3409
15866SOL     OW59656   4.588   1.872   7.653 -0.3469  0.1819 -0.3500
15866SOL    HW159657   4.509   1.813   7.667  0.6999 -0.9195  1.0520
15866SOL    HW259658   4.601   1.888   7.555 -2.2507  0.3193 -0.5923
15867SOL     OW59659   8.361   8.591   8.988 -0.4540  0.6050  0.4652
15867SOL    HW159660   8.452   8.551   8.995 -0.4595  0.7520  1.5523
15867SOL    HW259661   8.331   8.621   9.079 -0.8442  2.1979 -0.1634
15868SOL     OW59662   3.918   7.613   3.227  0.3814  0.3150 -0.2381
15868SOL    HW159663   3.996   7.668   3.197  0.0285  0.4282 -0.9379
15868SOL    HW259664   3.873   7.573   3.148 -1.0916  1.3356  0.0757
15869SOL     OW59665   4.084   9.708   7.231  0.0114  0.1959  0.1803
15869SOL    HW159666   4.135   9.700   7.317  0.3263 -1.3152 -0.1389
15869SOL    HW259667   4.122   9.783   7.177  1.4997 -0.5113  0.2232
15870SOL     OW59668   7.235   5.162   7.065 -0.6950 -0.3473  0.6449
15870SOL    HW159669   7.294   5.218   7.124  3.0318 -1.7747 -1.6117
15870SOL    HW259670   7.221   5.073   7.108  0.5993 -0.7823  0.1654
15871SOL     OW59671   4.102   4.091   9.995 -0.6401 -0.5617  1.0117
15871SOL    HW159672   4.050   4.158   9.943 -0.9934 -0.6891  1.1957
15871SOL    HW259673   4.199   4.098   9.972 -0.6034  0.3758  1.4217
15872SOL     OW59674   8.738   1.188   9.239  0.0126  0.1557 -0.3060
15872SOL    HW159675   8.821   1.206   9.291  1.1713  1.0348 -2.3680
15872SOL    HW259676   8.708   1.094   9.254  1.1773 -0.0492  0.7462
15873SOL     OW59677   6.185   7.540   3.384 -0.1212  0.1127 -0.0370
15873SOL    HW159678   6.094   7.568   3.414 -0.6786 -0.8387 -0.7898
15873SOL    HW259679   6.199   7.570   3.289  0.2439  0.0424 -0.0047
15874SOL     OW59680   7.101   6.453   9.352  0.7238 -0.0624 -0.4043
15874SOL    HW159681   7.003   6.475   9.345  0.7245 -0.2253 -0.9170
15874SOL    HW259682   7.112   6.354   9.362  0.7325  0.1190  1.6974
15875SOL     OW59683   1.447   0.007   4.540 -0.3260  0.0026 -0.7179
15875SOL    HW159684   1.469   0.022   4.636 -0.6353  1.5623 -0.8787
15875SOL    HW259685   1.532   0.002   4.487 -0.1079 -1.9182 -0.2453
15876SOL     OW59686   8.361   4.933   2.302  0.7672  0.6067  0.2782
15876SOL    HW159687   8.338   5.009   2.364  0.9557  0.0806  0.9943
15876SOL    HW259688   8.457   4.938   2.277  0.9724  0.1603  0.9531
15877SOL     OW59689   7.317   6.225   6.103  0.0545  0.4484  0.4549
15877SOL    HW159690   7.388   6.278   6.150 -0.0889 -0.1872  1.4038
15877SOL    HW259691   7.233   6.278   6.098  0.6978  1.3660 -1.0312
15878SOL     OW59692   8.083   1.524   8.792 -0.0081  0.2159 -0.2679
15878SOL    HW159693   8.093   1.587   8.715  0.3982  0.3230 -0.1252
15878SOL    HW259694   8.173   1.498   8.826 -0.1653 -0.8275 -0.6395
15879SOL     OW59695   8.878   0.141   2.449 -0.2199 -0.4906 -0.3704
15879SOL    HW159696   8.920   0.123   2.360  0.7870 -0.6727  0.1330
15879SOL    HW259697   8.868   0.240   2.462 -2.2803 -0.5197 -1.5458
15880SOL     OW59698   7.979   6.681   2.199 -0.4673 -0.3147  0.0619
15880SOL    HW159699   8.057   6.625   2.226  0.7731  0.5375 -1.6404
15880SOL    HW259700   7.935   6.642   2.119 -0.6583  0.2202 -0.0988
15881SOL     OW59701   7.890   1.721   0.246 -0.4852  0.2922 -0.3005
15881SOL    HW159702   7.822   1.732   0.319 -1.5053  0.9376 -1.3224
15881SOL    HW259703   7.884   1.799   0.184  1.4486  0.5249 -0.2095
15882SOL     OW59704   7.916   1.350   0.170  0.1907  0.1581 -0.0079
15882SOL    HW159705   7.964   1.367   0.084  1.7259 -2.9635  0.1349
15882SOL    HW259706   7.982   1.325   0.241 -1.4814 -4.2850  0.1956
15883SOL     OW59707   7.734   5.888   9.012 -0.1763  0.3872 -0.4659
15883SOL    HW159708   7.775   5.887   8.920  0.6024 -0.5918 -0.1115
15883SOL    HW259709   7.757   5.804   9.060 -0.5808  0.8982  0.6414
15884SOL     OW59710   9.910   2.367   0.563 -0.1802 -0.1457 -0.3185
15884SOL    HW159711   9.927   2.286   0.505 -0.5975  0.1235 -0.8203
15884SOL    HW259712   9.819   2.360   0.604 -0.2150  0.0612 -0.3585
15885SOL     OW59713   1.901   5.731   6.948 -0.0738  0.5144  0.6203
15885SOL    HW159714   1.858   5.640   6.949 -1.1213  0.9125 -2.1995
15885SOL    HW259715   1.986   5.728   7.001  0.2682 -2.3240  0.0368
15886SOL     OW59716   7.675   1.639   8.177 -0.3564 -0.3884  0.2783
15886SOL    HW159717   7.751   1.575   8.180  0.9718  1.1738  1.3039
15886SOL    HW259718   7.588   1.590   8.185  0.5264 -2.2182 -1.2225
15887SOL     OW59719   0.551   0.879   3.793  0.2459 -0.3475 -0.0204
15887SOL    HW159720   0.571   0.868   3.695 -3.1997 -1.9182 -0.6030
15887SOL    HW259721   0.493   0.804   3.824 -1.8854  2.1675  2.3333
15888SOL     OW59722   1.466   9.471   1.003  0.0230  0.2986  0.0886
15888SOL    HW159723   1.510   9.421   1.078 -1.3310 -0.2893  0.5091
15888SOL    HW259724   1.375   9.501   1.032  0.4414  2.2003 -0.4907
15889SOL     OW59725   9.221   3.929   7.181  0.0919  0.6774  0.0828
15889SOL    HW159726   9.290   3.861   7.206  0.1949  1.0244  0.7715
15889SOL    HW259727   9.158   3.890   7.114 -0.1696 -0.2699  0.8704
15890SOL     OW59728   4.721   9.457   0.990 -0.6103  0.0166 -0.5973
15890SOL    HW159729   4.631   9.418   0.970 -0.1826 -2.0308  1.2722
15890SOL    HW259730   4.723   9.491   1.084  0.7748 -0.5665 -0.4005
15891SOL     OW59731   1.685   1.262   4.203  0.1719 -0.2976  0.1500
15891SOL    HW159732   1.683   1.356   4.238  1.2849 -0.3060  0.2507
15891SOL    HW259733   1.616   1.207   4.251  0.7844  0.0216  1.4166
15892SOL     OW59734   3.413   6.502   8.500  0.1127  0.8433  0.4511
15892SOL    HW159735   3.316   6.481   8.516  0.1005  0.6236  0.0961
15892SOL    HW259736   3.460   6.510   8.588 -0.2126  0.8692  0.6234
15893SOL     OW59737   9.927   8.022   9.161 -0.3113 -0.0179  0.5570
15893SOL    HW159738  10.014   7.973   9.166 -0.4224 -0.2244  0.4849
15893SOL    HW259739   9.871   7.983   9.087 -0.9224 -0.6384  1.3391
15894SOL     OW59740   8.149   9.747   3.916  0.4162 -0.0200 -0.5649
15894SOL    HW159741   8.199   9.826   3.951 -1.4400  1.8279 -2.0226
15894SOL    HW259742   8.185   9.722   3.826  0.4942 -0.3685 -0.4378
15895SOL     OW59743   1.967   4.378   4.073  0.3274  0.1150 -0.2149
15895SOL    HW159744   1.997   4.361   4.167 -0.7175 -0.3142  0.0504
15895SOL    HW259745   2.013   4.314   4.011  0.5090 -0.0534  0.0923
15896SOL     OW59746   8.473   2.323   0.137  0.0516  0.4973 -0.5396
15896SOL    HW159747   8.440   2.239   0.180 -1.7163  1.2369 -0.4297
15896SOL    HW259748   8.566   2.342   0.169 -0.3646 -0.2289  1.1527
15897SOL     OW59749   0.078   4.548   9.379 -0.5538 -0.6007 -0.4383
15897SOL    HW159750   0.056   4.451   9.382  0.1243 -0.7741 -0.9571
15897SOL    HW259751   0.177   4.560   9.374 -0.6385  0.1090 -0.5010
15898SOL     OW59752   2.777   1.433   5.186  0.0608  0.0637 -0.3756
15898SOL    HW159753   2.699   1.493   5.166 -0.3814 -0.6958 -0.9635
15898SOL    HW259754   2.775   1.406   5.282  1.1215  2.2169  0.2663
15899SOL     OW59755   9.364   8.743   8.668  0.3156 -0.3107  0.0959
15899SOL    HW159756   9.399   8.649   8.667 -2.0987 -1.2295 -0.0628
15899SOL    HW259757   9.276   8.745   8.714  1.4346  2.3104  2.2703
15900SOL     OW59758   0.526   8.184   9.835 -0.1422  0.1372  1.3611
15900SOL    HW159759   0.486   8.187   9.927 -0.4352  1.1564  1.2060
15900SOL    HW259760   0.509   8.270   9.789  1.7495  0.3771  1.0771
15901SOL     OW59761   2.533   5.851   1.778 -0.0496  0.0521  0.1812
15901SOL    HW159762   2.574   5.936   1.746 -1.1373  0.1576 -0.9594
15901SOL    HW259763   2.605   5.788   1.806  0.8733  0.4241 -1.3170
15902SOL     OW59764   1.237   9.075   8.386 -0.0700  0.5937 -0.5393
15902SOL    HW159765   1.333   9.046   8.394 -0.0690  0.8401  0.3183
15902SOL    HW259766   1.195   9.026   8.309  0.6005  0.1135 -0.6131
15903SOL     OW59767   3.374   6.363   0.329  0.1399  0.0729 -0.6070
15903SOL    HW159768   3.330   6.446   0.294 -1.1081  0.0283  0.7810
15903SOL    HW259769   3.319   6.325   0.404  0.9656 -1.7325 -0.8865
15904SOL     OW59770   4.779   3.874   5.535  0.3450 -0.1760 -0.1229
15904SOL    HW159771   4.696   3.912   5.497 -0.5285 -0.7642  1.1526
15904SOL    HW259772   4.859   3.920   5.496 -0.5344 -0.3117 -2.1029
15905SOL     OW59773   1.658   2.123   3.928  0.4078 -0.4686  0.2297
15905SOL    HW159774   1.700   2.082   3.846 -1.5874 -0.6817 -0.7150
15905SOL    HW259775   1.647   2.053   3.998 -0.8785 -1.0555 -0.5381
15906SOL     OW59776   4.914   6.531   9.642 -0.0225 -0.2488 -0.0068
15906SOL    HW159777   4.992   6.559   9.699 -1.4107 -0.1598  1.8992
15906SOL    HW259778   4.881   6.609   9.591 -0.0202  0.1570  0.5999
15907SOL     OW59779   1.851   9.353   4.929  0.6018 -0.5884  0.0630
15907SOL    HW159780   1.845   9.343   5.029  0.5984  0.0908  0.1330
15907SOL    HW259781   1.877   9.266   4.889  0.4666 -0.9059  0.6491
15908SOL     OW59782   5.689   3.394   9.781  0.1257 -0.1637  0.2918
15908SOL    HW159783   5.682   3.486   9.742 -0.2302 -0.7397 -1.0278
15908SOL    HW259784   5.765   3.391   9.846  0.7848  0.7922 -0.4205
15909SOL     OW59785   0.156   2.012   3.191  0.2965 -0.3654  0.1867
15909SOL    HW159786   0.239   1.991   3.138  1.4935  0.2459  1.7758
15909SOL    HW259787   0.077   1.971   3.145  1.7089 -2.6732 -0.3266
15910SOL     OW59788   2.655   1.860   0.638 -0.2196  0.1121  0.3557
15910SOL    HW159789   2.721   1.913   0.691 -0.7190 -0.6916  1.8116
15910SOL    HW259790   2.680   1.763   0.642  0.2512  0.1299 -1.6481
15911SOL     OW59791   2.528   7.508   5.520  0.1042 -0.3691  0.2561
15911SOL    HW159792   2.444   7.497   5.468  0.3473  0.9808 -0.4553
15911SOL    HW259793   2.568   7.419   5.539 -0.5623 -0.9268 -0.9205
15912SOL     OW59794   3.827   0.427   1.252 -0.1707  0.4025 -0.3210
15912SOL    HW159795   3.868   0.340   1.276  0.3640  0.9509  0.7845
15912SOL    HW259796   3.815   0.433   1.153  0.7646 -0.4860 -0.4836
15913SOL     OW59797   1.347   9.300   6.454  0.2729  0.0120 -0.4702
15913SOL    HW159798   1.255   9.266   6.473  0.2525  0.6409  0.5858
15913SOL    HW259799   1.414   9.233   6.484  0.2091  0.4980  0.7759
15914SOL     OW59800   0.959   8.923   0.691 -0.3324  0.5919 -0.0470
15914SOL    HW159801   0.903   8.982   0.749 -0.9005 -0.4413  0.4615
15914SOL    HW259802   0.911   8.905   0.605 -0.9709 -0.6504  0.5701
15915SOL     OW59803   4.364   8.212   0.763  0.0433  0.0490  0.4573
15915SOL    HW159804   4.367   8.211   0.663 -0.7439 -0.2034  0.4341
15915SOL    HW259805   4.401   8.126   0.799 -1.6519 -0.7392  0.3270
15916SOL     OW59806   5.411   3.502   0.565  1.2525 -0.0825 -0.6556
15916SOL    HW159807   5.423   3.425   0.503 -1.8422 -1.5053  0.4526
15916SOL    HW259808   5.350   3.570   0.523 -1.4489 -1.3856  1.0228
15917SOL     OW59809   9.312   9.219   6.840 -0.0830  0.6485  0.2737
15917SOL    HW159810   9.309   9.141   6.776 -0.5619  0.6130  0.3329
15917SOL    HW259811   9.354   9.297   6.795  0.4465  0.3401  0.2268
15918SOL     OW59812   7.989   3.573   3.125 -0.3530  0.3413 -0.2696
15918SOL    HW159813   7.931   3.539   3.051  0.6548  0.5625 -1.1660
15918SOL    HW259814   8.008   3.670   3.110  0.9689  0.0604 -0.4497
15919SOL     OW59815   6.235   1.037   3.832  0.2378 -0.2804 -0.0727
15919SOL    HW159816   6.219   0.956   3.888 -0.1295 -1.6012 -2.0338
15919SOL    HW259817   6.150   1.089   3.824  1.0045  1.5952  3.0817
15920SOL     OW59818   3.997   8.276   9.885 -0.9892  0.2304  0.2702
15920SOL    HW159819   4.000   8.286   9.786 -1.2114  0.9679  0.3345
15920SOL    HW259820   4.048   8.194   9.912  0.6601  1.0577 -0.2892
15921SOL     OW59821   9.250   0.460   3.452 -0.1840 -0.2566 -0.1879
15921SOL    HW159822   9.232   0.385   3.389 -1.0040  1.6869 -2.3303
15921SOL    HW259823   9.343   0.451   3.488 -0.8170 -3.1680  0.8660
15922SOL     OW59824   3.149   8.097   0.529  0.0458 -0.2902  0.0295
15922SOL    HW159825   3.097   8.019   0.495  0.8717 -0.5782 -0.5929
15922SOL    HW259826   3.224   8.064   0.586 -0.0616  0.0923  0.3943
15923SOL     OW59827   7.420   1.545   8.179  0.4062 -0.2848 -0.6476
15923SOL    HW159828   7.417   1.447   8.162  1.3514 -0.1140 -1.9180
15923SOL    HW259829   7.372   1.566   8.264 -0.1591 -1.7904 -0.5798
15924SOL     OW59830   0.858   3.046   4.512  0.0875  0.0479 -0.3083
15924SOL    HW159831   0.759   3.051   4.525 -0.1219 -1.0037 -1.4150
15924SOL    HW259832   0.882   3.089   4.425  0.6047  0.3204 -0.0302
15925SOL     OW59833   2.375   4.766   4.522 -0.3501 -0.6549 -0.0729
15925SOL    HW159834   2.375   4.809   4.432  0.9402 -0.4971 -0.0089
15925SOL    HW259835   2.340   4.830   4.590  1.4665  0.2959  0.0083
15926SOL     OW59836   9.893   3.555   7.311 -0.2246  0.1715  0.3869
15926SOL    HW159837   9.933   3.591   7.396 -0.6350 -0.7538  0.9794
15926SOL    HW259838   9.964   3.546   7.242  0.3725 -0.3682  1.0694
15927SOL     OW59839   2.473   7.207   5.339 -0.0588  0.0810  0.1451
15927SOL    HW159840   2.479   7.121   5.287 -0.7262  0.2378 -0.2039
15927SOL    HW259841   2.526   7.199   5.423  1.7890  0.1425 -0.9918
15928SOL     OW59842   6.550   0.762   1.793  0.6843  0.9275  0.5076
15928SOL    HW159843   6.490   0.788   1.718  1.5726  1.0530 -0.1703
15928SOL    HW259844   6.527   0.815   1.875 -0.8188  0.2001  0.5580
15929SOL     OW59845   4.530   9.854   9.570 -0.3899 -0.3015  0.0503
15929SOL    HW159846   4.452   9.835   9.511  0.0135  0.6925 -0.8321
15929SOL    HW259847   4.610   9.875   9.513  0.2545 -0.2945  0.9456
15930SOL     OW59848   1.717   7.906   8.010 -1.0267 -0.1923 -0.2178
15930SOL    HW159849   1.695   7.972   7.938 -0.6369 -0.3900 -0.5169
15930SOL    HW259850   1.786   7.945   8.070 -1.3337 -0.0372  0.0384
15931SOL     OW59851   6.980   3.283   8.934  0.0320 -0.0038  0.1537
15931SOL    HW159852   6.985   3.353   8.863 -1.9621  1.1865  1.1200
15931SOL    HW259853   6.926   3.205   8.901 -1.1772  0.6943  0.4423
15932SOL     OW59854   3.364   2.047   2.240 -0.0040  0.9208  0.4011
15932SOL    HW159855   3.353   1.971   2.304  0.1853  0.3395 -0.2407
15932SOL    HW259856   3.458   2.048   2.206 -0.1748  1.0568 -0.0737
15933SOL     OW59857   1.272   4.120   6.744 -0.3581 -0.2321 -0.0527
15933SOL    HW159858   1.239   4.175   6.821  0.7000  0.0046  0.2278
15933SOL    HW259859   1.274   4.177   6.662 -0.8471 -0.3055 -0.1193
15934SOL     OW59860   4.450   7.662   0.437  0.4291 -0.0272 -0.4885
15934SOL    HW159861   4.365   7.610   0.449 -0.1159  0.9470 -0.0476
15934SOL    HW259862   4.527   7.607   0.470 -0.2935 -0.0516  1.2254
15935SOL     OW59863   8.549   1.266   1.274 -0.7349 -0.0530  0.0044
15935SOL    HW159864   8.585   1.274   1.367 -0.1328  0.3682 -0.2628
15935SOL    HW259865   8.449   1.257   1.278 -0.6930 -0.2356  0.7007
15936SOL     OW59866   1.565   2.772   3.076  0.0923 -0.4366  0.3799
15936SOL    HW159867   1.503   2.702   3.110  1.4414 -1.7590  0.1251
15936SOL    HW259868   1.612   2.815   3.153 -0.0531 -0.4308  0.4661
15937SOL     OW59869   8.407   1.139   3.987 -0.1830  0.2365  0.3790
15937SOL    HW159870   8.327   1.200   3.985  0.2961  0.8348 -1.3904
15937SOL    HW259871   8.449   1.143   4.077 -0.2871  2.3939  0.3643
15938SOL     OW59872   3.951   4.293   8.206 -0.3433 -0.3670 -0.6542
15938SOL    HW159873   3.856   4.276   8.230 -0.0339  1.0990  1.7165
15938SOL    HW259874   4.011   4.249   8.273  0.6312 -0.1381 -1.3660
15939SOL     OW59875   1.492   3.914   1.462 -0.0645  0.9673 -0.2481
15939SOL    HW159876   1.396   3.943   1.471  0.1281  1.3801  0.5183
15939SOL    HW259877   1.526   3.885   1.552  0.4199  0.4602 -0.5919
15940SOL     OW59878   5.054   2.484   7.139  0.2258 -0.4847  0.0435
15940SOL    HW159879   5.127   2.536   7.182 -0.2311 -0.0632  0.3151
15940SOL    HW259880   5.000   2.438   7.209  0.5433 -1.2161 -0.1872
15941SOL     OW59881   3.780   4.937   0.734 -0.0782  0.3193  0.0645
15941SOL    HW159882   3.689   4.899   0.751  0.2619 -0.6036 -0.1034
15941SOL    HW259883   3.800   4.933   0.636  0.7516 -0.9479  0.2659
15942SOL     OW59884   9.248   6.632   8.551  0.1246  0.0466  0.7130
15942SOL    HW159885   9.326   6.570   8.557 -0.8033 -1.1476  0.5058
15942SOL    HW259886   9.207   6.643   8.641  0.0074  0.0111  0.6632
15943SOL     OW59887   0.203   4.028   4.985 -0.5028 -0.7260  0.1298
15943SOL    HW159888   0.191   4.099   4.916  1.9472  0.2032  0.6020
15943SOL    HW259889   0.235   4.070   5.070 -2.0861 -2.0225  1.3994
15944SOL     OW59890   7.060   2.329   0.251  0.2036 -0.0276 -0.4241
15944SOL    HW159891   7.037   2.237   0.282  1.2798 -0.4636 -0.8857
15944SOL    HW259892   7.081   2.327   0.154 -1.0559  0.9513 -0.7383
15945SOL     OW59893   8.611   5.750   5.954 -0.3731 -0.5613  0.3313
15945SOL    HW159894   8.674   5.808   6.005 -2.3388  0.6449  1.4788
15945SOL    HW259895   8.539   5.808   5.914 -0.8163 -1.9097 -0.8349
15946SOL     OW59896   4.055   2.254   1.928  0.1224  0.1471  0.0089
15946SOL    HW159897   4.060   2.327   1.996 -2.1455  0.1550  0.2125
15946SOL    HW259898   3.975   2.197   1.946  0.3148 -0.7343 -1.7853
15947SOL     OW59899   1.541   9.689   1.552 -0.3120 -1.3477 -0.3231
15947SOL    HW159900   1.549   9.659   1.457 -0.9294 -2.2117 -0.1071
15947SOL    HW259901   1.457   9.651   1.591 -0.9874  0.4568  0.0218
15948SOL     OW59902   8.700   7.834   9.533  0.0795  0.4766  0.0401
15948SOL    HW159903   8.615   7.821   9.482 -0.6208  0.8304  1.1191
15948SOL    HW259904   8.716   7.754   9.591 -0.2669  1.0371  0.9197
15949SOL     OW59905   1.118   4.678   1.847  0.5541 -0.0294  0.1197
15949SOL    HW159906   1.148   4.773   1.847  0.0032  0.1478  0.6306
15949SOL    HW259907   1.065   4.660   1.765  1.7791 -0.2591 -0.6329
15950SOL     OW59908   4.684   0.618   7.367 -0.0804 -0.5730  0.1682
15950SOL    HW159909   4.604   0.662   7.325 -0.0401  1.3506  2.0229
15950SOL    HW259910   4.739   0.576   7.296 -0.6051  1.6482 -1.6260
15951SOL     OW59911   9.827   3.283   8.801  0.1419  0.1345  0.8431
15951SOL    HW159912   9.861   3.190   8.814 -1.5040 -0.4184  1.2691
15951SOL    HW259913   9.745   3.281   8.743 -1.1215  1.1057  2.5721
15952SOL     OW59914   7.243   2.756   1.979  0.1333 -0.3325 -0.3454
15952SOL    HW159915   7.297   2.684   2.023  1.7993  0.8062 -0.4850
15952SOL    HW259916   7.223   2.729   1.885  0.1275 -0.9436 -0.1685
15953SOL     OW59917   9.916   2.474   6.673 -0.3398  0.3639  0.2678
15953SOL    HW159918   9.970   2.505   6.751  0.4488 -2.9590  1.0966
15953SOL    HW259919   9.820   2.465   6.699 -0.4280  1.1639  0.2543
15954SOL     OW59920   8.633   8.809   0.706  0.1506  0.3680 -0.4872
15954SOL    HW159921   8.541   8.820   0.668 -0.3886  1.2992  1.0348
15954SOL    HW259922   8.699   8.801   0.632 -0.9493  1.4860 -1.6109
15955SOL     OW59923   1.648   2.054   5.583 -0.2400  0.3269  0.6355
15955SOL    HW159924   1.559   2.019   5.614 -1.1360  1.8178 -0.1884
15955SOL    HW259925   1.696   2.097   5.659 -0.7709  0.6071  0.8145
15956SOL     OW59926   8.402   1.623   4.162 -0.0990 -0.7271 -0.0149
15956SOL    HW159927   8.392   1.601   4.065  1.0351 -0.0136 -0.3005
15956SOL    HW259928   8.465   1.700   4.173 -2.0687  0.7758  1.1470
15957SOL     OW59929   7.394   5.784   2.684 -0.0674  0.5693 -0.2214
15957SOL    HW159930   7.344   5.808   2.600 -0.2962  1.5512  0.1886
15957SOL    HW259931   7.482   5.832   2.685 -0.2973  0.9841  0.3534
15958SOL     OW59932   1.345   1.259   7.982  0.1596  0.3424  0.2415
15958SOL    HW159933   1.444   1.263   7.971  0.1469  0.4422  0.1526
15958SOL    HW259934   1.321   1.195   8.055  0.2584 -0.1700 -0.1711
15959SOL     OW59935   4.002   3.901   7.397 -0.5009  0.1694  0.0074
15959SOL    HW159936   4.100   3.890   7.383 -0.5328  0.1191 -0.1778
15959SOL    HW259937   3.954   3.891   7.310 -0.4982  2.2045 -0.2596
15960SOL     OW59938   1.284   0.267   1.229  0.0588  0.1475 -0.0640
15960SOL    HW159939   1.329   0.295   1.314 -0.8884  1.9435 -0.1328
15960SOL    HW259940   1.343   0.287   1.151  1.4998 -2.7277  0.2195
15961SOL     OW59941   9.595   4.349   3.768  0.2421  0.2703 -0.6875
15961SOL    HW159942   9.627   4.312   3.855 -1.2729  1.0841  0.2488
15961SOL    HW259943   9.652   4.426   3.741  1.2239 -0.5009 -0.8425
15962SOL     OW59944   9.543   5.074   4.051  0.6384  0.3490  0.2286
15962SOL    HW159945   9.486   5.121   4.119 -0.7389  1.1471 -1.4498
15962SOL    HW259946   9.627   5.127   4.037 -0.2960  1.6110 -0.6584
15963SOL     OW59947   7.920   5.115   1.597 -0.8055  0.4516  0.0354
15963SOL    HW159948   7.872   5.106   1.510 -1.3030  0.1673  0.3362
15963SOL    HW259949   7.981   5.036   1.610  0.9556  1.5937 -1.0800
15964SOL     OW59950   0.137   1.604   0.050  0.0252 -0.3950  0.3972
15964SOL    HW159951   0.099   1.692   0.079 -1.3647 -0.2428 -1.7232
15964SOL    HW259952   0.144   1.543   0.128 -2.1690  0.4926  1.3298
15965SOL     OW59953   0.859   4.190   1.298  0.6330 -0.2505  0.5117
15965SOL    HW159954   0.813   4.135   1.228 -0.6984 -0.8343  1.8322
15965SOL    HW259955   0.923   4.253   1.254 -1.3014  0.4711 -1.3456
15966SOL     OW59956   0.632   6.945   0.893 -0.4781  0.0649  0.0947
15966SOL    HW159957   0.666   6.945   0.800 -0.1746 -0.7660  0.2003
15966SOL    HW259958   0.590   6.856   0.913  0.5042 -0.1809  1.1203
15967SOL     OW59959   5.123   9.229   8.287 -0.0906  0.2659  0.5019
15967SOL    HW159960   5.099   9.296   8.216 -1.0020 -0.0699  0.4873
15967SOL    HW259961   5.080   9.255   8.373  0.5972  0.3944  0.8017
15968SOL     OW59962   7.650   2.031   4.407 -0.5008 -0.4570  0.2930
15968SOL    HW159963   7.736   2.078   4.427  0.2586 -1.5695 -0.2830
15968SOL    HW259964   7.585   2.095   4.367  0.7941 -0.0675 -1.2467
15969SOL     OW59965   2.834   8.105   5.274 -0.0950  0.1332 -0.5529
15969SOL    HW159966   2.872   8.117   5.366 -0.2847 -2.8721 -0.0256
15969SOL    HW259967   2.735   8.119   5.276 -0.4700 -2.4123  0.2648
15970SOL     OW59968   0.229   3.803   1.688  0.1334  0.6840  0.0849
15970SOL    HW159969   0.246   3.868   1.762 -1.4093  1.3350 -0.1095
15970SOL    HW259970   0.231   3.850   1.600 -3.8230  1.1166  0.1259
15971SOL     OW59971   0.402   9.072   2.287  0.3486  0.4959  0.0563
15971SOL    HW159972   0.482   9.071   2.346 -0.9147 -0.0531  1.7898
15971SOL    HW259973   0.414   9.142   2.216  1.8029  1.2761  1.0519
15972SOL     OW59974   4.179   4.057   9.192  0.2674  0.0999 -1.1062
15972SOL    HW159975   4.256   3.994   9.178  2.0823  1.8283  0.8095
15972SOL    HW259976   4.135   4.075   9.104  2.3744 -0.4970 -2.3217
15973SOL     OW59977   3.504   2.681   4.856 -0.4707 -0.4006  0.0503
15973SOL    HW159978   3.422   2.650   4.808  0.5843 -1.4013 -1.1462
15973SOL    HW259979   3.555   2.602   4.890 -0.3557  0.2392  1.3999
15974SOL     OW59980   5.693   0.366   5.968  0.1931  0.0888  0.0512
15974SOL    HW159981   5.767   0.322   6.019  0.5587  0.6556  0.0171
15974SOL    HW259982   5.614   0.305   5.965  0.4814 -0.3161  0.5232
15975SOL     OW59983   6.687   7.649   4.903  0.5166 -0.3044 -0.2604
15975SOL    HW159984   6.719   7.733   4.858 -0.5222 -0.6440 -1.6848
15975SOL    HW259985   6.641   7.672   4.989  0.4640  0.5704 -0.5216
15976SOL     OW59986   8.114   5.961   0.990 -0.1572 -0.3899  0.0177
15976SOL    HW159987   8.038   5.896   0.987  0.1179 -0.6742 -1.0395
15976SOL    HW259988   8.091   6.042   0.936 -0.9591  0.9206  2.2609
15977SOL     OW59989   5.558   6.180   0.126  0.2516 -0.0006 -0.0882
15977SOL    HW159990   5.651   6.186   0.163 -0.3131  1.0429  1.2020
15977SOL    HW259991   5.503   6.121   0.186  0.3153 -1.3619 -1.3503
15978SOL     OW59992   0.451   8.474   4.518 -0.2822 -0.0042  0.1500
15978SOL    HW159993   0.375   8.417   4.485 -0.0597 -0.5834  0.6169
15978SOL    HW259994   0.414   8.559   4.555 -0.6838 -0.1383  0.0694
15979SOL     OW59995   1.476   5.154   2.515  0.2121 -0.2486 -0.9076
15979SOL    HW159996   1.388   5.119   2.482 -0.2076  1.0150 -1.1839
15979SOL    HW259997   1.469   5.254   2.525  1.1745 -0.3228  0.4510
15980SOL     OW59998   0.074   6.473   4.638  0.1567  0.6314 -0.5379
15980SOL    HW159999   0.081   6.560   4.687 -0.0775  0.6843 -0.5984
15980SOL    HW260000   0.006   6.415   4.683  1.6606 -0.2683  0.6405
15981SOL     OW60001   1.002   4.351   0.158 -0.2871  0.5100 -0.3210
15981SOL    HW160002   1.029   4.364   0.253 -3.9365  0.2997  0.8132
15981SOL    HW260003   1.042   4.423   0.102  2.0507  0.5437  1.2944
15982SOL     OW60004   5.467   2.168   1.892  0.0496  0.5912 -0.0191
15982SOL    HW160005   5.540   2.115   1.935  0.5973  1.0866 -0.3228
15982SOL    HW260006   5.508   2.238   1.833 -0.6512 -1.0033 -2.4977
15983SOL     OW60007   2.277   2.278   8.960  0.1013 -0.1424  0.6161
15983SOL    HW160008   2.370   2.299   8.993  0.7412 -1.8805 -0.0350
15983SOL    HW260009   2.283   2.222   8.878 -1.5390 -1.1706  1.1769
15984SOL     OW60010   5.496   0.349   3.253 -0.2874 -0.3899  0.1530
15984SOL    HW160011   5.531   0.298   3.332  0.1141  0.9658  0.8817
15984SOL    HW260012   5.448   0.431   3.285  1.3822  1.1147 -1.0108
15985SOL     OW60013   1.055   5.264   6.686  0.6729 -0.2253  0.1322
15985SOL    HW160014   1.014   5.353   6.703 -1.4223 -0.9459 -0.9373
15985SOL    HW260015   1.049   5.242   6.589  0.2465 -1.9660  0.5335
15986SOL     OW60016   6.921   1.711   2.545  0.1529 -0.3540 -0.6676
15986SOL    HW160017   6.987   1.649   2.503  1.5344  1.7058 -1.6255
15986SOL    HW260018   6.894   1.781   2.478 -2.4871 -0.7370 -0.0776
15987SOL     OW60019   3.216   5.557   0.905 -0.1586  0.0661 -0.3992
15987SOL    HW160020   3.306   5.599   0.914  0.0277 -0.5694  0.7552
15987SOL    HW260021   3.205   5.521   0.812  0.2520  1.3201 -0.9489
15988SOL     OW60022   0.363   7.994   9.128  0.3812 -0.6243  0.2157
15988SOL    HW160023   0.369   8.079   9.181  0.5323  0.9640 -2.2709
15988SOL    HW260024   0.268   7.963   9.127 -0.1703  1.0182 -1.0896
15989SOL     OW60025   4.728   2.308   8.817  0.4086 -1.0896  0.1664
15989SOL    HW160026   4.789   2.363   8.759  1.1330 -1.4730  0.5611
15989SOL    HW260027   4.700   2.226   8.767  0.2907 -0.9616  0.0204
15990SOL     OW60028   9.936   7.460   9.213 -1.2730 -0.4589  0.5589
15990SOL    HW160029   9.960   7.396   9.287 -0.4629  0.3191  0.9739
15990SOL    HW260030   9.911   7.548   9.253 -0.1041  0.1940 -0.1325
15991SOL     OW60031   8.776   5.724   7.692 -1.0413 -0.1873 -0.0278
15991SOL    HW160032   8.823   5.636   7.692 -1.0162 -0.1800  0.8229
15991SOL    HW260033   8.727   5.736   7.605 -0.9861 -1.0006 -0.1759
15992SOL     OW60034   3.045   5.920   8.532  0.1124 -0.1848 -0.2306
15992SOL    HW160035   3.121   5.891   8.475 -0.3586 -1.4320 -0.2508
15992SOL    HW260036   3.048   5.871   8.619 -0.4795 -0.0129 -0.1067
15993SOL     OW60037   9.341   5.923   2.885  0.0845  0.3287  0.1394
15993SOL    HW160038   9.353   5.898   2.981 -2.1036 -2.1406 -0.1787
15993SOL    HW260039   9.412   5.878   2.830 -0.0297 -0.0968  0.3369
15994SOL     OW60040   2.521   5.670   5.778 -0.3383  0.2265  0.2248
15994SOL    HW160041   2.609   5.712   5.800  0.4388 -1.4385  0.4103
15994SOL    HW260042   2.473   5.726   5.711  1.7086  0.2338 -1.2971
15995SOL     OW60043   9.965   0.057   3.230 -0.7939 -0.1665  0.2634
15995SOL    HW160044  10.064   0.041   3.232 -0.7718 -0.6310 -2.1558
15995SOL    HW260045   9.948   0.155   3.238 -0.1570 -0.1039  0.9517
15996SOL     OW60046   5.744   2.031   8.166  0.2274  0.3479  0.1861
15996SOL    HW160047   5.708   1.940   8.186  0.2900  0.4870  0.9651
15996SOL    HW260048   5.726   2.091   8.244  2.1924  0.3909  0.6396
15997SOL     OW60049   1.660   6.860   5.906 -0.2686 -0.4561 -0.1511
15997SOL    HW160050   1.700   6.769   5.889  0.3414 -0.1595 -0.3067
15997SOL    HW260051   1.673   6.884   6.002  0.0032 -0.3242 -0.2202
15998SOL     OW60052   2.363   8.256   6.950 -0.1257 -0.4708  0.3767
15998SOL    HW160053   2.440   8.201   6.919  0.9654  1.7637 -1.0631
15998SOL    HW260054   2.277   8.206   6.936  0.8145 -1.7207 -0.9855
15999SOL     OW60055   1.643   7.998   0.155 -0.2720  0.4290  0.3297
15999SOL    HW160056   1.652   8.094   0.128  0.3722  0.7467  1.6418
15999SOL    HW260057   1.662   7.939   0.077 -0.1241  1.3572 -0.3427
16000SOL     OW60058   3.456   2.342   1.383 -0.3068 -0.3296 -0.0392
16000SOL    HW160059   3.401   2.357   1.301 -0.6077 -1.9990 -0.1605
16000SOL    HW260060   3.545   2.303   1.357  0.1644  0.4727  0.3279
16001SOL     OW60061   9.237   0.220   3.734  1.1321  0.3392 -0.3201
16001SOL    HW160062   9.311   0.214   3.801  0.8250  1.7745  0.1728
16001SOL    HW260063   9.163   0.276   3.771 -0.1548 -0.9842 -0.8648
16002SOL     OW60064   0.933   7.891   7.516 -0.2639 -0.2636 -0.4677
16002SOL    HW160065   0.944   7.865   7.420  2.5239 -1.7663  0.2236
16002SOL    HW260066   0.914   7.810   7.571  2.7248 -0.1347  0.8733
16003SOL     OW60067   8.849   9.763   1.427  0.6177 -0.0577  0.0037
16003SOL    HW160068   8.815   9.857   1.434  1.1386  0.1101  0.3155
16003SOL    HW260069   8.919   9.758   1.355  0.4620 -0.2469 -0.1367
16004SOL     OW60070   0.508   3.704   2.237  0.1639  0.0971 -0.3210
16004SOL    HW160071   0.607   3.694   2.241  0.2355  0.3663 -1.1464
16004SOL    HW260072   0.484   3.767   2.162 -0.5864  0.6389  0.3643
16005SOL     OW60073   7.598   3.533   4.663  0.1956 -0.0621 -0.1210
16005SOL    HW160074   7.610   3.449   4.717  0.9974  0.2901  0.2555
16005SOL    HW260075   7.530   3.592   4.708  0.9806  0.3039  0.6099
16006SOL     OW60076   0.555   9.006   2.714 -0.0143 -0.3122  0.7812
16006SOL    HW160077   0.512   8.934   2.660 -0.8638 -0.2309  1.3526
16006SOL    HW260078   0.485   9.060   2.760  0.7102 -0.4680  2.0986
16007SOL     OW60079   0.263   8.355   5.505  0.0047  0.3612  0.2553
16007SOL    HW160080   0.266   8.292   5.583 -0.7653  0.9549  0.7727
16007SOL    HW260081   0.207   8.315   5.432 -1.7228  1.0562  1.1575
16008SOL     OW60082   2.528   1.513   4.398 -0.0466 -0.1160  0.5156
16008SOL    HW160083   2.619   1.536   4.363  0.0736 -2.0133 -0.5252
16008SOL    HW260084   2.458   1.544   4.333 -0.2036  1.8991  1.6137
16009SOL     OW60085   6.578   6.197   0.274  0.2973  0.0950 -0.3343
16009SOL    HW160086   6.655   6.133   0.279  0.7798  0.6201 -0.8973
16009SOL    HW260087   6.532   6.186   0.186 -0.9906 -1.0250  0.4679
16010SOL     OW60088   4.417   9.305   7.742 -0.5203  0.3441  0.5204
16010SOL    HW160089   4.430   9.210   7.771  0.0826 -0.9406 -3.6514
16010SOL    HW260090   4.322   9.318   7.713 -0.6433  1.0604  1.2481
16011SOL     OW60091   9.766   8.477   9.043  0.0548  0.3608  0.0205
16011SOL    HW160092   9.765   8.410   8.969  0.7259 -0.1410  0.4587
16011SOL    HW260093   9.692   8.543   9.030 -0.9669 -0.8047 -0.1054
16012SOL     OW60094   4.791   9.582   5.459  0.4704  0.0590 -0.1781
16012SOL    HW160095   4.830   9.502   5.413  0.9728 -0.1133  0.5258
16012SOL    HW260096   4.778   9.561   5.556 -0.4446  0.4609 -0.2160
16013SOL     OW60097   0.247   0.921   3.350  0.3778  0.1681 -0.2483
16013SOL    HW160098   0.297   1.003   3.377 -0.2620  0.0922  1.1771
16013SOL    HW260099   0.306   0.864   3.292  0.7015  1.7922 -1.5687
16014SOL     OW60100   5.593   5.237   9.627 -0.2708 -0.0980 -0.3063
16014SOL    HW160101   5.642   5.308   9.576  0.7680 -0.0961  0.6785
16014SOL    HW260102   5.649   5.155   9.632 -0.2785 -0.0336  1.0010
16015SOL     OW60103   0.736   4.412   2.348  0.0716 -0.1116 -0.2114
16015SOL    HW160104   0.734   4.318   2.313  3.9007 -0.6326  0.7789
16015SOL    HW260105   0.682   4.417   2.432 -0.5565 -1.2776 -0.5194
16016SOL     OW60106   2.964   1.303   1.823 -0.1820  0.2302  0.0367
16016SOL    HW160107   3.036   1.255   1.774 -1.5575 -1.4528 -0.3723
16016SOL    HW260108   2.994   1.322   1.916  1.9281  2.2422 -1.0023
16017SOL     OW60109   2.954   6.609   4.253 -0.0651  0.5177  0.2421
16017SOL    HW160110   2.895   6.686   4.229 -0.2201  0.1708 -0.4963
16017SOL    HW260111   2.935   6.532   4.192  3.2754  1.3869 -2.0223
16018SOL     OW60112   5.264   1.185   6.423 -0.1770  0.2574  0.2589
16018SOL    HW160113   5.217   1.174   6.335  1.7898 -0.0178 -0.7765
16018SOL    HW260114   5.297   1.096   6.455 -0.6402  0.4013  1.1394
16019SOL     OW60115   9.729   6.186   7.260  0.5761  0.5157 -0.2118
16019SOL    HW160116   9.645   6.158   7.307  1.0119  1.0371  0.9056
16019SOL    HW260117   9.765   6.110   7.208 -0.0951  0.0099  0.0597
16020SOL     OW60118   4.468   4.979   9.593  0.6190 -0.3796  0.2276
16020SOL    HW160119   4.378   4.989   9.636  0.6011  1.6015 -0.2196
16020SOL    HW260120   4.510   4.894   9.624 -0.9344 -0.7818  1.3115
16021SOL     OW60121   7.114   6.512   3.759 -0.1321 -0.1157 -0.2201
16021SOL    HW160122   7.196   6.550   3.801  0.1603  1.1932 -1.9141
16021SOL    HW260123   7.113   6.413   3.772  2.7068 -0.4113 -1.8139
16022SOL     OW60124   3.286   7.163   9.260  0.0105  0.0380  0.3076
16022SOL    HW160125   3.272   7.120   9.171 -2.1739  2.8402 -0.7639
16022SOL    HW260126   3.328   7.097   9.322  3.0290 -1.4926 -3.1958
16023SOL     OW60127   8.888   9.550   7.858  0.3304 -0.1139 -0.1241
16023SOL    HW160128   8.902   9.639   7.814  1.3543 -0.6467 -0.8945
16023SOL    HW260129   8.805   9.507   7.821 -0.1257  0.4871  0.1965
16024SOL     OW60130   1.541   5.883   9.088 -0.8684 -0.0022  0.0402
16024SOL    HW160131   1.560   5.796   9.043 -0.8219  0.5161 -0.9562
16024SOL    HW260132   1.606   5.896   9.163 -3.3514 -2.6540  2.8119
16025SOL     OW60133   2.622   3.606   2.274  0.6300 -0.4842  0.1916
16025SOL    HW160134   2.699   3.656   2.314  0.2364 -0.7585  1.3102
16025SOL    HW260135   2.553   3.671   2.241  1.0382 -0.2518 -0.2013
16026SOL     OW60136   4.632   4.699   1.133  0.1046  0.1860  0.3761
16026SOL    HW160137   4.602   4.603   1.133  0.5943  0.0300 -0.4993
16026SOL    HW260138   4.724   4.705   1.095 -0.1661  1.0771 -0.1338
16027SOL     OW60139   6.706   2.305   9.260  0.2031  0.2863 -0.6528
16027SOL    HW160140   6.705   2.242   9.337  0.1806 -0.2686 -1.1071
16027SOL    HW260141   6.792   2.356   9.259  1.4588 -1.8242 -1.9808
16028SOL     OW60142   2.113   7.968   6.226  0.2793  0.2987  0.1534
16028SOL    HW160143   2.185   8.037   6.238  1.2482 -0.8803  1.2788
16028SOL    HW260144   2.151   7.877   6.243 -0.5483 -0.6939 -2.9806
16029SOL     OW60145   4.621   1.435   5.434 -0.1031 -0.0022 -0.0065
16029SOL    HW160146   4.591   1.446   5.339  2.7248 -0.3531 -0.9739
16029SOL    HW260147   4.658   1.343   5.447  1.9230  0.9055  0.7439
16030SOL     OW60148   5.462   8.911   5.115  0.6961 -0.8294 -0.2343
16030SOL    HW160149   5.453   8.872   5.207 -0.3537  2.0137  0.9337
16030SOL    HW260150   5.559   8.911   5.088  0.9812 -1.9441  0.7447
16031SOL     OW60151   9.972   1.262   6.884 -0.5840  0.5017  0.0107
16031SOL    HW160152   9.924   1.271   6.971  0.3013  0.8907  0.4642
16031SOL    HW260153   9.919   1.202   6.823 -1.3591  0.4761  0.6970
16032SOL     OW60154   0.209   5.713   4.444 -0.0912  0.3474  0.9505
16032SOL    HW160155   0.266   5.702   4.362 -0.3760 -0.8794  0.9040
16032SOL    HW260156   0.144   5.637   4.449 -1.5205  1.5538  1.1694
16033SOL     OW60157   7.595   3.291   4.837  0.0356 -0.3430  0.4365
16033SOL    HW160158   7.584   3.228   4.914  1.2188 -1.0453  0.0512
16033SOL    HW260159   7.619   3.239   4.755 -0.0702  0.5113 -0.1353
16034SOL     OW60160   7.312   2.934   2.234  0.1914 -0.0126 -0.0754
16034SOL    HW160161   7.278   2.847   2.199 -2.6876  1.7443 -1.8271
16034SOL    HW260162   7.363   2.918   2.318  1.8087 -3.6359 -1.6388
16035SOL     OW60163   0.165   1.332   3.806  0.3447  0.3277 -0.2938
16035SOL    HW160164   0.223   1.254   3.779 -0.6749 -0.3108 -0.6558
16035SOL    HW260165   0.102   1.303   3.877  0.8055  1.1602  0.4619
16036SOL     OW60166   1.955   9.912   6.654 -0.1316  0.0893 -0.5781
16036SOL    HW160167   2.017   9.848   6.609 -0.2383 -0.7962  0.4927
16036SOL    HW260168   1.926   9.873   6.742  0.6412  2.0857  0.5936
16037SOL     OW60169   4.466   8.348   1.170 -0.3515 -0.9317  0.7691
16037SOL    HW160170   4.393   8.389   1.225 -0.5574 -0.8688  0.4563
16037SOL    HW260171   4.434   8.338   1.076 -0.5477 -2.4113  0.9794
16038SOL     OW60172   8.420   2.375   2.317 -0.5590 -0.0196  0.0264
16038SOL    HW160173   8.324   2.369   2.291 -0.3049 -1.0352 -0.7156
16038SOL    HW260174   8.474   2.315   2.258  0.5435  0.6241  0.3738
16039SOL     OW60175   1.102   3.265   9.747  0.6892  0.2168  0.7229
16039SOL    HW160176   1.006   3.237   9.735  1.1073 -1.8206  1.9369
16039SOL    HW260177   1.108   3.339   9.814 -0.0484  0.5107  0.4682
16040SOL     OW60178   4.064   0.386   0.017 -0.3923 -0.7630  0.0187
16040SOL    HW160179   4.069   0.432   0.106 -0.6445  0.1531 -0.4309
16040SOL    HW260180   4.101   0.294   0.025 -2.2867 -1.4315  1.5642
16041SOL     OW60181   4.272   4.535   3.309  0.2769  0.1877  0.1893
16041SOL    HW160182   4.250   4.620   3.262  3.0705  1.1243  0.4679
16041SOL    HW260183   4.269   4.550   3.408  0.4589 -0.1446  0.2465
16042SOL     OW60184   6.669   9.470   3.410 -0.1306  0.0548 -0.1650
16042SOL    HW160185   6.609   9.525   3.351 -0.9540  0.6541  1.2230
16042SOL    HW260186   6.714   9.529   3.477 -0.3745 -0.8471  0.7987
16043SOL     OW60187   9.074   8.144   8.763 -0.5164 -0.0258  0.9038
16043SOL    HW160188   9.112   8.165   8.853 -0.3686 -1.8395  1.2967
16043SOL    HW260189   8.993   8.086   8.774  0.0331 -1.0189 -0.1418
16044SOL     OW60190   6.030   3.696   1.004  0.0949 -0.4492 -0.2688
16044SOL    HW160191   5.992   3.642   1.078  0.9733 -0.2426  0.3356
16044SOL    HW260192   6.130   3.695   1.009  0.1655 -0.4409 -1.4475
16045SOL     OW60193   2.708   8.321   1.518 -0.0321 -0.1301  0.5595
16045SOL    HW160194   2.663   8.274   1.442  2.0793 -0.3943 -0.5527
16045SOL    HW260195   2.697   8.419   1.507 -1.3604 -0.2185  0.9605
16046SOL     OW60196   4.771   1.756   5.163  0.1693  0.5638 -0.3967
16046SOL    HW160197   4.845   1.779   5.101  0.0757  0.8005 -0.4224
16046SOL    HW260198   4.762   1.827   5.233  1.6592 -0.7640  1.1716
16047SOL     OW60199   8.440   6.846   5.434  0.1470  0.1864  0.3524
16047SOL    HW160200   8.386   6.892   5.505  1.1022  0.7668  0.7169
16047SOL    HW260201   8.421   6.748   5.437 -0.9514  0.3887  0.4126
16048SOL     OW60202   1.899   7.112   9.475 -0.1507  0.5000  0.4457
16048SOL    HW160203   1.994   7.134   9.496 -0.8569  3.2983  0.9628
16048SOL    HW260204   1.855   7.074   9.556  0.3792 -0.2626  0.3740
16049SOL     OW60205   9.247   4.017   1.319  0.3263  0.0775  0.0500
16049SOL    HW160206   9.178   3.954   1.284  1.2224 -0.5281 -0.6524
16049SOL    HW260207   9.288   3.980   1.403 -0.3957  0.5756  0.6317
16050SOL     OW60208   7.273   4.998   0.601  0.7379 -0.2033  0.2266
16050SOL    HW160209   7.202   4.932   0.578  0.2832  0.2907  0.2061
16050SOL    HW260210   7.259   5.083   0.550  2.3205 -0.6790 -1.0619
16051SOL     OW60211   9.839   0.047   8.304 -0.4284 -0.1630 -0.2676
16051SOL    HW160212   9.791   0.080   8.223  2.1878  0.7823 -1.5078
16051SOL    HW260213   9.777  -0.008   8.360 -3.1301  1.6558 -1.3651
16052SOL     OW60214   7.954   1.587   8.254  0.3086  0.4178 -0.1549
16052SOL    HW160215   7.956   1.655   8.328  1.1064  0.2120  0.0235
16052SOL    HW260216   7.979   1.497   8.291  0.4667  0.2683 -0.6254
16053SOL     OW60217   9.956   6.148   6.669  0.1108  0.0767  0.0497
16053SOL    HW160218   9.907   6.190   6.745  2.0940  4.3076 -0.8802
16053SOL    HW260219  10.054   6.166   6.679  0.8470 -2.9172 -1.3571
16054SOL     OW60220   5.025   2.434   6.599 -0.1362  0.1388  0.4823
16054SOL    HW160221   5.024   2.531   6.625 -0.6162  0.4045 -0.4775
16054SOL    HW260222   4.943   2.413   6.546  1.5793  0.0498 -2.2589
16055SOL     OW60223   6.184   8.167   5.502 -0.1089 -0.3564 -0.2519
16055SOL    HW160224   6.179   8.267   5.508 -1.5138 -0.4619  0.3128
16055SOL    HW260225   6.278   8.138   5.518 -0.2730  0.6450  2.8022
16056SOL     OW60226   3.122   7.519   9.588  0.2622  0.0713 -0.1426
16056SOL    HW160227   3.175   7.601   9.610 -0.6506  0.3653  0.9684
16056SOL    HW260228   3.183   7.450   9.549  0.9850  1.3863 -1.3844
16057SOL     OW60229   8.985   7.230   5.481 -0.6232  0.3657 -0.4549
16057SOL    HW160230   9.080   7.209   5.505 -1.7135 -1.3789  2.5945
16057SOL    HW260231   8.959   7.181   5.398  1.4511  1.7383 -1.9498
16058SOL     OW60232   1.682   4.083   1.359 -0.0168  0.3014 -0.0188
16058SOL    HW160233   1.689   4.126   1.448  1.7003 -0.8800  0.4481
16058SOL    HW260234   1.610   4.013   1.361 -0.0591  0.3584  0.4029
16059SOL     OW60235   4.426   4.204   6.455 -0.3402  0.1295  0.4198
16059SOL    HW160236   4.333   4.241   6.450 -0.6512 -0.7143 -0.0344
16059SOL    HW260237   4.443   4.170   6.548 -0.9195 -0.8474  0.1707
16060SOL     OW60238   1.061   6.281   6.156 -0.4812 -0.3819 -0.3635
16060SOL    HW160239   1.159   6.295   6.139 -0.6933  0.3202 -1.0833
16060SOL    HW260240   1.041   6.292   6.253  0.0972 -0.1730 -0.2691
16061SOL     OW60241   0.581   0.850   4.869  0.6744  0.2874  0.1250
16061SOL    HW160242   0.491   0.849   4.826  0.6364 -1.1809  0.2032
16061SOL    HW260243   0.572   0.871   4.966  0.4020 -0.0217  0.1660
16062SOL     OW60244   6.949   4.398   7.131 -0.5293  0.1396  0.0817
16062SOL    HW160245   6.860   4.372   7.092 -1.4761  1.8707  1.0177
16062SOL    HW260246   6.975   4.488   7.095  1.5774 -1.0186 -1.3474
16063SOL     OW60247   2.520   4.271   5.038  0.1057  0.5848  0.4358
16063SOL    HW160248   2.600   4.236   5.086 -1.6090 -0.9094  2.3060
16063SOL    HW260249   2.493   4.360   5.077 -0.7916 -0.2378  1.7291
16064SOL     OW60250   8.711   5.497   5.980 -0.0350 -0.2524  0.2456
16064SOL    HW160251   8.678   5.590   5.966  0.3735 -0.1844 -0.2586
16064SOL    HW260252   8.751   5.490   6.071  0.0235  0.0881  0.2474
16065SOL     OW60253   8.439   0.990   7.208 -0.1265  0.4613  0.2989
16065SOL    HW160254   8.469   0.939   7.127  0.6246  2.8613 -1.0120
16065SOL    HW260255   8.469   0.943   7.291 -0.4309 -1.7674 -0.8292
16066SOL     OW60256   1.323   0.973   0.450  0.6855  0.0471  0.1217
16066SOL    HW160257   1.400   0.983   0.387  2.0255  2.6788  2.1234
16066SOL    HW260258   1.351   0.918   0.529 -0.4084 -1.5306 -0.5531
16067SOL     OW60259   3.633   6.543   4.033  0.6310 -0.0186  0.0074
16067SOL    HW160260   3.681   6.595   4.103 -0.0426 -0.0837  0.5166
16067SOL    HW260261   3.540   6.576   4.024  0.5475 -0.3723 -0.4792
16068SOL     OW60262   9.548   5.735   0.892 -0.0220 -0.3197  0.1474
16068SOL    HW160263   9.589   5.735   0.983 -1.7844 -1.1794  0.9536
16068SOL    HW260264   9.449   5.751   0.899  0.0078  0.9279 -1.7125
16069SOL     OW60265   6.359   6.932   4.096 -0.8724 -0.0388 -0.2268
16069SOL    HW160266   6.410   6.885   4.025 -2.7603 -1.2452 -0.8183
16069SOL    HW260267   6.410   6.929   4.183 -0.2892 -1.8169 -0.6291
16070SOL     OW60268   7.689   7.411   8.923 -0.1421  0.1002 -0.2742
16070SOL    HW160269   7.650   7.330   8.966 -0.6079 -0.0015 -0.8818
16070SOL    HW260270   7.640   7.431   8.838  0.3908  0.6367 -0.4614
16071SOL     OW60271   9.000   2.069   2.897 -0.3024 -0.2453  0.0645
16071SOL    HW160272   8.971   2.125   2.819  0.1765 -1.0761 -0.7266
16071SOL    HW260273   9.098   2.082   2.913 -0.6396  0.8409  1.3038
16072SOL     OW60274   2.856   9.855   3.901  0.1526  0.2057  0.0811
16072SOL    HW160275   2.899   9.874   3.990  0.3212 -1.8700  0.4549
16072SOL    HW260276   2.760   9.833   3.915  0.2260 -0.3080 -0.2368
16073SOL     OW60277   8.622   7.636   1.444 -0.0908 -0.4205 -0.1222
16073SOL    HW160278   8.534   7.640   1.399 -1.1758  1.0664  2.0121
16073SOL    HW260279   8.694   7.662   1.380 -1.4177  0.2319 -1.3728
16074SOL     OW60280   9.262   2.158   4.471  0.5254 -0.5131  0.0011
16074SOL    HW160281   9.272   2.183   4.568  0.5945 -2.4807  0.5425
16074SOL    HW260282   9.340   2.193   4.419 -0.1854  1.7156  0.3979
16075SOL     OW60283   2.899   3.281   1.441 -0.5542 -0.0026 -0.3398
16075SOL    HW160284   2.816   3.257   1.391  0.8287 -0.8095 -2.3087
16075SOL    HW260285   2.883   3.364   1.495 -3.3299 -1.4425  1.1561
16076SOL     OW60286   9.828   7.946   4.559  0.2256 -0.3599 -0.2950
16076SOL    HW160287   9.823   7.944   4.659 -1.7121 -2.1166 -0.3929
16076SOL    HW260288   9.884   7.870   4.527  2.2628  1.2082 -0.4920
16077SOL     OW60289   2.458   2.958   1.671  0.4984 -0.3580 -0.1024
16077SOL    HW160290   2.457   2.917   1.579  0.1824 -0.3499 -0.1028
16077SOL    HW260291   2.492   3.052   1.665 -1.0145  0.1757 -0.4344
16078SOL     OW60292   5.373   8.825   4.192 -0.0806 -0.5439 -0.2524
16078SOL    HW160293   5.402   8.780   4.277 -0.1984 -0.4167 -0.1431
16078SOL    HW260294   5.273   8.830   4.191 -0.0338  0.9660  0.3922
16079SOL     OW60295   3.764   5.093   2.352 -0.0380 -0.0380  0.1025
16079SOL    HW160296   3.775   5.044   2.266 -2.0762  0.1077 -0.2624
16079SOL    HW260297   3.841   5.072   2.412  0.5451 -1.4661 -1.1071
16080SOL     OW60298   1.032   2.300   3.098 -0.5929  0.4405  0.2734
16080SOL    HW160299   1.019   2.391   3.057 -0.8672  0.4254  0.3257
16080SOL    HW260300   0.954   2.242   3.074 -0.5960  0.3320  0.5480
16081SOL     OW60301   1.295   5.979   7.868  0.7344  0.0292 -0.0986
16081SOL    HW160302   1.243   6.037   7.930  0.5957  0.1755 -0.3499
16081SOL    HW260303   1.309   5.889   7.909 -0.9448 -0.4917 -0.6149
16082SOL     OW60304   5.151   4.849   7.069 -0.2476  0.9507 -0.0415
16082SOL    HW160305   5.063   4.817   7.103  0.3497 -0.2996  0.3616
16082SOL    HW260306   5.184   4.923   7.128 -0.4368  0.5593  0.5641
16083SOL     OW60307   3.281   7.528   1.567 -0.0835  0.1511  0.2780
16083SOL    HW160308   3.252   7.563   1.655 -0.1187  1.9676 -0.4420
16083SOL    HW260309   3.202   7.491   1.518 -0.7262  2.4461 -0.4737
16084SOL     OW60310   9.340   4.677   9.777  0.3471 -0.2213  0.4938
16084SOL    HW160311   9.310   4.768   9.749 -2.8495 -1.2209  0.4465
16084SOL    HW260312   9.399   4.638   9.707 -2.3187 -0.1325 -1.8920
16085SOL     OW60313   7.852   5.603   6.299 -0.5207  0.3230 -0.2422
16085SOL    HW160314   7.880   5.515   6.260 -0.0084 -0.2933  1.4941
16085SOL    HW260315   7.926   5.640   6.355 -0.6096  2.0252 -1.1799
16086SOL     OW60316   0.615   9.932   2.136  0.1547 -0.3031  0.0741
16086SOL    HW160317   0.648   9.955   2.227 -0.3019 -1.2855  0.4886
16086SOL    HW260318   0.653   9.997   2.069  0.2320  0.6186  0.9978
16087SOL     OW60319   4.979   3.491   0.879  0.1572 -0.3055  0.1326
16087SOL    HW160320   4.945   3.473   0.787  0.3487 -0.4648  0.0931
16087SOL    HW260321   5.077   3.474   0.882  0.1010 -0.5673  0.4410
16088SOL     OW60322   9.831   5.869   6.665  0.3366  0.1329 -0.1171
16088SOL    HW160323   9.734   5.870   6.690  0.3555  0.7313 -0.0486
16088SOL    HW260324   9.867   5.963   6.669  0.8387 -0.0461 -0.4448
16089SOL     OW60325   9.967   0.120   8.541 -0.3000 -0.1642  0.2683
16089SOL    HW160326  10.008   0.051   8.600  1.8165  0.7502 -0.0746
16089SOL    HW260327   9.950   0.081   8.450 -0.1108 -0.5475  0.3956
16090SOL     OW60328   4.637   7.750   3.351  0.8105  0.3579  0.0888
16090SOL    HW160329   4.604   7.656   3.342 -1.4948  1.2407 -1.2430
16090SOL    HW260330   4.604   7.804   3.274  0.0155  2.8575  2.1176
16091SOL     OW60331   7.282   2.339   4.189  0.9496  0.2069  0.0703
16091SOL    HW160332   7.218   2.315   4.116  2.6192 -0.5172 -1.1874
16091SOL    HW260333   7.232   2.380   4.265 -0.7889  1.2625 -1.6028
16092SOL     OW60334   2.506   3.454   9.493  0.2165  0.6764  0.1580
16092SOL    HW160335   2.528   3.473   9.397 -2.6394 -0.4811 -0.7857
16092SOL    HW260336   2.430   3.512   9.521  0.1191  0.0058  1.3049
16093SOL     OW60337   8.434   5.489   1.095 -0.3792  0.0971 -0.2904
16093SOL    HW160338   8.408   5.584   1.081  0.7237  0.3707 -0.4980
16093SOL    HW260339   8.377   5.450   1.168  0.4597  1.4863  1.1549
16094SOL     OW60340   6.112   3.696   1.981  0.2221  0.1298 -0.3974
16094SOL    HW160341   6.126   3.793   1.963 -1.6286  1.1315  3.0890
16094SOL    HW260342   6.197   3.656   2.014  0.0547  1.5181  1.8374
16095SOL     OW60343   7.128   7.231   3.578  0.4538  0.4774 -0.2103
16095SOL    HW160344   7.156   7.316   3.534  2.0111  0.8190  1.3496
16095SOL    HW260345   7.199   7.161   3.564  0.0400 -0.0073  0.0722
16096SOL     OW60346   8.086   4.317   3.899 -0.2656 -0.5574 -0.0463
16096SOL    HW160347   8.103   4.412   3.871  1.2978 -0.8634 -0.2067
16096SOL    HW260348   8.112   4.306   3.995  1.5488 -1.2970 -0.5938
16097SOL     OW60349   1.546   8.601   8.498 -0.2998 -0.4635 -0.0842
16097SOL    HW160350   1.620   8.635   8.441 -0.3168  0.1189  0.2445
16097SOL    HW260351   1.576   8.594   8.593 -1.3854  2.1008  0.4948
16098SOL     OW60352   7.413   9.932   5.148  0.4515  0.1421 -0.1414
16098SOL    HW160353   7.393   9.975   5.236 -2.4306  2.0896 -1.6585
16098SOL    HW260354   7.383   9.836   5.150 -0.3718  0.4060  0.7494
16099SOL     OW60355   5.409   8.307   2.641 -0.0187 -0.3377 -0.3985
16099SOL    HW160356   5.441   8.261   2.724  1.7146  0.7304 -0.4546
16099SOL    HW260357   5.309   8.305   2.639 -0.1229  0.1272  2.0370
16100SOL     OW60358   1.922   9.042   1.508  0.4213 -0.9357  0.4453
16100SOL    HW160359   1.860   8.964   1.504  0.9015 -1.2440 -1.4183
16100SOL    HW260360   1.872   9.126   1.487  0.7350 -1.2684 -1.7643
16101SOL     OW60361   4.831   1.702   9.625 -0.3974  0.4686 -0.1466
16101SOL    HW160362   4.779   1.741   9.549 -1.1417  1.2264  0.7357
16101SOL    HW260363   4.925   1.686   9.596 -0.8487  0.0594 -1.4503
16102SOL     OW60364   4.104   9.508   5.207  0.4534  0.7690 -0.2382
16102SOL    HW160365   4.102   9.412   5.233  1.2610  0.8614  0.1760
16102SOL    HW260366   4.067   9.564   5.281  1.0596  0.8778 -0.0186
16103SOL     OW60367   5.533   8.831   3.771  0.2456  1.2010  0.0681
16103SOL    HW160368   5.555   8.908   3.831 -0.6619  0.4382  1.3992
16103SOL    HW260369   5.442   8.846   3.731 -1.4102 -0.6918  2.9120
16104SOL     OW60370   3.485   1.705   4.167 -0.5744 -0.5954 -0.1996
16104SOL    HW160371   3.437   1.669   4.247 -2.2377 -1.0580 -1.3745
16104SOL    HW260372   3.464   1.647   4.087 -1.3132  1.5252 -1.5894
16105SOL     OW60373   4.492   8.018   1.561 -0.4038 -0.2849  0.0304
16105SOL    HW160374   4.423   7.961   1.605  1.8985 -1.1286  2.6765
16105SOL    HW260375   4.483   8.112   1.592 -0.1842 -0.4528  0.6026
16106SOL     OW60376   1.531   9.342   1.417  0.3227  0.2367 -0.1138
16106SOL    HW160377   1.435   9.332   1.394  0.2408 -0.4229  0.4965
16106SOL    HW260378   1.582   9.372   1.336 -0.9662  4.2419  0.4664
16107SOL     OW60379   3.678   0.112   2.364  0.0498  0.2585  0.2211
16107SOL    HW160380   3.702   0.071   2.276  1.3073 -0.9827  1.1152
16107SOL    HW260381   3.618   0.049   2.415 -1.7574  1.5373 -0.2684
16108SOL     OW60382   2.162   4.895   6.862 -0.3291 -0.4266 -0.0562
16108SOL    HW160383   2.127   4.846   6.942  1.8992 -0.0368  1.1975
16108SOL    HW260384   2.258   4.919   6.877 -0.2805  0.8980 -2.2790
16109SOL     OW60385   3.727   1.786   9.201  0.0619  0.0302  0.0372
16109SOL    HW160386   3.802   1.822   9.145 -1.1469 -1.2181 -2.4978
16109SOL    HW260387   3.641   1.828   9.172 -0.3928  0.5977  2.1313
16110SOL     OW60388   8.797   7.172   9.279  0.5385 -0.1992 -0.0691
16110SOL    HW160389   8.882   7.161   9.330  0.3920  0.3727  0.3029
16110SOL    HW260390   8.727   7.211   9.339  0.4435  0.7477 -0.7833
16111SOL     OW60391   7.824   6.590   1.981 -0.4765 -0.3750 -0.2963
16111SOL    HW160392   7.870   6.517   1.930  1.9981  1.2149 -0.3888
16111SOL    HW260393   7.792   6.660   1.917 -1.3677 -0.5418 -0.0463
16112SOL     OW60394   8.623   9.234   6.166  0.1091  0.1240 -0.1611
16112SOL    HW160395   8.532   9.224   6.126  0.4918 -1.1290 -0.7594
16112SOL    HW260396   8.616   9.279   6.255 -1.0916  0.0259 -0.1948
16113SOL     OW60397   5.108   3.377   9.688 -0.1095 -0.2441 -0.0356
16113SOL    HW160398   5.112   3.439   9.766  0.3847 -0.7398  0.3399
16113SOL    HW260399   5.061   3.293   9.714  1.3820 -1.0316  0.1729
16114SOL     OW60400   1.515   3.301   0.312  0.0850 -0.4077 -0.2370
16114SOL    HW160401   1.555   3.211   0.326 -0.4275 -0.4973  0.7355
16114SOL    HW260402   1.538   3.335   0.221 -1.7865 -2.5845 -1.5774
16115SOL     OW60403   4.532   9.239   0.688  0.5550 -0.0894 -0.4821
16115SOL    HW160404   4.445   9.209   0.727 -0.2823 -0.0878 -2.2554
16115SOL    HW260405   4.575   9.163   0.639  2.4428 -0.5785  1.8399
16116SOL     OW60406   1.169   7.936   5.572  0.1198  0.4263 -0.3036
16116SOL    HW160407   1.190   7.939   5.670 -0.6508 -0.3521 -0.1200
16116SOL    HW260408   1.241   7.985   5.522  1.7624 -1.1522  0.4427
16117SOL     OW60409   4.461   3.423   2.867 -0.6856 -0.1331  0.1323
16117SOL    HW160410   4.463   3.460   2.960 -2.9660  1.9142 -0.5468
16117SOL    HW260411   4.495   3.492   2.804 -0.1983 -1.0963 -0.6627
16118SOL     OW60412   1.561   4.978   6.045 -0.6201 -0.2207 -0.1252
16118SOL    HW160413   1.552   4.972   5.945 -1.2488 -0.9402 -0.0317
16118SOL    HW260414   1.537   5.070   6.075 -1.2015 -0.2243 -0.5627
16119SOL     OW60415   0.369   7.591   1.125 -0.3399 -0.3324  0.1401
16119SOL    HW160416   0.375   7.689   1.109 -1.6534 -0.0207  1.4695
16119SOL    HW260417   0.461   7.554   1.140  0.1062  0.7956  0.2499
16120SOL     OW60418   5.892   3.424   0.838  0.0531 -0.5833 -0.2028
16120SOL    HW160419   5.838   3.390   0.761 -0.0218 -0.0887 -0.3736
16120SOL    HW260420   5.832   3.468   0.905  0.2033 -0.3140 -0.2412
16121SOL     OW60421   3.377   5.145   8.978 -0.1829  0.5815 -0.1521
16121SOL    HW160422   3.281   5.147   9.007 -0.2193  2.6888 -0.3045
16121SOL    HW260423   3.386   5.192   8.890  0.9620  0.2150 -0.2452
16122SOL     OW60424   8.856   4.301   6.899 -0.0367 -0.6261 -0.0462
16122SOL    HW160425   8.853   4.347   6.810 -0.6163 -1.1480 -0.2968
16122SOL    HW260426   8.777   4.329   6.954  1.3929  1.2900  1.1063
16123SOL     OW60427   0.812   1.459   8.648  0.3244 -0.3058  0.4576
16123SOL    HW160428   0.769   1.454   8.558  1.6368  0.8755 -0.2492
16123SOL    HW260429   0.841   1.368   8.676 -1.8952 -1.0165  0.6064
16124SOL     OW60430   2.844   6.751   8.085 -0.3036  0.4645 -0.3208
16124SOL    HW160431   2.929   6.720   8.128 -0.1852  0.3509 -0.6358
16124SOL    HW260432   2.812   6.834   8.131  0.9090  1.4978 -1.3062
16125SOL     OW60433   4.600   8.888   3.396  0.0100 -0.6678  0.2460
16125SOL    HW160434   4.614   8.800   3.442  0.9730 -0.5845  0.1202
16125SOL    HW260435   4.634   8.882   3.303 -1.0135 -0.5217 -0.1400
16126SOL     OW60436   9.157   2.094   8.438 -0.0965 -0.0253 -0.5620
16126SOL    HW160437   9.136   2.188   8.464  2.1565  0.2625  0.2734
16126SOL    HW260438   9.248   2.089   8.398 -0.2813 -1.8336 -0.8118
16127SOL     OW60439   4.040   2.744   5.736  0.2029  0.3601 -0.0640
16127SOL    HW160440   4.117   2.702   5.785 -0.1413  0.4594  0.5723
16127SOL    HW260441   3.999   2.677   5.674 -0.2472 -0.2050  0.8297
16128SOL     OW60442   6.918   1.557   5.943 -0.0201  0.0632  0.5173
16128SOL    HW160443   6.934   1.563   5.844  0.7998  1.0806  0.7083
16128SOL    HW260444   6.975   1.623   5.990  1.7504 -2.4138  1.9342
16129SOL     OW60445   8.771   1.489   9.539 -0.7527  0.5131 -0.3271
16129SOL    HW160446   8.747   1.574   9.586 -1.1717 -0.6979  1.6987
16129SOL    HW260447   8.864   1.496   9.503 -1.4587  2.5158 -1.8445
16130SOL     OW60448   0.840   6.567   8.652  0.3253 -0.1219  0.4413
16130SOL    HW160449   0.876   6.534   8.740 -3.6150 -1.9951  1.4599
16130SOL    HW260450   0.851   6.495   8.583 -0.3378 -0.2318  0.4507
16131SOL     OW60451   8.812   7.134   4.190 -0.5901  0.1984  0.1853
16131SOL    HW160452   8.893   7.113   4.135 -2.5736 -0.4165 -2.5670
16131SOL    HW260453   8.795   7.232   4.188 -0.6578  0.1783 -0.3136
16132SOL     OW60454   2.148   5.112   4.371 -0.4625 -0.6112  0.3269
16132SOL    HW160455   2.071   5.162   4.411 -0.3345  0.2007 -0.4226
16132SOL    HW260456   2.174   5.155   4.284 -0.1516 -1.8002 -0.1844
16133SOL     OW60457   9.927   0.952   4.935  0.1669 -0.1791 -0.7809
16133SOL    HW160458   9.857   0.938   5.005  1.4063 -0.2509  0.4502
16133SOL    HW260459   9.902   0.901   4.853 -1.8336  0.7341 -0.7782
16134SOL     OW60460   0.125   2.760   9.363  0.1823 -0.1152 -0.3065
16134SOL    HW160461   0.090   2.799   9.277 -0.4729  2.8045  1.2255
16134SOL    HW260462   0.049   2.723   9.416  0.4292 -0.7319 -0.3711
16135SOL     OW60463   2.477   0.328   5.435 -0.2709  0.0788 -0.5536
16135SOL    HW160464   2.472   0.277   5.521  0.4844  0.2353 -0.4097
16135SOL    HW260465   2.421   0.283   5.366 -0.9021 -0.0346  0.0271
16136SOL     OW60466   2.841   8.790   6.789 -0.6568  0.2746  0.7399
16136SOL    HW160467   2.803   8.724   6.724 -1.3038  1.6116 -0.2659
16136SOL    HW260468   2.927   8.755   6.826  0.3545  0.0216 -1.7468
16137SOL     OW60469   4.012   7.035   6.342 -0.0380  0.1875  0.5064
16137SOL    HW160470   4.059   7.037   6.430 -0.1478 -0.7038  0.5905
16137SOL    HW260471   3.918   7.002   6.355 -1.3580  3.7659  0.6415
16138SOL     OW60472   9.244   4.904   2.738  0.6462  0.2250 -0.1222
16138SOL    HW160473   9.271   4.854   2.656  0.9964 -2.0253  1.3299
16138SOL    HW260474   9.318   4.901   2.806  0.5978  2.5570  0.1017
16139SOL     OW60475   9.300   8.677   1.802 -0.0186 -0.6127  0.2387
16139SOL    HW160476   9.295   8.577   1.812  2.0790 -0.8660 -0.8237
16139SOL    HW260477   9.280   8.702   1.708  1.3971 -0.2388  0.0172
16140SOL     OW60478   7.349   0.246   5.147 -0.4820 -0.0343  0.6608
16140SOL    HW160479   7.310   0.332   5.177  2.1671  1.1640  0.8596
16140SOL    HW260480   7.389   0.198   5.225  0.9488  0.1600  0.0784
16141SOL     OW60481   1.436   0.963   2.621 -0.1149  0.1877  0.2290
16141SOL    HW160482   1.450   0.908   2.539 -0.2671  0.7828 -0.2007
16141SOL    HW260483   1.429   1.060   2.596 -0.6817  0.3241  0.8885
16142SOL     OW60484   4.092   7.602   9.525  0.1975  0.2582 -0.1163
16142SOL    HW160485   4.161   7.543   9.483 -1.4682 -1.1589 -0.9333
16142SOL    HW260486   4.137   7.669   9.584  2.3117 -0.0750 -1.3138
16143SOL     OW60487   3.132   5.912   2.983 -0.3794 -0.0035 -0.4267
16143SOL    HW160488   3.036   5.892   2.964 -0.2233 -1.3260  0.0963
16143SOL    HW260489   3.189   5.843   2.937  0.3106  0.6137 -0.5086
16144SOL     OW60490   5.603   9.116   6.659 -0.0830  0.1800  0.2253
16144SOL    HW160491   5.649   9.084   6.576  0.6253  0.8531  0.3480
16144SOL    HW260492   5.626   9.056   6.735  0.9838  0.7746  0.3863
16145SOL     OW60493   0.852   5.127   5.234 -0.2682  0.0412  0.0762
16145SOL    HW160494   0.756   5.103   5.247  0.0477 -1.1876  0.1465
16145SOL    HW260495   0.903   5.047   5.202  0.8445  0.5493  0.5557
16146SOL     OW60496   9.443   5.233   4.249  0.1715 -0.0755 -0.1867
16146SOL    HW160497   9.357   5.190   4.277  0.4651 -1.3174 -1.1201
16146SOL    HW260498   9.456   5.318   4.298 -1.1908 -0.3043  0.5800
16147SOL     OW60499   9.305   5.164  10.051  0.5568  0.3620 -0.0086
16147SOL    HW160500   9.316   5.229  10.127  1.8786  0.8876 -0.6451
16147SOL    HW260501   9.377   5.094  10.056 -0.7512 -0.9801  0.5728
16148SOL     OW60502   9.772   3.014   4.943 -0.4341 -0.2227 -0.4942
16148SOL    HW160503   9.820   2.943   4.995  2.3644  2.8449  1.2940
16148SOL    HW260504   9.725   3.076   5.006 -1.3682  0.5522 -1.9172
16149SOL     OW60505   7.142   4.465   3.570 -0.5641  0.9754 -0.2353
16149SOL    HW160506   7.069   4.448   3.504  1.9668 -0.8919 -2.7224
16149SOL    HW260507   7.207   4.531   3.531  0.4136  0.6796  0.8453
16150SOL     OW60508   6.546   4.254   2.577  0.1796 -0.5372  0.0222
16150SOL    HW160509   6.522   4.158   2.593  1.6099 -0.8205  0.4718
16150SOL    HW260510   6.631   4.259   2.525 -0.3176  0.4858 -0.7081
16151SOL     OW60511   2.277   6.492   0.474 -0.4665 -0.2549 -0.2927
16151SOL    HW160512   2.240   6.438   0.398  0.0470 -1.1140  0.0542
16151SOL    HW260513   2.366   6.530   0.448 -1.0521  0.8199 -0.7070
16152SOL     OW60514   4.927   0.325   8.352 -0.1960  0.0025  0.2632
16152SOL    HW160515   4.889   0.314   8.444  0.9952  1.0987  0.8979
16152SOL    HW260516   5.020   0.287   8.350 -0.0806  0.3197 -0.3962
16153SOL     OW60517   9.842   2.275   5.527 -0.0278 -0.9056  0.1191
16153SOL    HW160518   9.849   2.363   5.573 -1.0087 -0.3720 -0.7442
16153SOL    HW260519   9.934   2.236   5.517  0.7207  1.2131 -1.8061
16154SOL     OW60520   4.456   9.854   9.898  0.2721 -0.8576 -0.2488
16154SOL    HW160521   4.375   9.818   9.851  0.7974 -1.0387 -1.0052
16154SOL    HW260522   4.477   9.797   9.977 -0.5583 -0.5960  0.1716
16155SOL     OW60523   4.077   8.218   1.766 -0.2682  0.1123  0.0500
16155SOL    HW160524   4.030   8.256   1.846 -0.7231  1.0990 -0.6746
16155SOL    HW260525   4.101   8.122   1.784  0.1872  0.5052  1.5919
16156SOL     OW60526   8.860   6.858   7.039  0.1604  0.3161 -0.1259
16156SOL    HW160527   8.912   6.925   7.091 -0.7720  1.4253 -0.5956
16156SOL    HW260528   8.811   6.797   7.101 -1.2155  1.8448  0.3233
16157SOL     OW60529   9.829   7.460   0.740 -0.4467 -0.4942 -0.9849
16157SOL    HW160530   9.758   7.421   0.799  0.0365 -0.3005 -0.2560
16157SOL    HW260531   9.804   7.449   0.644 -1.5202 -0.3030 -0.7224
16158SOL     OW60532   8.240   3.060   7.905 -0.3098  0.1281 -0.3109
16158SOL    HW160533   8.214   3.027   7.996 -2.2239  2.0200 -0.1541
16158SOL    HW260534   8.307   3.134   7.914 -0.5144  0.3290 -0.4531
16159SOL     OW60535   7.039   1.508   5.242  0.0026  0.0532  0.4542
16159SOL    HW160536   6.983   1.590   5.250  1.0204  1.0473 -1.9526
16159SOL    HW260537   6.982   1.427   5.256 -1.8223  1.0652 -0.8289
16160SOL     OW60538   4.726   1.530   1.044 -0.3781 -0.1060  0.0543
16160SOL    HW160539   4.736   1.596   1.119 -3.3134  1.4489 -0.8233
16160SOL    HW260540   4.806   1.534   0.985  0.4850  1.0666  1.2880
16161SOL     OW60541   9.871   1.918   5.454 -0.0304 -0.2884  0.0479
16161SOL    HW160542   9.828   1.904   5.543 -0.1967 -0.3746 -0.0476
16161SOL    HW260543   9.802   1.940   5.386  0.0018 -1.0964 -0.2461
16162SOL     OW60544   4.096   8.463   0.244  0.4638  0.2079  0.5088
16162SOL    HW160545   4.099   8.560   0.221 -0.6040  0.3768  1.0658
16162SOL    HW260546   4.026   8.417   0.190 -0.7037  0.2275  1.9654
16163SOL     OW60547   6.604   2.287   3.180  0.0767  0.1963 -0.1283
16163SOL    HW160548   6.605   2.299   3.279 -0.1278 -1.1152  0.0487
16163SOL    HW260549   6.518   2.321   3.142 -0.7532 -1.2233  0.4262
16164SOL     OW60550   1.618   9.479   3.729  0.1050  0.7060 -0.0428
16164SOL    HW160551   1.563   9.518   3.803 -1.6606 -2.0355  0.1289
16164SOL    HW260552   1.666   9.553   3.682 -0.3170  2.7150  2.5297
16165SOL     OW60553   6.874   8.121   3.162  0.1913  0.3701  0.5196
16165SOL    HW160554   6.780   8.096   3.183 -0.2693  0.6527 -1.0691
16165SOL    HW260555   6.926   8.040   3.138 -0.3454  0.4735 -1.0948
16166SOL     OW60556   8.665   2.584   9.986 -0.2206  0.2135 -0.1562
16166SOL    HW160557   8.651   2.597   9.888  0.6373  1.3923 -0.1241
16166SOL    HW260558   8.582   2.544  10.026 -1.1827  1.2863 -1.0666
16167SOL     OW60559   3.287   5.109   4.382  0.4256  0.0305 -0.2190
16167SOL    HW160560   3.357   5.170   4.418 -1.2326  1.9815 -0.2070
16167SOL    HW260561   3.225   5.083   4.456 -1.6812  2.2520 -1.1325
16168SOL     OW60562   2.379   5.200   2.441 -0.2879  0.4855  0.3818
16168SOL    HW160563   2.389   5.106   2.472  0.0396  0.0664 -0.9442
16168SOL    HW260564   2.379   5.202   2.341  1.9915  2.1237  0.3914
16169SOL     OW60565   9.664   8.159   4.484  0.1879 -0.0992  0.1779
16169SOL    HW160566   9.713   8.075   4.510 -2.2026 -1.6935 -0.3389
16169SOL    HW260567   9.685   8.181   4.389  1.1874  0.1536  0.4529
16170SOL     OW60568   1.329   0.733   9.192  0.4127  0.7088 -0.3169
16170SOL    HW160569   1.295   0.734   9.286  1.7466  0.4889  0.1843
16170SOL    HW260570   1.396   0.806   9.180  0.0352  0.9236 -1.1882
16171SOL     OW60571   7.233   5.637   1.205  0.2929 -0.2825  0.2920
16171SOL    HW160572   7.236   5.540   1.184  1.1811 -0.1956 -0.0126
16171SOL    HW260573   7.326   5.671   1.222 -0.0094  0.5042  0.4218
16172SOL     OW60574   0.228   1.082   4.549  0.8818  0.3810 -0.1933
16172SOL    HW160575   0.279   1.168   4.547  1.0744  0.3258  1.3443
16172SOL    HW260576   0.135   1.097   4.514  0.4744  1.5323  1.3288
16173SOL     OW60577   0.295   4.786   8.800 -0.0306  0.9891  0.1961
16173SOL    HW160578   0.220   4.833   8.753 -0.0889  0.4564 -0.2471
16173SOL    HW260579   0.363   4.756   8.734  1.1819  2.5283  0.7218
16174SOL     OW60580   3.947   3.327   2.879  0.1828 -1.0936  0.1426
16174SOL    HW160581   3.887   3.250   2.860 -2.2501  0.5639  0.9016
16174SOL    HW260582   4.021   3.298   2.940 -1.0329 -2.6875  0.8708
16175SOL     OW60583   9.127   6.478  10.077 -0.3866  0.3025 -0.0465
16175SOL    HW160584   9.150   6.405  10.012  0.6313  0.8983 -0.3733
16175SOL    HW260585   9.147   6.566  10.035 -0.6313  0.7270  0.7296
16176SOL     OW60586   2.459   3.672   3.555 -0.4816 -0.3151 -0.0687
16176SOL    HW160587   2.553   3.654   3.583 -0.5646 -0.7427 -0.0715
16176SOL    HW260588   2.410   3.716   3.631 -0.0760  0.5889 -0.3173
16177SOL     OW60589   9.818   9.365   2.204  0.1739 -0.5092 -0.0862
16177SOL    HW160590   9.733   9.386   2.156  0.1573 -0.8448 -0.2011
16177SOL    HW260591   9.816   9.407   2.295 -0.9334 -2.1093  0.6616
16178SOL     OW60592   2.506   9.852   6.067 -0.4723  0.3442  0.2576
16178SOL    HW160593   2.433   9.884   6.007 -0.7694 -0.2935  0.2702
16178SOL    HW260594   2.590   9.840   6.014 -0.8879 -0.7916 -0.1667
16179SOL     OW60595   0.535   6.762   2.949  0.3351 -0.1113  0.0979
16179SOL    HW160596   0.520   6.829   3.022  2.2800  1.8846 -1.2714
16179SOL    HW260597   0.537   6.670   2.988  0.4209  0.8444  2.4258
16180SOL     OW60598   3.006   7.028   7.950 -0.1220  0.3508  0.5755
16180SOL    HW160599   3.060   7.051   7.869  1.0579  2.6399  1.9783
16180SOL    HW260600   2.951   6.946   7.931  1.3965 -0.1326 -1.9569
16181SOL     OW60601   3.575   9.055   8.777 -0.4757  0.0184 -0.7574
16181SOL    HW160602   3.533   9.079   8.864 -1.7109  1.2441 -1.6731
16181SOL    HW260603   3.606   8.960   8.780  0.3258  0.3276  1.3184
16182SOL     OW60604   0.381   8.457   5.073  0.0067  0.2526 -0.4320
16182SOL    HW160605   0.418   8.516   5.001 -0.0542  2.8128  1.5698
16182SOL    HW260606   0.455   8.404   5.114  0.6628  1.4943  0.0306
16183SOL     OW60607   3.798   3.295   5.919  0.0882 -0.3533 -0.0751
16183SOL    HW160608   3.857   3.228   5.873 -0.5324 -1.8548  1.2576
16183SOL    HW260609   3.831   3.309   6.013 -0.1000  0.8264 -0.1838
16184SOL     OW60610   3.419   4.558   1.619  0.9410  0.2087  0.5684
16184SOL    HW160611   3.412   4.620   1.541 -1.0423  0.1451  0.6788
16184SOL    HW260612   3.376   4.471   1.596  0.3856  0.1694  1.7008
16185SOL     OW60613   4.056   4.647   5.281 -0.2020  0.2663 -0.1477
16185SOL    HW160614   3.964   4.650   5.321 -0.9552  2.6904 -1.9500
16185SOL    HW260615   4.050   4.633   5.183  1.4878 -1.8782  0.0213
16186SOL     OW60616   7.861   5.237   1.151 -0.4998  0.1841  0.5891
16186SOL    HW160617   7.897   5.148   1.125 -0.2758  0.2002  0.8324
16186SOL    HW260618   7.782   5.225   1.211 -0.3241  0.1467  0.8162
16187SOL     OW60619   5.595   2.294   0.870  0.1245  0.9920  0.0031
16187SOL    HW160620   5.695   2.295   0.871  0.1347  0.0376 -0.2075
16187SOL    HW260621   5.563   2.295   0.775 -0.0546  0.2702  0.0528
16188SOL     OW60622   7.705   2.126   9.822 -0.3758 -0.1602 -0.1608
16188SOL    HW160623   7.650   2.204   9.791  0.5571  0.3872 -0.4319
16188SOL    HW260624   7.652   2.042   9.810 -1.1783  0.3698 -0.3816
16189SOL     OW60625   3.861   7.111   5.352  0.3335  0.2263 -0.4073
16189SOL    HW160626   3.882   7.207   5.367 -0.1973  0.4939 -1.3185
16189SOL    HW260627   3.923   7.073   5.283 -0.4224  0.3153 -1.1431
16190SOL     OW60628   1.411   4.251   2.871 -0.4827 -0.4328 -0.1923
16190SOL    HW160629   1.382   4.180   2.806  0.2076  0.0531 -1.0444
16190SOL    HW260630   1.364   4.237   2.958 -0.5032 -1.8220 -0.4084
16191SOL     OW60631   1.448   1.221   6.601 -0.2186 -0.4386  0.3008
16191SOL    HW160632   1.433   1.319   6.593 -1.3025 -0.6615 -0.3832
16191SOL    HW260633   1.534   1.197   6.555  0.1092  0.1994  0.5724
16192SOL     OW60634   8.643   1.320   9.019 -0.1492  0.8521 -0.0466
16192SOL    HW160635   8.589   1.259   8.961  1.2019  0.7611 -1.2437
16192SOL    HW260636   8.691   1.267   9.088 -1.3758  0.9066  0.8619
16193SOL     OW60637   7.958   7.939   4.881 -0.0025 -0.6152  0.0479
16193SOL    HW160638   7.911   7.979   4.802  0.5269 -3.4345 -1.7801
16193SOL    HW260639   7.895   7.879   4.931  0.5518 -1.3773 -0.1539
16194SOL     OW60640   7.564   9.895   2.281  0.1546  0.0522 -0.2236
16194SOL    HW160641   7.645   9.913   2.336  0.0989  1.3264 -0.5471
16194SOL    HW260642   7.591   9.861   2.191  0.3216  0.1542 -0.2122
16195SOL     OW60643   3.972   3.264   1.742  0.0655  0.2138  0.4541
16195SOL    HW160644   4.003   3.319   1.664 -0.2106 -0.5815 -0.2200
16195SOL    HW260645   3.954   3.171   1.712  2.4721 -0.8017  1.9955
16196SOL     OW60646   7.060   2.537   5.237  0.0577 -0.1186  0.3625
16196SOL    HW160647   6.961   2.540   5.253 -0.0807 -2.4034  0.0150
16196SOL    HW260648   7.107   2.568   5.320 -0.9316  1.8465  0.2375
16197SOL     OW60649   1.362   9.039   3.251  0.3176 -0.1933 -0.2623
16197SOL    HW160650   1.345   9.137   3.265  3.6199  0.1548  1.8198
16197SOL    HW260651   1.287   8.986   3.290 -0.2408  1.4417  0.9480
16198SOL     OW60652   3.360   6.644   1.716 -0.0714 -0.0002  0.4321
16198SOL    HW160653   3.372   6.739   1.688  1.1559 -0.5266 -0.8405
16198SOL    HW260654   3.262   6.625   1.727 -0.3086  1.5108  1.1120
16199SOL     OW60655   9.918   5.662   4.142  0.2860 -0.7875  0.4696
16199SOL    HW160656   9.904   5.724   4.065  2.6291  0.4542  1.0170
16199SOL    HW260657   9.933   5.569   4.107  1.8809 -0.1342 -0.6119
16200SOL     OW60658   9.913   5.444   7.941  0.0242 -0.3118  0.3802
16200SOL    HW160659   9.848   5.519   7.927  0.5556 -0.0174 -0.5631
16200SOL    HW260660  10.002   5.469   7.902 -0.1644 -1.9697 -1.1637
16201SOL     OW60661   1.572   6.457   8.326  0.5129  0.5858  0.1468
16201SOL    HW160662   1.590   6.427   8.232 -1.0717  0.5821 -0.1618
16201SOL    HW260663   1.653   6.505   8.361  1.2757  0.2113 -1.0546
16202SOL     OW60664   1.554   1.432  10.060  0.0440 -0.4413 -0.1099
16202SOL    HW160665   1.526   1.337  10.072 -0.8359 -0.3043 -1.0518
16202SOL    HW260666   1.512   1.469   9.977 -0.2002  0.9875  0.6453
16203SOL     OW60667   5.720   3.070   2.431  0.6753 -0.7906 -0.0555
16203SOL    HW160668   5.789   3.102   2.367 -0.2336 -0.7132 -0.9975
16203SOL    HW260669   5.733   3.116   2.519  0.3991  0.9611 -0.9075
16204SOL     OW60670   9.615   9.325   1.404  0.2101 -0.4687 -0.4298
16204SOL    HW160671   9.678   9.295   1.334  1.3993 -2.2429  1.3327
16204SOL    HW260672   9.658   9.317   1.494 -1.8079  0.2192  0.6449
16205SOL     OW60673   9.850   5.493   5.931 -0.8868 -0.4067 -0.1434
16205SOL    HW160674   9.844   5.523   5.836 -0.7102  0.8790  0.2425
16205SOL    HW260675   9.851   5.573   5.991  2.5476 -1.0755  0.7772
16206SOL     OW60676   2.175   9.410   2.424 -0.1432  0.4596 -0.0392
16206SOL    HW160677   2.168   9.347   2.346 -1.1814 -0.6949  0.9457
16206SOL    HW260678   2.090   9.405   2.477  0.0052  2.2831  0.3813
16207SOL     OW60679   3.060   1.079   4.672 -0.2300  0.2106  0.0888
16207SOL    HW160680   3.101   1.082   4.763  1.3285 -0.2575 -0.5898
16207SOL    HW260681   3.088   0.996   4.625 -2.3894 -0.3956 -0.2123
16208SOL     OW60682   2.098   1.367   9.385 -0.7895  0.6997  0.0316
16208SOL    HW160683   2.150   1.396   9.465 -1.5731  1.5777  0.2465
16208SOL    HW260684   2.157   1.368   9.304 -0.8378  3.2533 -0.0260
16209SOL     OW60685   3.212   6.202   9.761  0.3419 -0.4932  0.6032
16209SOL    HW160686   3.294   6.259   9.752  0.4071 -0.6793  0.0102
16209SOL    HW260687   3.145   6.249   9.819  0.2776  0.3027 -0.1106
16210SOL     OW60688   8.226   2.962   0.109 -0.3608 -0.3847 -0.4835
16210SOL    HW160689   8.135   2.988   0.141 -1.0098 -1.2460 -1.5870
16210SOL    HW260690   8.287   3.041   0.117 -1.3026  0.3227 -0.1154
16211SOL     OW60691   6.812   9.701   3.486 -0.0468  0.3525 -0.0974
16211SOL    HW160692   6.750   9.727   3.560 -0.3218  0.1352 -0.2531
16211SOL    HW260693   6.835   9.781   3.432  0.3661  0.5630  0.3869
16212SOL     OW60694   7.790   3.214   9.373 -0.0586  0.3587  0.5580
16212SOL    HW160695   7.694   3.183   9.375 -0.0471  0.3359  0.7884
16212SOL    HW260696   7.841   3.168   9.446  0.7214 -1.5850 -1.1589
16213SOL     OW60697   4.059   0.882   7.457 -0.1591  0.1386  0.3369
16213SOL    HW160698   3.966   0.895   7.423  0.8941 -0.8772 -3.1855
16213SOL    HW260699   4.120   0.947   7.412  1.1426 -0.5692  1.0645
16214SOL     OW60700   1.066   5.626   2.561 -0.9750  0.3525 -0.7453
16214SOL    HW160701   1.028   5.573   2.637 -1.2928  1.3824 -0.1761
16214SOL    HW260702   1.016   5.604   2.477  1.2149 -2.9681 -1.3202
16215SOL     OW60703   8.823   7.209   5.751 -0.3100  0.5647 -0.3101
16215SOL    HW160704   8.741   7.246   5.709  0.2344 -0.5333 -2.4093
16215SOL    HW260705   8.882   7.169   5.681  1.7110  0.7208  1.2265
16216SOL     OW60706   3.297   1.633   7.239  0.0012 -0.2661 -0.2630
16216SOL    HW160707   3.363   1.576   7.288  0.0590 -0.0622 -0.1016
16216SOL    HW260708   3.233   1.575   7.190 -2.1992 -0.5532  2.8344
16217SOL     OW60709   2.980   3.474   9.011 -0.3038  0.4342 -0.4571
16217SOL    HW160710   2.969   3.516   8.921  0.0577  0.5110 -0.4676
16217SOL    HW260711   2.989   3.375   9.001  1.8531  0.6249 -0.6931
16218SOL     OW60712   5.900   0.556   2.372  0.1580 -0.0982  0.5235
16218SOL    HW160713   5.886   0.457   2.374  3.1752 -0.6163 -0.9670
16218SOL    HW260714   5.852   0.595   2.293  0.3344 -0.6063  0.1687
16219SOL     OW60715   1.953   8.964   6.508  0.3215  0.7834 -0.0185
16219SOL    HW160716   1.992   9.001   6.592  0.6567  0.5253 -0.0610
16219SOL    HW260717   1.985   9.018   6.430  1.1593  0.1393 -0.1255
16220SOL     OW60718   9.229   1.082   1.980 -0.2589 -0.0128 -0.3705
16220SOL    HW160719   9.279   1.009   1.935 -0.8280  0.7435 -2.2695
16220SOL    HW260720   9.224   1.161   1.919 -0.2552  1.3650  1.3815
16221SOL     OW60721   9.805   2.073   3.960  0.1772 -0.1666  0.2084
16221SOL    HW160722   9.807   2.166   3.921  1.8943  0.5867  2.0190
16221SOL    HW260723   9.746   2.072   4.040  1.3316 -0.2645  1.0674
16222SOL     OW60724   1.337   3.397   0.726  0.0683  0.5165  1.2020
16222SOL    HW160725   1.409   3.335   0.697 -1.1695 -0.1058 -0.6193
16222SOL    HW260726   1.282   3.353   0.797  0.2192  0.1714  1.1068
16223SOL     OW60727   1.687   7.870   1.630 -0.5583 -0.0827  0.0943
16223SOL    HW160728   1.670   7.845   1.534 -0.7261 -0.8676  0.3289
16223SOL    HW260729   1.785   7.883   1.644 -0.5362  0.0792 -0.1941
16224SOL     OW60730   1.864   3.028   6.888  0.0216 -0.3039  0.2112
16224SOL    HW160731   1.920   2.947   6.907  1.4701  0.5665 -0.2636
16224SOL    HW260732   1.883   3.098   6.957  0.5337  0.4854 -0.7074
16225SOL     OW60733   1.114   7.793   0.648 -0.1001 -0.1323  0.3098
16225SOL    HW160734   1.047   7.867   0.640  0.5310  0.4565  0.4724
16225SOL    HW260735   1.137   7.759   0.556  0.1208  0.3317  0.1937
16226SOL     OW60736   2.721   1.770   2.231 -0.1585 -0.2723  0.0816
16226SOL    HW160737   2.761   1.856   2.199 -0.4973 -0.5186 -1.0318
16226SOL    HW260738   2.626   1.786   2.260 -0.3311 -0.3225 -0.4396
16227SOL     OW60739   8.597   9.993   1.236 -0.1281  0.0296 -0.0521
16227SOL    HW160740   8.638   9.902   1.239  0.2263  0.0425 -2.7880
16227SOL    HW260741   8.503   9.986   1.202  0.4062  0.8099 -1.7394
16228SOL     OW60742   7.250   6.277   1.210  0.3207  0.4742  0.1927
16228SOL    HW160743   7.204   6.189   1.206 -0.0082  0.6832 -0.6325
16228SOL    HW260744   7.343   6.264   1.244  0.4891 -0.2703 -0.5515
16229SOL     OW60745   4.539   0.842   3.908 -0.6889 -0.4560  0.0349
16229SOL    HW160746   4.451   0.833   3.955 -0.1399  0.2321  1.1971
16229SOL    HW260747   4.612   0.803   3.965  0.1315  1.3696  0.2600
16230SOL     OW60748   9.664   6.621   6.177  0.0826 -0.1675 -0.4097
16230SOL    HW160749   9.681   6.601   6.080  2.3536  0.3185 -0.1204
16230SOL    HW260750   9.591   6.688   6.184 -0.9763 -1.1288 -1.7318
16231SOL     OW60751   3.717   5.951   0.642  0.1929 -0.1188 -0.2609
16231SOL    HW160752   3.641   5.895   0.672  0.9173 -1.0205 -0.0751
16231SOL    HW260753   3.803   5.913   0.676  0.6127  1.8359  0.9662
16232SOL     OW60754   5.058   0.392   7.636 -0.4383  0.0731 -0.1005
16232SOL    HW160755   4.958   0.396   7.636 -0.3903  2.7225 -1.8676
16232SOL    HW260756   5.091   0.365   7.546  0.4794  2.1689 -0.4185
16233SOL     OW60757   3.699   1.239   4.289 -0.2418 -0.3109  0.1145
16233SOL    HW160758   3.681   1.264   4.194 -0.9786 -0.3461  0.2472
16233SOL    HW260759   3.666   1.311   4.350  1.0628  0.1465  0.3051
16234SOL     OW60760   3.268   3.483   5.859 -0.2114 -0.7107 -0.2583
16234SOL    HW160761   3.352   3.503   5.810 -0.2493 -0.5046 -0.2390
16234SOL    HW260762   3.266   3.386   5.884 -0.8225 -1.1216 -1.8640
16235SOL     OW60763   7.710   2.771   0.641 -0.1800 -0.6205 -0.0158
16235SOL    HW160764   7.623   2.725   0.656 -0.7232  0.3718 -0.0688
16235SOL    HW260765   7.693   2.864   0.609  0.8941 -0.2329  0.5273
16236SOL     OW60766   7.055   4.884   6.961  0.3398  0.3208 -0.2004
16236SOL    HW160767   6.966   4.892   6.915  1.4046  1.4236 -2.1779
16236SOL    HW260768   7.045   4.909   7.057 -1.2391  1.8328 -0.7174
16237SOL     OW60769   1.851   3.237   2.711  0.1766  0.0519 -0.2563
16237SOL    HW160770   1.797   3.153   2.717  0.2082  0.0099 -0.6017
16237SOL    HW260771   1.798   3.313   2.749 -0.1525  0.0241 -0.6602
16238SOL     OW60772   1.884   6.943   5.084  0.1697 -0.5506 -0.3804
16238SOL    HW160773   1.870   6.848   5.056 -1.4167 -0.7974  1.1492
16238SOL    HW260774   1.882   6.948   5.184  0.7720  1.0282 -0.4405
16239SOL     OW60775   7.784   0.113   6.909 -0.0650  0.1308  0.0403
16239SOL    HW160776   7.786   0.084   6.813  3.4368  0.9122 -0.1919
16239SOL    HW260777   7.792   0.033   6.968  1.0959 -0.1100 -0.4244
16240SOL     OW60778   4.693   2.619   4.635  0.1186  0.8821  0.2502
16240SOL    HW160779   4.667   2.567   4.716  0.2993  0.5209  0.0789
16240SOL    HW260780   4.666   2.714   4.646 -0.3500  0.7190  0.5004
16241SOL     OW60781   6.180   8.563   1.871 -0.6089  0.6616 -1.0908
16241SOL    HW160782   6.232   8.477   1.872  1.2466  1.7630  1.2779
16241SOL    HW260783   6.117   8.563   1.793  0.3514 -2.2485 -1.9243
16242SOL     OW60784   6.626   3.278   2.728 -0.3937 -0.3880  0.3844
16242SOL    HW160785   6.659   3.257   2.820 -0.3725 -0.4972  0.3523
16242SOL    HW260786   6.638   3.197   2.669 -1.2835 -0.6310  0.5318
16243SOL     OW60787   9.020   5.413   6.905 -0.0880  0.6880 -0.6180
16243SOL    HW160788   9.114   5.433   6.878 -0.0953  0.8412 -0.5228
16243SOL    HW260789   8.957   5.456   6.840 -0.1111  1.2583 -0.2184
16244SOL     OW60790   2.902   3.543   8.397 -0.2388  0.1838 -0.5939
16244SOL    HW160791   2.879   3.482   8.472 -1.4494  1.5478  0.1641
16244SOL    HW260792   2.882   3.498   8.310  1.2339 -1.4336 -0.1307
16245SOL     OW60793   8.435   2.445   3.045  0.3162 -0.1126  0.0471
16245SOL    HW160794   8.400   2.360   3.006  0.7446  0.6785 -2.1343
16245SOL    HW260795   8.508   2.423   3.110 -0.7759 -1.4845  0.8615
16246SOL     OW60796   6.706   2.318   0.993  0.6215  0.3371 -0.4054
16246SOL    HW160797   6.779   2.385   1.009  0.0648  1.4308 -2.3722
16246SOL    HW260798   6.625   2.346   1.045  0.6040  0.8223 -0.6866
16247SOL     OW60799   1.088   8.540   6.587 -0.3957  0.0778  0.3256
16247SOL    HW160800   1.017   8.609   6.602 -1.0434 -0.1264 -1.6436
16247SOL    HW260801   1.163   8.556   6.651 -0.6714  2.4100  0.1271
16248SOL     OW60802   0.075   1.661   6.633  0.7638 -0.7644 -0.2360
16248SOL    HW160803   0.020   1.578   6.620 -1.4325  0.8004 -1.1452
16248SOL    HW260804   0.037   1.735   6.578  1.5275  1.3906  2.0520
16249SOL     OW60805   8.329   3.882   1.462 -0.2849 -0.0785  0.5663
16249SOL    HW160806   8.390   3.892   1.540  1.4042  2.4102 -0.9783
16249SOL    HW260807   8.278   3.968   1.449  0.1581 -0.1241 -1.5967
16250SOL     OW60808   0.514   5.689   4.827 -0.0713  0.0995  0.4420
16250SOL    HW160809   0.481   5.595   4.822  1.5091 -0.5026  1.0131
16250SOL    HW260810   0.612   5.689   4.848  0.4273  1.8046 -1.6371
16251SOL     OW60811   0.536   3.402   3.592 -0.3427 -0.1854 -0.2386
16251SOL    HW160812   0.561   3.474   3.527  0.2616 -0.8267 -0.7149
16251SOL    HW260813   0.579   3.423   3.681 -2.2405  1.3866  0.3498
16252SOL     OW60814   3.855   6.426   8.910 -0.1761 -0.9650 -0.2709
16252SOL    HW160815   3.814   6.514   8.890 -0.6000 -0.9130  0.7762
16252SOL    HW260816   3.951   6.438   8.935 -0.2972 -0.7754  0.0995
16253SOL     OW60817   9.160   3.825   2.150  0.4641  0.4736 -0.4885
16253SOL    HW160818   9.226   3.815   2.225  0.0105  1.9558  0.1235
16253SOL    HW260819   9.196   3.779   2.069  2.2832  1.2686 -0.1697
16254SOL     OW60820   0.168   0.745   8.176  0.0596  0.3154  0.7144
16254SOL    HW160821   0.152   0.686   8.097  0.7081  1.1139 -0.0073
16254SOL    HW260822   0.083   0.794   8.199  0.2621  1.1825 -0.3791
16255SOL     OW60823   6.770   5.121   9.508 -0.9291 -0.0381 -0.4489
16255SOL    HW160824   6.809   5.169   9.430  0.3941  0.4625  0.5087
16255SOL    HW260825   6.808   5.157   9.592 -1.8703 -1.0101  0.4153
16256SOL     OW60826   2.270   7.714   8.885  0.1687 -0.0727 -0.2941
16256SOL    HW160827   2.200   7.785   8.881  2.7571  2.7836  1.8864
16256SOL    HW260828   2.292   7.683   8.793 -1.9855  0.9815 -1.1874
16257SOL     OW60829   0.813   4.412   8.547 -0.3533  0.1825 -0.2242
16257SOL    HW160830   0.911   4.428   8.548 -0.4596  0.8591  0.3481
16257SOL    HW260831   0.788   4.360   8.465  0.6167 -0.9403  0.1770
16258SOL     OW60832   9.606   0.830   7.123  0.4301 -0.0319  0.4608
16258SOL    HW160833   9.564   0.748   7.086  0.9681  0.2744 -0.8845
16258SOL    HW260834   9.597   0.831   7.223  0.2579 -1.6156  0.4684
16259SOL     OW60835   4.074   0.805   5.127 -0.1577 -0.6651  0.5027
16259SOL    HW160836   3.983   0.813   5.085 -0.9193 -0.2371  2.1678
16259SOL    HW260837   4.080   0.718   5.175 -0.3471  0.0172  1.8216
16260SOL     OW60838   6.949   1.995   9.492  0.6345 -0.9109 -0.1283
16260SOL    HW160839   6.986   2.021   9.402  0.3267 -1.5681 -0.4502
16260SOL    HW260840   7.023   1.958   9.549  0.8631 -0.3381 -0.0469
16261SOL     OW60841   9.900   5.506   9.727 -0.1703 -0.1454  0.2167
16261SOL    HW160842   9.888   5.566   9.806  0.5436  1.3601 -0.8009
16261SOL    HW260843   9.982   5.450   9.740  0.1649  0.3790  0.3750
16262SOL     OW60844   3.271   8.537   4.915  0.3454  0.3547 -0.2754
16262SOL    HW160845   3.184   8.580   4.889  0.4580  1.1046  0.5563
16262SOL    HW260846   3.343   8.571   4.856 -0.0017 -0.6538 -1.3020
16263SOL     OW60847   8.248   9.232   1.996 -0.1085  0.1415  0.4499
16263SOL    HW160848   8.290   9.314   2.036  0.8965  0.0660 -0.4250
16263SOL    HW260849   8.197   9.183   2.066  0.2685  0.8874  1.2568
16264SOL     OW60850   7.564   8.924   7.722  0.5990  0.0630 -0.1186
16264SOL    HW160851   7.624   8.997   7.755  1.1092 -0.3207 -0.1892
16264SOL    HW260852   7.484   8.964   7.678 -0.6113  0.6089  2.4488
16265SOL     OW60853   3.025   3.406   2.541  0.6109 -0.1351 -0.3534
16265SOL    HW160854   2.997   3.346   2.466  0.6063 -0.1614 -0.3307
16265SOL    HW260855   2.943   3.448   2.582  0.7047  0.9578 -1.2616
16266SOL     OW60856   1.438   5.462   3.166  0.4212  0.4916 -0.5003
16266SOL    HW160857   1.411   5.551   3.130  0.1169  0.5824 -0.0572
16266SOL    HW260858   1.511   5.473   3.232  1.9079  0.1968 -2.0556
16267SOL     OW60859   4.314   9.424   9.580  1.0302 -0.3180 -0.5471
16267SOL    HW160860   4.374   9.409   9.659  0.6882 -1.4818 -0.4980
16267SOL    HW260861   4.228   9.463   9.612  1.1257 -0.2146 -0.4151
16268SOL     OW60862   4.320   0.639   7.790 -0.1914  0.0061 -0.2338
16268SOL    HW160863   4.250   0.676   7.729  1.2325  1.1547 -1.2112
16268SOL    HW260864   4.378   0.576   7.740 -0.0020 -0.2892  0.3554
16269SOL     OW60865   7.567   0.670   3.223 -0.3997  0.4200  0.2766
16269SOL    HW160866   7.551   0.644   3.128  0.2695  0.6284  0.1026
16269SOL    HW260867   7.640   0.613   3.262 -0.5944  0.4108  0.6306
16270SOL     OW60868   7.799   1.692   2.823  0.0645 -0.2843 -0.5032
16270SOL    HW160869   7.843   1.654   2.742  0.6869 -0.6446 -0.0003
16270SOL    HW260870   7.794   1.621   2.894 -1.5280 -0.3225 -0.6392
16271SOL     OW60871   4.739   9.667  10.012  0.7300 -0.4431  0.4059
16271SOL    HW160872   4.822   9.683   9.959 -0.3034  1.5694 -0.6927
16271SOL    HW260873   4.676   9.609   9.960 -0.3204  1.6025 -0.7016
16272SOL     OW60874   1.005   9.867   2.109 -0.0513 -0.2890  0.0891
16272SOL    HW160875   0.987   9.776   2.073 -1.7166  0.1527 -0.2353
16272SOL    HW260876   0.987   9.935   2.038 -0.0297  0.3746  0.7120
16273SOL     OW60877   4.444   9.931   0.336 -0.5001  0.0567 -0.4753
16273SOL    HW160878   4.537   9.919   0.302 -0.5249  1.3636 -1.0514
16273SOL    HW260879   4.391   9.849   0.316  0.5984 -0.8137  0.1154
16274SOL     OW60880   9.694   7.123   1.800 -0.0577  0.1853 -0.0834
16274SOL    HW160881   9.743   7.159   1.720  0.4621 -0.9149 -0.2706
16274SOL    HW260882   9.758   7.111   1.876 -0.3392  0.1964  0.1563
16275SOL     OW60883   1.009   4.089   4.892  0.2227 -0.2150 -0.5442
16275SOL    HW160884   0.980   4.061   4.983  0.9969 -2.0519 -0.8518
16275SOL    HW260885   0.956   4.169   4.864 -1.6042 -0.9790  0.6084
16276SOL     OW60886   6.539   2.038   2.050 -0.0697 -0.1563  0.1602
16276SOL    HW160887   6.494   2.018   1.963  0.0375 -0.0894  0.0902
16276SOL    HW260888   6.603   1.964   2.071  0.0625 -0.0642  0.0773
16277SOL     OW60889   1.783   6.287   7.231 -0.4617  0.2229  0.2858
16277SOL    HW160890   1.799   6.188   7.226 -0.5634  0.2367 -0.4064
16277SOL    HW260891   1.701   6.310   7.178 -0.0610  0.7648 -0.1097
16278SOL     OW60892   4.391   0.713   0.140  0.1111  0.5235 -0.3926
16278SOL    HW160893   4.303   0.724   0.186  0.0923  2.2182 -0.8183
16278SOL    HW260894   4.385   0.639   0.073 -1.5937  1.9200 -1.8319
16279SOL     OW60895   9.802   1.691   6.324  0.8366 -0.0319  0.1979
16279SOL    HW160896   9.800   1.699   6.224  0.0038  0.5309  0.2516
16279SOL    HW260897   9.820   1.596   6.350 -0.4900 -0.4827 -0.4860
16280SOL     OW60898   8.259   1.593   5.259 -0.1299 -0.4710  0.1100
16280SOL    HW160899   8.349   1.559   5.290 -0.1991 -0.8211 -0.0632
16280SOL    HW260900   8.254   1.586   5.160 -0.4881 -0.7972  0.1496
16281SOL     OW60901   4.913   3.949   9.596  0.4574  0.5327 -0.2758
16281SOL    HW160902   5.007   3.961   9.563 -0.0364  0.6648 -1.6275
16281SOL    HW260903   4.852   3.930   9.519 -0.1920 -2.3099  0.8700
16282SOL     OW60904   4.722   5.747   3.827  0.0380  0.0141 -0.4224
16282SOL    HW160905   4.785   5.686   3.779 -0.7206 -0.0920 -1.3058
16282SOL    HW260906   4.762   5.774   3.915  0.6548 -1.2312 -0.3118
16283SOL     OW60907   3.347   1.999   0.227 -0.6192  0.0849  0.1690
16283SOL    HW160908   3.276   2.068   0.216  1.0378  1.4914 -2.1609
16283SOL    HW260909   3.342   1.960   0.319 -2.2918  2.4950  1.1421
16284SOL     OW60910   8.513   3.329   0.371  0.7784  0.3832 -0.0725
16284SOL    HW160911   8.571   3.311   0.292 -0.6161  1.4613 -1.3698
16284SOL    HW260912   8.469   3.243   0.400  3.1836 -0.4985  1.1067
16285SOL     OW60913   1.925   0.449   6.466 -0.1298  0.0531 -0.0740
16285SOL    HW160914   1.934   0.417   6.560  0.9626 -1.3993 -0.6601
16285SOL    HW260915   1.978   0.534   6.455 -2.4785  1.7523  1.2954
16286SOL     OW60916   6.848   7.040   5.328  0.0977  0.1495  0.2889
16286SOL    HW160917   6.936   7.005   5.296 -0.4224  0.9960 -2.1734
16286SOL    HW260918   6.843   7.138   5.310 -1.2468  0.1509  0.6164
16287SOL     OW60919   5.558   3.698   1.361  0.3562  0.1757  0.8205
16287SOL    HW160920   5.569   3.602   1.336 -1.0714  0.3076 -0.3511
16287SOL    HW260921   5.533   3.705   1.458 -1.7832 -0.7681  0.3585
16288SOL     OW60922   2.915   2.088   6.459  0.0182  0.4264 -0.0427
16288SOL    HW160923   2.867   2.151   6.520  0.6535  0.2578  0.6287
16288SOL    HW260924   2.870   2.088   6.370  0.0607  1.9104 -0.0829
16289SOL     OW60925   8.145   5.139   8.040 -0.7166  0.1088  0.0982
16289SOL    HW160926   8.116   5.045   8.057 -0.4826 -0.1212 -0.7516
16289SOL    HW260927   8.245   5.142   8.037 -0.7422  0.2851 -0.4652
16290SOL     OW60928   6.625   8.508   5.233  0.6397  0.5475 -0.0148
16290SOL    HW160929   6.577   8.453   5.301  0.8760  0.5288  0.1371
16290SOL    HW260930   6.658   8.592   5.276 -0.4163  1.1904 -0.4275
16291SOL     OW60931   1.012   8.456  10.010 -0.5578  0.3569 -0.1063
16291SOL    HW160932   0.959   8.394  10.067 -0.1848  0.5987  0.5013
16291SOL    HW260933   0.954   8.531   9.978 -1.0640 -0.4346 -1.0307
16292SOL     OW60934   5.225   4.404   9.344 -0.3136 -0.0124 -0.3196
16292SOL    HW160935   5.270   4.320   9.312  0.0282  0.8459 -2.1680
16292SOL    HW260936   5.289   4.456   9.401 -0.6633 -1.1837  1.1817
16293SOL     OW60937   1.328   0.660   7.107 -0.9024 -0.0242  0.3837
16293SOL    HW160938   1.299   0.635   7.015  1.1389 -0.2582 -0.2263
16293SOL    HW260939   1.307   0.756   7.124 -0.5734  0.2355 -0.6363
16294SOL     OW60940   4.268   0.783   1.855 -0.3961  0.2879  0.3937
16294SOL    HW160941   4.289   0.767   1.952  1.9006  0.1029 -0.1151
16294SOL    HW260942   4.238   0.697   1.813  0.6745 -0.1312  0.4529
16295SOL     OW60943   6.458   1.246   3.674  0.0970 -0.1691 -0.3993
16295SOL    HW160944   6.385   1.190   3.713 -0.7599  0.7106 -0.7367
16295SOL    HW260945   6.533   1.187   3.645  0.5921 -0.8836  2.2232
16296SOL     OW60946   3.649   9.052   2.500  0.2161  0.5069 -0.0952
16296SOL    HW160947   3.554   9.027   2.483  0.5400  0.8151 -2.5303
16296SOL    HW260948   3.652   9.142   2.545 -0.6036  1.3595 -1.7149
16297SOL     OW60949   8.340   1.983   0.849 -0.5032  0.1765 -0.3836
16297SOL    HW160950   8.320   1.887   0.867 -1.0962  0.5786  1.1239
16297SOL    HW260951   8.265   2.040   0.884  0.2625  1.2516 -0.4807
16298SOL     OW60952   2.690   4.541   1.393  0.1500  0.6209 -0.1268
16298SOL    HW160953   2.762   4.599   1.354 -0.0736  1.6333  0.9410
16298SOL    HW260954   2.724   4.448   1.403  1.5635  1.2517  1.0509
16299SOL     OW60955   7.067   3.963   9.790  0.4180 -0.1530  0.0786
16299SOL    HW160956   7.079   3.864   9.797  3.1825  0.1684  0.6161
16299SOL    HW260957   7.072   3.990   9.694 -1.5490 -0.6449 -0.1793
16300SOL     OW60958   5.272   9.857   5.046  0.2924  0.3614 -0.0975
16300SOL    HW160959   5.370   9.838   5.054  0.1971 -0.4823 -0.8700
16300SOL    HW260960   5.228   9.842   5.135  0.6996 -0.2435  0.0064
16301SOL     OW60961   1.343   0.691   9.825  0.0206 -0.9261  0.0632
16301SOL    HW160962   1.325   0.632   9.904 -2.3612 -0.8408 -0.3615
16301SOL    HW260963   1.433   0.733   9.834  1.0144 -3.2241  1.2553
16302SOL     OW60964   1.765   6.782   1.942  0.4388  0.2866 -0.0163
16302SOL    HW160965   1.690   6.848   1.943  2.8977  3.2127  1.2626
16302SOL    HW260966   1.754   6.718   2.018 -0.9511  0.4264 -0.0840
16303SOL     OW60967   8.376   9.808   3.269 -0.5097  0.5291 -0.3385
16303SOL    HW160968   8.381   9.842   3.175  2.4062 -0.4724 -0.5802
16303SOL    HW260969   8.395   9.883   3.333 -0.4073  0.7446 -0.6202
16304SOL     OW60970   3.778   0.522   3.783 -0.1669 -0.1742  0.0633
16304SOL    HW160971   3.736   0.444   3.736 -0.2627  0.9378 -1.7761
16304SOL    HW260972   3.799   0.497   3.877 -2.2090 -1.7205  0.1563
16305SOL     OW60973   9.858   3.474   9.965  0.2512 -0.7576  0.4555
16305SOL    HW160974   9.950   3.436   9.958 -0.0386 -1.6224  1.1662
16305SOL    HW260975   9.855   3.541  10.039 -0.1482 -2.1662  1.7440
16306SOL     OW60976   3.357   6.839   3.656  0.5638  0.1369  0.1609
16306SOL    HW160977   3.347   6.929   3.698 -0.7308 -0.3479  0.9096
16306SOL    HW260978   3.299   6.833   3.575  2.2196  0.6814 -1.0962
16307SOL     OW60979   7.963   0.338   7.562 -0.0213  0.0932  0.3849
16307SOL    HW160980   7.920   0.273   7.499  2.4211  0.9590 -2.2509
16307SOL    HW260981   7.931   0.320   7.655 -1.4894 -3.0685 -0.6727
16308SOL     OW60982   4.787   2.669   9.241  0.4825 -0.3050  0.3469
16308SOL    HW160983   4.820   2.734   9.172  0.1883  0.6966  1.1317
16308SOL    HW260984   4.737   2.719   9.313  1.0199 -1.2968  1.4283
16309SOL     OW60985   0.285   5.679   1.984 -0.3639  0.0924  0.0578
16309SOL    HW160986   0.375   5.696   1.944  0.0257  1.3620  1.4651
16309SOL    HW260987   0.295   5.642   2.077 -1.2795 -1.7099 -0.5228
16310SOL     OW60988   4.185   7.986   6.090  0.2659 -0.0254 -0.1902
16310SOL    HW160989   4.231   8.001   6.003  0.6455 -0.6390 -0.0937
16310SOL    HW260990   4.170   7.888   6.104 -0.5586  0.1233  0.0405
16311SOL     OW60991   5.941   7.993   3.137  0.1505  0.3155 -0.1662
16311SOL    HW160992   6.012   7.944   3.186 -0.6737 -0.0916  0.6284
16311SOL    HW260993   5.980   8.077   3.097  1.2786 -0.3666 -0.5307
16312SOL     OW60994   0.541   9.767   8.658 -0.2122  0.7991  0.7557
16312SOL    HW160995   0.569   9.679   8.622 -0.7675  1.7137 -2.0348
16312SOL    HW260996   0.442   9.768   8.672 -0.4020  1.4166 -0.5528
16313SOL     OW60997   3.340   2.209   5.184  0.4641  0.4093 -0.1464
16313SOL    HW160998   3.271   2.177   5.119  0.6837 -1.4090  0.4868
16313SOL    HW260999   3.394   2.131   5.216  1.7707  1.5963  0.5697
16314SOL     OW61000   7.874   8.312   1.553  0.2861  0.2217  0.9410
16314SOL    HW161001   7.948   8.378   1.560 -0.7185  1.3983  0.6700
16314SOL    HW261002   7.881   8.264   1.466  1.3310 -0.4249  1.3724
16315SOL     OW61003   0.289   0.426   6.534 -0.3924 -0.2024 -0.3986
16315SOL    HW161004   0.379   0.425   6.577 -1.7940 -0.0055  2.6867
16315SOL    HW261005   0.260   0.332   6.514 -0.6720 -0.4704  1.2221
16316SOL     OW61006   9.575   3.169   9.598 -0.2586 -0.1206  0.3634
16316SOL    HW161007   9.607   3.240   9.535 -0.7307 -0.6271 -0.4751
16316SOL    HW261008   9.542   3.210   9.682  1.9186  0.4598  0.9599
16317SOL     OW61009   7.280   2.019   1.925  0.2504 -0.0795 -0.4645
16317SOL    HW161010   7.207   2.076   1.886 -1.8405 -0.8464  2.1946
16317SOL    HW261011   7.269   1.925   1.892 -0.8398 -0.4913  1.0402
16318SOL     OW61012   4.050   4.992   4.304  0.4205  0.9350  0.3078
16318SOL    HW161013   4.052   4.977   4.403 -0.7250 -0.2328  0.1623
16318SOL    HW261014   3.995   4.922   4.260 -0.1234  2.1647 -1.0369
16319SOL     OW61015   9.448   6.978   7.732 -0.3130 -0.7891  0.3336
16319SOL    HW161016   9.422   7.037   7.808 -1.0359 -2.0631  1.0969
16319SOL    HW261017   9.523   6.919   7.760 -1.6652 -2.4176  0.6299
16320SOL     OW61018   7.333   0.804   2.365 -0.1522 -0.2791 -0.5640
16320SOL    HW161019   7.315   0.845   2.276 -1.2401  0.5446  0.0287
16320SOL    HW261020   7.259   0.742   2.390 -0.1987  0.0264  0.0734
16321SOL     OW61021   3.078   1.902   0.868  0.4492 -0.6412  0.3365
16321SOL    HW161022   3.007   1.837   0.841 -0.7656  0.7389  0.1282
16321SOL    HW261023   3.050   1.949   0.952  0.4982  0.8223 -0.4372
16322SOL     OW61024   8.008   7.922   7.149  0.0812 -0.5043  0.1687
16322SOL    HW161025   7.986   7.899   7.244 -0.2900  0.3205  0.2788
16322SOL    HW261026   8.033   8.018   7.143 -0.3259 -0.4539 -0.6552
16323SOL     OW61027   4.388   9.819   2.749  0.1626 -0.0024 -0.2899
16323SOL    HW161028   4.426   9.911   2.736  1.4433 -0.4034  0.5400
16323SOL    HW261029   4.310   9.824   2.810 -0.7571  0.7474 -1.5081
16324SOL     OW61030   0.312   1.899   0.239  0.6040  0.2492  0.4272
16324SOL    HW161031   0.348   1.857   0.155  0.5874  1.5399 -0.2326
16324SOL    HW261032   0.213   1.886   0.242  0.4578  1.1576 -0.3042
16325SOL     OW61033   1.287   0.369   1.963  0.2509 -0.3299 -0.0625
16325SOL    HW161034   1.313   0.352   2.058 -2.2813  1.0027  0.9237
16325SOL    HW261035   1.230   0.452   1.958  1.8940  0.7036 -2.9942
16326SOL     OW61036   3.714   0.048   7.501  0.5144  0.2522 -0.0653
16326SOL    HW161037   3.618   0.074   7.510  0.0433 -1.0909 -0.9967
16326SOL    HW261038   3.756   0.043   7.592 -0.4553  0.2689  0.3887
16327SOL     OW61039   4.940   0.030   2.977 -0.1965 -0.0381 -1.1321
16327SOL    HW161040   4.911   0.116   3.018 -1.1346  0.2872 -2.4821
16327SOL    HW261041   4.861  -0.018   2.938 -0.0534 -2.5322  1.4577
16328SOL     OW61042   0.937   1.237   3.169  0.2552  0.3555  0.4766
16328SOL    HW161043   1.027   1.260   3.207  0.1774 -1.6002  1.9446
16328SOL    HW261044   0.867   1.247   3.241 -0.4194  0.0507 -0.1323
16329SOL     OW61045   5.049   7.070   3.258 -0.3086  0.0333 -0.7985
16329SOL    HW161046   5.079   7.058   3.352  0.6759  0.2409 -1.0716
16329SOL    HW261047   4.956   7.106   3.256 -0.8753 -1.3756  0.0758
16330SOL     OW61048   3.693   2.482   1.912 -0.0760 -0.2324 -0.2913
16330SOL    HW161049   3.652   2.429   1.987  0.0147  0.0651 -0.0294
16330SOL    HW261050   3.650   2.456   1.826 -1.6186  0.8534  0.1095
16331SOL     OW61051   4.906   8.595   1.584  0.5294  0.2772 -0.0378
16331SOL    HW161052   4.857   8.521   1.538 -0.7700  0.9501  0.2526
16331SOL    HW261053   4.941   8.562   1.672  0.4943 -0.1712 -0.1921
16332SOL     OW61054   3.677   6.487   6.652 -0.0213 -0.0502 -0.2568
16332SOL    HW161055   3.771   6.504   6.624 -0.7096  1.8735 -1.5860
16332SOL    HW261056   3.645   6.562   6.710 -1.4509  0.5723 -1.7802
16333SOL     OW61057   5.601   4.459   0.847 -0.6020  0.2105 -0.4517
16333SOL    HW161058   5.529   4.410   0.797  0.3855  0.1409 -1.8440
16333SOL    HW261059   5.572   4.553   0.863 -2.4017 -0.7283  2.0061
16334SOL     OW61060   7.119   4.598   9.729 -0.3368  0.1004  0.1871
16334SOL    HW161061   7.181   4.588   9.651 -0.9207  0.2948 -0.3044
16334SOL    HW261062   7.132   4.521   9.792 -0.6295 -0.6411 -0.6466
16335SOL     OW61063   8.692   4.408   5.738  0.1264  0.1791  0.1136
16335SOL    HW161064   8.691   4.312   5.711  0.6678 -0.0899  1.0181
16335SOL    HW261065   8.651   4.419   5.828  3.6109  0.1912  1.8047
16336SOL     OW61066   4.173   7.136   1.855 -0.0505  0.6444  0.6218
16336SOL    HW161067   4.220   7.058   1.815 -0.6099  0.3895  0.4570
16336SOL    HW261068   4.233   7.216   1.851 -0.4064  0.8506 -1.5497
16337SOL     OW61069   8.326   1.297   6.077  0.5638 -0.1689 -0.1855
16337SOL    HW161070   8.406   1.238   6.089  0.0970 -1.0385 -1.2902
16337SOL    HW261071   8.344   1.386   6.120  1.3132 -1.0575  1.3650
16338SOL     OW61072   6.082   0.490   5.575  0.0100 -0.1892 -0.0484
16338SOL    HW161073   6.125   0.580   5.582 -0.8636  0.2361 -0.0514
16338SOL    HW261074   6.102   0.450   5.485  0.3048  0.0490 -0.0902
16339SOL     OW61075   8.546   2.204   6.129 -0.5251 -0.3568  0.2830
16339SOL    HW161076   8.509   2.211   6.036 -0.7902  0.4924  0.4579
16339SOL    HW261077   8.476   2.168   6.190 -1.3397  2.0000  0.7779
16340SOL     OW61078   9.287   8.407   5.641  0.6918  0.1213  0.2412
16340SOL    HW161079   9.281   8.319   5.593  1.3267 -1.1473  2.4330
16340SOL    HW261080   9.364   8.460   5.606  1.2184 -0.8380 -0.0512
16341SOL     OW61081   0.067   0.935   4.154  0.0021 -0.0186 -0.2136
16341SOL    HW161082   0.111   0.845   4.157 -0.7508 -0.5616 -3.4084
16341SOL    HW261083   0.111   0.996   4.220  2.9309 -1.6950 -0.5282
16342SOL     OW61084   7.551   8.311   6.755 -0.3469  0.3967 -0.2185
16342SOL    HW161085   7.479   8.373   6.786  0.1075  1.4650 -1.2630
16342SOL    HW261086   7.602   8.277   6.835 -0.6132  1.3599  0.3718
16343SOL     OW61087   3.094   6.158   2.418  0.2195  0.7746  0.1833
16343SOL    HW161088   3.166   6.207   2.370  0.6024 -0.9195 -1.0236
16343SOL    HW261089   3.058   6.085   2.360 -0.0710 -0.6222  2.0520
16344SOL     OW61090   9.099   7.757   6.029 -0.4523  0.0798 -0.0442
16344SOL    HW161091   9.186   7.748   5.980 -0.7826 -2.1286 -0.2970
16344SOL    HW261092   9.028   7.707   5.980 -1.8176  1.6417  0.3143
16345SOL     OW61093   5.026   2.885   8.582 -0.1429  0.5474 -0.4107
16345SOL    HW161094   5.083   2.966   8.570 -0.0301  0.2545 -1.9205
16345SOL    HW261095   5.085   2.805   8.596 -0.2226  0.4532 -0.6213
16346SOL     OW61096   8.442   2.808   7.500 -0.6139 -0.1807 -0.0032
16346SOL    HW161097   8.517   2.858   7.543 -1.1749  0.7505 -0.0978
16346SOL    HW261098   8.363   2.809   7.561 -1.4050  1.1254 -1.0210
16347SOL     OW61099   7.940   0.534   7.924 -0.0031 -0.1148 -0.6591
16347SOL    HW161100   8.012   0.595   7.889 -0.7281  0.8212 -0.5215
16347SOL    HW261101   7.970   0.439   7.913  0.5760  0.2130 -2.1218
16348SOL     OW61102   4.678   8.661   7.788 -0.3827 -0.0511 -0.2670
16348SOL    HW161103   4.617   8.592   7.750  1.6383 -2.7898  1.2730
16348SOL    HW261104   4.769   8.650   7.748  0.4695  0.4049  1.5264
16349SOL     OW61105   8.693   9.056   8.901 -0.1918  0.1662 -0.0969
16349SOL    HW161106   8.772   9.117   8.905  1.5097 -1.9302 -0.7082
16349SOL    HW261107   8.701   8.996   8.821 -1.5166 -1.2613  0.8115
16350SOL     OW61108   1.993   7.440   9.463  0.3294 -0.0961  0.0371
16350SOL    HW161109   2.011   7.538   9.466 -2.7071  0.5236  0.0728
16350SOL    HW261110   1.983   7.411   9.368  0.3517 -0.1871  0.0625
16351SOL     OW61111   5.248   2.608   7.348  0.1953  0.7926 -1.1509
16351SOL    HW161112   5.217   2.516   7.368  1.1317  0.6969 -0.0517
16351SOL    HW261113   5.174   2.673   7.364 -0.8209  0.1422 -3.0351
16352SOL     OW61114   2.085   4.611   6.752 -0.0695  0.9943  0.1857
16352SOL    HW161115   2.013   4.678   6.770 -0.2156  0.6185  1.0134
16352SOL    HW261116   2.172   4.646   6.787  0.3073  1.7836 -1.4886
16353SOL     OW61117   2.861   4.951  10.036  0.3640  0.3761  0.3718
16353SOL    HW161118   2.883   4.946   9.939  1.6027 -0.0140  0.6633
16353SOL    HW261119   2.866   5.047  10.066 -4.6312  1.1642 -0.9628
16354SOL     OW61120   8.788   7.573   4.468 -0.2418 -0.0079 -0.2416
16354SOL    HW161121   8.716   7.632   4.432 -0.6634 -0.8037 -0.7143
16354SOL    HW261122   8.767   7.549   4.563 -0.2700  0.2859 -0.1737
16355SOL     OW61123   5.219   9.947   2.061 -0.3686 -0.2348  0.5324
16355SOL    HW161124   5.243   9.963   2.157  2.3778  3.4478 -0.6285
16355SOL    HW261125   5.286   9.884   2.021 -0.0985  0.1022  0.4503
16356SOL     OW61126   8.267   3.738   9.060  0.3103 -0.3028  0.4288
16356SOL    HW161127   8.288   3.651   9.015 -2.1021 -0.9100  0.4077
16356SOL    HW261128   8.195   3.785   9.010  0.5399  0.9976  1.3029
16357SOL     OW61129   5.734   8.752   5.439  0.2297  0.6892  0.4551
16357SOL    HW161130   5.668   8.810   5.488  0.4294  0.1028  1.4243
16357SOL    HW261131   5.806   8.809   5.400  0.9192  1.0145  2.1798
16358SOL     OW61132   0.924   8.150   6.699  0.6410 -0.7597  0.1487
16358SOL    HW161133   0.904   8.060   6.659 -1.3182  0.6897 -2.2395
16358SOL    HW261134   0.861   8.167   6.775  0.1218 -0.8403 -0.2624
16359SOL     OW61135   4.582   0.850   4.848  0.4842 -0.1291 -0.1095
16359SOL    HW161136   4.602   0.811   4.758  1.3504 -1.0542  0.4619
16359SOL    HW261137   4.496   0.901   4.844  0.8198  0.3488 -1.6006
16360SOL     OW61138   0.525   8.984   4.859 -0.1698 -0.7781  0.0988
16360SOL    HW161139   0.474   8.904   4.826 -1.1421 -0.4197  0.7105
16360SOL    HW261140   0.575   8.959   4.942  0.1235 -0.9516 -0.1285
16361SOL     OW61141   9.034   1.508   4.994  0.0552  0.0654 -0.1804
16361SOL    HW161142   8.985   1.421   4.999 -1.9111  1.2537  3.6214
16361SOL    HW261143   9.122   1.499   5.040  0.7289 -0.3988 -1.5291
16362SOL     OW61144   2.184   8.496   4.348 -0.2362 -0.2584 -0.2564
16362SOL    HW161145   2.231   8.500   4.259  0.6788 -0.4518  0.2113
16362SOL    HW261146   2.097   8.447   4.337 -0.8199  0.9749 -1.3362
16363SOL     OW61147   7.711   1.468   6.061  0.0023  0.7011  0.1643
16363SOL    HW161148   7.767   1.409   6.119  1.5114  0.2379 -1.6847
16363SOL    HW261149   7.618   1.431   6.056  1.1008 -2.0086 -1.5441
16364SOL     OW61150   6.052   5.504   1.503 -0.0978  0.2020 -0.0806
16364SOL    HW161151   6.149   5.497   1.527 -0.3806 -1.1148  0.7383
16364SOL    HW261152   6.024   5.600   1.506  1.3941  0.6828 -1.2041
16365SOL     OW61153   2.101   5.714   1.004 -0.1152  0.9097  0.4565
16365SOL    HW161154   2.087   5.748   1.097 -0.0869  0.6295  0.5640
16365SOL    HW261155   2.186   5.662   1.000  0.2947  1.6055  0.0801
16366SOL     OW61156   4.822   5.846   9.033  0.2675 -0.1640 -0.2447
16366SOL    HW161157   4.723   5.853   9.020  0.1865 -2.3303 -0.9904
16366SOL    HW261158   4.845   5.870   9.127 -0.9164  0.7863 -0.1815
16367SOL     OW61159   8.874   5.980   2.579 -0.0407 -0.0849 -0.3496
16367SOL    HW161160   8.807   5.906   2.578 -0.5866  0.4078 -0.5535
16367SOL    HW261161   8.954   5.953   2.526  0.5684 -1.2643  1.1269
16368SOL     OW61162   1.092   4.913   5.925  0.3353  0.1716 -0.1365
16368SOL    HW161163   1.132   4.887   6.014 -1.5489  1.9513  1.2767
16368SOL    HW261164   0.993   4.911   5.932  0.1255 -1.6519 -2.8501
16369SOL     OW61165   2.934   3.859   9.710 -0.1757 -0.2751 -0.3019
16369SOL    HW161166   3.006   3.862   9.780 -0.9918 -0.6287  0.5652
16369SOL    HW261167   2.958   3.920   9.635  0.4059  0.6368  0.6048
16370SOL     OW61168   3.953   4.187   9.313  0.1501  0.3173 -0.4192
16370SOL    HW161169   4.030   4.161   9.255  0.8962 -0.1324  0.7592
16370SOL    HW261170   3.883   4.117   9.309  1.0520 -0.6517  0.7627
16371SOL     OW61171   1.168   0.005   9.611  0.3321 -0.4248  0.1024
16371SOL    HW161172   1.263   0.035   9.604  0.9018 -0.9064  4.3208
16371SOL    HW261173   1.109   0.085   9.620  0.4818 -0.1741 -1.0673
16372SOL     OW61174   1.664   0.506   2.403  0.2393  0.2202 -0.3978
16372SOL    HW161175   1.674   0.566   2.482  0.3372 -1.2246  0.7080
16372SOL    HW261176   1.750   0.459   2.385  0.1690  0.4114 -1.2626
16373SOL     OW61177   4.663   5.306   2.677  0.0315  0.4305 -0.5390
16373SOL    HW161178   4.683   5.388   2.730  0.6328 -0.3276  0.4235
16373SOL    HW261179   4.576   5.267   2.706 -0.0240  0.4597 -0.6639
16374SOL     OW61180   1.431   4.347   5.014  0.1102  0.2042  0.5795
16374SOL    HW161181   1.477   4.430   4.980  0.1276 -0.3970 -0.9142
16374SOL    HW261182   1.499   4.278   5.037 -0.0181 -0.6111 -1.4326
16375SOL     OW61183   6.979   9.320   5.387 -0.0051  0.2188  0.0137
16375SOL    HW161184   7.026   9.295   5.303 -0.1260  1.6483 -0.4968
16375SOL    HW261185   6.907   9.253   5.407  1.2534 -1.1474 -0.0058
16376SOL     OW61186   4.491   8.296   4.791  0.3492  0.4234 -0.1216
16376SOL    HW161187   4.491   8.283   4.692 -0.2594 -0.7405  0.0194
16376SOL    HW261188   4.510   8.391   4.812  0.3944  0.6992 -1.3638
16377SOL     OW61189   9.084   5.760   0.381 -0.2948 -0.0111 -0.9604
16377SOL    HW161190   9.067   5.714   0.468 -1.1048  0.7102 -0.7351
16377SOL    HW261191   9.180   5.750   0.356  0.0276  0.1476  0.2179
16378SOL     OW61192   8.845   7.169   8.781  0.0406 -0.4515  0.0631
16378SOL    HW161193   8.826   7.266   8.773 -0.5506 -0.4823  1.0446
16378SOL    HW261194   8.841   7.141   8.877 -0.8406 -1.6556 -0.3069
16379SOL     OW61195   5.349   0.195   2.019  0.0704 -0.3513  0.8028
16379SOL    HW161196   5.281   0.129   2.049 -0.7718  0.6347  1.0800
16379SOL    HW261197   5.305   0.263   1.960  1.1479 -0.6682 -0.3985
16380SOL     OW61198   3.484   2.038   5.598  0.1907  0.4924 -0.1140
16380SOL    HW161199   3.561   1.980   5.572 -1.1412 -0.7812 -1.2922
16380SOL    HW261200   3.516   2.112   5.658  2.2310 -0.2914 -0.2190
16381SOL     OW61201   4.121   2.414   7.999 -0.4738  0.3085  0.0203
16381SOL    HW161202   4.035   2.462   7.986  0.0929  1.1830 -0.5563
16381SOL    HW261203   4.109   2.317   7.976 -0.6321  0.9388 -2.7770
16382SOL     OW61204   2.055   4.050   7.516 -0.1947 -0.0520 -0.0543
16382SOL    HW161205   2.046   3.977   7.584 -0.1094  0.3220  0.3664
16382SOL    HW261206   1.981   4.117   7.530 -0.5491 -0.3038 -0.7385
16383SOL     OW61207   1.773   6.626   3.223  0.0410 -0.2322 -0.8413
16383SOL    HW161208   1.794   6.723   3.231  0.3496 -0.5408  3.1876
16383SOL    HW261209   1.675   6.614   3.207 -0.2270  0.7195  0.0563
16384SOL     OW61210   1.556   9.022   8.089 -0.7079  0.1081 -0.3306
16384SOL    HW161211   1.625   8.999   8.158 -0.5628  0.5562 -0.3266
16384SOL    HW261212   1.526   9.116   8.102 -0.6417  0.2120 -0.9096
16385SOL     OW61213   8.348   4.118   3.152  0.4166 -0.3487  0.5676
16385SOL    HW161214   8.393   4.206   3.168 -0.8685  0.4216 -0.0087
16385SOL    HW261215   8.261   4.133   3.105  0.2040 -1.9346  0.4342
16386SOL     OW61216   6.867   8.343   4.702 -0.3760  0.7789 -0.0971
16386SOL    HW161217   6.938   8.318   4.637  0.6270  0.7119  1.0101
16386SOL    HW261218   6.894   8.426   4.751  0.1537 -0.6659  2.1487
16387SOL     OW61219   3.083   6.609   3.693  0.0465  0.0786 -0.4504
16387SOL    HW161220   3.035   6.659   3.620  2.7435  0.5246 -1.9968
16387SOL    HW261221   3.108   6.673   3.766  1.3877  0.5463 -1.3071
16388SOL     OW61222   9.232   5.439   8.762  0.4454  0.2733 -0.4282
16388SOL    HW161223   9.242   5.415   8.858 -0.9283 -0.7217 -0.5168
16388SOL    HW261224   9.157   5.505   8.752  1.4236  1.3587 -0.6730
16389SOL     OW61225   9.842   5.628   6.199  0.2182 -0.7012 -0.4089
16389SOL    HW161226   9.799   5.552   6.248 -1.0777 -0.3759 -1.0135
16389SOL    HW261227   9.880   5.693   6.265 -1.2208 -0.4362  0.1709
16390SOL     OW61228   6.386   9.982   3.068  0.1483  0.0335  0.3057
16390SOL    HW161229   6.287   9.967   3.071 -0.1091  1.4533 -0.7544
16390SOL    HW261230   6.420   9.993   3.161 -0.9435  1.1092  0.5979
16391SOL     OW61231   3.111   0.930   5.288  0.5013 -0.1136  0.0471
16391SOL    HW161232   3.031   0.974   5.329  0.8766  0.1160  0.5447
16391SOL    HW261233   3.116   0.952   5.191 -0.0500 -0.1478  0.0112
16392SOL     OW61234   8.108   4.316   5.083  0.0588  0.2793  1.0570
16392SOL    HW161235   8.133   4.383   5.012  2.0251  0.5578  1.9824
16392SOL    HW261236   8.144   4.226   5.058 -1.4775 -0.1814  0.4503
16393SOL     OW61237   0.441   9.791   7.100  0.5773 -0.7638  0.4264
16393SOL    HW161238   0.459   9.696   7.125  1.0390 -0.6048  0.7046
16393SOL    HW261239   0.500   9.817   7.023  0.0565 -0.8733 -0.0048
16394SOL     OW61240   1.318   2.123   4.983  0.2586 -0.1071  0.3344
16394SOL    HW161241   1.303   2.222   4.982  0.2125 -0.1126 -0.3761
16394SOL    HW261242   1.410   2.103   5.016  0.3073  0.1816  0.3781
16395SOL     OW61243   9.737   8.485   7.937 -0.1636  0.5960 -0.0690
16395SOL    HW161244   9.734   8.542   7.855 -1.5153  1.5257  0.6060
16395SOL    HW261245   9.647   8.445   7.953 -0.2746  1.5252  1.7215
16396SOL     OW61246   1.861   6.539   5.277  0.0666  0.2499  0.0409
16396SOL    HW161247   1.933   6.581   5.222 -3.1421  3.0920 -2.2199
16396SOL    HW261248   1.860   6.581   5.368 -0.0382  1.7024 -0.6147
16397SOL     OW61249   7.151   7.990   5.664 -0.1701  0.0477 -0.5460
16397SOL    HW161250   7.054   8.015   5.655 -0.2431  0.0749  0.3198
16397SOL    HW261251   7.158   7.901   5.710  0.1423 -0.8920 -2.3212
16398SOL     OW61252   2.046   4.693   6.452  0.0909 -0.2913  0.1215
16398SOL    HW161253   2.050   4.776   6.507  1.4005  0.8693 -1.6824
16398SOL    HW261254   2.128   4.639   6.468 -0.2852 -0.7487  0.5223
16399SOL     OW61255   1.490   0.084   0.527 -0.2077 -0.3103 -0.2784
16399SOL    HW161256   1.578   0.090   0.574  0.7964 -0.3022 -2.0975
16399SOL    HW261257   1.444  -0.001   0.553  1.7416 -1.8358 -1.6066
16400SOL     OW61258   4.726   9.849   1.292  0.1899 -0.4046  0.0836
16400SOL    HW161259   4.668   9.899   1.228  1.0620  1.4360  0.6840
16400SOL    HW261260   4.750   9.760   1.253 -1.6964 -0.5110 -0.8473
16401SOL     OW61261   7.216   8.965   3.391 -0.6619 -0.5961  0.1225
16401SOL    HW161262   7.207   8.870   3.363  0.8720 -0.9206  0.6600
16401SOL    HW261263   7.283   9.011   3.331  0.5371 -0.5598  1.4571
16402SOL     OW61264   4.068   8.789   0.225  0.1664 -0.0852 -0.5877
16402SOL    HW161265   4.121   8.872   0.210  1.0990 -0.7021 -0.7618
16402SOL    HW261266   3.974   8.813   0.252  0.1473  1.0085 -1.6008
16403SOL     OW61267   2.004   8.568   5.563  0.1820 -0.3528 -0.0028
16403SOL    HW161268   1.993   8.479   5.608 -2.7048 -0.3295 -0.5848
16403SOL    HW261269   2.039   8.634   5.629 -0.1194 -1.2932  1.1189
16404SOL     OW61270   7.922   2.010   8.319 -0.8800  0.2927 -0.0629
16404SOL    HW161271   7.923   1.920   8.361  0.4986  0.5471  0.4882
16404SOL    HW261272   7.905   2.079   8.389 -2.5554  0.4259 -0.5814
16405SOL     OW61273   0.812   3.269   2.273  0.1531 -0.3389 -0.3861
16405SOL    HW161274   0.872   3.344   2.299  0.1277 -0.7275  0.8178
16405SOL    HW261275   0.811   3.200   2.345 -0.4013 -1.1485 -1.1530
16406SOL     OW61276   4.915   2.278   6.231  0.0012 -0.2912 -0.2372
16406SOL    HW161277   4.909   2.184   6.199  1.3906 -0.9118  1.2945
16406SOL    HW261278   4.865   2.287   6.318  1.3080 -0.0150  0.4877
16407SOL     OW61279   5.536   3.483   7.843 -0.1833 -0.0530  0.1925
16407SOL    HW161280   5.572   3.483   7.750 -0.4728 -1.5011  0.0810
16407SOL    HW261281   5.609   3.505   7.907  0.6182 -1.6865 -0.1447
16408SOL     OW61282   3.832   8.331   6.705 -0.1343  0.4784  0.5142
16408SOL    HW161283   3.873   8.278   6.631  1.2099  1.6160  0.4256
16408SOL    HW261284   3.869   8.300   6.793  0.7038  1.2776  0.4579
16409SOL     OW61285   1.069   8.885   9.704  0.2175 -0.1806  0.4118
16409SOL    HW161286   1.100   8.936   9.784 -1.7031  0.5684  0.7117
16409SOL    HW261287   0.971   8.901   9.690  0.9769  1.5710 -3.4579
16410SOL     OW61288   2.727   7.274   5.162 -0.3401  0.3484  0.2780
16410SOL    HW161289   2.704   7.370   5.145 -0.3106  0.1725 -0.8316
16410SOL    HW261290   2.643   7.222   5.177 -0.3630  0.5334  0.7794
16411SOL     OW61291   0.913   3.947   8.774 -0.1447  0.7417 -0.1007
16411SOL    HW161292   0.816   3.921   8.767 -0.4030  1.4306  0.7921
16411SOL    HW261293   0.952   3.906   8.856  0.0590  1.2628  0.0657
16412SOL     OW61294   8.752   5.132   3.735  0.1553  0.4941  0.1567
16412SOL    HW161295   8.714   5.049   3.695 -0.5320 -0.2047  2.1759
16412SOL    HW261296   8.772   5.198   3.663 -0.1323 -1.0714 -1.3922
16413SOL     OW61297   0.212   8.107   2.930  0.1950  0.0031 -0.5477
16413SOL    HW161298   0.124   8.143   2.962 -0.4968 -0.6821 -1.6573
16413SOL    HW261299   0.247   8.040   2.995  1.6521  2.8326  1.7285
16414SOL     OW61300   2.567   7.463   2.846 -0.3606 -0.0004 -0.0724
16414SOL    HW161301   2.614   7.440   2.762 -1.5257 -0.9365 -0.4827
16414SOL    HW261302   2.469   7.475   2.828 -0.4510  0.9241  0.9357
16415SOL     OW61303   9.940   0.054   7.451  0.3085  0.2235 -0.1104
16415SOL    HW161304   9.978  -0.021   7.504  0.5227  0.6231  0.2957
16415SOL    HW261305   9.840   0.048   7.452  0.3380 -0.7591 -1.0871
16416SOL     OW61306   6.722   4.736   7.585 -0.1156 -0.8958  0.1951
16416SOL    HW161307   6.757   4.662   7.528  0.0890 -1.8501  1.5431
16416SOL    HW261308   6.795   4.768   7.645  0.2871  1.5306 -1.4924
16417SOL     OW61309   6.525   3.538   1.757  0.1905  0.0266  1.9409
16417SOL    HW161310   6.524   3.438   1.751  1.0893  0.1262 -0.3499
16417SOL    HW261311   6.590   3.566   1.827  1.6278 -0.9760  1.0427
16418SOL     OW61312   2.213   3.086   1.567 -0.0810 -0.0432 -0.2123
16418SOL    HW161313   2.290   3.022   1.577  0.1330 -0.1500 -2.3838
16418SOL    HW261314   2.128   3.035   1.565 -0.1014 -0.0478  0.6366
16419SOL     OW61315   9.942   4.262   7.104  0.1845  0.0969  0.5452
16419SOL    HW161316  10.001   4.182   7.112 -0.2465 -0.1176  1.5433
16419SOL    HW261317   9.932   4.306   7.193 -1.3733 -0.0155  0.4442
16420SOL     OW61318   4.517   0.373   7.419  0.2686 -0.5076  0.2265
16420SOL    HW161319   4.616   0.385   7.430  0.2448 -0.1143  0.0294
16420SOL    HW261320   4.472   0.461   7.431 -0.0806 -0.7304  0.5477
16421SOL     OW61321   2.455   7.607   3.464 -0.2484  0.0950 -0.3716
16421SOL    HW161322   2.538   7.660   3.447  0.4977 -1.2590 -1.0448
16421SOL    HW261323   2.476   7.534   3.530 -0.2875 -1.7275 -2.3220
16422SOL     OW61324   3.582   1.259   7.254  0.3566  0.1372 -0.1809
16422SOL    HW161325   3.625   1.349   7.254  0.5887  0.0285  0.2601
16422SOL    HW261326   3.617   1.205   7.331 -0.9656  0.2318  0.5059
16423SOL     OW61327   9.996   7.320   3.442 -0.2548 -0.0771 -0.1409
16423SOL    HW161328   9.915   7.289   3.392 -0.2024 -0.0645 -0.2365
16423SOL    HW261329   9.999   7.275   3.531 -1.0475  0.9031  0.3770
16424SOL     OW61330   2.059   6.342   8.200 -0.2748  0.3415  0.1195
16424SOL    HW161331   2.094   6.370   8.111  0.0939  0.7176  0.3845
16424SOL    HW261332   2.014   6.420   8.244 -1.3451 -0.0989 -0.1661
16425SOL     OW61333   2.451   6.020   4.002 -0.3308  0.0294  0.3948
16425SOL    HW161334   2.405   5.968   4.074  0.0057  0.8352  1.2035
16425SOL    HW261335   2.406   6.109   3.991  1.4049  1.0912  1.6440
16426SOL     OW61336   8.104   3.557   5.594  0.5895 -0.0512 -0.3510
16426SOL    HW161337   8.139   3.566   5.687  0.3511 -0.8928 -0.1732
16426SOL    HW261338   8.068   3.646   5.563  0.2105  0.1172  0.5487
16427SOL     OW61339   9.149   8.080   8.223  0.1726 -0.4792 -0.2994
16427SOL    HW161340   9.101   8.089   8.310 -1.4852 -1.5308 -1.0742
16427SOL    HW261341   9.247   8.090   8.238  0.0036 -1.6577  1.8414
16428SOL     OW61342   2.368   2.107   4.726  0.0737  0.4645 -0.2009
16428SOL    HW161343   2.348   2.103   4.629 -0.6314 -1.0277 -0.0013
16428SOL    HW261344   2.306   2.173   4.770  0.1007  0.8158 -0.6912
16429SOL     OW61345   2.557   5.495   7.393  0.3047  0.1154 -0.6007
16429SOL    HW161346   2.627   5.500   7.464 -0.6269  1.6339  0.2514
16429SOL    HW261347   2.512   5.406   7.396 -0.3653  0.4933  1.3537
16430SOL     OW61348   1.514   8.981   8.400 -0.4129 -0.1121 -0.6072
16430SOL    HW161349   1.532   8.959   8.305 -1.4538 -1.0450 -0.6033
16430SOL    HW261350   1.600   8.988   8.450  0.1353  0.5001 -1.6372
16431SOL     OW61351   2.589   2.497   0.120  0.1008 -0.5101 -0.1275
16431SOL    HW161352   2.554   2.425   0.179  0.7874 -0.8321 -0.1018
16431SOL    HW261353   2.567   2.476   0.025 -0.2185 -0.4467 -0.0688
16432SOL     OW61354   3.294   7.498   4.231  0.7791 -0.1831 -0.1453
16432SOL    HW161355   3.258   7.555   4.157  0.9777 -0.8615 -0.7720
16432SOL    HW261356   3.361   7.550   4.284  0.3299  0.4429 -0.1896
16433SOL     OW61357   7.705   5.347   8.211 -0.3782 -0.0139  0.4050
16433SOL    HW161358   7.714   5.251   8.184  1.8514  0.4758 -0.6399
16433SOL    HW261359   7.717   5.354   8.310  0.4075 -0.6947  0.3664
16434SOL     OW61360   5.421   1.620   4.276  0.6426  0.1610 -0.0351
16434SOL    HW161361   5.335   1.638   4.227  1.1677  1.8744 -0.3802
16434SOL    HW261362   5.486   1.693   4.256  2.3078 -1.3074 -0.0350
16435SOL     OW61363   1.955   7.843   7.156 -0.7280  0.2082  0.4099
16435SOL    HW161364   2.000   7.811   7.240 -0.4469  0.2558  0.2798
16435SOL    HW261365   1.856   7.840   7.167 -0.7219 -1.3448  0.1775
16436SOL     OW61366   0.139   8.377   5.832  0.0978  0.4274  0.8895
16436SOL    HW161367   0.043   8.367   5.804  0.0972 -1.6784  1.5417
16436SOL    HW261368   0.193   8.303   5.791  1.1123  0.5813  1.9330
16437SOL     OW61369   7.963   8.805   4.662 -0.3845  0.5339  0.7085
16437SOL    HW161370   7.987   8.719   4.616 -1.4113  1.1725 -1.0630
16437SOL    HW261371   7.954   8.789   4.761 -0.2295 -1.3139  0.4366
16438SOL     OW61372   1.999   7.853   1.880  0.2788  0.0504  0.6175
16438SOL    HW161373   1.993   7.893   1.788 -1.8211 -2.7646 -0.5215
16438SOL    HW261374   2.094   7.835   1.903  0.8832  1.5473 -0.6524
16439SOL     OW61375   0.099   8.802   4.817 -0.0240 -0.4585  0.3121
16439SOL    HW161376   0.046   8.761   4.892  1.5538 -1.5917  0.8376
16439SOL    HW261377   0.193   8.766   4.819  0.1661 -0.1378 -1.9376
16440SOL     OW61378   0.009   7.262   6.062 -0.2576 -0.1218 -0.5771
16440SOL    HW161379  -0.021   7.242   5.968  0.6321  1.0074 -1.1191
16440SOL    HW261380  -0.058   7.227   6.127 -0.0371 -2.5121 -1.5725
16441SOL     OW61381   4.813   8.928   3.792 -0.2471 -0.0941 -0.0747
16441SOL    HW161382   4.905   8.921   3.831 -0.1351 -0.7511 -0.4612
16441SOL    HW261383   4.766   9.006   3.834  0.2480 -0.1518  0.6071
16442SOL     OW61384   2.919   4.388   0.056 -0.2403 -0.0561  0.7445
16442SOL    HW161385   2.973   4.337   0.123 -0.0451 -2.7734 -1.3938
16442SOL    HW261386   2.890   4.475   0.096  2.5204 -0.1968  3.2441
16443SOL     OW61387   2.866   1.400   0.369  0.0352  0.0618 -0.4681
16443SOL    HW161388   2.891   1.306   0.348 -0.3897 -0.7564  2.4740
16443SOL    HW261389   2.775   1.402   0.411 -0.9145  2.0292 -2.5126
16444SOL     OW61390   7.746   6.132   0.850  0.0911 -0.5200 -0.2060
16444SOL    HW161391   7.696   6.186   0.783  0.2580 -0.9922 -0.7069
16444SOL    HW261392   7.709   6.039   0.853 -0.8872 -0.1104  1.3940
16445SOL     OW61393   2.589   5.826   0.642 -0.1483  1.0603 -0.3603
16445SOL    HW161394   2.516   5.893   0.657  0.0372  1.0380  0.7261
16445SOL    HW261395   2.568   5.743   0.693  0.7059  1.1071  0.0778
16446SOL     OW61396   1.045   1.826   3.867  0.5127  0.3388  0.4317
16446SOL    HW161397   1.102   1.782   3.798 -0.5314 -0.1707 -0.1053
16446SOL    HW261398   1.093   1.906   3.903  1.8064 -0.4025  0.3877
16447SOL     OW61399   9.454   1.380   8.442  0.1463 -0.0259  0.1564
16447SOL    HW161400   9.440   1.401   8.539 -0.1913 -0.5095  0.2120
16447SOL    HW261401   9.429   1.285   8.424 -0.5231  0.2703 -0.5507
16448SOL     OW61402   9.920   4.241   4.565  0.3653  0.4205  0.0282
16448SOL    HW161403  10.000   4.191   4.601  0.4119  0.3528 -0.1674
16448SOL    HW261404   9.946   4.287   4.480  0.2488  0.5571  0.0688
16449SOL     OW61405   2.234   7.641   3.301  0.4106 -0.5444  0.0525
16449SOL    HW161406   2.305   7.643   3.370  1.4976  0.8228 -1.0615
16449SOL    HW261407   2.145   7.631   3.345  0.9506  1.7752  1.7703
16450SOL     OW61408   3.380   8.221   7.458 -0.2520 -0.2554  0.0330
16450SOL    HW161409   3.345   8.129   7.439 -0.7159 -0.5717  2.3102
16450SOL    HW261410   3.478   8.216   7.478 -0.4535 -0.3696  0.9939
16451SOL     OW61411   3.824   7.109   8.929  0.1639 -0.5967 -0.0493
16451SOL    HW161412   3.818   7.170   8.850  0.1596  1.1611  1.2670
16451SOL    HW261413   3.739   7.059   8.940 -0.5682  0.6571  0.0269
16452SOL     OW61414   4.538   5.404   7.405  0.2005 -0.2074  0.5613
16452SOL    HW161415   4.609   5.473   7.415 -0.3162  0.3177  0.6387
16452SOL    HW261416   4.576   5.313   7.423  0.4125  0.2427  2.5054
16453SOL     OW61417   9.160   5.954   0.090 -0.2147 -0.0775 -0.4335
16453SOL    HW161418   9.151   5.940   0.189  0.9187 -0.1325 -0.3269
16453SOL    HW261419   9.125   6.044   0.066  2.5083  1.2941  0.5297
16454SOL     OW61420   8.360   3.207   6.034 -0.4776  0.1744 -0.5264
16454SOL    HW161421   8.423   3.267   6.084 -0.9054  0.8900 -0.8348
16454SOL    HW261422   8.395   3.114   6.035 -0.7794  0.0504  1.6355
16455SOL     OW61423   0.956   5.828   5.339 -0.6539 -0.0286 -0.0833
16455SOL    HW161424   0.888   5.898   5.315 -0.4419  0.8209  1.7480
16455SOL    HW261425   1.016   5.863   5.411  1.9373 -0.6511 -1.8608
16456SOL     OW61426   1.225   4.872   4.547 -0.3142 -0.1768  0.5116
16456SOL    HW161427   1.224   4.837   4.454  0.7025 -0.5475  0.6346
16456SOL    HW261428   1.235   4.795   4.611  0.5295  0.2202  0.8521
16457SOL     OW61429   5.385   9.400   8.462  0.1905  0.9310  0.4608
16457SOL    HW161430   5.401   9.434   8.369  1.5056 -0.5025  0.1398
16457SOL    HW261431   5.300   9.438   8.497 -0.9527  0.5331 -1.7896
16458SOL     OW61432   2.202   4.832   8.545  0.1240  0.2409 -0.0986
16458SOL    HW161433   2.299   4.857   8.539  0.4757 -1.2173 -0.7800
16458SOL    HW261434   2.147   4.906   8.506  1.1062  0.1522 -1.7212
16459SOL     OW61435   0.748   2.331   7.904 -0.0284 -0.5086 -0.1647
16459SOL    HW161436   0.828   2.353   7.849  1.1933 -2.2557  0.8749
16459SOL    HW261437   0.742   2.394   7.981 -0.4812  0.5271 -1.0326
16460SOL     OW61438   3.327   6.324   6.798 -0.3560  0.7484 -0.9447
16460SOL    HW161439   3.322   6.369   6.709 -2.5933 -0.6482 -1.5592
16460SOL    HW261440   3.419   6.287   6.811 -0.1427  0.5508 -2.9013
16461SOL     OW61441   0.024   8.833   5.423 -0.1045 -0.7006 -0.0397
16461SOL    HW161442   0.099   8.892   5.453 -0.4433 -0.6206  0.6536
16461SOL    HW261443  -0.045   8.826   5.496 -2.5957  2.2062 -1.9676
16462SOL     OW61444   0.198   6.939   4.127 -0.0333  0.4925 -0.0864
16462SOL    HW161445   0.111   6.985   4.112  1.9084  3.7065 -2.0149
16462SOL    HW261446   0.256   6.995   4.187  1.0463 -1.2013  0.4923
16463SOL     OW61447   1.959   7.107   6.589  0.0526 -0.1909  0.1154
16463SOL    HW161448   2.048   7.094   6.547 -1.0932 -3.0982 -1.5815
16463SOL    HW261449   1.892   7.131   6.519 -1.0284 -0.7813  0.9218
16464SOL     OW61450   5.634   0.132   3.989  0.0357  0.6616 -0.3186
16464SOL    HW161451   5.618   0.039   4.023  0.7574  0.2514 -1.0756
16464SOL    HW261452   5.652   0.192   4.066  0.7986 -0.0876  0.1013
16465SOL     OW61453   6.525   1.485   1.386  0.3118 -0.0453  0.3774
16465SOL    HW161454   6.443   1.474   1.442 -1.2045  0.0094 -1.7388
16465SOL    HW261455   6.585   1.406   1.399 -2.3943 -2.5690 -1.6802
16466SOL     OW61456   0.283   6.970   7.022 -0.1888  0.2245 -0.4908
16466SOL    HW161457   0.255   6.969   7.118  1.8242  0.1344  0.1035
16466SOL    HW261458   0.211   7.014   6.968 -1.2268  0.5243  1.0839
16467SOL     OW61459   0.474   2.032   6.111  0.0494  0.1921 -0.0582
16467SOL    HW161460   0.473   1.967   6.035 -0.1913  1.7657 -1.4265
16467SOL    HW261461   0.568   2.062   6.127 -0.2248  2.0745 -1.7071
16468SOL     OW61462   6.557   7.314   4.162 -0.4552  0.4901 -0.1565
16468SOL    HW161463   6.574   7.237   4.224 -1.7283  1.6055  1.6492
16468SOL    HW261464   6.515   7.280   4.078 -0.3834 -0.8600  0.3332
16469SOL     OW61465   4.030   5.943   9.666 -0.0830  0.4731  0.5214
16469SOL    HW161466   3.964   5.948   9.591  2.6227  0.2243 -1.9749
16469SOL    HW261467   4.081   6.029   9.671  1.4632 -0.4247  0.4247
16470SOL     OW61468   9.554   3.033   0.835  0.0926 -0.1037 -0.5585
16470SOL    HW161469   9.563   3.120   0.884  2.9216 -0.1245 -0.9693
16470SOL    HW261470   9.642   2.985   0.836 -0.4011 -1.1743 -3.6809
16471SOL     OW61471   8.802   0.029   3.800 -0.5668 -0.0629 -0.1414
16471SOL    HW161472   8.889  -0.004   3.837 -0.9911 -0.6267  0.3602
16471SOL    HW261473   8.807   0.128   3.787  0.6064 -0.2708 -1.3628
16472SOL     OW61474   3.483   9.048   7.987  0.2144 -0.2523  0.2639
16472SOL    HW161475   3.526   8.980   8.046 -0.3193 -0.1555  0.7644
16472SOL    HW261476   3.550   9.119   7.963  0.9827 -1.3560 -0.8838
16473SOL     OW61477   7.633   6.300   7.104 -0.2939  0.1451 -0.0864
16473SOL    HW161478   7.536   6.319   7.118 -0.6052  0.1599 -2.1633
16473SOL    HW261479   7.685   6.385   7.115 -0.7372  0.5260 -0.9111
16474SOL     OW61480   7.473   9.349   6.852 -0.0918 -0.6459 -0.1059
16474SOL    HW161481   7.464   9.437   6.807 -0.6904 -0.1676  0.9281
16474SOL    HW261482   7.387   9.299   6.845 -0.3391 -0.3706  0.9053
16475SOL     OW61483   7.328   2.542   8.010  0.1857  0.1610 -0.2366
16475SOL    HW161484   7.398   2.605   8.045  0.5063 -0.4487  0.2329
16475SOL    HW261485   7.360   2.501   7.925 -0.4600  1.4086 -1.0915
16476SOL     OW61486   5.258   4.983   9.910  0.1985 -0.4175  0.3779
16476SOL    HW161487   5.271   5.077   9.942  0.3952  0.0129 -0.9356
16476SOL    HW261488   5.180   4.942   9.958 -0.3959  0.6863  0.3821
16477SOL     OW61489   0.243   2.169   6.782  0.2180 -0.0717 -0.5509
16477SOL    HW161490   0.272   2.194   6.690 -1.1490  0.1533 -0.9461
16477SOL    HW261491   0.214   2.073   6.784 -1.9595  0.5385 -0.9516
16478SOL     OW61492   4.497   2.852   1.088 -0.2451  0.2388  0.2934
16478SOL    HW161493   4.486   2.845   0.989  0.2049 -1.1219  0.3413
16478SOL    HW261494   4.503   2.949   1.114  0.4406  0.5729 -1.0899
16479SOL     OW61495   0.527   1.580   6.821  0.0127  0.2002 -0.1104
16479SOL    HW161496   0.487   1.644   6.887 -0.7631  1.0976 -1.4191
16479SOL    HW261497   0.454   1.541   6.765  0.5271 -1.5352  0.4031
16480SOL     OW61498   6.389   1.453   2.751 -0.4633 -0.1836  0.5228
16480SOL    HW161499   6.454   1.388   2.790 -0.7918 -0.9979 -0.2650
16480SOL    HW261500   6.318   1.403   2.702 -0.3256  0.7991 -0.6980
16481SOL     OW61501   5.965   9.166   5.001  0.6525  0.0342  0.1164
16481SOL    HW161502   5.920   9.235   4.944  2.8684  1.6068  0.2241
16481SOL    HW261503   5.983   9.084   4.946 -0.7760  0.0261 -0.3676
16482SOL     OW61504   4.706   8.961   1.344 -0.2020  0.0648  0.2306
16482SOL    HW161505   4.717   8.986   1.440  0.1456 -0.2173  0.2650
16482SOL    HW261506   4.663   9.037   1.295 -0.9992 -0.0527  0.7405
16483SOL     OW61507   3.323   1.202   0.380  0.0163 -0.4074 -0.0209
16483SOL    HW161508   3.303   1.278   0.318 -0.6594  0.4084  1.1608
16483SOL    HW261509   3.421   1.202   0.402 -0.2654  1.3181  1.4370
16484SOL     OW61510   6.305   3.822   1.045 -0.0069  0.0385  0.0066
16484SOL    HW161511   6.354   3.780   1.121 -1.2535  0.3275  0.9853
16484SOL    HW261512   6.212   3.846   1.074  0.0323  1.6451 -1.1165
16485SOL     OW61513   4.718   6.253   3.841  0.0368  0.0201 -0.1601
16485SOL    HW161514   4.806   6.285   3.874 -0.0444 -1.0103  1.0931
16485SOL    HW261515   4.644   6.299   3.892 -0.1550  0.8533 -1.1775
16486SOL     OW61516   4.804   0.247   8.594  0.1416  0.0933  0.6565
16486SOL    HW161517   4.775   0.303   8.673  0.2755 -0.9646  1.4650
16486SOL    HW261518   4.760   0.157   8.600  0.6786 -0.2167 -0.1279
16487SOL     OW61519   7.054   3.543   3.591 -0.5026  0.2561 -0.3792
16487SOL    HW161520   7.063   3.586   3.681 -0.1752  0.2080 -0.3867
16487SOL    HW261521   7.142   3.503   3.565 -1.0685 -1.3290  0.0843
16488SOL     OW61522   8.123   2.577   5.049  0.2820  0.4985  0.4847
16488SOL    HW161523   8.110   2.653   5.112 -0.2951  0.5423  0.3163
16488SOL    HW261524   8.220   2.558   5.039  0.6697  3.6432 -2.3635
16489SOL     OW61525   1.876   3.600   6.511 -0.3472 -0.2508  0.5384
16489SOL    HW161526   1.856   3.548   6.594 -0.8629  0.4618  0.8726
16489SOL    HW261527   1.793   3.604   6.455 -0.4937  0.7395  0.8168
16490SOL     OW61528   7.467   5.864   3.880  0.4551  0.6957 -0.9349
16490SOL    HW161529   7.545   5.909   3.922  0.0273 -0.1766  0.8446
16490SOL    HW261530   7.476   5.765   3.891 -1.3751  0.6343  0.1871
16491SOL     OW61531   9.051   5.118   1.008 -0.2096  0.0471  0.0750
16491SOL    HW161532   9.107   5.036   1.017  0.9963  0.9565  1.1421
16491SOL    HW261533   9.001   5.116   0.921  0.6415 -1.2961 -0.3910
16492SOL     OW61534   0.225   9.590   7.891  0.0251  0.1611  0.4490
16492SOL    HW161535   0.276   9.590   7.805  1.6255 -1.5117  1.3551
16492SOL    HW261536   0.136   9.548   7.877  0.3555 -0.2875 -0.3588
16493SOL     OW61537   1.519   7.640   5.802  0.4068  0.8237 -0.5082
16493SOL    HW161538   1.555   7.695   5.727 -0.9915  2.0649 -0.2865
16493SOL    HW261539   1.424   7.616   5.783  1.2010 -2.2133 -0.9727
16494SOL     OW61540   2.771   0.091   8.136 -0.1105 -0.7664  0.3320
16494SOL    HW161541   2.831   0.130   8.205 -2.9687  1.1149  1.8692
16494SOL    HW261542   2.793   0.129   8.046  0.1250  0.9420  1.0900
16495SOL     OW61543   9.472   5.486   0.446 -0.2308  0.1029  0.0567
16495SOL    HW161544   9.488   5.444   0.535  0.6029  1.0193  0.3484
16495SOL    HW261545   9.405   5.432   0.395 -2.0008  0.4867  1.9009
16496SOL     OW61546   3.835   9.456   7.998  0.1620  0.4896 -0.4934
16496SOL    HW161547   3.843   9.445   7.899 -0.1721  1.5931 -0.6469
16496SOL    HW261548   3.896   9.528   8.028 -0.2285  0.6122  0.0110
16497SOL     OW61549   0.513   4.297   5.977  0.3014  0.4677 -0.3272
16497SOL    HW161550   0.611   4.287   5.995  0.3298  1.6040  0.2007
16497SOL    HW261551   0.491   4.253   5.890  1.3496  0.5367 -0.6405
16498SOL     OW61552   4.989   4.405   8.702 -0.2633 -0.3551 -0.2844
16498SOL    HW161553   5.047   4.460   8.642  1.5859  0.2995  2.0536
16498SOL    HW261554   4.974   4.315   8.660  1.0272  0.0659 -1.7021
16499SOL     OW61555   9.807   0.390   6.417 -1.2611  0.0257 -0.5146
16499SOL    HW161556   9.778   0.295   6.423  0.5723 -0.4131  1.8458
16499SOL    HW261557   9.732   0.450   6.445 -1.4668 -0.8695  0.9002
16500SOL     OW61558   3.740   1.342   3.471  0.1757 -0.4296 -0.5311
16500SOL    HW161559   3.778   1.287   3.396  0.6444  0.7716 -1.1906
16500SOL    HW261560   3.645   1.315   3.487 -0.4501  0.3775 -2.6526
16501SOL     OW61561   7.440   4.260   2.814  0.1264  0.4229  0.5702
16501SOL    HW161562   7.534   4.270   2.847 -0.6030  0.5268  2.7475
16501SOL    HW261563   7.377   4.289   2.886 -1.6505 -2.6949  0.3612
16502SOL     OW61564   2.178   9.845   7.510  0.3665  0.3349  0.3966
16502SOL    HW161565   2.225   9.895   7.436  0.5588 -1.1867 -0.5440
16502SOL    HW261566   2.105   9.790   7.471  1.0236 -1.1495  1.2329
16503SOL     OW61567   4.006   1.412   0.179  0.3308  0.3086 -0.2957
16503SOL    HW161568   3.995   1.312   0.179  2.4766  0.0474  0.6550
16503SOL    HW261569   3.959   1.450   0.258  1.1814 -0.1731  0.4523
16504SOL     OW61570   9.003   0.073   1.171 -0.2317  0.0901  0.4779
16504SOL    HW161571   8.920   0.045   1.221 -0.2188  1.5491  1.3237
16504SOL    HW261572   9.082   0.067   1.232  0.1592 -0.3875 -0.0652
16505SOL     OW61573   8.561   2.701   3.944 -0.2362 -0.4080  0.5062
16505SOL    HW161574   8.575   2.800   3.940  1.3639 -0.5719  1.7081
16505SOL    HW261575   8.464   2.681   3.932 -0.4492  1.2385 -0.7268
16506SOL     OW61576   2.248   2.715   6.221 -0.4002 -0.0712  0.1962
16506SOL    HW161577   2.313   2.680   6.154  1.6513  3.3127  0.3508
16506SOL    HW261578   2.252   2.659   6.304  1.4858 -0.6010 -0.2328
16507SOL     OW61579   4.810   2.659   8.842  0.8739 -0.1673 -0.0757
16507SOL    HW161580   4.888   2.636   8.901  0.8562 -2.6217 -0.9576
16507SOL    HW261581   4.821   2.614   8.754 -0.5719  1.0816 -0.9092
16508SOL     OW61582   5.022   5.679   8.932 -0.2547  0.1394  0.0558
16508SOL    HW161583   4.958   5.744   8.971 -0.4612  0.3004 -0.5460
16508SOL    HW261584   5.011   5.590   8.978 -2.5492 -0.4878 -1.6029
16509SOL     OW61585   2.773   0.180   4.287 -0.1516  0.4923  0.3967
16509SOL    HW161586   2.783   0.256   4.351 -0.9645  0.5648  0.4375
16509SOL    HW261587   2.838   0.192   4.211 -1.5235  2.2016 -0.5554
16510SOL     OW61588   5.663   9.241   7.139 -0.4495  0.4059 -0.1645
16510SOL    HW161589   5.658   9.282   7.230 -1.7879 -0.9575  0.3820
16510SOL    HW261590   5.726   9.295   7.082  0.6438  1.0909  1.6454
16511SOL     OW61591   6.073   8.908   5.560  0.1934  0.4245  0.5320
16511SOL    HW161592   6.134   8.932   5.636 -0.3204 -1.6917  1.6813
16511SOL    HW261593   6.043   8.813   5.571 -0.5494  0.3419 -1.9053
16512SOL     OW61594   4.491   7.555   0.195  0.5406  0.2548 -0.5398
16512SOL    HW161595   4.418   7.573   0.130 -0.2233 -0.7814  0.0267
16512SOL    HW261596   4.476   7.609   0.279  0.1971 -0.2832 -0.2559
16513SOL     OW61597   9.879   8.522   1.198 -0.5472 -0.2751 -0.3558
16513SOL    HW161598   9.889   8.430   1.237 -1.5039 -1.2337 -2.3144
16513SOL    HW261599   9.809   8.572   1.249 -0.5835 -0.9038  0.2248
16514SOL     OW61600   0.705   2.236   8.510  0.1183 -0.2058  0.2179
16514SOL    HW161601   0.778   2.174   8.483 -0.8563 -0.0031 -3.0268
16514SOL    HW261602   0.617   2.197   8.484 -0.8178  0.5042  2.2245
16515SOL     OW61603   5.071   0.417   6.488 -0.0278 -0.1917  0.2238
16515SOL    HW161604   5.164   0.451   6.472 -0.0231 -0.6310 -0.6790
16515SOL    HW261605   5.076   0.330   6.538  0.0805 -0.6292 -0.5403
16516SOL     OW61606   6.524   6.033   1.452 -0.0826 -0.3118 -0.0003
16516SOL    HW161607   6.550   6.091   1.530  0.9404  1.0846 -1.3431
16516SOL    HW261608   6.525   6.088   1.369  0.8049 -2.2519 -1.2858
16517SOL     OW61609   8.541   7.752   6.623 -0.3526 -0.6658 -0.2194
16517SOL    HW161610   8.592   7.800   6.695  0.5921 -1.7061 -0.1894
16517SOL    HW261611   8.444   7.777   6.630 -0.3677 -1.1717  1.7645
16518SOL     OW61612   7.320   3.156   2.914 -0.0182 -0.0561  0.0440
16518SOL    HW161613   7.331   3.076   2.854  0.0004  0.8187 -1.1209
16518SOL    HW261614   7.407   3.175   2.961  0.5650  0.5521 -1.2734
16519SOL     OW61615   2.362   5.001   1.376 -0.5411 -0.2904  0.1231
16519SOL    HW161616   2.274   4.976   1.417 -0.5825  0.0329  0.2341
16519SOL    HW261617   2.368   4.962   1.284 -1.0796  0.2511 -0.1433
16520SOL     OW61618   7.185   2.481   4.426  0.3572  0.4563  0.3217
16520SOL    HW161619   7.238   2.526   4.498  0.8122  0.1912  0.1501
16520SOL    HW261620   7.104   2.439   4.466 -0.4226  1.9758  0.4037
16521SOL     OW61621   0.350   6.815   4.456 -0.5125 -0.4024  0.2190
16521SOL    HW161622   0.403   6.768   4.526  1.3455  1.3715  0.0402
16521SOL    HW261623   0.366   6.771   4.367  0.2482 -0.1944  0.2532
16522SOL     OW61624   4.880   8.275   5.247  0.0696 -0.2285  0.4340
16522SOL    HW161625   4.969   8.236   5.222  0.4367 -0.0333  1.4033
16522SOL    HW261626   4.872   8.278   5.347 -0.5108  0.8922  0.3672
16523SOL     OW61627   9.497   1.022   8.822  0.3867 -0.2705  0.4624
16523SOL    HW161628   9.571   1.035   8.889 -0.2473 -0.4925  1.2028
16523SOL    HW261629   9.419   1.079   8.847 -0.0110 -0.6684  0.1334
16524SOL     OW61630   4.672   7.784   6.105 -0.4804  1.0066 -0.0409
16524SOL    HW161631   4.724   7.778   6.020 -0.1787  1.8103  0.0839
16524SOL    HW261632   4.721   7.842   6.170 -0.0448 -0.6868  1.1773
16525SOL     OW61633   3.863   3.544   8.318 -0.5599 -0.1153  0.2488
16525SOL    HW161634   3.786   3.532   8.381  0.8936 -0.4371  2.0087
16525SOL    HW261635   3.939   3.486   8.347  0.9213  1.4129 -0.4975
16526SOL     OW61636   5.215   0.616   2.503  0.6492 -0.1601 -0.1890
16526SOL    HW161637   5.193   0.530   2.548 -0.1718  0.2516  0.2133
16526SOL    HW261638   5.135   0.648   2.451  1.0374  0.2215 -0.5635
16527SOL     OW61639   0.256   3.842   2.790 -0.3424 -0.4893  0.4694
16527SOL    HW161640   0.293   3.934   2.772 -0.1891  0.1238  3.6031
16527SOL    HW261641   0.156   3.844   2.782 -0.5064  0.4720  2.4584
16528SOL     OW61642   9.857   5.005   1.683  0.0075 -0.0758 -0.1211
16528SOL    HW161643   9.835   4.954   1.599  0.3470 -1.3463  0.5544
16528SOL    HW261644   9.799   5.087   1.688 -2.0048 -1.4537 -0.2145
16529SOL     OW61645   6.810   3.092   8.828 -0.5176 -0.6409  0.0050
16529SOL    HW161646   6.731   3.116   8.773  0.1860 -1.2121 -1.2730
16529SOL    HW261647   6.827   2.994   8.822  1.3729 -0.2591 -1.2034
16530SOL     OW61648   9.715   7.712   1.164  0.4351 -0.1289  0.2998
16530SOL    HW161649   9.663   7.626   1.163 -1.1285  0.7598  1.9200
16530SOL    HW261650   9.802   7.699   1.211  1.5447 -1.5324 -2.0556
16531SOL     OW61651   2.372   5.560  -0.000  0.3855 -0.3507 -0.0755
16531SOL    HW161652   2.454   5.503  -0.000  1.3997  1.0836 -0.1840
16531SOL    HW261653   2.381   5.631   0.070  0.2259  1.1881 -1.5702
16532SOL     OW61654   0.893   3.697   5.137 -0.2774 -0.4727  0.1821
16532SOL    HW161655   0.828   3.773   5.127 -0.2180 -0.6233 -1.3235
16532SOL    HW261656   0.843   3.611   5.145 -0.2499 -0.6100 -1.1759
16533SOL     OW61657   7.950   3.031   2.819 -0.2592  0.0497  0.5240
16533SOL    HW161658   7.912   3.023   2.727  0.4760 -1.3185  0.3336
16533SOL    HW261659   7.884   2.997   2.885  0.9822 -3.3443  0.1065
16534SOL     OW61660   1.388   4.008   3.293 -0.3185 -0.2424 -0.0866
16534SOL    HW161661   1.343   4.057   3.367  1.7880 -0.1113  1.1518
16534SOL    HW261662   1.435   4.073   3.234 -0.7216 -0.4732 -0.6648
16535SOL     OW61663   4.673   3.296   9.717  0.4964  0.1606  0.2637
16535SOL    HW161664   4.643   3.220   9.774  0.1858  0.9384  1.1532
16535SOL    HW261665   4.593   3.346   9.683  0.5069 -2.2172 -3.5785
16536SOL     OW61666   1.029   4.373   0.930  0.1135 -0.1502 -0.7778
16536SOL    HW161667   1.032   4.426   1.015  0.1088 -1.4864  0.0781
16536SOL    HW261668   1.118   4.377   0.885 -0.2421  1.5939 -1.3744
16537SOL     OW61669   2.879   9.086   2.350  0.2821 -0.2090 -0.5026
16537SOL    HW161670   2.789   9.121   2.375  0.0699 -0.0502 -1.4790
16537SOL    HW261671   2.933   9.071   2.433  0.3956  2.4457 -0.0423
16538SOL     OW61672   1.905   0.473   5.103  0.2310 -0.2119  0.3130
16538SOL    HW161673   1.959   0.389   5.101 -1.0885 -1.0446 -0.5139
16538SOL    HW261674   1.811   0.454   5.076  0.5689  1.9877 -2.7169
16539SOL     OW61675   7.008   0.844   6.685  0.0136  0.2949 -0.6747
16539SOL    HW161676   7.100   0.822   6.651  0.9457 -0.1570  2.0026
16539SOL    HW261677   6.941   0.787   6.638  1.3943 -1.3314 -0.7462
16540SOL     OW61678   7.623   5.901   2.035 -0.1763 -0.7275  0.0761
16540SOL    HW161679   7.629   6.000   2.022  0.4363 -0.7280  0.3142
16540SOL    HW261680   7.609   5.856   1.947  1.0388 -0.5363 -0.2168
16541SOL     OW61681   8.614   8.884   8.695  0.8263 -0.2531 -0.2329
16541SOL    HW161682   8.618   8.937   8.611 -0.1323  0.4924  0.1931
16541SOL    HW261683   8.616   8.786   8.673 -0.6649 -0.0786 -1.1948
16542SOL     OW61684   1.980   6.468   7.119  0.0561  0.6843  0.1429
16542SOL    HW161685   1.913   6.511   7.058 -0.3184 -1.8086 -1.2962
16542SOL    HW261686   1.934   6.401   7.177  0.9316  0.7059  0.8705
16543SOL     OW61687   8.619   7.852   3.701  0.4322  0.9248 -0.0400
16543SOL    HW161688   8.549   7.836   3.772 -1.4281 -0.3612 -2.1107
16543SOL    HW261689   8.594   7.934   3.649  0.0929  0.0825 -1.2124
16544SOL     OW61690   0.457   6.541   1.170 -0.3413 -0.0600 -0.0761
16544SOL    HW161691   0.537   6.520   1.227 -2.9814  0.4823  4.0616
16544SOL    HW261692   0.393   6.465   1.172 -1.6075  0.9699 -0.2647
16545SOL     OW61693   7.550   2.088   2.203  0.2248 -0.1734 -0.8561
16545SOL    HW161694   7.551   2.050   2.296  1.3358  2.2118  0.1375
16545SOL    HW261695   7.523   2.016   2.139 -0.8290 -1.7987  1.3228
16546SOL     OW61696   9.694   6.904   4.105 -0.1564 -0.3000 -0.2873
16546SOL    HW161697   9.760   6.932   4.036 -0.1786  1.8994  0.5378
16546SOL    HW261698   9.613   6.962   4.099 -0.4297 -0.5026  1.1758
16547SOL     OW61699   0.463   7.821   9.834  0.6159 -0.2152  0.6138
16547SOL    HW161700   0.557   7.854   9.839  0.7848 -0.4801 -0.5650
16547SOL    HW261701   0.437   7.810   9.738 -0.5036 -0.4695  0.9378
16548SOL     OW61702   0.638   0.517   5.977  0.2780  0.2183  0.2717
16548SOL    HW161703   0.637   0.617   5.983  1.3393  0.3264 -0.8944
16548SOL    HW261704   0.646   0.490   5.881  0.4357 -0.9767  0.6136
16549SOL     OW61705   4.155   9.166   0.304  0.2912 -0.0083  0.1753
16549SOL    HW161706   4.206   9.151   0.389 -0.4372 -0.1943  0.5845
16549SOL    HW261707   4.149   9.264   0.286  1.0136  0.0098 -0.0183
16550SOL     OW61708   3.398   0.035   5.025 -0.1092 -0.0226 -0.3746
16550SOL    HW161709   3.338   0.066   5.099 -0.1370  1.7657 -1.1089
16550SOL    HW261710   3.359  -0.046   4.982 -0.9453 -0.0827  0.4792
16551SOL     OW61711   8.505   1.371   0.681 -0.7213 -0.2628  0.8916
16551SOL    HW161712   8.598   1.344   0.705 -0.6445  0.0638  0.9643
16551SOL    HW261713   8.492   1.468   0.702 -1.1655 -0.3738  1.1497
16552SOL     OW61714   1.345   0.718   0.119 -0.3862  0.5003  0.2684
16552SOL    HW161715   1.339   0.693   0.216  0.9816  0.8772  0.4634
16552SOL    HW261716   1.439   0.705   0.088 -1.4271 -2.5818 -1.8390
16553SOL     OW61717   4.922   8.564   5.447 -0.1097 -0.2945 -0.2119
16553SOL    HW161718   4.954   8.574   5.353  1.2311 -1.0356  0.1594
16553SOL    HW261719   4.917   8.467   5.470 -1.3098 -0.1440  0.1977
16554SOL     OW61720   5.672   9.060   7.664  0.2624 -0.4969 -0.3151
16554SOL    HW161721   5.703   9.138   7.610  1.3406 -0.2738  0.6005
16554SOL    HW261722   5.608   9.092   7.734  0.3975 -0.4911 -0.1947
16555SOL     OW61723   0.694   2.416   0.933  0.4017 -0.6532 -0.4581
16555SOL    HW161724   0.691   2.508   0.896  2.0149 -0.0285  0.8833
16555SOL    HW261725   0.657   2.351   0.866 -1.6070  1.0590 -1.0380
16556SOL     OW61726   5.947   4.106   1.806 -0.2029 -0.2467  0.4806
16556SOL    HW161727   5.932   4.135   1.711  0.3782 -0.8568  0.1994
16556SOL    HW261728   5.947   4.186   1.865 -1.4109  0.0711  0.0825
16557SOL     OW61729   0.634   3.341   7.892  0.6312 -0.3477  0.5338
16557SOL    HW161730   0.705   3.271   7.881 -0.1524 -0.6743 -2.8884
16557SOL    HW261731   0.551   3.298   7.928  1.1506 -0.5563  1.5036
16558SOL     OW61732   7.663   7.878   3.289 -0.2829 -0.0625  0.1646
16558SOL    HW161733   7.643   7.955   3.228  2.3582  0.1076 -0.5753
16558SOL    HW261734   7.658   7.793   3.237  0.4867 -0.0443  0.0482
16559SOL     OW61735   1.712   5.437   0.869  0.2258 -0.0507 -0.2507
16559SOL    HW161736   1.638   5.479   0.816  0.0267 -0.7921 -0.5766
16559SOL    HW261737   1.673   5.383   0.944  0.4554 -0.0233 -0.1111
16560SOL     OW61738   4.364   5.679   9.757  0.0491  0.2076  0.3563
16560SOL    HW161739   4.393   5.671   9.852 -1.2228  1.6546  0.8786
16560SOL    HW261740   4.419   5.748   9.711  1.3485 -1.2045 -0.2567
16561SOL     OW61741   0.927   5.174   5.482  0.6318 -0.0673 -0.0308
16561SOL    HW161742   0.911   5.158   5.384 -0.1080  0.5673 -0.0126
16561SOL    HW261743   0.967   5.264   5.496  0.2862  0.0358  0.2986
16562SOL     OW61744   0.943   4.508   7.959  0.2680  0.1033 -0.1919
16562SOL    HW161745   1.005   4.452   8.014 -0.4536 -2.7042 -2.1782
16562SOL    HW261746   0.859   4.457   7.940 -0.4659  1.9056 -1.9470
16563SOL     OW61747   7.273   3.477   8.913  0.3195 -0.2459  0.4078
16563SOL    HW161748   7.200   3.451   8.976 -0.6154  0.1042 -0.5001
16563SOL    HW261749   7.351   3.512   8.964 -0.8625  1.1299  1.3195
16564SOL     OW61750   1.725   1.317   8.154  0.5350  0.4132 -0.0006
16564SOL    HW161751   1.756   1.272   8.070 -1.5376 -1.1089  0.0181
16564SOL    HW261752   1.717   1.416   8.139  0.2080  0.1504 -1.5809
16565SOL     OW61753   2.254   5.385   5.983 -0.0992 -0.3065 -0.0052
16565SOL    HW161754   2.331   5.327   6.010 -0.0754 -0.3266 -0.1152
16565SOL    HW261755   2.208   5.419   6.065  1.4613  1.6475  0.1026
16566SOL     OW61756   0.953   7.848   7.885  0.5975 -0.5009 -0.0027
16566SOL    HW161757   1.047   7.880   7.870  0.3476 -0.8825 -2.5462
16566SOL    HW261758   0.896   7.924   7.914  1.4203 -0.0100  0.3439
16567SOL     OW61759   2.691   8.856   0.671 -0.1582  0.3638  0.1520
16567SOL    HW161760   2.707   8.933   0.732 -1.1906  1.0771 -0.4510
16567SOL    HW261761   2.778   8.819   0.639  0.3384  1.4828  0.1941
16568SOL     OW61762   9.675   1.036   0.851  0.1054 -0.0698 -0.0976
16568SOL    HW161763   9.655   0.982   0.770 -0.3676 -0.6252  0.3840
16568SOL    HW261764   9.687   1.132   0.825 -3.0533  0.2962 -0.4475
16569SOL     OW61765   0.235   8.322   0.125  0.3182  0.0545  0.0863
16569SOL    HW161766   0.181   8.288   0.048  0.0612  1.4107 -0.3569
16569SOL    HW261767   0.175   8.372   0.188  1.0188  1.5002 -0.3620
16570SOL     OW61768   1.957   3.291   7.454 -0.7284 -0.2943  0.3096
16570SOL    HW161769   1.994   3.341   7.532  0.2203  0.3842 -0.5740
16570SOL    HW261770   2.018   3.216   7.430 -0.2239  0.4635 -0.7770
16571SOL     OW61771   3.844   4.889   8.571 -0.4714 -0.0397 -0.5389
16571SOL    HW161772   3.846   4.903   8.669 -1.0377  0.2335 -0.5609
16571SOL    HW261773   3.767   4.940   8.532 -0.6184 -0.6351 -1.0389
16572SOL     OW61774   4.925   5.176   8.173 -0.1096 -0.0652  0.1836
16572SOL    HW161775   4.954   5.087   8.138  1.2434  1.6166 -3.2296
16572SOL    HW261776   4.947   5.183   8.270  2.6028 -2.3148 -0.2100
16573SOL     OW61777   1.721   8.830   4.342 -0.4307 -0.2978  0.3218
16573SOL    HW161778   1.667   8.849   4.260 -0.4032  0.5500  0.4950
16573SOL    HW261779   1.816   8.856   4.327 -0.0568 -1.7678  0.0270
16574SOL     OW61780   9.240   0.029   0.652  0.4011  0.4116 -0.6264
16574SOL    HW161781   9.166   0.096   0.664 -1.1873 -1.5411  0.8358
16574SOL    HW261782   9.290   0.019   0.737 -0.8062 -1.8749 -0.1522
16575SOL     OW61783   4.483   2.572   8.579 -0.0006 -0.2204  0.2498
16575SOL    HW161784   4.400   2.558   8.525  0.0306  1.3858 -0.2399
16575SOL    HW261785   4.533   2.651   8.544  1.1044 -0.4184  1.3294
16576SOL     OW61786   1.090   0.240   8.476 -0.1260  0.2442  0.2083
16576SOL    HW161787   1.081   0.315   8.541  0.5261  0.7987 -0.3404
16576SOL    HW261788   1.047   0.158   8.514  0.2995  0.5447  1.3698
16577SOL     OW61789   3.499   9.095   9.321  0.0205 -0.6261 -0.0988
16577SOL    HW161790   3.461   9.029   9.386 -1.6484 -0.2868 -0.7092
16577SOL    HW261791   3.451   9.182   9.331  1.0401 -0.0133 -0.4949
16578SOL     OW61792   7.459   9.083   3.151 -0.1886  0.3895 -0.2900
16578SOL    HW161793   7.441   8.986   3.134 -0.2089  0.2234  0.6308
16578SOL    HW261794   7.553   9.094   3.186  0.1973  0.8246 -1.4561
16579SOL     OW61795   9.006   0.681  10.051 -0.4235 -0.5233  0.2206
16579SOL    HW161796   9.090   0.731  10.029  0.0663  0.2321  3.5189
16579SOL    HW261797   8.934   0.746  10.075 -1.7819 -1.2021 -1.8181
16580SOL     OW61798   8.320   2.118   6.262  0.0756  0.1533  0.2927
16580SOL    HW161799   8.340   2.151   6.355 -0.6328 -0.7573  0.7840
16580SOL    HW261800   8.250   2.047   6.267  0.6693 -0.5268 -0.8695
16581SOL     OW61801   3.608   3.409   2.552  0.4043  0.0784 -0.4863
16581SOL    HW161802   3.677   3.399   2.481  1.4000 -0.2010  0.5055
16581SOL    HW261803   3.620   3.497   2.598  2.4941 -1.5266  2.1614
16582SOL     OW61804   1.467   0.329   9.931  0.3233  0.4548 -0.4864
16582SOL    HW161805   1.524   0.400   9.891 -2.3245  2.0248 -1.6169
16582SOL    HW261806   1.373   0.363   9.941 -1.0898 -2.9829 -1.3803
16583SOL     OW61807   0.944   0.744   9.423  0.6032 -0.1211  0.3073
16583SOL    HW161808   0.911   0.682   9.352 -2.3759  1.5389  0.1617
16583SOL    HW261809   0.949   0.694   9.510 -3.4036 -0.2413  0.5544
16584SOL     OW61810   5.500   6.355   1.155  0.1254 -0.0195  0.0988
16584SOL    HW161811   5.457   6.290   1.093  1.9826  1.7063 -3.1085
16584SOL    HW261812   5.598   6.334   1.163  0.7489  2.2924 -0.9789
16585SOL     OW61813   7.977   1.658   4.348 -0.1362  0.3479  0.2387
16585SOL    HW161814   7.996   1.571   4.392  0.7370  1.2157  1.6198
16585SOL    HW261815   7.927   1.717   4.412 -1.1600  0.6928 -0.8532
16586SOL     OW61816   5.186   1.844   9.317  0.3275 -0.3556  0.1683
16586SOL    HW161817   5.244   1.890   9.249  0.9494  0.6093  1.3313
16586SOL    HW261818   5.244   1.810   9.391 -0.3815 -1.1804  0.3460
16587SOL     OW61819   0.775   7.934   0.048 -0.3562 -0.3060  0.1381
16587SOL    HW161820   0.837   7.877   0.102  0.8186 -0.4467 -1.3309
16587SOL    HW261821   0.773   8.026   0.086  2.0677  0.1623 -0.7545
16588SOL     OW61822   3.906   5.523   1.112  0.0079 -0.2482 -0.1225
16588SOL    HW161823   3.926   5.620   1.097 -0.5024 -0.2141 -0.5629
16588SOL    HW261824   3.989   5.478   1.145  0.1768  0.3913  0.3641
16589SOL     OW61825   6.782   0.985   8.642 -0.0702 -0.6088 -0.4974
16589SOL    HW161826   6.738   1.039   8.714 -1.1804 -0.3039 -1.3898
16589SOL    HW261827   6.775   0.888   8.664  1.4228 -0.4247  0.8253
16590SOL     OW61828   5.233   0.231   6.296 -0.0752  0.1679  0.0021
16590SOL    HW161829   5.188   0.283   6.224 -0.4202 -0.5435 -0.3031
16590SOL    HW261830   5.212   0.271   6.385 -1.9725 -0.6268 -0.0751
16591SOL     OW61831   9.993   3.138   9.526 -0.0912  0.5194 -0.6720
16591SOL    HW161832   9.963   3.197   9.452  0.3045  0.3406 -0.9754
16591SOL    HW261833   9.944   3.051   9.521  1.5920 -0.3900 -2.1293
16592SOL     OW61834   5.124   7.081   1.050 -0.0011  0.4725 -0.6295
16592SOL    HW161835   5.178   7.011   1.098 -0.6443 -0.5095 -1.3441
16592SOL    HW261836   5.112   7.055   0.955  0.5295  2.0069 -1.1385
16593SOL     OW61837   9.161   9.190   3.067  0.0681 -0.2546  0.6384
16593SOL    HW161838   9.086   9.151   3.120 -0.6999 -0.5299 -0.6430
16593SOL    HW261839   9.238   9.127   3.067 -0.4304 -0.8684  0.2761
16594SOL     OW61840   2.408   0.788   3.815 -0.2092  0.5627  0.3449
16594SOL    HW161841   2.441   0.856   3.880 -1.5080  0.8711  0.6970
16594SOL    HW261842   2.350   0.832   3.747 -0.2677 -0.0420 -0.0041
16595SOL     OW61843   0.892   7.422   2.380  0.0015  0.5230  0.6729
16595SOL    HW161844   0.966   7.439   2.316 -1.2631  0.4927 -0.8385
16595SOL    HW261845   0.848   7.509   2.404 -0.8146  0.3438 -0.1157
16596SOL     OW61846   9.863   3.017   8.790 -0.4444  0.0233  0.0803
16596SOL    HW161847   9.838   3.042   8.697  0.8849 -0.4243 -0.3954
16596SOL    HW261848   9.870   2.918   8.797 -0.9380  0.0318  0.7646
16597SOL     OW61849   0.802   4.019   5.581  0.0148  0.3010  0.2106
16597SOL    HW161850   0.782   3.931   5.538  0.6208  1.5669 -2.7338
16597SOL    HW261851   0.849   4.003   5.668 -1.5048 -2.3073  0.6036
16598SOL     OW61852   2.451   5.613   2.198 -0.3338  0.1894 -0.1910
16598SOL    HW161853   2.383   5.628   2.126 -0.5638 -0.6308 -0.1508
16598SOL    HW261854   2.453   5.516   2.223  1.2015  0.1214 -0.5288
16599SOL     OW61855   0.096   4.537   4.661 -0.2803 -0.0311 -0.0833
16599SOL    HW161856  -0.003   4.549   4.656 -0.3355 -0.7824 -0.9268
16599SOL    HW261857   0.133   4.533   4.568  0.4682 -0.3566  0.2294
16600SOL     OW61858   9.226   6.857   4.773 -0.0733  0.3263  0.0865
16600SOL    HW161859   9.199   6.937   4.827 -2.2651 -0.8267  0.7629
16600SOL    HW261860   9.189   6.865   4.681  1.2257  0.9264 -0.3908
16601SOL     OW61861   4.314   1.143   1.511  0.4250 -0.3746 -0.1695
16601SOL    HW161862   4.239   1.157   1.447  1.6469 -0.2727 -1.6166
16601SOL    HW261863   4.279   1.141   1.604 -1.0241  2.6842 -0.5950
16602SOL     OW61864   6.591   3.116   1.332 -0.0314  0.9519 -0.6236
16602SOL    HW161865   6.536   3.199   1.339 -0.4701  0.6423 -0.3646
16602SOL    HW261866   6.569   3.069   1.246  0.5062  1.3077 -0.9587
16603SOL     OW61867   9.541   6.473   2.635  0.2731 -0.2143  0.3375
16603SOL    HW161868   9.491   6.543   2.686 -1.0363 -1.6124  0.9904
16603SOL    HW261869   9.596   6.517   2.564 -1.9218  1.3556 -0.4392
16604SOL     OW61870   9.091   8.650   8.069  0.5243  0.1595 -0.6614
16604SOL    HW161871   9.020   8.579   8.075 -0.6578  1.4037  0.3137
16604SOL    HW261872   9.179   8.607   8.051 -0.3859 -1.4572 -1.3532
16605SOL     OW61873   0.063   6.567   4.380 -0.2314  0.2367 -0.7793
16605SOL    HW161874  -0.005   6.525   4.320  0.9252 -2.1552 -0.4889
16605SOL    HW261875   0.062   6.521   4.469  2.2677 -0.3894 -1.0391
16606SOL     OW61876   3.139   4.839   8.369 -0.2589 -0.1405 -0.0018
16606SOL    HW161877   3.056   4.837   8.426  0.5467  1.1564  1.2523
16606SOL    HW261878   3.114   4.866   8.276 -1.2294  0.4643  0.4173
16607SOL     OW61879   6.697   1.108   4.294  0.2640  0.3119 -0.2317
16607SOL    HW161880   6.666   1.202   4.279  0.9942  0.4027 -1.1847
16607SOL    HW261881   6.647   1.069   4.371  0.9681  1.9639  1.0914
16608SOL     OW61882   2.257   3.978   9.682  0.0997  0.5557  0.2378
16608SOL    HW161883   2.268   3.939   9.591  0.8121  1.1558  0.0578
16608SOL    HW261884   2.293   3.915   9.751  0.1880  0.3952  0.0440
16609SOL     OW61885   7.108   4.349   9.497  0.0444 -0.0230 -0.1852
16609SOL    HW161886   7.183   4.405   9.532 -0.8826 -0.3608  2.5075
16609SOL    HW261887   7.056   4.400   9.429  0.6240  1.5176  0.5175
16610SOL     OW61888   8.705   7.066   6.619 -0.4745  1.2940 -0.1387
16610SOL    HW161889   8.804   7.061   6.635 -0.6424  0.9400  0.7775
16610SOL    HW261890   8.656   7.064   6.706 -1.2410  2.7860 -0.5127
16611SOL     OW61891   3.408   9.838   0.435 -0.3871 -0.1782  0.1806
16611SOL    HW161892   3.351   9.854   0.355 -1.2368  2.9878  1.3307
16611SOL    HW261893   3.490   9.894   0.430 -0.1471 -0.4111  1.2222
16612SOL     OW61894   4.707   6.691   2.051 -0.1407  0.4988 -0.0230
16612SOL    HW161895   4.679   6.615   2.109 -0.2656 -0.4615 -1.3141
16612SOL    HW261896   4.781   6.741   2.096 -0.6612  0.1638  1.2392
16613SOL     OW61897   1.301   8.832   0.216  0.1542  0.4687 -0.4065
16613SOL    HW161898   1.350   8.767   0.273  0.4896  1.6686  0.6980
16613SOL    HW261899   1.253   8.898   0.274  4.0051  4.3900 -1.4055
16614SOL     OW61900   2.639   3.613   4.278  0.8894 -0.1164  0.3017
16614SOL    HW161901   2.621   3.591   4.374  3.0553  1.0532  1.0061
16614SOL    HW261902   2.733   3.587   4.255  0.1911 -1.0000 -1.7153
16615SOL     OW61903   7.286   3.131   1.988  0.5573 -0.2370  0.7594
16615SOL    HW161904   7.275   3.049   2.044 -0.5331 -0.0462  0.8386
16615SOL    HW261905   7.253   3.211   2.039 -3.4122 -0.4792 -1.2859
16616SOL     OW61906   1.412   1.850   4.525 -0.4812  0.1273  0.2768
16616SOL    HW161907   1.317   1.878   4.510 -0.5734 -0.8702 -1.1300
16616SOL    HW261908   1.450   1.901   4.602 -1.7973  1.3874  0.1258
16617SOL     OW61909   0.236   8.839   7.942  0.1329 -0.5314 -0.4126
16617SOL    HW161910   0.178   8.861   7.863  0.1525  1.3133  0.0708
16617SOL    HW261911   0.332   8.837   7.914  0.3854  2.6910  0.0387
16618SOL     OW61912   6.548   9.667   4.163 -0.7169 -0.0832 -0.6998
16618SOL    HW161913   6.632   9.718   4.180 -0.6381  0.0124 -1.3531
16618SOL    HW261914   6.472   9.712   4.209 -0.3500 -0.3868  0.2185
16619SOL     OW61915   8.644   0.540   5.135  0.2668 -0.3148  0.3282
16619SOL    HW161916   8.636   0.559   5.038  0.2532  0.0311  0.3945
16619SOL    HW261917   8.728   0.487   5.152 -0.0364 -0.8780  0.0629
16620SOL     OW61918   4.521   9.180   6.703 -0.2097 -0.5111 -0.3501
16620SOL    HW161919   4.507   9.163   6.605  0.6323 -1.2527 -0.3529
16620SOL    HW261920   4.604   9.234   6.716 -0.1745 -0.6423 -0.0298
16621SOL     OW61921   2.965   3.298   1.958 -0.5607 -0.0500  0.8937
16621SOL    HW161922   2.893   3.310   2.026 -0.2530 -0.8270  1.3660
16621SOL    HW261923   3.037   3.365   1.973 -1.9595  1.8613 -0.6378
16622SOL     OW61924   4.365   7.347   1.771 -0.0141 -0.6836  0.1030
16622SOL    HW161925   4.348   7.445   1.767  0.5939 -0.5541  0.6012
16622SOL    HW261926   4.440   7.324   1.708  0.1930 -0.7452  0.3692
16623SOL     OW61927   4.297   8.575   7.849  0.0765  0.1990  0.4915
16623SOL    HW161928   4.314   8.477   7.861 -1.0312  0.0219  0.6007
16623SOL    HW261929   4.272   8.593   7.754  0.3122  0.3890  0.4638
16624SOL     OW61930   1.705   9.588   0.772 -0.5087  0.4194 -0.3341
16624SOL    HW161931   1.754   9.532   0.839 -1.3502 -0.4246 -0.4140
16624SOL    HW261932   1.666   9.529   0.702 -0.6617  1.1922 -0.9003
16625SOL     OW61933   2.685   0.986   3.408  0.0601  0.1406  0.0087
16625SOL    HW161934   2.630   1.013   3.488 -0.1532 -2.2099  0.6968
16625SOL    HW261935   2.764   0.934   3.438  0.3095 -0.2444 -1.2960
16626SOL     OW61936   9.642   0.728   5.820 -0.5647 -0.8040 -0.2208
16626SOL    HW161937   9.711   0.708   5.890 -1.4981 -1.9795  0.3887
16626SOL    HW261938   9.615   0.644   5.775 -2.9461 -0.6576  0.8405
16627SOL     OW61939   3.286   5.428   9.158 -0.1337  0.2372 -0.0927
16627SOL    HW161940   3.272   5.405   9.255  1.1561 -1.0682 -0.2042
16627SOL    HW261941   3.375   5.473   9.147 -0.8431  1.5488 -0.4892
16628SOL     OW61942   8.667   8.277   6.925 -0.1875  0.1191 -0.0112
16628SOL    HW161943   8.592   8.322   6.877 -1.4999 -1.0026  0.9603
16628SOL    HW261944   8.693   8.194   6.876 -1.0748 -0.6647  0.8213
16629SOL     OW61945   3.095   3.907   0.108 -0.2719  0.0302 -0.5598
16629SOL    HW161946   3.049   3.878   0.192  0.4254 -1.2192 -0.5950
16629SOL    HW261947   3.028   3.947   0.046 -0.5729  2.2117  1.1181
16630SOL     OW61948   3.680   9.832   6.194  0.3003  0.0248 -0.5560
16630SOL    HW161949   3.745   9.899   6.230  1.0707  0.4608 -2.6944
16630SOL    HW261950   3.729   9.749   6.166 -0.2176 -0.0556 -1.2241
16631SOL     OW61951   1.575   2.608   3.415 -0.3831  0.0663  0.0801
16631SOL    HW161952   1.513   2.532   3.395 -0.2636 -0.1165  0.4107
16631SOL    HW261953   1.521   2.692   3.428 -0.5693 -0.1169  0.4942
16632SOL     OW61954   5.110   3.142   0.580  0.1100  0.5669 -0.5316
16632SOL    HW161955   5.160   3.055   0.575 -0.1637  0.3548  0.2547
16632SOL    HW261956   5.077   3.167   0.489 -0.6444 -0.6440 -0.6040
16633SOL     OW61957   1.999   3.090   8.548  0.3870 -0.0838  0.0233
16633SOL    HW161958   1.954   3.048   8.469  0.1292  2.0472 -0.9756
16633SOL    HW261959   1.972   3.186   8.555  3.7257  0.9051  0.1948
16634SOL     OW61960   8.425   1.481   6.752  0.5694  0.3468  0.2905
16634SOL    HW161961   8.504   1.420   6.758  0.3248  0.1308  1.3772
16634SOL    HW261962   8.421   1.538   6.834 -0.5191  0.2168  0.3327
16635SOL     OW61963   5.805   2.616   9.990  0.4631  0.0736 -0.0714
16635SOL    HW161964   5.780   2.575   9.902  1.8328 -0.6249 -0.1388
16635SOL    HW261965   5.764   2.563  10.064  1.9631 -1.2470 -0.1714
16636SOL     OW61966   0.823   9.323   8.435  0.0010  0.5215  0.5668
16636SOL    HW161967   0.759   9.382   8.485 -2.1298 -0.6564 -0.6710
16636SOL    HW261968   0.833   9.236   8.484 -0.0683  0.3428  0.2610
16637SOL     OW61969   8.765   5.864   9.697  0.2804 -0.0640  0.1703
16637SOL    HW161970   8.671   5.881   9.730  0.5810 -0.8423  1.4478
16637SOL    HW261971   8.777   5.909   9.608 -1.6241 -0.8176 -0.4913
16638SOL     OW61972   2.333   0.315   4.123 -0.4862 -0.0433 -0.0541
16638SOL    HW161973   2.242   0.289   4.156 -0.8521  0.1177 -0.9322
16638SOL    HW261974   2.327   0.400   4.071 -0.1046 -0.9008 -1.5279
16639SOL     OW61975   5.131   0.315   7.393  0.0997 -0.3206 -0.4882
16639SOL    HW161976   5.123   0.408   7.358 -2.7263 -0.6956 -0.9684
16639SOL    HW261977   5.145   0.252   7.317 -0.7520 -0.5862 -0.4202
16640SOL     OW61978   7.982   6.021   4.387 -0.2435  0.3565  0.2634
16640SOL    HW161979   8.036   5.998   4.468  1.4072  0.8330 -0.6581
16640SOL    HW261980   8.006   6.113   4.357 -0.0340 -0.2265 -1.3925
16641SOL     OW61981   4.359   4.228   0.140 -0.0173  0.4446 -0.0206
16641SOL    HW161982   4.271   4.206   0.181  0.4975  0.6066  1.2094
16641SOL    HW261983   4.384   4.158   0.074 -0.5181 -0.2354  0.5011
16642SOL     OW61984   3.614   0.911   0.155 -0.1554  0.4722  0.2137
16642SOL    HW161985   3.626   0.869   0.245 -0.9570  0.3146  0.2562
16642SOL    HW261986   3.545   0.860   0.104  2.0852 -0.9566 -1.4680
16643SOL     OW61987   1.367   9.801   9.545 -0.5732  0.6092 -0.5957
16643SOL    HW161988   1.331   9.836   9.458  0.1616  0.6795 -0.8769
16643SOL    HW261989   1.319   9.717   9.569  1.5635 -1.3401 -2.8577
16644SOL     OW61990   6.276   1.607   1.044  0.0507  0.2355 -1.0556
16644SOL    HW161991   6.251   1.551   1.123 -0.8940  0.0291 -1.4906
16644SOL    HW261992   6.359   1.571   1.002 -1.5500 -1.9586 -2.4180
16645SOL     OW61993   1.256   7.284   7.333  0.2546  0.0063 -0.0417
16645SOL    HW161994   1.178   7.345   7.321  0.2360  0.5177  2.4425
16645SOL    HW261995   1.340   7.334   7.313  0.1289  0.3122  0.1911
16646SOL     OW61996   8.164   6.641   7.203 -0.1386  0.2040  0.4309
16646SOL    HW161997   8.214   6.698   7.138  0.8428 -0.4218  0.6359
16646SOL    HW261998   8.216   6.558   7.222 -1.2731 -0.4853  0.6063
16647SOL     OW61999   7.599   3.903   4.287 -0.2165 -0.6749 -0.2377
16647SOL    HW162000   7.634   3.956   4.365 -1.7603 -1.8720  1.3103
16647SOL    HW262001   7.651   3.817   4.280 -2.4356 -2.2334  1.7653
16648SOL     OW62002   1.944   5.315   9.892  0.6690  0.3015 -0.2869
16648SOL    HW162003   2.008   5.311   9.969  0.7668  0.8873 -0.3341
16648SOL    HW262004   1.906   5.407   9.886 -0.3983 -0.1226 -0.0872
16649SOL     OW62005   8.016   5.385   1.672 -0.1053 -0.7711 -0.6939
16649SOL    HW162006   8.087   5.410   1.606 -0.4883  0.9258 -0.5006
16649SOL    HW262007   7.987   5.291   1.657  1.9036 -1.3583 -1.0258
16650SOL     OW62008   0.592   1.915   2.333 -0.3469  1.1184 -0.0505
16650SOL    HW162009   0.673   1.870   2.371 -2.1843 -1.2724  1.1496
16650SOL    HW262010   0.617   1.963   2.249  2.0916 -0.5267 -0.3194
16651SOL     OW62011   0.025   1.879   0.186  0.2459  0.0780  0.0351
16651SOL    HW162012  -0.010   1.938   0.113 -1.7436 -1.2200 -0.0761
16651SOL    HW262013   0.008   1.923   0.275 -1.6341 -0.5068 -0.0193
16652SOL     OW62014   8.338   9.469   1.742 -0.3617 -0.2031  0.4284
16652SOL    HW162015   8.299   9.450   1.832  3.6535  1.4381  2.6590
16652SOL    HW262016   8.337   9.386   1.686 -0.9926 -1.8045  2.7797
16653SOL     OW62017   2.195   8.965   3.690 -0.9582  0.7094 -0.2489
16653SOL    HW162018   2.179   9.001   3.782 -0.2381 -0.6563  0.4343
16653SOL    HW262019   2.291   8.937   3.682 -1.5146 -1.0902 -0.7439
16654SOL     OW62020   0.419   3.714   0.461 -0.0928  0.3299  0.1820
16654SOL    HW162021   0.380   3.692   0.550  1.6902 -0.9915  0.6582
16654SOL    HW262022   0.438   3.630   0.410 -0.2837  1.0399 -1.0845
16655SOL     OW62023   9.785   4.920   2.409  0.4879 -0.3928  0.0746
16655SOL    HW162024   9.884   4.911   2.405  0.4160 -0.4056 -2.1714
16655SOL    HW262025   9.743   4.859   2.342 -1.0347 -0.2397  0.8729
16656SOL     OW62026   2.109   6.188   0.795 -0.0030  0.0220  0.1670
16656SOL    HW162027   2.067   6.098   0.805 -2.2295  0.9385 -0.5802
16656SOL    HW262028   2.039   6.258   0.805  1.4986  1.6287 -0.4376
16657SOL     OW62029   4.418   8.204   2.754 -0.2735 -0.1036 -0.3673
16657SOL    HW162030   4.391   8.300   2.762  0.0662 -0.0302 -0.1223
16657SOL    HW262031   4.409   8.174   2.659  0.6789  0.4819 -0.6459
16658SOL     OW62032   3.916   5.020  10.055  0.2771  0.4407  0.0817
16658SOL    HW162033   3.963   5.002  10.142  1.2994 -2.2539 -0.9822
16658SOL    HW262034   3.975   5.076   9.997 -0.2098  1.8396  0.8980
16659SOL     OW62035   6.357   9.874   5.133  0.4653 -0.1401  0.0491
16659SOL    HW162036   6.390   9.783   5.111  0.4870 -0.3601  0.9609
16659SOL    HW262037   6.364   9.889   5.232 -0.1383  0.6013 -0.0131
16660SOL     OW62038   2.662   8.263   2.829  0.3628 -0.7243  0.5879
16660SOL    HW162039   2.642   8.178   2.779 -0.5430 -0.5165  0.5874
16660SOL    HW262040   2.576   8.312   2.845  1.0839  1.2039 -1.1997
16661SOL     OW62041   4.088   9.558   3.903  0.4682  0.2716  0.3218
16661SOL    HW162042   4.009   9.529   3.957 -0.2320 -0.0946 -0.8658
16661SOL    HW262043   4.151   9.481   3.892  0.5291  0.2985  0.4945
16662SOL     OW62044   7.879   6.233   2.026  0.3701  0.8711 -0.5968
16662SOL    HW162045   7.811   6.241   1.954  0.6130  2.4613 -0.6649
16662SOL    HW262046   7.969   6.217   1.986  0.0765 -1.1633 -0.5095
16663SOL     OW62047   4.814   1.366   4.488  0.0606  0.6704  0.0244
16663SOL    HW162048   4.806   1.278   4.535  0.5217  1.0456  0.8293
16663SOL    HW262049   4.814   1.352   4.389  1.5500 -0.3638  0.1572
16664SOL     OW62050   6.967   7.889   5.986 -0.0106  0.4410  0.1948
16664SOL    HW162051   6.983   7.877   6.084  2.5999  0.7812 -0.1381
16664SOL    HW262052   7.038   7.840   5.934 -1.5891 -0.0742 -1.5376
16665SOL     OW62053   9.488   9.745   3.667 -0.1893  0.2212  0.3416
16665SOL    HW162054   9.419   9.674   3.652 -0.0375 -0.0878  1.0857
16665SOL    HW262055   9.493   9.804   3.586 -0.8982 -0.1153  0.0444
16666SOL     OW62056   4.557   9.843   6.031  0.4860 -0.4894  0.5491
16666SOL    HW162057   4.539   9.803   6.121  0.0902  1.7546  1.5061
16666SOL    HW262058   4.588   9.938   6.043 -4.5204  1.5991 -1.8756
16667SOL     OW62059   8.456   9.083   2.227 -0.2508 -0.0624 -0.4799
16667SOL    HW162060   8.487   9.176   2.204  1.8173 -0.6912 -0.3463
16667SOL    HW262061   8.487   9.019   2.157 -0.6173 -0.8489  0.0670
16668SOL     OW62062   2.218   8.943   2.993  0.2756  0.1017  0.4274
16668SOL    HW162063   2.203   8.844   2.989 -1.7376  0.4339 -1.0957
16668SOL    HW262064   2.131   8.989   3.011  0.5814  1.7441 -2.0237
16669SOL     OW62065   3.806   9.207   3.714 -0.1542  0.1683 -0.4120
16669SOL    HW162066   3.728   9.206   3.776 -0.1738  0.9169 -0.4176
16669SOL    HW262067   3.783   9.261   3.632  0.3679  0.4011 -0.4057
16670SOL     OW62068   9.127   6.565   9.253 -0.1263 -0.3551 -0.3237
16670SOL    HW162069   9.110   6.521   9.165  0.3865 -0.2825 -0.4623
16670SOL    HW262070   9.221   6.546   9.283  0.3282  1.1535 -0.7011
16671SOL     OW62071   2.526   3.852   4.250  0.1579  0.1818  0.4032
16671SOL    HW162072   2.591   3.776   4.249  0.0634  0.1023  0.3252
16671SOL    HW262073   2.447   3.826   4.305  0.5471  0.5721  1.1658
16672SOL     OW62074   1.987   4.482   2.190  0.0853 -0.0620 -0.0610
16672SOL    HW162075   1.938   4.530   2.118  1.2568  0.4535 -0.5223
16672SOL    HW262076   2.082   4.514   2.194  0.2272 -0.5901  1.2347
16673SOL     OW62077   6.000   3.388   8.263 -0.0490 -0.2558  0.3085
16673SOL    HW162078   5.992   3.480   8.300 -1.5477 -0.5181  0.6482
16673SOL    HW262079   5.910   3.344   8.262  0.8020 -2.0630  1.0573
16674SOL     OW62080   8.553   6.896   0.805  0.5292  0.1870  0.1917
16674SOL    HW162081   8.589   6.817   0.853  0.0586  0.7028  1.4167
16674SOL    HW262082   8.457   6.881   0.782  0.3043  0.5909  0.8563
16675SOL     OW62083   3.063   9.687   6.331  0.0387  0.2576 -0.0837
16675SOL    HW162084   3.150   9.732   6.348  0.9437 -1.7404  0.8210
16675SOL    HW262085   3.075   9.615   6.263 -1.1585  0.6984 -0.7808
16676SOL     OW62086   2.349   5.648   0.632 -0.1368 -0.4131  0.1729
16676SOL    HW162087   2.284   5.580   0.668  0.2874 -0.4897  0.8022
16676SOL    HW262088   2.298   5.728   0.600 -0.7061 -1.3570 -1.3365
16677SOL     OW62089   9.910   3.360   7.669  0.7924  0.5381 -0.1388
16677SOL    HW162090  10.006   3.371   7.642  0.9177 -0.5516 -0.1662
16677SOL    HW262091   9.858   3.323   7.592  0.1938  1.7679 -0.3485
16678SOL     OW62092   1.800   3.662   3.860 -0.5554  0.2066  0.3456
16678SOL    HW162093   1.779   3.595   3.932 -3.3029 -0.3388 -0.9134
16678SOL    HW262094   1.801   3.616   3.771  3.6802  0.6944  0.0257
16679SOL     OW62095   0.428   4.088   1.602 -0.1072  0.5053  0.1939
16679SOL    HW162096   0.518   4.053   1.627 -0.4419  0.0901  0.8431
16679SOL    HW262097   0.437   4.180   1.565  0.6716  0.1579 -0.5186
16680SOL     OW62098   8.411   7.332   7.293  0.2480  0.7349  0.6228
16680SOL    HW162099   8.449   7.394   7.361 -0.0105 -0.5163  1.9518
16680SOL    HW262100   8.319   7.304   7.322 -0.2352  0.9169 -0.7224
16681SOL     OW62101   0.993   7.411   5.092 -0.2950  0.3246  0.6530
16681SOL    HW162102   1.016   7.467   5.172 -1.4276 -0.4553  1.5378
16681SOL    HW262103   0.978   7.317   5.120  1.0737 -0.3303 -0.7632
16682SOL     OW62104   7.811   6.369   2.496  0.0651  0.0651  0.4087
16682SOL    HW162105   7.766   6.408   2.576 -1.0062  0.5879 -0.4335
16682SOL    HW262106   7.755   6.385   2.415  1.4678  0.1461 -0.5636
16683SOL     OW62107   6.389   5.232   8.426  0.2963 -0.3532 -0.2306
16683SOL    HW162108   6.390   5.211   8.524 -0.6197  1.4220  0.1767
16683SOL    HW262109   6.370   5.329   8.412  1.6536 -0.3196 -2.1484
16684SOL     OW62110   4.725   3.295   1.987 -0.8912 -0.0134  0.2081
16684SOL    HW162111   4.824   3.285   2.002 -0.3266 -1.9862 -3.9946
16684SOL    HW262112   4.678   3.214   2.022 -1.0578  0.9235  2.2052
16685SOL     OW62113   9.738   6.538   7.908 -0.7242  0.0562  0.0369
16685SOL    HW162114   9.649   6.495   7.919 -1.0730  0.6657 -0.3882
16685SOL    HW262115   9.810   6.474   7.934 -1.2952 -0.3591  0.5955
16686SOL     OW62116   2.384   6.616   4.933 -0.1930  0.1093 -0.3663
16686SOL    HW162117   2.473   6.642   4.971  0.0743  0.1241 -0.9961
16686SOL    HW262118   2.318   6.689   4.949  0.6363  1.3212 -2.4095
16687SOL     OW62119   8.536   9.440   4.715  0.2268  0.1618 -0.0920
16687SOL    HW162120   8.437   9.442   4.698  0.3694  1.0079 -0.8665
16687SOL    HW262121   8.553   9.404   4.806 -0.8781  1.3815  0.6289
16688SOL     OW62122   3.529   8.448   2.314  0.0787 -1.1057  0.2477
16688SOL    HW162123   3.568   8.358   2.333  1.0867 -1.0869 -1.7162
16688SOL    HW262124   3.600   8.517   2.320 -0.3261 -0.6609 -0.0968
16689SOL     OW62125   5.800   2.398   1.570  0.0747 -0.0441  0.0319
16689SOL    HW162126   5.842   2.482   1.605  1.8685 -0.5020 -0.9103
16689SOL    HW262127   5.803   2.400   1.470 -2.5253  0.0547 -0.0710
16690SOL     OW62128   8.509   7.928   6.390  0.4722 -0.5429  0.2969
16690SOL    HW162129   8.520   7.880   6.477  1.7919 -0.3618  0.2313
16690SOL    HW262130   8.574   7.892   6.324 -0.5233 -0.6701 -0.6219
16691SOL     OW62131   9.807   2.869   2.398 -0.0644  0.0229 -0.5578
16691SOL    HW162132   9.907   2.877   2.394 -0.1466  2.4868  1.3602
16691SOL    HW262133   9.782   2.786   2.448  1.0511  0.5478  0.8958
16692SOL     OW62134   1.621   7.317   8.965  0.7729 -0.1506 -0.1869
16692SOL    HW162135   1.600   7.380   8.889  0.4210 -0.7240 -0.5734
16692SOL    HW262136   1.718   7.324   8.988  1.0921 -0.6478 -1.3263
16693SOL     OW62137   2.446   2.732   2.566 -0.0874  0.6199  0.2395
16693SOL    HW162138   2.367   2.793   2.563  0.2849  1.0805 -0.5842
16693SOL    HW262139   2.529   2.784   2.543  0.2414 -0.1753 -0.4263
16694SOL     OW62140   0.863   5.492   9.333  0.9171 -0.2917  0.5571
16694SOL    HW162141   0.951   5.526   9.367  1.2622  0.9257 -1.4815
16694SOL    HW262142   0.790   5.553   9.362  1.3511  1.4116 -1.7741
16695SOL     OW62143   1.250   6.288   0.421  0.0494 -0.1555  0.2430
16695SOL    HW162144   1.157   6.286   0.456 -0.3451 -0.8580 -0.8172
16695SOL    HW262145   1.267   6.206   0.366  1.2873 -0.0297  0.4074
16696SOL     OW62146   0.549   4.208   8.802  0.5417  0.4621 -0.0179
16696SOL    HW162147   0.449   4.210   8.802  0.5294  0.3423 -1.0787
16696SOL    HW262148   0.582   4.168   8.887 -0.2587  2.6327  1.3476
16697SOL     OW62149   7.036   6.628   6.823  0.2822  1.0496  0.3874
16697SOL    HW162150   7.122   6.605   6.870 -0.9914  0.4517  2.4742
16697SOL    HW262151   6.989   6.543   6.797  0.2907  1.3767 -0.7298
16698SOL     OW62152   5.983   9.594   6.657  0.0989  0.5252  0.3540
16698SOL    HW162153   5.946   9.505   6.685 -1.4939  0.8240 -0.7323
16698SOL    HW262154   6.076   9.582   6.622 -0.6737 -0.9925 -1.2793
16699SOL     OW62155   3.552   9.021   6.250 -0.0379  0.1512  0.0429
16699SOL    HW162156   3.483   8.948   6.248 -0.6725  0.6943  1.5606
16699SOL    HW262157   3.562   9.060   6.158 -1.5840 -0.0842 -0.2381
16700SOL     OW62158   1.361   6.977   4.217 -0.4116  0.4601 -0.0660
16700SOL    HW162159   1.358   6.890   4.265 -0.6014  0.3928 -0.1947
16700SOL    HW262160   1.274   6.991   4.169  0.6489 -0.6044 -2.3647
16701SOL     OW62161   5.308   5.124   9.092  0.1260  0.0567 -0.2903
16701SOL    HW162162   5.261   5.075   9.018  1.4780  0.1841 -1.2552
16701SOL    HW262163   5.298   5.223   9.077  1.1669  0.0873 -0.8137
16702SOL     OW62164   3.866   0.560   9.783 -0.1053  0.4942  0.2535
16702SOL    HW162165   3.928   0.637   9.775 -2.8164  2.7864  0.3690
16702SOL    HW262166   3.870   0.505   9.700  1.1999  1.2571 -0.1990
16703SOL     OW62167   6.600   7.718   6.227  0.6197 -0.3831 -0.0797
16703SOL    HW162168   6.642   7.658   6.295 -0.8619  1.2091  2.2722
16703SOL    HW262169   6.654   7.802   6.219 -1.3121  1.0845  1.9635
16704SOL     OW62170   9.547   3.512   5.437 -0.1425 -0.5467  0.0747
16704SOL    HW162171   9.586   3.474   5.353 -0.6080 -1.0721  0.0915
16704SOL    HW262172   9.488   3.590   5.413  0.4790 -0.0940  0.0036
16705SOL     OW62173   2.727   9.463   2.129 -0.2935  0.3870 -0.1913
16705SOL    HW162174   2.708   9.476   2.226 -2.3169 -1.5625 -0.2970
16705SOL    HW262175   2.816   9.418   2.118 -0.5186 -0.3197  0.8231
16706SOL     OW62176   9.869   1.695   4.405  0.2147  0.3513  0.3082
16706SOL    HW162177   9.920   1.651   4.331 -1.9502 -0.9319 -0.4578
16706SOL    HW262178   9.788   1.740   4.368  0.4248  1.8591  1.5919
16707SOL     OW62179   8.525   4.442   5.458 -0.7823 -0.0643 -0.1362
16707SOL    HW162180   8.473   4.361   5.429 -0.9155  0.3160 -0.9545
16707SOL    HW262181   8.579   4.418   5.539 -1.2546 -0.8182 -0.0318
16708SOL     OW62182   7.934   8.042   2.904 -0.1468  0.0698  0.2268
16708SOL    HW162183   7.998   7.973   2.869 -0.3167  0.4142 -0.7793
16708SOL    HW262184   7.973   8.086   2.984  1.8701  1.8466 -1.6714
16709SOL     OW62185   1.466   0.334   1.043  0.2823 -0.3212  0.1463
16709SOL    HW162186   1.545   0.273   1.038 -0.2864 -1.1109  0.6034
16709SOL    HW262187   1.474   0.406   0.973  1.5650 -0.1881  0.4098
16710SOL     OW62188   8.991   7.303   0.144  0.3324 -0.3645  0.3604
16710SOL    HW162189   8.961   7.219   0.098 -0.4857  0.2699 -0.2962
16710SOL    HW262190   9.060   7.281   0.212  1.9874 -1.2716 -1.5712
16711SOL     OW62191   6.448   0.212   2.207 -0.3093  0.2530  0.2975
16711SOL    HW162192   6.486   0.298   2.172 -1.5859  0.8147  0.2675
16711SOL    HW262193   6.459   0.140   2.138  0.5703  0.4306  0.2398
16712SOL     OW62194   2.433   9.098   7.994  0.8392  0.1905  0.6946
16712SOL    HW162195   2.358   9.146   8.040  0.1558  1.7549 -1.9038
16712SOL    HW262196   2.509   9.161   7.980  2.4782 -1.2605  2.8836
16713SOL     OW62197   3.348   8.866   8.531  0.1144 -0.8032 -0.7004
16713SOL    HW162198   3.400   8.782   8.519  2.0862  0.4158 -0.7789
16713SOL    HW262199   3.317   8.874   8.626  2.2671 -0.2777 -0.0315
16714SOL     OW62200   8.706   2.232   5.457  0.2967 -0.7430 -0.1506
16714SOL    HW162201   8.760   2.252   5.538  1.5982  1.0651 -1.4275
16714SOL    HW262202   8.715   2.135   5.434  0.5136 -1.1079  1.3974
16715SOL     OW62203   1.714   0.860   9.579  0.1714 -0.3703 -0.1369
16715SOL    HW162204   1.806   0.876   9.543  0.2200 -1.0777 -0.3460
16715SOL    HW262205   1.647   0.900   9.517  0.4143  2.2615  1.2359
16716SOL     OW62206   2.541   0.555   2.139 -0.3702  0.6693  0.1480
16716SOL    HW162207   2.508   0.460   2.143  1.0176  0.1401 -0.6736
16716SOL    HW262208   2.640   0.556   2.149 -0.2472  1.9492 -1.0323
16717SOL     OW62209   6.208   0.451   5.132 -0.5124  0.5252  0.0475
16717SOL    HW162210   6.153   0.495   5.062  1.0640  1.9472 -0.3397
16717SOL    HW262211   6.305   0.466   5.113 -0.0522  1.5724  2.9118
16718SOL     OW62212   3.572   5.010   3.550  0.1702  0.3564  0.1592
16718SOL    HW162213   3.563   4.987   3.453  0.7199  1.0349 -0.0472
16718SOL    HW262214   3.511   4.950   3.603 -1.4300  1.1376 -0.7516
16719SOL     OW62215   8.288   3.585   1.184 -0.3295 -0.4011 -0.4735
16719SOL    HW162216   8.213   3.645   1.211 -0.3936  0.6714 -2.9311
16719SOL    HW262217   8.280   3.563   1.087  0.8748 -2.7079 -0.1019
16720SOL     OW62218   6.691   4.580   2.387  0.3965 -0.0661  0.5195
16720SOL    HW162219   6.763   4.523   2.346  0.5146  1.0584 -0.8690
16720SOL    HW262220   6.671   4.657   2.326 -1.9229 -0.3047  0.9423
16721SOL     OW62221   0.986   0.040   5.994 -0.1216  0.2184  0.4707
16721SOL    HW162222   1.073   0.078   5.961 -0.9775  1.8545  0.0970
16721SOL    HW262223   0.948  -0.021   5.925  1.2808 -1.4245  1.1010
16722SOL     OW62224   6.605   3.993   2.158 -0.1813  0.1356  0.0423
16722SOL    HW162225   6.625   4.091   2.154  1.8055 -0.2755 -0.9236
16722SOL    HW262226   6.516   3.978   2.201 -0.3957  2.3461  0.3988
16723SOL     OW62227   8.273   0.530   0.575  0.2754  0.2225 -0.4380
16723SOL    HW162228   8.366   0.498   0.595 -0.8186 -1.4175  2.3288
16723SOL    HW262229   8.225   0.461   0.520  0.1530  0.2988 -0.4253
16724SOL     OW62230   6.922   1.645   1.574  0.5177  0.5139  0.5276
16724SOL    HW162231   6.910   1.549   1.598 -2.0315  0.5151 -0.5589
16724SOL    HW262232   6.861   1.702   1.629  1.6038  1.4855  0.7738
16725SOL     OW62233   2.294   3.074   7.620 -0.1151  0.3724 -0.2929
16725SOL    HW162234   2.327   3.131   7.695 -0.6742 -0.6485  0.7293
16725SOL    HW262235   2.372   3.025   7.579  0.2231  1.1106 -0.5414
16726SOL     OW62236   7.380   0.718   5.616 -0.6277 -0.1805  0.3115
16726SOL    HW162237   7.358   0.714   5.519 -0.3528  1.0380  0.2029
16726SOL    HW262238   7.302   0.684   5.669 -1.3371  0.5473 -0.2564
16727SOL     OW62239   5.351   9.179   6.562  0.2430 -0.7891 -0.1218
16727SOL    HW162240   5.326   9.133   6.477  1.8301  0.8742 -1.5467
16727SOL    HW262241   5.442   9.149   6.591  0.6194  0.2261 -0.2161
16728SOL     OW62242   2.231   1.557   6.845 -0.0660 -0.1244 -0.4601
16728SOL    HW162243   2.301   1.579   6.777 -1.0348 -1.1101 -1.8011
16728SOL    HW262244   2.186   1.472   6.819 -1.0837 -0.0194  0.9364
16729SOL     OW62245   8.442   1.374   2.949 -0.1987  0.3362  0.0616
16729SOL    HW162246   8.344   1.385   2.932 -0.4039  0.8930  1.5490
16729SOL    HW262247   8.458   1.365   3.048  0.9968 -2.2121 -0.3114
16730SOL     OW62248   8.805   3.035   8.209 -0.2515 -0.5035  0.3075
16730SOL    HW162249   8.814   2.935   8.210  0.7449 -0.4311 -0.4424
16730SOL    HW262250   8.826   3.071   8.299 -2.7256 -1.1338  1.1647
16731SOL     OW62251   9.217   2.467   3.212 -0.1197 -0.5065  0.2004
16731SOL    HW162252   9.212   2.385   3.155 -0.4318  0.5149 -1.2750
16731SOL    HW262253   9.143   2.466   3.279 -0.8626 -0.8453 -0.6123
16732SOL     OW62254   2.382   6.222   3.269 -0.3132 -0.1058 -0.5811
16732SOL    HW162255   2.393   6.131   3.308  0.6881  0.6728  0.9988
16732SOL    HW262256   2.316   6.219   3.194 -1.9586 -1.7122  0.9042
16733SOL     OW62257   9.315   7.417   4.854 -0.1668 -0.2908  0.0334
16733SOL    HW162258   9.234   7.444   4.907 -0.8071 -1.7623 -0.1581
16733SOL    HW262259   9.336   7.489   4.787 -1.0499  0.3108  0.3809
16734SOL     OW62260   0.970   1.374   0.105  0.6534 -0.3693 -0.5835
16734SOL    HW162261   1.011   1.446   0.161  1.2480  0.3137 -1.8758
16734SOL    HW262262   1.039   1.305   0.085  1.0182  0.4676 -2.2438
16735SOL     OW62263   4.668   9.703   0.358 -0.4249 -0.0096 -0.4393
16735SOL    HW162264   4.727   9.697   0.438 -0.2530  2.4609 -0.3599
16735SOL    HW262265   4.591   9.639   0.368 -0.7989  0.7850  2.0375
16736SOL     OW62266   8.440   2.924   8.723  1.2755 -0.1784  0.1494
16736SOL    HW162267   8.390   3.005   8.753 -0.3488  0.2848 -3.4522
16736SOL    HW262268   8.536   2.932   8.749  0.4575  1.2371  2.8942
16737SOL     OW62269   1.091   7.285   6.101 -0.3690  0.2448 -0.3075
16737SOL    HW162270   1.141   7.239   6.027 -0.5990  0.3243 -0.5140
16737SOL    HW262271   1.077   7.222   6.177  0.1814  0.2671 -0.1857
16738SOL     OW62272   8.193   6.911   3.722  0.2449 -0.1015 -0.1827
16738SOL    HW162273   8.212   7.007   3.745  1.9180 -0.6569  0.8938
16738SOL    HW262274   8.119   6.877   3.779 -0.3773  0.5506 -0.5890
16739SOL     OW62275   2.294   5.655   3.559 -0.1393  0.5757  0.6704
16739SOL    HW162276   2.255   5.711   3.486 -0.2181 -0.0516  0.2274
16739SOL    HW262277   2.238   5.663   3.641 -1.6470 -0.8958 -0.1729
16740SOL     OW62278   0.226   1.908   7.553  0.2378 -0.7026 -0.0689
16740SOL    HW162279   0.165   1.868   7.484  1.1526 -2.0723 -0.1074
16740SOL    HW262280   0.272   1.988   7.514 -0.4493 -0.5179 -0.5126
16741SOL     OW62281   1.745   4.785   5.941  0.3075 -0.1483 -0.4961
16741SOL    HW162282   1.697   4.857   5.991  0.6030 -1.1078  1.1913
16741SOL    HW262283   1.836   4.818   5.914  1.0814 -0.4381  1.7185
16742SOL     OW62284   7.851   8.804   3.681  0.5352 -0.3400 -0.5749
16742SOL    HW162285   7.774   8.814   3.618  0.6754  0.0241 -0.6925
16742SOL    HW262286   7.820   8.761   3.766  0.2304 -0.3117 -0.6719
16743SOL     OW62287   9.456   0.564   3.250 -0.3340 -0.2940  0.3810
16743SOL    HW162288   9.370   0.556   3.198  1.2829 -0.2436 -2.4423
16743SOL    HW262289   9.498   0.652   3.231  0.6178 -0.5392  1.3039
16744SOL     OW62290   0.801   3.587   6.558  0.6472 -0.4533 -0.0954
16744SOL    HW162291   0.897   3.609   6.539  0.1896  1.3828 -0.3148
16744SOL    HW262292   0.796   3.535   6.643  1.7252  0.5976  0.6313
16745SOL     OW62293   9.876   6.046   1.905  0.1608  0.0890 -0.0588
16745SOL    HW162294   9.928   5.969   1.942  0.9469  0.2214 -0.8760
16745SOL    HW262295   9.897   6.057   1.808  1.1626  2.2077  0.3546
16746SOL     OW62296   8.518   0.209   4.516  0.4433 -0.3518  0.1172
16746SOL    HW162297   8.577   0.131   4.500 -0.0356 -0.7837  0.4427
16746SOL    HW262298   8.572   0.285   4.553  0.6358 -1.0613  1.3324
16747SOL     OW62299   5.627   1.084   3.423 -0.0091 -0.0382 -0.3787
16747SOL    HW162300   5.542   1.051   3.382  0.0264  0.3358 -0.7566
16747SOL    HW262301   5.657   1.020   3.494 -0.3693 -0.3978 -0.5491
16748SOL     OW62302   3.158   4.905   5.477 -0.0211 -0.2933 -0.4678
16748SOL    HW162303   3.243   4.956   5.492 -0.3918  0.1369  0.2404
16748SOL    HW262304   3.098   4.958   5.417  0.4791 -0.8991 -1.4998
16749SOL     OW62305   0.325   0.432   1.736 -0.4387  0.1316 -0.0164
16749SOL    HW162306   0.312   0.424   1.638 -2.6966 -0.2122  0.2831
16749SOL    HW262307   0.354   0.525   1.759 -1.3918  0.6442 -0.8651
16750SOL     OW62308   9.002   5.448   1.306  0.8060  1.0455  0.1628
16750SOL    HW162309   8.985   5.488   1.396  1.4915 -1.5498  1.5223
16750SOL    HW262310   8.919   5.455   1.250 -0.7279 -0.1857  2.1777
16751SOL     OW62311   1.996   4.696   0.706  0.0794 -0.3348  0.2211
16751SOL    HW162312   2.077   4.657   0.749  1.1939  0.1986 -1.3486
16751SOL    HW262313   1.918   4.635   0.722  1.7464 -3.2365 -2.0588
16752SOL     OW62314   1.930   4.930   2.877  0.3580  0.3679  0.0627
16752SOL    HW162315   1.897   4.846   2.834  0.4907 -0.8786  2.3240
16752SOL    HW262316   1.855   4.973   2.927  0.4313  1.3185 -0.6342
16753SOL     OW62317   0.813   8.286   6.165  0.2295 -0.6426  0.1610
16753SOL    HW162318   0.860   8.318   6.084 -0.7934 -3.3412 -1.5717
16753SOL    HW262319   0.802   8.361   6.230  0.4713  1.7169 -2.4608
16754SOL     OW62320   3.370   6.384   7.855 -0.3762 -0.5084 -0.5127
16754SOL    HW162321   3.332   6.307   7.907 -0.1148 -0.6612 -0.5482
16754SOL    HW262322   3.464   6.401   7.885 -0.7414  0.3925  0.1468
16755SOL     OW62323   6.476   8.855   7.397 -0.4710  0.2333  0.1439
16755SOL    HW162324   6.495   8.951   7.416 -0.2665 -0.1823  2.2376
16755SOL    HW262325   6.388   8.830   7.437  0.1506 -0.7976  0.9180
16756SOL     OW62326   3.093   1.347   6.677  0.2810 -0.1435 -0.1916
16756SOL    HW162327   3.130   1.271   6.624 -0.9568 -0.7928 -0.1516
16756SOL    HW262328   3.056   1.312   6.764 -0.1397  0.5213 -0.1002
16757SOL     OW62329   1.168   0.866   3.580  0.6080 -0.1959 -0.1728
16757SOL    HW162330   1.238   0.871   3.651 -0.1878  1.2900  0.5411
16757SOL    HW262331   1.094   0.807   3.612 -0.6881  2.0353  1.1430
16758SOL     OW62332   9.290   9.568   4.481  0.1894 -0.1011  0.1310
16758SOL    HW162333   9.278   9.470   4.500  0.8773 -0.2328 -0.0979
16758SOL    HW262334   9.329   9.579   4.390  0.3710  0.3846  0.2700
16759SOL     OW62335   2.082   1.471   2.861  0.1362 -0.3698  0.1596
16759SOL    HW162336   2.060   1.546   2.923  0.4314 -1.0161  1.0593
16759SOL    HW262337   2.090   1.386   2.913  1.1976 -0.7816 -0.6479
16760SOL     OW62338   9.002   2.078   4.100 -0.8165  0.3248 -0.2255
16760SOL    HW162339   9.037   2.171   4.106  0.4208 -0.1590  0.1845
16760SOL    HW262340   9.070   2.014   4.136 -2.0196 -0.6538  0.3647
16761SOL     OW62341   9.606   4.254   9.299 -0.4738  0.0557  0.4363
16761SOL    HW162342   9.564   4.305   9.224  0.6474  1.0488  0.4483
16761SOL    HW262343   9.689   4.209   9.266 -0.6885 -0.5915  0.7733
16762SOL     OW62344   1.564   8.407   1.488 -0.0952 -0.2323 -0.6672
16762SOL    HW162345   1.659   8.434   1.471  0.0111 -0.3431 -0.2529
16762SOL    HW262346   1.551   8.390   1.585 -0.1655 -1.6595 -0.9115
16763SOL     OW62347   1.291   0.134   8.303 -0.4075  0.4495  0.6522
16763SOL    HW162348   1.227   0.164   8.373 -1.5563 -0.0935 -0.1454
16763SOL    HW262349   1.243   0.077   8.236  1.1601 -0.8898  0.6480
16764SOL     OW62350   7.998   9.187   1.482 -0.4945  0.0025 -0.6076
16764SOL    HW162351   8.076   9.178   1.420  1.7727  0.5585  2.0605
16764SOL    HW262352   7.965   9.096   1.507 -0.6035 -0.2375 -1.5964
16765SOL     OW62353   0.835   5.511   9.866  0.2564  0.1691  0.7640
16765SOL    HW162354   0.916   5.552   9.823 -0.6395  0.8660 -0.2659
16765SOL    HW262355   0.858   5.483   9.959  1.6264  0.5650  0.5581
16766SOL     OW62356   4.959   7.768   1.228  0.2393  0.4005  0.0649
16766SOL    HW162357   4.933   7.673   1.242  0.1920  0.2922 -0.7554
16766SOL    HW262358   4.986   7.782   1.132  0.5603  1.1335  0.2574
16767SOL     OW62359   7.033   1.203   2.626  0.2856  0.6074 -0.6017
16767SOL    HW162360   7.093   1.209   2.706 -0.4172 -0.0067 -0.0209
16767SOL    HW262361   7.078   1.148   2.555  0.1473 -0.3927  0.0749
16768SOL     OW62362   8.720   5.104   6.441 -0.1220 -0.6027 -0.1968
16768SOL    HW162363   8.701   5.042   6.366 -0.8562  1.4613 -1.7776
16768SOL    HW262364   8.643   5.102   6.506 -0.0627 -1.4366 -0.1443
16769SOL     OW62365   8.530   5.664   3.921 -0.3126 -0.8158 -0.2889
16769SOL    HW162366   8.461   5.645   3.851  0.4141  0.6232 -1.4399
16769SOL    HW262367   8.500   5.741   3.977  0.9236  0.7227 -1.6730
16770SOL     OW62368   3.734   9.616   8.377  0.2486  0.0567 -0.3402
16770SOL    HW162369   3.761   9.520   8.365 -1.9532 -0.6488  0.0987
16770SOL    HW262370   3.651   9.621   8.433  0.6697  2.2608  0.1279
16771SOL     OW62371   7.787   8.307   3.174  0.4101 -0.3235 -0.1508
16771SOL    HW162372   7.834   8.250   3.106  0.2855 -0.2937 -0.2634
16771SOL    HW262373   7.728   8.373   3.127 -1.0043 -1.4405 -0.0000
16772SOL     OW62374   3.551   8.907   2.041  0.0219  0.0876  0.1472
16772SOL    HW162375   3.561   8.978   1.971 -1.8839 -1.0121 -1.3001
16772SOL    HW262376   3.630   8.846   2.038 -0.3194 -0.3077 -1.4946
16773SOL     OW62377   0.524   1.060   6.359  0.1881  0.9542  0.1441
16773SOL    HW162378   0.518   0.987   6.427  0.1264  1.0266  0.2166
16773SOL    HW262379   0.493   1.026   6.270 -1.7000  1.4254  0.5908
16774SOL     OW62380   8.078   5.515   1.061  0.8376  0.0296 -0.0790
16774SOL    HW162381   8.044   5.598   1.017  1.2954  0.5622  0.5641
16774SOL    HW262382   8.023   5.495   1.143 -0.1936 -1.1154 -1.0242
16775SOL     OW62383   3.120   9.467   8.829 -0.1414 -0.1179 -0.2541
16775SOL    HW162384   3.046   9.534   8.824  1.0818  1.2000 -0.9694
16775SOL    HW262385   3.204   9.511   8.859  0.3974 -1.5829  0.4632
16776SOL     OW62386   1.003   7.128   5.235 -0.8563 -0.2367 -0.5781
16776SOL    HW162387   0.982   7.157   5.328  0.2944 -0.3101 -0.2963
16776SOL    HW262388   0.937   7.058   5.206 -0.7813 -0.7281  0.4290
16777SOL     OW62389   9.980   7.234   1.703 -0.0501  0.2520 -0.1528
16777SOL    HW162390  10.037   7.190   1.633 -0.2522 -0.8350  0.3529
16777SOL    HW262391   9.889   7.252   1.666 -0.9086 -2.4414  0.4946
16778SOL     OW62392   5.574   0.688   8.308  0.0842 -0.5555 -0.0861
16778SOL    HW162393   5.518   0.728   8.381  0.0237 -1.3065  0.2836
16778SOL    HW262394   5.671   0.703   8.330  0.0821 -1.3274  0.4684
16779SOL     OW62395   7.954   4.950   5.931  0.1861 -0.2653 -0.5300
16779SOL    HW162396   7.991   4.940   6.023  0.6227 -0.3047 -0.7097
16779SOL    HW262397   8.005   4.892   5.868  0.2662  0.2142 -0.9037
16780SOL     OW62398   8.496   0.874   8.965  0.1385  0.0809 -0.5069
16780SOL    HW162399   8.510   0.787   8.918 -0.4816 -0.5428  0.4459
16780SOL    HW262400   8.465   0.943   8.900 -3.0263 -1.3815 -0.6467
16781SOL     OW62401   6.972   8.568   2.657 -0.2794 -0.1577 -0.0281
16781SOL    HW162402   7.011   8.552   2.748  0.9230 -1.7356 -0.7888
16781SOL    HW262403   7.007   8.499   2.594 -2.6140 -0.2544 -1.2503
16782SOL     OW62404   9.648   2.263   4.868  0.2114 -0.4011  0.2428
16782SOL    HW162405   9.644   2.318   4.785 -2.1620 -2.0354 -0.7724
16782SOL    HW262406   9.633   2.166   4.846  2.2130 -1.2371  2.2516
16783SOL     OW62407   6.858   1.783   0.623  0.2055 -0.2999  0.7348
16783SOL    HW162408   6.758   1.790   0.625  0.1493 -1.3115  1.5513
16783SOL    HW262409   6.898   1.869   0.656 -0.4045 -0.1061  0.9681
16784SOL     OW62410   8.958   0.040   3.258  0.6586  0.1896  0.3254
16784SOL    HW162411   9.025   0.047   3.184 -0.1455 -0.2053 -0.4602
16784SOL    HW262412   8.918  -0.052   3.258 -1.0578  0.8963 -0.2940
16785SOL     OW62413   1.406   5.659   4.100 -0.0339  0.2221 -0.5942
16785SOL    HW162414   1.436   5.586   4.161 -1.4599  0.6148  0.5944
16785SOL    HW262415   1.328   5.626   4.046 -0.7123  0.8680 -0.0200
16786SOL     OW62416   6.974   9.805   7.665 -0.3153 -0.3052 -0.6417
16786SOL    HW162417   6.922   9.811   7.580 -0.6583  2.1238 -0.2952
16786SOL    HW262418   6.917   9.834   7.741 -0.2675 -3.2570  0.5643
16787SOL     OW62419   3.424   5.261   6.821  0.0958 -0.4533 -0.0511
16787SOL    HW162420   3.399   5.171   6.856 -1.7155  0.7368  1.9187
16787SOL    HW262421   3.393   5.331   6.886  2.7242  1.5266 -0.8305
16788SOL     OW62422   4.894   7.928   3.155  0.4953 -0.0789 -0.4637
16788SOL    HW162423   4.803   7.962   3.131  0.4104 -0.2302 -0.3621
16788SOL    HW262424   4.902   7.920   3.254 -0.3721 -2.7228 -0.5575
16789SOL     OW62425   8.923   1.734   0.574 -0.2988 -0.0931  0.0923
16789SOL    HW162426   8.984   1.802   0.616 -2.0150  0.0662  2.4411
16789SOL    HW262427   8.876   1.776   0.497  0.0098  0.8438  0.4025
16790SOL     OW62428   8.459   7.454   7.049  0.2119  0.0074  0.0129
16790SOL    HW162429   8.554   7.422   7.043 -0.1056 -0.6688 -1.6587
16790SOL    HW262430   8.412   7.406   7.122  1.1706  0.3801  0.8818
16791SOL     OW62431   1.071   0.987   3.901  0.1487  0.5117  0.5020
16791SOL    HW162432   1.053   1.080   3.869  0.7136  0.9221  1.3712
16791SOL    HW262433   1.166   0.979   3.929 -0.3981  0.2623  2.3951
16792SOL     OW62434   8.216   9.957   0.270 -0.0987 -0.1583 -0.1528
16792SOL    HW162435   8.168   9.877   0.305 -0.7621 -0.7478 -2.3116
16792SOL    HW262436   8.149  10.028   0.245  0.2153 -0.4332 -1.8420
16793SOL     OW62437   9.611   4.588   8.604  0.2655  0.5275  0.0113
16793SOL    HW162438   9.658   4.675   8.592  0.6758  0.0137 -2.4037
16793SOL    HW262439   9.521   4.603   8.645  0.8451  1.9480  0.7743
16794SOL     OW62440   3.899   0.312   2.056  0.0999 -0.0598  0.0952
16794SOL    HW162441   3.848   0.243   2.004 -1.3557  0.0748  1.2889
16794SOL    HW262442   3.845   0.338   2.136  2.5263 -0.6547  1.9755
16795SOL     OW62443   6.889   2.554   1.039  0.2716 -0.3416  0.0845
16795SOL    HW162444   6.930   2.612   0.969 -1.1852  1.0327  0.3500
16795SOL    HW262445   6.961   2.506   1.088  1.4315  0.3471 -0.9079
16796SOL     OW62446   8.872   1.975   2.403  0.3013 -0.2914 -0.3077
16796SOL    HW162447   8.906   1.971   2.309  0.4839 -0.2630 -0.2446
16796SOL    HW262448   8.859   1.882   2.438  1.9210 -0.3390  0.2341
16797SOL     OW62449   9.128   8.141   3.890 -0.2663  0.1586 -0.4835
16797SOL    HW162450   9.066   8.214   3.919  0.9055  0.0388  2.5187
16797SOL    HW262451   9.104   8.056   3.936  2.2066  0.1529  0.8578
16798SOL     OW62452   1.367   6.416   7.877 -0.0924 -0.1413  0.5369
16798SOL    HW162453   1.364   6.407   7.778  0.3208 -1.4741  0.6409
16798SOL    HW262454   1.283   6.460   7.909  0.0052  0.7772 -0.4487
16799SOL     OW62455   4.870   7.336   1.788  0.3216  0.0446 -0.2646
16799SOL    HW162456   4.862   7.382   1.877 -1.8525  0.8567 -0.8596
16799SOL    HW262457   4.866   7.403   1.715  0.4417 -0.7782 -1.0297
16800SOL     OW62458   4.939   8.081   3.656  0.1305  0.1088 -0.7716
16800SOL    HW162459   4.953   7.992   3.699  0.8708 -0.1713 -1.5785
16800SOL    HW262460   4.963   8.154   3.720 -1.4000 -0.2420  0.2273
16801SOL     OW62461   4.616   7.065   0.358  0.3590 -0.3860 -0.1942
16801SOL    HW162462   4.642   6.976   0.320  1.7929 -1.1400  2.3975
16801SOL    HW262463   4.532   7.055   0.411  0.7462 -0.2949  0.4422
16802SOL     OW62464   6.248   2.597   4.730  0.0653  0.3173 -0.8335
16802SOL    HW162465   6.153   2.612   4.759 -0.0496  0.3491 -1.2231
16802SOL    HW262466   6.299   2.683   4.737 -0.5652  0.8823 -2.9710
16803SOL     OW62467   1.511   4.794   9.120  0.2907 -0.7076  0.1410
16803SOL    HW162468   1.442   4.782   9.049  0.6435 -2.4764  0.0817
16803SOL    HW262469   1.481   4.748   9.204  0.2854  0.6097  0.8921
16804SOL     OW62470   9.820   6.665   9.849  0.2916 -0.0650 -0.4449
16804SOL    HW162471   9.751   6.708   9.908  0.0924 -0.0534 -0.6870
16804SOL    HW262472   9.897   6.635   9.905 -0.3005 -0.8773 -0.0529
16805SOL     OW62473   7.425   6.333   6.670  0.5379  0.1112 -0.0681
16805SOL    HW162474   7.469   6.419   6.694  0.7653  0.2305 -0.8734
16805SOL    HW262475   7.486   6.256   6.690  0.6785  0.1986 -0.1659
16806SOL     OW62476   0.166   5.475   1.799  0.0522  0.3392  0.3584
16806SOL    HW162477   0.150   5.562   1.845 -0.0089  1.2585 -1.4019
16806SOL    HW262478   0.129   5.478   1.706 -0.3092 -1.6983  0.4034
16807SOL     OW62479   4.293   6.159   9.457  0.1076  0.4917 -0.5962
16807SOL    HW162480   4.341   6.072   9.470  1.5619  1.1479 -1.4663
16807SOL    HW262481   4.241   6.181   9.540 -0.1795 -1.1348 -0.3229
16808SOL     OW62482   0.283   2.831   0.297  0.3425  0.2880  0.3736
16808SOL    HW162483   0.203   2.825   0.357 -0.1224  2.1223 -0.0399
16808SOL    HW262484   0.252   2.833   0.202  0.8433  1.7615  0.2409
16809SOL     OW62485   2.219   4.496   9.081 -0.2501  0.1966 -0.1071
16809SOL    HW162486   2.276   4.503   8.999 -2.3394 -0.5391 -1.6772
16809SOL    HW262487   2.235   4.576   9.139  1.1241  0.8287 -1.3155
16810SOL     OW62488   0.891   9.457   5.132  0.7361  0.4518  0.4153
16810SOL    HW162489   0.940   9.446   5.045  0.5615 -0.9981  0.4952
16810SOL    HW262490   0.921   9.386   5.196 -1.9791 -0.9191  0.2265
16811SOL     OW62491   1.382   7.558   2.153  0.1913  0.5596  0.4249
16811SOL    HW162492   1.305   7.608   2.111 -1.5359 -2.1262  0.2589
16811SOL    HW262493   1.461   7.563   2.092 -1.2530 -0.4256 -1.6021
16812SOL     OW62494   0.380   1.689   1.136  0.4821 -0.3401 -0.4191
16812SOL    HW162495   0.300   1.741   1.105  0.6735 -0.5081 -1.2185
16812SOL    HW262496   0.460   1.749   1.137  0.1031  0.1488  1.5929
16813SOL     OW62497   3.664   9.011   4.124  0.2681  0.7223  0.1833
16813SOL    HW162498   3.758   8.983   4.144  0.2319  0.7836  0.4395
16813SOL    HW262499   3.642   9.094   4.174 -0.6229 -0.4723  1.8476
16814SOL     OW62500   9.395   6.998   9.702  0.0006 -0.1653  0.3716
16814SOL    HW162501   9.442   7.086   9.699  0.7538 -0.5305  1.1805
16814SOL    HW262502   9.462   6.925   9.716 -0.6392 -0.8496 -0.0778
16815SOL     OW62503   8.214   1.607   1.709  0.1554 -0.2080  0.5703
16815SOL    HW162504   8.229   1.601   1.610 -2.1865 -0.3590  0.1788
16815SOL    HW262505   8.199   1.515   1.745 -0.0752 -0.0576  0.8606
16816SOL     OW62506   1.309   4.743   8.919  0.0077  0.1525 -0.0109
16816SOL    HW162507   1.380   4.731   8.849 -0.2436 -1.9254  0.0619
16816SOL    HW262508   1.225   4.699   8.890 -0.0776 -0.8289  1.6291
16817SOL     OW62509   2.733   0.238   8.940 -0.0589  0.6307  0.3570
16817SOL    HW162510   2.748   0.209   8.845 -0.0174  1.1703  0.1960
16817SOL    HW262511   2.814   0.287   8.973  0.3062 -0.4011  0.9929
16818SOL     OW62512   9.668   0.665   6.847 -0.1301 -0.4806  0.2861
16818SOL    HW162513   9.579   0.689   6.887 -0.3995 -0.1331 -0.4978
16818SOL    HW262514   9.698   0.739   6.786  1.2420 -0.0811  1.4257
16819SOL     OW62515   9.459   4.727   7.243  0.2119 -0.3471  0.0165
16819SOL    HW162516   9.454   4.763   7.336 -1.2838 -0.4393 -0.0158
16819SOL    HW262517   9.422   4.634   7.242  3.2237 -1.5878 -0.0617
16820SOL     OW62518   9.638   1.548   2.586 -0.4634  0.0991 -0.6329
16820SOL    HW162519   9.656   1.646   2.601 -0.3641 -0.1457  0.9531
16820SOL    HW262520   9.671   1.496   2.665  0.8284 -1.3779 -2.1000
16821SOL     OW62521   0.456   1.066   7.523  0.2103  0.6485  0.4249
16821SOL    HW162522   0.367   1.076   7.566 -0.1728  1.2901 -0.4945
16821SOL    HW262523   0.519   1.021   7.586 -1.0558 -0.7934  0.7120
16822SOL     OW62524   7.224   2.568   5.455 -0.0467  0.1126 -0.3618
16822SOL    HW162525   7.278   2.650   5.472 -1.3117  0.2892  3.1497
16822SOL    HW262526   7.278   2.487   5.477 -0.0832  0.1624 -0.0848
16823SOL     OW62527   4.967   4.435   9.243  0.4000  0.0879  0.0702
16823SOL    HW162528   4.996   4.433   9.147  0.8834 -1.7791  0.2486
16823SOL    HW262529   5.047   4.442   9.302  0.0619  2.0286  0.3362
16824SOL     OW62530   2.036   9.243   5.368 -0.4086 -0.4065  0.3374
16824SOL    HW162531   2.084   9.280   5.448 -1.1952  1.2877  0.0560
16824SOL    HW262532   2.101   9.195   5.310  0.3312 -0.9502  1.5885
16825SOL     OW62533   2.838   5.183   0.395  0.3142 -0.0005  0.0103
16825SOL    HW162534   2.780   5.103   0.376  1.0788 -0.7025  0.6167
16825SOL    HW262535   2.933   5.154   0.403  0.5128  0.8889  0.9169
16826SOL     OW62536   9.284   4.441   9.979 -0.6321 -0.5270 -0.5116
16826SOL    HW162537   9.305   4.348   9.950 -1.0676 -0.0055 -2.5592
16826SOL    HW262538   9.200   4.472   9.935 -1.1416  0.4316  1.0758
16827SOL     OW62539   3.602   7.063   1.426  0.4924 -0.1162  0.4057
16827SOL    HW162540   3.670   6.989   1.428  0.0120 -0.5381  2.4835
16827SOL    HW262541   3.648   7.151   1.441  0.6277 -0.3717  1.5310
16828SOL     OW62542   4.299   2.132   4.050 -0.7981 -0.1299 -0.0545
16828SOL    HW162543   4.286   2.033   4.061 -1.8241  0.1733  1.4747
16828SOL    HW262544   4.311   2.174   4.139  1.7918  0.8596 -0.8214
16829SOL     OW62545   1.237   7.410   9.736 -0.0517  0.3515 -0.0314
16829SOL    HW162546   1.195   7.467   9.807 -1.7248 -2.1259  0.9923
16829SOL    HW262547   1.324   7.452   9.708  0.0363  2.0328  2.5715
16830SOL     OW62548   8.927   2.143   4.651 -0.0698  0.2808 -0.1779
16830SOL    HW162549   8.856   2.073   4.663  0.9878 -0.8142 -0.2260
16830SOL    HW262550   8.935   2.165   4.554 -0.7229  0.8239 -0.1175
16831SOL     OW62551   9.580   8.802   2.378 -0.0638  0.4325 -0.4731
16831SOL    HW162552   9.554   8.894   2.407  0.5572 -0.1024  1.9007
16831SOL    HW262553   9.608   8.749   2.458 -0.5262 -1.8581 -1.7968
16832SOL     OW62554   4.128   1.068   1.291 -0.3238 -0.7598 -0.0251
16832SOL    HW162555   4.099   1.085   1.197  0.3528 -0.5451 -0.1974
16832SOL    HW262556   4.094   0.979   1.321 -0.3817 -0.9054 -0.5330
16833SOL     OW62557   4.798   5.791   4.078  0.3622 -0.5553 -0.1473
16833SOL    HW162558   4.710   5.749   4.100  0.1899 -0.0092  0.2159
16833SOL    HW262559   4.869   5.752   4.137  0.0489  0.2930  0.8138
16834SOL     OW62560   7.043   5.864   3.182  0.3345  0.3064 -0.0702
16834SOL    HW162561   7.019   5.888   3.276  0.2408  0.8500 -0.2309
16834SOL    HW262562   7.006   5.933   3.120 -0.5000 -0.6001 -0.5964
16835SOL     OW62563   1.939   8.874   9.750 -0.1234  0.4716  0.3144
16835SOL    HW162564   1.860   8.843   9.697 -0.6620  0.9682  0.8185
16835SOL    HW262565   1.998   8.930   9.692  0.2002 -0.4498 -0.2467
16836SOL     OW62566   6.075   4.746   8.303 -0.3037 -0.2721 -0.1525
16836SOL    HW162567   6.033   4.756   8.213 -1.6370 -4.7716 -0.1607
16836SOL    HW262568   6.164   4.701   8.293  0.3556  0.8429  0.6457
16837SOL     OW62569   5.536   9.928   5.218 -0.3102 -0.4769 -0.5137
16837SOL    HW162570   5.573   9.999   5.159  0.8284 -0.3001  0.4035
16837SOL    HW262571   5.484   9.970   5.292 -0.5972 -0.6467 -0.6178
16838SOL     OW62572   8.863   5.500   6.688 -0.5535 -0.6094 -0.2496
16838SOL    HW162573   8.826   5.557   6.615 -2.2860  0.1566  1.1551
16838SOL    HW262574   8.854   5.403   6.663 -2.5770 -0.4110 -0.4274
16839SOL     OW62575   4.555   7.321   1.484  0.1538  0.7868  0.7543
16839SOL    HW162576   4.589   7.408   1.448  0.6734 -0.4623 -1.9210
16839SOL    HW262577   4.621   7.283   1.548  0.4081  1.8484  1.1264
16840SOL     OW62578   3.808   3.136   6.885 -0.3592  0.1244 -0.0122
16840SOL    HW162579   3.753   3.054   6.866 -1.3780  0.0854  2.7552
16840SOL    HW262580   3.810   3.195   6.805 -1.9606 -1.3010 -1.1413
16841SOL     OW62581   9.437   5.871   8.761 -0.3570  1.0066  0.3551
16841SOL    HW162582   9.530   5.872   8.799 -0.9143  1.9406  1.7474
16841SOL    HW262583   9.373   5.903   8.830 -2.1525 -2.5173  0.4164
16842SOL     OW62584   5.765   0.705   1.851  0.6032  0.0332 -0.2370
16842SOL    HW162585   5.672   0.683   1.821  0.5034  2.0753 -1.4647
16842SOL    HW262586   5.773   0.803   1.868  1.9041 -0.4573  2.1378
16843SOL     OW62587   8.007   5.877   4.954 -0.2736  0.7453  0.5587
16843SOL    HW162588   8.006   5.781   4.927  0.1212  0.3998  1.7577
16843SOL    HW262589   7.917   5.904   4.989 -0.0432  0.4957  1.3362
16844SOL     OW62590   9.216   2.965   1.595  0.3537 -0.3551 -0.1248
16844SOL    HW162591   9.130   3.013   1.610 -0.6829 -2.0982 -0.3153
16844SOL    HW262592   9.259   2.944   1.683 -0.0062 -0.5009  0.0166
16845SOL     OW62593   8.481   8.304   7.666 -0.1609 -0.1257 -0.4150
16845SOL    HW162594   8.500   8.207   7.682 -0.6628 -0.1095  0.2721
16845SOL    HW262595   8.544   8.360   7.720  0.6256 -0.0621 -1.3882
16846SOL     OW62596   1.982   2.305   5.177 -0.0217  0.7121  0.8883
16846SOL    HW162597   2.028   2.387   5.213  0.9404  0.2398  0.7667
16846SOL    HW262598   1.887   2.326   5.156  0.8774  2.5305 -1.5963
16847SOL     OW62599   1.318   6.598  10.015  0.9544  0.6444 -0.3361
16847SOL    HW162600   1.315   6.509   9.969  1.2365  0.7768 -0.6142
16847SOL    HW262601   1.412   6.616  10.046  0.7159  0.4399  0.5247
16848SOL     OW62602   0.651   7.409   3.653 -0.6571 -0.7023  0.4425
16848SOL    HW162603   0.712   7.481   3.620 -0.0157 -1.6430 -0.4576
16848SOL    HW262604   0.680   7.379   3.744  0.4594 -1.3732 -0.1123
16849SOL     OW62605   0.171   2.638   8.528 -0.1597 -0.1588  0.0444
16849SOL    HW162606   0.112   2.558   8.538 -0.9898  0.5170  0.5800
16849SOL    HW262607   0.264   2.615   8.558  0.4369 -1.9091 -3.0096
16850SOL     OW62608   9.654   9.744   7.108  0.2811  0.1560  0.1500
16850SOL    HW162609   9.688   9.737   7.202  1.2569  0.8013 -0.1467
16850SOL    HW262610   9.591   9.668   7.089 -0.0431  0.1110  1.3682
16851SOL     OW62611   3.904   4.237   9.599 -0.0992  0.2862 -0.4565
16851SOL    HW162612   3.886   4.250   9.501  1.2893 -2.5091 -1.1497
16851SOL    HW262613   3.900   4.139   9.620  0.3291  0.8111  2.1505
16852SOL     OW62614   5.959   9.931   2.090 -0.7971 -0.0908 -0.1024
16852SOL    HW162615   6.038   9.869   2.087 -0.3306  0.5474 -2.6269
16852SOL    HW262616   5.883   9.890   2.039 -1.3953  0.2317  0.5311
16853SOL     OW62617   5.558   0.283   2.206 -0.5344  0.1980 -0.2988
16853SOL    HW162618   5.497   0.237   2.141  0.4070 -1.9844  0.2903
16853SOL    HW262619   5.618   0.215   2.249 -0.6056  1.7044  2.2971
16854SOL     OW62620   2.425   8.587   2.810  0.3427  0.3618 -0.1585
16854SOL    HW162621   2.499   8.594   2.878  0.7227  0.5123 -0.5845
16854SOL    HW262622   2.437   8.659   2.741 -0.5128  0.7242  0.0679
16855SOL     OW62623   4.060   8.745   2.397 -0.5845 -0.0128  0.1128
16855SOL    HW162624   4.043   8.842   2.381  1.0101  0.0563 -1.2480
16855SOL    HW262625   4.028   8.692   2.318 -1.7123 -0.6429  0.9666
16856SOL     OW62626   8.056   8.879   5.510  0.1448 -0.3232  0.1961
16856SOL    HW162627   8.035   8.864   5.413  0.7803 -0.2554  0.0394
16856SOL    HW262628   8.049   8.793   5.560 -1.1762 -0.1639  0.2853
16857SOL     OW62629   1.747   3.374   4.434 -0.0643  0.4597  0.2920
16857SOL    HW162630   1.821   3.355   4.498  1.1278 -0.5869 -1.3723
16857SOL    HW262631   1.678   3.302   4.440  0.2323  0.1601  0.1479
16858SOL     OW62632   6.888   6.109   0.569 -0.0912  0.4483  0.6279
16858SOL    HW162633   6.907   6.016   0.600 -1.7117  0.7086  2.5009
16858SOL    HW262634   6.857   6.107   0.474 -2.0239 -1.1578  1.2556
16859SOL     OW62635   9.609   1.967   0.863  0.6523  0.1904  0.2139
16859SOL    HW162636   9.567   2.054   0.889  0.8866  0.4756 -0.3434
16859SOL    HW262637   9.635   1.916   0.945 -1.2486 -0.2285  0.5807
16860SOL     OW62638   4.126   8.319   8.042  0.8166 -0.0246 -0.0262
16860SOL    HW162639   4.127   8.313   8.142  1.2465 -1.2973 -0.0945
16860SOL    HW262640   4.066   8.393   8.014  2.3869  1.7812  1.2365
16861SOL     OW62641   4.671   5.882   2.459 -0.5645  0.0687  0.6753
16861SOL    HW162642   4.699   5.912   2.550 -1.2386 -0.8086  1.1840
16861SOL    HW262643   4.634   5.789   2.464 -0.0534 -0.2184 -0.5958
16862SOL     OW62644   4.051   2.338   4.602  0.3498 -0.7538 -0.0180
16862SOL    HW162645   4.119   2.411   4.600  0.3048 -0.6691  1.3995
16862SOL    HW262646   4.035   2.305   4.509 -0.4337  1.7865 -0.8043
16863SOL     OW62647   4.101   4.134   0.191 -0.7130 -0.4116 -0.2820
16863SOL    HW162648   4.045   4.066   0.238 -0.1823 -0.0617  0.9064
16863SOL    HW262649   4.102   4.116   0.093 -0.0245 -2.5382  0.0806
16864SOL     OW62650   3.931   4.636   2.232 -0.1725 -0.1542 -0.7369
16864SOL    HW162651   3.900   4.629   2.327  0.6120  0.1277 -0.4646
16864SOL    HW262652   3.948   4.544   2.197 -1.9822 -0.3784 -1.1163
16865SOL     OW62653   0.253   5.447   8.246 -0.1965 -0.1549  0.1725
16865SOL    HW162654   0.277   5.542   8.265 -1.2609 -0.0595  1.0822
16865SOL    HW262655   0.187   5.415   8.314 -0.5767 -1.2442 -0.6935
16866SOL     OW62656   9.216   9.664   3.231  0.6037  0.4861 -0.4602
16866SOL    HW162657   9.249   9.753   3.198  0.0545  0.4646 -1.0844
16866SOL    HW262658   9.251   9.648   3.323  0.6019  1.4086 -0.2887
16867SOL     OW62659   0.708   4.223   4.323  0.6760 -0.4934  0.0410
16867SOL    HW162660   0.767   4.270   4.257  1.0256  0.6308  1.1278
16867SOL    HW262661   0.614   4.225   4.290  0.9624 -0.6590 -0.8106
16868SOL     OW62662   8.960   4.635   8.320  0.0479 -0.3588 -0.3632
16868SOL    HW162663   9.020   4.642   8.240 -0.6510 -0.3002 -0.8846
16868SOL    HW262664   8.998   4.569   8.385 -0.8789 -2.5947 -2.0643
16869SOL     OW62665   7.610   0.283   0.092 -0.1972  0.3280 -0.3608
16869SOL    HW162666   7.556   0.326   0.163  0.0939 -0.1212  0.1397
16869SOL    HW262667   7.551   0.258   0.015 -0.4298  1.2457 -0.4842
16870SOL     OW62668   4.250   5.741   1.408 -0.3140  0.3976  0.3917
16870SOL    HW162669   4.349   5.757   1.401 -0.0016 -0.5334  2.2697
16870SOL    HW262670   4.233   5.644   1.428 -1.6429  0.4465 -0.4441
16871SOL     OW62671   8.118   6.844   2.390  0.1985  0.4169  0.1603
16871SOL    HW162672   8.179   6.924   2.388 -0.4837  0.9311 -1.0111
16871SOL    HW262673   8.099   6.815   2.296 -0.1251 -0.6998  0.5617
16872SOL     OW62674   8.558   8.508   3.481 -0.6886 -0.2096  0.2397
16872SOL    HW162675   8.553   8.409   3.464 -0.6977  0.3805 -3.6920
16872SOL    HW262676   8.638   8.546   3.435 -0.9098  1.6914  1.3635
16873SOL     OW62677   3.174   9.826   4.122 -0.7076  0.2032 -0.4790
16873SOL    HW162678   3.192   9.781   4.210 -1.9513 -0.5868 -0.6196
16873SOL    HW262679   3.242   9.898   4.107  1.0325 -1.3195 -0.0399
16874SOL     OW62680   2.949   8.018   7.845 -0.0726 -0.4867  0.0628
16874SOL    HW162681   2.918   8.041   7.937  1.0787 -0.4115  0.4386
16874SOL    HW262682   2.995   8.096   7.804  2.1669 -1.4834  0.6161
16875SOL     OW62683   7.500   9.268   3.425 -0.4679  0.2005 -0.0317
16875SOL    HW162684   7.408   9.236   3.447 -0.8282  1.6242  0.5806
16875SOL    HW262685   7.544   9.304   3.508  0.6885 -0.5744 -0.2955
16876SOL     OW62686   4.892   3.671   6.438  0.5881 -0.4666  0.1133
16876SOL    HW162687   4.960   3.631   6.377 -0.6186  0.8294 -2.1811
16876SOL    HW262688   4.811   3.696   6.384 -0.7033  0.2779  2.3568
16877SOL     OW62689   8.785   5.752   1.873 -0.1796 -0.2778  0.6478
16877SOL    HW162690   8.727   5.719   1.799  0.0234  1.0160 -0.1044
16877SOL    HW262691   8.828   5.839   1.846  0.3838 -0.1106  2.0326
16878SOL     OW62692   2.141   6.569   9.070 -0.2971 -0.0620  0.4309
16878SOL    HW162693   2.085   6.637   9.117  1.3782  1.4046  0.3450
16878SOL    HW262694   2.094   6.480   9.071 -3.0859  1.3502 -0.5485
16879SOL     OW62695   0.190   5.713   5.621 -0.3712 -0.5504 -0.3389
16879SOL    HW162696   0.249   5.764   5.684  0.3290 -1.4690 -0.2491
16879SOL    HW262697   0.233   5.626   5.598  0.1741  0.4468 -3.3763
16880SOL     OW62698   8.160   7.831   1.423  0.2473  0.0762  0.0228
16880SOL    HW162699   8.060   7.837   1.430  0.4005  1.1845  1.7784
16880SOL    HW262700   8.194   7.907   1.368  0.1321 -0.2886 -0.5566
16881SOL     OW62701   9.890   1.144   2.923 -0.2616 -0.0343  0.1227
16881SOL    HW162702   9.985   1.129   2.950 -0.3536  0.6742  0.8667
16881SOL    HW262703   9.862   1.236   2.949 -1.2496 -0.3419  0.1868
16882SOL     OW62704   2.558   2.203   2.659  0.5300  0.3373 -0.4360
16882SOL    HW162705   2.501   2.285   2.652  0.7081  0.5383  0.3672
16882SOL    HW262706   2.500   2.124   2.682  0.6485  0.6686  1.0692
16883SOL     OW62707   7.552   9.234   7.305  0.1380 -0.5177 -0.3151
16883SOL    HW162708   7.582   9.179   7.382  2.0353  1.5997  0.5214
16883SOL    HW262709   7.544   9.177   7.223  3.2274 -1.8037  0.2447
16884SOL     OW62710   9.624   0.448   4.718 -0.1563  0.3180 -0.3570
16884SOL    HW162711   9.681   0.385   4.770 -0.3686 -0.1829 -0.7264
16884SOL    HW262712   9.665   0.462   4.627  0.1319  1.0655 -0.1113
16885SOL     OW62713   3.657   7.497   6.928  0.2759 -0.5260  0.4125
16885SOL    HW162714   3.660   7.397   6.932  0.8248 -0.5489 -0.4546
16885SOL    HW262715   3.565   7.527   6.905  0.1244 -0.8409  0.6116
16886SOL     OW62716   9.231   4.034   3.481 -0.2126  0.1254  0.2103
16886SOL    HW162717   9.224   4.134   3.477 -2.0771 -0.0689 -3.5126
16886SOL    HW262718   9.181   4.000   3.560 -0.4151  2.0713  0.9534
16887SOL     OW62719   1.239   7.627   1.788  0.0378  0.1929  0.1946
16887SOL    HW162720   1.176   7.592   1.719  0.5067 -0.2643 -0.0084
16887SOL    HW262721   1.188   7.668   1.863 -0.4793  2.0410 -1.1139
16888SOL     OW62722   8.848   5.302   2.025  0.2184  0.3587  0.2028
16888SOL    HW162723   8.782   5.376   2.028  0.2757  0.4069  0.2618
16888SOL    HW262724   8.800   5.214   2.029  0.2984  0.4083  2.6741
16889SOL     OW62725   4.992   2.052   9.290 -0.6694  0.2239 -0.3450
16889SOL    HW162726   4.992   2.080   9.194 -0.8855  3.1769  0.4584
16889SOL    HW262727   5.058   1.977   9.303  0.8495  1.1395 -2.4270
16890SOL     OW62728   2.759   3.207   3.210 -0.3665  0.0964 -0.2326
16890SOL    HW162729   2.779   3.147   3.132  0.7160 -1.2577  1.0515
16890SOL    HW262730   2.844   3.250   3.241 -0.4834 -0.7444  1.2927
16891SOL     OW62731   4.373   6.764   8.597  0.3203  0.2199  0.0168
16891SOL    HW162732   4.280   6.788   8.570  0.3193  1.1898  0.8617
16891SOL    HW262733   4.382   6.664   8.598 -1.6164 -0.0066  2.8483
16892SOL     OW62734   2.981   2.302   1.632  0.4978  0.0517  0.4880
16892SOL    HW162735   3.026   2.384   1.595  1.9631 -1.3078 -0.7935
16892SOL    HW262736   2.891   2.293   1.590  1.6509 -0.7930 -1.8938
16893SOL     OW62737   2.915   8.883   5.255  0.1896 -0.8913  0.0643
16893SOL    HW162738   2.929   8.840   5.343 -0.0667  0.0579  0.5764
16893SOL    HW262739   2.831   8.938   5.258  1.4380  1.0753 -0.0116
16894SOL     OW62740   9.187   2.066   2.574 -0.0449 -0.0531 -0.2753
16894SOL    HW162741   9.087   2.071   2.569 -0.0227 -1.2362 -2.3476
16894SOL    HW262742   9.227   2.113   2.496  1.0363  0.5447  0.6258
16895SOL     OW62743   3.004   7.972   8.453 -0.1433  0.3817  0.5560
16895SOL    HW162744   3.079   7.964   8.519  0.8265 -2.3938 -0.8204
16895SOL    HW262745   2.930   7.911   8.479 -1.7215  2.6887  1.5805
16896SOL     OW62746   9.287   4.496   0.922  0.5489  0.2657 -0.4048
16896SOL    HW162747   9.345   4.509   0.842  1.0203 -0.5336 -0.1948
16896SOL    HW262748   9.269   4.398   0.935 -1.2939  0.5306 -0.7921
16897SOL     OW62749   3.189   7.228   1.083 -0.4911 -0.6773  0.3444
16897SOL    HW162750   3.285   7.248   1.101 -0.2779 -2.7995  1.7698
16897SOL    HW262751   3.133   7.307   1.109  0.8578  0.5924 -0.5730
16898SOL     OW62752   0.607   8.602   6.101  0.1238 -0.5759 -0.4932
16898SOL    HW162753   0.688   8.555   6.136  0.6049  0.5353 -0.0908
16898SOL    HW262754   0.634   8.668   6.031 -0.2032  1.0184  0.8378
16899SOL     OW62755   5.278   8.710   6.150  0.2366 -0.2377 -0.0943
16899SOL    HW162756   5.179   8.728   6.157 -0.0302 -1.5584 -0.4209
16899SOL    HW262757   5.293   8.613   6.134  1.5959 -0.0158 -0.1881
16900SOL     OW62758   6.823   3.545   0.318 -0.6025  0.4043 -0.0028
16900SOL    HW162759   6.881   3.615   0.277 -2.3498  0.9053 -1.6971
16900SOL    HW262760   6.820   3.464   0.259  0.4160 -0.6365  1.3377
16901SOL     OW62761   3.287   9.422   1.746  0.9633 -0.0705  0.0829
16901SOL    HW162762   3.256   9.481   1.820  1.7510  1.2379 -0.6151
16901SOL    HW262763   3.254   9.458   1.659  1.7521 -0.4615 -0.3857
16902SOL     OW62764   3.768   3.120   3.472 -0.0102  0.3075 -0.4481
16902SOL    HW162765   3.676   3.095   3.501 -0.5227 -0.9125 -2.9740
16902SOL    HW262766   3.763   3.170   3.386  1.7821 -1.5237 -1.6688
16903SOL     OW62767   7.114   5.530   6.640  0.5682  0.0628  0.0743
16903SOL    HW162768   7.206   5.492   6.644  0.1199 -1.1341 -0.6882
16903SOL    HW262769   7.099   5.573   6.551  0.9720  1.8123  0.8231
16904SOL     OW62770   8.360   7.444   9.692  0.0464 -0.2422 -0.6585
16904SOL    HW162771   8.346   7.352   9.656  0.2332 -0.3361 -0.4898
16904SOL    HW262772   8.445   7.447   9.744  0.3995  0.1976 -1.2464
16905SOL     OW62773   8.434   0.090   7.322 -0.0939 -0.6916 -0.4188
16905SOL    HW162774   8.506   0.159   7.316 -0.8618  0.1845  0.1274
16905SOL    HW262775   8.430   0.037   7.238  2.0951 -1.6682  0.0765
16906SOL     OW62776   4.483   6.324   7.772 -0.5482  0.1944  0.0127
16906SOL    HW162777   4.523   6.401   7.823  0.1382  0.4262 -0.8561
16906SOL    HW262778   4.494   6.240   7.825  0.5539  0.3571  0.0508
16907SOL     OW62779   4.784   9.100   2.029  0.2033  0.5974  0.3633
16907SOL    HW162780   4.819   9.032   1.965 -2.1468 -1.5385  1.2554
16907SOL    HW262781   4.860   9.138   2.083  1.5178 -1.6442  0.1571
16908SOL     OW62782   1.033   2.892   5.514  0.0722 -0.2869  0.0577
16908SOL    HW162783   1.018   2.964   5.582  2.0310  0.1593  0.0341
16908SOL    HW262784   0.982   2.914   5.431  0.3994  0.9219  0.1672
16909SOL     OW62785   0.771   1.551   6.971  0.2722  0.3253 -0.0202
16909SOL    HW162786   0.692   1.612   6.968  1.3819  1.8208  0.1821
16909SOL    HW262787   0.854   1.606   6.987  1.2390 -1.3007  0.5962
16910SOL     OW62788   2.389   6.798   8.955 -0.2875  0.2147 -0.1564
16910SOL    HW162789   2.320   6.871   8.959  0.7219  1.1710 -0.0784
16910SOL    HW262790   2.460   6.823   8.890 -0.6890 -1.3859 -1.2478
16911SOL     OW62791   4.199   0.394   7.043  0.5466  0.3125  0.6402
16911SOL    HW162792   4.284   0.373   7.092  1.2294 -0.0272 -0.6721
16911SOL    HW262793   4.214   0.386   6.945 -0.4803  2.1650  0.2971
16912SOL     OW62794   0.319   3.144   2.377 -0.0318 -0.0156 -0.0351
16912SOL    HW162795   0.344   3.240   2.377  1.5080 -0.4031  0.0026
16912SOL    HW262796   0.237   3.131   2.320 -0.7794  1.4285  0.6904
16913SOL     OW62797   7.480   0.556   6.274  0.2163  0.0909  0.2141
16913SOL    HW162798   7.543   0.536   6.350  1.7216  1.6452 -0.5620
16913SOL    HW262799   7.449   0.651   6.282 -0.9936 -0.2735 -0.1533
16914SOL     OW62800   3.408   3.045   5.892 -0.2658 -0.3479 -0.1059
16914SOL    HW162801   3.476   3.007   5.829 -0.1537  2.6758 -1.8880
16914SOL    HW262802   3.325   3.070   5.842 -1.7487 -1.5810  1.6308
16915SOL     OW62803   7.244   9.649   1.811  0.2701  0.0828 -0.3634
16915SOL    HW162804   7.172   9.686   1.870  1.0162  0.1378  0.5218
16915SOL    HW262805   7.260   9.553   1.835 -1.4634 -0.7808 -2.4607
16916SOL     OW62806   8.896   4.576   4.328 -0.0522  0.3421 -0.0139
16916SOL    HW162807   8.986   4.619   4.335  0.5126 -0.7945 -0.1113
16916SOL    HW262808   8.832   4.639   4.283  1.0908  0.5874 -1.3396
16917SOL     OW62809   3.269   7.010   7.289 -0.3441  0.4683  0.1801
16917SOL    HW162810   3.309   7.101   7.296 -0.3425  0.5340 -0.6462
16917SOL    HW262811   3.170   7.018   7.277 -0.3505  0.3563  0.1601
16918SOL     OW62812   1.731   1.145   4.604  0.3422  0.5229  0.8201
16918SOL    HW162813   1.759   1.060   4.560 -0.3291  0.5341  0.3645
16918SOL    HW262814   1.668   1.125   4.678 -0.8839  0.7180 -0.1659
16919SOL     OW62815   1.165   3.040   2.206  0.0767 -0.3231  0.3900
16919SOL    HW162816   1.113   3.108   2.156 -0.3472 -0.1409  1.0716
16919SOL    HW262817   1.149   2.949   2.167 -1.9221 -0.4769  1.5251
16920SOL     OW62818   1.915   2.171   2.203  0.2399 -0.0256 -0.3570
16920SOL    HW162819   1.896   2.121   2.119 -0.0845 -0.3262 -0.1061
16920SOL    HW262820   1.987   2.124   2.255  0.9566  0.5547 -0.8129
16921SOL     OW62821   4.602   1.939   7.209  0.3531 -0.5100 -0.1169
16921SOL    HW162822   4.519   1.935   7.265 -0.0921  0.2683 -0.7058
16921SOL    HW262823   4.663   2.010   7.245 -0.1043  0.2536 -0.8425
16922SOL     OW62824   7.699   6.114   4.874 -0.2556  0.2108  0.1702
16922SOL    HW162825   7.717   6.054   4.952 -0.4267 -1.0186 -0.7232
16922SOL    HW262826   7.754   6.197   4.882 -0.7165  0.3649  1.9041
16923SOL     OW62827   0.434   5.159   0.044  0.2089 -0.3023  0.3990
16923SOL    HW162828   0.469   5.246   0.078 -1.1929  0.2013  0.5633
16923SOL    HW262829   0.483   5.134  -0.040  2.1724 -0.4821  1.5684
16924SOL     OW62830   9.509   0.896   4.919  0.4828 -0.1346 -0.3448
16924SOL    HW162831   9.507   0.805   4.878 -0.8735  0.1726 -0.9867
16924SOL    HW262832   9.467   0.962   4.856 -0.7849  0.5001  1.1199
16925SOL     OW62833   8.951   5.511   9.409  0.0090 -0.2287  0.3599
16925SOL    HW162834   8.870   5.553   9.369  1.4130  3.4705  1.2675
16925SOL    HW262835   8.925   5.465   9.495 -1.3181 -0.0971  0.0457
16926SOL     OW62836   3.486   9.406   3.515  0.2008 -0.2866 -0.9934
16926SOL    HW162837   3.497   9.422   3.613  1.1241 -1.1442 -0.9476
16926SOL    HW262838   3.389   9.402   3.492 -0.0218 -1.1980  0.0730
16927SOL     OW62839   9.819   9.380   7.287 -0.2144  0.8511  0.1034
16927SOL    HW162840   9.769   9.444   7.229 -0.0230 -0.8155 -1.9748
16927SOL    HW262841   9.762   9.300   7.305  1.5641 -1.0794 -2.3063
16928SOL     OW62842   1.137   0.652   5.819  0.0855  0.3436  0.3697
16928SOL    HW162843   1.150   0.592   5.898  2.2941 -0.4997 -0.5790
16928SOL    HW262844   1.180   0.740   5.836 -0.4875  0.5860  0.5706
16929SOL     OW62845   0.934   4.988   0.683  0.5713 -0.0962 -0.7727
16929SOL    HW162846   0.936   4.969   0.585  0.5129  1.6932 -1.1342
16929SOL    HW262847   0.840   5.004   0.712  0.6976  0.4429 -0.6483
16930SOL     OW62848   4.314   7.186   9.650 -0.1421 -0.2190 -0.5443
16930SOL    HW162849   4.411   7.210   9.644  0.1552 -1.1109  0.5121
16930SOL    HW262850   4.285   7.140   9.566  0.6261 -0.8783 -0.4558
16931SOL     OW62851   6.986   4.653   7.087 -0.0385 -0.5734 -0.2702
16931SOL    HW162852   7.011   4.708   7.166  1.8957 -2.4593  0.4806
16931SOL    HW262853   6.987   4.710   7.005  3.5261  0.2049  0.2437
16932SOL     OW62854   2.458   2.996   5.978  0.0664 -0.3028  0.3101
16932SOL    HW162855   2.558   2.999   5.966 -0.1191  0.9911 -1.0725
16932SOL    HW262856   2.422   2.911   5.941  0.4202  0.1852 -1.1670
16933SOL     OW62857   0.144   1.055   1.793 -0.3975  0.1965 -0.2895
16933SOL    HW162858   0.129   0.973   1.738 -2.5363  1.4544 -1.6546
16933SOL    HW262859   0.185   1.126   1.736  1.5653  0.0570  0.9201
16934SOL     OW62860   3.421   3.108   4.948 -0.3061  0.2741 -0.1068
16934SOL    HW162861   3.325   3.095   4.923 -0.0314 -0.9319 -0.5639
16934SOL    HW262862   3.459   3.186   4.897 -1.2985  1.3990  0.8277
16935SOL     OW62863   7.709   1.150   6.351 -0.6918  0.0486  0.4655
16935SOL    HW162864   7.753   1.142   6.440 -0.4003  0.9351  0.4037
16935SOL    HW262865   7.645   1.228   6.352  0.7686  1.2954 -0.6993
16936SOL     OW62866   0.205   6.867   2.751 -0.4179 -0.4648 -0.3380
16936SOL    HW162867   0.227   6.925   2.672 -0.6340 -0.4165 -0.3638
16936SOL    HW262868   0.230   6.914   2.835 -2.4123  0.5197 -0.2524
16937SOL     OW62869   9.374   9.299   4.295 -0.1479  0.6790  0.2044
16937SOL    HW162870   9.362   9.244   4.212 -0.4207  1.0129  0.0176
16937SOL    HW262871   9.407   9.390   4.270  0.6345  0.4937  0.5399
16938SOL     OW62872   0.600   3.221   8.572  0.1040 -0.4137  0.6169
16938SOL    HW162873   0.540   3.149   8.608 -1.4575  0.5344 -0.0076
16938SOL    HW262874   0.594   3.222   8.472 -1.6869  2.0378  0.7004
16939SOL     OW62875   5.947   4.653   2.211 -0.0646 -0.1242 -0.2561
16939SOL    HW162876   5.975   4.674   2.117 -0.0820 -1.1372 -0.4959
16939SOL    HW262877   6.018   4.598   2.255 -0.3749 -0.2470  0.0940
16940SOL     OW62878   2.635   6.436   7.650 -0.0633  0.3327  0.2002
16940SOL    HW162879   2.727   6.402   7.631 -0.3229 -0.1481 -0.2107
16940SOL    HW262880   2.586   6.368   7.706 -0.2239  0.5102  0.2751
16941SOL     OW62881   7.503   9.039   7.108 -0.1113  0.6435  0.1109
16941SOL    HW162882   7.415   9.017   7.066 -0.7487  1.1743  1.1443
16941SOL    HW262883   7.576   8.991   7.060 -1.0477 -0.4432 -0.2544
16942SOL     OW62884   1.556   0.955   8.183 -0.2745 -0.6570  0.2786
16942SOL    HW162885   1.483   0.908   8.234  0.0607 -0.8979  0.5412
16942SOL    HW262886   1.570   1.046   8.222  0.0067 -0.8552  0.6433
16943SOL     OW62887   5.250   4.186   7.905 -0.3378  0.5663 -0.5436
16943SOL    HW162888   5.307   4.111   7.938 -1.6012  0.3298  1.1386
16943SOL    HW262889   5.207   4.159   7.819 -0.3344 -0.4167 -0.2408
16944SOL     OW62890   7.926   0.724   5.659 -0.3424 -0.0924 -0.0851
16944SOL    HW162891   7.938   0.682   5.569  1.7958  1.0660 -0.3656
16944SOL    HW262892   7.925   0.824   5.649 -0.6556  0.0296  1.1311
16945SOL     OW62893   1.692   1.047   8.754 -0.4463 -0.4499  0.6110
16945SOL    HW162894   1.657   1.074   8.664 -0.2070  1.7579  1.1446
16945SOL    HW262895   1.616   1.026   8.815 -0.7788  1.8411  1.0151
16946SOL     OW62896   0.547   3.239   1.438 -0.1413  0.3004  0.7228
16946SOL    HW162897   0.639   3.220   1.471  1.1007  2.0608 -1.5970
16946SOL    HW262898   0.513   3.159   1.388 -0.2342 -0.6537  2.2556
16947SOL     OW62899   0.522   3.673   1.699 -0.2762 -0.2096 -0.3192
16947SOL    HW162900   0.532   3.708   1.606 -2.6096  1.7120  0.0747
16947SOL    HW262901   0.426   3.683   1.728  0.1879 -1.7711  1.8927
16948SOL     OW62902   8.053   4.429   0.962  0.6577 -0.2090  0.2430
16948SOL    HW162903   7.993   4.356   0.931 -2.5211  2.3368  0.1898
16948SOL    HW262904   8.094   4.475   0.882  1.1716 -0.6963  0.2214
16949SOL     OW62905   5.562   3.860   8.246  0.6902  0.1153 -0.3062
16949SOL    HW162906   5.586   3.872   8.150  0.5256  1.0955 -0.2295
16949SOL    HW262907   5.488   3.924   8.270 -0.4978 -1.3517  0.0124
16950SOL     OW62908   8.010   7.822   7.661 -0.1027  0.0818  0.5010
16950SOL    HW162909   8.101   7.859   7.681  0.3090 -0.1624 -0.8227
16950SOL    HW262910   7.994   7.740   7.716  0.8601 -0.3981  0.0867
16951SOL     OW62911   7.841   0.412   6.341  0.3875 -0.4606 -0.1476
16951SOL    HW162912   7.774   0.400   6.415 -0.5652  0.2261 -0.8831
16951SOL    HW262913   7.906   0.336   6.342 -1.5718 -2.1887 -0.6325
16952SOL     OW62914   0.557   4.046   2.500  0.5310  0.5618  0.5941
16952SOL    HW162915   0.560   4.041   2.600  4.3693 -2.9181  0.4002
16952SOL    HW262916   0.499   3.972   2.465  1.9675 -0.3957  0.1787
16953SOL     OW62917   3.534   1.517   9.194 -0.2435  0.3106  0.6824
16953SOL    HW162918   3.453   1.559   9.153  1.3042  1.2429 -1.4856
16953SOL    HW262919   3.614   1.575   9.179  1.7036 -2.6772 -1.1264
16954SOL     OW62920   1.357   6.865   8.128 -0.4394 -0.3399  0.0588
16954SOL    HW162921   1.408   6.794   8.080 -0.2338 -1.8095  2.3809
16954SOL    HW262922   1.318   6.828   8.212 -2.1628  1.7470  0.2315
16955SOL     OW62923   0.807   6.576   3.814  0.1126  0.2124 -0.1146
16955SOL    HW162924   0.799   6.655   3.874 -1.4435  0.0944 -0.1540
16955SOL    HW262925   0.765   6.597   3.726  2.0158  0.2460 -1.0428
16956SOL     OW62926   8.971   4.223   3.267  0.2820 -0.0831 -0.0382
16956SOL    HW162927   9.025   4.143   3.295  1.2563  0.5136 -0.1754
16956SOL    HW262928   8.997   4.248   3.173 -1.1696 -0.5670 -0.5828
16957SOL     OW62929   5.099   5.639   9.410 -0.0334  0.9099  0.2172
16957SOL    HW162930   5.122   5.711   9.475  0.3811  0.5553  0.4661
16957SOL    HW262931   5.170   5.568   9.412 -1.3552 -0.4175  1.3184
16958SOL     OW62932   8.405   1.777   9.019  0.2528  0.2155  0.3694
16958SOL    HW162933   8.484   1.828   8.986 -0.4207  0.5841 -0.7151
16958SOL    HW262934   8.436   1.698   9.072  1.3527  0.2052 -0.2692
16959SOL     OW62935   2.143   6.951   3.607 -0.3199  0.5412  0.1568
16959SOL    HW162936   2.126   7.049   3.616 -0.2054  0.5654  0.1151
16959SOL    HW262937   2.107   6.903   3.687  1.1306  0.8103  0.9893
16960SOL     OW62938   6.246   5.528   2.093  0.1279  0.3536 -0.1992
16960SOL    HW162939   6.162   5.505   2.044  0.3263 -0.0352 -0.3660
16960SOL    HW262940   6.224   5.579   2.176 -0.3739 -0.8604  0.4386
16961SOL     OW62941   2.821   6.728   1.249 -0.3084  0.5689 -1.1246
16961SOL    HW162942   2.833   6.824   1.272 -0.2967  0.0702  1.0853
16961SOL    HW262943   2.901   6.695   1.199  0.4540  1.2860 -0.3928
16962SOL     OW62944   9.297   0.365   2.230 -0.0017  0.2857  0.4919
16962SOL    HW162945   9.264   0.351   2.323 -2.6266  0.6550 -0.3349
16962SOL    HW262946   9.264   0.292   2.171  1.9252 -0.1326 -0.0993
16963SOL     OW62947   0.598   9.555   1.303 -0.2830 -0.3373 -0.2751
16963SOL    HW162948   0.590   9.532   1.400 -1.4846  1.6700  0.1343
16963SOL    HW262949   0.663   9.629   1.292 -0.0924 -0.6137 -1.0207
16964SOL     OW62950   9.862   7.807   5.444 -0.0029  0.1145  0.0701
16964SOL    HW162951   9.888   7.819   5.540  2.9495 -1.4763 -0.4660
16964SOL    HW262952   9.864   7.710   5.421  0.6568  0.5886 -1.9519
16965SOL     OW62953   8.738   7.039   1.611 -0.4007 -0.1222  0.4737
16965SOL    HW162954   8.681   7.122   1.605 -0.5053 -0.1824  0.6395
16965SOL    HW262955   8.679   6.960   1.628 -0.0665  0.1332  3.0710
16966SOL     OW62956   1.383   1.672   5.835  0.1106 -0.5086  0.1094
16966SOL    HW162957   1.325   1.591   5.832  0.0236 -0.4410 -0.0113
16966SOL    HW262958   1.345   1.743   5.776  0.1690 -0.3679  0.2410
16967SOL     OW62959   0.964   1.233   8.180  0.4437  0.2632 -0.0622
16967SOL    HW162960   0.889   1.175   8.151  0.1783  1.4387 -1.7999
16967SOL    HW262961   1.027   1.180   8.237 -0.8518 -1.1485  0.0902
16968SOL     OW62962   7.496   8.169   2.663  0.1984  0.7213 -0.6562
16968SOL    HW162963   7.523   8.210   2.750  1.5782 -1.2292 -0.1460
16968SOL    HW262964   7.402   8.195   2.642  0.3563  2.4574  0.6516
16969SOL     OW62965   9.176   2.201   0.518 -0.1661 -0.4823  0.6371
16969SOL    HW162966   9.089   2.220   0.563 -1.1936  0.4208 -1.6505
16969SOL    HW262967   9.205   2.282   0.466  0.9125 -1.5273 -0.4189
16970SOL     OW62968   8.804   7.320   7.917  0.4530  0.0617  0.2146
16970SOL    HW162969   8.783   7.369   7.832 -2.2724  0.4909  1.0761
16970SOL    HW262970   8.740   7.245   7.929  1.0404 -0.2199  1.7149
16971SOL     OW62971   1.114   0.674   9.686 -0.5814 -0.0242  0.1150
16971SOL    HW162972   1.197   0.688   9.739 -0.1222  2.4934 -1.1835
16971SOL    HW262973   1.042   0.735   9.720 -2.0073 -2.3496  1.3898
16972SOL     OW62974   8.585   3.068   3.222  0.1535 -0.0118  0.6221
16972SOL    HW162975   8.529   3.018   3.288 -0.3385  0.6833  0.7366
16972SOL    HW262976   8.576   3.026   3.131 -0.6210  0.1465  0.6247
16973SOL     OW62977   4.218   9.834   7.842 -0.1093  0.6277 -0.2041
16973SOL    HW162978   4.303   9.873   7.807  0.6484  0.9222  1.9086
16973SOL    HW262979   4.144   9.851   7.776  1.2586  1.1659 -1.6330
16974SOL     OW62980   1.254   6.336   2.266 -0.2238  0.2450 -0.8019
16974SOL    HW162981   1.154   6.333   2.266 -0.2646  1.0145  0.8185
16974SOL    HW262982   1.287   6.340   2.361  1.3517 -0.3298 -1.3135
16975SOL     OW62983   9.374   3.766   3.481 -0.0580  0.6473 -0.1372
16975SOL    HW162984   9.316   3.731   3.406  0.3501  0.9717 -0.6049
16975SOL    HW262985   9.341   3.856   3.508 -0.2942  0.4693  0.1731
16976SOL     OW62986   8.460   7.238   0.291 -0.2783 -0.3702 -0.2048
16976SOL    HW162987   8.441   7.182   0.371 -1.2336 -1.1297 -0.9408
16976SOL    HW262988   8.533   7.196   0.237 -0.6356 -0.6351 -0.4844
16977SOL     OW62989   3.450   8.186   2.729 -0.6295 -0.1963  0.2139
16977SOL    HW162990   3.414   8.279   2.723  1.4447  0.5194 -1.4670
16977SOL    HW262991   3.389   8.124   2.680 -1.5498  0.3993  0.5865
16978SOL     OW62992   3.733   7.558   3.028 -0.1351 -0.5366 -0.5267
16978SOL    HW162993   3.748   7.651   2.994  0.5071 -0.2508  0.5063
16978SOL    HW262994   3.702   7.499   2.953 -1.2506  0.6774 -1.0207
16979SOL     OW62995   0.293   1.857   9.448 -1.0475 -0.0618  0.2632
16979SOL    HW162996   0.346   1.840   9.531 -0.3560 -3.4956 -0.8234
16979SOL    HW262997   0.195   1.854   9.469 -0.9003 -2.3727  0.7540
16980SOL     OW62998   4.450   4.239   7.797  0.2317 -0.0957 -0.5961
16980SOL    HW162999   4.507   4.215   7.875 -1.1432  0.0153  0.4449
16980SOL    HW263000   4.377   4.301   7.826  0.0739  0.4538 -2.0873
16981SOL     OW63001   1.356   6.337   6.075  0.0785  0.0485  0.1267
16981SOL    HW163002   1.414   6.263   6.107 -1.5180 -1.5481 -0.5636
16981SOL    HW263003   1.388   6.369   5.986  1.3679  0.8977  0.8790
16982SOL     OW63004   8.366   0.126   3.993 -0.7002 -0.7427  0.0952
16982SOL    HW163005   8.319   0.128   3.905  0.1306  1.4509 -0.3329
16982SOL    HW263006   8.377   0.031   4.023 -2.6973 -1.4164 -1.2294
16983SOL     OW63007   3.920   8.113   5.143 -0.3465 -0.2223  0.1622
16983SOL    HW163008   3.905   8.055   5.222  0.6631  0.9445  1.2209
16983SOL    HW263009   3.854   8.188   5.144 -0.9142 -0.6989 -0.5966
16984SOL     OW63010   0.655   1.529   2.884 -0.0808  0.2168  0.3559
16984SOL    HW163011   0.696   1.493   2.800  0.5318  0.9914  0.3198
16984SOL    HW263012   0.559   1.551   2.867 -0.0378  0.0987 -0.0595
16985SOL     OW63013   1.219   4.310   3.340 -0.3617  0.8515  0.0571
16985SOL    HW163014   1.125   4.332   3.366 -1.5588 -2.2670 -1.3171
16985SOL    HW263015   1.254   4.239   3.401 -0.8445 -1.7890 -2.6101
16986SOL     OW63016   5.359   2.929   0.896 -0.1575 -0.2663 -0.1051
16986SOL    HW163017   5.403   2.897   0.980 -1.6002 -3.3972 -0.4802
16986SOL    HW263018   5.300   3.007   0.918 -1.7453 -2.0139  2.1428
16987SOL     OW63019   9.614   0.863   1.901  0.3198  0.0761 -0.3204
16987SOL    HW163020   9.637   0.860   1.999  1.0475  2.4736 -0.3909
16987SOL    HW263021   9.691   0.826   1.848  0.6437  0.4136 -0.0860
16988SOL     OW63022   7.910   0.596   3.913  0.2852  0.6030  1.1100
16988SOL    HW163023   7.826   0.558   3.950 -0.2081  1.2349  0.6538
16988SOL    HW263024   7.980   0.525   3.910 -0.8204 -0.4539 -0.3738
16989SOL     OW63025   2.780   3.680   8.883  0.0134 -0.0397  0.2258
16989SOL    HW163026   2.788   3.580   8.875 -1.0561 -0.0855 -0.3438
16989SOL    HW263027   2.778   3.720   8.792 -0.2101  0.4551  0.4507
16990SOL     OW63028   9.810   7.753   2.739 -0.2438  0.1642 -0.5766
16990SOL    HW163029   9.889   7.788   2.790  0.2165 -1.5262 -0.0864
16990SOL    HW263030   9.816   7.784   2.644 -0.4028  2.2343  0.0629
16991SOL     OW63031   7.060   8.245   3.309 -0.1269  0.0213  0.4787
16991SOL    HW163032   6.993   8.195   3.254  1.6964 -1.8776 -0.0667
16991SOL    HW263033   7.104   8.315   3.252  0.3539 -0.6129  0.0721
16992SOL     OW63034   2.938   3.216   5.597  0.1416  0.3948  0.5306
16992SOL    HW163035   2.899   3.146   5.656  1.8017 -0.7949  0.2265
16992SOL    HW263036   2.900   3.206   5.505  1.6405 -1.2036  0.0624
16993SOL     OW63037   9.790   4.480   8.447 -0.1304 -0.1242  0.0765
16993SOL    HW163038   9.713   4.503   8.507  0.2812 -0.2424  0.6641
16993SOL    HW263039   9.759   4.419   8.375 -0.9243  1.1306 -0.6496
16994SOL     OW63040   9.885   1.424   6.206  0.0784 -0.3149 -0.1830
16994SOL    HW163041   9.820   1.405   6.133 -0.1456 -0.2172 -0.0081
16994SOL    HW263042   9.883   1.349   6.273  0.4179 -0.4976 -0.3729
16995SOL     OW63043   0.432   7.098   5.759  0.5405 -0.1784  0.2182
16995SOL    HW163044   0.413   7.002   5.780  0.4470  0.1738  1.7845
16995SOL    HW263045   0.502   7.133   5.822  1.0932  0.5864 -0.8027
16996SOL     OW63046   3.453   6.809   8.054 -0.4874  0.0653  0.3832
16996SOL    HW163047   3.515   6.869   8.104  1.8416 -1.4813 -0.5888
16996SOL    HW263048   3.421   6.856   7.971  0.7703  0.2290 -0.0182
16997SOL     OW63049   3.943   8.924   1.301 -0.1944  0.4105 -0.4842
16997SOL    HW163050   3.856   8.885   1.330 -0.1875  1.3169  0.8002
16997SOL    HW263051   3.992   8.959   1.381  0.6747  1.2650 -1.3752
16998SOL     OW63052   1.540   1.044   4.787  0.2402  0.6937  0.6940
16998SOL    HW163053   1.506   0.960   4.744  1.7262  0.4009  0.0845
16998SOL    HW263054   1.518   1.042   4.885 -0.4371 -0.0412  0.5303
16999SOL     OW63055   4.725   9.932   9.798 -0.2803 -0.0630  0.4730
16999SOL    HW163056   4.800   9.866   9.794  0.4776  0.8646 -0.7904
16999SOL    HW263057   4.638   9.883   9.807  0.4696 -1.1426  1.9962
17000SOL     OW63058   9.972   5.568   0.565 -0.5208 -0.1001 -0.2057
17000SOL    HW163059   9.902   5.636   0.544 -2.5928 -1.1278  3.0048
17000SOL    HW263060   9.950   5.483   0.517  1.5666  1.1084 -3.4817
17001SOL     OW63061   5.643   2.057   1.413 -0.7030  0.0815  0.3307
17001SOL    HW163062   5.730   2.089   1.377 -0.7335 -0.3894 -0.1660
17001SOL    HW263063   5.659   1.990   1.485 -0.6500  0.3908  0.6064
17002SOL     OW63064   9.282   8.534   7.747 -0.2681 -0.2116  0.0725
17002SOL    HW163065   9.313   8.547   7.841 -1.2452  0.6233  0.2830
17002SOL    HW263066   9.352   8.568   7.684 -0.4278  1.0151  0.5354
17003SOL     OW63067   2.000   0.815   6.740  0.3826  0.7137 -0.6758
17003SOL    HW163068   1.945   0.738   6.773  0.2078  0.1753 -2.1633
17003SOL    HW263069   2.096   0.799   6.760  0.3277  0.1680 -0.8480
17004SOL     OW63070   0.559   4.916   7.289 -0.4640 -0.1742  0.1726
17004SOL    HW163071   0.537   4.844   7.223  1.7473 -1.2511  0.5424
17004SOL    HW263072   0.477   4.943   7.338 -1.8308 -0.5199 -1.8736
17005SOL     OW63073   1.196   2.521   4.535 -0.2773 -0.2864  0.0751
17005SOL    HW163074   1.171   2.542   4.441  0.8951 -0.5569 -0.3088
17005SOL    HW263075   1.115   2.494   4.586 -0.9207 -0.1277 -0.8534
17006SOL     OW63076   7.159   3.038   4.362 -0.2624  0.1013  0.8406
17006SOL    HW163077   7.204   2.949   4.350  0.4418  0.5431  0.1649
17006SOL    HW263078   7.097   3.033   4.440 -2.0016 -1.6887 -0.6004
17007SOL     OW63079   9.167   8.969   2.389 -0.5931  0.0862 -0.6185
17007SOL    HW163080   9.236   8.897   2.387 -1.8010 -1.0550 -2.0729
17007SOL    HW263081   9.082   8.934   2.428 -1.9644 -0.0293 -3.6062
17008SOL     OW63082   1.856   3.085   9.239 -0.1986  0.6365 -0.8346
17008SOL    HW163083   1.938   3.033   9.263  0.1767  0.5698 -2.2111
17008SOL    HW263084   1.777   3.024   9.236 -0.6610  0.9970  2.2075
17009SOL     OW63085   8.450   8.913   9.027 -0.1628  0.4471 -0.3500
17009SOL    HW163086   8.499   8.891   9.111  0.1500  2.5651  0.0611
17009SOL    HW263087   8.513   8.948   8.959 -0.6024 -0.0942 -1.0488
17010SOL     OW63088   3.396   3.217   8.134 -0.3487 -0.6110  0.0294
17010SOL    HW163089   3.302   3.252   8.131 -0.8204 -1.8873 -0.6212
17010SOL    HW263090   3.396   3.121   8.105  0.7615 -1.4359  2.5505
17011SOL     OW63091   8.441   7.173   9.628 -0.3889  0.4287  0.0749
17011SOL    HW163092   8.490   7.203   9.546 -0.3711  0.9298  0.2641
17011SOL    HW263093   8.485   7.092   9.666 -1.3672 -0.7663 -1.3281
17012SOL     OW63094   2.324   4.627   8.320  0.5488  0.4034 -0.2551
17012SOL    HW163095   2.262   4.618   8.398 -0.8450  1.3498 -1.2273
17012SOL    HW263096   2.417   4.643   8.352 -0.1259  1.4727  1.1997
17013SOL     OW63097   8.872   8.312   8.542  0.1836 -0.0825 -0.6009
17013SOL    HW163098   8.931   8.338   8.619 -0.4287 -1.1396  0.2333
17013SOL    HW263099   8.886   8.377   8.466  0.6601  1.0663  0.4528
17014SOL     OW63100   0.258   3.675   0.669 -0.2792 -0.2931  0.1444
17014SOL    HW163101   0.163   3.667   0.696  0.2616 -0.9052  1.9579
17014SOL    HW263102   0.296   3.760   0.706  0.1903 -0.6336  0.4560
17015SOL     OW63103   9.543   6.978   5.441 -0.1474  0.3760 -0.5839
17015SOL    HW163104   9.538   7.040   5.363  0.3248 -0.3154 -1.1805
17015SOL    HW263105   9.509   6.888   5.414 -6.3692  1.7499  1.8333
17016SOL     OW63106   1.041   3.645   4.907 -0.1895  0.9815 -0.0733
17016SOL    HW163107   0.981   3.663   4.985 -1.6033 -1.1925 -0.6030
17016SOL    HW263108   1.123   3.597   4.939 -0.2170  1.1418  0.2402
17017SOL     OW63109   4.306   6.318   4.267 -0.7097 -0.0460 -0.2729
17017SOL    HW163110   4.297   6.251   4.193 -0.5426 -0.1890 -0.1669
17017SOL    HW263111   4.218   6.330   4.313 -0.6495 -0.4964 -0.0361
17018SOL     OW63112   8.012   4.209   8.251  0.2775  0.1495 -0.5123
17018SOL    HW163113   7.970   4.180   8.165 -0.6842  0.7140 -0.2399
17018SOL    HW263114   7.942   4.245   8.312  1.1640  1.1822 -0.0826
17019SOL     OW63115   4.889   0.412   2.767  0.2573  0.3061  0.2470
17019SOL    HW163116   4.832   0.384   2.690  0.8920  1.3105 -0.5946
17019SOL    HW263117   4.832   0.422   2.849 -0.3666 -1.0673 -0.0119
17020SOL     OW63118   4.297   0.008   1.821 -0.3332 -0.1640  0.1947
17020SOL    HW163119   4.221  -0.028   1.876 -0.4663  0.1895  0.2411
17020SOL    HW263120   4.332   0.092   1.863  0.5006 -0.6685  0.5213
17021SOL     OW63121   1.829   5.359   3.667  0.1526  0.0007 -0.5681
17021SOL    HW163122   1.799   5.369   3.572  1.5690  1.5610 -0.8717
17021SOL    HW263123   1.777   5.422   3.725 -0.5280 -0.7653 -0.3388
17022SOL     OW63124   8.899   6.352  -0.002 -0.2453  0.2496 -0.4843
17022SOL    HW163125   8.899   6.312   0.089 -0.3001 -0.1349 -0.6502
17022SOL    HW263126   8.970   6.423  -0.008  0.9803 -0.9689 -0.6753
17023SOL     OW63127   5.159   0.117   5.776  0.1658 -0.4366  0.0509
17023SOL    HW163128   5.236   0.053   5.776  0.3816 -0.2137 -1.9855
17023SOL    HW263129   5.076   0.068   5.749  0.3746  0.1769 -1.7423
17024SOL     OW63130   1.797   3.525   2.458 -0.9060 -0.1983  0.1270
17024SOL    HW163131   1.887   3.495   2.427 -0.7879 -0.0322  0.3000
17024SOL    HW263132   1.742   3.553   2.380 -0.8867 -0.5128 -0.0006
17025SOL     OW63133   9.968   2.780   3.092 -0.4226  0.0268  0.2688
17025SOL    HW163134   9.893   2.843   3.072 -0.5279  0.2138  1.2402
17025SOL    HW263135  10.003   2.742   3.006 -1.3238  0.2847 -0.2201
17026SOL     OW63136   6.610   0.270   2.606 -0.2280 -0.1789  0.1560
17026SOL    HW163137   6.565   0.356   2.631 -0.2022 -0.0079 -0.3936
17026SOL    HW263138   6.668   0.284   2.526  1.0476 -0.3218  1.0292
17027SOL     OW63139   7.172   8.162   2.574 -0.3786  0.0026  0.6389
17027SOL    HW163140   7.146   8.256   2.554  2.3349  0.5105 -0.7823
17027SOL    HW263141   7.148   8.104   2.496  1.7504  0.3205 -0.3024
17028SOL     OW63142   1.246   7.579   8.959 -0.3587  0.1800  0.0578
17028SOL    HW163143   1.294   7.650   8.906  0.8970 -1.0536 -0.5107
17028SOL    HW263144   1.313   7.527   9.012 -1.3993  0.1184  1.3354
17029SOL     OW63145   2.676   5.377   0.499  0.4714 -0.3931  0.3142
17029SOL    HW163146   2.713   5.385   0.591  0.7245  0.8314  0.1052
17029SOL    HW263147   2.736   5.319   0.444  1.3645  0.4741  0.3644
17030SOL     OW63148   2.360   5.870   4.199  0.0687  0.8161  0.0175
17030SOL    HW163149   2.299   5.844   4.274 -1.4082  0.9400 -1.1228
17030SOL    HW263150   2.407   5.789   4.164  0.2233  0.6477  0.6179
17031SOL     OW63151   5.221   8.295   6.725 -0.7923  0.0747  0.4524
17031SOL    HW163152   5.252   8.352   6.802 -0.1803  0.3572  0.0044
17031SOL    HW263153   5.194   8.354   6.649 -1.5426 -0.2012  0.5015
17032SOL     OW63154   8.963   8.101   4.554  0.6936  0.4036  0.5602
17032SOL    HW163155   9.026   8.179   4.562 -1.4143  2.0387  1.7408
17032SOL    HW263156   8.893   8.122   4.485 -0.4312 -0.0568  1.5524
17033SOL     OW63157   9.324   7.860   1.330  0.1522  0.1469 -0.6702
17033SOL    HW163158   9.298   7.846   1.235 -0.5522 -0.7276 -0.3539
17033SOL    HW263159   9.279   7.792   1.388  0.2896  0.8893  0.3354
17034SOL     OW63160   8.748   4.491   0.914  0.7345 -0.2791  0.4259
17034SOL    HW163161   8.694   4.547   0.852  0.2182 -0.9100  0.3047
17034SOL    HW263162   8.843   4.522   0.912  0.7492 -0.3642 -0.7649
17035SOL     OW63163   6.861   5.260   0.978 -0.7948  0.7499  0.5603
17035SOL    HW163164   6.897   5.259   0.885 -0.0155  1.8217  0.8377
17035SOL    HW263165   6.859   5.355   1.011  0.0018  0.2429  2.0543
17036SOL     OW63166   9.924   1.842   4.624 -0.5115 -0.3435  0.5519
17036SOL    HW163167   9.993   1.803   4.685  1.3165  1.4957 -0.3033
17036SOL    HW263168   9.913   1.783   4.544  0.0560 -0.6619  0.7032
17037SOL     OW63169   4.951   0.949   6.975  0.2487 -0.4758 -0.9141
17037SOL    HW163170   5.002   0.920   7.056  0.1321 -1.8296 -1.3014
17037SOL    HW263171   4.914   1.040   6.990  1.0134 -0.3294  0.1921
17038SOL     OW63172   5.393   4.808   8.441 -0.0099  0.7141 -0.1537
17038SOL    HW163173   5.443   4.860   8.372 -0.8125 -0.6452 -1.8033
17038SOL    HW263174   5.396   4.710   8.417 -1.1127  0.3408  1.2138
17039SOL     OW63175   6.473   1.660   1.636 -0.3284 -0.0059 -0.0501
17039SOL    HW163176   6.499   1.687   1.543 -0.8460 -2.4372 -0.9201
17039SOL    HW263177   6.375   1.678   1.649 -0.5257 -0.8411 -0.3959
17040SOL     OW63178   3.870   6.019   2.659 -0.2905 -0.5521 -0.3582
17040SOL    HW163179   3.941   5.963   2.616  0.2412  0.1751 -0.4296
17040SOL    HW263180   3.901   6.046   2.750  0.0682  0.8392 -0.8875
17041SOL     OW63181   4.233   4.227   5.937 -0.2638  0.0751  0.0049
17041SOL    HW163182   4.280   4.161   5.996  0.4180  0.2643 -0.3274
17041SOL    HW263183   4.160   4.271   5.989  0.3354  0.2438  0.7171
17042SOL     OW63184   9.388   8.208   3.992 -0.1722 -0.2708 -0.0058
17042SOL    HW163185   9.308   8.163   3.953 -0.7313  1.7698 -1.3006
17042SOL    HW263186   9.385   8.305   3.970  2.3051 -0.0426  0.5380
17043SOL     OW63187   9.298   9.540   5.650 -0.5620  0.4193 -0.1938
17043SOL    HW163188   9.235   9.489   5.708  0.0337 -0.4396 -0.2979
17043SOL    HW263189   9.275   9.525   5.554 -0.5891  0.5988 -0.2158
17044SOL     OW63190   7.736   0.824   8.350  0.0308 -0.2843  0.4222
17044SOL    HW163191   7.693   0.741   8.385 -0.9927 -0.4053 -1.0866
17044SOL    HW263192   7.807   0.799   8.283 -1.1572  0.0726 -0.9965
17045SOL     OW63193   1.204   2.535   5.578 -0.1892  0.2191 -0.3900
17045SOL    HW163194   1.245   2.610   5.528  0.2706 -1.6407 -2.9060
17045SOL    HW263195   1.189   2.562   5.673 -0.0002  3.4276 -1.2203
17046SOL     OW63196   8.167   4.160   4.719 -0.7042 -0.3246 -0.2224
17046SOL    HW163197   8.105   4.207   4.656  1.5850  1.2811 -1.3575
17046SOL    HW263198   8.173   4.063   4.695 -2.3720 -0.4149 -0.3699
17047SOL     OW63199   6.297   9.531   3.102  0.6423  0.5916 -0.1574
17047SOL    HW163200   6.251   9.593   3.166  0.9882  1.9583 -1.1898
17047SOL    HW263201   6.245   9.528   3.016  1.5910  0.8552 -0.7429
17048SOL     OW63202   0.459   0.321   1.138  0.4934 -0.4045 -0.2704
17048SOL    HW163203   0.430   0.315   1.042  1.1463  2.1043 -0.6618
17048SOL    HW263204   0.558   0.327   1.142  0.4271  0.1790  0.5250
17049SOL     OW63205   0.465   0.251   4.088 -0.1296  0.1102  0.6896
17049SOL    HW163206   0.462   0.170   4.148 -0.6183  0.2892  0.9076
17049SOL    HW263207   0.557   0.290   4.091  0.1092 -0.4414  0.5823
17050SOL     OW63208   1.737   4.789   5.206  0.3895  0.8278 -0.4646
17050SOL    HW163209   1.682   4.863   5.244  0.4068  0.2699  0.6725
17050SOL    HW263210   1.804   4.827   5.142 -0.6089  1.6221 -1.0449
17051SOL     OW63211   6.289   1.134   4.900  0.1515 -0.3552  0.1236
17051SOL    HW163212   6.274   1.127   4.999  1.1903  2.6263  0.5533
17051SOL    HW263213   6.269   1.227   4.870  4.5680  0.1624 -1.5756
17052SOL     OW63214   0.385   5.775   4.209  0.1532 -0.1075  0.2376
17052SOL    HW163215   0.473   5.761   4.253  1.4839  0.6975 -2.0981
17052SOL    HW263216   0.366   5.698   4.148 -1.0532 -0.5514  1.1347
17053SOL     OW63217   6.809   4.841   9.516  0.4365 -0.3293  0.7098
17053SOL    HW163218   6.880   4.812   9.452  0.4473  0.1894  0.4770
17053SOL    HW263219   6.804   4.941   9.516 -0.1387 -0.3556  0.8943
17054SOL     OW63220   9.095   6.154   8.959 -0.2544 -0.9711 -0.5778
17054SOL    HW163221   9.064   6.151   8.864  0.1206  0.3397 -0.7584
17054SOL    HW263222   9.163   6.227   8.969 -1.4040 -0.0871  1.0103
17055SOL     OW63223   5.228   8.665   1.362 -0.0989  0.1284 -0.4764
17055SOL    HW163224   5.130   8.671   1.341 -0.4795 -0.2812  1.1260
17055SOL    HW263225   5.247   8.576   1.405  0.7803  0.6369  0.1959
17056SOL     OW63226   1.669   3.002   5.183 -0.0694 -0.0686 -0.1007
17056SOL    HW163227   1.739   2.946   5.228 -0.0070 -0.1009 -0.2359
17056SOL    HW263228   1.629   2.950   5.107  1.6647  0.9101 -1.7455
17057SOL     OW63229   7.399   6.323   0.793 -0.0868  0.0789 -0.0221
17057SOL    HW163230   7.397   6.401   0.856 -2.0383  1.8511 -2.1597
17057SOL    HW263231   7.344   6.249   0.829 -1.5041  1.2289  0.2053
17058SOL     OW63232   1.382   5.446   0.393  0.3930  0.1027  0.5298
17058SOL    HW163233   1.289   5.479   0.411  0.3993  0.7789 -0.6791
17058SOL    HW263234   1.412   5.388   0.470 -1.0986 -0.2960  0.8231
17059SOL     OW63235   5.611   0.819   2.313 -0.1529  0.2963 -1.4252
17059SOL    HW163236   5.601   0.755   2.237 -0.5982 -2.0590  0.5805
17059SOL    HW263237   5.662   0.776   2.387  2.5817  3.4660 -1.3510
17060SOL     OW63238   3.015   2.529   8.187  0.3431  0.6469 -0.3150
17060SOL    HW163239   3.086   2.490   8.245 -0.4342 -1.0499 -0.4781
17060SOL    HW263240   3.048   2.532   8.092  0.0646 -0.5041 -0.4539
17061SOL     OW63241   2.978   6.383   7.531  0.1803  0.2432  0.5121
17061SOL    HW163242   3.010   6.413   7.441 -1.7624  3.5873  0.8674
17061SOL    HW263243   2.926   6.298   7.521  0.2544  0.3962 -1.4622
17062SOL     OW63244   8.665   6.332   4.743 -0.3630 -0.4999  0.1886
17062SOL    HW163245   8.642   6.371   4.832 -1.3103 -0.7707  0.0728
17062SOL    HW263246   8.762   6.307   4.742 -0.5804 -1.4895  1.5279
17063SOL     OW63247   7.535   4.103   0.195  0.1015  0.5547  0.6446
17063SOL    HW163248   7.462   4.166   0.169 -0.2944  0.5741  1.7899
17063SOL    HW263249   7.516   4.064   0.285  1.0107 -0.1904  0.5258
17064SOL     OW63250   8.714   0.340   0.724 -0.1105  1.0447  0.5428
17064SOL    HW163251   8.745   0.305   0.635  0.9243  0.3450  1.1706
17064SOL    HW263252   8.788   0.334   0.790 -0.7745  1.8763  1.3827
17065SOL     OW63253   3.515   1.100   6.707  0.2675  0.1277 -0.2410
17065SOL    HW163254   3.567   1.018   6.733  1.1593  1.1711  1.3243
17065SOL    HW263255   3.516   1.109   6.607 -3.2520 -3.9545 -0.8199
17066SOL     OW63256   0.226   5.315   3.649  0.2121 -0.0685  0.1980
17066SOL    HW163257   0.137   5.358   3.629  0.3197  0.0474 -0.0276
17066SOL    HW263258   0.213   5.218   3.665  0.0387 -0.0457  0.2017
17067SOL     OW63259   7.141   6.616   2.492  0.7266 -0.3962  0.4893
17067SOL    HW163260   7.066   6.636   2.429  0.8068 -1.0808  0.1754
17067SOL    HW263261   7.110   6.633   2.586  0.8553  1.3772  0.2255
17068SOL     OW63262   2.854   6.494   3.248  0.3065 -0.5199 -0.1933
17068SOL    HW163263   2.936   6.484   3.191 -0.0419  0.6809 -0.9145
17068SOL    HW263264   2.784   6.543   3.197  0.2395  1.2002  1.5224
17069SOL     OW63265   6.127   0.227   6.009 -0.0245 -0.0272 -0.0531
17069SOL    HW163266   6.198   0.296   5.998  0.3562 -0.5080 -0.6049
17069SOL    HW263267   6.169   0.137   6.020 -0.5366 -0.2668 -0.0284
17070SOL     OW63268   8.275   2.152   2.140 -0.3789 -0.5605 -0.5551
17070SOL    HW163269   8.253   2.054   2.137 -0.6822 -0.4873 -0.7755
17070SOL    HW263270   8.368   2.166   2.106 -0.4961 -0.7280 -0.9557
17071SOL     OW63271   3.104   5.969   1.585 -1.1084  0.3489  0.5085
17071SOL    HW163272   3.042   5.923   1.649  1.3317 -1.7703  1.4684
17071SOL    HW263273   3.054   5.994   1.502 -3.5355 -0.0052  1.8087
17072SOL     OW63274   7.296   5.842   8.161 -0.6819  0.0185 -0.2688
17072SOL    HW163275   7.235   5.771   8.123  0.0009 -1.1522  0.7721
17072SOL    HW263276   7.373   5.856   8.099  0.2495 -1.6403  0.4737
17073SOL     OW63277   3.022   6.615   5.129  0.2822  0.7175 -0.3132
17073SOL    HW163278   2.939   6.559   5.127  1.2361 -0.7332  0.1336
17073SOL    HW263279   3.047   6.640   5.035  0.1018  0.0277 -0.5457
17074SOL     OW63280   0.866   1.481   9.897 -0.0670 -0.3159  0.6676
17074SOL    HW163281   0.923   1.469   9.979 -0.6572  1.2466  1.3270
17074SOL    HW263282   0.814   1.566   9.905 -1.2290 -0.8806 -0.6919
17075SOL     OW63283   0.338   1.662   9.220 -0.1583  0.2637  0.3606
17075SOL    HW163284   0.292   1.714   9.292  0.7372 -1.1379  1.9694
17075SOL    HW263285   0.286   1.578   9.202  0.2251  0.0683  0.1694
17076SOL     OW63286   3.807   9.647   6.735  0.1467 -0.4592  0.4132
17076SOL    HW163287   3.824   9.549   6.726  0.9750 -0.2018 -1.0245
17076SOL    HW263288   3.821   9.691   6.647 -0.6464  0.8992  0.9509
17077SOL     OW63289   8.904   0.862   7.154  0.2257 -0.2934 -0.6125
17077SOL    HW163290   8.891   0.952   7.196  1.0662 -0.8050  0.8133
17077SOL    HW263291   8.816   0.818   7.142  0.0339 -0.9213  2.4944
17078SOL     OW63292   6.350   0.930   6.645  0.1293  0.1378 -0.2003
17078SOL    HW163293   6.343   0.937   6.745 -0.2356 -0.1196 -0.2068
17078SOL    HW263294   6.340   1.021   6.605  0.0540  0.2136 -0.0123
17079SOL     OW63295   0.884   0.339   2.727 -0.3703 -0.0968  0.3179
17079SOL    HW163296   0.944   0.267   2.692 -3.1283 -1.7822 -1.0850
17079SOL    HW263297   0.890   0.340   2.827 -0.0290 -2.0586  0.3438
17080SOL     OW63298   7.239   0.197   7.020 -0.7499  0.2301 -0.0255
17080SOL    HW163299   7.291   0.111   7.018  0.2017  0.7627  1.0442
17080SOL    HW263300   7.254   0.246   6.934  1.2998  0.8062  0.6207
17081SOL     OW63301   5.037   8.596   5.198  0.3712 -0.4320  0.1789
17081SOL    HW163302   5.125   8.559   5.226 -0.1136 -1.3455  0.5103
17081SOL    HW263303   5.042   8.625   5.102  0.6768 -1.5816 -0.1537
17082SOL     OW63304   9.077   4.813   0.403  0.5110  0.0560  0.4035
17082SOL    HW163305   9.013   4.824   0.479 -0.2161  0.7670 -0.3051
17082SOL    HW263306   9.067   4.890   0.340  3.1392  0.9831  1.0585
17083SOL     OW63307   5.030   5.142   1.324 -0.4217 -0.5625 -0.1940
17083SOL    HW163308   5.122   5.182   1.316 -1.1243  0.6786 -2.3947
17083SOL    HW263309   4.981   5.188   1.398 -1.0325  2.3604 -2.3450
17084SOL     OW63310   6.239   3.094   2.783  0.3992  0.2102 -0.0850
17084SOL    HW163311   6.297   3.019   2.815  0.1426  0.6938  1.5439
17084SOL    HW263312   6.180   3.060   2.709  0.0967 -1.2770  0.8088
17085SOL     OW63313   2.015   0.750   3.503 -0.0624 -0.5503  0.1441
17085SOL    HW163314   1.985   0.669   3.452 -0.3619  0.0670 -0.6736
17085SOL    HW263315   2.025   0.827   3.440  1.1554 -0.1908  0.7647
17086SOL     OW63316   0.036   4.088   0.550 -0.0498 -0.1992  0.5377
17086SOL    HW163317  -0.035   4.044   0.494 -0.8984  1.4439  0.3064
17086SOL    HW263318   0.118   4.030   0.550 -0.6494 -1.0999 -0.9319
17087SOL     OW63319   1.566   5.913   3.769  0.4308  0.6288  0.2888
17087SOL    HW163320   1.649   5.859   3.758  0.3038  0.5309 -0.1876
17087SOL    HW263321   1.570   5.963   3.856  0.0205 -1.0473  1.3022
17088SOL     OW63322   5.170   6.686   2.290  0.3907  0.6515 -0.0168
17088SOL    HW163323   5.190   6.655   2.197 -1.4683  0.5561 -0.4039
17088SOL    HW263324   5.212   6.624   2.356 -0.7088 -0.9530 -0.8010
17089SOL     OW63325   4.733   1.243   6.594 -0.1422 -0.2761 -0.7812
17089SOL    HW163326   4.731   1.268   6.691  0.3344  2.3576 -1.4285
17089SOL    HW263327   4.820   1.198   6.573 -0.0460 -0.4145 -0.0948
17090SOL     OW63328   0.238   4.073   3.036 -0.6384  0.1865  0.5370
17090SOL    HW163329   0.259   4.168   3.057  0.3609 -0.2401  1.5625
17090SOL    HW263330   0.323   4.022   3.024 -1.1101 -0.9921  1.9748
17091SOL     OW63331   9.030   7.625   0.458 -0.0239 -0.4425  0.6096
17091SOL    HW163332   8.975   7.594   0.380  0.4710 -0.9728  0.4721
17091SOL    HW263333   9.105   7.562   0.473  1.1304  0.8147  0.1851
17092SOL     OW63334   3.457   4.767   3.591 -0.3212 -0.5082  0.0150
17092SOL    HW163335   3.501   4.683   3.621 -1.2222 -0.9796  0.0364
17092SOL    HW263336   3.436   4.761   3.493  0.4949  0.0915 -0.2082
17093SOL     OW63337   0.383   2.759   7.033 -0.4905  0.3071  0.0730
17093SOL    HW163338   0.417   2.665   7.039  0.7186  0.5854 -2.0439
17093SOL    HW263339   0.459   2.822   7.017 -1.4122  1.5585  0.4391
17094SOL     OW63340   0.852   9.719   1.000  0.3099  0.0133 -0.2264
17094SOL    HW163341   0.811   9.786   0.938 -0.2871  0.0780  0.2383
17094SOL    HW263342   0.951   9.729   0.998  0.2212  0.9510 -0.1159
17095SOL     OW63343   3.448   5.448   9.828  0.4268 -0.2811  0.0816
17095SOL    HW163344   3.400   5.510   9.890 -0.8216  0.0443 -1.1879
17095SOL    HW263345   3.414   5.355   9.841 -1.1606  0.0742 -1.3794
17096SOL     OW63346   1.685   8.740   7.456  0.8482 -0.4699  0.0341
17096SOL    HW163347   1.606   8.689   7.424 -0.0799 -0.0520  1.5766
17096SOL    HW263348   1.737   8.774   7.378 -0.9724 -0.0263 -1.0164
17097SOL     OW63349   3.038   8.675   3.705  0.3912 -0.4220 -0.7140
17097SOL    HW163350   3.086   8.758   3.734 -1.6389  0.4837  0.1618
17097SOL    HW263351   2.962   8.700   3.646  0.5161 -1.7847 -1.4802
17098SOL     OW63352   9.972   4.592   8.615  0.6430  0.3716 -0.0545
17098SOL    HW163353   9.910   4.601   8.692  0.1533  0.9899 -0.5242
17098SOL    HW263354   9.923   4.552   8.537  1.2587 -0.7281  0.0987
17099SOL     OW63355   2.330   4.584   2.806  0.1596  0.5160 -0.2544
17099SOL    HW163356   2.350   4.648   2.731  1.9915 -0.0243 -0.2490
17099SOL    HW263357   2.354   4.491   2.779  1.2822  0.3722  1.1610
17100SOL     OW63358   9.386   3.296   8.100  0.4487 -0.0557 -0.0487
17100SOL    HW163359   9.379   3.396   8.101 -1.2737 -0.1435 -0.6401
17100SOL    HW263360   9.451   3.267   8.030 -1.9171  0.5478 -2.5685
17101SOL     OW63361   8.740   0.154   7.097 -0.1234  0.1073  0.0746
17101SOL    HW163362   8.725   0.194   7.188 -1.3296 -1.5806  0.6450
17101SOL    HW263363   8.651   0.133   7.056  0.4663 -0.4425 -0.9137
17102SOL     OW63364   2.852   9.094   7.694  0.0050 -0.3651  0.2359
17102SOL    HW163365   2.871   9.188   7.724  0.8817  0.1382 -1.7805
17102SOL    HW263366   2.907   9.074   7.612 -2.2283 -1.6882 -0.9866
17103SOL     OW63367   8.567   8.340   9.645  0.1203  0.1840  0.3239
17103SOL    HW163368   8.469   8.341   9.664  0.1073 -0.6599  0.2945
17103SOL    HW263369   8.590   8.415   9.583 -0.7673 -0.6067 -0.9745
17104SOL     OW63370   6.876   5.559   9.613  0.4686  0.7855 -0.3329
17104SOL    HW163371   6.962   5.589   9.573  1.7820 -2.1552  0.1917
17104SOL    HW263372   6.807   5.549   9.541  0.2717  3.8496 -0.6615
17105SOL     OW63373   1.226   7.971   6.577  0.1339 -0.6884 -0.0197
17105SOL    HW163374   1.288   7.920   6.518  0.6662  0.0578 -0.1155
17105SOL    HW263375   1.248   8.068   6.572 -0.9510 -0.4317  0.0567
17106SOL     OW63376   4.323   1.436   1.593 -0.6987 -0.2885  1.0148
17106SOL    HW163377   4.371   1.484   1.519 -0.3513  0.9883  2.0349
17106SOL    HW263378   4.286   1.350   1.559 -0.9116  0.4792 -0.7549
17107SOL     OW63379   2.123   8.821   9.023 -0.0921  0.1079  0.4629
17107SOL    HW163380   2.026   8.810   9.046 -0.1534 -2.8327 -1.0016
17107SOL    HW263381   2.178   8.758   9.078  0.8723  0.9155  0.4378
17108SOL     OW63382   6.201   3.785   2.614 -0.4579 -0.0836  0.0022
17108SOL    HW163383   6.286   3.790   2.563 -0.8699 -2.4591 -0.9611
17108SOL    HW263384   6.123   3.782   2.551 -1.2312  1.2014  0.8556
17109SOL     OW63385   3.840   1.442   6.861  0.0317  0.3444 -0.6609
17109SOL    HW163386   3.758   1.413   6.911  0.0544  0.3217 -0.6365
17109SOL    HW263387   3.826   1.534   6.825 -1.0862 -0.7269 -3.0497
17110SOL     OW63388   0.901   3.997   5.869 -0.1983  0.7014  0.0523
17110SOL    HW163389   0.804   4.003   5.895 -0.1866  1.4716 -0.0614
17110SOL    HW263390   0.953   3.955   5.943 -0.6745 -0.0478 -0.0290
17111SOL     OW63391   7.549   0.785   4.084 -0.5669  0.5039 -0.0686
17111SOL    HW163392   7.457   0.751   4.103 -0.2223 -0.3818 -0.0042
17111SOL    HW263393   7.588   0.824   4.168 -0.4295 -0.1834  0.1889
17112SOL     OW63394   8.080   7.754   5.470 -0.6494 -0.3886 -0.1830
17112SOL    HW163395   7.996   7.808   5.463 -1.4208 -1.7266 -1.7212
17112SOL    HW263396   8.057   7.661   5.499  0.4515 -0.4434  0.5516
17113SOL     OW63397   9.091   2.331   4.148 -0.3033  1.1726  0.6179
17113SOL    HW163398   9.050   2.366   4.064 -0.3267 -0.1210  0.0857
17113SOL    HW263399   9.190   2.332   4.140 -0.3044 -3.1185 -1.2094
17114SOL     OW63400   1.283   4.526   2.404 -0.0355  0.1424 -0.7272
17114SOL    HW163401   1.186   4.551   2.408  0.0087  0.3451 -0.8824
17114SOL    HW263402   1.306   4.496   2.311 -0.3907 -1.7518 -0.2277
17115SOL     OW63403   4.512   2.994   6.059  0.8606 -0.1745  0.0600
17115SOL    HW163404   4.539   2.917   6.117  0.0979 -0.8931 -0.5309
17115SOL    HW263405   4.418   2.981   6.029  0.6925  1.0497  0.0437
17116SOL     OW63406   3.029   8.842   0.398  0.2248  0.3021  0.0196
17116SOL    HW163407   3.092   8.814   0.326  0.6389  1.5565 -0.1202
17116SOL    HW263408   3.016   8.942   0.395 -0.0864  0.3222  1.4008
17117SOL     OW63409   2.675   3.106   7.912  0.2295 -0.3946  0.0768
17117SOL    HW163410   2.584   3.069   7.934  0.5186 -0.5915  0.9579
17117SOL    HW263411   2.745   3.052   7.958  0.8093 -0.2894 -0.6660
17118SOL     OW63412   8.429   1.881   3.855  0.7650  0.0710  0.6355
17118SOL    HW163413   8.408   1.786   3.878 -0.4177  0.1613 -0.0621
17118SOL    HW263414   8.466   1.927   3.936 -1.8783 -0.0420  1.9699
17119SOL     OW63415   0.554   0.257   9.604 -0.2227  0.3883 -0.6657
17119SOL    HW163416   0.512   0.230   9.517  1.9615  0.7978 -1.8921
17119SOL    HW263417   0.482   0.280   9.670 -1.9727 -2.2114 -1.5824
17120SOL     OW63418   3.433   8.324   8.314  0.5760  0.0588 -0.6635
17120SOL    HW163419   3.501   8.386   8.275 -0.8239  3.1593  1.6211
17120SOL    HW263420   3.367   8.298   8.243  1.5879  0.6038 -1.8228
17121SOL     OW63421   2.412   1.936   0.152 -0.4428  0.0789  0.6827
17121SOL    HW163422   2.474   1.882   0.096  0.0672  1.2756  0.0723
17121SOL    HW263423   2.436   1.925   0.248  0.3946  0.1382  0.4843
17122SOL     OW63424   9.611   4.680   3.795  0.2579 -0.1537  0.4683
17122SOL    HW163425   9.545   4.692   3.869 -0.4498 -0.4628 -0.1119
17122SOL    HW263426   9.604   4.757   3.731  1.1351  0.3123  0.9179
17123SOL     OW63427   0.949   0.150   1.458  0.5248 -0.3259  0.2622
17123SOL    HW163428   0.983   0.058   1.479 -0.9443 -0.6951  1.1048
17123SOL    HW263429   0.854   0.144   1.426  1.1484  0.6987 -1.8929
17124SOL     OW63430   2.042   9.255   9.467  0.0340  0.3724  0.1329
17124SOL    HW163431   1.992   9.239   9.382  1.3915 -1.3501 -0.3846
17124SOL    HW263432   2.091   9.342   9.462  1.6009 -0.5738 -1.6192
17125SOL     OW63433   2.803   2.934   4.152  0.0360  0.0387 -0.3022
17125SOL    HW163434   2.899   2.910   4.166  0.0363  0.3483  0.2292
17125SOL    HW263435   2.758   2.946   4.240 -0.0627  1.6187 -0.5436
17126SOL     OW63436   8.705   6.257   5.970 -0.2359  0.8952 -0.6791
17126SOL    HW163437   8.668   6.170   5.939 -0.0876  0.7403 -0.4229
17126SOL    HW263438   8.805   6.252   5.972 -0.2575  0.8044  0.1256
17127SOL     OW63439   8.534   0.763   8.689 -0.2529  0.0348  0.3355
17127SOL    HW163440   8.558   0.824   8.614  1.8750 -0.6744  0.3887
17127SOL    HW263441   8.442   0.726   8.675  0.2351 -0.3092 -2.0687
17128SOL     OW63442   7.551   8.063   3.124 -0.2647  0.5274 -0.4591
17128SOL    HW163443   7.594   8.119   3.053 -0.4797  0.3610 -0.7253
17128SOL    HW263444   7.525   8.120   3.201  0.2726  0.6573 -0.3726
17129SOL     OW63445   6.765   2.711   5.068  0.3021  0.4667 -0.0195
17129SOL    HW163446   6.787   2.797   5.113  1.1333  0.5239 -0.5251
17129SOL    HW263447   6.812   2.706   4.979  0.1906 -0.4598 -0.0366
17130SOL     OW63448   0.121   3.625   4.357 -0.2548 -0.1835  0.1440
17130SOL    HW163449   0.045   3.567   4.385 -0.2686  0.5581  1.6884
17130SOL    HW263450   0.207   3.577   4.372 -0.2716  0.1448  1.3133
17131SOL     OW63451   5.100   2.605   5.737 -0.4979  0.1676  0.1249
17131SOL    HW163452   5.038   2.651   5.675  0.4029 -1.7472 -2.2971
17131SOL    HW263453   5.051   2.532   5.785 -0.6469  0.1423 -0.0661
17132SOL     OW63454   2.549   8.741   0.102  0.3047 -0.1999  0.8267
17132SOL    HW163455   2.467   8.726   0.047  1.2527 -0.3064 -0.5819
17132SOL    HW263456   2.531   8.811   0.171 -0.7888  0.1840  0.1571
17133SOL     OW63457   2.171   2.463   4.764  0.1512  0.0336  0.3487
17133SOL    HW163458   2.243   2.427   4.823 -0.4121 -0.0045  1.0164
17133SOL    HW263459   2.090   2.405   4.771  0.1794 -0.1308 -0.6800
17134SOL     OW63460   4.542   5.115   0.141 -0.3131  0.2904  0.3841
17134SOL    HW163461   4.609   5.135   0.069 -1.0271  1.0518 -0.0867
17134SOL    HW263462   4.495   5.030   0.119  0.3075 -0.1003  0.5713
17135SOL     OW63463   9.581   2.959   2.288  0.0475  0.0248 -0.3093
17135SOL    HW163464   9.505   2.975   2.351 -0.7041  0.7171 -1.3705
17135SOL    HW263465   9.659   2.922   2.338 -1.1175 -1.0440  0.7254
17136SOL     OW63466   6.769   0.276   2.226  0.6024 -0.0754 -0.2668
17136SOL    HW163467   6.860   0.256   2.261  0.3559 -1.6607 -0.5048
17136SOL    HW263468   6.700   0.234   2.285  0.1119 -0.9037 -1.4034
17137SOL     OW63469   3.334   6.791   6.069  0.0343 -0.3911  0.6802
17137SOL    HW163470   3.395   6.868   6.055  0.8933 -1.0136  0.9519
17137SOL    HW263471   3.262   6.792   6.000  0.8964 -0.1777 -0.2201
17138SOL     OW63472   0.700   2.451   5.217 -0.0382 -0.1822  0.0287
17138SOL    HW163473   0.753   2.378   5.175  1.1728  0.0993  1.0181
17138SOL    HW263474   0.762   2.523   5.249 -1.0053  0.1077  1.2940
17139SOL     OW63475   8.224   6.980   7.141 -0.4529  0.2785 -0.5889
17139SOL    HW163476   8.299   6.997   7.206  0.3483  1.3988 -1.7704
17139SOL    HW263477   8.246   6.900   7.085 -1.4821 -1.1435  0.9721
17140SOL     OW63478   9.248   6.389   3.790 -0.4505 -0.0064 -0.4396
17140SOL    HW163479   9.341   6.353   3.793  0.1818  1.3947 -2.6322
17140SOL    HW263480   9.200   6.352   3.711 -0.8986  1.3123 -0.7957
17141SOL     OW63481   3.555   9.912   2.470 -0.0212 -0.1814 -0.2066
17141SOL    HW163482   3.523   9.835   2.415 -1.0926  0.7135 -0.8709
17141SOL    HW263483   3.482   9.942   2.532 -0.0400  1.0429 -0.7951
17142SOL     OW63484   2.581   3.152   7.344 -0.9187 -0.1530  0.7244
17142SOL    HW163485   2.550   3.080   7.282 -0.3957 -1.1270  1.5872
17142SOL    HW263486   2.651   3.116   7.406 -0.9965  0.9643  1.4822
17143SOL     OW63487   4.756   9.089   4.809 -0.8229  0.1094  0.0495
17143SOL    HW163488   4.726   9.023   4.878  0.4867  0.3933  0.9109
17143SOL    HW263489   4.794   9.170   4.854 -0.4365  0.5256 -1.0000
17144SOL     OW63490   3.672   9.222   7.877 -0.0719 -0.3018 -0.2457
17144SOL    HW163491   3.702   9.283   7.950 -0.0335 -0.8688  0.2148
17144SOL    HW263492   3.751   9.192   7.824 -0.0784 -0.0430 -0.4047
17145SOL     OW63493   1.263   7.096   8.342 -0.1149 -0.0786  0.6155
17145SOL    HW163494   1.342   7.035   8.344  1.2975  1.6409 -1.2497
17145SOL    HW263495   1.232   7.112   8.436  1.6096 -0.9203  1.3602
17146SOL     OW63496   2.103   2.081   9.451 -0.1605  0.4637 -0.4409
17146SOL    HW163497   2.133   2.027   9.529  0.7001  1.7646  0.1489
17146SOL    HW263498   2.086   2.175   9.480 -2.1800  0.3952 -1.3365
17147SOL     OW63499   9.394   0.096   5.284 -0.2105  0.0971 -0.4358
17147SOL    HW163500   9.368  -0.001   5.285 -0.2174  0.1034  0.9946
17147SOL    HW263501   9.402   0.127   5.189  0.4705 -1.4841 -0.9194
17148SOL     OW63502   1.095   2.291   2.757  0.7400 -0.5015 -0.1151
17148SOL    HW163503   1.150   2.291   2.840 -1.3038 -0.0025  1.2775
17148SOL    HW263504   1.002   2.259   2.778 -1.0128  3.4544 -1.3553
17149SOL     OW63505   2.797   8.294   5.977  0.6413  0.5984  0.4007
17149SOL    HW163506   2.786   8.234   5.898  1.0743 -0.2848  1.0090
17149SOL    HW263507   2.881   8.270   6.027  0.7827  1.6564  0.6900
17150SOL     OW63508   5.249   8.279   3.519 -0.1953  0.3636  0.2207
17150SOL    HW163509   5.158   8.319   3.506 -1.0866 -1.4312  0.8631
17150SOL    HW263510   5.244   8.180   3.509  2.0379  0.3852 -1.5833
17151SOL     OW63511   3.402   5.197   7.238 -0.0742 -0.3575  0.5539
17151SOL    HW163512   3.420   5.110   7.285 -2.2190 -0.3235  1.4921
17151SOL    HW263513   3.320   5.188   7.181  1.5127  0.1302 -1.8780
17152SOL     OW63514   7.437   8.161   8.109 -0.1379 -0.1745 -0.0464
17152SOL    HW163515   7.428   8.207   8.020 -0.6543  0.2604  0.2271
17152SOL    HW263516   7.381   8.079   8.110  1.4140 -1.2691 -0.8301
17153SOL     OW63517   2.807   5.496   7.865 -0.4618  0.4844  0.1582
17153SOL    HW163518   2.889   5.489   7.808 -1.1684  0.7878 -0.9278
17153SOL    HW263519   2.816   5.438   7.945  0.2651 -0.5312 -0.6485
17154SOL     OW63520   0.832   0.869   2.149 -0.1563  0.3396 -0.0095
17154SOL    HW163521   0.904   0.939   2.144 -1.5210  1.7264 -0.5046
17154SOL    HW263522   0.755   0.895   2.091 -1.0035 -1.2065  0.3878
17155SOL     OW63523   3.367   6.602   4.038  0.6864 -0.3661 -0.1918
17155SOL    HW163524   3.356   6.546   3.956  1.7383 -0.4151 -0.3028
17155SOL    HW263525   3.323   6.557   4.116 -2.7925  1.0048 -1.2733
17156SOL     OW63526   4.843   0.557   6.457 -0.0590 -0.8215 -0.2061
17156SOL    HW163527   4.867   0.654   6.452 -1.2937 -0.4703  0.4180
17156SOL    HW263528   4.926   0.503   6.472  0.5515  0.1890  0.1378
17157SOL     OW63529   6.422   4.601   7.920  0.5693  0.0743 -0.2846
17157SOL    HW163530   6.446   4.666   7.993  1.4228  1.9709 -2.2047
17157SOL    HW263531   6.506   4.563   7.881  0.1136 -0.8541 -0.3568
17158SOL     OW63532   1.849   9.014   7.612  0.2312  0.0642 -0.7050
17158SOL    HW163533   1.825   9.074   7.536 -2.2140 -1.3573 -1.1240
17158SOL    HW263534   1.924   8.954   7.585  1.1306  1.3471 -1.0777
17159SOL     OW63535   7.463   7.276   7.161 -0.1103 -0.2535 -0.1453
17159SOL    HW163536   7.559   7.278   7.187 -0.1732  0.5813  0.0490
17159SOL    HW263537   7.417   7.200   7.207  0.3227 -0.2954  0.2190
17160SOL     OW63538   6.443   9.623   5.457 -1.3079 -0.1405  0.1907
17160SOL    HW163539   6.433   9.552   5.386  2.4028  0.4709 -1.0781
17160SOL    HW263540   6.401   9.708   5.425  1.2054  0.4219 -1.8530
17161SOL     OW63541   6.634   2.130   1.463 -0.4942  0.3069 -0.5869
17161SOL    HW163542   6.617   2.226   1.481 -0.8219  0.6322 -2.5845
17161SOL    HW263543   6.548   2.079   1.465 -0.6750  0.5156 -2.1238
17162SOL     OW63544   2.223   8.859   2.057  0.0924 -0.2212 -0.2783
17162SOL    HW163545   2.131   8.892   2.078  0.1175 -0.8870  0.9255
17162SOL    HW263546   2.270   8.835   2.142  1.0694 -0.7054 -0.9431
17163SOL     OW63547   9.617   0.988   9.265  0.2561  0.0265  0.6625
17163SOL    HW163548   9.559   0.927   9.211 -0.9322  0.1606  1.7350
17163SOL    HW263549   9.684   0.935   9.316 -0.4921 -0.3613  1.2567
17164SOL     OW63550   3.044   4.851   9.205 -0.3309 -0.0240 -0.2533
17164SOL    HW163551   3.143   4.857   9.214 -0.3502  1.3956 -0.7515
17164SOL    HW263552   3.000   4.903   9.279 -0.6429  1.8182 -1.6999
17165SOL     OW63553   8.949   4.010   2.593 -0.0377 -0.6352  0.1447
17165SOL    HW163554   8.860   4.011   2.640 -0.0842  2.6564  0.0675
17165SOL    HW263555   8.995   3.923   2.612 -1.4310 -0.6926  3.7188
17166SOL     OW63556   0.425   4.812   5.358  0.2645  0.0254  0.2052
17166SOL    HW163557   0.383   4.752   5.290 -2.9232  0.6307  1.5348
17166SOL    HW263558   0.448   4.900   5.316 -3.2283  1.0157  0.1884
17167SOL     OW63559   1.289   5.560   9.124 -0.2252 -0.0342 -0.6854
17167SOL    HW163560   1.375   5.552   9.073 -0.2195  0.7411 -0.8014
17167SOL    HW263561   1.219   5.503   9.080  0.1151 -0.3415 -0.8349
17168SOL     OW63562   8.386   5.100   9.539 -0.1328  0.2713 -0.2318
17168SOL    HW163563   8.389   5.185   9.592 -0.6077 -0.3391  0.7882
17168SOL    HW263564   8.324   5.111   9.462 -1.4822  0.3369  0.8348
17169SOL     OW63565   9.696   8.884   4.732  0.0505  0.0103  0.2400
17169SOL    HW163566   9.667   8.788   4.733 -0.4892  0.1430 -1.1987
17169SOL    HW263567   9.657   8.931   4.811 -0.9353 -0.6130  0.1414
17170SOL     OW63568   6.293   0.693   5.582 -0.7147  0.0574  0.0732
17170SOL    HW163569   6.369   0.665   5.640 -1.3903  0.6541  1.2698
17170SOL    HW263570   6.272   0.790   5.598 -0.6853  0.3272 -1.4270
17171SOL     OW63571   1.128   1.278   8.598  0.1512 -0.2181 -0.1592
17171SOL    HW163572   1.170   1.265   8.688 -2.5400 -1.4778  0.9573
17171SOL    HW263573   1.033   1.247   8.601 -0.4410  1.2066 -3.0198
17172SOL     OW63574   8.727   6.611   2.339 -0.0466 -0.0555  0.6054
17172SOL    HW163575   8.779   6.602   2.424 -0.6736  2.0561  1.2384
17172SOL    HW263576   8.730   6.524   2.289  1.8050 -0.7913  1.9210
17173SOL     OW63577   4.946   4.466   7.205  0.0813 -0.5141 -0.5707
17173SOL    HW163578   5.000   4.463   7.121 -1.0056  0.8411 -1.3344
17173SOL    HW263579   4.867   4.405   7.197  1.3953 -2.4346  0.5163
17174SOL     OW63580   9.853   7.495   6.659 -0.1155  0.0973 -0.1541
17174SOL    HW163581   9.812   7.516   6.571 -0.4964  0.0853  0.0177
17174SOL    HW263582   9.781   7.470   6.724  0.0256  1.4617  0.5382
17175SOL     OW63583   2.144   4.696   0.026  0.5383 -0.6879 -0.2307
17175SOL    HW163584   2.205   4.715  -0.051  1.5310 -2.2974  0.1518
17175SOL    HW263585   2.169   4.609   0.069 -2.4807 -1.7776 -0.5264
17176SOL     OW63586   3.282   3.273   3.800  0.7406 -0.3605 -0.4533
17176SOL    HW163587   3.316   3.209   3.869  0.3323 -1.5725 -1.3549
17176SOL    HW263588   3.351   3.286   3.729  1.1679  0.8990  0.1834
17177SOL     OW63589   3.585   9.412   5.068 -0.0976  0.2516  0.3763
17177SOL    HW163590   3.606   9.503   5.103 -1.3623  0.2703  1.1559
17177SOL    HW263591   3.486   9.405   5.052  0.2796 -0.2547 -1.8348
17178SOL     OW63592   6.553   5.061   1.709  0.2502 -0.3643 -0.0886
17178SOL    HW163593   6.552   5.143   1.653 -1.1851 -1.1685 -1.2964
17178SOL    HW263594   6.555   5.086   1.806 -1.0795  1.1034 -0.4228
17179SOL     OW63595   9.150   2.422   2.877  0.2848  0.2703 -0.1634
17179SOL    HW163596   9.167   2.447   2.782 -0.1404 -2.7639 -1.0789
17179SOL    HW263597   9.196   2.336   2.898 -1.2619 -0.1146  1.7977
17180SOL     OW63598   2.840   9.736   9.326 -0.5661  0.4577  0.3682
17180SOL    HW163599   2.846   9.829   9.290  1.3699  0.9035  1.7607
17180SOL    HW263600   2.778   9.734   9.405 -1.3954  0.3461 -0.2757
17181SOL     OW63601   3.674   1.606   5.126  0.6590  0.3667  0.5026
17181SOL    HW163602   3.699   1.515   5.160 -0.0559 -0.2713 -0.6409
17181SOL    HW263603   3.574   1.614   5.124  0.7218  1.0601  0.2942
17182SOL     OW63604   9.720   6.439   1.105  0.0813  0.1948 -0.0816
17182SOL    HW163605   9.646   6.493   1.144 -1.0548 -1.3612 -0.0199
17182SOL    HW263606   9.768   6.390   1.178 -0.0121 -0.2371 -0.3033
17183SOL     OW63607   1.655   9.101   7.202  0.1288  0.5211  0.3400
17183SOL    HW163608   1.687   9.130   7.292 -0.2185  0.5100  0.4710
17183SOL    HW263609   1.687   9.008   7.183  4.3208  2.2249 -1.6089
17184SOL     OW63610   4.761   8.459   6.338 -0.1261  0.5147  0.3226
17184SOL    HW163611   4.735   8.370   6.376  1.6231  0.2313  0.9329
17184SOL    HW263612   4.754   8.455   6.238 -0.2490 -0.2528  0.3546
17185SOL     OW63613   4.262   9.410   2.838 -0.3482 -0.5102  0.0889
17185SOL    HW163614   4.336   9.474   2.816 -1.2687  0.7568  0.6100
17185SOL    HW263615   4.270   9.382   2.934 -0.5894 -0.2898  0.1763
17186SOL     OW63616   6.282   5.438   1.656  0.0506  0.6065  0.1372
17186SOL    HW163617   6.313   5.417   1.749  0.1335 -0.7060 -0.1845
17186SOL    HW263618   6.342   5.507   1.616  1.6053 -0.7174  0.1187
17187SOL     OW63619   3.806   7.909   1.816 -0.2098  0.3354 -0.1850
17187SOL    HW163620   3.849   7.892   1.905  0.6915  1.6232 -0.3555
17187SOL    HW263621   3.724   7.854   1.808 -0.5419  0.5286  1.6382
17188SOL     OW63622   9.307   7.058   5.865  0.5795 -0.1009  0.3427
17188SOL    HW163623   9.359   7.135   5.903  0.9467 -0.6928  1.0616
17188SOL    HW263624   9.257   7.088   5.784  1.4432  0.6694  0.0855
17189SOL     OW63625   3.386   7.890  10.058  0.2195  0.5186 -0.2944
17189SOL    HW163626   3.460   7.859   9.998 -1.0164 -1.2341 -0.9461
17189SOL    HW263627   3.419   7.890  10.153  1.7301  1.9247 -0.7894
17190SOL     OW63628   2.745   1.035   1.151  0.2954  0.3672  0.1167
17190SOL    HW163629   2.656   1.071   1.179  0.0280 -0.1245 -0.1039
17190SOL    HW263630   2.754   0.941   1.181  0.1057 -0.0902 -1.2217
17191SOL     OW63631   8.780   6.322   0.658 -0.2239  0.1784 -0.6352
17191SOL    HW163632   8.682   6.336   0.672  0.0657  2.5244 -0.7117
17191SOL    HW263633   8.796   6.230   0.623 -2.4059 -0.1877 -0.7409
17192SOL     OW63634   8.732   9.362   8.986 -0.0048 -0.1314  0.4921
17192SOL    HW163635   8.690   9.315   9.064  2.3198  1.0531  2.4990
17192SOL    HW263636   8.824   9.327   8.971 -0.5064 -0.5332 -1.9529
17193SOL     OW63637   9.231   1.703   7.460  0.0534  0.0782 -0.1516
17193SOL    HW163638   9.301   1.760   7.417  0.5863  0.9600  1.7964
17193SOL    HW263639   9.264   1.609   7.469  0.1846  0.0359 -1.0532
17194SOL     OW63640   2.921   0.658   2.360  0.0640 -0.3240  0.6036
17194SOL    HW163641   2.919   0.752   2.325  1.3972  0.0262  1.4695
17194SOL    HW263642   2.856   0.649   2.436 -0.1320 -0.1359  0.4593
17195SOL     OW63643   3.979   0.385   8.035  0.1620  0.1335 -0.5068
17195SOL    HW163644   3.919   0.444   7.981  0.3524  1.3151  0.5732
17195SOL    HW263645   4.074   0.414   8.023  0.2782 -0.1057 -0.1602
17196SOL     OW63646   4.096   9.733   6.472  0.0621  0.2422  0.2381
17196SOL    HW163647   4.024   9.781   6.522  1.3092  0.1532  2.2062
17196SOL    HW263648   4.075   9.635   6.469  0.0976  0.2153  0.8172
17197SOL     OW63649   2.358   7.184   3.900 -0.2027  0.4781 -0.0480
17197SOL    HW163650   2.300   7.156   3.976  1.5908  2.0250  1.9630
17197SOL    HW263651   2.404   7.104   3.862 -2.4503 -0.5448 -0.6646
17198SOL     OW63652   5.115   8.608   3.615 -0.2008  0.3562  0.0650
17198SOL    HW163653   5.085   8.519   3.581 -0.5722 -0.0568  1.4641
17198SOL    HW263654   5.211   8.602   3.643 -0.6950 -0.0602  1.7195
17199SOL     OW63655   4.872   5.449   9.859 -0.1732 -1.1017 -0.2315
17199SOL    HW163656   4.925   5.463   9.775  0.5132  0.0255  0.3749
17199SOL    HW263657   4.776   5.436   9.836 -0.2233  0.6712 -1.1077
17200SOL     OW63658   9.901   7.624   1.651  0.6184 -0.5942  0.1436
17200SOL    HW163659   9.947   7.568   1.719 -0.4550 -1.8842 -0.1686
17200SOL    HW263660   9.815   7.580   1.624 -1.6084  2.4817  1.8807
17201SOL     OW63661   5.586   0.629   6.095 -0.1507 -0.3063  0.5875
17201SOL    HW163662   5.650   0.706   6.091  0.3363 -0.7344  0.0963
17201SOL    HW263663   5.635   0.544   6.079 -0.5319 -0.8208  2.1130
17202SOL     OW63664   8.432   3.952   9.169  0.0322 -0.2520  0.2548
17202SOL    HW163665   8.388   3.866   9.143  0.3899 -0.3000 -0.2018
17202SOL    HW263666   8.386   4.029   9.125 -0.7297 -0.1474  1.2214
17203SOL     OW63667   3.835   1.102   0.837  0.5637  0.5203  0.5187
17203SOL    HW163668   3.881   1.142   0.758  0.3776  1.7135  1.0015
17203SOL    HW263669   3.764   1.039   0.806  1.9527 -0.6814 -0.2363
17204SOL     OW63670   3.261   6.286   4.787 -0.1245 -0.1602  0.2274
17204SOL    HW163671   3.299   6.374   4.816  0.6986 -0.6574  0.6940
17204SOL    HW263672   3.222   6.239   4.866  0.6533 -0.7995  0.2405
17205SOL     OW63673   2.505   2.645   0.975 -0.7172  0.1022  0.4908
17205SOL    HW163674   2.465   2.674   0.888 -0.4301  0.7070  0.5592
17205SOL    HW263675   2.589   2.698   0.992  0.4794 -1.5886  0.0244
17206SOL     OW63676   6.794   8.271   6.434  0.7333  0.9971 -0.6041
17206SOL    HW163677   6.806   8.316   6.346 -1.2988 -0.3731 -1.6010
17206SOL    HW263678   6.820   8.175   6.427  2.1877  1.2628  0.7572
17207SOL     OW63679   3.403   0.798   0.997 -0.0976  0.3176 -0.2911
17207SOL    HW163680   3.482   0.857   1.015  1.0781 -1.3093  0.0795
17207SOL    HW263681   3.342   0.800   1.076  0.3575  0.4223  0.0658
17208SOL     OW63682   1.439   7.459   9.104 -0.0316  0.4855 -0.6044
17208SOL    HW163683   1.477   7.545   9.140 -0.4651  1.3949 -2.2653
17208SOL    HW263684   1.511   7.410   9.054  0.7044 -1.0120  1.8185
17209SOL     OW63685   4.617   6.858   2.970  0.5155  0.4434  0.2161
17209SOL    HW163686   4.556   6.863   3.048 -1.4889 -0.1182 -1.2773
17209SOL    HW263687   4.689   6.927   2.980 -1.0380  1.9394  1.4396
17210SOL     OW63688   9.357   0.127   3.467 -0.1988  0.6512 -0.8119
17210SOL    HW163689   9.334   0.169   3.554 -0.0019 -1.1675  0.1461
17210SOL    HW263690   9.452   0.096   3.469 -0.4898 -0.2913 -1.3076
17211SOL     OW63691   2.417   3.704   6.939  0.3030 -1.0144 -0.1171
17211SOL    HW163692   2.440   3.669   6.848  0.9690  0.9308 -0.7124
17211SOL    HW263693   2.423   3.804   6.939  1.2007 -1.0391  2.3080
17212SOL     OW63694   1.927   7.013   2.142 -0.4482  0.1693  0.1424
17212SOL    HW163695   1.925   7.093   2.202 -0.8713  1.4474 -1.5230
17212SOL    HW263696   1.982   6.941   2.184  0.8487  1.7266  1.1709
17213SOL     OW63697   3.238   6.317   0.553 -0.2133 -0.3330 -0.2719
17213SOL    HW163698   3.171   6.390   0.540 -1.9327 -1.9572 -0.8298
17213SOL    HW263699   3.265   6.313   0.650 -1.5222 -0.1516  0.1129
17214SOL     OW63700   3.581   0.062   9.753  0.3022 -0.1660 -0.2866
17214SOL    HW163701   3.659   0.007   9.783  0.4042 -0.0670 -0.3699
17214SOL    HW263702   3.557   0.036   9.659  0.1471 -0.2944 -0.2123
17215SOL     OW63703   0.137   6.935   0.592 -0.5260 -0.0483 -0.0937
17215SOL    HW163704   0.118   7.027   0.559  0.2502  0.4019  0.7058
17215SOL    HW263705   0.210   6.938   0.660 -0.4923 -1.2545 -0.0649
17216SOL     OW63706   4.393   4.480   1.892  0.4147 -0.3703  0.7425
17216SOL    HW163707   4.473   4.433   1.854  1.6832  0.6922  2.0639
17216SOL    HW263708   4.349   4.533   1.819  1.5784 -0.0590  0.2490
17217SOL     OW63709   9.938   3.743   1.358 -0.4436 -0.1894  0.4697
17217SOL    HW163710   9.971   3.650   1.344 -0.8569 -0.1686 -0.7207
17217SOL    HW263711   9.901   3.751   1.451  0.3488 -0.9718  0.8664
17218SOL     OW63712   0.737   5.291   6.904  0.0196 -0.2882 -0.0239
17218SOL    HW163713   0.670   5.257   6.970 -1.0476 -0.0501 -0.9618
17218SOL    HW263714   0.796   5.359   6.947 -0.3585 -0.4853  0.8049
17219SOL     OW63715   0.884   7.521   4.092  0.4356  0.2920 -0.1108
17219SOL    HW163716   0.899   7.475   4.004  0.4323  1.2482 -0.6171
17219SOL    HW263717   0.787   7.542   4.102  0.4231  0.1002  0.1618
17220SOL     OW63718   0.152   7.971   7.887  0.5698  0.2016 -0.2883
17220SOL    HW163719   0.058   7.986   7.919  1.4116  1.7576  1.5362
17220SOL    HW263720   0.217   8.007   7.954  2.5245 -1.9805 -0.9323
17221SOL     OW63721   9.672   6.083   8.360 -0.1235 -0.1410 -0.2673
17221SOL    HW163722   9.709   6.170   8.391 -2.3769  1.0142 -0.6941
17221SOL    HW263723   9.739   6.037   8.302  1.5646  0.7208  0.9531
17222SOL     OW63724   0.397   0.778   3.156  0.1483  0.2153  0.0557
17222SOL    HW163725   0.496   0.792   3.162 -0.1402  1.6234  2.5492
17222SOL    HW263726   0.377   0.680   3.158  1.4429 -0.0472  0.6670
17223SOL     OW63727   4.570   1.504   0.333  0.2313 -0.2930  0.7359
17223SOL    HW163728   4.478   1.544   0.330 -0.0026 -0.8987 -0.3273
17223SOL    HW263729   4.604   1.492   0.240  1.3979 -0.0728  1.1250
17224SOL     OW63730   9.858   1.797   1.578  0.4298  0.1860 -0.0810
17224SOL    HW163731   9.937   1.764   1.630  2.0230  3.4905 -0.3058
17224SOL    HW263732   9.799   1.851   1.638 -1.8067 -2.3953  0.1287
17225SOL     OW63733   2.307   3.811   9.473 -0.2505  0.0627 -0.0007
17225SOL    HW163734   2.287   3.886   9.410 -2.5906 -1.4514 -1.1439
17225SOL    HW263735   2.277   3.724   9.433  0.7002 -1.2721  2.0572
17226SOL     OW63736   4.968   3.191   1.609 -0.1833  0.5718 -0.6427
17226SOL    HW163737   4.987   3.133   1.687 -1.3543 -0.4344 -1.0906
17226SOL    HW263738   4.877   3.233   1.620  0.3127  1.6789 -0.7041
17227SOL     OW63739   4.697   0.619   7.645 -0.4718 -0.5333 -0.2889
17227SOL    HW163740   4.680   0.632   7.547  0.4834 -0.6046 -0.4758
17227SOL    HW263741   4.628   0.557   7.683 -1.4738  0.3375 -0.6820
17228SOL     OW63742   6.951   6.533   2.302 -0.3550 -0.0580 -0.0262
17228SOL    HW163743   6.966   6.434   2.292  0.1511 -0.0524  0.6277
17228SOL    HW263744   6.862   6.557   2.263  0.1379 -0.5400 -1.4518
17229SOL     OW63745   7.827   8.137   8.890 -0.4092  0.2175  0.0176
17229SOL    HW163746   7.812   8.063   8.956  0.6321 -0.5586 -0.6049
17229SOL    HW263747   7.851   8.098   8.801 -0.2901  1.2944 -0.4250
17230SOL     OW63748   3.154   3.908   7.932 -0.0567  0.0515  0.6004
17230SOL    HW163749   3.143   3.890   7.834 -0.9238 -1.6190  0.9924
17230SOL    HW263750   3.069   3.948   7.967  0.7600  2.0349  0.3915
17231SOL     OW63751   0.245   7.728   8.707 -0.9477  0.6518 -0.1509
17231SOL    HW163752   0.169   7.664   8.721 -2.0234  2.2238  1.3566
17231SOL    HW263753   0.320   7.705   8.769 -1.7933  1.5513  1.2139
17232SOL     OW63754   8.001   7.192   2.268  0.0803  0.2422  0.0139
17232SOL    HW163755   7.925   7.216   2.328  0.2229 -0.8178  0.6273
17232SOL    HW263756   8.078   7.157   2.322  0.0786 -1.0683 -0.7981
17233SOL     OW63757   9.103   8.592   2.964  0.9830 -0.3930 -0.3553
17233SOL    HW163758   9.034   8.589   3.037  1.9102  0.7073  0.5729
17233SOL    HW263759   9.057   8.579   2.875 -0.2612 -0.8889  0.3405
17234SOL     OW63760   7.781   1.035   0.800 -0.4136 -0.1392 -0.4464
17234SOL    HW163761   7.767   0.963   0.868 -0.2868 -0.5800 -0.8873
17234SOL    HW263762   7.725   1.016   0.720 -0.6946  0.4739 -0.4000
17235SOL     OW63763   0.271   5.320   6.009  0.0516 -0.0793 -0.1202
17235SOL    HW163764   0.227   5.328   5.919  0.2746  0.1963 -0.2059
17235SOL    HW263765   0.273   5.224   6.037 -2.5975  0.1333  0.8854
17236SOL     OW63766   5.194   1.579   0.606 -0.5094 -0.0720 -0.5517
17236SOL    HW163767   5.149   1.490   0.615 -0.1923 -0.0569  1.4919
17236SOL    HW263768   5.282   1.567   0.559 -0.2696 -0.9137  0.0970
17237SOL     OW63769   8.720   0.982   1.468 -0.7465  0.2158 -0.4558
17237SOL    HW163770   8.777   0.942   1.539 -0.5059  1.7098  0.2030
17237SOL    HW263771   8.751   0.950   1.378 -1.6476 -2.4209  0.1416
17238SOL     OW63772   9.664   8.631   2.163 -0.9013 -0.0971 -0.3489
17238SOL    HW163773   9.680   8.544   2.209  0.8742 -0.0739 -0.8729
17238SOL    HW263774   9.622   8.696   2.226  0.0677 -0.5631  0.7857
17239SOL     OW63775   8.091   6.919   8.251 -0.3990 -0.8156 -0.0803
17239SOL    HW163776   7.991   6.926   8.252 -0.3796  0.0961  3.1183
17239SOL    HW263777   8.118   6.824   8.269 -0.6936 -0.9309 -0.2470
17240SOL     OW63778   2.474   3.511   0.747  0.4049  0.0434 -0.7192
17240SOL    HW163779   2.511   3.487   0.837 -2.9601 -0.9506  0.4630
17240SOL    HW263780   2.453   3.428   0.696  1.2176  0.6055 -1.9878
17241SOL     OW63781   3.591   8.784   3.968  0.7017 -0.2330  0.0626
17241SOL    HW163782   3.494   8.767   3.952  0.8152 -1.2890  0.4281
17241SOL    HW263783   3.602   8.852   4.041  0.2335  0.7467 -0.7702
17242SOL     OW63784   2.250   1.693   7.941 -0.1879  0.3493 -0.1951
17242SOL    HW163785   2.268   1.618   7.877 -1.4644 -0.5925  0.5077
17242SOL    HW263786   2.317   1.766   7.928  0.0620 -0.1878 -2.0412
17243SOL     OW63787   0.446   0.117   3.214 -0.6100 -0.4301 -0.5307
17243SOL    HW163788   0.432   0.141   3.118 -1.8827  1.2296  0.0533
17243SOL    HW263789   0.511   0.181   3.255  0.7299 -1.7521 -0.5131
17244SOL     OW63790   6.094   7.886   3.337  0.3414  0.7148  0.2129
17244SOL    HW163791   6.103   7.972   3.388 -0.1302  0.7580  0.2218
17244SOL    HW263792   6.185   7.855   3.309  0.6550  0.4213  1.5165
17245SOL     OW63793   1.172   1.035   7.848  0.3318  0.1796  0.4781
17245SOL    HW163794   1.201   1.131   7.847 -0.8188  0.5426  1.1716
17245SOL    HW263795   1.073   1.030   7.847  0.3869 -1.0128  0.3361
17246SOL     OW63796   5.697   3.066   0.554 -0.2779 -0.3649 -0.1638
17246SOL    HW163797   5.730   2.975   0.529 -0.4391 -0.5467  0.2667
17246SOL    HW263798   5.597   3.067   0.553 -0.3210 -0.6653  1.3994
17247SOL     OW63799   1.143   4.693   9.809  0.7161  0.4549  0.8800
17247SOL    HW163800   1.215   4.641   9.764 -0.7558  0.4000 -1.4936
17247SOL    HW263801   1.096   4.635   9.875  1.3272 -0.2085  0.7384
17248SOL     OW63802   8.090   4.331   5.373 -0.2557  0.1474  0.1273
17248SOL    HW163803   8.084   4.309   5.276  2.5671 -1.3442  0.2378
17248SOL    HW263804   8.158   4.402   5.388 -0.8867  0.5848  0.9770
17249SOL     OW63805   1.261   0.529   2.666  0.7490  0.3001 -0.0353
17249SOL    HW163806   1.323   0.600   2.699  1.0430  0.5295 -1.0514
17249SOL    HW263807   1.174   0.571   2.639  2.1848  0.8708 -4.1256
17250SOL     OW63808   4.586   0.888   6.093  0.0687  0.8362  0.2290
17250SOL    HW163809   4.590   0.986   6.073 -0.6209  1.3224  2.3353
17250SOL    HW263810   4.624   0.837   6.016 -0.2101  2.7150 -1.1956
17251SOL     OW63811   2.338   2.267   9.530  0.1046  0.0474 -0.3679
17251SOL    HW163812   2.403   2.342   9.521 -1.1205  1.2193  0.2601
17251SOL    HW263813   2.294   2.272   9.620  0.1057 -1.5019 -0.2727
17252SOL     OW63814   9.946   2.414   4.874  0.0226 -0.2104 -0.1404
17252SOL    HW163815  10.013   2.369   4.814  0.3951 -0.3722  0.3955
17252SOL    HW263816   9.875   2.350   4.899  0.5416 -0.4959  0.6066
17253SOL     OW63817   6.825   2.488   0.744  0.1324  0.1596 -0.0539
17253SOL    HW163818   6.793   2.581   0.724  0.6973  0.3863  0.0812
17253SOL    HW263819   6.841   2.479   0.842 -0.8356 -0.3782  0.0648
17254SOL     OW63820   2.416   1.497   3.512  0.1240 -0.6140  0.3856
17254SOL    HW163821   2.423   1.592   3.482  0.8854 -0.1547  1.9656
17254SOL    HW263822   2.341   1.487   3.577 -1.1541 -1.4875 -1.1913
17255SOL     OW63823   2.161   1.526   3.616  0.0769  0.3268  0.3516
17255SOL    HW163824   2.126   1.609   3.659  0.9084  0.9446 -0.1475
17255SOL    HW263825   2.109   1.447   3.649 -1.5866  1.1763 -0.1783
17256SOL     OW63826   4.700   4.296   2.563 -0.1752 -0.3866  0.1645
17256SOL    HW163827   4.745   4.236   2.498  1.0229 -0.2165  0.8118
17256SOL    HW263828   4.601   4.295   2.548  0.0541 -0.6277 -1.4044
17257SOL     OW63829   8.573   5.088   1.212  0.0793 -0.2421  0.3300
17257SOL    HW163830   8.483   5.117   1.243  0.3662  1.0353 -0.0054
17257SOL    HW263831   8.644   5.139   1.261  0.5970 -0.5730 -0.0640
17258SOL     OW63832   2.230   1.625   1.361  0.1176  0.3571  0.1236
17258SOL    HW163833   2.248   1.573   1.445  2.1812  0.7807 -0.0172
17258SOL    HW263834   2.218   1.561   1.285  2.0302  0.0149  0.0647
17259SOL     OW63835   5.835   0.962   6.472  0.1467  0.2747 -0.1534
17259SOL    HW163836   5.804   1.053   6.443 -0.9957 -0.6441 -1.9565
17259SOL    HW263837   5.865   0.965   6.567 -3.5356  1.7363  1.0400
17260SOL     OW63838   6.767   4.656   9.061  0.2980 -0.9625  0.3268
17260SOL    HW163839   6.755   4.754   9.081 -0.2022 -1.3306  1.8547
17260SOL    HW263840   6.864   4.633   9.065  0.3161 -0.7613  1.0303
17261SOL     OW63841   3.490   8.267   9.929 -0.1625  0.0195  0.2874
17261SOL    HW163842   3.513   8.362   9.905  0.5164 -0.0431  0.6629
17261SOL    HW263843   3.466   8.262  10.026 -0.2935 -0.1744  0.2452
17262SOL     OW63844   3.504   7.171   6.384 -0.0471 -0.3615  0.4086
17262SOL    HW163845   3.423   7.142   6.334 -0.2262  0.3174  0.2949
17262SOL    HW263846   3.483   7.178   6.482 -0.1344 -0.1715  0.3773
17263SOL     OW63847   7.524   3.483   8.620 -0.2436 -0.0792  0.2939
17263SOL    HW163848   7.494   3.485   8.524 -0.1744 -0.0254  0.2734
17263SOL    HW263849   7.483   3.559   8.669  3.3333  2.6754 -0.7603
17264SOL     OW63850   0.983   9.500   5.957  0.2053  0.4409 -0.8210
17264SOL    HW163851   0.898   9.517   5.907  1.3302  1.4543 -2.4227
17264SOL    HW263852   1.032   9.586   5.969  2.1517 -0.4803 -2.0204
17265SOL     OW63853   2.286   1.290   7.190  0.1289  0.3089  0.5823
17265SOL    HW163854   2.265   1.229   7.113  2.5546  0.1401  0.0260
17265SOL    HW263855   2.339   1.368   7.157  3.5563 -1.1213  2.4362
17266SOL     OW63856   8.374   6.111   4.471 -0.0659 -0.1183  0.4577
17266SOL    HW163857   8.310   6.074   4.538  1.8544 -1.6322  1.5209
17266SOL    HW263858   8.399   6.204   4.497  0.9717 -0.8309  2.1202
17267SOL     OW63859   2.759   0.890   7.203 -0.6112  0.2205  0.0135
17267SOL    HW163860   2.807   0.857   7.122 -1.5762  1.8871 -1.2828
17267SOL    HW263861   2.825   0.909   7.276  0.2431 -1.4451 -0.3107
17268SOL     OW63862   1.934   8.026   0.932  0.2206 -0.0295  0.0907
17268SOL    HW163863   1.974   7.936   0.915  0.1498 -0.0923  0.2520
17268SOL    HW263864   1.846   8.015   0.977 -0.0063  0.1067 -0.3219
17269SOL     OW63865   8.149   5.255   3.994 -0.5265 -0.0335  0.4802
17269SOL    HW163866   8.159   5.233   3.897 -2.1743 -1.1051  0.5307
17269SOL    HW263867   8.070   5.315   4.007 -1.1995 -1.0750  1.3037
17270SOL     OW63868   7.927   0.397   4.293 -0.0441  0.2979  0.6317
17270SOL    HW163869   7.831   0.417   4.273 -0.1816 -0.1396  0.8656
17270SOL    HW263870   7.937   0.303   4.324  0.6310 -0.0335 -0.5419
17271SOL     OW63871   8.411   9.015   4.548  0.3850  0.4943 -0.1158
17271SOL    HW163872   8.477   9.078   4.589  0.9573 -0.0327 -0.2138
17271SOL    HW263873   8.318   9.045   4.569  0.6564  1.1882  0.1075
17272SOL     OW63874   2.743   7.955   9.090 -0.2520 -0.0849 -0.3067
17272SOL    HW163875   2.833   7.987   9.060  0.5789 -0.5606  1.5942
17272SOL    HW263876   2.672   8.008   9.045  1.0272  1.6020 -0.3758
17273SOL     OW63877   7.238   9.732   7.872  0.1378 -0.7866  0.1941
17273SOL    HW163878   7.218   9.661   7.805 -0.7989 -0.6078  0.2806
17273SOL    HW263879   7.160   9.794   7.880  2.0920  2.1877 -2.2941
17274SOL     OW63880   9.407   2.715   2.592  0.6214 -0.4420 -0.4146
17274SOL    HW163881   9.435   2.752   2.681  2.1410 -1.7447 -0.3223
17274SOL    HW263882   9.354   2.631   2.607  1.1597 -0.8390 -0.7643
17275SOL     OW63883   8.070   0.269   0.590  0.2280 -0.2492  0.3426
17275SOL    HW163884   8.094   0.309   0.502 -1.5901 -0.5363 -0.2952
17275SOL    HW263885   8.147   0.215   0.624  1.4315  0.9689 -0.4153
17276SOL     OW63886   1.000   5.529   6.336 -0.3284  0.4432  0.0426
17276SOL    HW163887   0.966   5.573   6.253 -0.7225  1.2279  0.6184
17276SOL    HW263888   0.951   5.443   6.350  0.3370 -0.1168 -1.0004
17277SOL     OW63889   2.695   3.925   9.777 -0.8130 -0.0611 -0.1169
17277SOL    HW163890   2.619   3.889   9.723 -1.1025  0.4189 -0.0312
17277SOL    HW263891   2.782   3.893   9.739 -0.9958  0.6484 -1.1281
17278SOL     OW63892   1.132   8.983   0.395 -0.0090  0.0696 -0.0338
17278SOL    HW163893   1.052   8.938   0.433  0.8783 -0.4720  1.2516
17278SOL    HW263894   1.173   9.042   0.465 -1.5490  3.4785 -1.8665
17279SOL     OW63895   0.470   2.753   9.784 -0.2416 -0.5247 -0.3094
17279SOL    HW163896   0.512   2.667   9.757 -1.6352 -1.2252 -0.3216
17279SOL    HW263897   0.510   2.828   9.732  0.5417 -1.2417 -0.7478
17280SOL     OW63898   6.513   9.608   3.252 -0.1949 -0.1719 -0.1950
17280SOL    HW163899   6.460   9.687   3.284 -0.1634  0.3927 -1.4835
17280SOL    HW263900   6.455   9.551   3.193  0.1669 -0.3918 -0.3389
17281SOL     OW63901   3.393   7.847   8.528  0.1403  0.3107  0.1832
17281SOL    HW163902   3.454   7.918   8.494 -0.7852  1.9492  1.8688
17281SOL    HW263903   3.334   7.815   8.454  1.4287  0.3706 -0.8822
17282SOL     OW63904   2.452   9.562   2.832 -0.4973  0.1633 -0.3256
17282SOL    HW163905   2.390   9.526   2.901 -0.8769 -0.4626 -0.9859
17282SOL    HW263906   2.421   9.533   2.741  0.4906  0.2415 -0.6911
17283SOL     OW63907   1.720   1.094   6.756 -0.2077  0.1206  0.6151
17283SOL    HW163908   1.734   1.175   6.699  0.0124 -0.4206 -0.1020
17283SOL    HW263909   1.661   1.118   6.833 -0.2064  0.9446  0.3698
17284SOL     OW63910   2.324   7.765   4.357 -0.1583  0.3378  0.2847
17284SOL    HW163911   2.378   7.705   4.297  0.4048  0.5801  0.5487
17284SOL    HW263912   2.340   7.741   4.452  2.4803  2.8928  0.5539
17285SOL     OW63913   2.704   9.783   8.120 -0.5373  0.4194  0.0477
17285SOL    HW163914   2.743   9.770   8.211  0.8288  1.2947 -0.3860
17285SOL    HW263915   2.687   9.880   8.105 -2.0827  0.1329 -0.1138
17286SOL     OW63916   3.466   7.682   4.394  0.0967 -0.0269  0.3912
17286SOL    HW163917   3.483   7.768   4.345 -1.1476 -0.2039 -0.3664
17286SOL    HW263918   3.537   7.669   4.463  0.5438  1.3931  0.2219
17287SOL     OW63919   8.266   8.821   5.284  0.1172 -0.8108 -0.0068
17287SOL    HW163920   8.281   8.865   5.372 -1.2707 -0.1908 -0.0696
17287SOL    HW263921   8.218   8.734   5.297 -0.7316 -0.3798 -0.1922
17288SOL     OW63922   5.822   9.163   3.438  0.4726 -0.6396 -0.1807
17288SOL    HW163923   5.908   9.181   3.391  0.9594  0.4370  1.0863
17288SOL    HW263924   5.838   9.099   3.514 -0.1135 -1.5750 -0.8417
17289SOL     OW63925   8.981   5.283   4.435 -0.2610  0.7410  0.2325
17289SOL    HW163926   8.885   5.285   4.406 -0.5839 -0.3466  1.1742
17289SOL    HW263927   9.032   5.219   4.377  0.2672  2.4950 -1.2931
17290SOL     OW63928   6.310   4.809   0.489  0.4473  0.1490 -0.2678
17290SOL    HW163929   6.233   4.859   0.530 -0.1098 -0.2876 -0.7710
17290SOL    HW263930   6.326   4.842   0.396 -1.7084 -2.4478 -1.6321
17291SOL     OW63931   3.503   9.283   2.166  0.7229 -0.0390 -0.2427
17291SOL    HW163932   3.520   9.320   2.074  0.9931 -0.3964 -0.3402
17291SOL    HW263933   3.589   9.282   2.217  0.3662  1.2217  0.4144
17292SOL     OW63934   1.520   9.381   8.679  0.2336 -0.6385  0.2542
17292SOL    HW163935   1.591   9.353   8.615  0.1487  0.2966 -0.2664
17292SOL    HW263936   1.559   9.390   8.771  0.9285  0.4313 -0.1336
17293SOL     OW63937   3.535   3.720   8.481 -0.1559  0.0759  0.1166
17293SOL    HW163938   3.603   3.647   8.483 -1.1457 -0.9506 -1.9671
17293SOL    HW263939   3.454   3.693   8.533 -0.0778  0.1678  0.2871
17294SOL     OW63940   4.613   5.184   1.146  0.2806  0.1028  0.1164
17294SOL    HW163941   4.612   5.090   1.114 -2.4503  0.4160 -0.8576
17294SOL    HW263942   4.570   5.243   1.077  0.9372  1.8868  1.1958
17295SOL     OW63943   4.671   8.961   2.246  0.3009 -0.0016 -0.2436
17295SOL    HW163944   4.714   9.006   2.168  0.8450 -0.3872 -0.1722
17295SOL    HW263945   4.686   9.015   2.328  0.9097 -0.2820 -0.1667
17296SOL     OW63946   9.224   0.562   6.930 -0.4669  0.2615  0.1563
17296SOL    HW163947   9.177   0.484   6.971  0.4544  0.2690  1.2246
17296SOL    HW263948   9.168   0.644   6.941 -0.0735  0.3320  1.7025
17297SOL     OW63949   0.930   4.438   3.694 -0.0805  0.0434  0.3040
17297SOL    HW163950   0.973   4.352   3.665 -0.7005 -0.7050  1.5510
17297SOL    HW263951   0.849   4.417   3.749 -2.8491  1.4117 -3.0533
17298SOL     OW63952   1.577   9.063   3.437  0.3470  0.1188  0.0009
17298SOL    HW163953   1.666   9.043   3.397 -0.0441 -0.6425 -0.4981
17298SOL    HW263954   1.505   9.024   3.380 -0.2950  0.4852  0.5496
17299SOL     OW63955   6.391   2.342   1.954 -0.1130  0.3276 -0.1269
17299SOL    HW163956   6.307   2.387   1.983 -0.1525  0.3663 -0.3011
17299SOL    HW263957   6.380   2.306   1.862 -0.4518 -1.0091  0.4332
17300SOL     OW63958   9.413   7.407   5.400 -0.4148  0.8302 -0.1908
17300SOL    HW163959   9.380   7.333   5.341  3.8229  0.9279 -2.9398
17300SOL    HW263960   9.437   7.371   5.490  0.1902 -0.8961 -1.0272
17301SOL     OW63961   2.696   7.082   3.581  0.0503 -0.1520  0.0961
17301SOL    HW163962   2.787   7.064   3.619  0.2439  0.0204 -0.2771
17301SOL    HW263963   2.685   7.180   3.564 -0.7245  0.0005  1.4320
17302SOL     OW63964   0.106   3.827   3.353 -0.5062 -0.0285 -0.0335
17302SOL    HW163965   0.067   3.848   3.263  0.5683 -0.9628 -0.7399
17302SOL    HW263966   0.032   3.808   3.418 -1.2943  0.7036 -0.6988
17303SOL     OW63967   0.431   1.291   4.559  0.5165  0.1199 -0.1779
17303SOL    HW163968   0.438   1.284   4.659 -2.3403 -1.1710 -0.0106
17303SOL    HW263969   0.382   1.374   4.535 -0.5725 -0.5809 -0.4060
17304SOL     OW63970   0.710   4.829   2.966 -0.4256 -0.2945 -0.2143
17304SOL    HW163971   0.791   4.878   2.998 -1.1866 -0.5057  2.2084
17304SOL    HW263972   0.629   4.869   3.010 -1.2054 -2.6540  0.5518
17305SOL     OW63973   1.401   1.137   1.192  0.1456 -0.3866 -0.2479
17305SOL    HW163974   1.345   1.201   1.138  1.7619  1.8591  0.6497
17305SOL    HW263975   1.391   1.159   1.289  1.0245 -1.2572  0.0410
17306SOL     OW63976   1.950   4.055   3.184 -0.5150 -0.2754  0.2889
17306SOL    HW163977   1.959   3.957   3.201 -1.5773 -0.5968 -0.9616
17306SOL    HW263978   1.865   4.089   3.224  0.2014  0.3101  1.3710
17307SOL     OW63979   4.908   1.098   8.328  0.2999 -0.4667  0.3447
17307SOL    HW163980   4.973   1.028   8.298 -0.8409 -2.0359  1.4639
17307SOL    HW263981   4.887   1.085   8.425 -0.6905  0.8283  0.3178
17308SOL     OW63982   5.795   1.935   6.191  0.0746  0.4802  0.4219
17308SOL    HW163983   5.803   1.911   6.094 -0.6700  2.1185 -0.0676
17308SOL    HW263984   5.854   1.876   6.245  3.0747  1.6965 -1.3955
17309SOL     OW63985   0.107   5.553   3.105 -0.4736 -0.1844 -0.1463
17309SOL    HW163986   0.039   5.593   3.167 -1.9762  0.7132 -2.3354
17309SOL    HW263987   0.070   5.470   3.064  0.5591 -0.8242  0.1935
17310SOL     OW63988   0.158   9.094   9.297  0.0520  0.5004  0.1274
17310SOL    HW163989   0.136   9.056   9.387  0.7035 -0.1906 -0.0004
17310SOL    HW263990   0.212   9.177   9.309  0.0898  0.4419  0.3748
17311SOL     OW63991   6.821   2.792   2.333  0.0213  0.6013 -0.2774
17311SOL    HW163992   6.877   2.788   2.250 -0.6510 -0.5673 -0.6809
17311SOL    HW263993   6.876   2.761   2.411  0.3310  0.6960 -0.4560
17312SOL     OW63994   2.095   6.722   5.568 -0.6623  0.0382 -0.3030
17312SOL    HW163995   2.148   6.736   5.652 -0.7241  0.2600 -0.2989
17312SOL    HW263996   2.135   6.774   5.493  0.3027 -1.4050 -0.7992
17313SOL     OW63997   9.385   5.534   3.290 -0.5168 -0.2250  0.5199
17313SOL    HW163998   9.382   5.500   3.197 -0.0025 -1.9828  1.1340
17313SOL    HW263999   9.317   5.487   3.346  0.7677 -0.8804  1.5728
17314SOL     OW64000   4.288   9.772   4.055 -0.0994  0.0636  0.2605
17314SOL    HW164001   4.330   9.840   3.995 -1.2153  1.0794  0.6077
17314SOL    HW264002   4.231   9.710   4.000  0.8325 -0.5324 -0.0422
17315SOL     OW64003   5.196   8.990   1.400 -0.0705 -0.2979  0.1794
17315SOL    HW164004   5.131   9.062   1.426 -0.7488 -1.2675  1.2214
17315SOL    HW264005   5.200   8.982   1.301  0.4982  1.6202  0.0275
17316SOL     OW64006   8.399   5.888   5.871  0.6680  0.2938  0.0040
17316SOL    HW164007   8.328   5.941   5.918  0.5062 -2.1341  2.6256
17316SOL    HW264008   8.366   5.795   5.855  1.9595  0.1481 -2.0365
17317SOL     OW64009   0.427   0.031   5.172 -0.1340  0.2873  0.5704
17317SOL    HW164010   0.350   0.095   5.169  2.1295  3.0820  0.9625
17317SOL    HW264011   0.437  -0.012   5.083 -4.5674 -3.1702  1.5182
17318SOL     OW64012   6.380   1.088   0.360 -0.1829 -0.0008 -0.6392
17318SOL    HW164013   6.427   1.015   0.311  0.6528  1.2272 -1.7157
17318SOL    HW264014   6.395   1.078   0.459 -0.3439 -1.4432 -0.7595
17319SOL     OW64015   0.991   6.577   9.370 -0.4825 -0.6176 -0.3045
17319SOL    HW164016   0.910   6.590   9.313 -1.6391 -2.5562  0.8565
17319SOL    HW264017   1.024   6.483   9.361  0.6377 -0.3216  0.5295
17320SOL     OW64018   2.692   1.339   5.409  0.0670 -0.1061 -0.1669
17320SOL    HW164019   2.681   1.414   5.474 -0.6458  0.8953 -1.4332
17320SOL    HW264020   2.717   1.256   5.459 -0.3426  0.6729  1.3733
17321SOL     OW64021   0.155   0.651   5.585 -0.2313 -0.5518 -0.4813
17321SOL    HW164022   0.169   0.575   5.649  1.4750  0.2586  0.1276
17321SOL    HW264023   0.099   0.721   5.629  0.3796 -0.2939 -0.1153
17322SOL     OW64024   2.064   2.441   8.838 -0.1873  0.3269 -0.5128
17322SOL    HW164025   1.973   2.426   8.878 -0.6360 -0.5140 -1.8194
17322SOL    HW264026   2.133   2.394   8.893 -0.4358  1.5273  0.8746
17323SOL     OW64027   9.568   0.703   8.378  0.1167  0.2639 -0.2189
17323SOL    HW164028   9.589   0.781   8.319  0.4398 -0.7830 -1.5013
17323SOL    HW264029   9.602   0.721   8.471  0.8810  1.3031 -0.6953
17324SOL     OW64030   0.589   3.627   6.359  0.1918  0.4476  0.4612
17324SOL    HW164031   0.503   3.590   6.394  0.4312 -1.9271 -1.2956
17324SOL    HW264032   0.662   3.612   6.426 -0.2623  0.0768  0.8703
17325SOL     OW64033   7.257   5.122   9.040  0.2975  0.1778  0.2113
17325SOL    HW164034   7.209   5.163   8.962  3.4851 -0.4601 -2.1591
17325SOL    HW264035   7.272   5.193   9.109 -0.4514  1.3299 -0.7659
17326SOL     OW64036   9.654   5.294   4.559  0.3994  0.7896 -0.2358
17326SOL    HW164037   9.697   5.242   4.485  1.0196  0.7940  0.1267
17326SOL    HW264038   9.591   5.234   4.609  1.3803  0.2915  0.4050
17327SOL     OW64039   1.508   1.913   1.563  0.3827 -0.2833 -0.0603
17327SOL    HW164040   1.431   1.949   1.510 -0.9581 -1.0060  1.3429
17327SOL    HW264041   1.571   1.987   1.585 -0.3180  0.4712 -0.5483
17328SOL     OW64042   3.116   8.574   7.239 -0.5439  0.1576  0.0018
17328SOL    HW164043   3.017   8.575   7.242 -0.5957 -1.1245 -0.6217
17328SOL    HW264044   3.150   8.483   7.266  0.5620  1.2376  2.3907
17329SOL     OW64045   0.463   6.078   9.364  0.3767  0.2784 -0.4246
17329SOL    HW164046   0.518   6.116   9.289 -0.5769  2.7832  0.0888
17329SOL    HW264047   0.500   6.109   9.451  0.5816 -1.4057  0.1042
17330SOL     OW64048   3.400   1.677   5.083 -0.0082 -0.0276 -0.5979
17330SOL    HW164049   3.318   1.627   5.058  1.3545 -2.0764 -1.0662
17330SOL    HW264050   3.375   1.770   5.111 -2.5726 -0.9284  0.2440
17331SOL     OW64051   5.340   3.257   7.569  0.5905 -0.0501  0.7058
17331SOL    HW164052   5.313   3.246   7.473 -0.3219  0.0823  0.9496
17331SOL    HW264053   5.268   3.222   7.628 -0.4387  3.1071  1.4164
17332SOL     OW64054   1.225   7.174   0.110 -0.0858  0.4931 -0.5676
17332SOL    HW164055   1.292   7.161   0.037 -1.0795 -0.2332 -1.3553
17332SOL    HW264056   1.177   7.260   0.097 -0.2584  0.3666 -0.7661
17333SOL     OW64057   4.907   8.355   7.256  0.7091  0.3073 -0.1429
17333SOL    HW164058   4.832   8.289   7.259 -1.2228  2.4848  1.1040
17333SOL    HW264059   4.967   8.334   7.179 -1.2699 -1.3712 -1.2657
17334SOL     OW64060   4.480   5.129   0.758  0.8136  0.7032  0.4096
17334SOL    HW164061   4.398   5.117   0.702  0.3544  1.4980  0.8923
17334SOL    HW264062   4.526   5.041   0.769  1.0135  0.5760 -1.3508
17335SOL     OW64063   2.524   4.006   2.483 -0.2219  0.2136 -0.1066
17335SOL    HW164064   2.521   3.979   2.579 -1.3104  1.8616  0.3508
17335SOL    HW264065   2.440   4.055   2.459 -0.0996 -0.4581 -1.9884
17336SOL     OW64066   3.772   2.898   4.392 -0.4649  0.1582 -0.3956
17336SOL    HW164067   3.793   2.807   4.428 -0.1299  0.4736  0.2055
17336SOL    HW264068   3.777   2.896   4.292 -0.1492 -0.4058 -0.3712
17337SOL     OW64069   4.202   1.797   1.328  0.2619  0.0443 -0.1726
17337SOL    HW164070   4.177   1.876   1.273  1.1569  0.4116 -0.0618
17337SOL    HW264071   4.136   1.723   1.313  1.0198 -0.2043 -2.4488
17338SOL     OW64072   2.060   3.315   1.955  0.4957  0.2742  0.3731
17338SOL    HW164073   2.053   3.241   2.022  0.8828  0.2172  0.3527
17338SOL    HW264074   1.969   3.350   1.934  0.2267 -0.8075 -0.2980
17339SOL     OW64075   8.760   0.032   1.979  0.2903 -0.2132  0.6220
17339SOL    HW164076   8.703   0.105   1.941  0.2271  0.1092  1.3170
17339SOL    HW264077   8.807  -0.016   1.905 -1.2826 -0.8189 -0.0010
17340SOL     OW64078   2.277   3.518   0.977 -0.7582 -0.2227 -0.5434
17340SOL    HW164079   2.288   3.616   0.993  0.4654 -0.3190 -0.6858
17340SOL    HW264080   2.298   3.498   0.881  2.0432 -1.0189  0.1701
17341SOL     OW64081   9.858   9.424   5.398 -0.1028  0.7444 -0.1559
17341SOL    HW164082   9.764   9.393   5.415 -0.5073  2.3659  0.6622
17341SOL    HW264083   9.899   9.366   5.328 -2.3774  1.2005 -1.9453
17342SOL     OW64084   4.333   7.202   3.227 -0.5456  0.1929  0.0879
17342SOL    HW164085   4.319   7.294   3.190 -0.3155 -0.7464 -2.4048
17342SOL    HW264086   4.286   7.135   3.169  0.0697 -1.3497  1.3400
17343SOL     OW64087   9.812   9.016   8.317 -0.5530 -0.7565 -0.1240
17343SOL    HW164088   9.855   9.015   8.227 -0.7118 -0.8793 -0.1989
17343SOL    HW264089   9.721   9.056   8.311  0.0982  0.8496  0.2902
17344SOL     OW64090   6.188   6.109   1.758  0.4668 -0.0762  0.2826
17344SOL    HW164091   6.135   6.049   1.818  2.3508 -3.4565 -1.3439
17344SOL    HW264092   6.126   6.150   1.691 -0.8817  0.0744  1.5707
17345SOL     OW64093   9.084   6.927   8.256  0.1123  0.3106 -0.5654
17345SOL    HW164094   9.146   6.913   8.333 -0.7743  1.8901  0.4606
17345SOL    HW264095   9.102   6.857   8.186 -0.5610 -2.5309  1.9945
17346SOL     OW64096   5.773   9.329   2.497  0.3579 -0.0711  0.2248
17346SOL    HW164097   5.848   9.265   2.482  1.4586  0.6471  2.4767
17346SOL    HW264098   5.806   9.408   2.548 -1.7891  0.5777  0.6693
17347SOL     OW64099   1.932   1.574   6.171  0.4018 -0.0773  0.2705
17347SOL    HW164100   1.898   1.581   6.078 -0.2902 -0.7350  0.4671
17347SOL    HW264101   1.913   1.482   6.207  0.6229  0.1812  1.0673
17348SOL     OW64102   8.217   5.156   3.380  0.1081  0.1924 -0.4132
17348SOL    HW164103   8.257   5.090   3.317  0.9024  0.8695 -0.6370
17348SOL    HW264104   8.283   5.178   3.453  0.2584  1.5086 -0.9253
17349SOL     OW64105   4.243   8.928   9.678 -0.3558 -0.6003  0.3862
17349SOL    HW164106   4.200   9.017   9.664 -1.0801 -1.0726 -0.4740
17349SOL    HW264107   4.320   8.919   9.614 -1.4632 -1.3409 -0.8663
17350SOL     OW64108   7.161   4.638   9.008  0.2327 -0.4514 -0.2258
17350SOL    HW164109   7.178   4.635   8.910 -3.1614 -3.9335 -0.8608
17350SOL    HW264110   7.143   4.732   9.037 -1.5197  0.2749 -3.5060
17351SOL     OW64111   9.774   5.001   0.778 -0.2482 -0.1169  0.3074
17351SOL    HW164112   9.856   4.982   0.724 -0.6654 -0.3460 -0.2446
17351SOL    HW264113   9.698   5.023   0.718 -0.2253  1.6012  0.8720
17352SOL     OW64114   2.150   4.387   2.535  0.0648  0.2100  0.4455
17352SOL    HW164115   2.067   4.358   2.582 -0.1761  0.4404  0.1604
17352SOL    HW264116   2.163   4.332   2.452 -0.1554  0.6202  0.1391
17353SOL     OW64117   0.209   9.463   2.328  0.5602  0.0407  0.1835
17353SOL    HW164118   0.164   9.380   2.295  2.2813 -1.1048  0.6458
17353SOL    HW264119   0.288   9.483   2.271 -0.5047  2.0552 -0.6416
17354SOL     OW64120   6.998   5.837   6.948 -0.6262 -0.2477 -0.1462
17354SOL    HW164121   6.963   5.784   7.026 -1.9549  2.7571  1.3887
17354SOL    HW264122   6.933   5.830   6.872 -1.8110  0.8113  0.7585
17355SOL     OW64123   2.490   2.189   1.011 -0.7392  0.0334 -0.3333
17355SOL    HW164124   2.509   2.114   1.074  1.5110 -0.0671 -1.0650
17355SOL    HW264125   2.468   2.153   0.921 -0.5177  0.2200 -0.4651
17356SOL     OW64126   2.441   5.253   0.280 -0.5013  0.4104 -0.3498
17356SOL    HW164127   2.429   5.325   0.349 -1.4869  0.0243 -0.1206
17356SOL    HW264128   2.452   5.296   0.190  0.4392  0.9027 -0.0060
17357SOL     OW64129   8.660   5.691   4.240  0.2416  0.2010  0.0155
17357SOL    HW164130   8.612   5.750   4.306 -2.8408 -2.4802  0.3004
17357SOL    HW264131   8.648   5.728   4.148 -0.7333  0.6194  0.3014
17358SOL     OW64132   4.616   7.398   4.211 -0.0316  0.0266  0.0803
17358SOL    HW164133   4.655   7.426   4.299  1.1006 -0.2061 -0.3319
17358SOL    HW264134   4.688   7.358   4.155 -0.2516  2.2305 -1.8338
17359SOL     OW64135   5.739   0.413   5.078 -0.0058  0.8160 -0.5486
17359SOL    HW164136   5.720   0.483   5.009  0.4701 -0.6009 -2.1541
17359SOL    HW264137   5.824   0.365   5.055 -0.7293 -0.8086  0.0686
17360SOL     OW64138   0.720   7.377   2.587 -0.3391  0.3004  0.1550
17360SOL    HW164139   0.806   7.405   2.630 -1.2650 -0.1304  2.3927
17360SOL    HW264140   0.736   7.299   2.527  0.8829  0.4197  0.3182
17361SOL     OW64141   9.945   9.012   4.705 -0.0625 -0.2067  0.2915
17361SOL    HW164142   9.856   8.972   4.727  0.5728 -1.6481  0.3027
17361SOL    HW264143  10.017   8.956   4.746  0.8797  0.5239 -0.3546
17362SOL     OW64144   5.194   4.987   9.319 -0.0083 -0.5008 -0.2482
17362SOL    HW164145   5.229   5.027   9.234  2.0839  2.1754  1.7789
17362SOL    HW264146   5.094   4.994   9.321  0.0448  0.8336 -1.8113
17363SOL     OW64147   7.644   6.097   7.750  0.3136  0.1857 -0.3093
17363SOL    HW164148   7.585   6.060   7.678 -0.2402 -0.2969  0.3864
17363SOL    HW264149   7.596   6.172   7.796  0.9405  0.9543 -0.8937
17364SOL     OW64150   6.244   5.573   2.386 -0.2752 -0.2238 -0.5631
17364SOL    HW164151   6.306   5.536   2.455 -0.0451 -2.0859 -1.7407
17364SOL    HW264152   6.174   5.630   2.431 -0.1641 -1.4411  1.2039
17365SOL     OW64153   2.528   5.891   0.922 -0.0436  0.4749  0.6042
17365SOL    HW164154   2.484   5.934   0.843  1.0640 -0.5840 -0.6272
17365SOL    HW264155   2.498   5.796   0.928 -0.1473  0.5641  1.4950
17366SOL     OW64156   8.637   8.543   3.011 -0.4004 -0.0263  0.3190
17366SOL    HW164157   8.541   8.521   2.994  0.2881 -1.8831 -1.2866
17366SOL    HW264158   8.647   8.580   3.103 -2.4564 -1.0924  0.9956
17367SOL     OW64159   3.318   3.846   5.409 -0.3847 -0.1244  0.4851
17367SOL    HW164160   3.397   3.870   5.464 -0.4161  0.2269  0.3779
17367SOL    HW264161   3.324   3.892   5.320 -0.5276 -0.3807  0.3444
17368SOL     OW64162   3.522   2.536   2.247 -0.6330 -0.1977  0.4428
17368SOL    HW164163   3.482   2.519   2.337  0.0450  1.5482  1.0998
17368SOL    HW264164   3.591   2.609   2.254  0.3641 -0.9375 -1.2483
17369SOL     OW64165   7.913   9.316   5.423  0.1053 -0.1708  0.4184
17369SOL    HW164166   7.816   9.337   5.410 -0.2230 -2.1722 -0.6055
17369SOL    HW264167   7.923   9.245   5.493  0.6051 -1.7832 -1.2298
17370SOL     OW64168   2.347   0.682   6.434  0.6659 -0.0412 -0.3940
17370SOL    HW164169   2.334   0.608   6.499  2.2758  1.9783  2.3542
17370SOL    HW264170   2.264   0.694   6.379 -0.1613 -2.8059  0.2090
17371SOL     OW64171   7.254   1.235   9.007  1.1030 -0.2563  0.4844
17371SOL    HW164172   7.316   1.161   8.981  1.4283  0.0721  0.3225
17371SOL    HW264173   7.166   1.220   8.962  2.5427  1.8879 -3.3146
17372SOL     OW64174   0.749   4.869   8.910  0.1885 -0.5041 -0.4247
17372SOL    HW164175   0.709   4.787   8.951 -0.5229  0.0273 -0.0525
17372SOL    HW264176   0.849   4.865   8.920  0.0637 -0.6699  0.8314
17373SOL     OW64177   0.826   9.729   8.010  0.1678  0.2434 -0.1957
17373SOL    HW164178   0.872   9.815   7.992 -0.4985  0.3259 -1.5555
17373SOL    HW264179   0.864   9.657   7.951 -0.1034 -0.1164  0.0592
17374SOL     OW64180   5.058   7.279   0.486 -0.9711 -0.0610  0.3249
17374SOL    HW164181   5.047   7.369   0.444 -2.0151 -1.1702 -1.8414
17374SOL    HW264182   4.968   7.243   0.512 -0.5452 -0.4208  1.3689
17375SOL     OW64183   0.631   9.173   7.626  0.1282 -0.2122 -0.4579
17375SOL    HW164184   0.581   9.243   7.677  0.5123  1.4451 -2.2869
17375SOL    HW264185   0.691   9.123   7.687 -1.8342 -0.4713  1.3027
17376SOL     OW64186   1.067   8.233   3.007 -0.5333  0.1469 -0.3148
17376SOL    HW164187   0.992   8.299   3.000 -0.3343  0.7893  2.8330
17376SOL    HW264188   1.154   8.283   3.008 -0.2942 -0.2740  0.2309
17377SOL     OW64189   3.274   0.359   1.691  0.2158  0.8177  0.4034
17377SOL    HW164190   3.352   0.422   1.685  0.2692  0.6698 -0.4440
17377SOL    HW264191   3.246   0.332   1.599  0.2067 -0.4206  0.7708
17378SOL     OW64192   6.062   1.033   5.441  0.3601  0.1020 -0.0849
17378SOL    HW164193   6.057   0.960   5.373 -1.9449 -0.2811  0.4509
17378SOL    HW264194   6.055   1.121   5.395  0.2372 -0.1101 -0.4735
17379SOL     OW64195   2.790   9.472   0.547 -0.3101 -0.5423 -0.0700
17379SOL    HW164196   2.767   9.392   0.492 -1.9250  1.7086 -2.8278
17379SOL    HW264197   2.721   9.485   0.619 -3.1846  1.3797 -3.0310
17380SOL     OW64198   8.080   8.520  10.011 -0.4649  0.2513  0.3001
17380SOL    HW164199   8.088   8.479  10.102  0.5442 -1.1262 -0.3870
17380SOL    HW264200   7.983   8.521   9.985 -0.5855 -1.0708  0.6308
17381SOL     OW64201   6.330   0.716   7.180  0.4306 -0.1173  0.2245
17381SOL    HW164202   6.361   0.752   7.092 -0.9253  0.3537 -0.0719
17381SOL    HW264203   6.231   0.702   7.177  0.5242 -1.0835  1.3306
17382SOL     OW64204   0.267   0.031   5.827  0.4098 -0.4083  0.2773
17382SOL    HW164205   0.295   0.009   5.920 -0.8428 -1.0367  0.5233
17382SOL    HW264206   0.311  -0.031   5.763 -1.1326 -2.0187  0.7440
17383SOL     OW64207   9.904   6.063   6.164  0.1317 -0.0103  0.1558
17383SOL    HW164208   9.988   6.109   6.138 -0.0476  0.9776  1.2624
17383SOL    HW264209   9.920   6.009   6.247 -0.2263 -0.1129  0.1583
17384SOL     OW64210   3.990   5.024   2.521 -0.0690 -0.0019 -0.5274
17384SOL    HW164211   4.008   4.929   2.498 -0.5191 -0.1670 -0.2000
17384SOL    HW264212   4.060   5.082   2.480  1.1134 -0.6179  0.5930
17385SOL     OW64213   7.474   5.504   7.004  0.3074  0.4103 -0.2600
17385SOL    HW164214   7.546   5.470   7.064 -0.0406 -0.9117 -0.5709
17385SOL    HW264215   7.393   5.526   7.058 -0.3876 -1.8113 -0.3143
17386SOL     OW64216   9.748   3.478   9.012 -0.7300 -0.2590 -0.7088
17386SOL    HW164217   9.650   3.498   9.021 -0.5572  0.7383 -1.0503
17386SOL    HW264218   9.761   3.409   8.941 -1.2280 -0.7575 -0.3222
17387SOL     OW64219   9.189   0.841   3.945  0.1999  0.2233  0.4533
17387SOL    HW164220   9.179   0.743   3.931  0.5027  0.3062 -0.3826
17387SOL    HW264221   9.164   0.889   3.861 -0.6780  0.9034  1.1017
17388SOL     OW64222   5.709   3.258   2.661 -0.0717 -0.1510 -0.4967
17388SOL    HW164223   5.805   3.281   2.646  0.3168 -1.7854 -0.6598
17388SOL    HW264224   5.651   3.334   2.632  1.1925  1.0946  0.1647
17389SOL     OW64225   3.325   9.362   0.554  0.1573 -0.0211  0.1453
17389SOL    HW164226   3.413   9.383   0.596 -1.4431  2.5766  2.3991
17389SOL    HW264227   3.285   9.445   0.516 -1.7842 -0.9466  0.0571
17390SOL     OW64228   7.774   1.313   4.522 -0.0976 -0.2175  0.7334
17390SOL    HW164229   7.862   1.360   4.530  0.5412 -0.9645 -1.7176
17390SOL    HW264230   7.732   1.334   4.434 -1.1610 -1.9623  0.7944
17391SOL     OW64231   7.989   8.041   4.126 -0.2213  0.5039  0.4690
17391SOL    HW164232   7.918   8.000   4.183 -0.3663  0.8607  0.5477
17391SOL    HW264233   8.076   7.995   4.142 -0.1751  0.8752  1.2844
17392SOL     OW64234   1.096   4.732   4.273 -0.2433 -0.6600  0.0766
17392SOL    HW164235   1.021   4.693   4.327  0.0209 -0.5280  0.5306
17392SOL    HW264236   1.183   4.692   4.302  0.1952  1.3220  1.5041
17393SOL     OW64237   2.963   0.213   1.082 -0.0716  0.6142 -0.3827
17393SOL    HW164238   2.951   0.305   1.119 -2.3298  0.4450 -0.6356
17393SOL    HW264239   2.887   0.191   1.022 -0.0317 -1.7885  0.4000
17394SOL     OW64240   3.396   0.527   9.341  0.0756 -0.3018  0.5137
17394SOL    HW164241   3.459   0.498   9.413  0.5703  1.3702  0.7811
17394SOL    HW264242   3.448   0.549   9.259 -0.1497  1.1152  0.7423
17395SOL     OW64243   0.511   3.333   5.579 -0.6255 -0.2766  0.5430
17395SOL    HW164244   0.458   3.253   5.606 -3.4706  1.4820  0.4167
17395SOL    HW264245   0.519   3.335   5.479 -2.1250  0.4998  0.4182
17396SOL     OW64246   3.007   8.496   0.022  0.3881 -0.3288 -0.5820
17396SOL    HW164247   2.934   8.563   0.030  0.8819  0.0194  1.3292
17396SOL    HW264248   2.968   8.404   0.023 -0.3842 -0.1044 -4.3662
17397SOL     OW64249   2.884   0.918   1.574  0.0698 -0.0783  0.1570
17397SOL    HW164250   2.828   0.847   1.531 -0.2739 -0.1214  0.6833
17397SOL    HW264251   2.963   0.876   1.618 -0.7259 -0.2579  1.4452
17398SOL     OW64252   9.587   7.906   6.145  0.1573  0.1270 -0.2244
17398SOL    HW164253   9.659   7.946   6.088  0.8245 -0.0903  0.4587
17398SOL    HW264254   9.532   7.843   6.090  1.2480 -0.6361 -0.4568
17399SOL     OW64255   7.573   7.420   8.337  0.0479  0.2781 -0.3120
17399SOL    HW164256   7.547   7.401   8.242 -0.2504  0.8596 -0.3474
17399SOL    HW264257   7.673   7.419   8.344  0.0559 -1.7022 -0.2237
17400SOL     OW64258   0.272   0.929   9.465  0.4571  0.2012  0.2673
17400SOL    HW164259   0.235   0.891   9.550 -0.8568 -0.9306 -0.7924
17400SOL    HW264260   0.372   0.923   9.467  0.4622  0.7109  1.9702
17401SOL     OW64261   7.918   7.930   8.042 -0.3495 -0.0414  0.1411
17401SOL    HW164262   7.842   7.986   8.011 -0.4781 -0.6294 -0.6217
17401SOL    HW264263   7.888   7.835   8.052  0.1236 -0.1633  0.4287
17402SOL     OW64264   4.700   7.427   4.501  0.2040 -0.1203  0.6858
17402SOL    HW164265   4.660   7.519   4.492  1.6901  0.3989 -1.0581
17402SOL    HW264266   4.664   7.383   4.583  0.2285  2.4338  2.1491
17403SOL     OW64267   3.123   3.685   3.996  0.4358  0.8908 -0.2971
17403SOL    HW164268   3.194   3.615   4.003 -1.5944 -1.3577 -1.6129
17403SOL    HW264269   3.133   3.734   3.910 -0.0641  0.0781 -0.8149
17404SOL     OW64270   4.860   2.871   6.009 -0.4400  0.3942  0.4089
17404SOL    HW164271   4.896   2.952   6.054  0.4668 -0.1766  0.7370
17404SOL    HW264272   4.785   2.833   6.062 -0.7327  0.9018  0.3579
17405SOL     OW64273   0.458   3.488   8.365  0.1886 -0.0703  0.7618
17405SOL    HW164274   0.407   3.407   8.395  1.7068 -1.4222 -0.2514
17405SOL    HW264275   0.533   3.506   8.428  0.9139 -0.4990  0.0301
17406SOL     OW64276   4.484   0.109   7.453 -0.5664 -0.2444 -0.7286
17406SOL    HW164277   4.487   0.208   7.437 -2.7715 -0.2803 -1.5591
17406SOL    HW264278   4.503   0.061   7.368  1.1295 -0.5534 -0.1853
17407SOL     OW64279   6.675   9.116   1.916 -0.1612  0.1435 -0.1680
17407SOL    HW164280   6.675   9.211   1.884 -0.4869 -0.2709 -1.4225
17407SOL    HW264281   6.600   9.103   1.982 -0.8907  0.4528 -0.9248
17408SOL     OW64282   2.412   8.072   9.379  0.0292  0.0754  0.2980
17408SOL    HW164283   2.358   8.084   9.462  0.4588 -1.7163  0.8629
17408SOL    HW264284   2.470   7.990   9.388  0.6051  0.2564 -1.4759
17409SOL     OW64285   9.036   3.107   2.606  0.3769  0.4353 -0.6148
17409SOL    HW164286   9.056   3.202   2.583  1.3344  0.4871  0.4071
17409SOL    HW264287   9.021   3.099   2.705 -0.6471 -0.3153 -0.8185
17410SOL     OW64288   3.833   4.611   0.860  0.6603  0.2032  0.1899
17410SOL    HW164289   3.736   4.614   0.833  0.6289 -0.4031  0.2363
17410SOL    HW264290   3.888   4.656   0.789  0.4280 -0.1546 -0.2162
17411SOL     OW64291   9.770   7.180   9.503 -0.4898  0.3956 -0.4171
17411SOL    HW164292   9.770   7.087   9.540  1.5156  0.2692 -0.7087
17411SOL    HW264293   9.788   7.245   9.577  0.0618  0.4043 -0.5582
17412SOL     OW64294   1.413   7.920   7.047 -0.3489  0.3522  0.0850
17412SOL    HW164295   1.393   7.886   6.956  1.8031 -1.3779  0.2168
17412SOL    HW264296   1.450   8.013   7.041  1.7953 -0.5428 -1.0121
17413SOL     OW64297   8.804   8.170   0.994 -0.4728  0.3203 -0.1663
17413SOL    HW164298   8.872   8.210   0.933 -0.1040 -0.9389 -0.5960
17413SOL    HW264299   8.842   8.164   1.087  0.3969 -1.2770 -0.5957
17414SOL     OW64300   8.202   2.123   4.875 -0.5478 -0.2305 -0.4863
17414SOL    HW164301   8.119   2.069   4.892  0.0691 -1.1158 -0.2369
17414SOL    HW264302   8.184   2.191   4.804 -1.7062  0.1009  0.1249
17415SOL     OW64303   2.168   8.608   0.110 -0.2420  0.4939  0.0673
17415SOL    HW164304   2.146   8.631   0.205  0.6179 -0.3639  0.4776
17415SOL    HW264305   2.211   8.518   0.106  0.7197  0.9920 -1.0311
17416SOL     OW64306   9.919   5.333   5.404  0.1533 -0.8190  0.5700
17416SOL    HW164307   9.932   5.395   5.327 -1.7043 -1.9580 -0.6964
17416SOL    HW264308   9.847   5.370   5.464  0.2593 -0.8887  0.7427
17417SOL     OW64309   2.241   9.653   2.237 -0.3288 -0.1691  0.3471
17417SOL    HW164310   2.268   9.557   2.241  1.8184  0.4217  0.7708
17417SOL    HW264311   2.270   9.692   2.150  0.2791  0.4918  0.8335
17418SOL     OW64312   2.842   9.790   6.203 -0.3498  0.2134  0.1156
17418SOL    HW164313   2.931   9.764   6.241  0.2171  1.4150 -0.3458
17418SOL    HW264314   2.771   9.730   6.240  0.7483 -1.2525 -0.0970
17419SOL     OW64315   1.951   3.795   4.199  0.4474 -0.3840  0.1833
17419SOL    HW164316   1.963   3.836   4.290 -0.2044 -1.0723  0.5856
17419SOL    HW264317   1.913   3.703   4.209  1.0931 -0.7595 -0.7565
17420SOL     OW64318   2.209   7.429   6.081 -0.3859 -0.3839  0.6106
17420SOL    HW164319   2.246   7.465   6.167  0.0121  0.2968  0.1573
17420SOL    HW264320   2.124   7.476   6.058  0.6507  0.9933 -0.4941
17421SOL     OW64321   9.219   7.348   8.341  0.2206 -0.5399  0.2476
17421SOL    HW164322   9.205   7.439   8.381 -0.3194 -1.4567  2.2408
17421SOL    HW264323   9.140   7.324   8.285  0.6298  0.4481 -0.7700
17422SOL     OW64324   8.748   0.671   1.082  0.4757 -0.3367 -0.4106
17422SOL    HW164325   8.815   0.690   1.010 -1.0494  1.5881 -1.3792
17422SOL    HW264326   8.655   0.678   1.044 -0.3191 -2.3064  1.0583
17423SOL     OW64327   9.501   8.063   1.382 -0.2158  0.1443  0.0977
17423SOL    HW164328   9.441   8.140   1.404 -0.5775 -0.5839  1.6932
17423SOL    HW264329   9.446   7.987   1.349 -0.1423 -0.3983  1.2096
17424SOL     OW64330   4.341   1.928   7.341 -0.1633 -0.0743  0.8651
17424SOL    HW164331   4.278   1.880   7.403 -1.4938 -0.9154 -1.0531
17424SOL    HW264332   4.293   1.948   7.255  1.3119  2.0173  0.4927
17425SOL     OW64333   4.492   1.593   6.641  0.1025 -0.4310 -0.1286
17425SOL    HW164334   4.562   1.574   6.711  1.1266  1.3173 -0.6471
17425SOL    HW264335   4.505   1.685   6.606 -1.1398 -0.8773 -1.7999
17426SOL     OW64336   2.010   4.053   6.907  0.1609  0.1644  0.6906
17426SOL    HW164337   1.927   4.051   6.851  0.8621  0.6872 -0.3913
17426SOL    HW264338   2.023   3.964   6.951 -0.2179 -0.3584 -0.2467
17427SOL     OW64339   0.378   3.532   0.183  0.2845 -0.1543 -0.4955
17427SOL    HW164340   0.456   3.485   0.222  1.2551  0.2533 -1.9059
17427SOL    HW264341   0.381   3.526   0.083 -1.3875  0.0160 -0.5850
17428SOL     OW64342   3.442   1.936   5.274 -0.0008 -0.0973 -0.7964
17428SOL    HW164343   3.358   1.938   5.327  0.7772  0.0368  0.4619
17428SOL    HW264344   3.520   1.947   5.335  0.9142  0.1750 -1.9905
17429SOL     OW64345   2.823   7.895   7.615 -0.2320  0.0676  0.1950
17429SOL    HW164346   2.876   7.928   7.693 -1.1213  0.0306  0.8312
17429SOL    HW264347   2.784   7.973   7.566  1.3732  0.1498 -0.9759
17430SOL     OW64348   5.206   0.232   5.502 -0.3052 -0.6699  0.0567
17430SOL    HW164349   5.187   0.232   5.600 -0.2619  0.5421  0.0765
17430SOL    HW264350   5.124   0.263   5.452 -0.0571 -0.4797 -0.2324
17431SOL     OW64351   1.316   2.591   6.507 -0.6965  0.7029 -0.0583
17431SOL    HW164352   1.259   2.669   6.485 -1.0354  0.2867 -0.6887
17431SOL    HW264353   1.353   2.552   6.422  1.3167  1.5553  0.3992
17432SOL     OW64354   3.146   1.430   2.920 -0.6094  0.0145  0.3064
17432SOL    HW164355   3.116   1.480   2.839 -2.5522 -1.1160  0.3074
17432SOL    HW264356   3.220   1.367   2.895  0.7473  1.7037 -0.0039
17433SOL     OW64357   0.594   8.317   7.414  0.0575 -0.2684  0.0239
17433SOL    HW164358   0.648   8.302   7.497  0.4734  1.2174  0.0426
17433SOL    HW264359   0.529   8.391   7.430 -1.4687 -1.5393 -0.2480
17434SOL     OW64360   8.842   9.723   3.426  0.3463  0.2304  0.0529
17434SOL    HW164361   8.804   9.724   3.518 -0.8560  0.0397 -0.4355
17434SOL    HW264362   8.930   9.771   3.426 -0.8183  2.4554  0.7958
17435SOL     OW64363   4.611   9.106   3.915  0.1783 -0.5363  0.6190
17435SOL    HW164364   4.680   9.175   3.938  0.2467 -0.7839  1.1490
17435SOL    HW264365   4.524   9.151   3.896  0.7257 -0.1317 -1.0280
17436SOL     OW64366   7.927   1.436   5.159 -0.0281  0.2645  0.6164
17436SOL    HW164367   7.880   1.514   5.198 -0.6148 -0.2731  0.9946
17436SOL    HW264368   7.972   1.384   5.232 -0.5905 -0.3826  0.5122
17437SOL     OW64369   2.378   3.564   0.323 -0.1218 -0.4234 -0.0311
17437SOL    HW164370   2.438   3.644   0.324 -0.1537 -0.3985 -0.0990
17437SOL    HW264371   2.283   3.594   0.315 -0.2197 -0.4127  1.1062
17438SOL     OW64372   7.801   0.306   0.597 -0.7093 -0.3378 -0.1175
17438SOL    HW164373   7.899   0.303   0.618 -1.2903  1.7337  3.1666
17438SOL    HW264374   7.783   0.382   0.534 -0.2440 -0.5288 -0.4842
17439SOL     OW64375   8.054   7.065   7.715  0.3908 -0.1697 -0.5940
17439SOL    HW164376   8.080   7.149   7.763 -1.1577 -0.7471  1.3105
17439SOL    HW264377   8.094   6.986   7.763 -1.1676 -0.7508 -0.2356
17440SOL     OW64378   1.208   9.953   6.150 -0.8904  0.2882 -0.1878
17440SOL    HW164379   1.257  10.010   6.083  0.7072 -0.7208  0.1036
17440SOL    HW264380   1.112   9.948   6.125 -0.3648  0.1581 -2.2663
17441SOL     OW64381   9.170   5.762   4.779 -0.0288 -0.1038 -0.0337
17441SOL    HW164382   9.088   5.705   4.770  0.2268 -0.4279 -0.2961
17441SOL    HW264383   9.213   5.774   4.690 -0.7941  1.5746 -0.1935
17442SOL     OW64384   2.318   2.215   0.121 -0.5862  0.2949  0.5110
17442SOL    HW164385   2.373   2.134   0.098 -0.8291  0.7344 -1.7360
17442SOL    HW264386   2.339   2.244   0.214  1.2642 -0.9427  0.5118
17443SOL     OW64387   7.388   6.515   9.470  0.2531 -0.5472  0.4761
17443SOL    HW164388   7.342   6.442   9.521  0.5238 -0.7100  0.4898
17443SOL    HW264389   7.326   6.552   9.401  1.1849 -3.0214 -1.7545
17444SOL     OW64390   0.112   6.224   4.279 -0.3828  0.2981 -0.5927
17444SOL    HW164391   0.035   6.209   4.340 -0.5371 -0.8349 -1.0502
17444SOL    HW264392   0.128   6.142   4.225  1.2556  0.4583 -0.3754
17445SOL     OW64393   4.674   5.988   7.838 -0.2197  0.0972 -0.6396
17445SOL    HW164394   4.603   6.038   7.888  0.4549  0.3757  0.0355
17445SOL    HW264395   4.715   5.919   7.899 -0.2694 -0.4227 -1.1873
17446SOL     OW64396   9.048   6.892   0.834 -0.0359 -0.3770  0.1236
17446SOL    HW164397   9.061   6.795   0.813 -1.3137 -0.5373  0.0153
17446SOL    HW264398   8.993   6.901   0.918  0.2475  0.2561  0.2471
17447SOL     OW64399   1.314   0.132   6.333 -0.1852 -0.5140 -0.1839
17447SOL    HW164400   1.250   0.085   6.272 -0.4493  0.8958 -1.0042
17447SOL    HW264401   1.373   0.064   6.377 -1.6585 -1.7530 -0.0811
17448SOL     OW64402   6.775   5.213   1.806  0.3728  0.7028 -0.2669
17448SOL    HW164403   6.732   5.300   1.781 -0.2867  0.5754  0.3927
17448SOL    HW264404   6.748   5.188   1.899 -1.2673 -1.3212 -1.2369
17449SOL     OW64405   4.260   1.559   7.835 -0.3109 -0.1025 -0.1378
17449SOL    HW164406   4.216   1.574   7.923  0.2144  0.9178 -0.0378
17449SOL    HW264407   4.245   1.465   7.805 -2.1979  0.1173  0.0758
17450SOL     OW64408   2.098   9.788   4.288  0.1971  0.0793 -0.8584
17450SOL    HW164409   2.115   9.751   4.379  0.4128 -0.8722 -1.2733
17450SOL    HW264410   2.001   9.807   4.277  0.3232  1.2224 -0.0608
17451SOL     OW64411   1.202   9.102   6.222  0.0584 -0.3678  0.2559
17451SOL    HW164412   1.154   9.189   6.221  2.2817  0.9090  0.9687
17451SOL    HW264413   1.296   9.116   6.254  1.3925 -2.5471 -2.5053
17452SOL     OW64414   4.376   8.784   3.001  0.3438  0.1585  0.3898
17452SOL    HW164415   4.395   8.816   2.908  1.0721  0.9386  0.7957
17452SOL    HW264416   4.456   8.802   3.059 -0.3957  0.3950  1.3482
17453SOL     OW64417   5.978   5.439   1.075 -0.3289  0.3122  0.1966
17453SOL    HW164418   5.986   5.423   0.977  0.8577  2.1465 -0.0258
17453SOL    HW264419   5.892   5.487   1.094 -0.3642  0.3208  0.0156
17454SOL     OW64420   9.276   2.167   0.785  0.6240 -0.0254 -0.1315
17454SOL    HW164421   9.257   2.172   0.686  0.5680  2.8788 -0.0197
17454SOL    HW264422   9.333   2.244   0.812  0.6759 -0.8195  2.1131
17455SOL     OW64423   0.702   0.486   9.650 -0.0726 -0.3343 -0.5122
17455SOL    HW164424   0.650   0.570   9.666 -0.2613 -0.0431 -2.4423
17455SOL    HW264425   0.638   0.410   9.634  0.0380  0.0591 -3.0628
17456SOL     OW64426   8.392   8.614   9.345 -0.1955 -0.2783 -0.0730
17456SOL    HW164427   8.309   8.616   9.400  0.1022  0.6954  0.3525
17456SOL    HW264428   8.422   8.708   9.327 -0.2342 -0.5718 -1.8123
17457SOL     OW64429   7.510   3.503   3.003 -0.5375 -0.0995 -0.2080
17457SOL    HW164430   7.552   3.533   2.918 -2.0340 -1.5287 -1.4972
17457SOL    HW264431   7.411   3.494   2.990 -0.6887 -1.1177  1.4590
17458SOL     OW64432   3.497   5.594   0.946 -0.3538 -0.0645 -0.3991
17458SOL    HW164433   3.566   5.660   0.976  0.3644 -1.2883  0.6805
17458SOL    HW264434   3.520   5.503   0.982 -2.1159 -0.6292 -0.6700
17459SOL     OW64435   1.231   2.186   0.886 -0.1571 -0.0532  0.2152
17459SOL    HW164436   1.241   2.286   0.890  1.3446 -0.1507 -0.9447
17459SOL    HW264437   1.230   2.150   0.980  2.6220  0.7400  0.5789
17460SOL     OW64438   1.833   9.278   9.276 -0.0157  0.3292 -0.1468
17460SOL    HW164439   1.755   9.313   9.328 -0.3650 -2.3694  1.1883
17460SOL    HW264440   1.826   9.309   9.181 -2.0041  1.1966  0.2520
17461SOL     OW64441   8.207   5.693   5.239 -0.2775  0.9071 -0.0437
17461SOL    HW164442   8.284   5.713   5.300 -0.1497  3.0082 -0.8519
17461SOL    HW264443   8.124   5.679   5.294  0.2916  0.5240  0.7237
17462SOL     OW64444   4.125   8.453   2.846 -0.5536  0.0855 -0.6506
17462SOL    HW164445   4.220   8.466   2.819 -1.1602  0.6838 -2.5353
17462SOL    HW264446   4.088   8.540   2.879 -0.3406 -0.2395  0.4684
17463SOL     OW64447   2.026   1.143   5.463  0.0546  0.4722 -0.3606
17463SOL    HW164448   1.979   1.073   5.408  1.0973 -1.9717  1.7436
17463SOL    HW264449   1.960   1.207   5.500 -0.8922  0.8751 -2.6440
17464SOL     OW64450   3.943   5.326   5.011  0.0756 -0.5030  0.1784
17464SOL    HW164451   3.904   5.323   4.919  2.3589 -2.4394 -0.7888
17464SOL    HW264452   3.892   5.392   5.067 -1.8931  0.0674 -2.1950
17465SOL     OW64453   6.627   9.738   6.028  0.4394  0.5083 -0.1948
17465SOL    HW164454   6.580   9.666   5.977  2.1823 -2.5917  2.4454
17465SOL    HW264455   6.710   9.765   5.979 -0.0945  0.5681 -1.0734
17466SOL     OW64456   1.075   1.357   0.483  0.1626 -0.1148  0.3675
17466SOL    HW164457   1.067   1.389   0.577 -1.9778 -0.1364  0.2069
17466SOL    HW264458   1.081   1.258   0.481 -1.0044 -0.1839  0.4078
17467SOL     OW64459   2.358   3.638   9.669 -0.7502 -0.4009 -0.1507
17467SOL    HW164460   2.429   3.708   9.662  0.6281 -1.6850  0.7519
17467SOL    HW264461   2.276   3.668   9.619 -0.9176  2.7522  1.9197
17468SOL     OW64462   1.262   8.918   4.384 -0.0326  0.5346 -0.2048
17468SOL    HW164463   1.271   8.905   4.482  1.0443 -0.1493 -0.3916
17468SOL    HW264464   1.297   8.838   4.336 -0.5240  0.8775 -1.1460
17469SOL     OW64465   6.238   4.995   8.087 -0.1304  0.5831  0.1388
17469SOL    HW164466   6.240   4.911   8.033 -0.5133  0.7135 -0.0815
17469SOL    HW264467   6.267   4.975   8.180 -0.1287  0.2250  0.0639
17470SOL     OW64468   0.848   2.848   2.506 -0.2994 -0.8560 -0.2867
17470SOL    HW164469   0.901   2.767   2.479 -0.1610 -0.7861 -0.2252
17470SOL    HW264470   0.756   2.842   2.467 -0.4139 -1.2338  0.0294
17471SOL     OW64471   1.031   6.433   1.055  0.3652 -0.4496 -0.1757
17471SOL    HW164472   1.113   6.375   1.056 -0.4688 -1.6290  1.2822
17471SOL    HW264473   1.036   6.498   1.131 -0.5140 -1.2004  0.5336
17472SOL     OW64474   0.996   9.821   4.772 -0.6056 -0.3572  0.2851
17472SOL    HW164475   1.086   9.779   4.762  0.3982  1.4850  1.4784
17472SOL    HW264476   0.990   9.867   4.861 -2.7083 -0.4110  0.2005
17473SOL     OW64477   1.898   7.797   3.597  0.6177 -0.6586 -0.0036
17473SOL    HW164478   1.860   7.721   3.650  0.2142 -0.5394 -0.1215
17473SOL    HW264479   1.939   7.762   3.513 -0.7058 -0.6226 -0.6907
17474SOL     OW64480   3.696   2.253   5.437 -0.5924 -0.2111 -0.9288
17474SOL    HW164481   3.624   2.321   5.421 -0.4205  0.1152 -0.3337
17474SOL    HW264482   3.656   2.170   5.475 -0.6612 -0.0537 -0.6591
17475SOL     OW64483   2.376   0.356   8.698 -0.5993 -0.5760 -0.8946
17475SOL    HW164484   2.298   0.367   8.760 -0.6717 -1.5377 -0.8155
17475SOL    HW264485   2.394   0.259   8.684  1.5255 -0.3598  0.2404
17476SOL     OW64486   1.969   7.261   5.389  0.4484  0.1325 -0.5163
17476SOL    HW164487   2.051   7.318   5.379  0.9388 -0.4347  0.2318
17476SOL    HW264488   1.896   7.297   5.332  0.8334  1.3823 -0.2278
17477SOL     OW64489   9.743   7.653   9.972 -0.1410 -0.5127  0.6777
17477SOL    HW164490   9.680   7.609   9.908  0.5169  0.6635 -0.8321
17477SOL    HW264491   9.696   7.673  10.058 -1.4951 -0.7021 -0.0074
17478SOL     OW64492   6.879   2.836   9.710 -0.2886 -0.2777 -0.2215
17478SOL    HW164493   6.947   2.905   9.734 -2.4428  1.3557  1.3952
17478SOL    HW264494   6.887   2.815   9.613  1.1460  1.4161 -0.5138
17479SOL     OW64495   9.173   2.631   6.940  0.1399 -0.6147 -0.4590
17479SOL    HW164496   9.239   2.615   7.013  0.0251  0.6068 -0.0822
17479SOL    HW264497   9.080   2.618   6.975 -0.0696  2.9929  0.4534
17480SOL     OW64498   2.159   7.244   9.994 -0.1068  0.2682  0.3610
17480SOL    HW164499   2.200   7.228  10.084  0.6691 -2.6698 -0.4587
17480SOL    HW264500   2.229   7.276   9.930 -0.2468  0.4422  0.2935
17481SOL     OW64501   0.509   4.360   6.831 -0.0567 -0.7538  0.3743
17481SOL    HW164502   0.442   4.342   6.902 -0.5101 -3.3021 -0.6288
17481SOL    HW264503   0.592   4.308   6.850  0.8374  0.6687  0.4476
17482SOL     OW64504   9.250   0.337   4.253 -0.2395 -0.1485  0.2004
17482SOL    HW164505   9.183   0.401   4.214 -0.3378  0.1224  0.7924
17482SOL    HW264506   9.203   0.254   4.284 -0.5589  0.6816  2.0321
17483SOL     OW64507   7.178   8.040   4.283 -0.4403  0.8511 -0.2254
17483SOL    HW164508   7.140   7.952   4.256  0.2679  0.1584  1.0071
17483SOL    HW264509   7.169   8.105   4.208  0.0085 -0.5742 -1.5188
17484SOL     OW64510   7.216   4.319   8.831 -0.3144  1.3852 -0.1636
17484SOL    HW164511   7.225   4.332   8.930 -1.5848  1.0012  0.0043
17484SOL    HW264512   7.302   4.344   8.787  1.5208 -1.8057  1.3711
17485SOL     OW64513   6.444   8.438   3.861 -0.1281  0.0536 -0.2181
17485SOL    HW164514   6.352   8.411   3.889  0.5562 -1.8174  0.3271
17485SOL    HW264515   6.482   8.368   3.801  1.0014  0.7376 -0.3156
17486SOL     OW64516   8.203   8.539   5.336  0.0235 -0.1767  0.3411
17486SOL    HW164517   8.153   8.457   5.308  0.3390  0.1799 -1.3337
17486SOL    HW264518   8.301   8.521   5.331  0.1195  0.7754 -1.5862
17487SOL     OW64519   7.125   6.319   2.296  0.0254  0.2126 -0.2090
17487SOL    HW164520   7.150   6.410   2.330  0.3929  0.4916 -1.2140
17487SOL    HW264521   7.178   6.250   2.346 -1.8958  0.3810  2.1334
17488SOL     OW64522   2.371   0.836   1.416  0.1665 -0.4370  0.5175
17488SOL    HW164523   2.394   0.854   1.511 -2.6614 -1.7765  1.4802
17488SOL    HW264524   2.358   0.922   1.368 -0.1498  0.2267  1.7782
17489SOL     OW64525   9.454   5.846   3.142  0.5377 -0.7210 -0.6382
17489SOL    HW164526   9.470   5.760   3.092  0.6791 -0.7520 -0.5392
17489SOL    HW264527   9.417   5.825   3.232 -1.1602 -0.6050 -1.2937
17490SOL     OW64528   6.969   9.070   2.590 -0.5885  0.5936 -0.3115
17490SOL    HW164529   6.911   8.993   2.564  0.4827 -0.3867  0.1631
17490SOL    HW264530   7.058   9.036   2.621 -0.0868  2.0259 -0.1444
17491SOL     OW64531   2.145   6.770   6.878  0.4314  0.2992 -0.1228
17491SOL    HW164532   2.167   6.842   6.943  0.8488  0.7218 -0.7229
17491SOL    HW264533   2.062   6.794   6.828  0.1910  0.0422  0.1497
17492SOL     OW64534   8.651   8.946   9.892 -0.0337  0.5416 -0.1648
17492SOL    HW164535   8.618   8.906   9.806 -0.3345 -0.3083  0.3358
17492SOL    HW264536   8.657   9.045   9.883 -1.3320  0.5742 -0.7400
17493SOL     OW64537   3.577   5.836   7.105  0.3471  0.2116 -0.2596
17493SOL    HW164538   3.498   5.827   7.165  0.1012  0.9210 -0.4644
17493SOL    HW264539   3.601   5.747   7.066  0.5379 -0.2668  0.9236
17494SOL     OW64540   6.280   2.323   1.151 -0.1292 -0.7270  0.0714
17494SOL    HW164541   6.275   2.366   1.061  0.1710  0.1246  0.4541
17494SOL    HW264542   6.370   2.341   1.191 -0.6735 -0.1315  1.0219
17495SOL     OW64543   9.845   4.167   0.185 -0.5614 -0.1275  0.3114
17495SOL    HW164544   9.944   4.174   0.168 -0.3531 -0.3254  1.4396
17495SOL    HW264545   9.813   4.253   0.225 -0.3108 -1.0536  2.5778
17496SOL     OW64546   0.493   4.293   9.278 -0.1324 -0.4479 -0.4204
17496SOL    HW164547   0.485   4.321   9.373 -1.9917  1.3368 -1.0636
17496SOL    HW264548   0.406   4.256   9.246  0.4455 -0.9707 -1.4456
17497SOL     OW64549   1.746   4.819   2.502 -0.2546 -0.1293  0.7843
17497SOL    HW164550   1.706   4.889   2.561 -2.2001 -0.0646 -0.5650
17497SOL    HW264551   1.803   4.757   2.557  1.0496  2.1567  2.0690
17498SOL     OW64552   3.281   0.427   1.128 -0.5488  0.0997  0.1391
17498SOL    HW164553   3.282   0.476   1.215 -0.7877  1.0883 -0.4024
17498SOL    HW264554   3.297   0.329   1.144 -0.0752  0.3489  1.2361
17499SOL     OW64555   9.850   8.872   9.011 -0.2669 -0.1621 -0.2130
17499SOL    HW164556   9.919   8.882   9.082  0.0574  1.7833 -0.7720
17499SOL    HW264557   9.894   8.869   8.921 -0.7555 -1.3020 -0.4191
17500SOL     OW64558   0.613   3.983   9.333  0.2621  0.2004 -0.2378
17500SOL    HW164559   0.524   4.019   9.304  0.4933  0.1932 -0.9822
17500SOL    HW264560   0.612   3.966   9.431  0.2280  2.4980  0.1840
17501SOL     OW64561   0.013   4.921   1.927  0.1712  0.8042 -0.5958
17501SOL    HW164562  -0.063   4.909   1.863  0.2629 -0.5140 -0.4620
17501SOL    HW264563  -0.016   4.977   2.004 -0.1765  1.7123 -1.3748
17502SOL     OW64564   5.870   9.675   2.325 -0.1868 -0.6244 -0.1668
17502SOL    HW164565   5.839   9.583   2.303 -2.7438 -0.0362  0.8183
17502SOL    HW264566   5.808   9.716   2.392  0.6219  2.0244 -0.9905
17503SOL     OW64567   8.020   2.981   8.756 -0.3229  0.5346 -0.1463
17503SOL    HW164568   8.079   2.905   8.730 -0.4266  1.3077 -2.7536
17503SOL    HW264569   7.935   2.945   8.795  0.4147 -0.6357  0.4018
17504SOL     OW64570   3.236   7.379   5.626  0.0222  0.2930 -0.1624
17504SOL    HW164571   3.236   7.345   5.532  1.5506  0.3121 -0.1910
17504SOL    HW264572   3.182   7.463   5.632 -0.3859  0.0890 -0.9389
17505SOL     OW64573   5.785   9.073   6.110  0.3070 -0.3280  0.1326
17505SOL    HW164574   5.763   9.004   6.179 -0.9813 -1.4430 -1.3599
17505SOL    HW264575   5.794   9.029   6.021 -0.1227  1.3948 -0.7693
17506SOL     OW64576   2.762   6.392   4.552 -0.3053  0.0945 -0.6712
17506SOL    HW164577   2.826   6.360   4.483 -0.3137 -1.1389 -0.1096
17506SOL    HW264578   2.690   6.324   4.565 -0.1437  0.1815  0.7512
17507SOL     OW64579   0.778   8.871   8.811 -0.0483 -0.2442 -0.9883
17507SOL    HW164580   0.838   8.798   8.777  1.4848  1.1635 -1.3302
17507SOL    HW264581   0.808   8.900   8.901 -1.8911 -1.4049  0.0304
17508SOL     OW64582   3.244   7.362   9.027  0.0437  0.7468 -0.1187
17508SOL    HW164583   3.169   7.300   9.004  0.5032 -0.7792  2.4230
17508SOL    HW264584   3.221   7.414   9.109  0.7248  2.1516 -0.7872
17509SOL     OW64585   4.105   7.285   0.282 -0.5800 -0.0047  0.1449
17509SOL    HW164586   4.023   7.304   0.228 -0.8402 -0.8661  0.2318
17509SOL    HW264587   4.161   7.217   0.234  0.5606  1.2836 -0.3795
17510SOL     OW64588   8.177   1.796   4.174 -0.1134 -0.1149 -0.1590
17510SOL    HW164589   8.094   1.750   4.207 -0.7142  0.3413 -1.0321
17510SOL    HW264590   8.239   1.727   4.135 -1.0806 -0.1936 -1.6112
17511SOL     OW64591   5.279   3.664   7.008 -0.0107 -0.3144  0.1617
17511SOL    HW164592   5.205   3.643   6.943 -0.0709  1.1042 -0.2615
17511SOL    HW264593   5.314   3.580   7.047 -0.6799 -1.1268 -0.9480
17512SOL     OW64594   4.003   0.666   8.247  0.0131 -0.6018  0.1866
17512SOL    HW164595   3.924   0.669   8.308 -0.0241 -0.4166  0.1289
17512SOL    HW264596   3.992   0.591   8.182 -1.8617  1.6644 -2.2195
17513SOL     OW64597   0.484   4.907   2.076 -0.0077 -0.8388  0.3224
17513SOL    HW164598   0.478   4.826   2.135  0.8946 -2.0455 -1.2123
17513SOL    HW264599   0.413   4.903   2.006 -0.0437 -0.2285  0.3221
17514SOL     OW64600   2.105   2.898   6.682  0.1617 -0.3312 -0.2513
17514SOL    HW164601   2.063   2.837   6.749 -0.5676 -0.4629 -0.8184
17514SOL    HW264602   2.055   2.892   6.595  2.3140 -1.6819 -1.4385
17515SOL     OW64603   9.027   2.449   0.851  0.5491 -0.4223  0.3907
17515SOL    HW164604   9.031   2.537   0.804 -2.6173 -0.8659 -0.8470
17515SOL    HW264605   9.037   2.375   0.784 -0.0882 -1.0282  0.9599
17516SOL     OW64606   4.550   4.936   1.046  0.4754  0.0524  0.3234
17516SOL    HW164607   4.576   4.848   1.086 -0.4566  0.1538  1.1838
17516SOL    HW264608   4.546   4.928   0.946  1.8877 -0.4628  0.3084
17517SOL     OW64609   1.360   2.585   3.158  0.0141  0.0163 -0.0260
17517SOL    HW164610   1.270   2.596   3.202  0.1757 -1.7768  0.7981
17517SOL    HW264611   1.347   2.552   3.065 -0.1533 -1.5429  0.5379
17518SOL     OW64612   4.919   2.962   6.356 -0.0118 -0.0510  0.8183
17518SOL    HW164613   5.006   2.989   6.315 -1.0132 -2.6598 -3.2949
17518SOL    HW264614   4.861   3.042   6.368  0.6964  0.9178 -2.0246
17519SOL     OW64615   6.438   3.077   9.232 -0.5007 -0.3311  0.0489
17519SOL    HW164616   6.495   2.995   9.237 -0.6196 -0.3961  0.3774
17519SOL    HW264617   6.349   3.053   9.194 -0.6803 -0.4375  0.5259
17520SOL     OW64618   2.212   2.543   6.448 -0.6757 -0.2571 -0.1316
17520SOL    HW164619   2.258   2.552   6.536  0.4044 -0.0824 -0.7154
17520SOL    HW264620   2.126   2.493   6.461 -1.9448  2.2052  1.5031
17521SOL     OW64621   4.397   3.015   7.326  0.0433  0.1758  0.1910
17521SOL    HW164622   4.470   3.077   7.296 -1.6690  2.1835  0.0357
17521SOL    HW264623   4.435   2.949   7.391  2.0094  1.1066  0.0485
17522SOL     OW64624   5.302   2.265   2.091  0.2670  0.4513 -0.2281
17522SOL    HW164625   5.375   2.232   2.032 -0.8230 -1.4451 -0.5438
17522SOL    HW264626   5.228   2.303   2.036  0.4751  1.2525  0.0383
17523SOL     OW64627   8.417   3.474   1.478 -0.6691  0.2312  0.0537
17523SOL    HW164628   8.395   3.545   1.546  0.0886 -0.1231  0.6879
17523SOL    HW264629   8.462   3.397   1.524  2.5115  1.2182 -1.2251
17524SOL     OW64630   7.515   5.012   2.341 -0.2552 -0.3801 -0.4621
17524SOL    HW164631   7.563   4.924   2.335  0.5671  0.0739 -0.6740
17524SOL    HW264632   7.500   5.048   2.249  3.3673  1.7959 -0.2976
17525SOL     OW64633   5.145   0.751   5.923  0.4575 -0.3969 -0.2280
17525SOL    HW164634   5.127   0.712   6.014  1.4700 -1.4354 -0.4672
17525SOL    HW264635   5.243   0.767   5.911  0.1958  0.9967 -0.6468
17526SOL     OW64636   2.696   5.309   1.833  0.4649  0.6782 -0.2764
17526SOL    HW164637   2.638   5.348   1.761 -0.0126 -1.4581 -1.0750
17526SOL    HW264638   2.777   5.268   1.791  0.7965  0.5189  0.5132
17527SOL     OW64639   4.186   9.518   5.795 -0.1829 -0.3924  0.6044
17527SOL    HW164640   4.240   9.568   5.726  0.8948 -1.1149  0.9284
17527SOL    HW264641   4.229   9.430   5.814 -0.6728 -0.3457  1.9565
17528SOL     OW64642   0.650   8.640   8.421 -0.4389 -0.1137  0.4551
17528SOL    HW164643   0.733   8.663   8.372  0.9502 -0.2800  2.6481
17528SOL    HW264644   0.570   8.661   8.364  1.0679  0.6231 -1.4298
17529SOL     OW64645   5.407   8.964   7.540 -0.1057 -0.3067  0.5247
17529SOL    HW164646   5.466   8.884   7.547  0.9821  0.4534  0.0324
17529SOL    HW264647   5.442   9.037   7.598 -1.1171 -0.1837  0.9987
17530SOL     OW64648   1.494   7.972   5.777  0.4755 -0.2054  0.0269
17530SOL    HW164649   1.546   7.911   5.718  0.5137  1.2849 -1.5370
17530SOL    HW264650   1.419   7.922   5.819  0.5300 -1.3360 -1.1785
17531SOL     OW64651   7.961   1.039   3.415  0.1866  0.7670  0.3429
17531SOL    HW164652   7.946   1.134   3.385  0.1566 -0.2476 -2.9800
17531SOL    HW264653   7.874   0.999   3.442 -0.3413  0.6726 -1.4322
17532SOL     OW64654   8.961   0.155   5.158 -0.6025 -0.4292 -0.5874
17532SOL    HW164655   8.895   0.156   5.234  0.9915  1.5393  0.8132
17532SOL    HW264656   8.923   0.206   5.081 -0.4792  1.2593  0.4489
17533SOL     OW64657   4.006   6.731   1.277 -0.0535  0.0694 -0.4425
17533SOL    HW164658   4.082   6.669   1.296 -0.5728 -0.6357 -0.6335
17533SOL    HW264659   4.035   6.798   1.208  0.3040 -0.3858 -0.7455
17534SOL     OW64660   0.955   4.867   3.728  0.5785  0.2506  0.2622
17534SOL    HW164661   1.017   4.913   3.792  0.9570 -0.1830  0.2080
17534SOL    HW264662   0.987   4.880   3.635 -0.4024  1.5447  0.0856
17535SOL     OW64663   7.277   8.688   2.883  0.0846  0.4044 -0.0380
17535SOL    HW164664   7.192   8.636   2.895 -0.1799  0.9183  0.3144
17535SOL    HW264665   7.340   8.636   2.826 -0.8562  0.4603 -1.1375
17536SOL     OW64666   3.036   4.446   2.269  0.4589 -0.4233 -0.1815
17536SOL    HW164667   2.992   4.533   2.248  1.4965  0.1894  0.1391
17536SOL    HW264668   2.978   4.371   2.240 -0.3703  0.3834 -0.6111
17537SOL     OW64669   8.351   2.690   0.595 -0.5466  0.6125 -0.2948
17537SOL    HW164670   8.406   2.726   0.670 -0.1189  1.0405 -0.8119
17537SOL    HW264671   8.323   2.765   0.535  0.6531  0.0508 -1.5829
17538SOL     OW64672   6.661   1.446   3.742 -0.2431  0.0212  0.3539
17538SOL    HW164673   6.592   1.383   3.705  0.8024 -1.0174  0.1493
17538SOL    HW264674   6.685   1.514   3.673 -0.9654  0.3159  0.3851
17539SOL     OW64675   7.163   0.326   5.666 -0.0409 -0.0311  0.1980
17539SOL    HW164676   7.186   0.359   5.758 -0.6570  0.5961  0.1264
17539SOL    HW264677   7.115   0.397   5.616 -1.0322 -0.8942 -0.0956
17540SOL     OW64678   2.562   1.225   2.562 -0.5518  0.1783 -0.2540
17540SOL    HW164679   2.609   1.218   2.651  2.5125  0.6898 -1.7655
17540SOL    HW264680   2.573   1.138   2.513 -1.3220  0.2613 -0.5665
17541SOL     OW64681   3.167   2.608   9.296 -0.3117  0.3295  0.1536
17541SOL    HW164682   3.147   2.543   9.370  0.9392 -1.0778 -0.7076
17541SOL    HW264683   3.092   2.608   9.230  0.4894 -1.6787 -0.8152
17542SOL     OW64684   0.207   0.057   6.757  0.0789  0.3055 -0.2835
17542SOL    HW164685   0.246   0.019   6.841  1.6835  0.2814 -1.0230
17542SOL    HW264686   0.196  -0.016   6.690 -1.1405  0.3363 -0.1270
17543SOL     OW64687   1.137   8.727  -0.003  0.2065 -0.4265  0.1536
17543SOL    HW164688   1.142   8.754   0.093 -1.9516 -1.0959  0.4740
17543SOL    HW264689   1.208   8.660  -0.023  0.4667 -0.5179  1.3618
17544SOL     OW64690   8.364   4.140   4.461 -0.3019 -0.1348 -0.2287
17544SOL    HW164691   8.380   4.112   4.367  3.4198  0.4346  0.1573
17544SOL    HW264692   8.317   4.228   4.462  1.2104  0.7240 -1.6245
17545SOL     OW64693   3.989   3.524   9.844  0.2838 -0.1682  0.2534
17545SOL    HW164694   3.917   3.575   9.891  0.6561  0.7580 -0.1830
17545SOL    HW264695   4.042   3.586   9.786  0.4334 -1.1283 -0.6490
17546SOL     OW64696   2.454   1.947   2.694 -0.2389  0.2432  0.2944
17546SOL    HW164697   2.457   1.918   2.790  1.6436 -1.3112 -0.1892
17546SOL    HW264698   2.375   1.906   2.649 -1.1039  0.9445  1.1734
17547SOL     OW64699   6.861   4.071   8.183  0.6266 -0.3573 -0.2863
17547SOL    HW164700   6.951   4.091   8.145  0.7042 -0.0511  0.0627
17547SOL    HW264701   6.834   4.142   8.247 -0.1378 -0.1167 -0.8604
17548SOL     OW64702   3.138   7.633   0.253 -0.0117 -0.0550  0.7898
17548SOL    HW164703   3.216   7.571   0.246 -0.0587 -0.0264 -0.0483
17548SOL    HW264704   3.054   7.582   0.236  0.0058  0.3841 -0.6696
17549SOL     OW64705   3.319   3.929   5.117  0.2819  1.1396  0.3431
17549SOL    HW164706   3.391   3.997   5.101 -0.0414  0.7493 -3.0382
17549SOL    HW264707   3.231   3.965   5.084 -0.1231 -0.3732 -0.2556
17550SOL     OW64708   9.033   6.390   7.249 -0.4009 -0.0444  0.0910
17550SOL    HW164709   8.935   6.379   7.232 -0.3297  1.8548 -1.7122
17550SOL    HW264710   9.054   6.486   7.263  0.9573 -0.6302  2.3535
17551SOL     OW64711   6.458   9.312   7.405  0.0879 -0.0271 -0.2857
17551SOL    HW164712   6.380   9.357   7.361  0.5982  2.0702  0.9014
17551SOL    HW264713   6.425   9.237   7.463 -1.0271  0.6893  0.0120
17552SOL     OW64714   4.476   2.925   8.989  0.1606  0.4759 -0.0790
17552SOL    HW164715   4.492   2.833   8.953 -0.4858  0.7558 -1.0790
17552SOL    HW264716   4.548   2.947   9.056  0.7305 -0.4660 -0.3730
17553SOL     OW64717   0.988   2.520   2.939  0.3747 -0.1045  0.7284
17553SOL    HW164718   1.051   2.521   2.861  0.4811 -1.1941  0.7934
17553SOL    HW264719   0.894   2.521   2.906  0.4179 -1.1714  0.5696
17554SOL     OW64720   7.353   1.752   6.111  0.1942  0.7740  0.2768
17554SOL    HW164721   7.438   1.801   6.092 -0.7497  2.4000  0.1262
17554SOL    HW264722   7.296   1.751   6.029 -0.1338  0.1033  0.5083
17555SOL     OW64723   2.287   6.961   0.408 -0.2545 -0.1276  0.2637
17555SOL    HW164724   2.239   6.887   0.361  2.8683 -1.4949 -0.8958
17555SOL    HW264725   2.323   6.927   0.495 -0.7455  0.6939  0.7985
17556SOL     OW64726   1.426   6.376   5.792 -0.0078  0.0915  0.3531
17556SOL    HW164727   1.518   6.337   5.790  0.1636  0.4318  1.0965
17556SOL    HW264728   1.431   6.472   5.822 -0.6419 -0.0177  0.8330
17557SOL     OW64729   3.080   3.472   4.571 -0.2374 -0.3266  0.0627
17557SOL    HW164730   3.128   3.455   4.657  0.0193 -1.3865 -0.2763
17557SOL    HW264731   3.009   3.541   4.584  0.6252  0.4287  0.8369
17558SOL     OW64732   2.837   0.411   7.047  0.2113  0.0836  0.1104
17558SOL    HW164733   2.922   0.407   7.100  0.5523 -3.3321 -0.5519
17558SOL    HW264734   2.857   0.396   6.951 -1.0583 -0.1257 -0.1297
17559SOL     OW64735   1.183   2.897   8.216 -0.8112  0.2161 -0.2044
17559SOL    HW164736   1.277   2.899   8.251 -0.8982  0.6410  0.0018
17559SOL    HW264737   1.119   2.919   8.289 -0.9835  1.2341 -0.6516
17560SOL     OW64738   9.895   3.203   3.934  0.0374  0.2527 -0.2333
17560SOL    HW164739   9.810   3.161   3.902  0.1175 -0.0435 -0.0667
17560SOL    HW264740   9.924   3.159   4.019  0.1866  0.5705 -0.1200
17561SOL     OW64741   1.449   9.403   2.284 -0.0277 -0.2993 -0.2879
17561SOL    HW164742   1.450   9.498   2.252 -0.7172  0.2836  1.3759
17561SOL    HW264743   1.398   9.346   2.219  1.2770  0.2435 -1.8349
17562SOL     OW64744   4.973   2.799   5.336  0.2180 -0.4644  0.1327
17562SOL    HW164745   4.967   2.897   5.356 -0.2423 -0.5214  0.2777
17562SOL    HW264746   5.059   2.780   5.287  1.0002 -0.2142  1.3944
17563SOL     OW64747   3.424   9.380   9.440  0.4147  0.8013 -0.6015
17563SOL    HW164748   3.361   9.457   9.442 -1.9468 -1.0792  1.3429
17563SOL    HW264749   3.466   9.368   9.530  1.8881  0.6814 -1.2839
17564SOL     OW64750   7.435   1.140   9.926 -0.1855 -0.2766 -0.1640
17564SOL    HW164751   7.386   1.056   9.951  0.8110 -1.0335 -0.7292
17564SOL    HW264752   7.447   1.197  10.007  0.3970 -1.3423  0.5140
17565SOL     OW64753   6.620   4.805   2.237 -0.1041  0.7313 -0.1375
17565SOL    HW164754   6.532   4.838   2.272 -0.5384  0.0662 -0.6106
17565SOL    HW264755   6.690   4.875   2.254 -0.7663  1.3638  0.0261
17566SOL     OW64756   2.189   2.158   7.096  0.4789 -0.5335  0.2704
17566SOL    HW164757   2.193   2.111   7.184 -0.6750 -0.3694  0.4152
17566SOL    HW264758   2.097   2.195   7.082  1.2924  1.4904  0.0523
17567SOL     OW64759   9.226   7.073   0.964 -0.7259  0.9526 -0.5015
17567SOL    HW164760   9.194   7.108   1.052 -0.0643  0.6561 -0.1354
17567SOL    HW264761   9.149   7.032   0.914 -1.2992  1.9862 -0.4901
17568SOL     OW64762   4.332   9.385   9.167 -0.3520 -0.5028  0.5207
17568SOL    HW164763   4.348   9.446   9.089 -2.5152  1.2735  1.4246
17568SOL    HW264764   4.367   9.428   9.250  0.7823 -1.8262  0.7408
17569SOL     OW64765   2.297   3.056   4.397 -0.1333  0.3086 -0.2397
17569SOL    HW164766   2.360   3.128   4.370 -1.4566  1.5605 -0.0811
17569SOL    HW264767   2.245   3.025   4.317 -1.3575  1.3339  0.1438
17570SOL     OW64768   7.793   6.940   9.178 -0.2908  0.0757 -0.3745
17570SOL    HW164769   7.803   7.036   9.150  2.3423 -0.4451 -1.3436
17570SOL    HW264770   7.864   6.917   9.244 -1.2002 -1.1043  0.2077
17571SOL     OW64771   6.203   0.288   5.681  0.6572 -0.2572 -0.2013
17571SOL    HW164772   6.156   0.353   5.622 -0.0955 -0.9732 -0.3969
17571SOL    HW264773   6.156   0.200   5.677  1.4675 -0.7146  0.3266
17572SOL     OW64774   8.495   2.961   6.013 -0.0290 -0.1789  0.0456
17572SOL    HW164775   8.452   2.925   5.931 -1.6530 -0.3626  0.9407
17572SOL    HW264776   8.547   2.889   6.059  0.0471 -0.3371 -0.2963
17573SOL     OW64777   7.586   8.406   5.880  0.5137  0.0908  0.0417
17573SOL    HW164778   7.659   8.436   5.819  1.6536 -0.7719  0.9533
17573SOL    HW264779   7.528   8.340   5.832  0.2831  0.8334 -0.7079
17574SOL     OW64780   8.084   6.062   9.894 -0.1542 -0.5189 -0.2497
17574SOL    HW164781   7.986   6.062   9.911 -0.0992 -0.3138  0.0993
17574SOL    HW264782   8.115   5.970   9.870 -0.8620 -0.0761 -2.9671
17575SOL     OW64783   1.616   7.632   6.101 -0.3423 -0.2082  0.6575
17575SOL    HW164784   1.708   7.667   6.118  0.0333 -1.6315  1.6649
17575SOL    HW264785   1.612   7.592   6.009 -0.0214  0.0780  0.5194
17576SOL     OW64786   3.756   9.154   1.258  0.2495  0.0231 -0.3361
17576SOL    HW164787   3.845   9.109   1.263 -0.6778 -1.7629  0.4562
17576SOL    HW264788   3.684   9.085   1.256 -1.2777  1.4690  2.2197
17577SOL     OW64789   3.322   5.015   6.147 -0.0756 -0.1932 -0.5671
17577SOL    HW164790   3.282   4.930   6.112  2.5831 -1.1432 -1.4494
17577SOL    HW264791   3.304   5.022   6.245  1.1029 -2.6519 -0.1339
17578SOL     OW64792   2.061   9.333   7.529  0.2315 -0.0835 -0.0481
17578SOL    HW164793   2.120   9.285   7.464  0.0296 -0.9304  0.3897
17578SOL    HW264794   2.103   9.331   7.620 -0.7178 -1.1839  0.3864
17579SOL     OW64795   1.869   3.147   2.297  0.1134  0.2814  0.2776
17579SOL    HW164796   1.913   3.191   2.376  0.3275  2.3177 -0.9557
17579SOL    HW264797   1.938   3.120   2.231 -0.1487 -0.6370  0.3613
17580SOL     OW64798   4.922   2.773   4.610  0.6395 -0.3092 -0.5730
17580SOL    HW164799   5.013   2.735   4.625  1.2413  0.8707 -1.1459
17580SOL    HW264800   4.853   2.704   4.630  1.6524 -1.1189  0.1490
17581SOL     OW64801   3.912   4.280   2.606  0.0936 -0.4532  0.2975
17581SOL    HW164802   4.003   4.323   2.613  0.7780 -1.9605  0.7465
17581SOL    HW264803   3.908   4.225   2.523  0.1917 -1.7690  1.1526
17582SOL     OW64804   1.988   9.960   9.969 -0.3365 -0.2266 -0.0939
17582SOL    HW164805   1.982  10.050   9.926  0.6414  0.0691  0.3661
17582SOL    HW264806   2.042   9.899   9.910  0.8161  0.1137  0.5950
17583SOL     OW64807   2.921   7.259   4.945  0.4290 -0.6315  0.2280
17583SOL    HW164808   2.870   7.252   5.031 -0.5017 -1.5280 -0.3859
17583SOL    HW264809   2.898   7.345   4.900 -0.5002 -1.0003 -0.0120
17584SOL     OW64810   2.334   0.233   4.452  0.4242 -0.3198  0.5638
17584SOL    HW164811   2.271   0.181   4.510 -0.5001  0.0176 -0.1152
17584SOL    HW264812   2.296   0.324   4.436  2.3524  0.8147  2.3003
17585SOL     OW64813   4.826   4.747   2.562  0.4793  0.0969 -0.1781
17585SOL    HW164814   4.842   4.713   2.470 -2.0172  1.9455 -1.3365
17585SOL    HW264815   4.791   4.673   2.619  1.9519 -1.0316 -0.7092
17586SOL     OW64816   3.726   1.377   5.890 -0.4183  0.1433  0.1247
17586SOL    HW164817   3.767   1.447   5.831 -0.2324 -2.0298 -2.4015
17586SOL    HW264818   3.641   1.412   5.928  0.6572  2.4705  0.5111
17587SOL     OW64819   5.627   7.283   3.903 -0.4643  0.1069 -0.2704
17587SOL    HW164820   5.713   7.232   3.900 -0.1017  0.7078 -0.2295
17587SOL    HW264821   5.602   7.299   3.999  0.2223  1.3282 -0.2872
17588SOL     OW64822   0.326   4.483   6.082  0.3246 -0.0322 -0.4788
17588SOL    HW164823   0.387   4.547   6.129  1.2385 -1.0470 -0.2656
17588SOL    HW264824   0.381   4.419   6.028 -0.5907 -0.5744 -0.7679
17589SOL     OW64825   4.136   6.342   3.291 -0.2956 -0.0496  0.8548
17589SOL    HW164826   4.190   6.347   3.207 -1.1951  0.3705  0.2927
17589SOL    HW264827   4.196   6.348   3.371  0.2895  2.6782  0.2411
17590SOL     OW64828   0.932   4.537   2.218  0.2114  0.4698 -0.1274
17590SOL    HW164829   0.868   4.505   2.287  1.2491  0.4756  0.8662
17590SOL    HW264830   0.957   4.461   2.158 -1.3677  0.6680 -1.0598
17591SOL     OW64831   4.307   0.210   8.153 -0.4786 -0.7667  0.5078
17591SOL    HW164832   4.344   0.186   8.063  0.6351  0.5567  0.5918
17591SOL    HW264833   4.285   0.307   8.155 -0.1031 -0.6972  1.7883
17592SOL     OW64834   8.214   3.149   0.367  0.3486 -0.0088 -0.1896
17592SOL    HW164835   8.209   3.249   0.375 -0.5669 -0.0488 -0.2226
17592SOL    HW264836   8.271   3.112   0.441  1.5662  0.6184 -0.7866
17593SOL     OW64837   3.701   5.235   1.616  0.1570 -0.5963 -0.0979
17593SOL    HW164838   3.774   5.252   1.683 -0.4523 -0.4601  0.5433
17593SOL    HW264839   3.686   5.317   1.562 -0.1248 -0.3332  0.3732
17594SOL     OW64840   9.321   3.767   1.892  0.5654 -0.1907 -0.7556
17594SOL    HW164841   9.272   3.687   1.860  0.3734  0.1549 -1.3379
17594SOL    HW264842   9.279   3.850   1.854 -1.0878  0.4024  2.1800
17595SOL     OW64843   9.835   0.858   9.689 -0.2723 -0.3125  0.2427
17595SOL    HW164844   9.761   0.824   9.631  0.2813  0.8381 -1.1871
17595SOL    HW264845   9.919   0.808   9.669  0.1236  0.6590 -0.6038
17596SOL     OW64846   3.139   0.329   4.501 -0.1968 -0.0148 -1.0825
17596SOL    HW164847   3.089   0.396   4.556 -0.2244 -0.0982 -1.0057
17596SOL    HW264848   3.203   0.377   4.441  2.8581 -0.0365  1.9805
17597SOL     OW64849   4.811   3.265   5.549 -0.3152 -0.4718  0.8463
17597SOL    HW164850   4.870   3.192   5.584 -1.0023 -0.9013  1.1127
17597SOL    HW264851   4.853   3.306   5.468 -1.4812 -3.3634 -1.2850
17598SOL     OW64852   2.609   5.030   0.340 -0.1724  0.4565 -0.4665
17598SOL    HW164853   2.558   5.116   0.347  0.6956  1.1403 -2.1962
17598SOL    HW264854   2.594   4.990   0.250  2.1832  0.5981 -0.9671
17599SOL     OW64855   1.833   8.697   8.437  0.5711  0.3546 -0.3366
17599SOL    HW164856   1.839   8.711   8.536  0.3575  1.8096 -0.5172
17599SOL    HW264857   1.915   8.649   8.405  0.4413 -0.5074  0.6092
17600SOL     OW64858   0.567   2.510   5.460 -0.1624  0.1916 -0.1309
17600SOL    HW164859   0.605   2.467   5.378  2.5225  0.2730  1.0037
17600SOL    HW264860   0.506   2.445   5.506  3.0155 -2.1248  0.9780
17601SOL     OW64861   8.661   1.459   4.679 -0.1530  0.1728 -0.8261
17601SOL    HW164862   8.737   1.495   4.626 -1.2568  1.0045 -1.8658
17601SOL    HW264863   8.590   1.529   4.687 -1.3290 -0.9931 -0.8856
17602SOL     OW64864   3.959   8.122   4.401 -0.0835 -1.1848 -0.0470
17602SOL    HW164865   3.944   8.191   4.330  2.1782 -1.7957 -1.1688
17602SOL    HW264866   3.872   8.095   4.441 -1.2019  0.5687 -1.2713
17603SOL     OW64867   2.933   0.846   8.389 -0.2344 -0.2847  0.2686
17603SOL    HW164868   2.922   0.850   8.489 -1.0232 -1.4706  0.2348
17603SOL    HW264869   2.843   0.846   8.346  0.1167  0.7867 -0.4784
17604SOL     OW64870   5.142   1.306   9.648 -0.3837  0.0625 -0.1441
17604SOL    HW164871   5.082   1.381   9.675  1.8056  1.0653  2.1004
17604SOL    HW264872   5.136   1.232   9.715 -1.5356 -1.2536 -1.6542
17605SOL     OW64873   9.297   6.913   5.206 -0.0747 -0.0341 -0.4539
17605SOL    HW164874   9.355   6.835   5.229  0.5981  0.4449 -0.5040
17605SOL    HW264875   9.202   6.891   5.225  0.2674 -0.3295  1.0227
17606SOL     OW64876   9.956   3.545   9.190 -0.5290 -0.0848  0.2812
17606SOL    HW164877   9.886   3.502   9.134 -1.0616  0.8019  0.2495
17606SOL    HW264878   9.913   3.601   9.261  0.1433  0.8620 -0.0434
17607SOL     OW64879   5.845   2.037   8.841 -0.1703  0.4747 -0.3149
17607SOL    HW164880   5.934   2.051   8.799  0.6636  0.3412  1.3858
17607SOL    HW264881   5.796   1.965   8.791  0.6244  0.5965 -1.2897
17608SOL     OW64882   9.624   9.112   3.414 -0.0359 -0.3214 -0.3937
17608SOL    HW164883   9.676   9.192   3.443 -0.9928  0.4758 -0.8847
17608SOL    HW264884   9.604   9.056   3.495  0.0880  0.2442  0.0365
17609SOL     OW64885   9.791   3.456   1.619  0.1818  0.2022 -0.7112
17609SOL    HW164886   9.868   3.456   1.682  0.5673 -0.6436 -1.1843
17609SOL    HW264887   9.710   3.418   1.665  0.6120 -0.9675 -0.9075
17610SOL     OW64888   8.712   6.066   9.975 -0.5106  0.2575 -0.0833
17610SOL    HW164889   8.658   6.006   9.915 -0.6449  0.2922  0.0019
17610SOL    HW264890   8.739   6.148   9.924 -0.7081  0.3329 -0.0660
17611SOL     OW64891   2.512   5.057   7.586  0.0828  0.1444 -0.1332
17611SOL    HW164892   2.451   5.034   7.661 -0.3410  0.9930 -0.2191
17611SOL    HW264893   2.564   4.975   7.560 -0.9742 -0.5725 -0.0307
17612SOL     OW64894   8.223   0.856   8.268 -0.2667 -0.0276 -0.3910
17612SOL    HW164895   8.173   0.807   8.339  1.8582 -1.9297 -0.1483
17612SOL    HW264896   8.247   0.793   8.194  0.0828  1.2825 -1.4149
17613SOL     OW64897   5.336   4.354   1.080  0.2691  0.3295  0.7433
17613SOL    HW164898   5.423   4.396   1.052 -0.6935  0.7951 -1.5979
17613SOL    HW264899   5.347   4.254   1.081 -0.1611  0.1765 -3.1605
17614SOL     OW64900   7.849   3.296   9.089 -0.1532  0.6668 -0.4020
17614SOL    HW164901   7.797   3.269   9.171  0.6464  1.5300  0.4035
17614SOL    HW264902   7.944   3.266   9.098 -0.9603 -3.0266 -2.9189
17615SOL     OW64903   7.940   3.768   8.365 -0.2346  0.0877 -0.1269
17615SOL    HW164904   8.009   3.784   8.294 -0.5419  0.4830 -0.3394
17615SOL    HW264905   7.963   3.685   8.416  0.9569  0.7889  0.4750
17616SOL     OW64906   4.849   8.706   3.181  0.8084 -0.2185 -0.1425
17616SOL    HW164907   4.860   8.624   3.126  3.6412 -0.1168  0.1922
17616SOL    HW264908   4.888   8.691   3.272  2.5046  1.8669 -0.4749
17617SOL     OW64909   9.305   6.425   0.656  0.2041  0.5596  0.4238
17617SOL    HW164910   9.245   6.484   0.602 -0.0003 -0.8054 -0.8490
17617SOL    HW264911   9.398   6.462   0.656  0.5792 -0.3170 -2.2656
17618SOL     OW64912   5.397   1.476   0.964 -0.1434 -0.6814  0.0190
17618SOL    HW164913   5.298   1.467   0.959 -0.2710  0.9744 -0.8919
17618SOL    HW264914   5.422   1.529   1.045 -0.1918  1.1185 -1.1092
17619SOL     OW64915   9.721   1.413   9.624  0.1238 -0.2816 -0.0838
17619SOL    HW164916   9.694   1.382   9.533 -2.6090  0.8191  0.2965
17619SOL    HW264917   9.643   1.408   9.685  1.5618  0.3500  1.8601
17620SOL     OW64918   6.836   0.615   6.289 -0.3265  0.2186 -0.3269
17620SOL    HW164919   6.912   0.626   6.225  0.4307  1.4736  0.7425
17620SOL    HW264920   6.817   0.703   6.333 -0.6860 -0.6582  1.3268
17621SOL     OW64921   1.012   1.574   3.089  0.5618  0.2467  0.7394
17621SOL    HW164922   1.010   1.671   3.063 -0.2954  0.6452  2.2376
17621SOL    HW264923   1.081   1.560   3.159 -2.2190  0.6321  3.6850
17622SOL     OW64924   2.782   6.169   6.960  0.0320  0.1021  0.4383
17622SOL    HW164925   2.865   6.211   6.997  0.7250 -0.8097 -0.0602
17622SOL    HW264926   2.738   6.233   6.897  0.6878  0.3627  0.2387
17623SOL     OW64927   7.102   5.210   8.217  0.2305  0.0534 -0.1718
17623SOL    HW164928   7.048   5.129   8.239  0.2937 -0.2727 -1.1906
17623SOL    HW264929   7.102   5.224   8.118  0.0090  1.4559  0.0249
17624SOL     OW64930   3.534   1.320   7.659 -0.0433 -0.1923  0.0726
17624SOL    HW164931   3.602   1.307   7.587  0.1639 -1.9971  0.5776
17624SOL    HW264932   3.465   1.386   7.628  0.5799 -0.1967 -1.3808
17625SOL     OW64933   6.582   9.198   2.430 -0.4398  0.0630  0.5812
17625SOL    HW164934   6.563   9.103   2.404  2.2397 -0.2265 -0.4028
17625SOL    HW264935   6.624   9.200   2.521  1.9730  0.0448 -0.4897
17626SOL     OW64936   9.141   0.747   9.130  0.1059 -0.0507 -0.2547
17626SOL    HW164937   9.077   0.821   9.108  0.1641 -0.2272 -1.0403
17626SOL    HW264938   9.126   0.671   9.067 -0.4754 -1.0284  1.0280
17627SOL     OW64939   4.674   5.510   5.200  0.3140  0.3639 -0.2265
17627SOL    HW164940   4.727   5.540   5.279 -1.1356  2.0019  0.1482
17627SOL    HW264941   4.591   5.463   5.231  1.3140 -1.8630 -0.8034
17628SOL     OW64942   5.584   1.839   8.870  0.2005  0.3049  0.2268
17628SOL    HW164943   5.671   1.796   8.894  0.0588  0.2130  0.5852
17628SOL    HW264944   5.591   1.880   8.780  0.8417  0.9181  0.5531
17629SOL     OW64945   5.312   3.513   1.442  0.0196  0.5840 -0.1538
17629SOL    HW164946   5.231   3.568   1.465  0.3769  0.6789  0.9014
17629SOL    HW264947   5.392   3.552   1.487  0.5247  0.0250 -0.5611
17630SOL     OW64948   5.198   4.826   1.821  0.0143 -0.2468 -0.0992
17630SOL    HW164949   5.292   4.798   1.834  0.1401  0.1893 -0.0598
17630SOL    HW264950   5.143   4.748   1.792 -0.0121 -0.9144  1.7541
17631SOL     OW64951   5.661   0.007   5.878 -0.2694  0.4519 -0.1120
17631SOL    HW164952   5.731  -0.047   5.831 -1.1200 -0.7265 -0.0394
17631SOL    HW264953   5.670  -0.007   5.977  0.1817  1.2864 -0.0293
17632SOL     OW64954   8.748   3.066   2.912  0.0658 -0.0153  0.3235
17632SOL    HW164955   8.768   3.029   2.821  1.3298  0.5675  0.3557
17632SOL    HW264956   8.649   3.078   2.923 -0.0119  1.0325 -1.4194
17633SOL     OW64957   3.018   4.945   7.667  0.1792  0.4079  0.4769
17633SOL    HW164958   3.076   4.898   7.600 -1.0275  0.3274 -0.5449
17633SOL    HW264959   2.961   4.877   7.714  0.8124  0.4992  1.3843
17634SOL     OW64960   5.785   8.294   2.800  0.6159 -0.0874  0.4676
17634SOL    HW164961   5.854   8.364   2.821  1.2484 -0.3400 -0.7440
17634SOL    HW264962   5.796   8.263   2.706 -1.6173  0.3575  0.0317
17635SOL     OW64963   3.658   5.915   9.341  0.0715 -0.2718 -0.4806
17635SOL    HW164964   3.585   5.849   9.324 -0.3091 -0.0730  0.3569
17635SOL    HW264965   3.635   6.002   9.297  0.0711 -0.3831 -0.6992
17636SOL     OW64966   7.324   6.157   8.583  0.1780  0.8146  0.4630
17636SOL    HW164967   7.262   6.163   8.506  0.0708  0.9849  0.5625
17636SOL    HW264968   7.354   6.248   8.609 -0.3763  0.8162  1.1031
17637SOL     OW64969   8.585   5.030   2.784  0.6875  0.0402  0.2134
17637SOL    HW164970   8.595   5.104   2.718 -1.7477  0.2589  0.0276
17637SOL    HW264971   8.609   5.064   2.875 -0.2967  1.0693  0.1151
17638SOL     OW64972   2.787   9.296   8.519 -0.1469 -0.0219  0.4805
17638SOL    HW164973   2.760   9.257   8.607 -0.0899 -0.6406  0.2253
17638SOL    HW264974   2.822   9.389   8.533 -1.2797  0.3390  0.9565
17639SOL     OW64975   0.926   0.998   1.833  0.1738 -0.0435 -0.0118
17639SOL    HW164976   0.946   1.008   1.736  1.4963 -0.2768  0.2347
17639SOL    HW264977   0.872   0.915   1.848  0.4077 -0.2781 -0.4789
17640SOL     OW64978   2.463   9.927   4.344  0.3673  0.1529  0.8548
17640SOL    HW164979   2.460   9.977   4.257 -0.1483 -1.2702  0.0422
17640SOL    HW264980   2.395   9.967   4.406  1.0303  1.4520  0.7782
17641SOL     OW64981   7.814   2.554   3.116 -0.0235 -0.0267 -0.1558
17641SOL    HW164982   7.775   2.497   3.043  1.4457 -1.3495  0.0471
17641SOL    HW264983   7.785   2.649   3.104 -2.0907 -0.7093 -0.8248
17642SOL     OW64984   9.205   1.430   6.625 -0.3759 -0.3337 -0.0822
17642SOL    HW164985   9.120   1.432   6.572  0.2027  0.8021 -0.9962
17642SOL    HW264986   9.281   1.408   6.565  0.2023  0.3760  0.3796
17643SOL     OW64987   2.395   4.972   6.165 -0.4104  0.2578 -0.1113
17643SOL    HW164988   2.406   4.874   6.185 -1.0382  0.1851 -0.0964
17643SOL    HW264989   2.301   4.999   6.187  0.4803  1.4534  2.3707
17644SOL     OW64990   3.943   0.152   3.646  0.0271 -0.6059 -0.2118
17644SOL    HW164991   3.921   0.207   3.566  1.6345  0.5344  0.0993
17644SOL    HW264992   3.993   0.070   3.618  0.2832 -0.3829 -0.4020
17645SOL     OW64993   2.603   7.740   1.652  0.2194  0.2695  0.6145
17645SOL    HW164994   2.586   7.825   1.703 -1.0377 -0.0325  0.7129
17645SOL    HW264995   2.585   7.662   1.711  1.8854 -0.0742  0.6807
17646SOL     OW64996   7.239   1.368   0.885  0.4362 -0.2957  0.5390
17646SOL    HW164997   7.247   1.468   0.878  0.2433 -0.3211 -0.1075
17646SOL    HW264998   7.322   1.326   0.848 -0.7070 -0.4448 -1.9642
17647SOL     OW64999   7.911   0.924   7.122  0.5162  0.6062 -0.0128
17647SOL    HW165000   7.920   0.841   7.178 -0.2334  1.8198  1.9335
17647SOL    HW265001   8.000   0.945   7.080  1.1902 -0.1025  1.0331
17648SOL     OW65002   3.187   3.127   1.234 -0.2983 -0.0792 -0.0484
17648SOL    HW165003   3.131   3.044   1.224 -1.4185  0.6628  0.0117
17648SOL    HW265004   3.158   3.195   1.167  1.3272 -0.1050 -0.8058
17649SOL     OW65005   3.576   0.179   6.686 -0.3525  0.2261  0.2511
17649SOL    HW165006   3.580   0.215   6.593 -0.4090 -1.8117 -0.5589
17649SOL    HW265007   3.532   0.089   6.686  2.0983 -1.0337  1.8541
17650SOL     OW65008   5.751   0.577   3.651  0.0381  0.4099 -0.1323
17650SOL    HW165009   5.813   0.615   3.582 -0.2102 -0.2706 -0.7379
17650SOL    HW265010   5.656   0.589   3.621 -0.0404 -0.6974 -0.3443
17651SOL     OW65011   0.075   7.383   6.779 -1.1437 -0.3235  0.0034
17651SOL    HW165012   0.102   7.461   6.836 -0.6578 -0.1640 -0.4444
17651SOL    HW265013  -0.013   7.403   6.735  0.0389  0.8900 -1.8583
17652SOL     OW65014   2.193   4.728   1.082 -0.3226  0.7804  0.2527
17652SOL    HW165015   2.260   4.655   1.099 -0.0595  1.1370  0.7484
17652SOL    HW265016   2.238   4.817   1.091 -0.2993  0.9953 -1.7135
17653SOL     OW65017   0.054   1.749   4.970  0.0553 -0.1107  0.3943
17653SOL    HW165018   0.049   1.679   4.900 -1.4975 -1.0992  1.4630
17653SOL    HW265019  -0.035   1.793   4.980  0.9325  1.8424 -0.0616
17654SOL     OW65020   4.037   8.914   7.301  0.2330 -0.0338 -0.3939
17654SOL    HW165021   3.957   8.874   7.346 -0.0446 -0.7015 -1.4857
17654SOL    HW265022   4.084   8.974   7.366  0.4368 -1.8191  1.1462
17655SOL     OW65023   6.719   1.341   0.449 -0.6917  0.3186 -0.5041
17655SOL    HW165024   6.807   1.381   0.474 -0.0739  0.5217 -2.9173
17655SOL    HW265025   6.731   1.243   0.430 -0.8441  0.5056 -1.5692
17656SOL     OW65026   7.732   5.088   8.147  0.2911  0.2392 -0.1558
17656SOL    HW165027   7.785   5.020   8.197 -0.4900 -0.1062  0.2207
17656SOL    HW265028   7.782   5.116   8.065 -0.1723 -2.1686 -1.2959
17657SOL     OW65029   4.883   9.005   4.448  0.1564 -0.4797 -0.1638
17657SOL    HW165030   4.932   9.024   4.533  0.8447 -0.4262 -0.5670
17657SOL    HW265031   4.798   9.058   4.446 -0.6378 -1.6595  1.1787
17658SOL     OW65032   0.360   7.577   2.518 -0.4393  0.1036  0.0582
17658SOL    HW165033   0.421   7.567   2.597 -0.0877 -0.4929 -0.2778
17658SOL    HW265034   0.280   7.519   2.531  0.0029 -0.6191 -0.3789
17659SOL     OW65035   1.743   1.741   7.002 -0.0463 -0.2930 -0.0777
17659SOL    HW165036   1.748   1.678   6.925 -1.3175 -0.7624  0.1959
17659SOL    HW265037   1.725   1.833   6.969  0.3776 -0.3251 -0.3971
17660SOL     OW65038   8.016   9.667   5.799 -0.2792  0.3654 -0.3954
17660SOL    HW165039   8.009   9.574   5.763 -1.6963  0.1943  0.3049
17660SOL    HW265040   8.113   9.692   5.807  0.1089 -0.9587 -0.8020
17661SOL     OW65041   9.169   4.087   7.379 -0.3792 -0.0887 -0.2747
17661SOL    HW165042   9.189   4.030   7.299  1.9650 -0.7415  0.7611
17661SOL    HW265043   9.178   4.032   7.462  0.7993  1.4985  0.6651
17662SOL     OW65044   3.506   7.102   1.895 -0.0239  0.0839  0.0738
17662SOL    HW165045   3.452   7.093   1.979 -0.3347 -1.7953 -0.2955
17662SOL    HW265046   3.463   7.169   1.834 -0.1483  0.9796  1.1455
17663SOL     OW65047   3.921   0.897   6.009  0.8567 -0.0310  0.0262
17663SOL    HW165048   3.878   0.814   6.044  3.4936 -1.3952  0.1059
17663SOL    HW265049   4.010   0.910   6.053  1.5060  1.5709 -1.6818
17664SOL     OW65050   8.836   0.754   8.726 -0.3814  0.0566 -0.4958
17664SOL    HW165051   8.848   0.682   8.794 -0.7706 -0.1754 -0.6645
17664SOL    HW265052   8.760   0.813   8.753 -2.3973 -1.6869 -2.0894
17665SOL     OW65053   0.341   5.455   3.453 -0.5730 -0.0225 -0.1173
17665SOL    HW165054   0.301   5.406   3.530  0.5347  1.6115  1.5361
17665SOL    HW265055   0.313   5.551   3.455  0.1037  0.2157 -1.2878
17666SOL     OW65056   3.211   6.432   8.175 -0.2820  0.3107 -0.5231
17666SOL    HW165057   3.303   6.464   8.150  0.3419 -0.3677  0.8184
17666SOL    HW265058   3.218   6.339   8.212 -1.6239 -0.0548 -1.1708
17667SOL     OW65059   3.055   0.163   2.634  0.2168 -0.2835 -0.1735
17667SOL    HW165060   3.076   0.182   2.538 -0.4818  1.6047  0.0248
17667SOL    HW265061   2.965   0.201   2.656  0.2766 -0.9115  1.1719
17668SOL     OW65062   2.926   3.456   8.122  0.1432 -0.4772 -0.0120
17668SOL    HW165063   3.019   3.420   8.129  0.2284 -0.3867 -0.6477
17668SOL    HW265064   2.927   3.544   8.073 -0.4190 -1.0861 -1.1360
17669SOL     OW65065   7.226   5.231   2.062 -0.0374  0.0221 -0.3510
17669SOL    HW165066   7.190   5.219   1.970 -3.7848  2.1543  0.7460
17669SOL    HW265067   7.200   5.153   2.119 -0.2676  0.1191 -0.3257
17670SOL     OW65068   9.634   8.727   1.873  0.1701 -0.1400 -0.4508
17670SOL    HW165069   9.581   8.680   1.801  1.0724 -2.2759  0.2260
17670SOL    HW265070   9.624   8.677   1.959  1.8869  0.4243  0.0942
17671SOL     OW65071   7.529   3.901   1.505  0.5571 -0.2495  0.1729
17671SOL    HW165072   7.443   3.899   1.454  0.2567  1.0196  0.6288
17671SOL    HW265073   7.527   3.974   1.573  2.0377 -0.1132  0.1009
17672SOL     OW65074   9.583   6.646   2.203 -0.2689  0.0822  0.6837
17672SOL    HW165075   9.646   6.724   2.194  0.5206 -0.6419 -0.1785
17672SOL    HW265076   9.555   6.615   2.112 -2.3868  0.7909  1.0723
17673SOL     OW65077   1.050   6.018   9.976  0.3793 -0.0948  0.2084
17673SOL    HW165078   0.988   5.978   9.908 -0.0940  1.4284 -0.2973
17673SOL    HW265079   1.038   6.118   9.977  3.3793  0.3284 -0.4552
17674SOL     OW65080   3.352   5.804   5.875  0.3368 -0.2313 -0.3883
17674SOL    HW165081   3.332   5.795   5.973  4.5344 -1.4666  0.4265
17674SOL    HW265082   3.314   5.890   5.842  0.5478  1.1830  2.8069
17675SOL     OW65083   2.605   2.673   7.082 -0.5794  0.8628 -0.3052
17675SOL    HW165084   2.581   2.699   6.988 -0.5145 -1.5412 -1.0180
17675SOL    HW265085   2.629   2.576   7.084  1.8256  1.4494  1.7599
17676SOL     OW65086   6.851   8.172   6.980  0.2091  0.4271 -0.1753
17676SOL    HW165087   6.753   8.190   6.989 -0.2210 -0.9863 -1.8174
17676SOL    HW265088   6.880   8.188   6.886  1.5472  0.7931  0.2909
17677SOL     OW65089   6.718   8.070   5.447 -0.5949 -0.1699  0.1090
17677SOL    HW165090   6.779   8.002   5.405  0.5168 -1.3314  3.4043
17677SOL    HW265091   6.771   8.147   5.480 -1.2289 -0.0182  0.7956
17678SOL     OW65092   0.339   4.515   3.347 -0.8333  0.2276  0.1797
17678SOL    HW165093   0.420   4.545   3.295  0.0657  2.1910  2.5628
17678SOL    HW265094   0.368   4.482   3.436 -2.5630 -0.4529  0.5027
17679SOL     OW65095   1.964   1.288   3.347 -0.4526 -0.1574 -0.0452
17679SOL    HW165096   1.864   1.295   3.342 -0.3569  0.6961 -0.8519
17679SOL    HW265097   2.004   1.379   3.346  0.4046 -0.5327 -1.4369
17680SOL     OW65098   8.423   8.273   1.438  0.1716  0.0636  0.2993
17680SOL    HW165099   8.412   8.179   1.407  0.2497  0.4488 -0.9183
17680SOL    HW265100   8.409   8.336   1.362  1.4085  0.9939  0.8116
17681SOL     OW65101   0.798   3.120   0.345 -0.8132  0.3172  0.0056
17681SOL    HW165102   0.894   3.118   0.373  0.1557  0.3183 -3.0696
17681SOL    HW265103   0.754   3.033   0.368  0.1989 -0.0581  0.5207
17682SOL     OW65104   7.302   5.902   1.013  0.6137  0.0566 -0.7880
17682SOL    HW165105   7.268   5.812   1.040  0.2182 -0.1052 -1.8118
17682SOL    HW265106   7.348   5.945   1.091  0.2411 -0.7591 -0.1122
17683SOL     OW65107   9.699   5.028   9.802 -0.7048 -0.3044 -0.0206
17683SOL    HW165108   9.600   5.044   9.806 -0.8382 -1.0060 -0.4431
17683SOL    HW265109   9.721   4.979   9.718  0.0723  0.3075 -0.1865
17684SOL     OW65110   2.167   5.634   7.399  0.3816 -0.2615  0.8983
17684SOL    HW165111   2.175   5.639   7.299 -0.9402 -0.9665  0.7456
17684SOL    HW265112   2.184   5.725   7.438 -1.8200  0.6714 -0.1998
17685SOL     OW65113   7.109   9.092   4.555  0.2214 -0.5132  0.2375
17685SOL    HW165114   7.125   9.088   4.654  0.8778  0.8478  0.1950
17685SOL    HW265115   7.065   9.007   4.525  1.0288 -1.4063  1.5172
17686SOL     OW65116   2.870   8.480   4.949 -0.2938 -0.3664  0.5598
17686SOL    HW165117   2.927   8.556   4.919  0.5125 -1.1230  0.1746
17686SOL    HW265118   2.922   8.395   4.944 -1.9967 -1.3312 -1.5669
17687SOL     OW65119   2.160   5.801   5.064 -0.1156 -0.4300 -0.8774
17687SOL    HW165120   2.254   5.768   5.068  0.1356  0.3075 -0.4338
17687SOL    HW265121   2.142   5.860   5.143 -1.4322 -1.8010 -0.1327
17688SOL     OW65122   5.520   0.901   6.338  0.2560 -0.6053  0.2385
17688SOL    HW165123   5.517   0.813   6.385 -0.7722 -0.8585 -0.2715
17688SOL    HW265124   5.440   0.909   6.278 -0.0675  1.0048  0.8672
17689SOL     OW65125   9.848   8.929   9.361 -0.0488  0.3037  0.1125
17689SOL    HW165126   9.786   8.854   9.336 -0.9520  1.3333 -0.8207
17689SOL    HW265127   9.822   9.011   9.310  2.8781  0.4486 -1.2614
17690SOL     OW65128   2.430   8.461   9.069 -0.4927 -0.0734 -0.1569
17690SOL    HW165129   2.467   8.549   9.040  0.6649 -0.9419 -1.3949
17690SOL    HW265130   2.367   8.474   9.145 -1.4546  1.9743 -1.2783
17691SOL     OW65131   9.235   4.339   3.132  0.3996 -0.0684 -0.0157
17691SOL    HW165132   9.195   4.415   3.184  0.5007 -1.0126  1.4851
17691SOL    HW265133   9.333   4.352   3.124  0.3700  0.1347 -0.0630
17692SOL     OW65134   7.800   9.073   6.535 -0.5275  0.4273  0.3840
17692SOL    HW165135   7.709   9.096   6.570 -0.3819  0.3240  0.8314
17692SOL    HW265136   7.840   9.153   6.490 -1.0040  0.3589 -0.1730
17693SOL     OW65137   6.837   3.808  10.005 -0.3844  0.3920  0.8135
17693SOL    HW165138   6.840   3.907   9.991 -1.1188  0.7833  3.2321
17693SOL    HW265139   6.759   3.770   9.956  1.1197  0.6611 -1.9094
17694SOL     OW65140   4.042   1.847   5.133 -0.4628 -0.0058  0.6065
17694SOL    HW165141   4.141   1.847   5.125 -0.3618  0.5226  1.7252
17694SOL    HW265142   4.005   1.931   5.095 -0.5869 -0.7074 -0.8596
17695SOL     OW65143   1.940   6.598   2.579  0.5729  0.4176 -0.7296
17695SOL    HW165144   1.953   6.572   2.483 -0.8500  0.9235 -1.0775
17695SOL    HW265145   1.913   6.694   2.584 -0.8176  0.0029  0.0624
17696SOL     OW65146   5.857   1.893   0.605 -0.9956  0.1879 -0.6674
17696SOL    HW165147   5.826   1.812   0.554 -1.1225 -0.6115  0.6550
17696SOL    HW265148   5.788   1.917   0.673 -0.2232  0.4466  0.0208
17697SOL     OW65149   2.113   7.938   8.857 -0.2796  1.0467  0.6660
17697SOL    HW165150   2.167   7.992   8.922  0.6942 -0.9737  1.5972
17697SOL    HW265151   2.027   7.985   8.838  0.1715  2.4990  2.1084
17698SOL     OW65152   6.585   2.466   3.445 -0.0867 -0.5104  0.3481
17698SOL    HW165153   6.683   2.488   3.438  0.1776 -1.9648 -1.0330
17698SOL    HW265154   6.532   2.533   3.394  0.2028  0.2044  0.9828
17699SOL     OW65155   2.308   2.642   8.952 -0.3965 -0.3090  0.6798
17699SOL    HW165156   2.276   2.728   8.914 -1.8699 -1.0882  0.0998
17699SOL    HW265157   2.243   2.610   9.021 -0.6780 -1.7163 -0.2217
17700SOL     OW65158   5.166   2.730   1.582  0.3156  0.2336  0.0332
17700SOL    HW165159   5.098   2.797   1.553 -0.4706 -1.0244 -1.0874
17700SOL    HW265160   5.194   2.750   1.677 -0.4833  1.6446 -0.0089
17701SOL     OW65161   9.779   1.729   4.986 -0.3434  0.0273 -0.9035
17701SOL    HW165162   9.692   1.777   4.995 -1.0368 -1.4133  0.2828
17701SOL    HW265163   9.763   1.635   4.956  0.8765  0.0205 -1.5766
17702SOL     OW65164   0.205   1.027   7.648  0.0112 -0.4732  0.4775
17702SOL    HW165165   0.118   1.036   7.697  0.3514  0.6706  0.8664
17702SOL    HW265166   0.191   0.969   7.567 -1.1322 -0.2129  0.4782
17703SOL     OW65167   7.040   9.026   7.214 -0.4682  0.1580  0.0410
17703SOL    HW165168   6.982   9.048   7.135 -0.0916  0.7559 -0.0738
17703SOL    HW265169   7.034   8.928   7.234  0.8154 -0.3308 -1.8329
17704SOL     OW65170   8.200   1.090   4.995  0.1591  0.3893  0.1039
17704SOL    HW165171   8.146   1.031   4.934  0.3893 -1.5782  1.7376
17704SOL    HW265172   8.293   1.097   4.961  0.4812 -1.3013  0.5791
17705SOL     OW65173   1.180   5.208   0.466 -0.6822 -0.6035  0.2466
17705SOL    HW165174   1.153   5.304   0.472 -0.0776 -0.5427  2.2702
17705SOL    HW265175   1.245   5.196   0.391 -0.1652  0.7207  0.4764
17706SOL     OW65176   3.545   0.530   6.949  0.7108  0.1949  0.2767
17706SOL    HW165177   3.594   0.612   6.979  1.1142 -0.1091  0.4594
17706SOL    HW265178   3.612   0.463   6.914  0.5056 -0.5477  1.2793
17707SOL     OW65179   4.660   2.748   9.602  0.2196 -0.2474  0.8053
17707SOL    HW165180   4.650   2.649   9.613  1.5969 -0.3792  0.9764
17707SOL    HW265181   4.645   2.773   9.506  2.0952 -0.9257  0.3170
17708SOL     OW65182   1.891   2.348   8.574  0.2339 -0.3898 -0.5503
17708SOL    HW165183   1.898   2.352   8.673  0.4213  0.8683 -0.6033
17708SOL    HW265184   1.858   2.258   8.546 -0.8897 -0.3794  0.7172
17709SOL     OW65185   7.674   3.664   9.383 -0.2975  0.0255 -0.3664
17709SOL    HW165186   7.620   3.583   9.358 -1.2948  0.3648  0.6316
17709SOL    HW265187   7.636   3.704   9.467  3.1851 -1.3111  1.9344
17710SOL     OW65188   0.704   8.904   3.290 -0.3436  0.1739  0.3558
17710SOL    HW165189   0.725   8.963   3.212  0.6732 -1.0218 -0.3078
17710SOL    HW265190   0.642   8.951   3.353 -3.4198  0.2134 -2.5241
17711SOL     OW65191   9.596   4.046   4.953 -0.2753  0.4717 -0.5659
17711SOL    HW165192   9.559   4.054   5.046 -1.2150 -1.0658 -0.7922
17711SOL    HW265193   9.695   4.056   4.956 -0.1650 -0.8685  0.7991
17712SOL     OW65194   5.428   1.880   1.385  0.2158  0.0096  0.2820
17712SOL    HW165195   5.347   1.841   1.341  1.2129 -2.0120  0.2042
17712SOL    HW265196   5.448   1.969   1.344 -0.6123 -0.5022 -1.2937
17713SOL     OW65197   6.272   0.669   5.323  0.2525 -0.2987  0.0279
17713SOL    HW165198   6.284   0.684   5.421 -2.6372  0.2618  0.3567
17713SOL    HW265199   6.256   0.572   5.305  0.3181 -0.3350  0.1672
17714SOL     OW65200   8.663   4.307   3.639  0.2385  0.8350 -0.0233
17714SOL    HW165201   8.721   4.315   3.721  0.4296 -4.6434  0.5809
17714SOL    HW265202   8.587   4.245   3.658 -1.3960  1.7485 -3.2012
17715SOL     OW65203   7.359   2.159   2.639 -0.4221 -0.5119  0.1629
17715SOL    HW165204   7.459   2.158   2.643 -0.4226  0.6572  0.6750
17715SOL    HW265205   7.324   2.066   2.631  0.7155 -0.9102 -0.1422
17716SOL     OW65206   8.447   1.642   4.754 -0.5693 -0.3827 -0.1547
17716SOL    HW165207   8.503   1.709   4.803 -0.9552 -0.1032 -0.0851
17716SOL    HW265208   8.441   1.667   4.658 -0.0541 -0.7652 -0.2854
17717SOL     OW65209   0.042   4.845   2.352  0.4505 -0.4349 -0.5098
17717SOL    HW165210   0.017   4.764   2.298  0.6774  0.4558 -1.9709
17717SOL    HW265211   0.101   4.904   2.298  0.5458  0.5655  0.6735
17718SOL     OW65212   5.243   2.752   4.519 -0.0519  0.3182 -0.0923
17718SOL    HW165213   5.194   2.798   4.444  0.2115  0.3387 -0.2502
17718SOL    HW265214   5.198   2.664   4.538  0.7346 -0.3416 -1.2297
17719SOL     OW65215   3.487   6.606   1.480 -0.6309  0.4829  0.3628
17719SOL    HW165216   3.459   6.633   1.572 -0.8361 -1.6115  0.9431
17719SOL    HW265217   3.583   6.632   1.466  0.0411 -1.0031  1.9516
17720SOL     OW65218   8.179   7.261   4.199  0.5559 -0.2780  1.1006
17720SOL    HW165219   8.197   7.162   4.198  2.8475  0.0930  1.9381
17720SOL    HW265220   8.256   7.308   4.242  1.4818  2.2949 -3.0640
17721SOL     OW65221   8.487   7.560   5.423  0.0853  0.5736 -0.1959
17721SOL    HW165222   8.404   7.605   5.390 -0.0140 -0.3133 -1.1913
17721SOL    HW265223   8.540   7.526   5.345  0.0592 -1.1934  0.5307
17722SOL     OW65224   9.959   9.500   2.814  0.2859  0.5825  0.2990
17722SOL    HW165225  10.035   9.536   2.761  0.2332  1.2721  0.6867
17722SOL    HW265226   9.873   9.536   2.778  0.1583 -0.0054  0.0102
17723SOL     OW65227   8.728   7.234   3.426 -1.0742  0.4975  0.3753
17723SOL    HW165228   8.734   7.285   3.340  0.5495 -0.3521 -0.0271
17723SOL    HW265229   8.698   7.140   3.407 -0.4369  0.2248  0.6976
17724SOL     OW65230   3.668   0.005   7.964  0.1848 -0.1098  0.7466
17724SOL    HW165231   3.633   0.084   7.912  0.0219 -1.1101 -0.6933
17724SOL    HW265232   3.760   0.027   7.999  0.2332  0.6463  0.1728
17725SOL     OW65233   9.696   5.627   0.461  0.0046  0.3977 -0.2328
17725SOL    HW165234   9.704   5.683   0.378 -0.4505  1.2538  0.2989
17725SOL    HW265235   9.632   5.552   0.443 -0.2677  0.7111 -0.5926
17726SOL     OW65236   1.908   1.790   6.684  0.0933  0.2483 -0.2383
17726SOL    HW165237   1.907   1.869   6.744  1.0888 -0.9060  1.3416
17726SOL    HW265238   1.868   1.711   6.731  1.4017 -0.8113 -0.8426
17727SOL     OW65239   7.044   8.461   2.908  0.0921 -0.0435 -0.3839
17727SOL    HW165240   7.125   8.405   2.926 -0.4097 -0.1827  1.6188
17727SOL    HW265241   6.965   8.421   2.955 -0.8687  0.7885 -1.2666
17728SOL     OW65242   0.352   0.948   9.970 -0.2141  0.3224  0.1731
17728SOL    HW165243   0.448   0.927   9.991 -0.8454 -2.1723  0.7170
17728SOL    HW265244   0.304   0.975  10.053 -0.6980 -1.4309  0.4875
17729SOL     OW65245   6.274   5.708   0.563  0.0129  0.1499  0.2360
17729SOL    HW165246   6.361   5.700   0.513 -0.7981  0.5209 -1.2487
17729SOL    HW265247   6.239   5.801   0.554  0.1623  0.4003  2.0482
17730SOL     OW65248   2.176   7.325   4.358  0.1569  0.2726  0.3621
17730SOL    HW165249   2.112   7.354   4.287 -1.3842 -1.0633  1.2041
17730SOL    HW265250   2.128   7.277   4.430  2.0046 -0.1274  1.3728
17731SOL     OW65251   4.236   5.118   4.623 -0.3067  0.5721 -0.7567
17731SOL    HW165252   4.270   5.132   4.530 -1.3218 -3.0705 -1.7812
17731SOL    HW265253   4.313   5.109   4.686  0.4619  0.1308 -1.7488
17732SOL     OW65254   8.653   2.326   2.915  0.1676  0.1125  0.0421
17732SOL    HW165255   8.602   2.412   2.921 -1.2095 -0.7228  0.6251
17732SOL    HW265256   8.733   2.330   2.974 -0.1759  0.8227  0.4636
17733SOL     OW65257   4.995   0.796   4.354  0.1156  0.0544  0.0879
17733SOL    HW165258   4.914   0.811   4.411 -0.5090 -0.8823 -0.5310
17733SOL    HW265259   4.967   0.780   4.260  1.0230 -0.2975 -0.1318
17734SOL     OW65260   0.111   4.261   1.338 -0.1197 -0.1128  0.0037
17734SOL    HW165261   0.080   4.166   1.327  2.3693 -1.1092  1.0953
17734SOL    HW265262   0.140   4.296   1.249 -2.0837  0.0329 -0.6036
17735SOL     OW65263   6.068   2.862   0.325  0.2767  0.2890  0.3583
17735SOL    HW165264   6.148   2.830   0.376  0.7304 -0.9562 -1.0752
17735SOL    HW265265   6.074   2.829   0.230 -0.4181  2.7628 -0.5681
17736SOL     OW65266   4.112   6.325   2.784  0.2078  0.0628 -0.1166
17736SOL    HW165267   4.184   6.349   2.849  0.4531  0.8029 -0.6503
17736SOL    HW265268   4.150   6.324   2.691 -0.2743 -0.3994 -0.3119
17737SOL     OW65269   5.648   6.734   0.162 -0.3114 -0.3456  0.5212
17737SOL    HW165270   5.585   6.810   0.181 -0.6749 -0.5248  0.0442
17737SOL    HW265271   5.676   6.737   0.066  1.2291  0.3348  0.9842
17738SOL     OW65272   2.663   4.670   5.848 -0.2529  0.4928  0.0754
17738SOL    HW165273   2.586   4.730   5.829 -1.0214 -0.5875 -0.2587
17738SOL    HW265274   2.633   4.575   5.848  1.0812  0.0537 -0.0747
17739SOL     OW65275   7.880   3.423   5.330 -0.1687  0.3630  0.1627
17739SOL    HW165276   7.872   3.358   5.254  0.6823  1.1988 -0.6639
17739SOL    HW265277   7.806   3.407   5.396 -1.1397 -0.1406 -1.0209
17740SOL     OW65278   1.902   9.890   1.131 -0.1822 -0.5955 -0.5663
17740SOL    HW165279   1.953   9.806   1.111  0.4728  0.1422 -2.1059
17740SOL    HW265280   1.850   9.918   1.050  0.2085  0.8924 -0.3323
17741SOL     OW65281   9.851   8.125   9.737 -0.0982 -0.0408  0.4451
17741SOL    HW165282   9.860   8.026   9.721 -0.9899 -0.0771  0.1246
17741SOL    HW265283   9.940   8.163   9.761  0.2616 -0.9194  0.5328
17742SOL     OW65284   7.785   5.854   2.227 -0.4931  0.9334 -0.5182
17742SOL    HW165285   7.708   5.861   2.164 -2.1876 -2.3484  1.0642
17742SOL    HW265286   7.750   5.838   2.320  2.0932  0.3460  0.3770
17743SOL     OW65287   1.470   5.479   6.396  0.4373  0.0175 -0.3069
17743SOL    HW165288   1.555   5.461   6.347  1.1212  0.1325  0.8366
17743SOL    HW265289   1.422   5.556   6.352  0.1875 -1.0030 -1.8458
17744SOL     OW65290   5.261   5.178   8.271  0.5399 -0.0221 -0.2128
17744SOL    HW165291   5.207   5.139   8.196 -0.5080  1.0806 -0.0507
17744SOL    HW265292   5.347   5.129   8.279 -0.2330 -1.5191 -0.7927
17745SOL     OW65293   1.522   4.796   9.570 -0.1501 -0.3396 -0.0027
17745SOL    HW165294   1.430   4.835   9.564 -0.2674 -0.4019  1.2763
17745SOL    HW265295   1.535   4.755   9.661  0.8318 -1.0988 -0.4797
17746SOL     OW65296   5.987   8.939   6.561 -0.2443  0.2589  0.1983
17746SOL    HW165297   6.043   9.007   6.608 -2.4855  0.0982  3.2710
17746SOL    HW265298   6.019   8.847   6.584  0.5295  0.2054 -1.0498
17747SOL     OW65299   3.930   6.815   7.593 -0.2140 -0.6642  0.1907
17747SOL    HW165300   3.975   6.740   7.544 -0.1088 -0.4251 -0.0791
17747SOL    HW265301   3.901   6.783   7.683 -0.2385 -1.0525  0.0472
17748SOL     OW65302   9.687   5.178   7.392 -0.0239 -0.1184 -0.4693
17748SOL    HW165303   9.785   5.178   7.411 -0.1277  0.0864  0.0874
17748SOL    HW265304   9.637   5.197   7.477 -0.5544 -0.4932 -0.6986
17749SOL     OW65305   1.594   8.216   1.276  0.5137  0.3412  0.2157
17749SOL    HW165306   1.514   8.163   1.305  1.4389 -0.5379  1.1534
17749SOL    HW265307   1.597   8.301   1.328  0.2390  0.3464  0.2276
17750SOL     OW65308   1.591   6.576   9.907 -0.3458  1.0429  0.0212
17750SOL    HW165309   1.665   6.607   9.847  0.6755  0.9046  1.1700
17750SOL    HW265310   1.615   6.486   9.946 -1.8525  0.2464 -0.8436
17751SOL     OW65311   1.964   5.591   9.908 -0.3804 -0.2559  0.1604
17751SOL    HW165312   2.056   5.586   9.870 -0.0439  0.9978  0.8174
17751SOL    HW265313   1.967   5.627  10.001 -1.4431 -1.1040  0.5446
17752SOL     OW65314   7.973   4.596   1.452 -0.1543 -0.1098 -0.1455
17752SOL    HW165315   7.955   4.630   1.359  0.1786  0.2024 -0.0980
17752SOL    HW265316   8.063   4.626   1.481  0.0561 -0.8528 -0.0136
17753SOL     OW65317   3.643   1.787   9.469  0.3657 -0.2396 -0.0031
17753SOL    HW165318   3.654   1.873   9.517  1.0151 -1.3832  1.9443
17753SOL    HW265319   3.695   1.790   9.383  1.8984  0.6436  0.9374
17754SOL     OW65320   0.481   9.722   7.969 -0.2547 -0.1030 -0.3030
17754SOL    HW165321   0.555   9.657   7.983  0.1599  0.5718  0.6828
17754SOL    HW265322   0.405   9.676   7.923 -0.4541 -1.6019  1.4845
17755SOL     OW65323   5.956   4.257   0.369 -0.4348  0.0549  0.3835
17755SOL    HW165324   5.992   4.164   0.358 -0.0713  0.2329  0.0553
17755SOL    HW265325   5.861   4.259   0.339 -0.1959 -0.0281 -0.3967
17756SOL     OW65326   4.737   2.110   9.179  0.1886 -0.4708 -0.8418
17756SOL    HW165327   4.801   2.119   9.255 -0.9524 -1.4943  0.2510
17756SOL    HW265328   4.761   2.176   9.107  0.7915  1.0901  0.7501
17757SOL     OW65329   3.617   9.141   3.907  0.3767  0.2250 -0.2964
17757SOL    HW165330   3.530   9.101   3.879  0.9124 -0.9448 -0.3104
17757SOL    HW265331   3.643   9.105   3.997 -0.0505  1.9764  0.5647
17758SOL     OW65332   0.109   5.124   4.365  0.5618 -0.8040 -0.1080
17758SOL    HW165333   0.070   5.177   4.440  0.9889  0.7936 -0.9864
17758SOL    HW265334   0.048   5.049   4.341 -1.2610  0.7558 -0.4766
17759SOL     OW65335   2.198   1.850   1.244 -0.5741 -0.0107 -0.2149
17759SOL    HW165336   2.206   1.774   1.308  1.7223 -0.2210 -0.7078
17759SOL    HW265337   2.253   1.832   1.163  0.0455  2.1791 -0.3357
17760SOL     OW65338   9.259   7.508   9.636 -0.0212 -0.2530 -0.5748
17760SOL    HW165339   9.210   7.573   9.578 -0.5019 -1.3456 -1.3952
17760SOL    HW265340   9.205   7.490   9.719 -0.8829 -1.2245 -1.3357
17761SOL     OW65341   8.685   5.096   7.925  0.3489  0.0457  0.0799
17761SOL    HW165342   8.591   5.073   7.899 -1.1100  1.6031  3.7153
17761SOL    HW265343   8.698   5.079   8.022  2.9724  2.6401  0.2402
17762SOL     OW65344   8.353   8.225   5.011  0.3897 -0.3981  0.0089
17762SOL    HW165345   8.276   8.162   5.000 -0.1897  0.5142 -1.3992
17762SOL    HW265346   8.376   8.265   4.922  0.2114  2.0091  1.0019
17763SOL     OW65347   3.195   9.546   5.730  0.4380 -0.3571  0.5728
17763SOL    HW165348   3.152   9.457   5.713  0.3651 -0.3649  0.7900
17763SOL    HW265349   3.294   9.533   5.740  0.4456 -0.3927  0.4471
17764SOL     OW65350   7.860   6.979   2.466  0.3869  0.0679  0.3495
17764SOL    HW165351   7.945   6.963   2.416  0.8239  2.4012  0.2869
17764SOL    HW265352   7.875   7.047   2.537 -2.0144  2.5604 -1.4018
17765SOL     OW65353   1.037   0.561   1.344  0.3586  0.0422 -0.3016
17765SOL    HW165354   1.042   0.483   1.281  0.9974 -0.8623  0.8531
17765SOL    HW265355   0.949   0.558   1.392  0.8018 -0.5440  0.4768
17766SOL     OW65356   8.960   6.640   0.180 -0.2056  0.4404  0.1774
17766SOL    HW165357   9.028   6.594   0.122 -0.7584  0.7938 -0.7544
17766SOL    HW265358   8.930   6.576   0.251  1.6381  0.5174  1.0665
17767SOL     OW65359   8.295   0.440   3.738 -0.0542  0.3628 -0.2242
17767SOL    HW165360   8.357   0.405   3.668 -1.3474  1.4421 -1.9430
17767SOL    HW265361   8.250   0.364   3.785 -0.8148 -0.3491 -2.0604
17768SOL     OW65362   3.935   6.602   4.278  0.8911 -0.2336  0.0482
17768SOL    HW165363   3.963   6.642   4.191 -0.6645 -0.2639 -0.4843
17768SOL    HW265364   3.871   6.663   4.324  0.8047 -0.7500  0.6216
17769SOL     OW65365   6.407   0.161   4.643  0.2154 -0.1376  1.0552
17769SOL    HW165366   6.329   0.110   4.678  1.0438 -1.1916  1.4077
17769SOL    HW265367   6.376   0.233   4.581 -0.9553 -1.3040  0.2707
17770SOL     OW65368   9.473   8.575   7.560  0.1853 -0.3762  0.2970
17770SOL    HW165369   9.455   8.483   7.526 -1.4690 -0.0335  0.2068
17770SOL    HW265370   9.495   8.635   7.484  0.0251 -0.4064  0.2277
17771SOL     OW65371   8.407   1.392   3.211 -0.3743  0.1615 -0.2873
17771SOL    HW165372   8.346   1.415   3.286 -0.4494 -0.2439 -0.2212
17771SOL    HW265373   8.469   1.318   3.239  0.0804  0.5053 -0.3846
17772SOL     OW65374   5.221   9.025   2.331  0.7434  0.2847  0.0705
17772SOL    HW165375   5.160   8.992   2.402  1.0630  0.5292  0.4618
17772SOL    HW265376   5.286   8.953   2.306 -0.9878 -0.6988 -1.8086
17773SOL     OW65377   6.241   8.328   6.969  0.0332 -0.0914  0.1815
17773SOL    HW165378   6.239   8.362   6.875 -0.0295  1.9325  0.9006
17773SOL    HW265379   6.313   8.374   7.020  0.0080 -1.1173  1.1703
17774SOL     OW65380   9.992   5.377   0.352  0.1635 -0.0669  0.2505
17774SOL    HW165381   9.977   5.445   0.280  0.9949  0.2911  0.4127
17774SOL    HW265382   9.954   5.289   0.323  0.3567  0.1141 -0.5658
17775SOL     OW65383   5.651   8.078   3.809  0.0112  0.6315  0.3063
17775SOL    HW165384   5.648   7.999   3.748 -1.6663  1.6758 -1.0105
17775SOL    HW265385   5.558   8.114   3.822  0.5038  1.2663  2.3981
17776SOL     OW65386   3.005   5.577   9.539  0.0896 -0.6843 -0.3375
17776SOL    HW165387   3.091   5.623   9.562  0.5517 -0.8537 -1.7033
17776SOL    HW265388   2.953   5.561   9.623  1.5613 -0.9300  0.5428
17777SOL     OW65389   8.635   0.182  10.050  0.4806 -0.8467 -0.5740
17777SOL    HW165390   8.615   0.264   9.996 -1.6841 -0.1897  1.1229
17777SOL    HW265391   8.593   0.102  10.006 -1.4815 -0.2766  0.1954
17778SOL     OW65392   1.710   3.963   1.093  0.5186 -0.1505  0.0343
17778SOL    HW165393   1.675   3.869   1.084  1.0554 -0.5081  1.5795
17778SOL    HW265394   1.722   3.985   1.189  0.0800  1.6426 -0.3085
17779SOL     OW65395   1.264   2.987   9.284 -0.0975 -0.2761 -0.7625
17779SOL    HW165396   1.264   2.962   9.187  0.2830 -0.4046 -0.7294
17779SOL    HW265397   1.210   3.071   9.297 -1.2968 -1.0230 -0.8860
17780SOL     OW65398   3.803   3.900   7.608 -0.0283 -0.2746 -0.3744
17780SOL    HW165399   3.876   3.872   7.545  0.5805  0.5860 -0.0525
17780SOL    HW265400   3.814   3.850   7.695 -0.6227 -1.1497 -0.7977
17781SOL     OW65401   8.833   2.183   8.185 -0.0741  0.4681  0.1934
17781SOL    HW165402   8.893   2.103   8.190 -2.0138 -1.0864 -0.3267
17781SOL    HW265403   8.842   2.237   8.269  1.4012 -0.2054  0.4794
17782SOL     OW65404   2.028   0.238   1.932 -0.3526  0.5242 -0.9151
17782SOL    HW165405   1.962   0.205   1.865  0.6823 -0.5472 -1.4075
17782SOL    HW265406   1.983   0.250   2.021 -1.3616  0.4726 -1.4213
17783SOL     OW65407   7.201   3.578   3.906  0.3335  0.1599 -0.2441
17783SOL    HW165408   7.298   3.600   3.891  0.9063 -0.5401  2.2661
17783SOL    HW265409   7.189   3.539   3.997 -2.6975  2.5384  0.4782
17784SOL     OW65410   4.609   9.826   4.321 -0.1887 -0.1020 -0.0896
17784SOL    HW165411   4.687   9.816   4.383  0.2182  0.8926 -0.4413
17784SOL    HW265412   4.621   9.767   4.242  0.2804  0.1664 -0.2169
17785SOL     OW65413   9.010   5.626   5.162 -0.1868  0.2457  0.4236
17785SOL    HW165414   8.945   5.591   5.231 -0.5312  1.9930  1.0281
17785SOL    HW265415   8.962   5.690   5.102  0.3798 -0.4538 -0.7740
17786SOL     OW65416   8.004   8.455   1.978 -0.6095 -0.1390 -0.3509
17786SOL    HW165417   8.034   8.371   1.934 -1.1409 -0.2753 -0.4621
17786SOL    HW265418   7.928   8.434   2.040  0.2892  0.0050  0.8211
17787SOL     OW65419   7.772   5.871   2.964  0.4993  0.6438  0.2047
17787SOL    HW165420   7.822   5.952   2.935  0.5988  0.5909  0.2303
17787SOL    HW265421   7.830   5.813   3.021  0.4050  0.5903  0.2479
17788SOL     OW65422   8.290   3.892   4.529  0.3449 -0.1909 -0.1847
17788SOL    HW165423   8.316   3.988   4.525 -1.6220  0.5161  2.2272
17788SOL    HW265424   8.191   3.884   4.516  0.1618 -1.6552  1.8727
17789SOL     OW65425   2.417   4.479   8.883  0.2594  0.5910 -0.4222
17789SOL    HW165426   2.497   4.490   8.943  1.4737 -0.3980 -1.8297
17789SOL    HW265427   2.447   4.447   8.793 -1.8629 -1.2174 -0.5262
17790SOL     OW65428   8.475   7.999   5.402 -0.1838 -0.2319  0.0617
17790SOL    HW165429   8.419   8.066   5.355 -0.5717 -1.4909 -1.3158
17790SOL    HW265430   8.564   7.992   5.356 -0.7398 -1.8127 -0.7861
17791SOL     OW65431   0.623   6.987   8.839  0.6883 -0.0081  0.0173
17791SOL    HW165432   0.695   6.919   8.829  0.7046 -0.5722  3.1979
17791SOL    HW265433   0.533   6.942   8.833  0.6518  0.1500 -0.6365
17792SOL     OW65434   7.870   7.271   8.772 -0.0210  0.5952  0.1822
17792SOL    HW165435   7.790   7.212   8.769  0.0774  0.2760  2.7739
17792SOL    HW265436   7.850   7.352   8.828  1.2976  0.7422  0.4730
17793SOL     OW65437   8.536   3.020   7.033 -0.6224  0.2656  0.6563
17793SOL    HW165438   8.570   2.932   7.065  0.2789  0.5097  0.3906
17793SOL    HW265439   8.571   3.038   6.941 -0.2896  1.1737  0.9503
17794SOL     OW65440   3.111   6.468   5.354 -0.1380  0.1492  0.2783
17794SOL    HW165441   3.090   6.536   5.284  0.0919  1.3393  1.3521
17794SOL    HW265442   3.194   6.494   5.403  1.5185 -2.3189 -1.0874
17795SOL     OW65443   3.344   8.258   3.031 -0.2634 -0.3022 -0.0902
17795SOL    HW165444   3.339   8.247   2.932  3.5072 -1.5545 -0.2531
17795SOL    HW265445   3.276   8.201   3.075 -0.3512 -1.6422 -1.9084
17796SOL     OW65446   1.091   2.943   4.556  0.2253 -0.4214 -0.0798
17796SOL    HW165447   1.158   2.972   4.487 -0.3546 -1.2531 -0.9902
17796SOL    HW265448   0.999   2.966   4.524 -0.0257 -0.5799  0.5345
17797SOL     OW65449   2.096   8.845   8.057 -0.1321 -0.1058 -0.1149
17797SOL    HW165450   2.092   8.881   8.150 -0.2266  0.3220 -0.2852
17797SOL    HW265451   2.031   8.895   7.999  0.6148  0.2658 -0.6325
17798SOL     OW65452   5.820   8.060   6.031 -0.7082  0.2768 -0.1072
17798SOL    HW165453   5.879   8.132   6.069  0.0443 -0.6274  0.4543
17798SOL    HW265454   5.869   7.973   6.031 -2.2071 -0.5910  0.8209
17799SOL     OW65455   4.323   9.497   5.405  0.2989  0.1566 -0.3169
17799SOL    HW165456   4.334   9.579   5.462  0.1987  0.5117 -0.8045
17799SOL    HW265457   4.351   9.518   5.311  1.2735 -0.6590 -0.2183
17800SOL     OW65458   5.684   0.905   6.126  0.0488 -0.1791  0.2137
17800SOL    HW165459   5.636   0.921   6.212  1.5457  2.3830  0.6291
17800SOL    HW265460   5.780   0.882   6.145 -0.0186 -1.2645 -0.7230
17801SOL     OW65461   0.318   2.505   4.344  0.5796 -0.2121 -0.1346
17801SOL    HW165462   0.363   2.438   4.286 -0.1272 -0.6525 -0.1775
17801SOL    HW265463   0.284   2.581   4.289 -0.8197 -1.0280 -0.4106
17802SOL     OW65464   4.596   9.556   1.563 -0.1718  0.0857 -0.8496
17802SOL    HW165465   4.688   9.521   1.548 -0.6636 -0.8047 -1.8049
17802SOL    HW265466   4.536   9.482   1.592 -0.7536  0.5189 -0.9216
17803SOL     OW65467   6.947   4.888   8.860 -0.1739  0.1454  0.6130
17803SOL    HW165468   6.915   4.811   8.805  2.4060 -0.0582 -0.6585
17803SOL    HW265469   7.002   4.950   8.804 -1.0683  2.2129  1.9514
17804SOL     OW65470   7.189   7.166   4.442 -0.2451  0.3675  0.3425
17804SOL    HW165471   7.274   7.205   4.475 -0.2499  0.1459  0.6138
17804SOL    HW265472   7.136   7.131   4.519 -0.8407  1.0145  0.2396
17805SOL     OW65473   3.664   3.205   1.024  0.3873  0.2544 -0.0121
17805SOL    HW165474   3.571   3.188   1.056 -0.0091 -0.6368 -1.6060
17805SOL    HW265475   3.670   3.298   0.988 -0.6175 -0.5537 -2.3709
17806SOL     OW65476   1.160   8.634   9.796  0.3453  0.1005  0.2286
17806SOL    HW165477   1.140   8.723   9.754 -2.9076 -1.2232 -1.1949
17806SOL    HW265478   1.122   8.631   9.888 -2.0667 -0.7460 -0.7519
17807SOL     OW65479   4.825   4.794   7.736 -0.2005 -0.4687  0.2794
17807SOL    HW165480   4.840   4.875   7.791 -0.8906 -1.0104  1.2790
17807SOL    HW265481   4.889   4.793   7.659  0.3770  0.5794  0.7437
17808SOL     OW65482   5.821   9.909   3.097 -0.2325  0.5439  0.1329
17808SOL    HW165483   5.804   9.981   3.164 -0.5293  1.1926 -0.6223
17808SOL    HW265484   5.795   9.942   3.006 -1.4561 -0.9112 -0.0783
17809SOL     OW65485   0.318   8.714   4.567  0.0930  0.2131 -0.2522
17809SOL    HW165486   0.340   8.812   4.575 -2.5781  0.8181 -0.0632
17809SOL    HW265487   0.274   8.697   4.479  3.0024 -1.3600 -1.4929
17810SOL     OW65488   2.750   7.130   8.941  0.0950  0.2443  0.3674
17810SOL    HW165489   2.725   7.035   8.919  2.0501  0.0576 -1.2840
17810SOL    HW265490   2.677   7.191   8.911 -0.2932 -0.5961 -0.4433
17811SOL     OW65491   1.341   0.995   2.123  0.1885 -0.0869  0.2300
17811SOL    HW165492   1.287   1.017   2.042 -0.1496 -0.0083  0.4761
17811SOL    HW265493   1.430   0.960   2.095  0.3061  0.5379 -0.1687
17812SOL     OW65494   9.116   8.282   3.474 -0.6255 -0.1195 -0.1287
17812SOL    HW165495   9.136   8.188   3.444 -0.0513  0.2757 -1.0049
17812SOL    HW265496   9.193   8.341   3.450 -0.7763  0.4881  0.8612
17813SOL     OW65497   9.927   5.609   8.284  0.7397 -0.2135  0.4244
17813SOL    HW165498   9.978   5.626   8.200 -0.7872  1.3481 -0.2120
17813SOL    HW265499   9.954   5.521   8.322  0.8449 -1.3512 -2.1689
17814SOL     OW65500   0.909   4.895   5.459  0.1875 -0.2339 -0.2255
17814SOL    HW165501   0.864   4.969   5.508  0.5674  0.0905 -0.3634
17814SOL    HW265502   0.841   4.829   5.428 -0.0022 -0.7420  1.2253
17815SOL     OW65503   8.981   4.060   0.897 -0.3581 -0.2660 -0.5890
17815SOL    HW165504   8.896   4.113   0.886  1.1555  2.4514  0.4509
17815SOL    HW265505   8.979   4.011   0.984 -0.5054  0.5142 -0.1441
17816SOL     OW65506   1.272   1.303   7.521  0.2705 -0.3992  0.6419
17816SOL    HW165507   1.209   1.289   7.598  0.7361 -0.4344  1.0209
17816SOL    HW265508   1.220   1.327   7.439 -0.4841 -3.4951  0.1697
17817SOL     OW65509   3.098   8.865   7.975  0.4068 -0.4438  0.8798
17817SOL    HW165510   3.157   8.840   8.052  0.2429 -0.0170  1.1460
17817SOL    HW265511   3.122   8.957   7.943 -0.6325  0.0577  1.5013
17818SOL     OW65512   2.728   1.025   7.976  0.5544 -0.0939  0.3779
17818SOL    HW165513   2.715   1.077   7.891  0.7662 -0.2655  0.2402
17818SOL    HW265514   2.712   1.085   8.054 -1.5699 -0.4060  0.2285
17819SOL     OW65515   9.942   2.374   2.001  0.1394  0.0299 -0.2416
17819SOL    HW165516   9.913   2.281   1.982  1.4309 -0.5350  0.4786
17819SOL    HW265517  10.019   2.398   1.942 -0.9295  1.0532 -1.2349
17820SOL     OW65518   9.551   6.679   4.993 -0.1213 -0.0129 -0.5056
17820SOL    HW165519   9.471   6.634   5.032 -0.3582 -1.0077 -2.0797
17820SOL    HW265520   9.539   6.685   4.893  1.2141  0.9308 -0.6085
17821SOL     OW65521   1.119   6.965   5.527 -0.4163 -0.1248 -0.1339
17821SOL    HW165522   1.088   6.945   5.620 -0.9433 -1.4892 -0.5994
17821SOL    HW265523   1.127   7.064   5.516  0.6758  0.0326  1.6912
17822SOL     OW65524   6.724   2.827   3.554  0.0772 -0.0113  0.4949
17822SOL    HW165525   6.753   2.916   3.588  1.2631 -0.5166  0.8240
17822SOL    HW265526   6.771   2.807   3.468  0.3887 -0.6429  0.8053
17823SOL     OW65527   3.498   7.448   1.269 -0.7169  0.0611  0.0726
17823SOL    HW165528   3.449   7.505   1.203 -2.1337 -0.9192  0.2598
17823SOL    HW265529   3.473   7.352   1.255  1.2336 -0.4811  0.1051
17824SOL     OW65530   7.524   7.014   6.514  0.1341  0.1079 -0.0997
17824SOL    HW165531   7.552   7.106   6.540  1.9861 -0.1809 -1.0094
17824SOL    HW265532   7.431   7.016   6.478  0.3378  1.7009 -0.5461
17825SOL     OW65533   4.157   0.103   2.917  0.6013 -0.0554  0.2194
17825SOL    HW165534   4.189   0.012   2.942  0.6558 -0.7132 -2.0892
17825SOL    HW265535   4.220   0.172   2.952  1.5685 -1.0196  0.3985
17826SOL     OW65536   2.119   8.297   6.558  0.3241  0.5768 -0.0674
17826SOL    HW165537   2.119   8.219   6.621 -0.8171  1.9197  1.6521
17826SOL    HW265538   2.080   8.376   6.604  3.6053  2.8313 -0.9514
17827SOL     OW65539   7.536   7.439   6.058  0.1357  0.2814  0.0464
17827SOL    HW165540   7.494   7.522   6.095  0.6585  0.0198  1.2356
17827SOL    HW265541   7.636   7.447   6.062  0.2735  1.0694 -3.1462
17828SOL     OW65542   3.444   4.178   5.059 -0.3285  0.0109  0.1572
17828SOL    HW165543   3.424   4.224   5.145  0.1307  1.5581 -0.5381
17828SOL    HW265544   3.539   4.195   5.033 -1.0817  1.4874 -1.7733
17829SOL     OW65545   3.608   7.534   8.753  0.4982 -0.5913 -0.5741
17829SOL    HW165546   3.511   7.511   8.753 -0.0159  1.1361  3.3966
17829SOL    HW265547   3.619   7.632   8.734  1.4800 -0.7776 -1.0232
17830SOL     OW65548   6.804   1.478   4.514 -0.2649 -0.6670 -0.1263
17830SOL    HW165549   6.727   1.415   4.517  0.3975 -1.5354 -0.8784
17830SOL    HW265550   6.818   1.509   4.420 -0.7975  0.8906  0.2870
17831SOL     OW65551   6.801   4.707   3.059  0.2065 -0.2257 -0.1471
17831SOL    HW165552   6.890   4.750   3.076  0.4146 -0.8807  0.4131
17831SOL    HW265553   6.728   4.767   3.091  0.5082 -0.4106  0.9045
17832SOL     OW65554   6.455   8.020   5.445  0.4183  0.1482 -0.2891
17832SOL    HW165555   6.540   8.067   5.465  0.1777  0.4913 -0.0716
17832SOL    HW265556   6.472   7.921   5.440  0.8050  0.2073 -0.1511
17833SOL     OW65557   2.634   0.453   0.495  0.0094  0.7375 -0.5795
17833SOL    HW165558   2.594   0.384   0.435  1.1633 -0.2301 -0.2447
17833SOL    HW265559   2.604   0.436   0.589 -2.1352  2.4997 -0.8931
17834SOL     OW65560   6.360   1.269   9.749  0.2604  1.0039  0.3588
17834SOL    HW165561   6.272   1.231   9.780 -0.0492  0.5488 -1.0427
17834SOL    HW265562   6.413   1.299   9.829  0.4204 -2.1327  1.5041
17835SOL     OW65563   3.439   8.508   0.521 -0.1853 -0.3326 -0.2989
17835SOL    HW165564   3.526   8.538   0.561 -0.5178  0.3877 -0.1137
17835SOL    HW265565   3.431   8.544   0.428  0.3439 -1.5615 -0.8253
17836SOL     OW65566   4.183   6.671   3.767 -0.0279 -0.4382 -0.6029
17836SOL    HW165567   4.092   6.645   3.735  0.1371 -1.5391 -0.2027
17836SOL    HW265568   4.175   6.738   3.841 -0.5566 -1.3748  0.1948
17837SOL     OW65569   4.170   1.737   8.871 -0.1877 -0.1773  0.1336
17837SOL    HW165570   4.249   1.765   8.926  0.4530 -2.4085  0.3928
17837SOL    HW265571   4.133   1.817   8.824  1.9522  1.0080  0.3695
17838SOL     OW65572   5.145   3.950   6.975  0.0815  0.2096  0.2375
17838SOL    HW165573   5.169   4.045   6.996  0.1625  0.3315 -0.3907
17838SOL    HW265574   5.203   3.888   7.028 -0.8117  0.5035  1.5877
17839SOL     OW65575   7.732   8.145   7.284 -0.1893 -0.3225 -0.7271
17839SOL    HW165576   7.675   8.226   7.269 -0.4926 -0.4921 -0.4765
17839SOL    HW265577   7.716   8.079   7.210  1.3691  0.5829 -1.9344
17840SOL     OW65578   6.490   7.501   3.321 -0.3603 -0.1313  0.3369
17840SOL    HW165579   6.471   7.437   3.396 -0.8456 -0.8248 -0.3786
17840SOL    HW265580   6.570   7.556   3.345  0.2543 -1.2136  0.8286
17841SOL     OW65581   3.245   4.824   8.755 -0.6531 -0.4420  0.1678
17841SOL    HW165582   3.248   4.827   8.855 -2.5474  0.0870  0.2233
17841SOL    HW265583   3.168   4.767   8.726  0.1459 -0.9484 -0.9990
17842SOL     OW65584   0.954   5.352   4.361  0.0785 -0.0617 -0.0723
17842SOL    HW165585   0.857   5.332   4.349  0.2453 -0.8340 -0.1514
17842SOL    HW265586   0.968   5.451   4.357 -0.7003  0.0541 -0.0782
17843SOL     OW65587   0.464   7.497   9.907  0.2503  0.0028 -0.5175
17843SOL    HW165588   0.432   7.451   9.824 -1.0127  1.2441 -0.7303
17843SOL    HW265589   0.548   7.548   9.887 -0.8222  1.4650 -1.4132
17844SOL     OW65590   1.533   9.324   3.530 -0.2917  0.3894  0.0799
17844SOL    HW165591   1.565   9.360   3.617 -3.0029  2.1945  0.3932
17844SOL    HW265592   1.589   9.246   3.503  1.1311  0.3501  2.9936
17845SOL     OW65593   3.601   9.899   5.418 -0.3394 -0.2858 -0.0875
17845SOL    HW165594   3.612   9.960   5.340 -0.8887  0.6058  0.5249
17845SOL    HW265595   3.674   9.830   5.417  2.0329  2.1163  0.8241
17846SOL     OW65596   6.679   9.330   5.066 -0.3835  0.2689  0.1126
17846SOL    HW165597   6.710   9.303   4.975 -1.6582  1.3882 -0.6707
17846SOL    HW265598   6.744   9.394   5.106 -1.5592  2.5129 -1.4722
17847SOL     OW65599   0.937   4.249   5.771 -0.1643 -0.1748 -0.5771
17847SOL    HW165600   0.925   4.153   5.795 -1.9017 -0.2420 -1.6633
17847SOL    HW265601   1.034   4.268   5.754  0.0676 -1.9368 -1.2308
17848SOL     OW65602   0.749   0.928   4.417 -0.4700  0.2774 -0.1478
17848SOL    HW165603   0.710   1.002   4.473 -2.0736  0.1124 -1.0003
17848SOL    HW265604   0.846   0.917   4.439 -0.6570  1.3798  1.3324
17849SOL     OW65605   0.185   5.880   8.636  0.1399  0.2454  0.3959
17849SOL    HW165606   0.096   5.911   8.667  0.2429  0.7399  0.2011
17849SOL    HW265607   0.192   5.781   8.649  0.0627  0.3911  1.6298
17850SOL     OW65608   3.593   8.076   1.933  0.0177  0.5739  0.3393
17850SOL    HW165609   3.496   8.053   1.941  0.8863 -3.0051  1.4818
17850SOL    HW265610   3.615   8.097   1.838 -1.6685  0.4185 -0.1025
17851SOL     OW65611   6.838   8.433   7.414 -0.0603  0.3562  0.1512
17851SOL    HW165612   6.780   8.375   7.471  1.7985 -1.4949  0.2022
17851SOL    HW265613   6.871   8.510   7.468  0.1423 -0.3448  1.0443
17852SOL     OW65614   7.638   9.199   5.903 -0.1896 -0.1910 -0.1165
17852SOL    HW165615   7.657   9.220   5.807 -0.4780 -0.5325 -0.2471
17852SOL    HW265616   7.698   9.255   5.962  0.2503 -0.2578 -0.4999
17853SOL     OW65617   0.185   5.666   9.925  0.0629 -0.6341 -0.1106
17853SOL    HW165618   0.239   5.589   9.960 -1.2846 -1.1912  0.7364
17853SOL    HW265619   0.224   5.752   9.959 -1.1333 -1.1441  2.6537
17854SOL     OW65620   3.324   6.066   7.148 -0.2100  0.0578  0.1285
17854SOL    HW165621   3.266   6.148   7.156 -0.2299  0.0283  0.2835
17854SOL    HW265622   3.317   6.012   7.232 -0.8261 -0.5188 -0.3003
17855SOL     OW65623   1.377   9.804   4.909 -0.2316  0.3939  0.1434
17855SOL    HW165624   1.395   9.824   5.005  1.4881 -0.3484 -0.0047
17855SOL    HW265625   1.446   9.847   4.852 -0.7964  0.1940 -0.7124
17856SOL     OW65626   7.899   6.209   7.830  0.3838  0.1751  0.1727
17856SOL    HW165627   7.820   6.189   7.772  0.7687  0.8823 -0.6050
17856SOL    HW265628   7.875   6.193   7.926 -0.4513 -0.3964 -0.1253
17857SOL     OW65629   2.112   0.507   9.248  0.0899  0.5103  0.0263
17857SOL    HW165630   2.060   0.432   9.288  0.0678  0.5739  0.1163
17857SOL    HW265631   2.193   0.471   9.201  0.6024  0.5110  0.8961
17858SOL     OW65632   1.535   6.884   3.699 -0.1126 -0.1367 -0.2114
17858SOL    HW165633   1.468   6.877   3.626  0.1982 -1.1711 -0.4118
17858SOL    HW265634   1.489   6.878   3.788 -0.6597  2.6397 -0.2799
17859SOL     OW65635   7.681   8.425   1.055 -0.1487  0.5489  0.1345
17859SOL    HW165636   7.760   8.367   1.032 -0.7785 -0.8173  1.3406
17859SOL    HW265637   7.712   8.519   1.068  1.1236  0.2307 -0.4246
17860SOL     OW65638   4.784   1.319   9.861  0.0784  0.0294  0.5342
17860SOL    HW165639   4.699   1.321   9.808  1.1478  0.7663 -1.1607
17860SOL    HW265640   4.853   1.374   9.816  1.7465 -1.2675  1.4552
17861SOL     OW65641   0.368   6.079   3.565 -0.0838 -0.1453  0.6897
17861SOL    HW165642   0.438   6.017   3.529 -0.2353  0.6573 -1.0295
17861SOL    HW265643   0.377   6.086   3.664  1.3780 -1.1421  0.6364
17862SOL     OW65644   1.974   3.221   6.518  0.1668 -0.7689  0.2244
17862SOL    HW165645   2.030   3.230   6.436  0.1457 -2.6857 -0.0238
17862SOL    HW265646   2.032   3.222   6.599  0.3000 -0.1182  0.1255
17863SOL     OW65647   2.383   0.066   9.323  0.1959 -0.2786  0.4673
17863SOL    HW165648   2.456   0.085   9.257 -0.6252 -0.3858 -0.4672
17863SOL    HW265649   2.321  -0.002   9.286 -0.3976 -0.1786  1.2641
17864SOL     OW65650   5.432   6.922   9.823  0.2663 -0.3120  0.2592
17864SOL    HW165651   5.445   6.959   9.915 -1.5308  1.8718 -0.3180
17864SOL    HW265652   5.361   6.974   9.776  0.8248 -1.7014 -2.2078
17865SOL     OW65653   5.081   9.398   3.296  0.1067  0.9575 -0.3403
17865SOL    HW165654   5.137   9.333   3.244  1.3335  1.5882  0.2112
17865SOL    HW265655   5.132   9.434   3.373 -1.1709  1.2738  0.3825
17866SOL     OW65656   3.786   3.878   5.706 -0.3630 -0.2443 -0.2675
17866SOL    HW165657   3.856   3.949   5.700 -1.3256  0.5293 -3.3498
17866SOL    HW265658   3.766   3.859   5.802  3.7371 -0.2214  0.7156
17867SOL     OW65659   9.409   7.814   7.536  0.4666  0.2176  0.2470
17867SOL    HW165660   9.400   7.749   7.612  1.8390  0.7642  0.9121
17867SOL    HW265661   9.490   7.871   7.552  1.3025 -0.2496 -2.0824
17868SOL     OW65662   7.604   2.342   9.689 -0.2064 -0.5367  0.8186
17868SOL    HW165663   7.610   2.436   9.723  0.4675 -0.6430  1.0046
17868SOL    HW265664   7.508   2.319   9.671 -0.1892  0.8580 -1.1693
17869SOL     OW65665   0.725   0.826   2.404  0.8338 -0.7362  0.0882
17869SOL    HW165666   0.740   0.855   2.309  0.0382 -0.3696  0.0694
17869SOL    HW265667   0.743   0.903   2.466  0.1904 -0.6304  0.1467
17870SOL     OW65668   1.816   9.035   3.328  0.0618  0.1574  0.1829
17870SOL    HW165669   1.871   9.074   3.402 -0.9913  2.3552 -0.1435
17870SOL    HW265670   1.875   9.001   3.256  1.0571 -0.3425  1.2240
17871SOL     OW65671   7.683   2.769   2.464 -0.0996  0.1247  0.2895
17871SOL    HW165672   7.722   2.699   2.523  3.1878  1.9477  0.3737
17871SOL    HW265673   7.693   2.742   2.369 -0.7975 -0.4783  0.3813
17872SOL     OW65674   2.028   2.022   9.941 -0.1575 -0.2327 -0.3611
17872SOL    HW165675   2.050   1.960  10.016  0.2727 -0.8688 -1.0023
17872SOL    HW265676   2.072   2.111   9.957  0.9714 -0.7532 -0.4622
17873SOL     OW65677   3.891   8.371   2.699 -0.1569  0.0653  0.2641
17873SOL    HW165678   3.890   8.274   2.677 -0.2426  0.1675 -0.1730
17873SOL    HW265679   3.981   8.396   2.733  0.2787  0.1323 -0.9403
17874SOL     OW65680   9.220   7.124   5.619 -0.5480 -0.1159 -0.3229
17874SOL    HW165681   9.136   7.070   5.630  0.6459 -2.0344 -0.4558
17874SOL    HW265682   9.271   7.090   5.541  1.1727 -0.0567  0.7588
17875SOL     OW65683   1.246   2.578   9.532  0.1979  0.3788 -0.0524
17875SOL    HW165684   1.146   2.584   9.529  0.1252 -0.8920 -0.7085
17875SOL    HW265685   1.273   2.490   9.572  1.0552  0.7261  0.1466
17876SOL     OW65686   7.767   2.344   7.977  0.0865  0.5691  0.6000
17876SOL    HW165687   7.772   2.280   7.900  1.3425  2.0628 -0.6074
17876SOL    HW265688   7.673   2.352   8.008 -0.8849  1.8949 -2.5173
17877SOL     OW65689   9.191   6.634   1.094 -0.1061  0.9708  0.1228
17877SOL    HW165690   9.182   6.598   1.002 -1.4343  0.1960  0.5451
17877SOL    HW265691   9.101   6.654   1.132  0.3573  0.4008  1.5902
17878SOL     OW65692   8.467   6.809   4.374  0.2756  0.0188 -0.3668
17878SOL    HW165693   8.504   6.873   4.307  1.8260  0.3792  0.8108
17878SOL    HW265694   8.506   6.828   4.464 -3.0307  0.6295  1.0107
17879SOL     OW65695   9.169   7.371   7.966 -0.1206 -0.4712  0.2870
17879SOL    HW165696   9.115   7.372   8.050  0.9248  0.7568  0.9622
17879SOL    HW265697   9.119   7.417   7.893  0.3008  1.3752  1.1229
17880SOL     OW65698   0.727   4.875   3.407  0.1005 -0.0027  0.0419
17880SOL    HW165699   0.818   4.908   3.432  0.1211 -0.3596  0.4478
17880SOL    HW265700   0.672   4.866   3.490 -0.1608 -0.2103 -0.1550
17881SOL     OW65701   9.227   3.079   4.157 -0.5315 -0.2867 -0.3046
17881SOL    HW165702   9.259   3.075   4.252 -0.6783 -2.0241 -0.3219
17881SOL    HW265703   9.128   3.094   4.155 -0.5094 -0.1319 -0.1893
17882SOL     OW65704   1.815   8.314   2.454  0.3251 -0.3366 -0.4455
17882SOL    HW165705   1.738   8.250   2.454  0.8537 -0.9730 -1.0778
17882SOL    HW265706   1.784   8.404   2.424 -0.4337 -0.2745  0.5021
17883SOL     OW65707   0.637   4.303   3.083 -0.1909  0.3538  0.2650
17883SOL    HW165708   0.730   4.312   3.117 -0.1255  1.0788 -0.0843
17883SOL    HW265709   0.579   4.260   3.153  0.7531 -1.6206 -0.1391
17884SOL     OW65710   9.842   7.423   0.114 -0.3747 -0.0329  0.2500
17884SOL    HW165711   9.811   7.517   0.130  1.1025  0.9290 -2.4069
17884SOL    HW265712   9.933   7.411   0.153 -0.1228 -0.0461 -0.3422
17885SOL     OW65713   6.824   7.171   2.857 -0.7947 -0.1130 -0.4059
17885SOL    HW165714   6.853   7.085   2.815  1.8619 -0.8206  2.7657
17885SOL    HW265715   6.904   7.228   2.875 -2.1021  1.1815  1.4592
17886SOL     OW65716   3.226   6.919   1.219 -0.3321  0.3308 -0.2468
17886SOL    HW165717   3.261   7.002   1.263  0.7181  0.2141 -0.8338
17886SOL    HW265718   3.138   6.938   1.176 -0.4979  0.9175  0.3552
17887SOL     OW65719   3.492   1.448   2.640 -0.0026 -0.3149 -0.2977
17887SOL    HW165720   3.417   1.511   2.659  1.5669  0.7923  2.4461
17887SOL    HW265721   3.578   1.499   2.635  0.8050 -1.7690 -1.8758
17888SOL     OW65722   7.921   2.227   0.634 -0.4005 -0.6276 -0.0094
17888SOL    HW165723   8.014   2.257   0.655  0.6566 -3.5375 -0.2668
17888SOL    HW265724   7.884   2.175   0.711 -1.0180 -1.2592 -0.7164
17889SOL     OW65725   0.648   0.164   5.962  0.3433  0.1042 -0.1467
17889SOL    HW165726   0.680   0.173   5.868  1.2301 -0.1579  0.1261
17889SOL    HW265727   0.666   0.071   5.995 -1.5750 -0.3330 -0.3049
17890SOL     OW65728   3.792   6.269   9.099  0.2448  0.8521  0.0383
17890SOL    HW165729   3.805   6.323   9.016 -0.2224  0.6661 -0.1570
17890SOL    HW265730   3.713   6.209   9.088  0.8510 -0.0009  0.1783
17891SOL     OW65731   9.443   4.098   9.506 -0.0606 -0.3308  0.1146
17891SOL    HW165732   9.510   4.051   9.563  0.2885  0.0725  0.0418
17891SOL    HW265733   9.491   4.153   9.437 -0.4661 -0.0806  0.0311
17892SOL     OW65734   4.007   1.265   5.212 -0.0263 -0.1203  0.4137
17892SOL    HW165735   3.965   1.201   5.146 -1.3132  0.0166  1.0837
17892SOL    HW265736   4.009   1.222   5.302  1.6402 -0.2627  0.3172
17893SOL     OW65737   8.828   3.461   1.706 -0.3286 -0.1409 -0.3041
17893SOL    HW165738   8.890   3.409   1.648  0.3094 -0.3964  0.6020
17893SOL    HW265739   8.741   3.411   1.715 -0.6320  0.1470 -1.4475
17894SOL     OW65740   0.324   7.984   8.598  0.1067  0.5025  0.2914
17894SOL    HW165741   0.282   7.898   8.627  1.8662 -0.0756  1.1818
17894SOL    HW265742   0.292   8.058   8.658  0.3980  0.0557  1.0079
17895SOL     OW65743   8.987   3.241   5.992  0.5370  0.0124  0.3593
17895SOL    HW165744   8.900   3.217   6.035  0.7176 -0.1105  0.6559
17895SOL    HW265745   8.971   3.272   5.899  0.0403  1.2883  0.8645
17896SOL     OW65746   3.315   8.921   5.721 -0.5238 -0.3473 -0.1209
17896SOL    HW165747   3.410   8.896   5.708 -0.3458 -0.6028  1.5768
17896SOL    HW265748   3.281   8.968   5.639  0.3154 -2.4826 -1.7307
17897SOL     OW65749   2.344   8.759   8.377 -0.0365  0.4717  0.1444
17897SOL    HW165750   2.417   8.778   8.311 -1.4620  0.8608 -1.3668
17897SOL    HW265751   2.372   8.788   8.468  2.0134 -0.1498 -0.2637
17898SOL     OW65752   2.356   5.675   3.170  0.1645  0.2177 -0.0591
17898SOL    HW165753   2.449   5.692   3.202  1.2024 -0.1234 -2.7121
17898SOL    HW265754   2.319   5.758   3.128  0.4194 -0.4476 -1.6507
17899SOL     OW65755   2.190   5.546   0.345  0.4780 -0.5783  0.9538
17899SOL    HW165756   2.126   5.469   0.353 -0.3900 -0.0578 -0.7777
17899SOL    HW265757   2.284   5.512   0.355  0.1391 -1.9915 -0.5086
17900SOL     OW65758   8.021   3.533   7.961 -0.2036  0.2722 -0.0200
17900SOL    HW165759   8.097   3.475   7.991 -0.4579 -0.1739 -0.2349
17900SOL    HW265760   8.047   3.629   7.970  0.3690  0.1214 -0.0480
17901SOL     OW65761   1.422   8.646   4.561 -0.1954 -0.6041 -0.2890
17901SOL    HW165762   1.381   8.724   4.608  0.5546 -0.3495 -0.0615
17901SOL    HW265763   1.431   8.569   4.624 -2.4532 -1.4530 -0.9116
17902SOL     OW65764   4.570   0.005   1.155  0.0570 -0.3238  0.1791
17902SOL    HW165765   4.527  -0.014   1.066 -0.9123  0.5008  0.4577
17902SOL    HW265766   4.522   0.081   1.199 -0.1691 -1.4593  1.9187
17903SOL     OW65767   1.136   8.959   6.934  0.1555  0.0029 -0.0554
17903SOL    HW165768   1.185   9.046   6.932  1.0950 -0.5024  0.7150
17903SOL    HW265769   1.078   8.952   6.853  0.0160  1.3731 -0.0871
17904SOL     OW65770   8.565   3.479   7.799 -0.1770  0.5288 -0.3076
17904SOL    HW165771   8.589   3.563   7.749  0.7026 -0.0479 -0.8548
17904SOL    HW265772   8.570   3.401   7.738  3.2666 -0.5328  1.1767
17905SOL     OW65773   2.921   0.180   5.392  0.3330  0.5548 -0.3980
17905SOL    HW165774   2.932   0.230   5.306 -0.5983  0.6479 -0.4708
17905SOL    HW265775   2.846   0.114   5.383 -0.0103  0.8182  0.4469
17906SOL     OW65776   8.308   3.276   7.653  0.0745  0.0510 -0.4763
17906SOL    HW165777   8.239   3.238   7.715  0.2009 -0.5274 -0.6907
17906SOL    HW265778   8.313   3.220   7.570 -0.2122  0.9126 -1.0909
17907SOL     OW65779   3.423   1.105   1.350 -0.1697  0.2056  0.1450
17907SOL    HW165780   3.384   1.104   1.442 -0.9297 -0.1082 -0.1691
17907SOL    HW265781   3.387   1.183   1.299 -1.4492 -0.8330 -0.5806
17908SOL     OW65782   6.650   6.169   0.963 -0.5898 -0.5047  0.2903
17908SOL    HW165783   6.717   6.211   0.901 -0.4024 -0.3268  0.6119
17908SOL    HW265784   6.613   6.086   0.921 -1.3139  0.2435 -0.5452
17909SOL     OW65785   3.907   8.059   7.069 -0.3951  0.2456 -0.0254
17909SOL    HW165786   3.904   8.151   7.030  0.7878 -0.3731 -1.6330
17909SOL    HW265787   4.002   8.027   7.071 -0.6263 -0.4093  1.8262
17910SOL     OW65788   7.529   2.293   1.385  0.4903 -0.5060  0.6739
17910SOL    HW165789   7.453   2.230   1.399  0.6695 -0.7093  0.7319
17910SOL    HW265790   7.607   2.244   1.347  0.1185 -0.0247 -0.7390
17911SOL     OW65791   1.004   0.235   8.020 -0.2708 -0.1800  0.1686
17911SOL    HW165792   1.079   0.243   7.954 -0.5189  2.0396  0.1355
17911SOL    HW265793   1.031   0.275   8.107 -0.8002 -0.9856  0.7173
17912SOL     OW65794   3.991   9.067   9.215  0.1132  0.0426  0.2420
17912SOL    HW165795   3.905   9.063   9.165 -0.7836  0.3410  1.7252
17912SOL    HW265796   3.973   9.061   9.313  1.5903  2.4008  0.6913
17913SOL     OW65797   2.275   7.567   7.305 -0.4409  0.1543 -0.2011
17913SOL    HW165798   2.246   7.473   7.321  0.8742 -0.1171  0.5864
17913SOL    HW265799   2.295   7.580   7.208 -0.9281 -0.2899 -0.3620
17914SOL     OW65800   1.105   7.742   4.353 -0.6630  0.1825 -0.1953
17914SOL    HW165801   1.067   7.650   4.365  0.2399 -0.0287  1.1723
17914SOL    HW265802   1.080   7.776   4.263  0.2288 -2.0078 -1.3248
17915SOL     OW65803   8.403   5.150   1.597 -0.4610  0.5025  0.3407
17915SOL    HW165804   8.415   5.245   1.624  1.5311  0.3726 -0.0181
17915SOL    HW265805   8.331   5.144   1.527  0.5704  1.9615 -0.8756
17916SOL     OW65806   9.130   4.480   1.558 -0.3576  0.2591 -0.4479
17916SOL    HW165807   9.137   4.573   1.593  1.3222 -0.1558  0.4076
17916SOL    HW265808   9.082   4.480   1.470  0.6416  2.0738 -1.0220
17917SOL     OW65809   0.236   4.992   7.012 -0.3506  0.5607  0.4434
17917SOL    HW165810   0.335   4.979   7.004 -0.5751 -0.4740 -0.6768
17917SOL    HW265811   0.203   4.949   7.096  0.3289  1.9929  1.4711
17918SOL     OW65812   4.512   0.258   0.898  0.1352  0.5026 -0.8928
17918SOL    HW165813   4.541   0.304   0.982  1.3926 -0.2104 -0.9243
17918SOL    HW265814   4.535   0.316   0.820  2.8339 -0.6608 -1.0165
17919SOL     OW65815   1.222   4.161   0.495  0.5614 -0.0291 -0.1903
17919SOL    HW165816   1.190   4.111   0.415 -3.3192  1.2766  0.4273
17919SOL    HW265817   1.320   4.145   0.508  0.6145 -2.7288 -3.3439
17920SOL     OW65818   1.212   0.180   1.807 -0.1831 -0.0472 -0.4091
17920SOL    HW165819   1.174   0.233   1.732 -2.3677 -0.5735  0.2812
17920SOL    HW265820   1.239   0.241   1.882 -1.3462  0.2042 -0.1915
17921SOL     OW65821   5.698   3.068   1.201 -0.4625  0.0521  0.9689
17921SOL    HW165822   5.638   3.074   1.281 -0.3367 -0.3448  1.0922
17921SOL    HW265823   5.674   2.989   1.146 -1.1881  0.8770  0.0845
17922SOL     OW65824   8.418   6.286   9.871  0.0111  0.4316 -0.3835
17922SOL    HW165825   8.431   6.385   9.875 -0.2943  0.5007 -1.0775
17922SOL    HW265826   8.387   6.260   9.779 -1.4567 -0.1209  0.2528
17923SOL     OW65827   3.456   3.786   2.212  0.3463 -0.0847  0.2834
17923SOL    HW165828   3.409   3.874   2.220 -1.7210 -0.6356 -4.4929
17923SOL    HW265829   3.399   3.714   2.251  0.5661  0.2170  1.1793
17924SOL     OW65830   8.396   6.806   7.755 -0.2426  0.4536 -0.3963
17924SOL    HW165831   8.488   6.767   7.754 -1.0287 -1.4650 -0.2702
17924SOL    HW265832   8.371   6.835   7.663 -0.2387 -0.8013 -0.8005
17925SOL     OW65833   3.032   3.896   4.194  0.0090  0.4040  0.0321
17925SOL    HW165834   3.060   3.866   4.103 -1.6458 -1.6019  0.1395
17925SOL    HW265835   3.045   3.821   4.259 -1.3991  0.9091  0.9151
17926SOL     OW65836   2.039   6.751   1.575  0.4487 -0.3833  0.3888
17926SOL    HW165837   2.039   6.849   1.555  1.6194 -0.3819  0.3290
17926SOL    HW265838   2.025   6.700   1.490 -0.2523 -0.2646  0.4334
17927SOL     OW65839   1.009   4.107   0.918  0.1518 -0.5266 -0.2108
17927SOL    HW165840   0.996   4.205   0.933 -0.9365 -0.6073 -0.5869
17927SOL    HW265841   1.076   4.072   0.983  0.6207  0.4844 -0.1364
17928SOL     OW65842   6.256   2.527   3.832 -0.1283 -0.0759  0.8017
17928SOL    HW165843   6.338   2.485   3.794 -0.6462 -1.1224  0.8078
17928SOL    HW265844   6.274   2.623   3.854  0.5501  0.1847 -0.8571
17929SOL     OW65845   1.012   2.554   8.924  0.0532 -0.2041 -0.3557
17929SOL    HW165846   1.042   2.649   8.915 -0.8861  0.1982  0.7780
17929SOL    HW265847   0.915   2.551   8.947  0.1658 -1.4392  0.0017
17930SOL     OW65848   7.647   9.759   3.821  0.5956  0.9185  0.7567
17930SOL    HW165849   7.719   9.745   3.888 -1.3035  0.3730  2.7576
17930SOL    HW265850   7.614   9.854   3.826  0.9274  1.0759  0.0756
17931SOL     OW65851   7.734   0.102   8.396  0.5095 -0.1793  0.1397
17931SOL    HW165852   7.756   0.020   8.342 -1.6553  1.1440 -2.9340
17931SOL    HW265853   7.668   0.079   8.467  0.5607 -1.2465 -0.1521
17932SOL     OW65854   7.173   3.756   0.816  0.4058 -0.2783 -0.4995
17932SOL    HW165855   7.256   3.766   0.871  0.4355 -1.0322 -0.3961
17932SOL    HW265856   7.110   3.831   0.835  0.0983 -0.9188  1.1109
17933SOL     OW65857   0.286   9.623   6.780 -0.1163  0.0481 -0.0179
17933SOL    HW165858   0.215   9.572   6.829 -0.0568 -0.2466 -0.2427
17933SOL    HW265859   0.339   9.561   6.723 -0.4452  0.4473 -0.7729
17934SOL     OW65860   3.143   0.452   9.367 -0.7913 -0.1713  0.1620
17934SOL    HW165861   3.150   0.403   9.453 -0.9485 -1.2292 -0.4176
17934SOL    HW265862   3.233   0.486   9.340 -0.9151  1.0039  1.2261
17935SOL     OW65863   6.668   4.473   0.184 -0.2678  0.3627 -0.7576
17935SOL    HW165864   6.612   4.511   0.258  1.6747 -1.6087  1.8092
17935SOL    HW265865   6.643   4.377   0.170  0.8888  0.1164 -1.1508
17936SOL     OW65866   7.464   0.667   1.666  0.3407  0.1239 -0.1239
17936SOL    HW165867   7.409   0.688   1.747 -0.5309  1.8814 -1.1377
17936SOL    HW265868   7.428   0.585   1.623 -1.8458  1.4908 -1.0174
17937SOL     OW65869   8.113   9.314   9.426  0.2251 -0.2726 -0.3194
17937SOL    HW165870   8.079   9.235   9.375 -1.7106 -0.3522  1.0344
17937SOL    HW265871   8.072   9.398   9.390  1.1867 -0.0155 -0.8380
17938SOL     OW65872   1.757   2.471   0.250  0.1068 -0.4457 -0.9592
17938SOL    HW165873   1.784   2.476   0.346  4.6383  1.8518 -2.2272
17938SOL    HW265874   1.729   2.562   0.219  4.0714  0.0887 -3.1978
17939SOL     OW65875   4.869   0.938   8.682  0.5248  0.4292  0.1731
17939SOL    HW165876   4.786   0.888   8.704 -0.1117  0.6742 -1.6193
17939SOL    HW265877   4.846   1.032   8.658  1.2869  0.4708 -0.4287
17940SOL     OW65878   4.939   9.290   7.773  0.6751 -0.1197  0.4767
17940SOL    HW165879   4.876   9.362   7.745  1.1869 -0.0764 -0.5751
17940SOL    HW265880   4.974   9.310   7.865 -0.7364 -0.0834  1.0236
17941SOL     OW65881   3.594   6.181   6.445 -0.1448 -0.2937 -0.4492
17941SOL    HW165882   3.670   6.188   6.509 -1.2427 -0.0460  0.8788
17941SOL    HW265883   3.541   6.098   6.464  0.6633 -1.2687 -2.3601
17942SOL     OW65884   5.052   4.069   8.206  0.4263 -0.2297 -0.3457
17942SOL    HW165885   5.036   4.147   8.146  0.5015  0.3451  0.3902
17942SOL    HW265886   4.975   4.058   8.269  2.2623  1.7544  2.3215
17943SOL     OW65887   0.029   8.248   5.352 -0.3844  0.0886 -0.6484
17943SOL    HW165888   0.035   8.316   5.279  0.2663 -1.1001 -1.7250
17943SOL    HW265889  -0.038   8.178   5.327 -0.7777  0.1191  0.2853
17944SOL     OW65890   1.935   2.900   7.802  0.4994 -0.3573  0.2817
17944SOL    HW165891   1.975   2.982   7.762  0.3541 -0.7581 -0.7001
17944SOL    HW265892   1.837   2.913   7.814  0.5621 -0.1913  0.6499
17945SOL     OW65893   8.201   8.059   7.618  0.2340  0.3303 -0.1734
17945SOL    HW165894   8.118   8.090   7.573  0.1326  0.0516 -0.1748
17945SOL    HW265895   8.276   8.121   7.596  0.4093 -0.3405 -1.4974
17946SOL     OW65896   0.495   6.599   1.505  0.5988 -0.0159 -0.1692
17946SOL    HW165897   0.463   6.651   1.426 -0.6426  3.1485  2.2985
17946SOL    HW265898   0.594   6.610   1.514  1.0327 -1.8564 -2.2412
17947SOL     OW65899   1.152   7.320   4.566 -0.3606  0.2130 -0.3257
17947SOL    HW165900   1.247   7.341   4.545 -0.3690  0.8210  0.2392
17947SOL    HW265901   1.093   7.361   4.496 -0.1757 -0.8045 -1.1061
17948SOL     OW65902   2.796   3.241   7.702  0.1760 -0.4685 -0.0304
17948SOL    HW165903   2.750   3.195   7.778  1.4610 -2.0474 -0.1565
17948SOL    HW265904   2.752   3.328   7.683 -1.1911 -0.8206  1.4432
17949SOL     OW65905   4.587   1.156   6.021  0.1778  0.5281 -0.2044
17949SOL    HW165906   4.516   1.166   5.951  1.6078  1.6915 -1.5227
17949SOL    HW265907   4.586   1.236   6.080 -0.4731 -0.0708  0.6098
17950SOL     OW65908   9.819   6.873   6.328  0.4946 -0.2287 -0.3189
17950SOL    HW165909   9.799   6.812   6.252 -1.2174  0.5393 -0.5084
17950SOL    HW265910   9.739   6.879   6.388  0.9224  1.1747  0.1310
17951SOL     OW65911   3.840   5.972   0.390  0.4097 -0.3985  0.2056
17951SOL    HW165912   3.913   5.904   0.390  0.9545  0.1728 -0.6509
17951SOL    HW265913   3.774   5.950   0.461  0.5615 -1.8387 -0.0779
17952SOL     OW65914   9.843   7.393   7.217  0.1455 -0.0339  0.7517
17952SOL    HW165915   9.855   7.294   7.209  0.1393 -0.0777  1.2724
17952SOL    HW265916   9.755   7.412   7.261  0.2549  0.1959  0.8743
17953SOL     OW65917   8.695   4.004   2.698 -0.5794  0.0909  0.0179
17953SOL    HW165918   8.722   4.016   2.794  0.2051 -2.5567  0.1665
17953SOL    HW265919   8.601   3.969   2.694  0.0891 -1.7758 -0.0593
17954SOL     OW65920   2.375   0.768   9.871  0.3262  0.4311  0.6047
17954SOL    HW165921   2.434   0.818   9.807  0.2990 -1.1077 -0.6551
17954SOL    HW265922   2.350   0.828   9.947  0.9004  2.0925 -0.4855
17955SOL     OW65923   1.014   5.480   2.805 -0.5738  0.7851 -0.0255
17955SOL    HW165924   1.025   5.387   2.770 -3.8198  0.2851  0.1582
17955SOL    HW265925   1.007   5.479   2.904  1.9711  1.5352  0.1987
17956SOL     OW65926   0.603   6.658   6.344  1.0844 -0.5182 -0.6784
17956SOL    HW165927   0.664   6.624   6.416  1.6785  1.1827 -0.3490
17956SOL    HW265928   0.594   6.589   6.272  1.4395 -1.7592  0.4534
17957SOL     OW65929   0.065   2.754   1.072 -0.1283 -0.1263 -0.1233
17957SOL    HW165930   0.144   2.703   1.106 -0.1268  0.1214  0.2489
17957SOL    HW265931   0.015   2.795   1.149  1.3399  2.6048 -0.5498
17958SOL     OW65932   1.321   5.316   9.487 -0.2845  0.0730  0.3378
17958SOL    HW165933   1.296   5.327   9.391 -0.2106 -0.4210  0.2603
17958SOL    HW265934   1.407   5.265   9.494  1.4473  2.9235  0.5550
17959SOL     OW65935   5.383   4.957   2.253 -0.2514 -0.7432  0.4441
17959SOL    HW165936   5.477   4.986   2.235 -0.2493 -0.8405  0.2999
17959SOL    HW265937   5.372   4.862   2.225 -0.5273 -0.5845  0.0177
17960SOL     OW65938   9.185   5.724   2.190 -0.1074 -0.5638 -0.2021
17960SOL    HW165939   9.205   5.633   2.226  1.4165 -1.0797 -2.2707
17960SOL    HW265940   9.159   5.716   2.094  1.7118  1.3445 -0.8784
17961SOL     OW65941   3.567   2.663   6.792  0.9868  0.0455 -0.1424
17961SOL    HW165942   3.509   2.641   6.870 -0.9183 -1.6828 -1.9587
17961SOL    HW265943   3.590   2.761   6.793 -0.9384  0.5051  1.2908
17962SOL     OW65944   0.290   9.303   1.168 -0.3414 -0.6005 -0.2942
17962SOL    HW165945   0.192   9.288   1.159 -0.0281 -2.0170 -1.4894
17962SOL    HW265946   0.317   9.380   1.109 -0.8966  0.4928  0.8643
17963SOL     OW65947   1.153   0.310   1.571 -0.2467  0.6825  0.2998
17963SOL    HW165948   1.226   0.317   1.502 -0.4772 -0.4649 -0.0763
17963SOL    HW265949   1.084   0.245   1.539 -0.9845  1.0932  1.0619
17964SOL     OW65950   5.295   2.224   0.162  0.4556 -0.9882 -0.2714
17964SOL    HW165951   5.300   2.307   0.218 -0.1558 -0.1825 -1.3700
17964SOL    HW265952   5.331   2.244   0.070  1.0410 -2.1624 -0.2997
17965SOL     OW65953   1.841   3.043   5.995  0.0687  0.2781 -0.0182
17965SOL    HW165954   1.930   3.085   5.979  0.2488 -0.6274 -1.4825
17965SOL    HW265955   1.836   3.011   6.090 -0.0330  3.4333  1.0740
17966SOL     OW65956   9.570   1.536   1.244  0.9310 -0.2188 -0.7124
17966SOL    HW165957   9.617   1.590   1.313  0.7639  0.7950 -1.3809
17966SOL    HW265958   9.542   1.448   1.283  0.6895  0.4083  0.5444
17967SOL     OW65959   9.732   3.614   5.057  0.0525  0.5245 -0.1046
17967SOL    HW165960   9.831   3.627   5.046  0.0190  0.8755  0.0191
17967SOL    HW265961   9.692   3.695   5.100 -0.3987  0.6780 -0.7997
17968SOL     OW65962   7.211   0.074   3.579  0.1779  0.3751  0.2408
17968SOL    HW165963   7.116   0.045   3.584 -0.1952  1.3174 -1.1148
17968SOL    HW265964   7.269   0.008   3.627 -0.7966 -1.8681 -1.6209
17969SOL     OW65965   8.556   6.980   3.452  0.0785  0.4044  0.3439
17969SOL    HW165966   8.471   6.932   3.429 -0.0785  0.3870  0.9508
17969SOL    HW265967   8.631   6.915   3.457  0.9999  0.9231 -4.3614
17970SOL     OW65968   4.599   2.907   5.099 -0.0396  0.4194  0.2805
17970SOL    HW165969   4.679   2.863   5.058 -2.6455 -2.0028 -2.3601
17970SOL    HW265970   4.579   2.864   5.187  1.0013  0.4777  0.5633
17971SOL     OW65971   8.404   2.309   9.941 -0.4190 -0.5837 -0.1353
17971SOL    HW165972   8.453   2.293  10.026 -1.4041  0.0634  0.5735
17971SOL    HW265973   8.451   2.263   9.865  1.9067  0.9138  0.3209
17972SOL     OW65974   0.030   1.706   1.788 -0.1208  0.7266 -0.1425
17972SOL    HW165975   0.022   1.711   1.888 -0.0931  2.2786 -0.2034
17972SOL    HW265976   0.115   1.660   1.763 -0.1967  0.2046  0.5389
17973SOL     OW65977   1.418   5.066   4.647 -0.1222  0.0563 -0.0861
17973SOL    HW165978   1.501   5.058   4.593 -0.0056 -1.2669  0.2590
17973SOL    HW265979   1.358   4.987   4.628 -1.0318  0.6871  0.1064
17974SOL     OW65980   9.929   4.500   1.208  0.3627  0.4716  0.1042
17974SOL    HW165981   9.855   4.434   1.222  0.4058  0.0424 -1.5771
17974SOL    HW265982   9.992   4.466   1.138  2.3301  0.7113  1.7106
17975SOL     OW65983   9.097   2.955   8.343 -0.4352 -0.0271 -0.5403
17975SOL    HW165984   9.147   3.019   8.285  0.9985  1.7865  2.5737
17975SOL    HW265985   9.098   2.864   8.301  3.3168  0.5311 -1.8148
17976SOL     OW65986   3.798   1.655   8.754 -0.0633 -0.2733 -0.1952
17976SOL    HW165987   3.795   1.673   8.656  0.2046 -0.1836 -0.1869
17976SOL    HW265988   3.745   1.724   8.803 -0.9353 -0.8209 -0.3414
17977SOL     OW65989   7.359   0.990   4.794  1.0275 -0.4863  0.4754
17977SOL    HW165990   7.359   0.999   4.894  0.5360  0.2921  0.4048
17977SOL    HW265991   7.299   0.914   4.768  1.9463 -1.3482  0.8231
17978SOL     OW65992   9.761   1.873   1.868  0.4986 -0.0719 -0.5330
17978SOL    HW165993   9.675   1.825   1.883  0.4016  0.2713  0.0088
17978SOL    HW265994   9.835   1.807   1.855 -0.0880 -0.4023 -2.4954
17979SOL     OW65995   2.226   8.104   3.638 -0.4069 -0.4606 -0.0667
17979SOL    HW165996   2.192   8.198   3.634 -0.3296 -0.3806  1.0167
17979SOL    HW265997   2.256   8.076   3.547  0.6268  0.9423 -0.1747
17980SOL     OW65998   8.625   2.986   0.698  0.4885 -0.1356 -0.8416
17980SOL    HW165999   8.691   2.927   0.652 -1.0524 -0.6419 -2.4381
17980SOL    HW266000   8.665   3.020   0.784  2.5223 -1.0237 -1.4103
17981SOL     OW66001   3.000   8.480   6.362 -0.5487 -0.0849  0.0467
17981SOL    HW166002   3.000   8.557   6.427 -1.8166 -0.0743  0.0481
17981SOL    HW266003   2.943   8.503   6.284  2.2256  0.5425 -1.8853
17982SOL     OW66004   9.785   0.412   5.956 -0.8611 -0.1586 -0.3900
17982SOL    HW166005   9.741   0.367   5.878 -1.7452 -1.1585  0.6833
17982SOL    HW266006   9.859   0.355   5.990  1.1408  1.3715 -1.9847
17983SOL     OW66007   2.251   5.054   5.662 -0.4579 -0.0369 -0.6412
17983SOL    HW166008   2.252   5.143   5.707 -0.0496  0.3451 -1.3945
17983SOL    HW266009   2.158   5.015   5.665 -0.1563 -0.6152  1.6687
17984SOL     OW66010   4.173   1.624   9.727 -0.4705  0.0342  0.0611
17984SOL    HW166011   4.103   1.693   9.742  0.2017  0.4353  1.4444
17984SOL    HW266012   4.130   1.534   9.716 -1.1953  0.2047  1.3426
17985SOL     OW66013   8.173   2.455   8.103 -0.1153  0.1465  0.0426
17985SOL    HW166014   8.209   2.525   8.165  0.0914 -0.1275  0.2291
17985SOL    HW266015   8.089   2.417   8.143  0.6145 -0.8033  0.6746
17986SOL     OW66016   5.866   0.473   5.815  0.1583 -0.7468 -0.0245
17986SOL    HW166017   5.838   0.486   5.720  1.2528 -0.9645 -0.3758
17986SOL    HW266018   5.792   0.430   5.866 -1.2098  1.2027 -0.2991
17987SOL     OW66019   0.570   6.229   8.074 -0.5234  0.4602 -0.4604
17987SOL    HW166020   0.575   6.307   8.136 -0.2965  1.5317 -1.8051
17987SOL    HW266021   0.641   6.163   8.098 -1.6624 -0.0586  1.6256
17988SOL     OW66022   4.215   8.652   5.771  0.1840  0.1934 -0.3243
17988SOL    HW166023   4.232   8.624   5.865 -0.7457  0.3847 -0.0887
17988SOL    HW266024   4.301   8.673   5.726  0.5115  2.2861  1.1849
17989SOL     OW66025   2.048   7.262   4.002 -0.6136 -0.6641 -0.1225
17989SOL    HW166026   2.007   7.322   4.071  0.9669 -0.5284  0.7282
17989SOL    HW266027   2.012   7.285   3.912  0.0810  1.6777  0.1697
17990SOL     OW66028   9.618   9.649   5.527  0.0262  0.3232 -0.4167
17990SOL    HW166029   9.614   9.742   5.563  2.2755 -0.2429  1.4098
17990SOL    HW266030   9.583   9.585   5.596  2.4707 -0.5756  0.0371
17991SOL     OW66031   1.636   4.657   0.313  0.1742  0.5942  0.1199
17991SOL    HW166032   1.564   4.656   0.243  1.1746  0.7645 -0.9322
17991SOL    HW266033   1.719   4.698   0.274  1.4343 -1.3271  0.7259
17992SOL     OW66034   4.358   7.100   3.977  0.0313 -1.0041  0.0260
17992SOL    HW166035   4.326   7.007   3.960 -2.2689 -0.3212  0.4949
17992SOL    HW266036   4.305   7.165   3.923  0.1114  0.2253  1.3765
17993SOL     OW66037   9.272   8.209   1.443 -0.0379 -0.2035  0.0126
17993SOL    HW166038   9.203   8.275   1.470  0.9709  1.5169 -1.5251
17993SOL    HW266039   9.250   8.173   1.352  1.3553  0.7331 -0.7009
17994SOL     OW66040   0.980   6.534   8.884 -0.1546  0.5346  0.1356
17994SOL    HW166041   1.065   6.585   8.895  0.0375 -0.1225  1.8669
17994SOL    HW266042   0.947   6.504   8.974 -0.3608 -2.1821 -0.7915
17995SOL     OW66043   5.856   1.972   9.972  0.5824  0.0217  0.2348
17995SOL    HW166044   5.915   2.023  10.034  1.4101 -0.3469 -0.2526
17995SOL    HW266045   5.911   1.927   9.903 -0.2782 -0.2418 -0.2844
17996SOL     OW66046   1.620   5.139   2.233 -0.0123 -0.3431 -0.1245
17996SOL    HW166047   1.588   5.143   2.327 -0.7773 -0.6242 -0.3678
17996SOL    HW266048   1.589   5.220   2.183  1.8643  0.6666  0.3102
17997SOL     OW66049   4.350   2.260   4.299 -1.1180 -0.1469  0.1714
17997SOL    HW166050   4.374   2.212   4.383 -1.9654 -0.1954  0.3874
17997SOL    HW266051   4.402   2.346   4.293  0.2466 -0.9637 -0.1132
17998SOL     OW66052   9.846   5.229   5.891  0.5218  0.5371 -0.6350
17998SOL    HW166053   9.847   5.327   5.913  2.1747  0.6448 -1.1547
17998SOL    HW266054   9.916   5.209   5.823 -0.3349 -0.8920 -1.1189
17999SOL     OW66055   8.934   4.129   1.393  0.0485 -0.1322  0.1142
17999SOL    HW166056   8.991   4.195   1.345  0.8070 -1.3820 -0.7393
17999SOL    HW266057   8.973   4.038   1.384 -0.8171 -0.6746  1.5305
18000SOL     OW66058   2.545   8.446   0.159 -0.1463  0.3230 -0.4886
18000SOL    HW166059   2.630   8.428   0.209  0.3379  0.8419 -1.1071
18000SOL    HW266060   2.547   8.539   0.122 -1.5507  0.7966  0.5874
18001SOL     OW66061   0.702   2.207   7.378  0.0473 -0.1133 -0.6947
18001SOL    HW166062   0.717   2.235   7.472 -0.0577 -0.2086 -0.6491
18001SOL    HW266063   0.786   2.218   7.326  0.6982 -1.9950 -0.0931
18002SOL     OW66064   1.837   6.603   8.874  0.1059  0.6442  0.5459
18002SOL    HW166065   1.784   6.561   8.948  0.1591  2.5540  1.7197
18002SOL    HW266066   1.888   6.533   8.825 -1.2746 -0.8654  1.2301
18003SOL     OW66067   3.640   0.634   3.519 -0.0648  0.6365 -0.6419
18003SOL    HW166068   3.700   0.715   3.517 -0.3742  0.8517 -2.0732
18003SOL    HW266069   3.695   0.552   3.507  0.2872  0.5877  1.1156
18004SOL     OW66070   2.390   3.843   3.864  0.4966 -0.1750  0.2835
18004SOL    HW166071   2.356   3.754   3.895 -1.1310  0.0513 -0.8088
18004SOL    HW266072   2.380   3.910   3.938 -0.8729 -0.2665  0.1981
18005SOL     OW66073   9.089   5.036   5.198  0.1573  0.1206  0.0902
18005SOL    HW166074   9.028   4.986   5.136 -1.7260  1.3940  0.8859
18005SOL    HW266075   9.166   4.977   5.223  1.3187 -0.2076 -3.9248
18006SOL     OW66076   2.082   4.080   8.002  0.6121 -0.2606 -0.5009
18006SOL    HW166077   2.177   4.085   8.031  0.8256  1.5149 -1.4190
18006SOL    HW266078   2.022   4.083   8.082  1.3085 -0.5175  0.0293
18007SOL     OW66079   2.539   8.866   1.692 -0.1742 -0.0814 -0.2395
18007SOL    HW166080   2.457   8.909   1.729  0.8166  1.3674  0.2637
18007SOL    HW266081   2.619   8.895   1.743  0.8273 -0.4914 -1.5412
18008SOL     OW66082   6.121   9.983   3.966  0.0248  0.0731 -0.3704
18008SOL    HW166083   6.095  10.066   4.016  1.0338 -0.6926  1.4645
18008SOL    HW266084   6.220   9.980   3.956 -0.0547 -0.6221 -0.9652
18009SOL     OW66085   9.471   2.936   6.719 -0.0305  0.0228 -0.3012
18009SOL    HW166086   9.513   3.006   6.776 -1.1628  1.0507 -0.7164
18009SOL    HW266087   9.390   2.898   6.765 -0.5440  0.3622 -0.9083
18010SOL     OW66088   3.012   4.164   3.453 -0.5879 -0.3136 -0.0740
18010SOL    HW166089   3.033   4.130   3.362  0.4025 -1.9339  0.7375
18010SOL    HW266090   2.923   4.210   3.452 -1.2530 -1.6047 -1.5315
18011SOL     OW66091   2.036   7.677   6.535  0.0503  0.0914  0.4500
18011SOL    HW166092   1.954   7.721   6.570 -0.2308 -0.6995  0.7963
18011SOL    HW266093   2.034   7.580   6.557  0.5260 -0.1572 -0.5460
18012SOL     OW66094   0.350   3.254   9.869  0.4529  0.7512 -0.6001
18012SOL    HW166095   0.262   3.251   9.821 -0.0657 -1.1565  0.4055
18012SOL    HW266096   0.420   3.213   9.811  0.0672 -0.4560 -0.2282
18013SOL     OW66097   3.594   3.849   4.645 -0.0273  0.7002  0.5640
18013SOL    HW166098   3.581   3.771   4.583  1.9451  1.0310 -0.3135
18013SOL    HW266099   3.551   3.829   4.733 -1.3056 -0.5249 -0.3033
18014SOL     OW66100   1.959   9.123   2.960 -0.2790  0.1414  0.0068
18014SOL    HW166101   1.887   9.172   3.009 -0.2631 -1.3882  1.6207
18014SOL    HW266102   1.918   9.053   2.901 -0.1838  0.4222 -0.3963
18015SOL     OW66103   5.871   1.545   0.389 -0.5985 -0.0598 -0.5003
18015SOL    HW166104   5.789   1.504   0.429 -0.7797  0.0839 -0.7276
18015SOL    HW266105   5.859   1.644   0.381 -0.1692  0.0408  0.0258
18016SOL     OW66106   2.978   9.778   6.990 -0.2249 -0.5865 -0.3223
18016SOL    HW166107   2.905   9.710   6.990 -0.4511 -0.3424 -0.5563
18016SOL    HW266108   2.988   9.817   7.081 -0.1286 -0.8931 -0.1987
18017SOL     OW66109   9.173   9.198   5.591  0.2835  0.0066 -0.0760
18017SOL    HW166110   9.091   9.141   5.581  0.4858 -0.5209  1.1554
18017SOL    HW266111   9.161   9.282   5.539  0.1551 -1.3246 -2.2489
18018SOL     OW66112   9.813   0.754   1.748  0.1994  0.4459  0.4118
18018SOL    HW166113   9.842   0.662   1.774  1.4434  0.3663 -1.1509
18018SOL    HW266114   9.893   0.807   1.718 -0.7948  1.3356 -0.7419
18019SOL     OW66115   8.893   3.327   6.365 -0.1473  0.6696  0.6595
18019SOL    HW166116   8.971   3.390   6.362  0.3971 -0.0005  0.8838
18019SOL    HW266117   8.847   3.336   6.453  1.6463 -1.3077  1.8585
18020SOL     OW66118   9.260   8.377   2.965  0.5261  0.5114 -0.4980
18020SOL    HW166119   9.214   8.466   2.960 -0.0314  0.2055 -0.8985
18020SOL    HW266120   9.261   8.345   3.059 -0.1610  0.4787 -0.5001
18021SOL     OW66121   9.654   3.403   9.471  0.0993  0.4174  0.4174
18021SOL    HW166122   9.685   3.441   9.558 -1.4250  1.7508  0.4031
18021SOL    HW266123   9.596   3.470   9.424  0.7592 -0.3478 -1.5506
18022SOL     OW66124   5.400   2.533   9.044 -0.2576  0.1938  0.7176
18022SOL    HW166125   5.408   2.509   9.141  1.0460  3.7870  1.5753
18022SOL    HW266126   5.353   2.621   9.035 -0.8109 -0.3271 -1.9502
18023SOL     OW66127   7.051   0.030   8.163  0.3389 -0.1937 -0.3971
18023SOL    HW166128   7.012   0.120   8.181 -0.6374 -1.1000  2.2319
18023SOL    HW266129   7.136   0.019   8.216  0.2172 -0.9845 -0.3617
18024SOL     OW66130   4.513   3.720   7.749 -0.0823 -0.1228  0.1051
18024SOL    HW166131   4.577   3.643   7.748  1.0168  0.7641 -2.0424
18024SOL    HW266132   4.459   3.719   7.664 -2.0936 -0.1593  1.3447
18025SOL     OW66133   7.432   5.225   0.046  0.1680  0.1575 -0.0686
18025SOL    HW166134   7.460   5.141   0.092  0.4027 -0.0920 -0.6517
18025SOL    HW266135   7.345   5.257   0.083 -0.6316 -1.1223 -0.8058
18026SOL     OW66136   2.601   0.852   8.856 -0.1309 -0.2169 -0.5052
18026SOL    HW166137   2.669   0.880   8.924 -1.2454  1.1840  0.0627
18026SOL    HW266138   2.640   0.860   8.764  0.1891  1.4109 -0.2319
18027SOL     OW66139   9.861   0.610   3.580  0.1970 -0.5840  0.8216
18027SOL    HW166140   9.957   0.586   3.597 -0.0601 -2.1602  0.1748
18027SOL    HW266141   9.836   0.584   3.486 -0.9306 -0.4412  1.0734
18028SOL     OW66142   9.120   5.884   5.052 -0.8167 -0.4472  0.4067
18028SOL    HW166143   9.137   5.831   4.969 -1.3718 -1.2792  0.8199
18028SOL    HW266144   9.023   5.908   5.056 -0.9022 -0.9313  1.1275
18029SOL     OW66145   7.102   9.008   3.033  0.0353 -0.4754 -1.0131
18029SOL    HW166146   7.153   9.088   3.066 -0.8464 -0.5799  0.6282
18029SOL    HW266147   7.010   9.036   3.008 -0.9574 -1.3415  1.5615
18030SOL     OW66148   2.583   7.232   5.577 -0.5097 -0.3036 -0.3448
18030SOL    HW166149   2.496   7.194   5.610  0.9114 -2.6220  0.8707
18030SOL    HW266150   2.656   7.207   5.640  1.1486  1.1800 -1.6345
18031SOL     OW66151   9.943   6.825   9.453  0.1428  0.1756  0.4284
18031SOL    HW166152  10.014   6.873   9.400  0.6965 -1.0887  0.0182
18031SOL    HW266153   9.925   6.876   9.537  0.7744  1.0736  0.0342
18032SOL     OW66154   0.240   7.159   9.501 -0.0183  0.1180 -0.0601
18032SOL    HW166155   0.335   7.177   9.474  0.4727 -1.6773  0.4416
18032SOL    HW266156   0.238   7.113   9.589 -1.3372 -0.2259 -0.2560
18033SOL     OW66157   5.696   6.011   1.273 -0.6270  0.0519  0.2908
18033SOL    HW166158   5.642   5.955   1.337 -1.3419  0.5089  0.0897
18033SOL    HW266159   5.746   5.951   1.210 -1.9523 -0.3520 -0.3853
18034SOL     OW66160   3.612   1.849   2.551 -0.4335  0.2691  0.1668
18034SOL    HW166161   3.550   1.892   2.616  0.4697  2.1173 -0.1467
18034SOL    HW266162   3.666   1.779   2.598 -0.5346  0.8469  1.1560
18035SOL     OW66163   9.479   3.603   9.592 -0.6677 -0.4918  0.2416
18035SOL    HW166164   9.384   3.607   9.623 -0.7050 -0.9777  0.1818
18035SOL    HW266165   9.531   3.542   9.652 -0.4729 -0.5117  0.0521
18036SOL     OW66166   3.493   6.059   3.999 -0.4584 -0.0413 -0.0592
18036SOL    HW166167   3.502   5.988   3.930  1.3601 -0.8777  1.0046
18036SOL    HW266168   3.459   6.018   4.085  0.4171  0.4041  0.5018
18037SOL     OW66169   3.322   8.329   4.319  0.1711  0.2232 -0.4486
18037SOL    HW166170   3.263   8.256   4.284 -0.5377  0.7365 -0.3411
18037SOL    HW266171   3.393   8.349   4.252 -0.5828  0.5116 -1.1718
18038SOL     OW66172   3.244   2.532   9.035  1.2679  0.5202  0.5042
18038SOL    HW166173   3.223   2.559   9.129  0.4793  0.7280  0.2661
18038SOL    HW266174   3.166   2.484   8.995  1.9580 -0.4350  0.2780
18039SOL     OW66175   9.086   6.754   8.060 -0.4592  0.3092  0.5440
18039SOL    HW166176   9.000   6.710   8.082  0.1656 -2.4465 -2.1593
18039SOL    HW266177   9.076   6.808   7.977  0.2332  0.5075  0.5808
18040SOL     OW66178   3.018   0.795   8.665 -0.0587  0.1551 -0.6068
18040SOL    HW166179   3.102   0.741   8.659 -0.5720 -0.9089  1.4162
18040SOL    HW266180   2.941   0.735   8.687 -0.2435  1.9087  4.2337
18041SOL     OW66181   9.562   5.605   6.820 -0.1480  0.2528  0.3321
18041SOL    HW166182   9.594   5.510   6.812 -1.8555 -0.1884 -1.7141
18041SOL    HW266183   9.514   5.617   6.907  1.2032 -0.3800  1.1934
18042SOL     OW66184   6.780   7.099   4.535  0.4795  0.6432 -0.0584
18042SOL    HW166185   6.700   7.041   4.545 -0.9664  2.7298  0.6540
18042SOL    HW266186   6.795   7.119   4.438 -1.0662  1.9096 -0.0397
18043SOL     OW66187   4.004   8.521   6.674  0.2502 -0.1505 -0.0537
18043SOL    HW166188   3.920   8.467   6.667  0.1597  0.0424 -0.5016
18043SOL    HW266189   4.076   8.479   6.619  0.5101 -0.4323  0.5002
18044SOL     OW66190   7.209   7.456   5.356  0.7637  0.3871 -0.7360
18044SOL    HW166191   7.153   7.376   5.378  0.7258  0.8180  0.8107
18044SOL    HW266192   7.159   7.517   5.295  0.1774 -0.0175 -0.6594
18045SOL     OW66193   5.050   3.016   2.362 -0.4739  0.5280 -0.0763
18045SOL    HW166194   4.982   3.035   2.291 -0.5996 -0.5228 -0.2491
18045SOL    HW266195   5.109   3.096   2.375 -0.0152  0.5040 -1.8545
18046SOL     OW66196   8.271   8.485   2.517  0.0204  0.5267 -0.7789
18046SOL    HW166197   8.340   8.466   2.587 -1.6307 -0.7664  0.5315
18046SOL    HW266198   8.303   8.451   2.429  1.3687  0.5708 -0.3170
18047SOL     OW66199   8.187   7.762   0.546  0.2076 -0.3958 -0.4740
18047SOL    HW166200   8.096   7.795   0.574  0.7150  0.1850  0.5287
18047SOL    HW266201   8.205   7.674   0.591  0.7143  0.1753  0.4631
18048SOL     OW66202   3.026   4.271   5.264 -0.2184 -0.2201  0.1286
18048SOL    HW166203   3.104   4.332   5.250 -0.5847  0.1460 -0.3313
18048SOL    HW266204   3.018   4.208   5.187 -0.5414 -0.0775  0.0453
18049SOL     OW66205   7.572   2.449   8.621  0.3590 -0.0384  0.0721
18049SOL    HW166206   7.552   2.514   8.694 -1.0488 -1.2214  0.7773
18049SOL    HW266207   7.581   2.357   8.661  1.7763 -0.3722 -0.9678
18050SOL     OW66208   4.853   0.015   6.727  0.0906 -0.3706 -0.0457
18050SOL    HW166209   4.792  -0.051   6.682 -0.8577  0.8114 -0.5252
18050SOL    HW266210   4.846   0.004   6.826 -0.7866 -0.3543 -0.1016
18051SOL     OW66211   7.131   0.259   7.273  0.3136 -0.2298  0.0885
18051SOL    HW166212   7.062   0.321   7.235 -1.2382 -1.2272  1.2055
18051SOL    HW266213   7.196   0.234   7.202  1.1317  2.8791 -0.3151
18052SOL     OW66214   5.558   1.732   4.731  0.1966  0.4469  0.4491
18052SOL    HW166215   5.561   1.800   4.804  2.5433  1.7807 -0.8316
18052SOL    HW266216   5.487   1.757   4.665 -0.0358  0.7596  0.8184
18053SOL     OW66217   1.942   5.528   8.845  0.1547 -0.0476 -0.0284
18053SOL    HW166218   1.912   5.571   8.759  1.8227  0.9002 -0.1527
18053SOL    HW266219   2.042   5.522   8.846  0.1069 -0.7483  1.5288
18054SOL     OW66220   2.613   4.784   2.431 -0.4447 -0.0638 -0.8215
18054SOL    HW166221   2.576   4.845   2.362 -0.8595  1.1635  0.4636
18054SOL    HW266222   2.686   4.831   2.481 -1.3547 -0.2968  0.7572
18055SOL     OW66223   1.039   4.700   7.116 -0.0010  0.2242  0.6095
18055SOL    HW166224   0.963   4.740   7.065 -1.3052 -0.4803  1.9722
18055SOL    HW266225   1.053   4.751   7.200  2.3523  1.5710 -0.5493
18056SOL     OW66226   2.564   7.160   8.712  0.1296  0.0206 -0.0868
18056SOL    HW166227   2.466   7.179   8.703 -0.5042 -1.7167  2.4475
18056SOL    HW266228   2.616   7.244   8.700 -1.7374  1.1410 -0.5093
18057SOL     OW66229   5.862   6.436  10.071  0.0819 -0.6498  0.0337
18057SOL    HW166230   5.900   6.493  10.144  0.2750 -1.4848  0.6053
18057SOL    HW266231   5.771   6.470  10.046  1.4377  1.7781 -1.8334
18058SOL     OW66232   2.392   0.264   9.789  0.4062  0.5939  0.1929
18058SOL    HW166233   2.482   0.302   9.814  0.3860  0.0227  1.1777
18058SOL    HW266234   2.321   0.309   9.844  0.3814 -0.8405  1.3701
18059SOL     OW66235   7.963   3.759   0.436 -0.4947 -0.4442  0.2289
18059SOL    HW166236   8.013   3.716   0.361 -0.9042 -1.5852  0.5965
18059SOL    HW266237   7.989   3.716   0.522 -2.4535 -1.4093  0.3675
18060SOL     OW66238   9.825   9.432   2.474 -0.1915 -0.0492 -0.4423
18060SOL    HW166239   9.798   9.515   2.524  0.3354 -0.3518  0.3445
18060SOL    HW266240   9.875   9.371   2.535 -1.6052 -1.4819 -0.6919
18061SOL     OW66241   0.616   7.864   7.585 -0.1223  0.0170 -0.0263
18061SOL    HW166242   0.713   7.884   7.572  0.1409 -0.2544  1.4443
18061SOL    HW266243   0.604   7.811   7.669 -1.4826 -0.4426 -0.5037
18062SOL     OW66244   6.451   1.920   0.890 -0.3036  0.8424  0.1391
18062SOL    HW166245   6.520   1.878   0.831  1.3741  1.0600  1.8617
18062SOL    HW266246   6.376   1.956   0.835 -0.2258 -1.5544 -1.6111
18063SOL     OW66247   0.667   1.205   1.047  0.4032  0.0542 -0.6498
18063SOL    HW166248   0.683   1.292   1.000  1.8528  0.4044  0.4590
18063SOL    HW266249   0.736   1.138   1.018  0.4014 -0.1720 -0.1444
18064SOL     OW66250   9.196   1.229   5.897 -0.7174  0.0600 -0.3895
18064SOL    HW166251   9.280   1.214   5.845 -0.2210 -0.8335  0.6608
18064SOL    HW266252   9.142   1.145   5.899 -0.5378 -0.0304  0.8885
18065SOL     OW66253   9.362   5.295   6.343 -0.3381  0.3636 -0.0901
18065SOL    HW166254   9.400   5.379   6.383 -1.0001  0.9114 -0.6026
18065SOL    HW266255   9.299   5.319   6.269  0.3517 -0.6178 -1.0142
18066SOL     OW66256   3.619   2.935   4.816  0.2292 -0.8590  0.0391
18066SOL    HW166257   3.549   2.996   4.854  2.7116  0.8383  2.0482
18066SOL    HW266258   3.599   2.841   4.844 -1.7552 -0.5328 -0.2177
18067SOL     OW66259   0.476   7.862   1.314  0.2579  0.1140 -0.4621
18067SOL    HW166260   0.563   7.815   1.322  0.2836  0.1504 -0.5323
18067SOL    HW266261   0.429   7.860   1.402  0.7958  1.0071 -0.1544
18068SOL     OW66262   6.875   9.557   7.698  0.3501 -0.3558 -0.1094
18068SOL    HW166263   6.914   9.649   7.689  0.7996 -0.5002  0.3258
18068SOL    HW266264   6.927   9.506   7.766  0.1386 -0.9530 -0.3945
18069SOL     OW66265   3.640   5.836   7.809 -0.0185  0.0318 -0.2326
18069SOL    HW166266   3.608   5.875   7.722 -1.1477  3.4651  1.6367
18069SOL    HW266267   3.565   5.834   7.874  1.6260  0.7926  1.7543
18070SOL     OW66268   8.419   3.385   1.899 -0.4184  0.3241 -0.5931
18070SOL    HW166269   8.343   3.321   1.891 -1.3607  1.1624  1.4336
18070SOL    HW266270   8.402   3.464   1.840 -0.6991  0.1234 -0.7862
18071SOL     OW66271   0.239   5.540   9.561 -0.3249  0.2624 -0.1658
18071SOL    HW166272   0.220   5.638   9.572 -0.2318  0.2806 -0.1639
18071SOL    HW266273   0.252   5.520   9.464  3.4387  0.9778  0.1106
18072SOL     OW66274   1.561   1.506   1.221 -0.2297  0.2610 -0.5551
18072SOL    HW166275   1.472   1.465   1.240 -0.0432 -0.0629 -0.3899
18072SOL    HW266276   1.569   1.592   1.273 -0.5069  0.3688 -0.6888
18073SOL     OW66277   6.959   6.245   8.600  0.2040 -0.0590  0.4477
18073SOL    HW166278   6.877   6.234   8.656 -0.1065  2.0004  0.4391
18073SOL    HW266279   7.025   6.303   8.649  0.7467  0.0940 -0.4631
18074SOL     OW66280   8.050   3.164   1.080 -0.4554 -0.3404  0.4177
18074SOL    HW166281   8.038   3.226   1.002  0.7383  0.1539  0.6285
18074SOL    HW266282   8.135   3.185   1.127  0.1674 -2.4046  0.2635
18075SOL     OW66283   7.389   9.898   1.816 -0.1465  0.9098 -0.4209
18075SOL    HW166284   7.382   9.803   1.846  2.9454  1.5264  2.5331
18075SOL    HW266285   7.299   9.930   1.787 -1.2305 -2.8939 -1.5509
18076SOL     OW66286   0.470   5.972   7.082  0.1465  0.0876 -0.7323
18076SOL    HW166287   0.534   6.049   7.086  0.3684 -0.0733 -1.1374
18076SOL    HW266288   0.390   5.992   7.138  0.4060  0.4272 -0.4819
18077SOL     OW66289   2.321   5.475   1.894  0.7796 -0.2086 -0.4564
18077SOL    HW166290   2.348   5.569   1.871 -0.0442  0.3596  0.8610
18077SOL    HW266291   2.235   5.476   1.945  0.5444 -1.7151 -0.7900
18078SOL     OW66292   0.098   8.388   3.139  0.5431  0.3835  0.3407
18078SOL    HW166293   0.063   8.482   3.142  0.9443  0.6230 -1.8801
18078SOL    HW266294   0.078   8.347   3.050  0.7807 -1.4946  1.1194
18079SOL     OW66295   4.070   3.181   5.806  0.3822  0.1175 -0.4332
18079SOL    HW166296   4.138   3.213   5.872  0.2277 -0.0875 -0.1753
18079SOL    HW266297   4.104   3.194   5.713  0.6946  0.1884 -0.3070
18080SOL     OW66298   8.333   7.863   0.034  0.1294 -0.0432  0.4018
18080SOL    HW166299   8.306   7.808  -0.044 -0.9904  0.5307  0.3666
18080SOL    HW266300   8.399   7.933   0.005  0.6037 -0.5746  0.2059
18081SOL     OW66301   0.393   4.090   0.088  0.3218 -0.0198  0.4025
18081SOL    HW166302   0.397   4.116   0.184  1.8886  1.7562 -0.1173
18081SOL    HW266303   0.362   3.995   0.081 -2.3159  0.6008  2.5062
18082SOL     OW66304   4.182   4.293   6.500  0.5315  0.4409 -0.0476
18082SOL    HW166305   4.149   4.385   6.478  1.3530  0.9681  0.9118
18082SOL    HW266306   4.109   4.227   6.484 -0.9951  1.5824  1.9979
18083SOL     OW66307   4.820   8.348   6.704  0.9515 -0.0963 -0.6060
18083SOL    HW166308   4.812   8.436   6.656 -0.4307  0.0014 -0.2275
18083SOL    HW266309   4.758   8.281   6.661  1.5354 -0.7066 -0.5025
18084SOL     OW66310   1.813   6.714   0.072 -0.0903  0.2425  0.4045
18084SOL    HW166311   1.872   6.750   0.000 -0.4793  1.9307  0.9269
18084SOL    HW266312   1.848   6.740   0.161  0.3822 -1.8362  0.8625
18085SOL     OW66313   5.850   5.028   0.434 -0.1947  0.6099 -0.2898
18085SOL    HW166314   5.928   5.059   0.487 -1.2673  2.6667  0.1312
18085SOL    HW266315   5.838   4.929   0.447  1.0098  0.6623  1.3672
18086SOL     OW66316   1.232   0.192   0.903 -0.5593 -0.3396  0.9501
18086SOL    HW166317   1.185   0.274   0.870 -0.5515 -0.6903  0.0359
18086SOL    HW266318   1.309   0.219   0.961 -1.3961  0.2545  1.7788
18087SOL     OW66319   9.654   2.578   6.710 -0.6455  0.1183 -1.1641
18087SOL    HW166320   9.702   2.616   6.631 -0.7161 -1.4499 -1.9669
18087SOL    HW266321   9.671   2.636   6.790  1.8033  0.1146 -1.6495
18088SOL     OW66322   2.627   5.663   6.079 -0.2320  1.0521  0.0027
18088SOL    HW166323   2.534   5.693   6.099 -0.2713  1.8750 -1.3419
18088SOL    HW266324   2.656   5.701   5.991  1.0139 -0.0016 -0.0598
18089SOL     OW66325   3.044   3.231   7.814  0.9024 -0.1264 -0.0933
18089SOL    HW166326   3.116   3.226   7.745  0.6032  3.3077 -0.7799
18089SOL    HW266327   2.955   3.243   7.769  0.0279 -2.9928  0.7848
18090SOL     OW66328   1.070   1.815   7.340 -0.0362 -0.1907 -0.2455
18090SOL    HW166329   1.075   1.715   7.343 -1.7056 -0.2684  0.1987
18090SOL    HW266330   1.014   1.848   7.416  0.2266  1.0625 -0.5864
18091SOL     OW66331   9.988   2.141   4.261 -0.2448  0.0797  0.4888
18091SOL    HW166332  10.062   2.102   4.207 -0.7580  0.7202 -0.6988
18091SOL    HW266333  10.024   2.214   4.319  0.3503 -0.7734  1.2185
18092SOL     OW66334   2.338   9.400   9.455  0.2379 -0.2277 -0.0452
18092SOL    HW166335   2.423   9.451   9.437  0.6642 -0.6271  0.7832
18092SOL    HW266336   2.355   9.303   9.442  0.1225 -0.3798  0.9245
18093SOL     OW66337   6.508   5.217   2.379  0.6467  0.0156 -0.7732
18093SOL    HW166338   6.429   5.193   2.323  0.1304  2.0553 -0.9393
18093SOL    HW266339   6.564   5.285   2.330  1.7969 -0.4354 -0.0960
18094SOL     OW66340   4.747   1.722   8.407  0.1988 -0.0140 -0.1283
18094SOL    HW166341   4.654   1.685   8.396  0.1737  0.3357 -1.1103
18094SOL    HW266342   4.777   1.707   8.502 -1.3530  1.0217  0.5570
18095SOL     OW66343   2.176   0.980   6.021  0.8059 -0.4205 -0.1292
18095SOL    HW166344   2.119   0.975   5.939 -1.1471  1.7346  1.0326
18095SOL    HW266345   2.224   1.068   6.023 -0.6735  0.3920  1.9394
18096SOL     OW66346   1.483   0.906   3.224  0.0710 -0.1613 -0.4687
18096SOL    HW166347   1.531   0.988   3.192  1.8506 -0.6977  0.8139
18096SOL    HW266348   1.485   0.903   3.324 -0.2399 -1.6404 -0.5006
18097SOL     OW66349   2.281   7.884   3.828  0.2944  0.2052  0.3745
18097SOL    HW166350   2.337   7.954   3.784  1.1024 -0.4460  0.3501
18097SOL    HW266351   2.185   7.900   3.807  0.7039 -0.4763 -2.2467
18098SOL     OW66352   2.613   1.265   4.469 -0.0299 -0.5737 -0.3003
18098SOL    HW166353   2.529   1.211   4.473 -0.2334 -0.0885  2.6598
18098SOL    HW266354   2.595   1.358   4.499  0.9352  0.4421 -2.6796
18099SOL     OW66355   8.270   5.661   1.542 -0.1140  0.1170 -0.7616
18099SOL    HW166356   8.215   5.705   1.471  0.3290 -0.0790 -1.2325
18099SOL    HW266357   8.356   5.710   1.553 -0.3052  0.3101 -0.1634
18100SOL     OW66358   8.304   6.878   3.470 -0.0180  0.1386  0.3907
18100SOL    HW166359   8.250   6.816   3.413  2.3043 -1.0189 -0.6305
18100SOL    HW266360   8.272   6.872   3.565 -0.7597 -1.5622  0.0498
18101SOL     OW66361   3.258   9.153   6.188  0.0662 -0.2817  0.6178
18101SOL    HW166362   3.286   9.245   6.160 -1.3642 -0.0154  0.0091
18101SOL    HW266363   3.261   9.146   6.287  2.3190 -0.2873  0.5792
18102SOL     OW66364   4.478   1.510   9.492 -0.0652  0.5680  0.1637
18102SOL    HW166365   4.387   1.502   9.452 -0.7019 -1.1604  1.8715
18102SOL    HW266366   4.542   1.543   9.423 -1.4776 -0.6644 -1.7910
18103SOL     OW66367   2.849   2.972   6.443  0.2370  0.9926 -0.6937
18103SOL    HW166368   2.829   3.062   6.481  0.5404  0.2716  1.2538
18103SOL    HW266369   2.813   2.901   6.504  1.9939 -0.2201 -1.0045
18104SOL     OW66370   1.773   6.043   0.221  0.4636 -0.8737 -0.0304
18104SOL    HW166371   1.812   5.971   0.278  1.0940 -0.6629 -0.1981
18104SOL    HW266372   1.844   6.083   0.164  1.2873  3.3446  3.6545
18105SOL     OW66373   3.433   0.280   7.167  0.3633  0.7631  0.2898
18105SOL    HW166374   3.526   0.253   7.144 -0.9844 -1.7619 -2.5949
18105SOL    HW266375   3.391   0.326   7.088 -1.5944 -0.3380  0.6529
18106SOL     OW66376   0.335   6.948   9.327  0.4572 -0.7555  0.0212
18106SOL    HW166377   0.339   6.983   9.234  0.0019 -0.3343  0.1601
18106SOL    HW266378   0.282   7.011   9.384  4.3085  1.2869  1.5472
18107SOL     OW66379   0.068   9.651   7.516 -1.2016  0.2412 -0.1325
18107SOL    HW166380   0.143   9.642   7.452 -1.4136  0.8456 -0.4779
18107SOL    HW266381   0.038   9.747   7.519 -3.4840 -0.3701 -1.7659
18108SOL     OW66382   8.350   7.372   5.594  0.3162 -0.2571 -0.0277
18108SOL    HW166383   8.402   7.398   5.675 -0.4165  0.6037  0.1789
18108SOL    HW266384   8.397   7.407   5.512 -0.0795  0.7872  0.1789
18109SOL     OW66385   8.748   7.626   9.709  0.1423 -0.0824  0.3664
18109SOL    HW166386   8.804   7.544   9.726  0.3649  0.4679  2.4457
18109SOL    HW266387   8.663   7.619   9.761 -0.8152  0.0444 -1.1530
18110SOL     OW66388   2.499   3.638   2.802  0.2928  0.2671  0.3415
18110SOL    HW166389   2.546   3.574   2.742  1.2303  1.8408 -0.6253
18110SOL    HW266390   2.401   3.615   2.806  0.6020 -1.1567 -0.0431
18111SOL     OW66391   0.061   4.535   5.977  0.7817  0.0949  0.2225
18111SOL    HW166392   0.080   4.601   5.905  0.6876  0.1192  0.2191
18111SOL    HW266393   0.146   4.493   6.008  0.7717 -0.2551 -0.2284
18112SOL     OW66394   1.042   6.157   0.771 -0.2214  0.6478  0.1927
18112SOL    HW166395   1.132   6.199   0.756 -0.2138  1.1974  1.6871
18112SOL    HW266396   1.017   6.166   0.868 -3.0448  2.7777 -0.6650
18113SOL     OW66397   9.406   6.429   0.988  0.3673 -0.2529 -0.0111
18113SOL    HW166398   9.410   6.529   0.985  0.1463 -0.2908 -1.7073
18113SOL    HW266399   9.457   6.391   0.911  0.9098 -1.4788  0.9237
18114SOL     OW66400   2.869   2.213  10.022  0.1249 -0.3708  0.6031
18114SOL    HW166401   2.789   2.191  10.078 -0.5513  0.7308  0.0828
18114SOL    HW266402   2.906   2.302  10.051  0.8357 -0.6323  0.4882
18115SOL     OW66403   4.490   8.042   5.179  0.2045 -0.3970 -0.3678
18115SOL    HW166404   4.460   7.971   5.114  2.2623 -1.0034 -0.7135
18115SOL    HW266405   4.567   8.092   5.139 -0.3467  1.1224  0.4617
18116SOL     OW66406   9.814   1.109   5.874  0.2127  0.2400 -0.6365
18116SOL    HW166407   9.773   1.197   5.849 -0.6738  0.3646  1.1808
18116SOL    HW266408   9.795   1.042   5.802  0.1381  1.3083 -1.6229
18117SOL     OW66409   1.689   2.025   9.428 -0.3837 -0.1620  0.2816
18117SOL    HW166410   1.634   1.994   9.350 -0.9449 -1.0206  1.0123
18117SOL    HW266411   1.752   1.952   9.455  0.7552  0.6174 -0.2088
18118SOL     OW66412   4.573   2.453   5.166 -0.2817  0.3112 -0.0145
18118SOL    HW166413   4.653   2.509   5.190 -0.4109  0.4491  0.1018
18118SOL    HW266414   4.548   2.396   5.244 -0.6979  0.7538  0.1813
18119SOL     OW66415   3.092   2.068   0.609  0.5337  0.2812 -0.0695
18119SOL    HW166416   3.189   2.068   0.588  0.7290  1.8538  0.7947
18119SOL    HW266417   3.075   2.012   0.690  0.5596 -0.8856 -0.8541
18120SOL     OW66418   9.813   7.295   4.167  0.6346 -0.0133  0.1300
18120SOL    HW166419   9.735   7.246   4.206  0.6508 -0.9002 -0.9388
18120SOL    HW266420   9.876   7.320   4.240  0.2749 -0.9557  0.7704
18121SOL     OW66421   7.889   5.432   3.995 -0.1513 -0.1187  0.3720
18121SOL    HW166422   7.904   5.513   4.052  1.3802  0.3462 -0.6624
18121SOL    HW266423   7.795   5.399   4.008 -0.2785  0.8497  2.0276
18122SOL     OW66424   8.465   6.346   4.500  0.8841  0.0384  0.0390
18122SOL    HW166425   8.498   6.426   4.449 -1.3055  1.9393  1.4896
18122SOL    HW266426   8.522   6.332   4.581  0.4603  0.9825  0.5111
18123SOL     OW66427   6.624   8.846   6.056 -0.2360 -0.1824  0.6957
18123SOL    HW166428   6.621   8.920   6.122 -0.0175  0.2539  0.2224
18123SOL    HW266429   6.713   8.845   6.010 -0.6161 -0.0447 -0.0680
18124SOL     OW66430   2.678   4.053   8.231  0.1211  0.2484  0.7591
18124SOL    HW166431   2.586   4.036   8.197 -0.0079 -0.3754  1.4317
18124SOL    HW266432   2.715   3.971   8.273  1.6214 -0.0061 -0.9547
18125SOL     OW66433   1.264   4.611   5.430  0.1737  0.0060  0.8074
18125SOL    HW166434   1.235   4.520   5.401  1.0175 -0.3971  1.1896
18125SOL    HW266435   1.342   4.640   5.375 -1.5268  1.5003 -0.8910
18126SOL     OW66436   8.579   9.214   9.810  0.3046  0.4679 -0.9604
18126SOL    HW166437   8.609   9.305   9.783 -2.3588  1.1195 -1.9574
18126SOL    HW266438   8.479   9.214   9.821  0.3097 -2.2038 -0.5382
18127SOL     OW66439   3.873   8.479   8.208  0.6526 -0.1327  0.0045
18127SOL    HW166440   3.943   8.512   8.144  1.0743 -1.5740 -0.2911
18127SOL    HW266441   3.914   8.465   8.298  0.6924 -0.7622 -0.1112
18128SOL     OW66442   0.757   5.970   6.349  0.4888 -0.4763  0.3720
18128SOL    HW166443   0.781   5.904   6.420 -1.7664 -1.8090 -0.0639
18128SOL    HW266444   0.830   5.974   6.281  1.7060 -0.7473  1.6415
18129SOL     OW66445   4.633   4.583   0.866  0.0984 -0.0636  0.1785
18129SOL    HW166446   4.609   4.616   0.958 -1.9085 -0.4328 -0.1926
18129SOL    HW266447   4.555   4.594   0.805  1.2416 -0.3333 -1.3717
18130SOL     OW66448   3.434   4.888   2.463 -0.5643 -0.0021 -0.1730
18130SOL    HW166449   3.384   4.803   2.481 -0.4111 -0.4094 -1.6277
18130SOL    HW266450   3.404   4.927   2.376  0.8978  0.2987 -0.5546
18131SOL     OW66451   3.292   0.788   0.286  0.6040  0.2205 -0.7965
18131SOL    HW166452   3.357   0.768   0.359  0.5698  1.5938 -0.3817
18131SOL    HW266453   3.199   0.766   0.316  0.6087  0.6273 -0.4807
18132SOL     OW66454   9.462   3.282   9.812  0.3372  0.5075  1.1850
18132SOL    HW166455   9.410   3.210   9.858 -2.1809  1.3621 -0.2784
18132SOL    HW266456   9.481   3.356   9.875 -2.2080  1.2116  1.1352
18133SOL     OW66457   8.967   5.136   7.391  0.5754 -0.6310 -0.2985
18133SOL    HW166458   8.967   5.214   7.329  1.2867 -0.4477 -0.0638
18133SOL    HW266459   8.872   5.111   7.412  0.3501  0.6069  0.1875
18134SOL     OW66460   6.501   8.296   2.371  0.1339  0.3641 -0.1563
18134SOL    HW166461   6.569   8.360   2.335  1.0665 -1.5343 -1.9224
18134SOL    HW266462   6.547   8.215   2.407 -1.0808  0.1120  0.8486
18135SOL     OW66463   4.254   6.682   0.403 -0.2119  0.0372  0.2779
18135SOL    HW166464   4.251   6.678   0.303 -0.8032  0.0293  0.2938
18135SOL    HW266465   4.344   6.652   0.435  0.5337  1.5968 -0.3209
18136SOL     OW66466   4.707   3.903   7.989  0.2262  0.3072 -0.0934
18136SOL    HW166467   4.638   3.915   8.060 -0.4998 -0.4503 -0.6691
18136SOL    HW266468   4.778   3.841   8.021  1.1145  1.7752  0.8315
18137SOL     OW66469   1.571   1.985   5.118 -0.4151  0.8481  0.1706
18137SOL    HW166470   1.588   2.059   5.184  0.2037  1.6860 -0.9119
18137SOL    HW266471   1.600   1.898   5.157 -1.1763  1.1550  1.4796
18138SOL     OW66472   8.286   8.860   4.807 -0.2005  0.1104 -0.5243
18138SOL    HW166473   8.288   8.912   4.892  2.5547 -1.5612  0.5130
18138SOL    HW266474   8.277   8.922   4.730  0.9296  1.9722  0.7941
18139SOL     OW66475   4.352   1.908   6.695  0.7254 -0.1617 -0.2141
18139SOL    HW166476   4.418   1.892   6.622  1.4972  2.9385 -0.2474
18139SOL    HW266477   4.389   1.974   6.761 -1.5834  0.2184  0.7697
18140SOL     OW66478   0.162   6.097   6.011  0.4694  1.0605 -0.4366
18140SOL    HW166479   0.261   6.105   6.016  0.4611  0.4107  0.8362
18140SOL    HW266480   0.138   6.016   5.957  0.6671 -0.1508  1.2412
18141SOL     OW66481   3.375   1.913   6.374 -0.4284  0.6675 -0.3633
18141SOL    HW166482   3.304   1.980   6.398 -0.6414  0.2542  0.1787
18141SOL    HW266483   3.411   1.872   6.458 -1.5395 -1.1757 -0.7691
18142SOL     OW66484   4.555   9.181   3.377  0.0295  0.0400 -0.1465
18142SOL    HW166485   4.459   9.206   3.381 -0.1906 -1.0341  1.7397
18142SOL    HW266486   4.564   9.085   3.352  0.5762  0.0185  0.1126
18143SOL     OW66487   9.174   8.847   2.663  0.1034  0.2104 -0.2080
18143SOL    HW166488   9.247   8.869   2.598 -0.8139  0.2826 -1.2425
18143SOL    HW266489   9.089   8.891   2.633 -0.8505 -1.5381 -0.1666
18144SOL     OW66490   8.760   4.426   3.891  0.3192  0.0435  0.0219
18144SOL    HW166491   8.837   4.484   3.916 -0.8796  1.4596  0.5531
18144SOL    HW266492   8.679   4.483   3.876 -0.8665 -1.4919  0.4111
18145SOL     OW66493   1.985   2.073   5.344  0.6960 -0.1556  0.2919
18145SOL    HW166494   2.077   2.033   5.343  0.7294 -0.0543 -0.9553
18145SOL    HW266495   1.991   2.170   5.323  0.3677  0.0112  0.9444
18146SOL     OW66496   6.811   7.362   7.009 -0.8252 -0.0909  0.1634
18146SOL    HW166497   6.840   7.375   6.914  2.0693  1.3050  1.1876
18146SOL    HW266498   6.813   7.265   7.031  1.0588 -0.2134 -0.4541
18147SOL     OW66499   3.885   3.189   2.499 -0.0985  0.2301 -0.2750
18147SOL    HW166500   3.940   3.194   2.416 -0.5148  0.3595 -0.5499
18147SOL    HW266501   3.864   3.282   2.531 -0.6847  0.1855 -0.5297
18148SOL     OW66502   9.471   5.384   5.341 -0.2031  0.0481  0.1433
18148SOL    HW166503   9.391   5.325   5.350 -0.7123  0.3354 -2.0420
18148SOL    HW266504   9.443   5.470   5.297  1.1223  0.5671  0.3088
18149SOL     OW66505   2.074   8.865   7.539  0.0570 -0.8795 -0.3230
18149SOL    HW166506   2.145   8.891   7.605 -0.2490  0.8214 -0.6474
18149SOL    HW266507   2.053   8.768   7.550  2.0750 -1.2915  0.1055
18150SOL     OW66508   3.550   3.842   0.066  0.3104 -0.2133  0.4568
18150SOL    HW166509   3.504   3.778   0.004 -0.1828 -0.6412  1.2598
18150SOL    HW266510   3.587   3.792   0.144  1.2231  0.2808  0.3534
18151SOL     OW66511   2.842   1.922   1.485  0.0197  0.3148 -0.1659
18151SOL    HW166512   2.935   1.959   1.480 -0.1734  0.7799 -0.3121
18151SOL    HW266513   2.803   1.943   1.575  0.7023 -1.4299  0.5669
18152SOL     OW66514   0.688   9.896   6.015  0.0559 -0.5123 -0.2151
18152SOL    HW166515   0.607   9.852   5.978 -0.1903  0.6320 -1.0247
18152SOL    HW266516   0.770   9.857   5.971 -0.0998 -0.8861 -0.1794
18153SOL     OW66517   0.284   3.577   5.083 -0.9550 -0.2313 -0.1246
18153SOL    HW166518   0.328   3.645   5.024 -1.8426 -0.1659 -0.7353
18153SOL    HW266519   0.291   3.607   5.178 -0.1478  0.0316 -0.2621
18154SOL     OW66520   1.043   4.003   3.412  0.0897  0.2315 -0.3851
18154SOL    HW166521   1.076   3.931   3.472 -0.3910  0.8035  0.5797
18154SOL    HW266522   1.036   3.968   3.319 -0.0221 -0.9263  0.0467
18155SOL     OW66523   6.208   2.298   1.501  0.1070  0.3329  0.0190
18155SOL    HW166524   6.115   2.261   1.499 -0.1286  0.9169 -0.0037
18155SOL    HW266525   6.242   2.309   1.407 -0.1673  1.0209 -0.0023
18156SOL     OW66526   5.363   6.161   1.012 -0.5030  0.0488 -0.1544
18156SOL    HW166527   5.439   6.129   0.954 -2.6204 -1.0798 -2.3937
18156SOL    HW266528   5.335   6.088   1.074 -0.5345  0.0618 -0.1537
18157SOL     OW66529   2.839   2.494   6.501 -0.1872  0.5226 -0.0462
18157SOL    HW166530   2.747   2.497   6.461 -0.1768 -1.2624 -0.2485
18157SOL    HW266531   2.903   2.455   6.434  0.1430 -0.9779  1.1276
18158SOL     OW66532   3.274   7.369   7.023 -0.2480  0.6358 -0.6215
18158SOL    HW166533   3.180   7.400   7.033 -1.7607 -2.6872 -3.5356
18158SOL    HW266534   3.319   7.367   7.112 -3.3177  1.0302  0.9788
18159SOL     OW66535   7.905   0.780   6.075 -0.5014 -0.2693  0.1754
18159SOL    HW166536   7.990   0.822   6.044 -0.9823  0.5760 -0.0179
18159SOL    HW266537   7.892   0.692   6.028  0.5748 -0.7008  0.6890
18160SOL     OW66538   8.765   6.560   2.608 -0.3501 -0.0281  0.4483
18160SOL    HW166539   8.761   6.650   2.650 -0.5097 -0.3721  1.1934
18160SOL    HW266540   8.739   6.491   2.676 -1.3272 -0.5362 -0.4243
18161SOL     OW66541   1.155   2.191   6.429 -0.6213  0.2381 -0.1219
18161SOL    HW166542   1.067   2.231   6.404 -1.2235 -1.5316 -0.8660
18161SOL    HW266543   1.203   2.161   6.347  2.4097  4.5776 -0.1217
18162SOL     OW66544   1.661   6.506   7.557 -0.0801 -0.1633 -0.2452
18162SOL    HW166545   1.673   6.596   7.598  0.8973 -0.3905 -0.0168
18162SOL    HW266546   1.747   6.456   7.561 -0.4142 -0.8216 -1.0611
18163SOL     OW66547   2.615   0.214   1.843 -0.8475  0.0185  0.1180
18163SOL    HW166548   2.710   0.195   1.866 -0.8971 -1.2773 -0.6723
18163SOL    HW266549   2.567   0.128   1.827 -1.2012  0.7772 -3.2004
18164SOL     OW66550   4.563   1.760   1.576  0.7073 -0.3292 -0.2177
18164SOL    HW166551   4.547   1.680   1.634 -1.1629  1.2125  1.5077
18164SOL    HW266552   4.505   1.836   1.608 -0.3405  0.6048 -4.1192
18165SOL     OW66553   7.546   8.882   4.362 -0.1204 -0.5725  0.4553
18165SOL    HW166554   7.584   8.965   4.321  0.2025 -2.1259 -2.5135
18165SOL    HW266555   7.458   8.903   4.404  0.3123  1.4148  0.4189
18166SOL     OW66556   7.158   0.885   5.210  0.5581  0.3518 -0.3044
18166SOL    HW166557   7.186   0.882   5.306  0.2320 -0.2672 -0.2300
18166SOL    HW266558   7.205   0.813   5.159  2.1299  1.8131 -0.9856
18167SOL     OW66559   2.024   8.722   1.163  0.3493  0.2183  0.4259
18167SOL    HW166560   2.022   8.755   1.068  0.4041  0.9737  0.6895
18167SOL    HW266561   1.986   8.629   1.166 -1.5809  0.9800 -0.0217
18168SOL     OW66562   8.518   8.231   2.544  0.1987  0.4267  0.0686
18168SOL    HW166563   8.481   8.255   2.455 -1.2478 -0.2017  0.4902
18168SOL    HW266564   8.457   8.165   2.589  0.4377  1.4170  1.8891
18169SOL     OW66565   1.977   4.140   0.053  0.6212 -0.0095 -0.2724
18169SOL    HW166566   1.993   4.146   0.151  0.0214  0.6437 -0.2145
18169SOL    HW266567   1.997   4.229   0.010 -1.5376  0.4327 -0.3859
18170SOL     OW66568   3.182   5.425   1.500 -0.1515 -0.3326  0.2810
18170SOL    HW166569   3.240   5.506   1.501 -0.3103 -0.2004 -0.6979
18170SOL    HW266570   3.224   5.352   1.555  1.7023 -0.7594 -1.6381
18171SOL     OW66571   4.419   0.793   7.981  0.1029 -0.0268 -0.5728
18171SOL    HW166572   4.411   0.752   8.072 -1.3177  2.6615  0.5732
18171SOL    HW266573   4.374   0.733   7.914  0.6142 -1.7282  0.5793
18172SOL     OW66574   5.608   3.929   2.051 -0.1556  0.1788  0.4731
18172SOL    HW166575   5.639   3.944   1.957 -1.9864  1.3197  0.0145
18172SOL    HW266576   5.512   3.899   2.050 -0.1591  0.0746  1.9820
18173SOL     OW66577   7.454   0.773   6.460  0.1859 -0.4899 -0.3422
18173SOL    HW166578   7.391   0.780   6.537  0.0964  1.0847 -0.5278
18173SOL    HW266579   7.449   0.857   6.406  3.0383  0.0554  0.1264
18174SOL     OW66580   2.600   0.802   5.998  0.0100 -0.3852 -0.0739
18174SOL    HW166581   2.640   0.890   5.973 -0.4937  0.0984  0.8200
18174SOL    HW266582   2.509   0.816   6.037 -0.5503 -1.3934 -1.0025
18175SOL     OW66583   8.319   5.464   8.190  0.4939 -0.1234 -0.8307
18175SOL    HW166584   8.270   5.419   8.265  1.4576  2.4533  1.4336
18175SOL    HW266585   8.254   5.504   8.126 -0.3992  1.0496  0.7732
18176SOL     OW66586   8.366   3.823   3.262 -0.2804 -0.0135  0.6156
18176SOL    HW166587   8.457   3.833   3.222 -0.5097 -1.7143 -0.3904
18176SOL    HW266588   8.297   3.855   3.197 -0.4541  0.5702  1.0801
18177SOL     OW66589   9.986   1.500   9.184  0.1402  0.1158  0.2831
18177SOL    HW166590   9.906   1.551   9.152 -0.6005 -0.5433  1.0764
18177SOL    HW266591  10.004   1.522   9.279  0.1896 -0.6292  0.4469
18178SOL     OW66592  10.004   7.038   9.198 -0.1828  0.0510  0.4586
18178SOL    HW166593   9.945   7.007   9.124  0.3545  0.4712 -0.1450
18178SOL    HW266594   9.948   7.071   9.274 -0.7234  1.7586 -0.6634
18179SOL     OW66595   3.636   3.021   7.636  0.1544  0.0884  0.6336
18179SOL    HW166596   3.724   3.069   7.640 -0.4099  1.0779  1.2258
18179SOL    HW266597   3.624   2.967   7.718 -0.2020  0.6852  0.9779
18180SOL     OW66598   9.508   6.334   3.630 -0.6737 -0.3176  0.7050
18180SOL    HW166599   9.525   6.276   3.550  1.5107  1.4551 -0.1830
18180SOL    HW266600   9.595   6.372   3.662 -1.9961  2.0635  1.5533
18181SOL     OW66601   1.884   6.814   6.397 -0.0566  0.7625  0.0389
18181SOL    HW166602   1.966   6.818   6.453 -0.1325  0.0271  0.1990
18181SOL    HW266603   1.806   6.849   6.449 -0.1868 -0.2151  0.4984
18182SOL     OW66604   2.193   0.528   7.491  0.0442  0.5603  0.3574
18182SOL    HW166605   2.243   0.614   7.490  1.5090 -0.2661 -2.0394
18182SOL    HW266606   2.181   0.497   7.585  4.3698  0.6508  1.0344
18183SOL     OW66607   9.967   9.253   0.247 -0.3589 -0.4925 -0.4998
18183SOL    HW166608  10.011   9.209   0.168 -0.9700 -3.7184  0.8789
18183SOL    HW266609  10.033   9.260   0.321  0.8017  4.3419 -1.8217
18184SOL     OW66610   7.556   8.758   7.479 -0.2569  0.4559  0.1681
18184SOL    HW166611   7.604   8.692   7.537 -0.0871 -0.9369 -1.5060
18184SOL    HW266612   7.458   8.748   7.492 -0.2321 -0.1388 -0.0828
18185SOL     OW66613   2.966   2.351   4.417 -0.0275 -0.1550  0.1163
18185SOL    HW166614   3.057   2.315   4.437 -0.5363 -0.4823  1.9311
18185SOL    HW266615   2.956   2.441   4.459 -0.3384  0.1368 -0.5763
18186SOL     OW66616   8.691   3.031   1.959 -0.0940  0.5709 -0.6868
18186SOL    HW166617   8.714   2.950   2.013 -1.1821  0.4446 -0.4101
18186SOL    HW266618   8.774   3.085   1.944  0.7037 -0.7461 -1.1290
18187SOL     OW66619   0.220   8.182   1.540  0.5822 -0.1128 -0.1410
18187SOL    HW166620   0.218   8.141   1.450  1.0593 -0.2878 -0.0725
18187SOL    HW266621   0.221   8.282   1.532  0.2368 -0.1244 -0.3193
18188SOL     OW66622   4.953   7.411   0.920 -0.0211 -0.3162 -0.0343
18188SOL    HW166623   4.975   7.372   1.010  5.2362 -0.4445 -1.2209
18188SOL    HW266624   4.999   7.499   0.910 -1.1444  0.0281 -2.3607
18189SOL     OW66625   7.429   6.941   3.761  0.3392  0.0500 -0.1158
18189SOL    HW166626   7.522   6.975   3.771  0.2599  0.3510 -0.4080
18189SOL    HW266627   7.408   6.929   3.664  0.7390 -1.8448 -0.0043
18190SOL     OW66628   7.178   2.681   1.713 -0.0887 -0.0438 -0.5439
18190SOL    HW166629   7.175   2.708   1.616  0.7330  0.9349 -0.3017
18190SOL    HW266630   7.085   2.665   1.745 -0.3110 -1.3004 -1.7477
18191SOL     OW66631   2.222   1.081   7.025 -0.3642 -0.0993  0.5261
18191SOL    HW166632   2.155   1.078   6.951 -0.0564  0.8899  0.1932
18191SOL    HW266633   2.194   1.020   7.099 -0.3507 -1.5859 -0.6776
18192SOL     OW66634   3.080   9.377   9.174  0.1662  0.4862 -0.3843
18192SOL    HW166635   3.175   9.361   9.200  0.3829  1.9126 -0.2682
18192SOL    HW266636   3.045   9.297   9.126  0.8414 -0.7845  1.2036
18193SOL     OW66637   1.980   0.862   9.554  0.0789 -0.3422 -0.1124
18193SOL    HW166638   2.036   0.803   9.495 -1.2410 -0.8109 -0.9030
18193SOL    HW266639   2.001   0.958   9.533  1.7692 -0.5006  0.7375
18194SOL     OW66640   9.216   1.367   0.388  0.3162  0.6306 -0.2950
18194SOL    HW166641   9.234   1.269   0.400 -0.5022  0.7673  2.5449
18194SOL    HW266642   9.126   1.379   0.346  0.3600  0.1618 -0.5293
18195SOL     OW66643   2.645   0.370   1.278  0.3290 -0.5420 -0.1066
18195SOL    HW166644   2.642   0.303   1.352 -1.0247  0.4770  0.7897
18195SOL    HW266645   2.737   0.407   1.270  0.2354  0.1684  1.8414
18196SOL     OW66646   2.065   4.048   5.507  0.2173  0.2844  0.2810
18196SOL    HW166647   1.973   4.069   5.542  0.6609  1.2079  0.9013
18196SOL    HW266648   2.065   3.955   5.470 -1.3607  0.7817 -1.0521
18197SOL     OW66649   1.445   8.330   8.501  0.0161  0.0562 -0.4225
18197SOL    HW166650   1.468   8.295   8.591 -0.3834  0.6779 -0.0677
18197SOL    HW266651   1.462   8.429   8.498  0.7790 -0.0966 -1.2804
18198SOL     OW66652   9.025   1.912   4.988  0.1411 -0.0886 -0.3244
18198SOL    HW166653   9.098   1.894   5.054 -1.0370 -1.9071  0.5456
18198SOL    HW266654   8.989   2.004   5.002  0.4085 -0.1823  1.1050
18199SOL     OW66655   7.800   5.879   5.858 -0.0235  0.0510  0.0276
18199SOL    HW166656   7.828   5.873   5.954 -0.6947 -0.0311  0.2221
18199SOL    HW266657   7.710   5.923   5.853 -0.3813 -0.7462 -0.4986
18200SOL     OW66658   2.474   8.373   9.781 -0.1504  0.3425 -0.1850
18200SOL    HW166659   2.446   8.278   9.798 -1.1302  0.9002  1.5023
18200SOL    HW266660   2.537   8.402   9.853 -1.1684  1.4825  0.2658
18201SOL     OW66661   6.816   1.799   5.614 -0.6207  0.2012  0.3828
18201SOL    HW166662   6.728   1.816   5.659  0.2335  1.5430  1.6001
18201SOL    HW266663   6.842   1.703   5.628 -1.4277  0.0392  0.8410
18202SOL     OW66664   1.921   6.099   3.186  0.2120 -0.5085 -0.0176
18202SOL    HW166665   1.934   6.065   3.279  0.2896 -1.3679 -0.3351
18202SOL    HW266666   1.906   6.198   3.188 -0.1850 -0.5832  0.9390
18203SOL     OW66667   5.303   4.977   1.012  0.3660  0.5717 -0.5055
18203SOL    HW166668   5.318   4.975   0.913  0.1710 -0.5887 -0.5241
18203SOL    HW266669   5.216   5.022   1.032 -0.3192 -0.5172 -0.9713
18204SOL     OW66670   0.291   4.178   9.565 -0.2043 -0.3667  0.7836
18204SOL    HW166671   0.368   4.115   9.560  0.2248  0.2328 -0.1954
18204SOL    HW266672   0.229   4.162   9.488 -1.1027 -0.8948  1.6013
18205SOL     OW66673   7.785   3.054   0.651 -0.2024 -0.5313 -0.2732
18205SOL    HW166674   7.848   3.008   0.588  2.0035 -0.4356  1.7957
18205SOL    HW266675   7.806   3.152   0.653 -0.1321 -0.5702  0.7821
18206SOL     OW66676   3.237   8.249   8.103 -0.4349  0.1592  0.1413
18206SOL    HW166677   3.266   8.230   8.009  1.1099  2.9484 -0.0047
18206SOL    HW266678   3.142   8.279   8.103 -0.3950  0.2952 -0.5353
18207SOL     OW66679   8.291   2.164   5.658  0.4154  0.3991  0.5884
18207SOL    HW166680   8.224   2.113   5.714  0.9514  0.6252  1.4500
18207SOL    HW266681   8.353   2.099   5.614  0.2337  0.2372  0.5647
18208SOL     OW66682   7.548   6.833   2.744  0.2428 -0.2563  0.0674
18208SOL    HW166683   7.544   6.828   2.843  2.1521  1.4000  0.2366
18208SOL    HW266684   7.591   6.750   2.708  0.5896 -0.3419  0.6790
18209SOL     OW66685   1.302   9.226   1.279  0.2579  0.0104  0.1113
18209SOL    HW166686   1.269   9.132   1.274 -1.5654  0.5569  1.4236
18209SOL    HW266687   1.226   9.289   1.269  1.1410  1.3211  1.3644
18210SOL     OW66688   7.428   6.455   2.190  0.4579  0.0914 -0.0674
18210SOL    HW166689   7.499   6.524   2.205  1.1523 -0.6014 -0.1535
18210SOL    HW266690   7.470   6.368   2.163 -0.2632 -0.9946  2.2303
18211SOL     OW66691   2.855   5.491   5.819 -0.0013 -0.4770 -0.7483
18211SOL    HW166692   2.823   5.446   5.902  1.5826  0.2316  0.2829
18211SOL    HW266693   2.821   5.442   5.739 -1.2110 -1.4133  0.3141
18212SOL     OW66694   9.569   0.104   8.970 -0.4070 -0.1188  0.0086
18212SOL    HW166695   9.664   0.128   8.991  0.0877 -1.7781 -0.2582
18212SOL    HW266696   9.528   0.176   8.914  0.5867  0.7672  0.4100
18213SOL     OW66697   5.964   3.301   2.562 -0.0260 -0.0109 -0.1171
18213SOL    HW166698   6.032   3.351   2.509 -0.5856  0.8077 -0.0730
18213SOL    HW266699   5.980   3.315   2.660 -0.8005  0.9283 -0.1190
18214SOL     OW66700   9.478   1.158   5.837  0.0079 -0.5175 -0.5120
18214SOL    HW166701   9.488   1.084   5.904  0.7791  1.2222  1.3506
18214SOL    HW266702   9.559   1.216   5.840 -1.3622  1.4473 -0.6481
18215SOL     OW66703   3.447   7.246   2.569  0.0756  0.2146  0.1956
18215SOL    HW166704   3.530   7.280   2.524  0.5141 -0.8443  0.1821
18215SOL    HW266705   3.470   7.221   2.663 -0.4686  0.8832  0.5088
18216SOL     OW66706   0.435   9.799   3.821  0.1037  0.0855 -0.2633
18216SOL    HW166707   0.358   9.856   3.849  0.1232  0.8777 -1.7843
18216SOL    HW266708   0.518   9.831   3.867  0.2091  1.6293 -1.4779
18217SOL     OW66709   9.836   2.909   9.471 -0.3956 -0.0742  0.5648
18217SOL    HW166710   9.793   2.880   9.386  0.2153  1.6751 -0.3602
18217SOL    HW266711   9.893   2.834   9.507 -1.8319 -1.3403  0.2505
18218SOL     OW66712   9.626   4.124   3.117  0.3153  0.6195  0.0682
18218SOL    HW166713   9.708   4.130   3.173  0.6540  0.7656 -0.4402
18218SOL    HW266714   9.599   4.216   3.087 -1.0713  0.7652  1.7172
18219SOL     OW66715   6.984   4.659   2.315  0.1765  0.5901  0.2672
18219SOL    HW166716   6.957   4.689   2.406 -0.7466  0.5038  0.0320
18219SOL    HW266717   7.076   4.693   2.294  0.5785  0.2222  1.3965
18220SOL     OW66718   3.563   3.648   7.373 -0.1921 -0.4460  0.1498
18220SOL    HW166719   3.528   3.559   7.346  0.6666 -0.3421 -1.3852
18220SOL    HW266720   3.659   3.640   7.401 -0.8041 -0.3910  2.3073
18221SOL     OW66721   1.893   6.984   5.346  0.5125  0.2044  0.3578
18221SOL    HW166722   1.937   7.064   5.388  0.7383 -0.2267  0.9530
18221SOL    HW266723   1.795   7.000   5.341  0.4562  0.1984  1.2235
18222SOL     OW66724   6.023   1.194   3.803  0.1903 -0.2600 -0.0510
18222SOL    HW166725   6.008   1.262   3.875 -0.5395  0.2977 -0.7123
18222SOL    HW266726   5.954   1.206   3.731  0.8750 -0.8316 -0.8185
18223SOL     OW66727   9.457   8.980   2.580 -0.0779 -0.2892 -0.2334
18223SOL    HW166728   9.413   9.063   2.548  0.1757 -0.0724 -0.0193
18223SOL    HW266729   9.478   8.989   2.678  0.1169 -0.5317 -0.2522
18224SOL     OW66730   3.331   4.853   4.783 -0.0359  0.4403 -0.6186
18224SOL    HW166731   3.366   4.898   4.865  0.1090  0.3381 -0.6232
18224SOL    HW266732   3.231   4.851   4.786 -0.0952  1.9137 -1.2438
18225SOL     OW66733   5.725   8.876   4.660  0.2863 -0.2570  0.0778
18225SOL    HW166734   5.661   8.951   4.646 -0.7976 -0.9214  1.3464
18225SOL    HW266735   5.808   8.892   4.606 -0.6669  0.9419 -1.0676
18226SOL     OW66736   3.548   7.051   0.946  0.7144 -0.2683  0.4236
18226SOL    HW166737   3.629   7.095   0.907  1.2919  0.0888  1.9980
18226SOL    HW266738   3.483   7.030   0.873  0.9728  2.0643 -0.5045
18227SOL     OW66739   7.830   1.327   2.053  0.1089  0.3881 -0.3159
18227SOL    HW166740   7.901   1.365   1.994 -2.6627  3.1038 -2.0354
18227SOL    HW266741   7.755   1.293   1.998 -0.7581 -0.7901  1.5358
18228SOL     OW66742   3.798   1.561   5.690 -0.1362  0.2681 -0.3215
18228SOL    HW166743   3.861   1.638   5.678  1.1904 -0.9707 -1.7007
18228SOL    HW266744   3.769   1.528   5.600  0.8719 -2.0665  0.1680
18229SOL     OW66745   9.487   7.489   1.106  0.1885  0.3786 -0.1368
18229SOL    HW166746   9.400   7.483   1.057  0.6760 -0.2248 -0.9471
18229SOL    HW266747   9.553   7.426   1.064  0.3711 -0.7884  1.8217
18230SOL     OW66748   5.286   1.340   0.310  0.2110  0.3356  0.8789
18230SOL    HW166749   5.304   1.265   0.246 -2.6176  1.3699 -1.2533
18230SOL    HW266750   5.204   1.319   0.364  1.8579  0.0425  3.3481
18231SOL     OW66751   4.283   0.105   0.811  0.1775 -0.4334 -0.2371
18231SOL    HW166752   4.361   0.160   0.839 -0.9481  0.5311  1.0842
18231SOL    HW266753   4.289   0.085   0.713  1.6101  0.3728 -0.3270
18232SOL     OW66754   2.105   4.942   8.092  0.8689  0.2598 -0.4607
18232SOL    HW166755   2.110   4.982   8.001 -0.1800  0.6793 -0.3387
18232SOL    HW266756   2.191   4.895   8.113  1.0075 -0.0833 -1.7738
18233SOL     OW66757   4.642   0.877   9.794  0.1565 -0.8389 -0.3822
18233SOL    HW166758   4.591   0.888   9.708 -0.2298  0.1859 -0.0282
18233SOL    HW266759   4.578   0.860   9.869  0.4901 -1.6666 -0.2741
18234SOL     OW66760   1.521   0.948   4.476 -0.0754 -0.8093 -0.0013
18234SOL    HW166761   1.616   0.918   4.487  0.3868  0.3995 -0.5808
18234SOL    HW266762   1.470   0.929   4.560  1.6743  2.0579  1.8041
18235SOL     OW66763   9.603   2.309   8.384  0.0851  0.1817 -0.2219
18235SOL    HW166764   9.567   2.216   8.395 -0.2298  0.5900  2.4776
18235SOL    HW266765   9.529   2.375   8.391  0.5279  0.7206 -0.5891
18236SOL     OW66766   7.378   3.730   3.695 -0.6534 -0.1281  0.3385
18236SOL    HW166767   7.445   3.775   3.636 -0.3368 -1.3049 -0.1980
18236SOL    HW266768   7.298   3.789   3.705  0.2907  1.1234  0.6793
18237SOL     OW66769   8.448   8.338   0.857 -0.2187  0.2005  0.4062
18237SOL    HW166770   8.522   8.406   0.852 -0.6322  0.5091 -2.5817
18237SOL    HW266771   8.362   8.384   0.879 -0.1149  0.3238  0.5591
18238SOL     OW66772   9.194   2.634   2.313  0.0795 -0.7224  0.4965
18238SOL    HW166773   9.288   2.639   2.347  0.6906  0.7776 -1.3184
18238SOL    HW266774   9.152   2.724   2.321  0.4371 -0.1468 -3.1550
18239SOL     OW66775   8.884   9.318   9.917  0.1021  0.5958  0.1320
18239SOL    HW166776   8.831   9.363   9.845 -0.8831  0.5876  0.8380
18239SOL    HW266777   8.857   9.222   9.923  0.1792  0.5989  0.5204
18240SOL     OW66778   8.605   2.117   1.656  0.0821 -0.0226 -0.0406
18240SOL    HW166779   8.538   2.044   1.642 -0.1105  0.1266  0.0847
18240SOL    HW266780   8.561   2.193   1.704  0.3085  0.1303 -0.0726
18241SOL     OW66781   1.799   7.015   9.704  0.1193 -0.2025  0.0056
18241SOL    HW166782   1.755   7.099   9.738 -0.2242 -0.2785 -0.2506
18241SOL    HW266783   1.793   6.944   9.774  2.9783  0.8426  1.3940
18242SOL     OW66784   3.457   7.319   5.758  0.0568  0.0985  0.1851
18242SOL    HW166785   3.436   7.311   5.856 -0.7607 -1.5729 -0.1004
18242SOL    HW266786   3.372   7.327   5.707  0.4175 -0.3092 -0.4864
18243SOL     OW66787   8.646   3.376   5.542  0.0257 -0.2501 -0.1970
18243SOL    HW166788   8.635   3.369   5.443 -0.4886 -0.6724 -0.1123
18243SOL    HW266789   8.656   3.285   5.582 -1.8245 -0.2357  0.3635
18244SOL     OW66790   3.840   1.069   2.260  0.2553  0.4579  0.2298
18244SOL    HW166791   3.776   1.016   2.317  0.6274  2.4115  2.5393
18244SOL    HW266792   3.794   1.151   2.227  1.0569  1.0026  0.4715
18245SOL     OW66793   1.727   2.804   7.174  0.2519  0.5092  0.1593
18245SOL    HW166794   1.755   2.736   7.105  0.3962  0.4354  0.2915
18245SOL    HW266795   1.656   2.765   7.232 -1.3277  1.2495 -1.2094
18246SOL     OW66796   7.463   7.846   4.260  0.4325 -0.0887  0.6160
18246SOL    HW166797   7.412   7.929   4.235 -1.0401 -0.1104  3.3442
18246SOL    HW266798   7.519   7.816   4.182 -1.0782  1.9215 -1.2981
18247SOL     OW66799   0.090   6.290   8.616 -0.5725  0.2213 -0.0799
18247SOL    HW166800   0.052   6.261   8.704  0.6888 -0.3964  0.2743
18247SOL    HW266801   0.176   6.338   8.631  0.8255 -1.9023 -1.1020
18248SOL     OW66802   7.590   8.640   6.832  0.2242  0.2784 -0.3975
18248SOL    HW166803   7.666   8.622   6.771  0.9729  0.0411  0.5936
18248SOL    HW266804   7.624   8.656   6.925 -0.9563 -0.4090  0.1744
18249SOL     OW66805   8.511   2.375   0.671 -0.3337  0.4867  0.0497
18249SOL    HW166806   8.506   2.343   0.577  2.7897  1.9235 -0.6724
18249SOL    HW266807   8.545   2.302   0.730  1.1456  0.6425 -0.5849
18250SOL     OW66808   5.205   0.768   4.525 -0.6600 -0.1786  0.0741
18250SOL    HW166809   5.133   0.757   4.456  0.8713 -0.0632 -1.5655
18250SOL    HW266810   5.289   0.724   4.492  0.4055  0.8652  1.3825
18251SOL     OW66811   9.137   3.078   6.680 -0.4963 -0.0013  0.4886
18251SOL    HW166812   9.174   3.010   6.744  0.0971 -0.6089 -0.4929
18251SOL    HW266813   9.070   3.034   6.620  0.3468  0.1312 -0.5669
18252SOL     OW66814   7.798   7.509   6.050  0.0176 -0.0518  0.0294
18252SOL    HW166815   7.849   7.589   6.082 -0.7895  0.2305  0.6520
18252SOL    HW266816   7.859   7.447   6.002  0.4571  1.4163 -1.3626
18253SOL     OW66817   1.767   0.059   6.983  0.2307  0.5100 -0.8230
18253SOL    HW166818   1.715   0.108   6.913 -0.4614  0.9036 -0.0412
18253SOL    HW266819   1.815  -0.018   6.941 -0.1986  0.7306 -1.7257
18254SOL     OW66820   1.557   1.594   9.757 -0.4214 -0.2376  0.4447
18254SOL    HW166821   1.542   1.622   9.662 -1.9585 -0.9934  0.4636
18254SOL    HW266822   1.565   1.675   9.815  0.1319  0.2166 -0.2566
18255SOL     OW66823   2.229   9.593   4.165  0.1728  0.3230 -0.0014
18255SOL    HW166824   2.184   9.668   4.214 -0.4971  1.9038 -2.8744
18255SOL    HW266825   2.160   9.540   4.116  1.0032  0.2671 -1.1422
18256SOL     OW66826   1.103   8.036   9.873  0.1583  0.3587  0.6147
18256SOL    HW166827   1.042   7.990   9.809 -3.3708  0.3772  3.8233
18256SOL    HW266828   1.181   7.976   9.893 -0.2415 -0.8562 -1.3258
18257SOL     OW66829   1.787   2.528   8.002  0.2316 -0.3037  0.0757
18257SOL    HW166830   1.797   2.539   7.903  0.1329  0.5407  0.1591
18257SOL    HW266831   1.699   2.485   8.023 -0.0499  0.1613 -0.1593
18258SOL     OW66832   4.325   2.821   9.486 -0.1849 -0.7867  0.0193
18258SOL    HW166833   4.320   2.862   9.577 -1.2902 -0.3041 -0.2469
18258SOL    HW266834   4.305   2.723   9.493  0.8742 -0.9778  0.4440
18259SOL     OW66835   7.678   8.107   2.241  0.1579  0.0207 -0.3648
18259SOL    HW166836   7.720   8.108   2.332  0.3459  0.2524 -0.4536
18259SOL    HW266837   7.639   8.197   2.222 -1.7129 -0.6139  0.3278
18260SOL     OW66838   7.213   5.710   2.042 -0.7749 -0.0057  0.1120
18260SOL    HW166839   7.194   5.807   2.056  0.1636  0.0548  1.0081
18260SOL    HW266840   7.310   5.693   2.056 -1.0601 -1.2032  0.6584
18261SOL     OW66841   8.415   6.635   2.132  0.5558 -0.1054  0.6068
18261SOL    HW166842   8.398   6.552   2.079  0.5116  0.0942  0.3030
18261SOL    HW266843   8.432   6.711   2.069  1.0817  0.0135  0.8863
18262SOL     OW66844   9.514   6.101   0.628  0.3074 -0.3572 -0.3648
18262SOL    HW166845   9.451   6.024   0.617  0.8885 -0.7491 -0.9927
18262SOL    HW266846   9.545   6.105   0.723 -0.3487 -0.4031 -0.1431
18263SOL     OW66847   5.007   0.322   5.351 -0.1270 -0.4908  0.6062
18263SOL    HW166848   4.983   0.283   5.262 -0.5429  0.9182  0.0840
18263SOL    HW266849   4.926   0.326   5.408 -0.4861  1.2571  0.0062
18264SOL     OW66850   9.220   8.683   1.120 -0.1944  0.7578 -0.1830
18264SOL    HW166851   9.222   8.607   1.055 -0.3568  1.1203 -0.6146
18264SOL    HW266852   9.296   8.745   1.102  0.2723  0.3948  0.5380
18265SOL     OW66853   8.572   0.466   9.926  0.0723 -0.6175  0.8331
18265SOL    HW166854   8.659   0.510   9.904 -1.3006  0.3656 -2.9273
18265SOL    HW266855   8.516   0.530   9.980 -0.0868  0.4910 -0.6288
18266SOL     OW66856   1.569   0.372   0.131 -0.0913  0.0587 -0.4536
18266SOL    HW166857   1.597   0.468   0.124  1.8849 -0.5582 -1.5143
18266SOL    HW266858   1.531   0.343   0.043 -1.0991 -0.0054  0.0061
18267SOL     OW66859   2.802   5.988   0.559  0.0255 -0.1601  0.2448
18267SOL    HW166860   2.801   6.087   0.546  1.7442 -0.0632  0.7708
18267SOL    HW266861   2.725   5.962   0.618  1.9578  1.4008  3.5946
18268SOL     OW66862   7.662   7.855   3.810 -0.4035  0.0898  0.1757
18268SOL    HW166863   7.562   7.857   3.805 -0.3501  1.0011 -0.5161
18268SOL    HW266864   7.700   7.913   3.739  0.6413 -0.8217 -0.0141
18269SOL     OW66865   7.746   0.615   2.802  0.7799 -0.2500  0.4192
18269SOL    HW166866   7.783   0.523   2.789 -1.1208 -0.6852 -2.2958
18269SOL    HW266867   7.664   0.610   2.858 -0.3951 -0.4806 -1.2909
18270SOL     OW66868   9.201   4.298   3.609 -0.1352  0.2942  0.0287
18270SOL    HW166869   9.106   4.313   3.581  0.2671  0.5057 -1.2578
18270SOL    HW266870   9.262   4.343   3.544  0.8651 -0.3400  0.5212
18271SOL     OW66871   3.532   8.209   5.420  0.6317  0.3938 -0.3143
18271SOL    HW166872   3.495   8.301   5.436 -0.2693  0.0290 -0.2822
18271SOL    HW266873   3.546   8.196   5.322 -1.2543 -0.1957 -0.5189
18272SOL     OW66874   7.581   8.939   2.404  0.3478 -0.1422 -0.3943
18272SOL    HW166875   7.599   8.940   2.502 -0.5187 -1.2991 -0.2234
18272SOL    HW266876   7.530   9.021   2.379  0.6008  0.1739  0.1075
18273SOL     OW66877   6.547   5.014   0.816 -0.0832  0.0549  0.0248
18273SOL    HW166878   6.628   4.961   0.842  0.1722 -0.4866 -1.7639
18273SOL    HW266879   6.465   4.964   0.842  0.0650  1.9536  4.5612
18274SOL     OW66880   0.720   4.812   4.155  0.0472 -0.3213  0.1617
18274SOL    HW166881   0.622   4.812   4.172 -0.0333 -0.8099 -0.3077
18274SOL    HW266882   0.763   4.736   4.205  0.2945  0.3540  0.9849
18275SOL     OW66883   3.769   9.394   2.536 -0.2798 -0.3120  0.6935
18275SOL    HW166884   3.701   9.341   2.587  0.7997 -2.5500 -0.1125
18275SOL    HW266885   3.858   9.386   2.581 -0.0250  0.5207  0.3446
18276SOL     OW66886   9.606   3.101   1.305  0.1480 -0.4399  0.0599
18276SOL    HW166887   9.626   3.199   1.294 -0.1669 -0.5061 -1.2519
18276SOL    HW266888   9.688   3.054   1.337 -0.0465  0.4352  1.9258
18277SOL     OW66889   3.044   4.781   6.817  0.5769  0.3559 -0.1981
18277SOL    HW166890   2.955   4.746   6.789 -0.3643  1.0619  1.8480
18277SOL    HW266891   3.106   4.705   6.835 -0.4964 -0.2264  1.1308
18278SOL     OW66892   1.102   8.573   4.557  0.0601  0.7184 -0.4444
18278SOL    HW166893   1.043   8.619   4.490  1.3077 -0.4924 -2.4207
18278SOL    HW266894   1.198   8.587   4.532  0.5183 -0.3759  0.6777
18279SOL     OW66895   8.850   0.889   1.245  0.0498  0.4286  0.0700
18279SOL    HW166896   8.795   0.828   1.189  0.4812 -0.4778  0.6169
18279SOL    HW266897   8.941   0.899   1.204 -0.3323  1.4725 -0.5311
18280SOL     OW66898   7.912   8.682   7.717 -0.3658  0.1502  0.2364
18280SOL    HW166899   7.999   8.730   7.699  0.0662  0.4094  2.7415
18280SOL    HW266900   7.924   8.584   7.701  0.1660  0.2786 -0.1721
18281SOL     OW66901   6.613   8.302   4.842 -0.0597 -0.3484 -0.3094
18281SOL    HW166902   6.577   8.237   4.775  1.1380 -1.2327 -0.0983
18281SOL    HW266903   6.678   8.364   4.798  1.0160 -1.1734  0.1105
18282SOL     OW66904   3.334   4.249   3.413 -0.5577  0.0779  0.5663
18282SOL    HW166905   3.280   4.296   3.483  0.1331  0.1136  1.0783
18282SOL    HW266906   3.286   4.167   3.383 -0.4296 -0.4483  1.7691
18283SOL     OW66907   0.434   4.827   4.150 -0.2072 -0.3847  0.1877
18283SOL    HW166908   0.408   4.886   4.227 -0.8280 -1.2862  0.6724
18283SOL    HW266909   0.464   4.884   4.074  0.0114  0.5364  0.9445
18284SOL     OW66910   7.591   5.676   5.152 -0.2421  0.2210  0.1791
18284SOL    HW166911   7.582   5.654   5.054  0.7636  0.5806 -0.0068
18284SOL    HW266912   7.517   5.736   5.180 -1.5097 -1.2418  0.0422
18285SOL     OW66913   2.224   7.114   1.741  0.5609 -0.4827 -0.4228
18285SOL    HW166914   2.153   7.080   1.803 -0.2589 -1.2067 -1.7283
18285SOL    HW266915   2.195   7.202   1.703 -0.1141 -1.2706 -1.7457
18286SOL     OW66916   5.337   1.915   5.580  0.6712 -0.0147  0.6143
18286SOL    HW166917   5.255   1.940   5.528  0.8917  1.1142  0.7992
18286SOL    HW266918   5.419   1.939   5.527  0.8872 -0.5452  0.7030
18287SOL     OW66919   0.079   3.101   0.343  0.0428  0.0685 -0.4357
18287SOL    HW166920   0.133   3.152   0.410  0.9547 -0.3790 -0.8116
18287SOL    HW266921   0.100   3.003   0.351 -0.7180 -0.1089 -0.5876
18288SOL     OW66922   3.437   0.789   8.109 -0.5801  0.3584  0.0064
18288SOL    HW166923   3.486   0.860   8.158 -1.2506  0.7431  0.1255
18288SOL    HW266924   3.449   0.701   8.155  0.8264  0.2584 -0.5341
18289SOL     OW66925   5.100   3.807   1.332  0.0438  0.1894  0.2585
18289SOL    HW166926   5.110   3.906   1.335 -0.9018  0.3450 -1.2664
18289SOL    HW266927   5.120   3.769   1.422  0.0681  1.7904  0.9505
18290SOL     OW66928   0.295   1.701   1.427  0.0092  0.0905  0.8316
18290SOL    HW166929   0.252   1.614   1.451  0.0365 -0.4066 -0.8458
18290SOL    HW266930   0.381   1.683   1.378 -0.4779  1.0315 -0.4003
18291SOL     OW66931   8.662   0.741   7.052  0.0809  0.2387  0.1585
18291SOL    HW166932   8.597   0.673   7.085  0.6067 -2.3637 -3.8098
18291SOL    HW266933   8.613   0.812   7.000  0.1583 -0.5953 -1.0721
18292SOL     OW66934   7.488   2.381   2.435 -0.1151 -0.1062  0.4268
18292SOL    HW166935   7.575   2.407   2.476  0.1812 -3.3769  2.0221
18292SOL    HW266936   7.413   2.413   2.494  0.2063 -1.7317  1.7537
18293SOL     OW66937   0.320   6.650   6.317 -0.3274  0.2520  0.1924
18293SOL    HW166938   0.264   6.570   6.334  0.7662 -0.3666  1.0039
18293SOL    HW266939   0.407   6.641   6.366 -1.1761  3.0619  2.3947
18294SOL     OW66940   2.243   2.545   8.660 -0.3651 -0.0468  0.0937
18294SOL    HW166941   2.227   2.644   8.655 -0.6636 -0.1500 -1.0719
18294SOL    HW266942   2.181   2.505   8.729  0.8825  0.7957  1.7340
18295SOL     OW66943   8.761   2.565   5.604  0.0560 -0.5732 -0.0586
18295SOL    HW166944   8.687   2.632   5.601 -0.7606 -1.3742  1.5792
18295SOL    HW266945   8.782   2.535   5.511  0.3527  1.8469 -0.8080
18296SOL     OW66946   0.419   0.087   9.997 -0.4145  0.5970  0.1194
18296SOL    HW166947   0.410   0.041   9.909  1.9706  1.3006 -0.5255
18296SOL    HW266948   0.433   0.018  10.069 -0.9671  0.1015 -0.2380
18297SOL     OW66949   1.320   7.366   6.341 -0.3759  0.2529 -0.1640
18297SOL    HW166950   1.292   7.461   6.357  0.6096  0.7991 -1.6104
18297SOL    HW266951   1.266   7.305   6.399 -2.3214  1.5430 -0.5769
18298SOL     OW66952   4.978   5.818   2.134 -0.5775  0.0886 -0.2510
18298SOL    HW166953   5.047   5.784   2.198  1.3093 -0.7507 -2.6666
18298SOL    HW266954   4.902   5.857   2.186  1.2285  0.1424  2.4962
18299SOL     OW66955   9.223   2.015   4.249  0.4850 -0.4946  0.3570
18299SOL    HW166956   9.238   2.083   4.321 -1.1049  1.2811 -0.9569
18299SOL    HW266957   9.309   2.001   4.199  1.8292 -2.3715  3.0699
18300SOL     OW66958   9.051   3.785   9.028  0.0565 -0.6817  0.3629
18300SOL    HW166959   9.047   3.884   9.035  0.5261 -0.5687 -0.9609
18300SOL    HW266960   8.960   3.748   9.009  0.5630 -0.1462 -3.5038
18301SOL     OW66961   7.196   9.598   8.586  0.3592 -0.0363 -0.2609
18301SOL    HW166962   7.266   9.531   8.613  1.9074  0.5991 -2.5459
18301SOL    HW266963   7.107   9.554   8.586  0.9514 -1.2745  1.2914
18302SOL     OW66964   2.251   9.186   7.406 -0.2272 -0.8035  0.2395
18302SOL    HW166965   2.312   9.194   7.485  0.8365  1.2086 -0.7461
18302SOL    HW266966   2.305   9.184   7.322 -1.5046  2.0025 -0.7203
18303SOL     OW66967   9.291   0.768   8.442  0.1370  0.1261  0.2056
18303SOL    HW166968   9.344   0.851   8.426  1.1677 -0.5808 -0.0795
18303SOL    HW266969   9.352   0.693   8.468 -0.8852 -0.2885  1.4842
18304SOL     OW66970   3.309   4.256   1.894  0.4207  0.7278 -0.2043
18304SOL    HW166971   3.356   4.200   1.826  0.1675  0.8041 -0.4427
18304SOL    HW266972   3.228   4.209   1.928 -0.4380  1.4215 -1.2513
18305SOL     OW66973   3.969   4.064   5.518 -0.1994  0.0119  0.3144
18305SOL    HW166974   3.885   4.050   5.465 -0.7262  0.2651  1.0734
18305SOL    HW266975   4.030   4.125   5.469 -0.9145  0.6764  0.2502
18306SOL     OW66976   3.872   7.626   5.180  0.4051 -0.3794  0.3252
18306SOL    HW166977   3.779   7.661   5.189  0.6168  0.5346 -0.8688
18306SOL    HW266978   3.870   7.528   5.159 -0.2407 -0.6783  1.7300
18307SOL     OW66979   6.771   9.925   6.625 -0.0661 -0.3196 -0.4221
18307SOL    HW166980   6.809  10.005   6.579  2.1193 -1.2953 -0.3502
18307SOL    HW266981   6.680   9.948   6.660 -0.2174  1.5779 -1.9227
18308SOL     OW66982   0.476   3.980   9.605  0.2908 -0.3747 -0.0718
18308SOL    HW166983   0.524   3.959   9.690  0.6477 -0.3809 -0.2729
18308SOL    HW266984   0.423   3.900   9.576  1.3839 -0.8963 -0.6609
18309SOL     OW66985   8.133   1.206   8.788 -0.1879 -0.0804 -0.1152
18309SOL    HW166986   8.105   1.284   8.843  0.1933  0.1386 -0.2223
18309SOL    HW266987   8.144   1.235   8.693  1.8805  0.2279  0.1764
18310SOL     OW66988   3.906   0.155   5.104 -0.0510 -0.4639  0.0885
18310SOL    HW166989   3.934   0.063   5.079  0.8068 -0.3699  0.6566
18310SOL    HW266990   3.892   0.209   5.021  0.3766 -0.8396 -0.2341
18311SOL     OW66991   0.060   2.162   7.516  0.4075  0.3179 -0.4485
18311SOL    HW166992   0.098   2.252   7.493  0.1556  0.3747 -0.6494
18311SOL    HW266993   0.075   2.143   7.613 -1.1812  1.3964  0.0349
18312SOL     OW66994   3.293   4.856   9.334 -0.6823  0.2708  0.0499
18312SOL    HW166995   3.371   4.803   9.367 -0.2400  0.4737 -0.6667
18312SOL    HW266996   3.252   4.905   9.411  0.8683  1.4259  0.1654
18313SOL     OW66997   0.603   7.449   0.142 -0.3772  0.3413 -0.6884
18313SOL    HW166998   0.546   7.389   0.086 -1.5434  0.2565  0.5678
18313SOL    HW266999   0.549   7.527   0.174  0.2852  0.4271  0.2659
18314SOL     OW67000   0.170   4.319   0.478  0.0444  0.1984 -0.5126
18314SOL    HW167001   0.127   4.396   0.526 -1.8352 -0.3579 -1.2632
18314SOL    HW267002   0.142   4.233   0.520  2.9523 -0.1011  0.9777
18315SOL     OW67003   1.293   8.852   4.662  0.2946 -0.0634 -0.1206
18315SOL    HW167004   1.358   8.917   4.700  0.1882  0.0379 -0.1109
18315SOL    HW267005   1.214   8.845   4.723  0.3369 -0.2516 -0.0890
18316SOL     OW67006   0.192   5.067   5.098 -0.5167 -0.0178  1.0102
18316SOL    HW167007   0.123   5.107   5.158 -2.9667 -0.7083 -1.2889
18316SOL    HW267008   0.194   4.968   5.111 -1.2142 -0.1962 -0.1946
18317SOL     OW67009   2.521   5.131   1.567 -0.6831 -0.1405  0.1556
18317SOL    HW167010   2.476   5.065   1.507 -1.6921  0.0278  0.7158
18317SOL    HW267011   2.452   5.183   1.617  0.0991  1.4405 -0.3723
18318SOL     OW67012   0.765   8.235   1.052 -0.0303 -0.0084  0.3184
18318SOL    HW167013   0.862   8.208   1.057  0.5762  1.9299 -0.4483
18318SOL    HW267014   0.708   8.160   1.086  1.7939 -0.8270  1.6967
18319SOL     OW67015   8.080   5.637   9.429 -0.0114 -0.1621  0.5016
18319SOL    HW167016   8.061   5.553   9.481 -0.1129 -0.5976 -0.2332
18319SOL    HW267017   8.154   5.619   9.364  1.5074  0.9419  1.8862
18320SOL     OW67018   3.716   7.071   9.579  0.5526 -0.1599 -0.8114
18320SOL    HW167019   3.716   7.113   9.488  1.7393 -0.5575 -1.0014
18320SOL    HW267020   3.622   7.054   9.608  0.1446  0.5229 -1.7035
18321SOL     OW67021   2.311   7.598   5.380 -0.4364 -0.8657  0.0141
18321SOL    HW167022   2.213   7.593   5.358 -1.4411  0.4002  3.8531
18321SOL    HW267023   2.357   7.656   5.312 -2.0751 -2.3513 -2.4716
18322SOL     OW67024   8.806   1.584   7.252 -0.5471 -0.0044  0.0733
18322SOL    HW167025   8.875   1.519   7.282  2.4844  2.8615 -0.4323
18322SOL    HW267026   8.796   1.580   7.153  0.3247  0.9607 -0.0522
18323SOL     OW67027   6.931   9.770   6.396 -0.2085 -0.8978 -0.5462
18323SOL    HW167028   6.887   9.819   6.472  0.0679  1.0102 -1.5944
18323SOL    HW267029   7.022   9.739   6.425 -0.6538 -1.3833  0.3481
18324SOL     OW67030   0.555   1.421   1.277  0.0748 -0.0237 -0.0509
18324SOL    HW167031   0.547   1.470   1.190  1.8775  0.2241 -0.0818
18324SOL    HW267032   0.576   1.325   1.259 -0.3211 -0.1443  0.1090
18325SOL     OW67033   7.428   2.235   3.637  0.0107 -0.3538 -0.5037
18325SOL    HW167034   7.401   2.251   3.732 -1.5237 -0.1645 -0.9636
18325SOL    HW267035   7.498   2.164   3.634  5.0692  4.1864  1.3691
18326SOL     OW67036   0.661   1.334   2.406 -0.2922 -0.2035  0.1574
18326SOL    HW167037   0.678   1.330   2.307  2.2840 -0.0330  0.5619
18326SOL    HW267038   0.567   1.363   2.422 -1.2132 -1.7251 -2.2504
18327SOL     OW67039   8.946   8.200   9.956 -0.2315 -0.1007  0.3524
18327SOL    HW167040   8.990   8.145   9.885 -0.2934  0.0842  0.1750
18327SOL    HW267041   8.974   8.295   9.948 -0.8887  0.0696  0.0661
18328SOL     OW67042   3.999   2.463   2.155 -0.2536 -0.0278 -0.4547
18328SOL    HW167043   4.010   2.510   2.243 -0.5786 -0.6934 -0.0607
18328SOL    HW267044   3.991   2.365   2.170  1.1444 -0.2879 -1.3394
18329SOL     OW67045   1.681   3.629   6.323 -0.4192 -0.4950 -0.1798
18329SOL    HW167046   1.613   3.561   6.299  0.0981 -0.0503 -3.0595
18329SOL    HW267047   1.724   3.664   6.240  1.5045  1.0925  1.4357
18330SOL     OW67048   4.238   5.712   9.431  0.5272 -0.3273 -0.0716
18330SOL    HW167049   4.185   5.778   9.377 -1.6635 -0.2731  2.0853
18330SOL    HW267050   4.212   5.619   9.404 -0.5034 -0.3008  0.8302
18331SOL     OW67051   3.870   6.993   9.182 -0.3656 -0.2124 -0.3196
18331SOL    HW167052   3.861   7.077   9.237 -1.6661 -0.6412  0.1264
18331SOL    HW267053   3.877   7.018   9.085 -0.6386  0.4204 -0.1830
18332SOL     OW67054   1.168   2.406   0.306  0.3639  0.1210  0.5311
18332SOL    HW167055   1.171   2.311   0.275 -0.1378  0.1416  0.4186
18332SOL    HW267056   1.261   2.435   0.331  0.9071  0.3349 -1.6399
18333SOL     OW67057   1.315   4.397   1.534 -0.0794  0.4387 -0.5290
18333SOL    HW167058   1.265   4.451   1.467 -0.8640 -0.7459 -0.9294
18333SOL    HW267059   1.412   4.419   1.529 -0.2056  0.7970 -1.6454
18334SOL     OW67060   4.856   2.338   9.043 -0.3530 -0.1200 -0.1615
18334SOL    HW167061   4.955   2.350   9.034 -0.0681 -2.3789 -0.1145
18334SOL    HW267062   4.813   2.342   8.953 -0.5279  3.0760 -0.0134
18335SOL     OW67063   8.465   2.062   2.933 -0.0908 -0.4236  0.1633
18335SOL    HW167064   8.550   2.113   2.918  0.4811  0.0039  4.2970
18335SOL    HW267065   8.390   2.126   2.947 -0.2305 -0.7744  1.0043
18336SOL     OW67066   5.493   9.352   6.791 -0.1341 -0.2445 -0.2727
18336SOL    HW167067   5.463   9.332   6.885  0.2122  0.5540  0.0169
18336SOL    HW267068   5.486   9.270   6.735 -2.8629 -0.0989 -0.2040
18337SOL     OW67069   4.794   0.327   4.346 -0.5556 -0.3534 -0.0494
18337SOL    HW167070   4.706   0.373   4.333 -0.7620 -0.3114  1.4245
18337SOL    HW267071   4.779   0.235   4.381 -0.0115 -0.3997  0.0604
18338SOL     OW67072   0.901   5.858   9.812 -0.4785  0.3876 -0.2653
18338SOL    HW167073   0.815   5.808   9.803  0.0132 -0.5589  0.1741
18338SOL    HW267074   0.977   5.793   9.811  0.2615  1.2548 -1.1166
18339SOL     OW67075   1.406   3.585   4.191  0.3677 -0.1154  0.0235
18339SOL    HW167076   1.480   3.538   4.143 -0.3786 -0.9464 -0.3301
18339SOL    HW267077   1.341   3.518   4.225 -0.6836  0.6568 -0.4446
18340SOL     OW67078   2.596   6.951   2.587 -0.1474  0.2051  0.4332
18340SOL    HW167079   2.606   6.852   2.589  0.3902  0.2494  0.0275
18340SOL    HW267080   2.685   6.994   2.599 -0.4754  0.6459  1.2930
18341SOL     OW67081   2.909   5.819   5.106  0.2349  0.4297 -0.9283
18341SOL    HW167082   2.901   5.807   5.006  1.9470 -0.8093 -0.9441
18341SOL    HW267083   2.942   5.734   5.146 -0.5768  0.8904  0.7349
18342SOL     OW67084   6.891   7.609   4.162  0.2051  0.5459  0.3121
18342SOL    HW167085   6.919   7.513   4.161  2.0046  1.0485 -1.4765
18342SOL    HW267086   6.795   7.616   4.134  1.3244 -0.4264 -4.1436
18343SOL     OW67087   1.184   1.348   2.074  0.5129  0.1788 -0.2358
18343SOL    HW167088   1.120   1.412   2.031  0.0928  1.0137  1.6068
18343SOL    HW267089   1.160   1.254   2.047 -0.9459  0.5503 -0.2598
18344SOL     OW67090   5.105   8.862   5.766 -0.2009 -0.1865 -0.2564
18344SOL    HW167091   5.073   8.936   5.825  0.0524 -0.2811  0.0045
18344SOL    HW267092   5.172   8.807   5.816 -0.0647 -0.3306 -0.5969
18345SOL     OW67093   4.957   8.999   1.844  0.3500  0.6036  0.3098
18345SOL    HW167094   4.968   9.097   1.833  1.5857  0.3179 -1.2512
18345SOL    HW267095   5.008   8.951   1.771 -0.6616 -1.1629  0.7320
18346SOL     OW67096   3.001   7.067   2.229  0.4196 -0.4255  0.4160
18346SOL    HW167097   2.999   7.166   2.218 -0.0438 -0.6656 -2.0702
18346SOL    HW267098   2.908   7.030   2.220  0.4685 -1.0216  2.1692
18347SOL     OW67099   5.811   9.261   1.847 -0.1218 -0.2941  0.2084
18347SOL    HW167100   5.740   9.201   1.884 -0.3249 -0.2054 -0.0353
18347SOL    HW267101   5.875   9.285   1.919 -0.4577 -0.2073  0.4789
18348SOL     OW67102   3.669   2.280   7.021 -0.7621 -0.5142 -0.2593
18348SOL    HW167103   3.677   2.274   7.121 -0.1737  0.2622 -0.2518
18348SOL    HW267104   3.614   2.360   6.998 -3.5716 -2.4542 -0.4808
18349SOL     OW67105   7.716   8.064   5.222 -0.1469  0.4379  0.2362
18349SOL    HW167106   7.709   8.104   5.313  1.5807  1.7105 -0.1568
18349SOL    HW267107   7.810   8.031   5.208 -1.0026 -1.9492 -0.2136
18350SOL     OW67108   9.231   6.992   6.135 -0.2057 -0.4196  0.3607
18350SOL    HW167109   9.252   6.994   6.037 -0.0439 -2.0226  0.3560
18350SOL    HW267110   9.244   7.083   6.173  1.2451 -0.1182 -0.7945
18351SOL     OW67111   9.848   5.802   4.515 -0.4780  0.3646 -0.0515
18351SOL    HW167112   9.829   5.888   4.563  0.2743  1.3080 -1.4105
18351SOL    HW267113   9.886   5.822   4.425 -0.7248 -1.3981 -0.5663
18352SOL     OW67114   2.762   5.503   6.652 -0.1536  0.0786  0.5132
18352SOL    HW167115   2.834   5.573   6.658  0.7157 -0.6649 -0.9119
18352SOL    HW267116   2.738   5.473   6.744 -1.4548  3.1423  1.2380
18353SOL     OW67117   8.535   6.067   1.523 -0.0285 -0.5801  0.2794
18353SOL    HW167118   8.565   6.079   1.618  0.6476  1.6397 -0.2018
18353SOL    HW267119   8.446   6.109   1.510 -0.1988 -1.0314 -0.0426
18354SOL     OW67120   5.213   0.004   2.335  0.9073  0.4433  0.4719
18354SOL    HW167121   5.210   0.102   2.357  0.6719  0.3759  0.7427
18354SOL    HW267122   5.292  -0.037   2.381  1.3364  0.6190 -0.1055
18355SOL     OW67123   1.033   4.427   7.159 -0.3901  0.3010  0.0598
18355SOL    HW167124   1.069   4.520   7.144 -0.6958  0.4702  0.3798
18355SOL    HW267125   0.954   4.431   7.219  1.2487 -0.4332  2.3460
18356SOL     OW67126   4.570   5.663   9.467 -0.1487 -0.1460 -0.3198
18356SOL    HW167127   4.669   5.674   9.459 -0.0700  0.2554  0.9732
18356SOL    HW267128   4.530   5.750   9.499 -0.7836 -0.6203  0.1881
18357SOL     OW67129   0.636   5.739   3.206  0.2598 -0.1770  0.0687
18357SOL    HW167130   0.720   5.687   3.219  1.2016  0.8361 -1.7974
18357SOL    HW267131   0.572   5.685   3.151  0.6231  0.0377 -0.5556
18358SOL     OW67132   8.698   7.020   5.100  0.6098  0.0847 -0.0350
18358SOL    HW167133   8.636   7.098   5.095 -1.7087 -1.7597 -0.8544
18358SOL    HW267134   8.649   6.941   5.137  2.4233 -1.4525 -0.8298
18359SOL     OW67135   2.428   7.714   0.383  0.6718 -0.5901 -0.2960
18359SOL    HW167136   2.504   7.690   0.443 -0.6720  0.2251  1.7928
18359SOL    HW267137   2.352   7.651   0.398 -0.1916  0.4823 -0.0821
18360SOL     OW67138   7.030   3.938   9.080 -0.1881  0.6321 -0.2372
18360SOL    HW167139   7.097   3.923   9.008  0.2577 -2.5937  0.7731
18360SOL    HW267140   7.048   4.025   9.126  1.2563  1.3444 -2.1142
18361SOL     OW67141   6.348   9.812   1.479  0.3413  0.8012  0.3945
18361SOL    HW167142   6.395   9.726   1.464 -0.6532  0.8369 -3.1571
18361SOL    HW267143   6.251   9.795   1.498 -0.2104  1.1782 -1.9722
18362SOL     OW67144   8.272   7.719   7.998  0.2633  0.3520 -0.2393
18362SOL    HW167145   8.254   7.748   8.092  1.7008 -2.6872  1.0400
18362SOL    HW267146   8.187   7.684   7.957  0.0205 -0.0532  0.5957
18363SOL     OW67147   4.459   3.384   8.350  0.6531  0.4411  0.2553
18363SOL    HW167148   4.506   3.337   8.275 -0.2348 -0.3546  0.1856
18363SOL    HW267149   4.383   3.327   8.382 -1.6339  2.6231 -1.1044
18364SOL     OW67150   0.556   4.620   6.547  0.8968 -0.6253  0.6293
18364SOL    HW167151   0.588   4.685   6.478  2.4309  0.0344  1.9396
18364SOL    HW267152   0.457   4.606   6.536  1.0249 -0.1453 -1.3613
18365SOL     OW67153   3.183   7.807   4.737 -0.5043  0.0010 -0.2262
18365SOL    HW167154   3.275   7.770   4.733 -0.4334  0.1301  0.1678
18365SOL    HW267155   3.183   7.900   4.700 -0.4716  0.0087 -0.2063
18366SOL     OW67156   3.987   1.805   2.948 -0.7011  0.2828 -0.1311
18366SOL    HW167157   4.005   1.898   2.918 -0.5447  0.3870  0.2785
18366SOL    HW267158   3.970   1.804   3.047 -0.3618 -0.1680 -0.0731
18367SOL     OW67159   0.801   3.152   5.353  0.0109 -0.1211 -0.1335
18367SOL    HW167160   0.757   3.064   5.369 -1.0572  0.4410  0.0955
18367SOL    HW267161   0.782   3.213   5.431 -1.2028  1.0547 -1.3103
18368SOL     OW67162   0.926   5.237   1.725  0.2646  1.2716  0.0701
18368SOL    HW167163   0.913   5.162   1.789 -1.2934  0.7451 -0.8390
18368SOL    HW267164   0.958   5.201   1.637  0.9023  1.8284  0.0674
18369SOL     OW67165   4.896   3.081   0.725  0.5337 -0.4072  0.0559
18369SOL    HW167166   4.915   2.989   0.760  1.7150 -0.2525 -0.1273
18369SOL    HW267167   4.969   3.107   0.660  1.2611  1.4019  1.5604
18370SOL     OW67168   9.320   1.408  10.027  0.3324  0.6676 -0.6158
18370SOL    HW167169   9.350   1.313  10.027  0.6021  0.7517 -0.4152
18370SOL    HW267170   9.358   1.455  10.106  0.4986  1.0370 -0.9109
18371SOL     OW67171   9.993   6.054   1.226  0.0083  0.6657  0.2075
18371SOL    HW167172   9.928   6.099   1.165 -1.7166  1.1856  2.3499
18371SOL    HW267173  10.023   6.119   1.296  1.2146 -0.1745  0.4860
18372SOL     OW67174   3.924   9.627   3.116  0.5623  0.1523 -0.1971
18372SOL    HW167175   3.964   9.625   3.024  1.0139 -1.1551  0.0145
18372SOL    HW267176   3.977   9.567   3.176 -0.7223 -0.2733  0.5148
18373SOL     OW67177   9.756   1.071   3.229 -0.1433 -0.0486 -0.1674
18373SOL    HW167178   9.704   1.092   3.146  0.1525  2.2492  0.1855
18373SOL    HW267179   9.807   1.153   3.257  0.9971 -1.2723  1.3918
18374SOL     OW67180   4.005   4.105   6.418 -0.0552 -0.0650 -0.6800
18374SOL    HW167181   3.942   4.113   6.341  0.2158  4.8961 -0.4987
18374SOL    HW267182   3.954   4.091   6.502 -0.5419 -1.7580 -1.2329
18375SOL     OW67183   7.258   6.366   6.442  0.4124  0.1649 -0.3443
18375SOL    HW167184   7.328   6.401   6.381 -0.6318  1.8519 -0.6071
18375SOL    HW267185   7.293   6.362   6.536  1.2475 -0.1844 -0.6743
18376SOL     OW67186   2.625   0.576   4.591  0.6687 -0.8933  0.3385
18376SOL    HW167187   2.630   0.671   4.620  1.8654 -1.0940  0.8234
18376SOL    HW267188   2.542   0.534   4.626  0.2754 -0.1057  0.3505
18377SOL     OW67189   1.526   6.317   3.887  0.0752 -0.3460 -0.0567
18377SOL    HW167190   1.520   6.407   3.930 -1.2039 -0.9669  1.1105
18377SOL    HW267191   1.559   6.251   3.954 -0.8912 -1.1164 -0.3345
18378SOL     OW67192   1.356   8.538   0.833  0.4121 -0.1470  0.4090
18378SOL    HW167193   1.297   8.617   0.818  0.7876  0.1162  0.2959
18378SOL    HW267194   1.437   8.566   0.884  0.5739 -0.4480  0.3224
18379SOL     OW67195   8.095   1.675   6.306  0.9699  0.5547 -0.3550
18379SOL    HW167196   8.171   1.613   6.284  1.3777  1.1502 -0.6456
18379SOL    HW267197   8.067   1.662   6.401  1.3791  0.2646 -0.2730
18380SOL     OW67198   8.595   4.171   4.644  0.4153  0.0586 -0.1934
18380SOL    HW167199   8.621   4.261   4.608  0.4443  0.0387 -0.2223
18380SOL    HW267200   8.509   4.141   4.602 -0.9021  1.1691  1.6391
18381SOL     OW67201   7.946   0.655   6.316  0.1729  0.6349  0.2468
18381SOL    HW167202   7.935   0.717   6.239  0.9042  2.0449  1.2471
18381SOL    HW267203   7.879   0.581   6.310  0.0532  0.8719 -1.5779
18382SOL     OW67204   9.576   5.897   1.799 -0.0321 -0.1569 -0.2788
18382SOL    HW167205   9.563   5.879   1.897 -0.7848  1.8255  0.0038
18382SOL    HW267206   9.567   5.811   1.748 -2.9672 -0.6878  1.0423
18383SOL     OW67207   5.968   2.868   1.528 -0.3364 -0.0436 -0.4832
18383SOL    HW167208   5.925   2.904   1.611 -1.8066  0.6795 -1.5270
18383SOL    HW267209   6.033   2.935   1.492  0.2862 -0.3485  0.0620
18384SOL     OW67210   4.722   5.713   0.987  0.7862  0.4481 -0.4915
18384SOL    HW167211   4.666   5.796   0.989  0.1953  0.0273  1.7584
18384SOL    HW267212   4.686   5.651   0.917 -1.0077  0.5824  0.2640
18385SOL     OW67213   4.454   3.455   4.467 -0.3228 -0.2588  0.3638
18385SOL    HW167214   4.421   3.549   4.458  0.7473  0.0146 -0.9794
18385SOL    HW267215   4.394   3.394   4.415  1.1277  0.2156 -1.9399
18386SOL     OW67216   5.030   6.769  10.005  0.1142  0.0100 -0.1567
18386SOL    HW167217   5.010   6.704  10.078  0.0511 -0.2002 -0.3615
18386SOL    HW267218   5.002   6.861  10.033  1.1015  0.1079  0.5069
18387SOL     OW67219   2.523   7.786   9.537  0.8331 -0.5917  0.2790
18387SOL    HW167220   2.579   7.816   9.459  1.8155 -1.0531  0.7971
18387SOL    HW267221   2.545   7.691   9.559 -0.1892 -0.7829  0.4723
18388SOL     OW67222   0.792   0.137   7.099  0.0390 -0.0497  0.0291
18388SOL    HW167223   0.753   0.230   7.100 -1.7258 -0.7677 -0.2102
18388SOL    HW267224   0.827   0.117   7.008 -2.0569 -0.6116 -0.6655
18389SOL     OW67225   9.076   0.544   3.622  0.2425  0.3188 -0.6099
18389SOL    HW167226   9.145   0.501   3.563 -0.5094 -0.7148 -0.7721
18389SOL    HW267227   9.021   0.607   3.568  0.2212  0.1552 -0.7814
18390SOL     OW67228   1.601   8.987   8.851  0.1389 -0.4009 -0.6203
18390SOL    HW167229   1.566   9.055   8.916  1.3846 -0.5370  0.1940
18390SOL    HW267230   1.613   8.899   8.897 -2.3819 -1.4583 -1.9007
18391SOL     OW67231   2.715   4.633   9.940  0.6305  0.4359 -0.3220
18391SOL    HW167232   2.805   4.651   9.979  0.4977  0.3326  0.0351
18391SOL    HW267233   2.651   4.608  10.013  0.0016  1.7521 -0.4052
18392SOL     OW67234   4.493   2.318   8.988  0.4132 -0.0076  0.2762
18392SOL    HW167235   4.577   2.313   8.935 -0.0615  0.3470 -0.5192
18392SOL    HW267236   4.515   2.343   9.083  1.2994 -1.1308  0.3703
18393SOL     OW67237   2.297   2.188   4.453  0.0722 -0.3587 -0.0059
18393SOL    HW167238   2.235   2.267   4.459 -0.0543 -0.4451 -0.1615
18393SOL    HW267239   2.360   2.201   4.377 -0.4695 -0.7746 -0.5282
18394SOL     OW67240   8.181   2.610   3.104 -0.0807 -0.3429 -0.1219
18394SOL    HW167241   8.257   2.546   3.113 -0.6690 -1.1868 -1.0743
18394SOL    HW267242   8.181   2.648   3.011 -0.5864 -0.0498 -0.0008
18395SOL     OW67243   9.189   6.477   6.780 -0.6039  0.0852 -0.0096
18395SOL    HW167244   9.186   6.429   6.868 -0.1931  0.8303  0.4185
18395SOL    HW267245   9.265   6.441   6.725  0.7388  1.3213  0.9662
18396SOL     OW67246   5.533   8.576   1.961  0.1308  0.4770  0.1032
18396SOL    HW167247   5.620   8.613   1.929  1.3834 -2.7549 -0.4294
18396SOL    HW267248   5.491   8.523   1.888 -1.1155  0.0131  1.1466
18397SOL     OW67249   9.019   6.789   5.242  0.3717 -0.1349 -0.1401
18397SOL    HW167250   9.001   6.716   5.308 -1.0399  0.8373  0.5858
18397SOL    HW267251   8.971   6.768   5.156  0.6617 -0.4716 -0.2207
18398SOL     OW67252   1.627   2.132   7.395  0.5356 -0.2035 -0.3056
18398SOL    HW167253   1.581   2.046   7.418  0.6609  0.0996  1.1054
18398SOL    HW267254   1.700   2.113   7.330  0.3074 -1.1131 -0.3136
18399SOL     OW67255   1.343   2.892   4.393 -0.5444  0.2567  0.4509
18399SOL    HW167256   1.266   2.919   4.334 -0.2036 -0.2755 -0.2588
18399SOL    HW267257   1.420   2.953   4.377  0.0264 -0.7360 -0.7194
18400SOL     OW67258   4.556   0.854   1.213 -0.1693 -0.0050 -0.2911
18400SOL    HW167259   4.644   0.816   1.184 -0.7888 -1.9503  0.3241
18400SOL    HW267260   4.548   0.948   1.181  2.7782  0.6990  0.9318
18401SOL     OW67261   6.278   7.793   2.644 -0.3724  0.7236  0.7605
18401SOL    HW167262   6.315   7.789   2.736 -0.0886  0.7304  0.6474
18401SOL    HW267263   6.353   7.801   2.578 -0.5259 -0.0687  0.4833
18402SOL     OW67264   2.420   8.817   8.624 -0.1233 -0.3967 -0.0399
18402SOL    HW167265   2.354   8.860   8.686 -2.1225 -1.0891 -1.6646
18402SOL    HW267266   2.468   8.744   8.672 -1.2930 -0.5964  0.8380
18403SOL     OW67267   3.845   4.482   3.072 -0.3565 -0.2553 -0.2695
18403SOL    HW167268   3.849   4.462   3.170  0.0974  1.1424  0.0096
18403SOL    HW267269   3.936   4.511   3.040 -0.0940 -2.2997 -1.4679
18404SOL     OW67270   1.804   0.892   1.550 -0.5981  0.2469 -0.2290
18404SOL    HW167271   1.766   0.926   1.635 -0.7692  2.2805 -1.1015
18404SOL    HW267272   1.730   0.855   1.493 -0.6701  0.1645 -0.0814
18405SOL     OW67273   7.917   3.879   4.828 -0.0346  0.1052 -0.2133
18405SOL    HW167274   7.925   3.811   4.901 -0.6774  1.1226  0.8408
18405SOL    HW267275   7.862   3.842   4.753 -1.1457 -0.2357  0.7489
18406SOL     OW67276   4.082   9.867   1.311  0.0944 -0.4896  0.0415
18406SOL    HW167277   4.099   9.806   1.233 -1.9420  0.5218 -1.2666
18406SOL    HW267278   4.094   9.962   1.282  0.4131 -0.1410  1.2844
18407SOL     OW67279   2.088   3.765   7.682 -0.2394 -0.0637  0.2365
18407SOL    HW167280   2.077   3.712   7.766 -0.9935 -0.1659  0.0797
18407SOL    HW267281   2.169   3.733   7.633  0.4826  0.3306  1.1689
18408SOL     OW67282   9.492   0.321   4.368 -0.0429  0.1944 -0.3787
18408SOL    HW167283   9.501   0.231   4.411 -1.6747  0.2274  0.0754
18408SOL    HW267284   9.411   0.322   4.309 -1.8381  2.3029  2.0378
18409SOL     OW67285   7.720   1.581   9.635 -0.6652 -0.0271  0.1970
18409SOL    HW167286   7.644   1.523   9.606 -1.8947  0.9154  1.4296
18409SOL    HW267287   7.790   1.526   9.679 -1.0447 -0.7997 -0.1620
18410SOL     OW67288   4.319   2.871   7.068  0.0016  0.3442  0.0499
18410SOL    HW167289   4.270   2.940   7.016 -0.0184  0.0387 -0.3355
18410SOL    HW267290   4.376   2.916   7.137  1.7953  0.8817 -1.7323
18411SOL     OW67291   8.452   2.968   9.414  0.0353 -0.3747  0.3911
18411SOL    HW167292   8.548   2.944   9.431 -0.2154 -0.7318  1.3201
18411SOL    HW267293   8.435   3.062   9.444  0.5294  0.3304 -1.4426
18412SOL     OW67294   8.666   0.663   2.900  0.3035 -0.5489 -0.3458
18412SOL    HW167295   8.606   0.585   2.919 -0.7227  0.0321 -1.0919
18412SOL    HW267296   8.612   0.736   2.858  1.4787  0.1260 -0.7059
18413SOL     OW67297   7.661   7.115   8.855  0.3984 -0.3760 -0.7962
18413SOL    HW167298   7.563   7.100   8.848 -0.0525  1.2001  1.4704
18413SOL    HW267299   7.707   7.029   8.877 -0.6837 -0.7823 -0.1053
18414SOL     OW67300   7.437   7.241   5.649  0.4158  0.0038 -0.2218
18414SOL    HW167301   7.400   7.151   5.623  0.3642  0.3064 -1.2207
18414SOL    HW267302   7.512   7.228   5.714 -0.0030 -0.7302  0.1310
18415SOL     OW67303   3.586   9.113   0.681 -0.3060  0.6011  0.0133
18415SOL    HW167304   3.541   9.027   0.657  1.8035  0.2058 -2.7947
18415SOL    HW267305   3.584   9.125   0.781  0.0400 -3.0917  0.5477
18416SOL     OW67306   7.299   0.759   4.110 -0.0759  0.4778 -0.7014
18416SOL    HW167307   7.281   0.809   4.025  0.2704  1.0680 -0.4233
18416SOL    HW267308   7.268   0.664   4.099  2.5872 -0.2493 -2.5038
18417SOL     OW67309   2.975   2.930   6.184  0.2773  0.3297  0.5650
18417SOL    HW167310   2.937   2.944   6.275 -0.0584  0.9416  0.3360
18417SOL    HW267311   3.044   3.000   6.165 -0.9926  1.3670 -0.3643
18418SOL     OW67312   2.509   1.297   9.842 -0.4624  0.1709  0.4282
18418SOL    HW167313   2.546   1.257   9.757  0.9164  0.1890  1.0048
18418SOL    HW267314   2.547   1.388   9.855 -0.6842  0.1744  1.0552
18419SOL     OW67315   5.037   0.441   3.811 -0.4155 -0.2031  0.5681
18419SOL    HW167316   5.100   0.475   3.881  0.3678  0.5883 -0.4992
18419SOL    HW267317   4.943   0.461   3.838 -0.1528 -0.2837  1.5835
18420SOL     OW67318   3.892   2.435   1.427  0.4401 -0.2066 -0.3806
18420SOL    HW167319   3.903   2.405   1.522  1.1364  1.8254  0.2207
18420SOL    HW267320   3.903   2.534   1.423 -1.6377 -0.0340 -2.2972
18421SOL     OW67321   3.995   1.205   7.618 -0.1422 -0.2528 -0.3037
18421SOL    HW167322   3.918   1.186   7.679 -0.0458 -0.7279 -0.3291
18421SOL    HW267323   4.076   1.156   7.651  0.1936  0.3988 -0.1680
18422SOL     OW67324   0.498   5.156   9.816 -0.6688 -0.0834  0.2838
18422SOL    HW167325   0.403   5.132   9.837 -0.7625  1.9204  2.3481
18422SOL    HW267326   0.504   5.253   9.795  0.9293 -0.2164  0.0540
18423SOL     OW67327   2.007   9.106   3.528 -0.2669  0.2143  0.0367
18423SOL    HW167328   1.941   9.149   3.589 -1.3287 -1.7816  0.3258
18423SOL    HW267329   2.086   9.074   3.581 -0.6417 -0.4574  0.1879
18424SOL     OW67330   8.188   8.126   7.140 -0.5816 -0.2800  0.5033
18424SOL    HW167331   8.246   8.119   7.221 -0.7985  0.0462  0.6893
18424SOL    HW267332   8.213   8.055   7.074  2.0706  1.6761 -0.6943
18425SOL     OW67333   0.330   6.586   5.223  0.3963 -0.0818  0.2757
18425SOL    HW167334   0.284   6.612   5.308  0.7401  1.7264 -0.0628
18425SOL    HW267335   0.261   6.564   5.154  0.1099 -1.2467  0.9260
18426SOL     OW67336   2.793   0.201   2.786 -0.3179 -0.3897  0.2510
18426SOL    HW167337   2.792   0.109   2.826 -1.0333  0.1068  1.4068
18426SOL    HW267338   2.861   0.257   2.834 -1.6212  0.3912  1.2272
18427SOL     OW67339   0.025   2.418   4.089 -0.0477 -0.5588  0.1081
18427SOL    HW167340  -0.002   2.510   4.117 -0.4101 -0.5618 -0.2275
18427SOL    HW267341  -0.055   2.359   4.084 -0.8138  0.6351 -5.5226
18428SOL     OW67342   0.325   6.104   7.981 -0.0608  0.6353 -0.9060
18428SOL    HW167343   0.412   6.143   8.010 -1.5208  3.2573  0.0616
18428SOL    HW267344   0.292   6.152   7.899 -2.2408  1.9813  0.7258
18429SOL     OW67345   3.159   3.226   5.353  0.1592  0.1957 -0.1183
18429SOL    HW167346   3.090   3.264   5.414 -0.8348 -0.7050 -0.6619
18429SOL    HW267347   3.117   3.204   5.264  1.5568  1.4012 -1.1122
18430SOL     OW67348   8.602   9.050   3.574  0.1324  0.0279  0.2717
18430SOL    HW167349   8.583   8.953   3.556 -1.1368  0.4259 -0.5970
18430SOL    HW267350   8.556   9.077   3.658 -1.3650  0.4388 -0.6740
18431SOL     OW67351   0.267   0.403   1.478 -0.3587 -0.5335 -0.6995
18431SOL    HW167352   0.280   0.475   1.410  0.2249 -0.9471 -1.0320
18431SOL    HW267353   0.287   0.314   1.437 -1.9241 -0.9846 -0.5473
18432SOL     OW67354   2.511   3.713   4.791 -0.1633  0.0404  0.6921
18432SOL    HW167355   2.566   3.651   4.848  0.8384 -0.3646 -0.6974
18432SOL    HW267356   2.550   3.805   4.796 -0.4011  0.1210  1.0881
18433SOL     OW67357   0.322   5.904   7.688 -0.6437 -0.0298  0.3883
18433SOL    HW167358   0.288   5.875   7.598  0.0858 -0.2672  0.1897
18433SOL    HW267359   0.356   5.824   7.738 -2.6340 -0.1783  1.5727
18434SOL     OW67360   6.190   8.245   6.171  0.2204 -0.1905 -0.1388
18434SOL    HW167361   6.143   8.280   6.090 -1.2450  1.0908  1.2386
18434SOL    HW267362   6.213   8.149   6.157 -2.4076 -0.7183 -1.0510
18435SOL     OW67363   3.054   4.548   0.424  0.1018  0.0655  0.2822
18435SOL    HW167364   3.138   4.593   0.392 -0.2288  1.1388  0.8817
18435SOL    HW267365   3.033   4.471   0.365  1.8518 -0.5971  0.4886
18436SOL     OW67366   1.253   1.636   8.014 -0.0512  0.3706 -0.8908
18436SOL    HW167367   1.243   1.644   8.113 -0.6029  1.5842 -1.0325
18436SOL    HW267368   1.189   1.567   7.979  1.6177 -1.5772 -0.1609
18437SOL     OW67369   3.586   5.332   2.203 -0.0016  0.2025 -0.0913
18437SOL    HW167370   3.569   5.279   2.119 -0.6148 -0.0868  0.2090
18437SOL    HW267371   3.649   5.282   2.262  1.2591  0.8903 -0.8408
18438SOL     OW67372   8.403   7.528   9.255  0.1331 -0.2187  0.3249
18438SOL    HW167373   8.328   7.570   9.204 -0.3389  0.6100  1.6925
18438SOL    HW267374   8.373   7.439   9.291 -0.7391  0.7999  2.1898
18439SOL     OW67375   2.205   4.764   2.998 -0.1146  0.1620 -0.1590
18439SOL    HW167376   2.260   4.696   2.950  0.4487  0.1759  0.4690
18439SOL    HW267377   2.120   4.721   3.031 -0.8932  0.3484 -1.8748
18440SOL     OW67378   2.771   9.178   3.383 -0.1398  0.0506  0.6786
18440SOL    HW167379   2.807   9.254   3.330 -0.2189 -0.7012 -0.4718
18440SOL    HW267380   2.847   9.128   3.425 -0.0942  0.8106  1.5172
18441SOL     OW67381   4.018   6.121   2.029 -0.0442 -0.3012 -0.1606
18441SOL    HW167382   4.046   6.141   2.123  0.0013  0.2365 -0.2900
18441SOL    HW267383   4.041   6.026   2.007 -0.5469 -0.5912  0.5524
18442SOL     OW67384   9.458   1.466   5.854 -0.3202 -0.0347  0.5296
18442SOL    HW167385   9.422   1.377   5.824 -0.5856  0.0177  0.6879
18442SOL    HW267386   9.405   1.498   5.933 -0.1703  0.2243  0.5260
18443SOL     OW67387   0.237   9.804  10.018 -0.4818 -0.3762  0.3873
18443SOL    HW167388   0.294   9.791  10.100 -0.6173 -0.2495  0.5027
18443SOL    HW267389   0.162   9.867  10.040  0.7194  1.3811 -0.4127
18444SOL     OW67390   5.355   9.430   4.132  0.3356  0.0085 -0.0834
18444SOL    HW167391   5.328   9.406   4.038  2.3971  0.5309 -0.8340
18444SOL    HW267392   5.409   9.355   4.171 -1.4477 -0.6889  1.1223
18445SOL     OW67393   3.624   6.490   7.852 -0.2812 -0.0270 -0.5296
18445SOL    HW167394   3.688   6.457   7.921  0.3340  1.2475 -0.4660
18445SOL    HW267395   3.647   6.449   7.763  1.5152  1.4525 -0.7861
18446SOL     OW67396   3.900   4.004   1.967  0.1556  0.4005  0.3302
18446SOL    HW167397   3.948   4.065   1.904  2.1123  1.1630  2.4940
18446SOL    HW267398   3.813   4.045   1.994 -1.0533 -0.2704 -2.4045
18447SOL     OW67399   3.544   9.252   2.654  0.2708  0.6819  0.5920
18447SOL    HW167400   3.538   9.235   2.752  0.8837  0.2000  0.5486
18447SOL    HW267401   3.458   9.292   2.621 -0.8813 -1.5416  0.8355
18448SOL     OW67402   8.200   2.014   0.516 -1.0536 -0.4254  0.4179
18448SOL    HW167403   8.237   2.048   0.603 -0.2118  0.7986 -0.3977
18448SOL    HW267404   8.100   2.014   0.521 -1.0204 -0.1348  1.3040
18449SOL     OW67405   3.844   0.321   6.169  0.0787 -0.6362 -0.4299
18449SOL    HW167406   3.810   0.239   6.124  0.0588 -0.2791 -1.0664
18449SOL    HW267407   3.834   0.400   6.108  1.8259 -0.4874 -0.5279
18450SOL     OW67408   2.223   3.666   2.400  0.2477 -1.0986  0.2505
18450SOL    HW167409   2.313   3.704   2.380  0.2988 -1.9335 -1.1920
18450SOL    HW267410   2.162   3.738   2.432  0.5281  0.0948 -1.8132
18451SOL     OW67411   6.744   2.091   4.364 -0.4059 -0.2331  0.2424
18451SOL    HW167412   6.660   2.100   4.310 -0.9084 -2.1207  0.6712
18451SOL    HW267413   6.733   2.141   4.450 -0.4976  0.8058 -0.3665
18452SOL     OW67414   1.559   9.100   9.528  0.8416 -0.2626  0.4827
18452SOL    HW167415   1.464   9.095   9.557  1.2720 -0.0314  1.9730
18452SOL    HW267416   1.619   9.083   9.606  2.0408  1.1990 -0.0832
18453SOL     OW67417   5.033   8.060   1.954 -0.0989  0.0433 -0.3061
18453SOL    HW167418   4.952   8.074   1.898  0.6760 -1.9009 -2.0093
18453SOL    HW267419   5.084   7.981   1.919  1.5373  0.0850  1.8701
18454SOL     OW67420   0.844   5.665   6.932 -0.4920  0.0284  0.0466
18454SOL    HW167421   0.818   5.758   6.961 -2.0638 -0.3948  0.0669
18454SOL    HW267422   0.821   5.600   7.004 -1.4203 -0.6313 -0.8149
18455SOL     OW67423   9.839   8.349   0.828 -0.7497  0.3220 -0.3019
18455SOL    HW167424   9.889   8.435   0.842  0.3276 -0.3717  0.1934
18455SOL    HW267425   9.847   8.292   0.910  0.4764 -1.2160 -1.4566
18456SOL     OW67426   0.348   6.371   8.678  0.2617  0.2216 -0.3699
18456SOL    HW167427   0.412   6.317   8.622  1.3334  0.7350  0.3421
18456SOL    HW267428   0.344   6.464   8.643 -1.4950 -0.2660 -1.5203
18457SOL     OW67429   0.907   5.574   9.071 -0.4672 -0.3605  0.5283
18457SOL    HW167430   0.862   5.558   9.158 -0.3951 -0.0581  0.6212
18457SOL    HW267431   0.990   5.518   9.064 -0.2867 -0.1240  0.7960
18458SOL     OW67432   2.058   1.899   7.761  0.2566 -0.2549  0.1978
18458SOL    HW167433   2.005   1.923   7.679  0.2852 -0.4526  0.1199
18458SOL    HW267434   2.048   1.971   7.830 -1.6734 -1.1752  0.9255
18459SOL     OW67435   9.429   0.965   7.594  0.2782  0.2010  0.5738
18459SOL    HW167436   9.396   0.940   7.685  1.7413 -0.2570  0.9940
18459SOL    HW267437   9.519   0.923   7.579  0.0886  0.3655 -1.0377
18460SOL     OW67438   7.748   6.888   3.584 -0.0984 -0.1867  0.0305
18460SOL    HW167439   7.709   6.965   3.635 -2.3604 -0.4395 -1.2245
18460SOL    HW267440   7.843   6.908   3.561 -0.4182  1.8933  0.4171
18461SOL     OW67441   5.924   4.268   1.255  0.0316 -0.2411  0.3555
18461SOL    HW167442   5.891   4.306   1.169 -1.0551  0.3214  1.0193
18461SOL    HW267443   5.849   4.222   1.303  0.7301 -0.9410  0.7999
18462SOL     OW67444   1.663   4.231   5.100  0.4031  0.0443 -0.1774
18462SOL    HW167445   1.696   4.314   5.145  0.4592  0.3625 -0.8004
18462SOL    HW267446   1.740   4.181   5.062  0.3086  0.0381 -0.3625
18463SOL     OW67447   4.401   5.748   0.331 -0.7487  1.1755  0.4568
18463SOL    HW167448   4.473   5.796   0.382 -1.2837  1.5400  0.8782
18463SOL    HW267449   4.385   5.794   0.244 -0.7854  1.3615  0.5610
18464SOL     OW67450   9.368   3.581   0.618  0.4444  0.4234  0.2297
18464SOL    HW167451   9.414   3.494   0.633 -0.3141  0.0864  0.6182
18464SOL    HW267452   9.305   3.573   0.541 -2.4512 -0.5024  2.6023
18465SOL     OW67453   4.615   0.006   9.159  0.4219  0.1424 -0.2651
18465SOL    HW167454   4.518   0.009   9.133  0.1334  0.8987  0.8923
18465SOL    HW267455   4.659   0.091   9.130  0.7415 -0.2074 -0.8009
18466SOL     OW67456   7.172   2.872   1.011 -0.3452 -0.6245  0.2955
18466SOL    HW167457   7.101   2.849   0.944  0.2343  1.0736 -0.9196
18466SOL    HW267458   7.261   2.869   0.967  0.0601  0.3114  1.0487
18467SOL     OW67459   2.353   2.768   5.903 -0.4942 -0.2293  0.2619
18467SOL    HW167460   2.273   2.759   5.844 -0.5381  2.4209 -0.1616
18467SOL    HW267461   2.368   2.683   5.952 -3.3641 -0.8852  0.0860
18468SOL     OW67462   9.164   5.945   6.752 -0.3888  0.1142  0.2056
18468SOL    HW167463   9.247   5.968   6.701 -0.2585 -0.8125 -0.0098
18468SOL    HW267464   9.114   5.874   6.704 -1.0295  0.2836  0.6183
18469SOL     OW67465   8.294   2.755   9.987 -0.3416 -0.0506 -0.0851
18469SOL    HW167466   8.332   2.683  10.046  0.1154  1.3605  1.3489
18469SOL    HW267467   8.261   2.831  10.043 -0.7490  0.9040 -1.5992
18470SOL     OW67468   5.916   8.619   5.016 -0.4179  0.7278 -0.3913
18470SOL    HW167469   6.000   8.613   4.962 -3.3626 -0.0838 -5.1018
18470SOL    HW267470   5.898   8.531   5.058 -0.0792  0.2712 -1.1913
18471SOL     OW67471   8.503   8.609   7.051 -0.1809 -0.6162  0.5094
18471SOL    HW167472   8.549   8.520   7.047  3.3066  1.1495  0.0594
18471SOL    HW267473   8.493   8.637   7.146 -0.7020 -1.1599  0.6217
18472SOL     OW67474   0.462   0.509   2.202 -0.4813 -0.7348 -0.3364
18472SOL    HW167475   0.384   0.538   2.257 -0.6332 -1.1879 -0.3094
18472SOL    HW267476   0.534   0.474   2.262  0.6882  1.8355 -0.1812
18473SOL     OW67477   7.792   8.181   5.729 -0.0524 -0.4073 -0.4004
18473SOL    HW167478   7.844   8.120   5.788 -0.3191  0.5626  0.8525
18473SOL    HW267479   7.694   8.165   5.743 -0.1205  0.2662 -0.1217
18474SOL     OW67480   8.916   5.970   1.772  0.3883 -0.6271  0.1143
18474SOL    HW167481   9.015   5.965   1.760  0.3039  0.6708 -1.3517
18474SOL    HW267482   8.894   6.045   1.836  0.3355 -0.6917  0.1716
18475SOL     OW67483   4.393   3.012   6.314 -0.0868 -0.4788 -0.3208
18475SOL    HW167484   4.302   2.975   6.297  0.0785 -0.8631 -0.3766
18475SOL    HW267485   4.433   3.046   6.229 -0.6483  0.7746 -0.0979
18476SOL     OW67486   2.353   7.534   8.071 -0.3404  0.0066  0.1172
18476SOL    HW167487   2.420   7.528   8.145  0.1840 -0.8465 -0.4141
18476SOL    HW267488   2.314   7.443   8.055  0.9751 -0.2155 -1.9506
18477SOL     OW67489   3.149   4.163   6.511  0.1673 -0.0877 -0.5700
18477SOL    HW167490   3.053   4.170   6.484  0.1496  0.2272 -0.4296
18477SOL    HW267491   3.175   4.067   6.517  0.0176 -0.1657 -1.1549
18478SOL     OW67492   9.621   6.713   8.177  0.1178 -0.5669 -0.7935
18478SOL    HW167493   9.659   6.785   8.118  2.0898 -0.8415  0.0853
18478SOL    HW267494   9.529   6.689   8.145  0.9672 -0.4275 -3.5068
18479SOL     OW67495   9.663   8.553   5.837  0.2575  0.4556 -1.0909
18479SOL    HW167496   9.602   8.538   5.915  0.1933 -1.2213 -1.4582
18479SOL    HW267497   9.758   8.545   5.867  0.2600  0.8537 -0.9833
18480SOL     OW67498   1.258   0.279   7.884 -0.3254  0.3747 -0.0907
18480SOL    HW167499   1.320   0.231   7.946  1.0206  2.8609  0.5370
18480SOL    HW267500   1.303   0.292   7.796 -0.0817  1.8195  0.2338
18481SOL     OW67501   2.489   7.745   9.043 -0.3967  0.4254  0.9810
18481SOL    HW167502   2.396   7.745   9.005  0.3802 -0.3160 -0.9638
18481SOL    HW267503   2.528   7.654   9.034  1.7829  1.5348 -1.4420
18482SOL     OW67504   4.866   3.836   6.943 -0.1477 -0.5846 -0.4280
18482SOL    HW167505   4.948   3.879   6.979 -2.4729  2.1572  1.8595
18482SOL    HW267506   4.872   3.831   6.843  2.0914  1.1191 -0.4111
18483SOL     OW67507   7.321   9.690   7.375  0.5417  0.2048 -0.1627
18483SOL    HW167508   7.412   9.659   7.402  0.7402  0.6925 -0.2787
18483SOL    HW267509   7.262   9.610   7.360  0.7403 -0.0956  0.6191
18484SOL     OW67510   8.270   2.950   5.277 -0.0637  0.3627 -0.5396
18484SOL    HW167511   8.326   3.010   5.334 -0.1787 -0.7248  0.7327
18484SOL    HW267512   8.324   2.920   5.198  1.4951 -1.4158  1.1485
18485SOL     OW67513   5.819   6.376   0.490  0.2583  0.2653 -0.0913
18485SOL    HW167514   5.872   6.423   0.420 -0.1911  0.7308 -0.1269
18485SOL    HW267515   5.728   6.418   0.497 -0.2416 -0.7633 -0.2952
18486SOL     OW67516   0.252   4.216   5.842 -0.0919  0.0342 -0.1059
18486SOL    HW167517   0.163   4.250   5.811 -0.6985 -1.7102 -0.2901
18486SOL    HW267518   0.243   4.176   5.933  0.1929 -1.4721 -0.7276
18487SOL     OW67519   6.208   5.587   1.216  0.3014 -0.2147 -0.2489
18487SOL    HW167520   6.208   5.684   1.240 -1.1072 -0.4921  1.0063
18487SOL    HW267521   6.114   5.552   1.219  0.9543 -1.9640  0.8910
18488SOL     OW67522   6.690   9.201   3.345 -0.6017  0.6266 -0.5946
18488SOL    HW167523   6.677   9.292   3.384  0.9160  0.3211  0.6963
18488SOL    HW267524   6.742   9.145   3.409 -2.2299 -1.4205 -1.0133
18489SOL     OW67525   9.161   0.262   0.998  0.2010 -0.7763 -0.5485
18489SOL    HW167526   9.250   0.280   1.041 -0.3075 -0.7572  0.4930
18489SOL    HW267527   9.120   0.180   1.037 -0.1442 -0.9222 -1.1980
18490SOL     OW67528   8.745   3.220   5.006 -0.0700 -0.0402  0.1448
18490SOL    HW167529   8.673   3.238   4.938  1.4859 -0.2175 -1.5871
18490SOL    HW267530   8.774   3.125   4.999  1.1349  0.3239  0.0239
18491SOL     OW67531   0.825   9.265   6.295  0.2885 -0.0440 -0.3855
18491SOL    HW167532   0.810   9.350   6.346  1.1758 -0.2449  0.2405
18491SOL    HW267533   0.853   9.193   6.359  0.0221 -0.6826 -0.9779
18492SOL     OW67534   9.877   0.592   5.140  0.1982 -0.8937 -0.3551
18492SOL    HW167535   9.791   0.632   5.106  0.6890 -1.0057 -1.7601
18492SOL    HW267536   9.897   0.509   5.089  0.5979 -1.4496  0.7034
18493SOL     OW67537   7.465   9.671   4.378  0.1419  0.0397 -0.3325
18493SOL    HW167538   7.561   9.701   4.384  0.4070 -0.9256  0.3612
18493SOL    HW267539   7.438   9.664   4.282  1.4253 -1.6857 -0.6023
18494SOL     OW67540   4.175   3.597   8.130  0.3254  0.4761  0.1215
18494SOL    HW167541   4.225   3.572   8.213 -0.4716  0.4217  0.5899
18494SOL    HW267542   4.239   3.633   8.062  0.6560  3.0279  1.7073
18495SOL     OW67543   6.772   0.132   6.125  0.1740 -0.3481 -0.4460
18495SOL    HW167544   6.865   0.099   6.140  0.4496  0.1461 -1.0697
18495SOL    HW267545   6.751   0.129   6.028 -0.0627  0.6284 -0.4232
18496SOL     OW67546   2.353   8.772   6.657  0.1194  0.2984  0.2651
18496SOL    HW167547   2.379   8.689   6.608 -1.5573 -0.0189 -0.0970
18496SOL    HW267548   2.401   8.850   6.616 -0.3994 -0.1212 -1.1917
18497SOL     OW67549   8.007   5.370   2.657 -0.0950  0.2214  0.3895
18497SOL    HW167550   7.942   5.293   2.654  1.0185 -0.7117 -0.1868
18497SOL    HW267551   8.093   5.340   2.697 -0.2855  1.6926  1.9907
18498SOL     OW67552   5.040   5.660   9.970 -0.1776 -0.5039 -0.0654
18498SOL    HW167553   4.974   5.608   9.915 -0.0590  0.1560 -0.8367
18498SOL    HW267554   4.992   5.714  10.038 -0.4991  0.6286 -1.1782
18499SOL     OW67555   7.089   2.743   0.146  0.3436 -0.3714  0.4514
18499SOL    HW167556   7.161   2.677   0.124 -0.7693 -1.0913 -1.0546
18499SOL    HW267557   7.042   2.770   0.063  0.8853  2.4871  1.0183
18500SOL     OW67558   0.532   3.014   6.961  0.2097  0.3581 -0.4225
18500SOL    HW167559   0.610   3.024   7.023  0.2810 -0.4876 -0.3796
18500SOL    HW267560   0.565   2.991   6.870  0.0959  1.4476 -0.7485
18501SOL     OW67561   3.079   0.657   3.842 -0.0499  0.3619  0.1606
18501SOL    HW167562   2.996   0.708   3.817 -0.4416  0.2380  1.1736
18501SOL    HW267563   3.159   0.715   3.828 -0.1813  0.0924 -1.9581
18502SOL     OW67564   6.216   8.232   5.076 -0.5987  0.2853  0.3049
18502SOL    HW167565   6.152   8.155   5.084 -1.7469  1.2357  0.4325
18502SOL    HW267566   6.216   8.264   4.981 -1.7964  1.5241  0.7046
18503SOL     OW67567   3.308   2.080   1.256 -0.6714  0.2809  0.6081
18503SOL    HW167568   3.399   2.109   1.287 -0.8721 -1.5275  3.0143
18503SOL    HW267569   3.307   2.075   1.156  1.9091  0.1890  0.5591
18504SOL     OW67570   2.612   8.941   3.305 -0.1643 -0.3270  0.1835
18504SOL    HW167571   2.655   9.028   3.329 -0.3055 -0.7870  2.1849
18504SOL    HW267572   2.683   8.874   3.283 -0.0581  0.3008 -1.3999
18505SOL     OW67573   9.330   0.314   7.762  0.4345  0.1630  0.3003
18505SOL    HW167574   9.339   0.214   7.767 -0.7212  0.0516  0.2347
18505SOL    HW267575   9.323   0.341   7.666 -0.7015  0.1752  0.3859
18506SOL     OW67576   1.650   4.109   7.794 -0.2335  0.4678  0.3388
18506SOL    HW167577   1.577   4.177   7.785  0.5100  1.1822 -0.3139
18506SOL    HW267578   1.728   4.150   7.841 -0.7679 -0.7024  2.3082
18507SOL     OW67579   0.764   7.122   1.087 -1.0549  0.0210 -0.0990
18507SOL    HW167580   0.800   7.059   1.156 -0.2472 -1.5664 -1.9562
18507SOL    HW267581   0.725   7.070   1.011 -0.7789  1.7749 -1.4570
18508SOL     OW67582   9.376   1.602   9.122  0.2064 -0.0302 -0.1823
18508SOL    HW167583   9.417   1.562   9.204  1.5201 -0.8765 -1.2453
18508SOL    HW267584   9.324   1.684   9.147  1.1825  0.1159  1.3885
18509SOL     OW67585   6.960   9.965   3.635 -0.3076  0.4044  0.2658
18509SOL    HW167586   6.926   9.958   3.542 -1.8155 -0.0175  0.8370
18509SOL    HW267587   6.968   9.873   3.675 -0.1703  0.6133  0.7297
18510SOL     OW67588   8.419   0.571   2.554  0.4758  0.6884  0.1071
18510SOL    HW167589   8.504   0.620   2.538  1.5152 -1.1924 -0.3022
18510SOL    HW267590   8.346   0.609   2.498  1.7023  0.5646 -1.5868
18511SOL     OW67591   6.455   0.592   4.669  0.1850 -0.0336 -0.0130
18511SOL    HW167592   6.551   0.570   4.685  0.2125  0.0449 -0.0667
18511SOL    HW267593   6.426   0.660   4.736 -0.3121 -1.3274  1.1100
18512SOL     OW67594   9.391   9.028   5.086  0.6000  0.3937 -0.0968
18512SOL    HW167595   9.374   9.058   5.180  0.8130 -0.2075  0.1389
18512SOL    HW267596   9.306   8.996   5.046  0.1184  2.4191 -0.7673
18513SOL     OW67597   9.623   2.981   3.963  0.3005 -0.1287 -0.5100
18513SOL    HW167598   9.634   2.940   4.053  0.4099  0.5058 -0.2335
18513SOL    HW267599   9.670   2.925   3.895 -1.1542 -1.4947 -0.4172
18514SOL     OW67600   9.455   4.440   8.345 -0.1948 -0.1234  0.1396
18514SOL    HW167601   9.479   4.448   8.442  0.4286  0.3083 -0.0458
18514SOL    HW267602   9.375   4.495   8.324 -1.2602 -1.4147  0.7262
18515SOL     OW67603   0.568   7.318   1.646 -0.1597 -0.8085  0.3736
18515SOL    HW167604   0.556   7.220   1.666 -1.1622 -0.3949  1.8537
18515SOL    HW267605   0.511   7.344   1.568 -2.2156 -0.7685  1.8552
18516SOL     OW67606   6.152   8.134   2.812  0.1753 -1.1850 -0.1079
18516SOL    HW167607   6.114   8.150   2.904  0.3949 -0.5932 -0.1151
18516SOL    HW267608   6.251   8.149   2.814 -0.1393  1.2171 -0.9664
18517SOL     OW67609   6.693   5.153   8.569 -0.1961  0.0342  0.2287
18517SOL    HW167610   6.623   5.184   8.633 -1.2283 -1.1168 -0.3359
18517SOL    HW267611   6.654   5.142   8.478  0.9287  0.2301 -0.2958
18518SOL     OW67612   0.708   4.595   9.385 -0.1118 -0.1962 -0.0860
18518SOL    HW167613   0.668   4.671   9.334 -1.3590 -1.7375 -1.4247
18518SOL    HW267614   0.645   4.518   9.387  1.0064 -1.1081  1.5436
18519SOL     OW67615   7.543   7.341   1.453  0.4118  0.6210  0.0926
18519SOL    HW167616   7.502   7.377   1.369  1.1781 -2.7661 -1.8634
18519SOL    HW267617   7.641   7.363   1.454  0.6825 -0.4880 -0.6270
18520SOL     OW67618   8.743   4.319   7.278 -0.3285 -0.3490  0.0954
18520SOL    HW167619   8.731   4.392   7.346 -0.2116 -0.4396  0.2137
18520SOL    HW267620   8.836   4.284   7.283 -0.8028 -1.5193  1.0539
18521SOL     OW67621   0.858   5.007   4.427 -0.9912  0.0074  0.1584
18521SOL    HW167622   0.948   5.026   4.464  0.4530 -1.0404 -2.6930
18521SOL    HW267623   0.826   5.085   4.373 -0.4907 -0.7258 -1.2332
18522SOL     OW67624   2.432   4.279   2.222 -0.0304  0.2858  0.1244
18522SOL    HW167625   2.404   4.357   2.165  1.8896  1.0318  0.1781
18522SOL    HW267626   2.452   4.311   2.314  0.4137 -0.3425  0.2453
18523SOL     OW67627   2.804   9.989   9.882  0.1187  0.0581 -0.1675
18523SOL    HW167628   2.824  10.063   9.945 -1.1181  0.1082  0.1883
18523SOL    HW267629   2.719   9.943   9.910 -0.9153  0.6103 -2.2602
18524SOL     OW67630   8.012   6.536   6.558 -0.8349 -0.3784 -0.2011
18524SOL    HW167631   7.976   6.573   6.643  0.2657 -0.2742  0.2203
18524SOL    HW267632   8.084   6.595   6.523 -1.9584  0.1225 -1.7446
18525SOL     OW67633   9.627   7.581   6.392  0.2737 -0.1659 -0.2046
18525SOL    HW167634   9.624   7.679   6.412 -1.6999 -0.2002 -0.1915
18525SOL    HW267635   9.565   7.533   6.455  0.2411 -1.2604 -1.0632
18526SOL     OW67636   9.368   2.256   4.713 -0.1106 -0.1425  0.3745
18526SOL    HW167637   9.280   2.269   4.759  0.0589  2.1349  0.1134
18526SOL    HW267638   9.438   2.231   4.781 -0.6808 -0.6614  0.7743
18527SOL     OW67639   9.029   4.165   5.799  0.5215 -0.1913 -0.3293
18527SOL    HW167640   9.052   4.260   5.779 -1.2928  0.2800 -0.3048
18527SOL    HW267641   9.010   4.117   5.713 -2.0938  0.4549 -0.1831
18528SOL     OW67642   3.109   2.530   2.973 -0.1313 -0.2997  0.1300
18528SOL    HW167643   3.031   2.471   2.955  0.0657 -0.7701  0.7877
18528SOL    HW267644   3.132   2.583   2.891  0.2411 -1.7921 -0.7346
18529SOL     OW67645   2.507   4.957   7.122  0.1080  0.0126  0.1992
18529SOL    HW167646   2.596   4.994   7.150 -0.1991  1.0588 -0.1821
18529SOL    HW267647   2.463   4.913   7.201 -0.1711  1.8032  1.0851
18530SOL     OW67648   6.208   2.942   1.407  0.5367  0.0924  0.1965
18530SOL    HW167649   6.244   2.849   1.407 -1.2940 -0.6381  0.3008
18530SOL    HW267650   6.183   2.968   1.314  1.4546  0.6431  0.1040
18531SOL     OW67651   8.285   0.603   8.114 -0.5763  0.3955 -0.0309
18531SOL    HW167652   8.293   0.583   8.016  0.8696 -0.8134  0.3073
18531SOL    HW267653   8.282   0.517   8.165  1.1924  1.0096  1.1523
18532SOL     OW67654   3.739   3.859   0.661  0.3144  0.4438 -0.4022
18532SOL    HW167655   3.804   3.934   0.645 -0.1543  1.0484  0.5227
18532SOL    HW267656   3.732   3.841   0.759  0.1107 -0.5429 -0.5922
18533SOL     OW67657   1.122   5.888   5.528  0.3373  0.4398  0.1666
18533SOL    HW167658   1.122   5.926   5.621 -2.2313  1.1139 -0.0837
18533SOL    HW267659   1.212   5.902   5.487  1.1652  1.1407  2.1481
18534SOL     OW67660   8.074   9.643   4.162 -0.5968 -0.7427  0.3079
18534SOL    HW167661   8.080   9.712   4.235 -1.5972 -1.1217  0.7546
18534SOL    HW267662   8.082   9.689   4.073 -5.8623  0.6571  0.3904
18535SOL     OW67663   6.491   2.709   9.959 -0.7656 -0.3574 -0.2195
18535SOL    HW167664   6.433   2.655  10.021  0.9361 -0.8012  1.0232
18535SOL    HW267665   6.511   2.797  10.002 -2.1897  0.6580 -1.5478
18536SOL     OW67666   1.722   9.830   8.630 -0.0191 -0.5897  0.6095
18536SOL    HW167667   1.719   9.777   8.715  1.6164  0.5129  1.3877
18536SOL    HW267668   1.810   9.814   8.585 -0.4831 -0.3826 -0.3681
18537SOL     OW67669   0.577   7.862   6.360  0.3969 -0.0652  0.0751
18537SOL    HW167670   0.630   7.941   6.329  1.3332 -0.1686  1.3984
18537SOL    HW267671   0.628   7.778   6.341 -0.3443 -0.3360 -0.7987
18538SOL     OW67672   1.968   0.158   9.475 -0.4914  0.3588  0.0136
18538SOL    HW167673   1.955   0.197   9.384  0.5557 -1.6852 -1.0419
18538SOL    HW267674   2.061   0.175   9.506  0.1862 -1.8452 -0.7484
18539SOL     OW67675   9.277   7.523   9.175 -0.0455  0.2259 -0.0650
18539SOL    HW167676   9.341   7.591   9.139  0.3335  0.4815  1.0843
18539SOL    HW267677   9.312   7.486   9.261 -0.4613 -1.1056 -0.4473
18540SOL     OW67678   3.783   6.295   2.455 -0.0076  0.5531 -0.0311
18540SOL    HW167679   3.854   6.365   2.460  3.3443 -2.5560 -1.5323
18540SOL    HW267680   3.793   6.232   2.532  0.0119 -0.9570 -1.2599
18541SOL     OW67681   1.753   5.089   3.569 -0.0476 -0.2819  0.1597
18541SOL    HW167682   1.767   5.180   3.606  0.8556 -0.3382 -0.0226
18541SOL    HW267683   1.788   5.085   3.475 -3.9571  0.3693 -1.3849
18542SOL     OW67684   2.198   3.743   8.188 -0.2204 -0.3174  0.1156
18542SOL    HW167685   2.288   3.742   8.232  0.0953 -0.8817 -0.5378
18542SOL    HW267686   2.161   3.651   8.185 -0.8165 -0.0901  0.3592
18543SOL     OW67687   3.205   1.737   3.768  0.6004 -0.1772 -0.1905
18543SOL    HW167688   3.283   1.800   3.772  0.9644 -0.6789  0.8925
18543SOL    HW267689   3.201   1.694   3.678  1.4284  0.0413 -0.3342
18544SOL     OW67690   6.259   9.759   7.289 -0.4014  0.0433  0.3242
18544SOL    HW167691   6.226   9.794   7.202 -2.4304  1.2562  1.5547
18544SOL    HW267692   6.359   9.757   7.288 -0.3443  2.2363 -1.1921
18545SOL     OW67693   0.863   0.627   9.167  0.1124  0.4607 -0.0896
18545SOL    HW167694   0.877   0.560   9.093  0.3850  1.0924 -0.6174
18545SOL    HW267695   0.838   0.715   9.127 -0.0299  0.7298  0.5956
18546SOL     OW67696   3.505   8.135   8.884  0.2701  0.1364 -0.0467
18546SOL    HW167697   3.542   8.166   8.971  3.8408 -0.2662 -1.3499
18546SOL    HW267698   3.520   8.206   8.814 -1.3437 -0.0934 -0.6439
18547SOL     OW67699   5.165   7.878   1.376 -0.3109 -0.4962  0.1760
18547SOL    HW167700   5.177   7.812   1.450 -1.2143 -0.2767  0.5362
18547SOL    HW267701   5.087   7.851   1.319  0.8771 -1.0967 -1.1810
18548SOL     OW67702   3.158   7.027   3.811 -0.3298  0.6463  0.3662
18548SOL    HW167703   3.151   7.103   3.875 -0.6503  1.4463 -0.6101
18548SOL    HW267704   3.134   6.942   3.858  0.2212  1.1171  1.5092
18549SOL     OW67705   3.415   3.022   9.948 -0.1870 -0.3357  0.1538
18549SOL    HW167706   3.378   3.092   9.887 -1.7623 -0.9956  0.3334
18549SOL    HW267707   3.355   3.012  10.028  0.0417 -1.8764  0.1365
18550SOL     OW67708   3.339   5.489   6.972 -0.7948 -0.6676 -0.1592
18550SOL    HW167709   3.415   5.531   7.021 -1.3210 -1.7395  1.6141
18550SOL    HW267710   3.299   5.556   6.908  0.5833  0.4001  0.0769
18551SOL     OW67711   3.085   1.883   6.563 -1.1461 -0.9121 -0.0987
18551SOL    HW167712   3.080   1.797   6.513 -1.0993 -0.2738 -1.2310
18551SOL    HW267713   3.019   1.948   6.525 -0.2397  0.0018 -0.1484
18552SOL     OW67714   0.015   9.575   5.607 -0.1610  0.2787 -0.0921
18552SOL    HW167715   0.101   9.532   5.583 -0.1042 -0.6507  1.7765
18552SOL    HW267716  -0.057   9.542   5.546  0.2837 -0.9266  0.0353
18553SOL     OW67717   8.525   8.214   6.032  1.0471 -0.4960 -0.6722
18553SOL    HW167718   8.557   8.245   5.943 -1.6054  0.3887 -1.3658
18553SOL    HW267719   8.484   8.124   6.024 -2.2223  0.9620 -1.0622
18554SOL     OW67720   3.125   4.804   6.283  0.5642  0.3192  0.2413
18554SOL    HW167721   3.040   4.774   6.240  0.8408  1.4319 -1.1155
18554SOL    HW267722   3.105   4.875   6.351  0.4278  0.7676 -0.2631
18555SOL     OW67723   3.019   7.547   1.447 -0.7110 -0.1332  0.1827
18555SOL    HW167724   2.997   7.497   1.364 -1.3725 -0.4880  0.5629
18555SOL    HW267725   3.018   7.484   1.525 -0.0229  0.1792  0.4494
18556SOL     OW67726   4.122   2.189  10.031 -0.5337  0.1998 -0.7481
18556SOL    HW167727   4.037   2.228   9.994  0.6602  2.2871 -1.3453
18556SOL    HW267728   4.196   2.201   9.965  0.5865 -0.1984  0.4163
18557SOL     OW67729   6.992   9.481   3.484  1.1256  0.2959  0.6139
18557SOL    HW167730   6.937   9.564   3.494 -0.4245 -0.6687  0.2909
18557SOL    HW267731   6.973   9.439   3.396  1.5802 -0.6216  0.9482
18558SOL     OW67732   2.203   1.090   9.160  0.0857 -0.0457  0.7015
18558SOL    HW167733   2.240   1.028   9.230  2.6406 -0.4119 -0.8857
18558SOL    HW267734   2.234   1.183   9.179 -0.1787  0.0385  0.7124
18559SOL     OW67735   0.951   0.386   6.850  0.2197  0.0023 -0.0131
18559SOL    HW167736   0.869   0.441   6.866  0.2209  0.2810 -0.9533
18559SOL    HW267737   0.935   0.293   6.883 -0.9919 -0.3192 -1.4293
18560SOL     OW67738   2.178   0.188   0.848 -0.0797  0.3230 -0.3264
18560SOL    HW167739   2.121   0.230   0.777  0.1930  1.0569 -0.1100
18560SOL    HW267740   2.260   0.149   0.807  0.9428  2.2967 -0.1964
18561SOL     OW67741   3.020   9.430   2.137 -0.1647  0.4215  0.0992
18561SOL    HW167742   3.040   9.332   2.134  1.2499  0.7441 -2.0461
18561SOL    HW267743   3.056   9.468   2.223  1.0195 -0.5824  0.0593
18562SOL     OW67744   1.073   5.250   2.678 -0.1925  0.0855  0.2117
18562SOL    HW167745   1.148   5.230   2.740  0.1684  0.2072 -0.1818
18562SOL    HW267746   1.110   5.274   2.588 -0.6748  0.8924  0.2253
18563SOL     OW67747   6.657   1.305   8.431 -0.0888  0.0619 -0.0582
18563SOL    HW167748   6.638   1.207   8.439 -0.1959 -0.0219 -1.2236
18563SOL    HW267749   6.724   1.332   8.500 -1.5801 -0.4157  1.6125
18564SOL     OW67750   0.602   2.880   8.346  0.3541  0.9810  0.2521
18564SOL    HW167751   0.645   2.893   8.436  1.8388  1.0860 -0.4574
18564SOL    HW267752   0.555   2.792   8.344  0.6511  0.8029  1.0109
18565SOL     OW67753   7.436   5.940   9.662  0.2232  0.3042  0.1648
18565SOL    HW167754   7.484   5.949   9.749 -0.2681 -1.4980  0.6261
18565SOL    HW267755   7.349   5.894   9.676 -0.1688  0.6192 -1.1826
18566SOL     OW67756   8.699   2.165   2.315  0.4606  0.3710  0.0401
18566SOL    HW167757   8.774   2.116   2.360  0.1547  0.7295  0.9436
18566SOL    HW267758   8.730   2.199   2.226  1.1631 -0.0604  0.1176
18567SOL     OW67759   8.962   6.795   6.580  0.2881 -0.0960  0.0392
18567SOL    HW167760   8.933   6.797   6.485 -2.1322 -0.5030  0.7424
18567SOL    HW267761   8.959   6.700   6.613  0.7487  0.0954  0.6384
18568SOL     OW67762   4.354   4.086   9.684  0.3097 -0.2910 -0.0466
18568SOL    HW167763   4.385   3.998   9.720 -0.5985 -0.8197 -0.5399
18568SOL    HW267764   4.376   4.159   9.749  1.1475 -0.8651  0.3200
18569SOL     OW67765   0.613   4.493   8.327 -0.3683 -0.0213 -0.3065
18569SOL    HW167766   0.546   4.423   8.304  0.3885 -1.3678  1.4809
18569SOL    HW267767   0.700   4.472   8.282  0.0923 -0.7110  0.8746
18570SOL     OW67768   3.808   9.678   2.315  0.4417  0.4210  0.0609
18570SOL    HW167769   3.725   9.623   2.318 -0.6155  2.0529  1.2457
18570SOL    HW267770   3.819   9.728   2.401  1.7743  1.4828 -0.6938
18571SOL     OW67771   0.837   1.709   4.760 -0.1292  0.3029  0.1647
18571SOL    HW167772   0.931   1.699   4.794  0.0063 -1.0611 -0.6002
18571SOL    HW267773   0.829   1.794   4.709  0.5538  0.6741  0.6590
18572SOL     OW67774   7.564   2.429   5.113 -0.0032  0.4156  0.3793
18572SOL    HW167775   7.532   2.339   5.082  0.1647  0.2149  0.7867
18572SOL    HW267776   7.585   2.425   5.211 -1.8696  1.4357  0.8355
18573SOL     OW67777   9.326   9.789   1.405 -0.3257 -0.1202  0.3045
18573SOL    HW167778   9.261   9.719   1.435 -0.1032 -0.1264  0.7682
18573SOL    HW267779   9.416   9.749   1.394 -0.6888 -0.4398 -1.7412
18574SOL     OW67780   5.184   3.161   8.134  0.0312  0.2646  0.4820
18574SOL    HW167781   5.171   3.245   8.187 -0.1808 -0.1212  1.0411
18574SOL    HW267782   5.263   3.172   8.075 -0.0552  0.9013  0.4717
18575SOL     OW67783   0.942   4.559   0.592 -0.0083  0.2514  0.0102
18575SOL    HW167784   0.959   4.611   0.676  0.6153 -1.1425  0.7628
18575SOL    HW267785   0.844   4.556   0.574 -0.2593 -0.5964  1.4480
18576SOL     OW67786   3.332   8.152   1.904  0.1656  0.2065 -0.0426
18576SOL    HW167787   3.254   8.129   1.845  2.3180 -0.5487 -2.7544
18576SOL    HW267788   3.377   8.234   1.869  1.2538 -0.0160  0.8222
18577SOL     OW67789   7.615   2.615   3.497  0.1400  0.2610  0.3453
18577SOL    HW167790   7.518   2.595   3.482  0.5579 -1.5195 -0.1184
18577SOL    HW267791   7.671   2.554   3.441  1.5362  1.4370  0.4237
18578SOL     OW67792   3.569   1.971   1.502  0.2883 -0.7363 -0.0700
18578SOL    HW167793   3.581   2.026   1.584 -2.3025 -0.0897 -0.0638
18578SOL    HW267794   3.616   2.015   1.425 -0.1409  0.4656  0.3469
18579SOL     OW67795   7.499   0.281   2.960  0.2406  0.8710  0.5752
18579SOL    HW167796   7.521   0.259   2.865 -1.0949 -0.8177  0.6451
18579SOL    HW267797   7.516   0.201   3.017 -0.0748  1.5176  1.5815
18580SOL     OW67798   0.616   1.010   1.249 -0.3723 -0.2161 -0.0855
18580SOL    HW167799   0.549   0.949   1.205 -1.7033  0.3250  1.1712
18580SOL    HW267800   0.654   1.072   1.180  1.2958 -2.6873 -1.4824
18581SOL     OW67801   9.307   1.261   4.677 -0.0699 -0.0409 -0.4905
18581SOL    HW167802   9.323   1.357   4.653  0.9611 -0.0208  0.2453
18581SOL    HW267803   9.362   1.203   4.617  1.7762 -0.0296  1.1621
18582SOL     OW67804   7.946   0.139   2.399 -0.0331  0.4023 -0.4822
18582SOL    HW167805   7.948   0.146   2.299  0.4157  1.6143 -0.4022
18582SOL    HW267806   7.945   0.043   2.426  1.8526  0.0366 -1.6225
18583SOL     OW67807   0.440   8.132   7.224 -0.0089 -0.1524  0.2577
18583SOL    HW167808   0.418   8.059   7.289 -0.7179 -0.2650 -0.1095
18583SOL    HW267809   0.523   8.179   7.254 -0.2862 -0.2562  1.2038
18584SOL     OW67810   2.107   8.901   8.332  0.4502 -0.3555 -0.2241
18584SOL    HW167811   2.033   8.872   8.392  0.2529  2.0591  0.7615
18584SOL    HW267812   2.188   8.843   8.348 -0.1478 -0.8402  1.1267
18585SOL     OW67813   1.833   3.581   8.378 -0.3180 -0.6510  0.2144
18585SOL    HW167814   1.869   3.668   8.412 -0.4157  0.0048 -1.3545
18585SOL    HW267815   1.891   3.546   8.305 -0.4477 -1.7634  0.6317
18586SOL     OW67816   7.295   5.845   8.621 -0.0669 -0.1089  0.1299
18586SOL    HW167817   7.228   5.882   8.685 -1.8474 -0.7171 -1.3415
18586SOL    HW267818   7.272   5.874   8.528  2.1252  0.2523 -0.3401
18587SOL     OW67819   5.844   1.291   5.563 -0.0510  0.5046  0.2382
18587SOL    HW167820   5.902   1.234   5.620  0.4700  2.2097  1.4663
18587SOL    HW267821   5.748   1.265   5.575  0.1980 -0.2193  0.6394
18588SOL     OW67822   6.697   3.127   0.748  0.2132 -0.1006  0.2721
18588SOL    HW167823   6.733   3.203   0.693 -0.7176  0.1366 -0.0111
18588SOL    HW267824   6.697   3.152   0.844 -0.1700  0.2867  0.1697
18589SOL     OW67825   1.343   1.411   3.119 -0.1486  0.6906  0.0161
18589SOL    HW167826   1.426   1.467   3.116 -0.8212  1.7943  1.5052
18589SOL    HW267827   1.293   1.422   3.034  1.4029 -0.2809 -1.0572
18590SOL     OW67828   8.675   1.574   5.551  0.0016  0.0559 -0.3008
18590SOL    HW167829   8.681   1.658   5.606 -0.6028  0.9201 -1.5152
18590SOL    HW267830   8.655   1.496   5.610  2.6158  0.4209  1.1141
18591SOL     OW67831   1.274   8.761   5.175  0.0878 -0.3778 -0.3198
18591SOL    HW167832   1.185   8.716   5.183  0.3488 -0.9293 -0.4805
18591SOL    HW267833   1.264   8.859   5.193 -0.5131 -0.4744 -0.1246
18592SOL     OW67834   3.663   6.043   5.579  0.0409  0.2826  0.3334
18592SOL    HW167835   3.701   6.034   5.671  1.2677 -1.3818 -0.3187
18592SOL    HW267836   3.682   6.135   5.545  1.1028  0.3411  1.0603
18593SOL     OW67837   4.657   5.624   2.506  0.1109 -0.1935  0.0750
18593SOL    HW167838   4.751   5.609   2.474 -0.8947  0.1290 -3.3042
18593SOL    HW267839   4.603   5.541   2.492 -0.1253 -0.3904  2.0407
18594SOL     OW67840   4.417   5.849   1.097 -0.5900  0.0153  0.8457
18594SOL    HW167841   4.356   5.778   1.061  0.6641 -0.6196 -0.0687
18594SOL    HW267842   4.466   5.892   1.021  0.7614 -0.0820  1.6541
18595SOL     OW67843   1.870   1.112   2.626  0.0617  0.1554 -0.1278
18595SOL    HW167844   1.950   1.160   2.660  0.2380 -0.0990 -0.1823
18595SOL    HW267845   1.787   1.155   2.663  0.2298  0.2946  0.0869
18596SOL     OW67846   3.715   0.088   3.219 -0.1294  0.3148  0.8030
18596SOL    HW167847   3.792   0.037   3.182 -0.6409 -0.2141  0.4513
18596SOL    HW267848   3.688   0.050   3.307 -0.7208 -0.2394  0.3873
18597SOL     OW67849   4.053   0.550   6.441  0.5923 -0.0958  0.4927
18597SOL    HW167850   3.973   0.582   6.492 -0.1884  0.0145 -0.7864
18597SOL    HW267851   4.131   0.609   6.460 -0.0943  0.8605  0.3589
18598SOL     OW67852   4.203   5.163   2.844  0.5174  0.0898  0.0186
18598SOL    HW167853   4.109   5.168   2.811  0.4157  0.4150  0.3487
18598SOL    HW267854   4.207   5.193   2.940  1.3057  2.3722 -0.6965
18599SOL     OW67855   7.499   6.782   3.019  0.6997  0.3125  0.3915
18599SOL    HW167856   7.503   6.682   3.015  2.4174  0.3991 -0.6950
18599SOL    HW267857   7.410   6.811   3.055 -0.6013 -1.5470 -1.2306
18600SOL     OW67858   3.434   9.469   1.286  0.4010  0.2521 -0.2035
18600SOL    HW167859   3.462   9.562   1.263 -0.7758  0.4746 -0.7575
18600SOL    HW267860   3.494   9.433   1.357  0.1974  1.8199  0.7836
18601SOL     OW67861   0.126   4.635   2.741  0.5192 -0.3008  0.3158
18601SOL    HW167862   0.135   4.576   2.661  0.0792 -0.9486  0.7368
18601SOL    HW267863   0.143   4.730   2.715 -1.6395 -0.2315 -0.9893
18602SOL     OW67864   8.394   6.653   9.318  0.1133  0.2550  0.5395
18602SOL    HW167865   8.467   6.709   9.357  0.8203 -0.6533  0.5698
18602SOL    HW267866   8.381   6.571   9.374  1.5358 -1.3417 -1.3783
18603SOL     OW67867   9.100   8.891   5.384  0.1294 -0.3481 -0.2910
18603SOL    HW167868   9.190   8.851   5.367  0.2805 -0.0251 -0.2526
18603SOL    HW267869   9.032   8.845   5.327  0.4165 -0.1789 -0.7743
18604SOL     OW67870   8.668   3.741   9.662 -0.5867 -0.0049 -0.0131
18604SOL    HW167871   8.717   3.797   9.728 -0.3282  0.4735 -0.6086
18604SOL    HW267872   8.693   3.645   9.674 -1.2135 -0.0325  1.1665
18605SOL     OW67873   6.933   7.412   6.275  0.3352  0.1093  0.2258
18605SOL    HW167874   7.000   7.465   6.224 -0.7397  0.2654 -1.0445
18605SOL    HW267875   6.935   7.317   6.243  0.0977  0.0644  0.3454
18606SOL     OW67876   8.850   9.584   2.917 -0.7671 -0.1545 -0.4631
18606SOL    HW167877   8.773   9.526   2.945 -0.7426  1.3102  2.9489
18606SOL    HW267878   8.922   9.579   2.987  0.0423  2.5078 -1.0679
18607SOL     OW67879   8.774   1.082   4.161 -0.1747  0.1511 -0.5125
18607SOL    HW167880   8.770   1.074   4.261 -0.3632  1.9895 -0.3519
18607SOL    HW267881   8.717   1.159   4.132  2.5375  1.7987 -1.7168
18608SOL     OW67882   9.307   7.699   5.857 -0.0994  0.0735  0.6791
18608SOL    HW167883   9.404   7.708   5.837  0.6282 -1.0979  3.4926
18608SOL    HW267884   9.257   7.683   5.772  2.1325  0.7394 -0.8084
18609SOL     OW67885   1.743   5.185   7.615  0.3648  1.2038 -0.9267
18609SOL    HW167886   1.734   5.197   7.714 -1.5716 -1.9681 -0.6354
18609SOL    HW267887   1.839   5.167   7.593  0.7332  1.4141  0.4242
18610SOL     OW67888   6.335   9.850   4.275  0.0065  0.5547  0.1742
18610SOL    HW167889   6.363   9.829   4.368  1.2166  0.3991 -0.2174
18610SOL    HW267890   6.250   9.802   4.254 -0.1031  0.3445  1.0843
18611SOL     OW67891   7.682   5.486   1.519 -0.1127  0.0260 -0.5382
18611SOL    HW167892   7.761   5.532   1.561 -1.5778  1.4825  0.6907
18611SOL    HW267893   7.662   5.402   1.569  1.1684 -0.7898 -1.3741
18612SOL     OW67894   4.036   4.870   8.974 -0.0449 -0.3968 -0.3464
18612SOL    HW167895   4.062   4.957   8.930  0.0253  0.8566  2.1098
18612SOL    HW267896   4.077   4.794   8.924  0.8950  1.0562 -1.8253
18613SOL     OW67897   6.776   8.552   3.545 -0.4964 -0.3049  0.5370
18613SOL    HW167898   6.745   8.514   3.458 -1.1941 -1.9837  1.4958
18613SOL    HW267899   6.815   8.643   3.530 -0.1542 -0.7825 -1.5949
18614SOL     OW67900   8.362   4.657   9.121 -0.0731 -0.0313 -0.4261
18614SOL    HW167901   8.299   4.601   9.068 -1.2914 -0.1991  1.1728
18614SOL    HW267902   8.425   4.597   9.171  0.3329  0.0953 -0.7875
18615SOL     OW67903   9.623   2.417   5.770  0.0633 -0.1224  0.1739
18615SOL    HW167904   9.595   2.342   5.711  0.4127 -0.0491 -0.0901
18615SOL    HW267905   9.643   2.382   5.862  0.5944 -0.4205 -0.0486
18616SOL     OW67906   5.929   0.501   2.976  0.1221  0.0772  0.5136
18616SOL    HW167907   5.905   0.453   2.892  1.4814  0.3530 -0.0453
18616SOL    HW267908   5.855   0.492   3.042 -1.5443  0.9823 -1.2003
18617SOL     OW67909   8.449   0.563   7.026  0.4730  0.5196  0.6885
18617SOL    HW167910   8.437   0.495   6.953  1.1808  0.2639  0.8085
18617SOL    HW267911   8.373   0.628   7.023  1.2572  1.4060 -1.2441
18618SOL     OW67912   4.268   1.028   9.945 -0.2395  0.2942 -0.5137
18618SOL    HW167913   4.287   1.071  10.033  0.4127 -0.5374 -0.2351
18618SOL    HW267914   4.263   1.098   9.874 -0.9760  0.9874  0.2159
18619SOL     OW67915   4.154   6.387   0.717  0.2791  0.8074 -0.2421
18619SOL    HW167916   4.167   6.485   0.700  0.8765  0.4813 -1.7307
18619SOL    HW267917   4.231   6.352   0.772  1.2169  0.7113 -1.6082
18620SOL     OW67918   8.712   9.355   2.966  0.1587 -0.3102 -0.3005
18620SOL    HW167919   8.651   9.357   3.045  1.5384 -0.7665  0.7783
18620SOL    HW267920   8.662   9.319   2.887 -1.6499  1.4664 -0.0234
18621SOL     OW67921   8.463   1.361   0.148 -0.1623  0.4764  0.7166
18621SOL    HW167922   8.381   1.370   0.092  1.6017  1.9629 -1.7386
18621SOL    HW267923   8.467   1.269   0.187 -1.3124 -0.7184 -1.8882
18622SOL     OW67924   0.498   8.640   7.026 -0.6121  0.1593 -0.0687
18622SOL    HW167925   0.555   8.716   7.058 -2.1269  1.0844  0.4732
18622SOL    HW267926   0.494   8.642   6.926 -2.6477  2.3464 -0.0039
18623SOL     OW67927   2.117   6.097   5.341  0.4993 -0.3794  0.0092
18623SOL    HW167928   2.085   6.185   5.376 -0.3427 -0.2472 -1.0719
18623SOL    HW267929   2.069   6.023   5.388 -0.9957 -0.1933 -1.2106
18624SOL     OW67930   2.088   3.980   2.201 -0.3260  0.1249 -0.0972
18624SOL    HW167931   2.107   3.908   2.135 -0.0785  0.4111 -0.3412
18624SOL    HW267932   1.989   3.988   2.215 -0.4230  0.5970 -1.0377
18625SOL     OW67933   3.181   2.401   4.151 -0.5447 -0.4190  0.0959
18625SOL    HW167934   3.212   2.321   4.202 -0.3511 -0.5818 -0.2752
18625SOL    HW267935   3.150   2.472   4.215 -1.4160 -1.0688  0.4121
18626SOL     OW67936   6.870   1.374   6.556 -0.3082  0.2128 -0.1944
18626SOL    HW167937   6.791   1.322   6.523 -1.5176  0.4547  2.1920
18626SOL    HW267938   6.932   1.314   6.606  0.1265  0.3607 -0.5535
18627SOL     OW67939   0.635   7.869   9.016 -0.8087  0.4146 -0.1515
18627SOL    HW167940   0.711   7.935   9.020  0.5978 -1.2286  1.1967
18627SOL    HW267941   0.566   7.895   9.083  0.3473 -0.1510  1.3029
18628SOL     OW67942   4.558   5.573   8.465  0.4580  0.1328 -0.0383
18628SOL    HW167943   4.575   5.669   8.447  3.0383 -0.3195 -0.1789
18628SOL    HW267944   4.596   5.548   8.554 -1.0303 -0.5489  0.4255
18629SOL     OW67945   3.431   1.898   7.210  0.1005 -0.7375 -0.0182
18629SOL    HW167946   3.419   1.806   7.247  2.1568 -1.8341 -2.0231
18629SOL    HW267947   3.401   1.900   7.115 -0.5319  0.8485  0.1931
18630SOL     OW67948   4.328   0.871   8.853  0.0998  0.2088  0.5575
18630SOL    HW167949   4.328   0.945   8.786 -1.2140 -0.2008  0.0855
18630SOL    HW267950   4.418   0.866   8.897  0.2168  2.0331  0.5671
18631SOL     OW67951   1.804   4.080   5.611 -0.1845 -0.2428  0.1354
18631SOL    HW167952   1.721   4.029   5.588  0.4138 -1.2195  0.0858
18631SOL    HW267953   1.803   4.169   5.566 -0.3540 -0.9932 -1.3721
18632SOL     OW67954   3.634   1.904   8.129  0.7096  0.0327  0.3170
18632SOL    HW167955   3.706   1.845   8.165 -0.8843 -0.8164  2.2147
18632SOL    HW267956   3.579   1.939   8.204 -1.6439 -0.3482 -1.1623
18633SOL     OW67957   1.557   5.877   5.007  0.0537  0.1395 -0.5190
18633SOL    HW167958   1.602   5.806   5.060 -0.6252  0.0884  0.0046
18633SOL    HW267959   1.607   5.963   5.016  2.3023 -0.8181 -3.1589
18634SOL     OW67960   4.703   9.879   2.943 -0.1776  0.2399 -0.0663
18634SOL    HW167961   4.636   9.933   2.992 -1.0255 -2.2712  1.6701
18634SOL    HW267962   4.681   9.878   2.846 -2.2205  0.0974  0.3719
18635SOL     OW67963   2.538   4.831   9.793 -0.1121 -0.1316  0.3008
18635SOL    HW167964   2.596   4.766   9.842  0.2099 -0.1105 -0.0509
18635SOL    HW267965   2.580   4.854   9.705  0.1629  1.1670  0.7674
18636SOL     OW67966   9.601   3.512   0.829 -0.7815 -0.6694  0.6728
18636SOL    HW167967   9.557   3.595   0.865  0.4275 -0.1033  0.8853
18636SOL    HW267968   9.631   3.529   0.735  0.6033 -0.4103  1.1401
18637SOL     OW67969   1.638   3.642   0.338  0.7634  0.0275  0.4738
18637SOL    HW167970   1.556   3.659   0.393 -0.9939  0.0524 -2.1152
18637SOL    HW267971   1.719   3.660   0.394 -0.9733  0.2338  2.9987
18638SOL     OW67972   4.834   8.472   2.041  0.1164 -0.0495  0.2814
18638SOL    HW167973   4.812   8.568   2.025  1.2803  0.3554  1.0620
18638SOL    HW267974   4.756   8.415   2.016 -1.9472  1.3598  3.2175
18639SOL     OW67975   5.635   0.887   4.998 -0.1458 -0.1698  0.4866
18639SOL    HW167976   5.588   0.955   4.942 -1.2983 -1.5254 -0.2306
18639SOL    HW267977   5.613   0.902   5.094  0.0643  0.8061  0.3863
18640SOL     OW67978   2.012   0.739   7.688 -0.2018  0.3515  0.3421
18640SOL    HW167979   1.968   0.657   7.649 -2.1425  0.9430  1.2311
18640SOL    HW267980   1.955   0.819   7.669  1.2003  1.3552  0.3286
18641SOL     OW67981   9.528   8.463   4.509 -0.4733  0.2774 -0.3023
18641SOL    HW167982   9.432   8.442   4.489 -0.6397  1.3664 -0.6838
18641SOL    HW267983   9.583   8.450   4.426 -0.0802 -1.5524  0.2367
18642SOL     OW67984   6.910   1.355   2.978  0.3846  0.1795  0.3543
18642SOL    HW167985   6.960   1.439   3.002 -1.6786  1.6806 -0.4639
18642SOL    HW267986   6.921   1.337   2.881 -0.3987  0.3467  0.2306
18643SOL     OW67987   2.785   8.132   1.926 -0.0205  0.0159  0.2918
18643SOL    HW167988   2.716   8.132   1.999  0.6714 -1.4019  0.9592
18643SOL    HW267989   2.857   8.197   1.950  0.0398 -0.2031  0.7187
18644SOL     OW67990   9.242   2.476   3.730 -0.3495 -0.0515  0.4117
18644SOL    HW167991   9.145   2.498   3.727 -0.2396  0.2640 -0.7251
18644SOL    HW267992   9.283   2.517   3.812 -0.8115  1.2338  0.0044
18645SOL     OW67993   3.556   1.653   8.532 -0.2678 -0.0732 -0.8462
18645SOL    HW167994   3.478   1.710   8.557  0.0571  0.5739 -1.2806
18645SOL    HW267995   3.634   1.712   8.511  0.7349 -0.7300  0.9008
18646SOL     OW67996   6.055   9.556   5.270 -0.4001 -0.1117  0.0390
18646SOL    HW167997   6.097   9.627   5.327  0.3357  0.1289 -0.7884
18646SOL    HW267998   6.127   9.501   5.228 -0.9552 -0.7076 -0.1259
18647SOL     OW67999   4.102   8.233   3.043 -0.5431 -0.3832  0.6917
18647SOL    HW168000   4.170   8.162   3.063  0.9507  1.2905  1.7749
18647SOL    HW268001   4.137   8.292   2.970 -0.5853  0.7947  1.6128
18648SOL     OW68002   0.103   0.613   7.694 -0.2749  0.3318 -0.0228
18648SOL    HW168003   0.078   0.525   7.652 -1.2180  0.4698  0.2378
18648SOL    HW268004   0.083   0.687   7.630 -0.4314  0.4387  0.1508
18649SOL     OW68005   2.839   4.688   7.037 -0.1580 -0.2352 -0.1055
18649SOL    HW168006   2.802   4.694   7.130 -1.1706 -0.8282 -0.4576
18649SOL    HW268007   2.868   4.594   7.018  0.4149 -0.0299 -0.2493
18650SOL     OW68008   5.141   2.431   0.622  0.5012  0.2822  0.4525
18650SOL    HW168009   5.176   2.398   0.709  0.0675 -0.6525  0.2823
18650SOL    HW268010   5.067   2.371   0.591  0.6036  0.6471 -0.5163
18651SOL     OW68011   8.905   8.594   1.789  0.6106  0.5427 -0.0060
18651SOL    HW168012   8.895   8.691   1.809  1.1332  1.1266 -2.4227
18651SOL    HW268013   8.984   8.580   1.728 -0.4174 -1.1908 -0.9911
18652SOL     OW68014   8.147   2.998   1.724 -0.0050 -0.1784 -0.5001
18652SOL    HW168015   8.125   3.009   1.627 -1.2213  1.0721 -0.1109
18652SOL    HW268016   8.113   2.910   1.756 -5.2804  1.9377  0.2217
18653SOL     OW68017   1.608   2.929   6.867  0.5071  0.4187 -0.2122
18653SOL    HW168018   1.702   2.960   6.883  0.5757 -0.6278  1.5271
18653SOL    HW268019   1.547   2.970   6.935  0.0749 -0.6405  0.0578
18654SOL     OW68020   6.647   5.669   0.763 -0.6027 -0.1319 -0.2348
18654SOL    HW168021   6.604   5.579   0.763  0.2724 -0.5611 -1.5208
18654SOL    HW268022   6.744   5.660   0.786 -0.7981  0.6445  0.9630
18655SOL     OW68023   7.446   4.779   1.852 -0.4108  0.4382  0.1832
18655SOL    HW168024   7.350   4.770   1.876 -0.3803 -2.3511 -0.5768
18655SOL    HW268025   7.503   4.737   1.923  0.0086 -1.6671 -1.3468
18656SOL     OW68026   2.448   4.148   8.074 -0.0967  0.4623  0.1327
18656SOL    HW168027   2.384   4.180   8.144 -0.3913 -1.2098  0.6732
18656SOL    HW268028   2.410   4.066   8.030  0.4534  1.0366 -1.4268
18657SOL     OW68029   9.654   1.746   7.990  0.3074  0.0229  0.4175
18657SOL    HW168030   9.636   1.768   8.086  2.1754  1.2150  0.5192
18657SOL    HW268031   9.720   1.671   7.985  0.7167  0.4040  0.0740
18658SOL     OW68032   8.428   5.764   5.375 -0.3790 -0.1151 -0.3516
18658SOL    HW168033   8.503   5.751   5.440  0.1543  0.8375 -0.7708
18658SOL    HW268034   8.375   5.845   5.400  0.4084  0.8146 -1.6431
18659SOL     OW68035   3.818   0.163   1.371  0.3326  0.7546 -0.0178
18659SOL    HW168036   3.721   0.154   1.347  0.6436 -0.0407 -1.0219
18659SOL    HW268037   3.874   0.146   1.290  1.3591 -0.0916  0.8486
18660SOL     OW68038   1.907   5.905   6.735 -0.6674  0.0235 -0.3719
18660SOL    HW168039   1.927   5.991   6.782  2.2601 -0.6608 -0.2857
18660SOL    HW268040   1.882   5.835   6.803  0.4159 -0.1203 -0.1174
18661SOL     OW68041   3.292   6.484   3.826  0.1245 -0.2711 -0.0939
18661SOL    HW168042   3.288   6.384   3.824 -1.1476 -0.2391  0.2250
18661SOL    HW268043   3.232   6.522   3.756  0.2974  0.2711  0.0451
18662SOL     OW68044   2.047   1.761   3.724  0.1862 -0.4247 -0.1363
18662SOL    HW168045   2.030   1.857   3.748  2.0990  0.6334 -2.6800
18662SOL    HW268046   2.001   1.740   3.637  1.2595 -1.2378 -0.5241
18663SOL     OW68047   1.076   0.444   5.596  0.1146  0.0372  0.5291
18663SOL    HW168048   1.134   0.526   5.596  1.3307 -0.8158 -0.0854
18663SOL    HW268049   1.043   0.427   5.689  2.6312 -0.6876  1.3278
18664SOL     OW68050   9.055   6.355   4.982 -0.6693  0.2725  0.2137
18664SOL    HW168051   9.148   6.365   4.947 -0.0786  1.1944  1.9903
18664SOL    HW268052   8.998   6.428   4.944 -0.3838  0.4282  0.0769
18665SOL     OW68053   2.870   6.960   5.665  0.4796 -0.4490 -0.1036
18665SOL    HW168054   2.920   7.022   5.604  1.1744 -0.4371  0.4665
18665SOL    HW268055   2.886   6.987   5.760 -1.3656  0.1212  0.0728
18666SOL     OW68056   7.771   9.759   1.049 -0.2793  0.2195  0.4925
18666SOL    HW168057   7.777   9.735   0.952 -2.5067 -0.3456  0.4551
18666SOL    HW268058   7.747   9.856   1.057  1.2718  0.6117  0.5177
18667SOL     OW68059   1.519   0.169   7.209  0.4984  0.4247  0.3654
18667SOL    HW168060   1.618   0.173   7.196  0.5100  1.1928  0.6573
18667SOL    HW268061   1.474   0.179   7.120  0.6304  3.2921  0.5778
18668SOL     OW68062   8.649   4.746   9.619  0.0790  0.3844  0.3440
18668SOL    HW168063   8.580   4.736   9.690 -0.0648 -1.0514  0.0194
18668SOL    HW268064   8.698   4.832   9.632 -2.7699  2.1929 -0.3062
18669SOL     OW68065   0.315   8.439   4.070  0.1527  0.3951  0.0563
18669SOL    HW168066   0.293   8.396   3.983 -0.5243  0.7739  0.0294
18669SOL    HW268067   0.238   8.496   4.099  0.2137 -0.0514  1.1044
18670SOL     OW68068   9.552   0.382   9.652 -0.1039  0.7837  0.1437
18670SOL    HW168069   9.530   0.440   9.573 -0.7222 -0.4427 -0.5857
18670SOL    HW268070   9.502   0.415   9.732 -0.6143  1.1392 -0.3187
18671SOL     OW68071   3.428   4.641   5.981 -0.6076  0.2612 -0.6955
18671SOL    HW168072   3.351   4.704   5.982 -1.3352 -0.6193  0.1030
18671SOL    HW268073   3.424   4.583   5.900 -1.2694 -0.3585 -0.2251
18672SOL     OW68074   8.572   0.831   7.378  0.2177  0.6042  0.6783
18672SOL    HW168075   8.552   0.756   7.315 -2.0193  1.4189  0.3715
18672SOL    HW268076   8.628   0.797   7.454  1.7073 -0.7009 -0.9546
18673SOL     OW68077   7.408   2.589   4.261 -0.0788 -0.2158  0.4579
18673SOL    HW168078   7.363   2.534   4.191  1.0894 -0.2442 -0.2813
18673SOL    HW268079   7.434   2.530   4.338 -0.8504 -0.2895  0.6599
18674SOL     OW68080   1.703   7.067   0.352 -0.6567 -0.0034 -0.6905
18674SOL    HW168081   1.771   7.009   0.308 -1.1875 -3.1141  2.3572
18674SOL    HW268082   1.613   7.051   0.311 -0.5232 -0.1128 -0.9406
18675SOL     OW68083   9.548   0.569   2.511  0.4295 -0.3287  0.1872
18675SOL    HW168084   9.527   0.547   2.606  0.6619 -0.1241  0.2875
18675SOL    HW268085   9.644   0.548   2.493  0.4371 -0.1801  0.0520
18676SOL     OW68086   7.354   6.165   3.894  0.4432 -0.7099  0.0572
18676SOL    HW168087   7.395   6.100   3.958  0.0618  0.1372  1.1696
18676SOL    HW268088   7.403   6.252   3.898 -0.6856 -0.0785  0.5073
18677SOL     OW68089   9.890   1.177   7.937 -0.2454 -0.1768 -0.2200
18677SOL    HW168090   9.938   1.139   7.857  1.0531  1.6577 -0.3428
18677SOL    HW268091   9.931   1.140   8.020  0.0360 -0.1762 -0.3567
18678SOL     OW68092   0.800   0.288   4.329 -0.4644  0.1967 -0.6897
18678SOL    HW168093   0.892   0.280   4.366 -0.7258  1.8162  0.3331
18678SOL    HW268094   0.739   0.226   4.378  0.0233 -0.7347 -1.2412
18679SOL     OW68095   4.510   6.482   4.405  0.4421  0.8863 -0.0976
18679SOL    HW168096   4.584   6.426   4.441  1.1720  2.6918  1.2667
18679SOL    HW268097   4.439   6.423   4.368  1.5844 -0.9165  0.5253
18680SOL     OW68098   9.955   0.030   6.445 -0.4761  0.4880 -0.0015
18680SOL    HW168099   9.858   0.057   6.445 -0.4350  0.6231 -1.1714
18680SOL    HW268100   9.964  -0.060   6.404 -0.0329  0.7307 -0.4388
18681SOL     OW68101   2.326   7.572   3.819  0.3376 -0.3330 -0.4287
18681SOL    HW168102   2.403   7.587   3.880  2.0896 -0.1306 -2.6328
18681SOL    HW268103   2.289   7.660   3.788  0.1742 -0.4396 -0.5418
18682SOL     OW68104   8.459   9.260   3.426 -0.1802 -0.4614  0.5015
18682SOL    HW168105   8.429   9.356   3.429 -1.6774 -0.9108  0.1731
18682SOL    HW268106   8.550   9.252   3.468 -0.0922  1.0807  0.6259
18683SOL     OW68107   1.286   9.905   1.786 -0.2038  0.1103 -0.2929
18683SOL    HW168108   1.270  10.004   1.789  0.0215  0.1726 -1.0661
18683SOL    HW268109   1.366   9.883   1.842 -1.1228  0.1784  1.0632
18684SOL     OW68110   0.967   6.736   6.187 -0.0433  0.4257  0.4690
18684SOL    HW168111   0.987   6.719   6.090  2.2488 -0.8707  1.1140
18684SOL    HW268112   0.871   6.716   6.205 -0.0061 -1.3552 -1.1226
18685SOL     OW68113   2.137   8.898   1.577 -0.1579  0.0241  0.2355
18685SOL    HW168114   2.124   8.809   1.622  1.8747  0.0538  0.9239
18685SOL    HW268115   2.056   8.954   1.590 -1.7494 -1.9519 -0.7428
18686SOL     OW68116   3.090   8.665   6.860  0.3344 -0.1210 -0.0276
18686SOL    HW168117   3.019   8.596   6.873  0.0928  0.1055 -0.1514
18686SOL    HW268118   3.150   8.637   6.785 -0.7698  0.6304 -1.2073
18687SOL     OW68119   3.511   3.678   1.889  0.1723  0.2927 -0.3656
18687SOL    HW168120   3.579   3.637   1.950 -0.4125  1.4162  1.1000
18687SOL    HW268121   3.447   3.733   1.944 -0.6914  0.8940 -1.9493
18688SOL     OW68122   0.559   8.453   6.604  0.7494 -0.0812 -0.3568
18688SOL    HW168123   0.614   8.416   6.679 -0.4604  0.0068  0.5848
18688SOL    HW268124   0.534   8.380   6.542 -2.1346 -1.0271  1.8134
18689SOL     OW68125   5.938   0.127   6.491 -0.4547  0.0347 -0.2371
18689SOL    HW168126   5.927   0.029   6.476 -0.1307  0.0730 -0.7465
18689SOL    HW268127   5.860   0.162   6.541 -1.1755 -0.2585 -1.1422
18690SOL     OW68128   1.139   7.695   2.472  0.3785 -0.3590  0.5158
18690SOL    HW168129   1.166   7.782   2.433  0.1167 -1.1398 -1.4392
18690SOL    HW268130   1.045   7.701   2.506 -0.4563 -0.5465 -1.7296
18691SOL     OW68131   4.994   5.510   1.656  0.0207 -0.5223  0.1687
18691SOL    HW168132   4.937   5.580   1.698  1.2420  0.0891  0.8417
18691SOL    HW268133   5.042   5.549   1.577  1.5774 -0.2538  1.2217
18692SOL     OW68134   5.133   9.393   6.265  0.2841  0.5310 -0.3671
18692SOL    HW168135   5.228   9.369   6.285 -0.4834 -0.1565  2.7892
18692SOL    HW268136   5.130   9.479   6.215  2.5422  0.7157 -0.2384
18693SOL     OW68137   1.060   8.453   7.052  0.2219 -0.5365  0.4129
18693SOL    HW168138   1.157   8.443   7.076  0.5297  0.3257 -0.4573
18693SOL    HW268139   1.006   8.463   7.136  1.0095 -0.0039  0.8594
18694SOL     OW68140   6.522   1.503   8.310 -0.3237 -0.1044  0.2149
18694SOL    HW168141   6.584   1.433   8.345 -1.2143 -0.1053  1.8273
18694SOL    HW268142   6.457   1.462   8.247 -0.3481 -0.5896  0.5550
18695SOL     OW68143   9.414   1.760   0.495  0.1063  0.1757  1.0014
18695SOL    HW168144   9.370   1.843   0.459  0.8762 -0.7116 -2.2033
18695SOL    HW268145   9.513   1.770   0.489  0.1917 -1.2594 -0.1451
18696SOL     OW68146   1.776   8.289   8.049 -0.4810  0.2494 -0.4479
18696SOL    HW168147   1.832   8.372   8.050 -1.0503  0.6482 -1.4032
18696SOL    HW268148   1.696   8.301   8.109 -1.2351  0.8637 -1.5695
18697SOL     OW68149   8.842   8.446   8.263 -0.4874 -0.2075 -0.5358
18697SOL    HW168150   8.761   8.439   8.205 -1.0079  0.9463  0.0579
18697SOL    HW268151   8.842   8.533   8.312  0.5219 -0.6916  0.3573
18698SOL     OW68152   8.585   0.505   2.008 -0.2671 -0.2010  0.2128
18698SOL    HW168153   8.551   0.428   1.955  0.2974  0.8324 -1.7120
18698SOL    HW268154   8.509   0.568   2.028  0.0464  1.0081 -2.1912
18699SOL     OW68155   0.348   3.047   7.486 -0.3231  0.2640  0.2257
18699SOL    HW168156   0.371   3.038   7.583 -1.8777  0.0838  0.5852
18699SOL    HW268157   0.255   3.014   7.470 -0.1082  0.3671 -1.3149
18700SOL     OW68158   9.164   7.272   2.058 -0.0758  0.1315  0.1520
18700SOL    HW168159   9.239   7.290   2.121  0.6024  1.1624 -0.9294
18700SOL    HW268160   9.164   7.175   2.033 -0.1398 -0.2165  1.4506
18701SOL     OW68161   9.512   6.309   8.277  0.2324  0.0772 -0.1679
18701SOL    HW168162   9.573   6.232   8.296 -0.4714 -1.2027 -2.9003
18701SOL    HW268163   9.506   6.324   8.178 -2.9542  0.9178  0.1006
18702SOL     OW68164   6.325   5.579   8.784 -0.0271 -0.2482 -0.1995
18702SOL    HW168165   6.244   5.540   8.740 -0.3028  1.7651 -1.5483
18702SOL    HW268166   6.314   5.574   8.884 -2.2511  0.8981 -0.3627
18703SOL     OW68167   0.578   9.439   2.510 -0.5534  0.1260 -0.4179
18703SOL    HW168168   0.500   9.386   2.543  0.0397 -0.3394  0.2509
18703SOL    HW268169   0.662   9.401   2.547  0.0335  0.3186 -1.5384
18704SOL     OW68170   9.719   0.407   1.205 -0.1901  0.2933  0.0543
18704SOL    HW168171   9.802   0.357   1.180 -0.3171  0.4600 -0.6925
18704SOL    HW268172   9.691   0.381   1.298  0.9090  0.5132  0.4513
18705SOL     OW68173   8.688   3.691   7.679  0.1357 -0.0244  0.5079
18705SOL    HW168174   8.713   3.730   7.768 -1.2842  0.3347  0.7615
18705SOL    HW268175   8.719   3.753   7.606 -0.0277  0.4362  0.8222
18706SOL     OW68176   5.086   4.126   6.624  0.3064  0.7445 -0.2578
18706SOL    HW168177   5.047   4.149   6.713  3.3515  0.5449  1.1892
18706SOL    HW268178   5.109   4.029   6.622  0.7730  0.8668 -1.0495
18707SOL     OW68179   0.965   4.151   8.281 -0.1605 -0.3445 -0.3714
18707SOL    HW168180   0.990   4.116   8.371  0.4036 -0.1740 -0.4613
18707SOL    HW268181   0.905   4.085   8.235 -1.4889  0.1393  0.6297
18708SOL     OW68182   2.027   2.545  10.039 -0.1894  0.0994 -0.3512
18708SOL    HW168183   2.010   2.537   9.941 -0.6452  1.4407 -0.3881
18708SOL    HW268184   1.975   2.622  10.076  1.2004  0.5717  0.6495
18709SOL     OW68185   3.917   0.263   3.400 -0.3051  0.4458 -0.0253
18709SOL    HW168186   3.838   0.249   3.341 -1.4624 -0.2934  1.6538
18709SOL    HW268187   3.920   0.359   3.429  0.3225  0.8317 -1.3290
18710SOL     OW68188   4.191   2.842   2.597 -0.2168  0.4128  0.2500
18710SOL    HW168189   4.235   2.854   2.508  0.3255  2.1931  0.7305
18710SOL    HW268190   4.223   2.756   2.638  0.9116  0.4638 -0.4850
18711SOL     OW68191   1.582   7.339   3.271  0.2376 -0.3035  0.0581
18711SOL    HW168192   1.618   7.270   3.209 -1.5684 -0.4435 -0.8366
18711SOL    HW268193   1.627   7.329   3.360  0.2250 -2.4271 -0.1409
18712SOL     OW68194   3.121   9.875   4.613 -0.3384 -1.0763  0.2360
18712SOL    HW168195   3.172   9.899   4.696 -1.1162 -2.4269  1.1191
18712SOL    HW268196   3.131   9.948   4.545 -0.7396  0.6422  1.9940
18713SOL     OW68197   8.931   8.322   3.966 -0.0921 -0.1884  0.0119
18713SOL    HW168198   8.912   8.413   3.928  1.0463  0.2961  0.6042
18713SOL    HW268199   8.847   8.267   3.961 -1.0014  1.1237  0.3171
18714SOL     OW68200   7.966   5.588   3.271 -0.2240  0.5131  0.5089
18714SOL    HW168201   8.058   5.621   3.292 -0.9454  0.2184  4.4737
18714SOL    HW268202   7.940   5.517   3.336 -2.9501  0.0264 -1.0409
18715SOL     OW68203   8.617   9.596   2.357 -0.4713 -0.6328  0.1800
18715SOL    HW168204   8.592   9.692   2.375 -0.4254 -0.6574  0.3695
18715SOL    HW268205   8.683   9.592   2.282 -0.0175 -0.4720  0.5701
18716SOL     OW68206   6.069   3.357   8.583 -0.7383  0.2594 -0.0737
18716SOL    HW168207   6.155   3.370   8.534 -1.3338  2.3895 -0.6120
18716SOL    HW268208   6.052   3.436   8.641 -2.4556 -0.0282 -0.1605
18717SOL     OW68209   9.332   4.091   9.097  0.6498  0.6244 -0.3282
18717SOL    HW168210   9.338   4.028   9.175 -0.1373 -1.2051 -1.7069
18717SOL    HW268211   9.261   4.159   9.115  0.7294  0.4443  0.7095
18718SOL     OW68212   7.072   7.006   7.365 -0.3879  0.6426 -0.2326
18718SOL    HW168213   7.038   7.093   7.401 -1.0747 -0.2306  1.2683
18718SOL    HW268214   6.995   6.944   7.350  0.1751  0.0192 -0.5427
18719SOL     OW68215   3.449   3.377   1.837 -0.0005 -0.6959  0.0731
18719SOL    HW168216   3.475   3.473   1.833 -0.2162 -0.3585  4.2393
18719SOL    HW268217   3.404   3.350   1.752 -0.3661  3.0102 -0.9617
18720SOL     OW68218   4.921   0.771   8.188  0.4254  0.1556  0.7381
18720SOL    HW168219   4.911   0.706   8.263 -1.5464 -0.0795  0.2803
18720SOL    HW268220   4.835   0.778   8.137  1.7128  0.3045 -1.5049
18721SOL     OW68221   1.460   8.947   1.781  0.2313  0.7383  0.4290
18721SOL    HW168222   1.548   8.900   1.777  0.1329  0.6145 -0.6270
18721SOL    HW268223   1.404   8.920   1.702  0.4752  3.2075 -0.6434
18722SOL     OW68224   5.639   0.249   2.592 -0.1558 -0.3062 -0.0787
18722SOL    HW168225   5.680   0.192   2.520  0.8715 -0.9810  1.0174
18722SOL    HW268226   5.546   0.219   2.609  0.0263 -0.9838 -0.2536
18723SOL     OW68227   9.731   7.463   6.167 -0.0171 -0.6065  0.1096
18723SOL    HW168228   9.709   7.366   6.165  0.4670 -0.7149 -0.0122
18723SOL    HW268229   9.685   7.506   6.245  1.2487 -1.3040  1.2705
18724SOL     OW68230   2.525   3.338   0.448 -0.0309  0.5609 -0.5841
18724SOL    HW168231   2.467   3.412   0.413  1.3007  1.3557 -1.1354
18724SOL    HW268232   2.582   3.302   0.374  1.0483  0.6017  0.2171
18725SOL     OW68233   9.070   8.536   5.757 -0.0755 -0.1592  0.1005
18725SOL    HW168234   9.051   8.628   5.724  0.5511  0.4936  1.4854
18725SOL    HW268235   9.157   8.504   5.718 -2.0941 -1.7049 -3.3646
18726SOL     OW68236   8.402   6.362   5.646  0.4950  0.6775 -0.4884
18726SOL    HW168237   8.476   6.317   5.596 -1.2897 -2.2004 -0.6543
18726SOL    HW268238   8.368   6.300   5.717 -1.7602  1.9547 -0.4186
18727SOL     OW68239   4.860   1.789   9.158 -0.3256 -0.1090 -0.6497
18727SOL    HW168240   4.939   1.849   9.145 -0.4234 -0.1283 -1.3405
18727SOL    HW268241   4.874   1.703   9.109 -0.2701 -0.5823  0.1809
18728SOL     OW68242   0.104   3.502   7.109  0.5025 -0.3475 -0.1420
18728SOL    HW168243   0.107   3.428   7.041  2.0101  0.1401 -0.6131
18728SOL    HW268244   0.076   3.587   7.064  0.7165 -0.1958  0.0125
18729SOL     OW68245   7.639   9.915   1.711  0.3102 -0.3316  0.4614
18729SOL    HW168246   7.546   9.903   1.743  0.0907 -0.0635 -0.0586
18729SOL    HW268247   7.683   9.826   1.698  0.3951 -0.4415  1.4689
18730SOL     OW68248   8.344   5.083   9.144  0.0905  0.0494 -0.1297
18730SOL    HW168249   8.339   5.007   9.079 -0.4227  2.0682 -2.5469
18730SOL    HW268250   8.387   5.162   9.099  0.0129  1.3929  2.0975
18731SOL     OW68251   7.253   9.888   6.041  0.1633 -0.1480  0.1810
18731SOL    HW168252   7.316   9.963   6.020  1.1865 -0.4080  2.2379
18731SOL    HW268253   7.269   9.813   5.976  0.4316  0.6669 -0.7044
18732SOL     OW68254   2.199   7.005   8.945  0.4852  0.3479  0.0759
18732SOL    HW168255   2.229   7.060   9.023 -0.1187  1.0805 -0.2039
18732SOL    HW268256   2.195   7.062   8.863  0.0961 -0.1718 -0.2719
18733SOL     OW68257   5.585   2.142   5.764  0.0662 -0.5109  0.0055
18733SOL    HW168258   5.569   2.133   5.666  0.6128  0.5482 -0.1899
18733SOL    HW268259   5.675   2.184   5.780 -0.6299  0.6907  0.9153
18734SOL     OW68260   4.894   7.696   3.348 -0.3151  0.3469 -0.1835
18734SOL    HW168261   4.937   7.775   3.391 -0.3132 -0.1397  0.7194
18734SOL    HW268262   4.794   7.706   3.352 -0.3577 -0.5552  1.6004
18735SOL     OW68263   9.134   0.384   5.080 -0.5204 -0.4141 -0.5285
18735SOL    HW168264   9.185   0.383   5.166  0.3577 -0.4451 -1.0345
18735SOL    HW268265   9.043   0.422   5.095 -0.8094 -1.5346  0.6457
18736SOL     OW68266   3.199   7.524   6.283  0.3005  0.2142 -0.7586
18736SOL    HW168267   3.167   7.571   6.366 -1.5040 -0.4627 -1.0667
18736SOL    HW268268   3.252   7.588   6.227  1.9900  0.5433  1.1478
18737SOL     OW68269   0.227   7.594   2.820 -0.0420 -0.1524 -0.4213
18737SOL    HW168270   0.321   7.605   2.789 -0.1544 -0.6547 -0.9490
18737SOL    HW268271   0.213   7.500   2.853  0.6103  0.8733  2.9952
18738SOL     OW68272   2.552   4.820   3.374 -0.4322 -0.6989  0.0635
18738SOL    HW168273   2.541   4.722   3.358 -2.1024 -0.6213  0.5711
18738SOL    HW268274   2.467   4.868   3.348  0.7267  0.7415 -1.1541
18739SOL     OW68275   1.854   8.039   1.310 -0.0727 -0.0204  0.6418
18739SOL    HW168276   1.860   8.061   1.408  0.1512 -0.6455  0.7726
18739SOL    HW268277   1.824   8.120   1.260  1.2425  0.7405  1.0529
18740SOL     OW68278   3.242   9.837   0.215  0.0448 -0.3469  0.3099
18740SOL    HW168279   3.270   9.747   0.180 -1.6443 -0.6261 -0.3704
18740SOL    HW268280   3.151   9.859   0.181 -0.4962  0.6335  2.3240
18741SOL     OW68281   9.629   0.728   0.729  0.0197 -0.0975 -0.3575
18741SOL    HW168282   9.673   0.726   0.819  2.4172  1.6996 -1.4410
18741SOL    HW268283   9.616   0.634   0.696  0.5614 -0.7241  1.1631
18742SOL     OW68284   3.200   7.649   8.915  0.2765  0.3420  0.1283
18742SOL    HW168285   3.261   7.659   8.994 -1.1667  1.0329  1.1854
18742SOL    HW268286   3.238   7.583   8.851  1.9706  0.5242  0.9231
18743SOL     OW68287   5.802   1.711   9.035  0.1497  0.2039  0.1113
18743SOL    HW168288   5.870   1.694   8.964  0.6046 -0.4973  0.7102
18743SOL    HW268289   5.778   1.625   9.080 -2.0179  0.2654 -0.8745
18744SOL     OW68290   5.295   4.464   7.279  0.0521 -0.0115 -0.1180
18744SOL    HW168291   5.273   4.401   7.204  0.2047  1.9008 -1.8085
18744SOL    HW268292   5.308   4.412   7.364 -0.7056 -2.1530 -1.2845
18745SOL     OW68293   0.800   0.387   7.889 -0.1342 -0.6480  0.1047
18745SOL    HW168294   0.886   0.356   7.930 -0.1286 -0.0019  0.5788
18745SOL    HW268295   0.818   0.461   7.825 -0.4371  0.1184  0.8960
18746SOL     OW68296   9.550   7.791   6.660  0.2652 -0.2550 -0.1944
18746SOL    HW168297   9.610   7.831   6.730  0.5779  0.6374 -0.9652
18746SOL    HW268298   9.579   7.822   6.570 -2.2783  1.4010 -0.4752
18747SOL     OW68299   2.818   6.447   5.057  0.1174 -0.9900 -0.2067
18747SOL    HW168300   2.843   6.352   5.073 -1.0061 -1.1287  0.7685
18747SOL    HW268301   2.752   6.452   4.982  0.2189 -0.9693 -0.2954
18748SOL     OW68302   7.533   3.822   9.975  0.4713 -0.1523  0.9307
18748SOL    HW168303   7.607   3.885   9.953 -1.0963  1.1690 -0.6991
18748SOL    HW268304   7.536   3.743   9.914  0.0020  0.3497  0.2527
18749SOL     OW68305   4.373   2.810   5.873  0.3497  0.1361  0.2395
18749SOL    HW168306   4.456   2.762   5.901 -0.8573 -1.8515  0.4937
18749SOL    HW268307   4.327   2.758   5.801 -0.7795  1.1075  0.2455
18750SOL     OW68308   5.287   4.046   9.970 -0.3005 -0.1536  0.1830
18750SOL    HW168309   5.336   3.977   9.917 -0.6984 -1.2046  1.1709
18750SOL    HW268310   5.209   4.080   9.917 -0.5092 -0.9618 -0.0264
18751SOL     OW68311   2.544   0.635   8.481  0.3247 -0.3394  0.0678
18751SOL    HW168312   2.478   0.662   8.551  1.0550 -0.4970  0.8218
18751SOL    HW268313   2.515   0.549   8.440  0.5015 -0.8465  0.9886
18752SOL     OW68314   3.960   0.461   7.505 -0.1779  0.6034 -0.3103
18752SOL    HW168315   3.985   0.365   7.517  0.2028  0.8207  0.6857
18752SOL    HW268316   3.930   0.476   7.411 -1.8767 -0.8411 -0.0222
18753SOL     OW68317   1.498   6.552   1.708  0.7398  0.0373 -0.3791
18753SOL    HW168318   1.458   6.462   1.728  1.8168 -0.6736 -1.3828
18753SOL    HW268319   1.451   6.592   1.629 -0.3300  0.7608  0.6044
18754SOL     OW68320   8.546   6.610   5.881 -0.3213  0.1363  0.1067
18754SOL    HW168321   8.644   6.594   5.869 -0.2349  0.3095  0.5703
18754SOL    HW268322   8.504   6.630   5.792 -0.0306 -0.4509 -0.1616
18755SOL     OW68323   2.088   0.417   7.714 -0.1421 -0.0158 -0.1433
18755SOL    HW168324   2.022   0.346   7.690 -0.4290 -0.0850  0.8039
18755SOL    HW268325   2.060   0.459   7.800  0.6541  0.4597 -0.1178
18756SOL     OW68326   1.155   5.289   6.358 -0.5607 -0.1052  0.2276
18756SOL    HW168327   1.157   5.387   6.344 -2.4970 -0.1054 -0.1038
18756SOL    HW268328   1.171   5.242   6.271 -2.5935 -0.0840 -0.1651
18757SOL     OW68329   0.533   1.238   6.061  0.2489 -0.2751  0.0925
18757SOL    HW168330   0.568   1.322   6.019  1.7199  0.4895  2.7108
18757SOL    HW268331   0.436   1.228   6.040 -0.5921  3.4370  1.7980
18758SOL     OW68332   4.381   1.277   5.861 -0.3479 -0.6074  0.3619
18758SOL    HW168333   4.312   1.274   5.933 -0.9161 -2.8053 -0.2390
18758SOL    HW268334   4.402   1.372   5.840 -0.3394  0.1001  3.2472
18759SOL     OW68335   4.744   3.009   0.255  0.2945 -0.3407 -0.2314
18759SOL    HW168336   4.719   3.105   0.251  1.4847 -0.0339 -0.6220
18759SOL    HW268337   4.715   2.963   0.171  0.0955 -0.2301 -0.2229
18760SOL     OW68338   3.015   9.083   3.495 -0.3769  0.2292 -0.6300
18760SOL    HW168339   3.042   8.996   3.536 -0.2734 -0.0462 -1.2626
18760SOL    HW268340   3.074   9.102   3.417 -0.3007  0.9494 -0.3958
18761SOL     OW68341   5.138   0.656   7.155 -0.7830  0.2266  0.0972
18761SOL    HW168342   5.196   0.701   7.223 -0.9390  1.7523 -0.7541
18761SOL    HW268343   5.094   0.726   7.097 -0.8796 -1.0378 -1.3753
18762SOL     OW68344   4.385   2.109   4.523 -0.0080  0.1706  0.1397
18762SOL    HW168345   4.447   2.154   4.587  0.2899 -1.8107  1.2905
18762SOL    HW268346   4.306   2.073   4.573 -0.3735 -0.3570 -0.8027
18763SOL     OW68347   0.152   6.908   0.119  0.0528 -0.1045  0.6237
18763SOL    HW168348   0.220   6.844   0.153  0.1793 -0.4889 -0.3342
18763SOL    HW268349   0.142   6.984   0.184  1.8335  0.2776  0.4922
18764SOL     OW68350   8.515   2.597   5.320 -0.7106 -0.1620 -0.2315
18764SOL    HW168351   8.453   2.533   5.366 -0.6551 -0.8764 -1.1452
18764SOL    HW268352   8.609   2.565   5.329 -0.6036  0.1958 -0.0396
18765SOL     OW68353   4.003   8.890   1.948  0.3378 -0.6705 -0.1187
18765SOL    HW168354   4.093   8.862   1.983  1.0850  1.4273 -0.2868
18765SOL    HW268355   3.977   8.977   1.989 -1.6341 -1.2474 -0.0923
18766SOL     OW68356   3.943   6.024   8.285 -0.0441 -0.2914  0.1156
18766SOL    HW168357   3.884   6.054   8.209  1.1222  0.6479 -0.4289
18766SOL    HW268358   3.886   5.981   8.355 -1.5662  1.6838  0.1618
18767SOL     OW68359   5.841   2.114   0.200  0.3687  0.0165  0.1275
18767SOL    HW168360   5.866   2.054   0.275  1.4925  5.2076  4.2367
18767SOL    HW268361   5.921   2.131   0.142  1.1966  0.7985  1.4644
18768SOL     OW68362   8.365   8.044   2.670  0.4726  0.5542 -0.2288
18768SOL    HW168363   8.406   7.966   2.623 -0.2633  0.3099 -0.4641
18768SOL    HW268364   8.410   8.057   2.759 -0.2014 -0.8838  0.3412
18769SOL     OW68365   9.317   9.708   8.984  0.9315  0.0606  0.0865
18769SOL    HW168366   9.298   9.620   8.940 -1.7400  0.1817  0.9123
18769SOL    HW268367   9.262   9.717   9.067  2.8439  1.5906  1.2412
18770SOL     OW68368   2.227   1.757   6.210 -0.0713  0.2146 -0.7692
18770SOL    HW168369   2.168   1.747   6.290  0.1579 -1.3957 -0.7799
18770SOL    HW268370   2.315   1.796   6.238 -0.6660  1.4106 -0.5457
18771SOL     OW68371   2.525   0.607   6.938 -0.1811  0.1066 -0.0964
18771SOL    HW168372   2.486   0.698   6.952  0.4711  0.4653 -0.5373
18771SOL    HW268373   2.551   0.568   7.026  1.2178  1.1214 -0.0347
18772SOL     OW68374   1.838   8.851   5.716 -0.2572 -0.2201  0.2178
18772SOL    HW168375   1.757   8.807   5.754  0.2919 -1.6689 -0.2688
18772SOL    HW268376   1.825   8.867   5.619 -0.0455 -0.2683  0.1808
18773SOL     OW68377   6.284   3.149   8.444 -0.2981  0.1373 -0.0588
18773SOL    HW168378   6.277   3.112   8.351 -0.2729  0.2750 -0.1151
18773SOL    HW268379   6.201   3.127   8.495 -0.2988  0.0357 -0.1029
18774SOL     OW68380   9.516   1.841   5.098 -0.1951 -0.4459  0.4624
18774SOL    HW168381   9.508   1.937   5.073  0.3161 -0.5926 -0.2825
18774SOL    HW268382   9.480   1.783   5.025 -0.3687 -0.8222  0.8425
18775SOL     OW68383   9.041   8.860   0.594 -0.1258 -0.3036 -0.0200
18775SOL    HW168384   9.092   8.941   0.567  0.5928 -0.7780 -0.0852
18775SOL    HW268385   8.965   8.846   0.530  1.3264 -1.1897 -1.5754
18776SOL     OW68386   0.194   0.998   5.002 -0.4820  0.1430 -0.6735
18776SOL    HW168387   0.223   1.081   5.048 -1.0016 -1.8544  3.5161
18776SOL    HW268388   0.094   0.993   5.003 -0.4433 -0.6916 -0.5446
18777SOL     OW68389   3.054   9.889   8.270  0.5033  0.1687 -0.4618
18777SOL    HW168390   3.027   9.793   8.263  0.5676  0.2817 -2.4002
18777SOL    HW268391   3.102   9.917   8.187  2.0621  1.3991  0.8104
18778SOL     OW68392   8.345   9.287   1.140 -0.0666  0.5916 -0.3311
18778SOL    HW168393   8.358   9.378   1.179 -0.4837  0.1995  0.7472
18778SOL    HW268394   8.425   9.230   1.161  0.8517  1.1266 -2.2545
18779SOL     OW68395   1.160   2.825   4.805  0.4950 -0.2552 -0.3196
18779SOL    HW168396   1.120   2.864   4.722 -0.5141 -0.7050 -0.0644
18779SOL    HW268397   1.204   2.897   4.858 -1.1362  0.4982  0.0356
18780SOL     OW68398   1.650   5.962   9.736 -0.0997  0.1964  0.4842
18780SOL    HW168399   1.663   5.862   9.735 -0.4352  0.1474 -2.2105
18780SOL    HW268400   1.735   6.006   9.765  1.1428 -0.7744 -1.5463
18781SOL     OW68401   0.752   9.012   7.806  0.3483  0.5484 -0.2342
18781SOL    HW168402   0.736   8.921   7.766 -2.1627  0.6779  0.3908
18781SOL    HW268403   0.702   9.019   7.893  0.9852  2.3402  0.0007
18782SOL     OW68404   5.296   3.535   0.806  0.1114 -0.0568 -0.2592
18782SOL    HW168405   5.333   3.468   0.871 -0.3433 -0.7450 -0.7095
18782SOL    HW268406   5.317   3.506   0.713 -1.7168 -0.5522 -0.5374
18783SOL     OW68407   7.571   9.481   5.891  0.0570  0.7800  0.3276
18783SOL    HW168408   7.477   9.469   5.860  0.2306 -1.1771  0.5176
18783SOL    HW268409   7.633   9.436   5.828  0.7662  0.8896  0.9481
18784SOL     OW68410   0.503   4.606   4.292  0.4054  0.3105  0.3671
18784SOL    HW168411   0.466   4.679   4.235 -1.6852 -0.3535  0.8366
18784SOL    HW268412   0.491   4.631   4.389 -1.1699 -1.0454  0.5391
18785SOL     OW68413   9.713   0.067   8.049 -0.0243  0.3477 -0.0398
18785SOL    HW168414   9.807   0.041   8.027  0.2970  1.4886 -0.0230
18785SOL    HW268415   9.704   0.166   8.046 -0.8821  0.3259  1.3579
18786SOL     OW68416   1.632   1.908   1.864  0.1911 -0.1563  0.1968
18786SOL    HW168417   1.686   1.830   1.830 -0.1968 -0.1996 -0.3255
18786SOL    HW268418   1.627   1.978   1.793 -0.3734 -0.1153  0.2797
18787SOL     OW68419   1.857   6.235   9.821 -0.2309  0.5383  0.2865
18787SOL    HW168420   1.880   6.145   9.861 -0.9696 -0.2376 -1.0136
18787SOL    HW268421   1.790   6.281   9.879  0.6756  0.5619  1.3364
18788SOL     OW68422   7.907   5.820   6.154  0.3488  0.1133  0.3728
18788SOL    HW168423   7.992   5.838   6.203  0.0183 -1.2168  1.4868
18788SOL    HW268424   7.862   5.740   6.194 -1.4365  0.8007 -0.1939
18789SOL     OW68425   8.316   6.690   0.564 -0.3776  0.0656 -0.3870
18789SOL    HW168426   8.259   6.761   0.605 -1.2402 -0.4597 -0.6844
18789SOL    HW268427   8.310   6.695   0.464  0.2646  0.1411 -0.4291
18790SOL     OW68428   4.694   1.462   7.460  0.0191 -0.3141  0.5664
18790SOL    HW168429   4.697   1.403   7.379  1.2014  1.4478 -0.6992
18790SOL    HW268430   4.608   1.512   7.461  0.7098  0.9368 -0.5553
18791SOL     OW68431   1.491   4.830   4.383  0.6841 -0.5531  0.5219
18791SOL    HW168432   1.542   4.857   4.301  1.6987 -2.1992  0.5856
18791SOL    HW268433   1.548   4.844   4.464  0.1801 -0.2057  0.8150
18792SOL     OW68434   8.921   5.612   9.060  0.3445  0.4603 -0.7789
18792SOL    HW168435   8.831   5.611   9.103  0.5570  1.8490 -0.2871
18792SOL    HW268436   8.923   5.545   8.986 -1.0108  0.2591 -0.6439
18793SOL     OW68437   7.185   9.383   4.521  0.1698 -0.0666 -0.3439
18793SOL    HW168438   7.138   9.302   4.554  2.6273 -1.0932  0.7752
18793SOL    HW268439   7.235   9.361   4.438 -0.5359  0.7655 -0.9975
18794SOL     OW68440   9.041   9.183   6.085 -0.2850  1.0032 -0.0040
18794SOL    HW168441   8.979   9.122   6.035  2.1738 -0.0418 -1.8874
18794SOL    HW268442   9.085   9.132   6.158  0.9240  0.7916 -0.8644
18795SOL     OW68443   5.529   9.530   7.844 -0.1190 -0.2329 -0.2930
18795SOL    HW168444   5.597   9.585   7.892 -0.2246 -0.3432 -0.0155
18795SOL    HW268445   5.457   9.503   7.908 -1.2423  1.1852 -0.9195
18796SOL     OW68446   8.431   3.266   2.363 -0.1199  0.5908  0.5712
18796SOL    HW168447   8.414   3.357   2.401 -0.4613  0.0516  1.7362
18796SOL    HW268448   8.453   3.202   2.437  0.7966 -0.1249 -0.3057
18797SOL     OW68449   8.311   3.872   5.377  0.4209  0.2834 -0.1886
18797SOL    HW168450   8.323   3.848   5.473 -1.1877 -2.1526 -0.5552
18797SOL    HW268451   8.400   3.882   5.333  1.1476  0.7288  1.3753
18798SOL     OW68452   9.632   8.350   2.667 -0.5044  0.1067  0.3674
18798SOL    HW168453   9.562   8.308   2.609  0.5720  1.9215 -2.3420
18798SOL    HW268454   9.593   8.371   2.756 -2.6051 -1.5360 -0.1347
18799SOL     OW68455   8.643   4.584   2.360 -0.0419 -0.3074  0.5150
18799SOL    HW168456   8.697   4.551   2.438 -0.5966 -0.2591  0.9173
18799SOL    HW268457   8.546   4.579   2.382 -0.2830 -1.8342 -0.7739
18800SOL     OW68458   3.473   5.457   8.798 -0.1987  0.1868 -0.4148
18800SOL    HW168459   3.405   5.385   8.807  0.6814 -0.6747 -0.4893
18800SOL    HW268460   3.535   5.436   8.722 -0.3716  1.3950 -0.9138
18801SOL     OW68461   0.504   4.442   4.061  0.3044  0.2482  0.6062
18801SOL    HW168462   0.521   4.343   4.066  0.4495  0.2526  0.2212
18801SOL    HW268463   0.497   4.479   4.154  0.1333 -0.1436  0.7546
18802SOL     OW68464   1.718   3.205   6.375  0.5301  0.0326 -0.4489
18802SOL    HW168465   1.807   3.245   6.396  1.2142 -0.9995 -1.3610
18802SOL    HW268466   1.655   3.277   6.348  0.8423  0.8694  0.9831
18803SOL     OW68467   5.586   5.881   9.173  0.2550  0.7578 -0.0606
18803SOL    HW168468   5.600   5.947   9.099 -0.1139  0.2638 -0.5774
18803SOL    HW268469   5.597   5.788   9.137  1.3008  0.5495  0.7757
18804SOL     OW68470   2.338   2.539   4.061 -0.1709 -0.5356 -0.2161
18804SOL    HW168471   2.421   2.545   4.116 -0.8559 -0.5670  0.8216
18804SOL    HW268472   2.363   2.537   3.964  1.1134 -2.1082  0.1404
18805SOL     OW68473   0.868   2.278   5.091 -0.0889  0.0563 -0.4778
18805SOL    HW168474   0.876   2.204   5.158  0.6950  0.5711  0.0059
18805SOL    HW268475   0.950   2.335   5.094 -0.4840  0.6705 -1.1734
18806SOL     OW68476   7.318   6.127   7.317  0.3070 -0.3267  0.0580
18806SOL    HW168477   7.285   6.052   7.260  0.7510 -0.4794 -0.0060
18806SOL    HW268478   7.357   6.199   7.258 -0.5763  0.1849  0.0899
18807SOL     OW68479   4.396   3.498   9.158 -0.0271  0.5022 -0.4106
18807SOL    HW168480   4.390   3.595   9.138  0.3823  0.2888 -1.6496
18807SOL    HW268481   4.322   3.450   9.110 -0.0788  0.1761 -0.0048
18808SOL     OW68482   8.998   4.381   2.408  0.1813 -0.2938 -0.6033
18808SOL    HW168483   8.898   4.382   2.415  0.1870  0.1029 -0.5335
18808SOL    HW268484   9.029   4.289   2.386 -0.2335 -0.3124 -1.1192
18809SOL     OW68485   1.436   5.925   6.383  0.1621 -0.1773 -0.7831
18809SOL    HW168486   1.489   5.900   6.463  1.2305  1.0575 -1.0952
18809SOL    HW268487   1.391   5.843   6.346 -0.7564 -0.6661  1.3372
18810SOL     OW68488   2.282   8.455   1.544  0.4521  0.1030  0.0674
18810SOL    HW168489   2.306   8.370   1.591  1.9310  0.0147 -0.7905
18810SOL    HW268490   2.304   8.533   1.603  0.4731 -0.0695  0.2886
18811SOL     OW68491   0.817   3.448   1.087  0.1247 -0.6264  0.2402
18811SOL    HW168492   0.772   3.473   1.172 -1.4314 -0.5174 -0.5950
18811SOL    HW268493   0.758   3.386   1.034  1.9839 -2.4191  0.2045
18812SOL     OW68494   5.842   3.368  10.020 -0.1808  0.1453 -0.0336
18812SOL    HW168495   5.820   3.452  10.069 -0.9357 -0.1171  0.0882
18812SOL    HW268496   5.831   3.290  10.082 -2.1774 -0.2851 -0.8990
18813SOL     OW68497   0.562   3.627   3.341 -0.1460  0.3186 -0.1516
18813SOL    HW168498   0.593   3.717   3.371  0.4678 -0.1056  0.5197
18813SOL    HW268499   0.464   3.619   3.357 -0.0230  0.5007  0.7686
18814SOL     OW68500   3.580   7.877   3.281 -0.1440  0.4203  0.7119
18814SOL    HW168501   3.566   7.975   3.299  2.1493  0.4363  2.6161
18814SOL    HW268502   3.676   7.861   3.258 -0.9816 -1.0808 -2.0341
18815SOL     OW68503   9.223   1.813   9.194  0.5365 -0.0664  0.1760
18815SOL    HW168504   9.140   1.847   9.148 -0.5531 -1.4307  1.1076
18815SOL    HW268505   9.223   1.845   9.289  0.1545 -1.5687  0.6888
18816SOL     OW68506   7.675   1.185   3.605 -0.4505  0.3707 -0.1841
18816SOL    HW168507   7.591   1.143   3.638  0.2712 -0.1830  0.9684
18816SOL    HW268508   7.657   1.279   3.577 -1.7536 -0.1999 -1.3348
18817SOL     OW68509   1.563   1.261   9.263 -0.1923 -0.0283 -0.4237
18817SOL    HW168510   1.492   1.246   9.332  0.9071 -1.4968  0.4079
18817SOL    HW268511   1.611   1.347   9.284 -2.7576  1.8266 -1.9279
18818SOL     OW68512   6.661   9.748   5.531 -0.1777 -0.8485 -0.3135
18818SOL    HW168513   6.577   9.709   5.494 -0.0306 -1.4594 -0.0230
18818SOL    HW268514   6.716   9.675   5.571  0.4938 -0.4525 -0.5086
18819SOL     OW68515   7.717   8.101   7.941 -0.0472 -0.4211 -0.6678
18819SOL    HW168516   7.784   8.113   7.868 -0.4934  0.9198 -0.8807
18819SOL    HW268517   7.722   8.180   8.003  0.0958 -1.3812  0.5622
18820SOL     OW68518   1.945   5.447   2.328  0.4592 -0.7540  0.1182
18820SOL    HW168519   1.929   5.355   2.365 -0.0676 -1.1278 -1.0129
18820SOL    HW268520   2.014   5.493   2.383  1.3138 -2.1330  0.2380
18821SOL     OW68521   8.381   1.006   5.489  0.1975  0.0540  0.1223
18821SOL    HW168522   8.341   0.923   5.526  0.2346  0.8483  1.9923
18821SOL    HW268523   8.308   1.065   5.452  0.0006 -0.0681  0.3164
18822SOL     OW68524   1.781   3.984   1.694 -0.5694 -0.0333 -0.2346
18822SOL    HW168525   1.829   3.999   1.780 -1.6348 -1.4305  0.6335
18822SOL    HW268526   1.743   4.070   1.661  2.2555  1.0447 -0.7991
18823SOL     OW68527   1.800   2.406   1.701 -0.6852 -0.0504  0.2354
18823SOL    HW168528   1.762   2.444   1.616 -0.2120 -1.3344 -0.5664
18823SOL    HW268529   1.737   2.424   1.777 -1.5267  0.3589 -0.5474
18824SOL     OW68530   5.548   1.047   1.018 -0.4036 -0.1017  0.0481
18824SOL    HW168531   5.468   1.059   1.076 -0.5200 -0.9634  0.0702
18824SOL    HW268532   5.519   1.025   0.925 -0.1873 -0.8890  0.1645
18825SOL     OW68533   8.040   9.383   0.918 -0.0312  0.4585  0.0515
18825SOL    HW168534   7.984   9.331   0.983  0.7639 -1.6055 -0.8745
18825SOL    HW268535   8.055   9.328   0.836  0.3518  2.4037 -1.2024
18826SOL     OW68536   8.652   6.093   6.968  0.2213 -0.0673 -0.0743
18826SOL    HW168537   8.674   6.074   7.064 -2.0195  0.1342  0.5107
18826SOL    HW268538   8.724   6.057   6.909  2.1784  0.7831  1.7479
18827SOL     OW68539   3.187   4.541   6.812  0.1634 -0.6756  0.1145
18827SOL    HW168540   3.191   4.476   6.736 -0.0350 -0.3788 -0.1497
18827SOL    HW268541   3.265   4.526   6.872  1.1807  0.1126 -0.9832
18828SOL     OW68542   5.176   5.257   9.896  0.1664  0.1318 -0.2253
18828SOL    HW168543   5.104   5.206   9.850 -0.1154 -0.4655  0.8484
18828SOL    HW268544   5.232   5.304   9.828 -0.5144 -0.3500 -1.1402
18829SOL     OW68545   8.544   0.342   2.522 -0.2314 -0.9597  0.1544
18829SOL    HW168546   8.619   0.351   2.588  1.2535 -0.3798 -1.5843
18829SOL    HW268547   8.481   0.419   2.532  0.2001 -0.6694  0.6327
18830SOL     OW68548   8.750   8.308   4.670  0.9076 -0.2238  0.3290
18830SOL    HW168549   8.749   8.308   4.570  0.5467  1.3364  0.3271
18830SOL    HW268550   8.809   8.234   4.703 -0.0136 -1.6008 -1.0182
18831SOL     OW68551   7.235   5.539   0.544  0.0451 -0.2158 -0.0341
18831SOL    HW168552   7.293   5.616   0.570  2.2448 -1.7992 -0.1649
18831SOL    HW268553   7.241   5.468   0.613 -0.4849 -1.0778 -0.8623
18832SOL     OW68554   5.916   3.349   0.227 -0.0111 -0.0366  0.1240
18832SOL    HW168555   6.008   3.387   0.229  0.3088 -0.8865  2.3354
18832SOL    HW268556   5.915   3.260   0.272 -2.2257  0.6918  1.6030
18833SOL     OW68557   3.970   2.872   3.874 -0.0033  0.3463  0.5794
18833SOL    HW168558   3.990   2.838   3.965 -0.2505  0.3457  0.6346
18833SOL    HW268559   3.979   2.972   3.873  0.2203  0.3246  0.5477
18834SOL     OW68560   9.243   5.192   8.675 -0.4816  0.6212 -0.0919
18834SOL    HW168561   9.269   5.184   8.578 -1.3549  0.8478 -0.3500
18834SOL    HW268562   9.268   5.283   8.708 -3.2401  1.8029 -1.0704
18835SOL     OW68563   2.390   3.260   3.977  0.0654 -0.1610  0.0717
18835SOL    HW168564   2.480   3.235   4.013  0.5389 -1.6380 -2.0290
18835SOL    HW268565   2.396   3.349   3.931  0.2990  0.0781  0.5692
18836SOL     OW68566   6.060   8.218   3.055 -0.1105 -0.0757  0.0884
18836SOL    HW168567   6.031   8.298   3.002 -0.5307  0.4719  1.1288
18836SOL    HW268568   6.110   8.248   3.137  1.2895 -0.9374 -0.4282
18837SOL     OW68569   0.411   4.106   6.183 -0.2449 -0.0587  0.1063
18837SOL    HW168570   0.312   4.092   6.180 -0.3516  0.3338  1.3539
18837SOL    HW268571   0.434   4.191   6.135 -0.6885  0.6448  1.1089
18838SOL     OW68572   2.486   8.766   1.435  0.1941  0.0332 -0.2397
18838SOL    HW168573   2.510   8.824   1.512 -1.3001 -0.3697  0.5468
18838SOL    HW268574   2.387   8.767   1.421  0.5032  0.6947 -2.6354
18839SOL     OW68575   7.285   3.809   1.387  0.7836  0.4793  0.1381
18839SOL    HW168576   7.250   3.890   1.340  0.5191  0.3699  0.1430
18839SOL    HW268577   7.272   3.728   1.328  0.1671  0.2932  0.5167
18840SOL     OW68578   4.266   3.569   0.776 -0.2852 -0.0164  0.1729
18840SOL    HW168579   4.240   3.475   0.752  0.7061  0.1122 -1.4414
18840SOL    HW268580   4.341   3.566   0.842 -0.0779 -0.3545 -0.0748
18841SOL     OW68581   0.570   2.278   9.757  0.4804  0.1238  0.6620
18841SOL    HW168582   0.587   2.374   9.735  0.6514 -0.2227 -0.7749
18841SOL    HW268583   0.656   2.228   9.759  0.0751 -0.8731 -2.9436
18842SOL     OW68584   3.662   3.688   7.920 -0.3076 -0.1312  0.4443
18842SOL    HW168585   3.743   3.696   7.978  0.2528  1.0575 -0.4826
18842SOL    HW268586   3.606   3.770   7.930 -0.7286 -0.3783  0.0997
18843SOL     OW68587   0.042   3.488   1.304 -0.3703  0.3003  0.4188
18843SOL    HW168588   0.033   3.398   1.346  1.1564 -0.3074 -0.5092
18843SOL    HW268589   0.138   3.517   1.309 -0.5007  1.0267 -0.9771
18844SOL     OW68590   2.616   1.987   4.291 -0.2005 -0.3246 -0.4849
18844SOL    HW168591   2.551   2.063   4.292 -1.5293 -1.4363 -1.2046
18844SOL    HW268592   2.607   1.936   4.206  2.6555  0.3697 -1.2627
18845SOL     OW68593   4.867   5.174   2.544 -0.0327  0.3287  0.6633
18845SOL    HW168594   4.809   5.222   2.610  0.3689  0.7741  0.7016
18845SOL    HW268595   4.923   5.107   2.592  1.0365  1.4006  0.9383
18846SOL     OW68596   6.335   7.253   2.780  0.1837 -0.0991  0.2861
18846SOL    HW168597   6.323   7.159   2.813 -0.5747  0.3533  1.3118
18846SOL    HW268598   6.275   7.314   2.830  2.0310  1.2266  0.9502
18847SOL     OW68599   1.626   0.340   8.119 -0.0710 -0.3111 -0.8713
18847SOL    HW168600   1.637   0.356   8.021 -0.4005 -0.1167 -0.8739
18847SOL    HW268601   1.711   0.364   8.166 -0.1526  0.2819 -1.0241
18848SOL     OW68602   3.222   3.464   1.986 -0.3327 -0.0927  0.5276
18848SOL    HW168603   3.192   3.533   1.920 -0.7786 -0.2416  0.5689
18848SOL    HW268604   3.301   3.415   1.950 -1.1401 -0.8018 -0.3064
18849SOL     OW68605   0.573   1.186   7.818  0.7098  0.1501 -0.0069
18849SOL    HW168606   0.664   1.190   7.776  1.3196  0.0390  1.2852
18849SOL    HW268607   0.572   1.245   7.899  0.6462 -2.4056  1.8910
18850SOL     OW68608   8.956   5.058   7.888  0.2072  0.2365 -0.2577
18850SOL    HW168609   8.857   5.058   7.904  0.6016  1.6770  2.4419
18850SOL    HW268610   8.985   4.966   7.861 -1.7808 -0.2971 -0.7094
18851SOL     OW68611   0.460   6.294   2.434 -0.2174 -0.5050 -0.3463
18851SOL    HW168612   0.530   6.349   2.390  0.4644 -1.2710 -0.2186
18851SOL    HW268613   0.416   6.235   2.366 -1.0765  0.3103 -0.5200
18852SOL     OW68614   1.919   5.187   1.908  0.2919 -0.6120  1.0084
18852SOL    HW168615   1.953   5.277   1.880 -0.2386 -0.1362  1.8493
18852SOL    HW268616   1.975   5.153   1.984  0.5133 -1.0023  0.6664
18853SOL     OW68617   4.633   2.628   7.699  0.3146 -0.0821 -0.2283
18853SOL    HW168618   4.570   2.563   7.743  2.7306 -1.6874  1.0264
18853SOL    HW268619   4.715   2.579   7.670 -0.0165  1.5012 -4.1235
18854SOL     OW68620   7.534   1.709   2.304  0.2977 -0.1087  0.7856
18854SOL    HW168621   7.569   1.779   2.367 -0.1728  1.6654 -0.8558
18854SOL    HW268622   7.434   1.705   2.312  0.0908  1.1781 -0.8492
18855SOL     OW68623   4.673   4.473   6.942 -0.4124  0.0774  0.0948
18855SOL    HW168624   4.586   4.507   6.978 -1.6244 -1.8363 -0.9099
18855SOL    HW268625   4.667   4.465   6.843  1.8878  2.5055 -0.2851
18856SOL     OW68626   4.658   0.158   2.306 -0.0357  0.1580 -0.0351
18856SOL    HW168627   4.707   0.076   2.335  0.0619 -0.1641 -1.1033
18856SOL    HW268628   4.634   0.151   2.209  0.9250  1.8544 -0.4200
18857SOL     OW68629   6.967   4.183   0.089 -0.1124 -0.2214  0.5254
18857SOL    HW168630   6.959   4.150   0.183  0.2204 -2.4651 -0.2278
18857SOL    HW268631   7.033   4.127   0.039  0.7068  1.7778 -0.6979
18858SOL     OW68632   9.462   1.136   5.250  0.1326 -0.5905  0.0243
18858SOL    HW168633   9.550   1.150   5.204  0.0050 -0.1944 -0.0958
18858SOL    HW268634   9.420   1.052   5.215 -0.7478  0.5839 -1.8004
18859SOL     OW68635   4.992   3.073   5.639 -0.0600  0.2811  0.4578
18859SOL    HW168636   5.060   3.144   5.657  1.0128 -0.7556  0.5758
18859SOL    HW268637   4.928   3.067   5.716 -0.8802  1.9017 -0.0673
18860SOL     OW68638   2.792   6.243   6.363  0.3771 -0.3926 -0.2113
18860SOL    HW168639   2.827   6.250   6.456 -3.0334  0.1997  1.1061
18860SOL    HW268640   2.809   6.329   6.314  0.5018 -0.0101  0.5015
18861SOL     OW68641   2.548   7.478   9.052  0.2916  0.0111 -0.3446
18861SOL    HW168642   2.520   7.384   9.033 -0.8909  0.5059 -1.0819
18861SOL    HW268643   2.611   7.479   9.130  0.4483 -1.4052 -0.4515
18862SOL     OW68644   8.581   8.884   3.900  0.1518  0.3536  0.3933
18862SOL    HW168645   8.678   8.904   3.881  0.2199 -0.5703 -0.2695
18862SOL    HW268646   8.563   8.788   3.880 -0.3106 -0.1074  2.9040
18863SOL     OW68647   0.439   2.528   7.974  0.0345 -0.1832 -0.3549
18863SOL    HW168648   0.508   2.544   8.045  0.8408 -0.5935 -1.0396
18863SOL    HW268649   0.461   2.581   7.892  1.3607 -2.7856 -1.7402
18864SOL     OW68650   9.458   9.327   1.173 -0.0870  0.4746  0.1786
18864SOL    HW168651   9.454   9.232   1.142 -0.7809  0.8935 -1.0414
18864SOL    HW268652   9.469   9.329   1.273  0.0584 -0.8826  0.1951
18865SOL     OW68653   3.308   9.147   1.442 -0.1273  0.4815  0.0435
18865SOL    HW168654   3.318   9.147   1.343  1.2814 -0.2764  0.1582
18865SOL    HW268655   3.242   9.216   1.470  0.8360  1.9821 -1.2996
18866SOL     OW68656   2.238   7.330   7.974  0.0297  0.4803 -0.4410
18866SOL    HW168657   2.150   7.360   8.011  0.1849  1.8820 -1.1911
18866SOL    HW268658   2.245   7.357   7.878  0.2960 -1.7329 -1.0747
18867SOL     OW68659   7.400   6.865   1.308  0.2669 -0.3970 -0.3656
18867SOL    HW168660   7.498   6.852   1.290  0.3579 -0.3227  0.0648
18867SOL    HW268661   7.348   6.794   1.260  0.4908 -0.0921 -1.0585
18868SOL     OW68662   8.289   2.402   7.229 -0.3747 -0.1987  0.6514
18868SOL    HW168663   8.261   2.357   7.144  0.1254 -1.4304  1.1264
18868SOL    HW268664   8.365   2.464   7.211 -0.7636  0.1122  0.0690
18869SOL     OW68665   5.458   6.278   9.948 -0.0030 -0.5736  0.1963
18869SOL    HW168666   5.368   6.297   9.911  0.7960  1.6138 -0.6939
18869SOL    HW268667   5.450   6.247  10.042 -1.6280  0.2633  0.3470
18870SOL     OW68668   0.654   4.033   9.837  0.3633  0.7191  0.3583
18870SOL    HW168669   0.601   4.117   9.850 -0.7371  0.2997 -1.2725
18870SOL    HW268670   0.737   4.052   9.786 -0.1922  0.7311 -0.5541
18871SOL     OW68671   9.953   5.886   6.359  0.3747  0.4116  0.0975
18871SOL    HW168672   9.896   5.880   6.441 -0.3470  1.1065 -0.3584
18871SOL    HW268673  10.047   5.859   6.382  0.2096  0.7546  1.1861
18872SOL     OW68674   2.588   0.108   3.186 -0.3162  0.6296 -0.0319
18872SOL    HW168675   2.552   0.201   3.184  0.2411  0.8320 -1.3161
18872SOL    HW268676   2.595   0.077   3.280 -2.1722  1.2372  0.3190
18873SOL     OW68677   2.969   8.294   8.135 -0.2637 -0.6057  0.6230
18873SOL    HW168678   2.891   8.233   8.151 -1.7075  0.7353 -1.0195
18873SOL    HW268679   2.939   8.372   8.080  1.8294  0.9430  1.6110
18874SOL     OW68680   2.735   9.611   6.965 -0.0997  0.4604 -0.3286
18874SOL    HW168681   2.771   9.552   6.892 -0.7598 -1.2611  0.6993
18874SOL    HW268682   2.769   9.578   7.053 -0.4198  1.6922  0.2598
18875SOL     OW68683   8.336   5.591   2.542 -0.2164  0.0929  0.1056
18875SOL    HW168684   8.375   5.683   2.551 -1.1540  0.3417  1.9073
18875SOL    HW268685   8.237   5.596   2.553 -0.4210 -0.9649 -1.1797
18876SOL     OW68686   8.807   1.718   1.405  0.2398 -0.7497 -0.3512
18876SOL    HW168687   8.819   1.815   1.425  0.0651 -0.8089  0.0444
18876SOL    HW268688   8.804   1.705   1.306  3.6735 -0.7815 -0.4999
18877SOL     OW68689   2.007   3.842   0.379 -0.4225  0.0912 -0.5244
18877SOL    HW168690   1.939   3.814   0.446 -1.7318  0.5361 -1.6490
18877SOL    HW268691   2.061   3.763   0.351  0.7938  0.0721  1.7634
18878SOL     OW68692   4.897   9.068   5.908  0.2668 -0.3062  0.1072
18878SOL    HW168693   4.868   9.043   5.816 -1.1784 -1.0089  0.7304
18878SOL    HW268694   4.995   9.085   5.909  1.0208 -4.0539 -0.7946
18879SOL     OW68695   3.304   9.795   2.980 -0.1808  0.2365 -0.1057
18879SOL    HW168696   3.382   9.858   2.979 -1.4255  1.8386  0.1814
18879SOL    HW268697   3.325   9.714   2.925  1.6287  0.7012 -0.1215
18880SOL     OW68698   2.674   4.537   7.510  0.5994 -0.2687 -0.0402
18880SOL    HW168699   2.611   4.460   7.507  0.1449  0.0806  0.4435
18880SOL    HW268700   2.767   4.504   7.495  0.2308 -0.6945 -1.4898
18881SOL     OW68701   7.351   0.345   0.987  0.2470 -0.1493 -0.3533
18881SOL    HW168702   7.304   0.366   0.901 -0.4942  1.0862  0.3269
18881SOL    HW268703   7.448   0.331   0.970  0.2382  0.8441 -1.2889
18882SOL     OW68704   0.304   7.274   9.214 -0.3197 -0.2193  0.4785
18882SOL    HW168705   0.356   7.203   9.167 -1.2096 -0.0680 -0.7386
18882SOL    HW268706   0.345   7.363   9.196 -0.5668 -0.1790  0.1075
18883SOL     OW68707   0.869   4.925   6.201 -0.2580 -0.6365  0.4589
18883SOL    HW168708   0.839   5.001   6.142 -0.9219 -0.6117  0.8240
18883SOL    HW268709   0.837   4.839   6.162  2.9642 -1.0007 -1.5231
18884SOL     OW68710   6.278   6.228   1.302 -0.3681 -0.1525 -0.3073
18884SOL    HW168711   6.233   6.246   1.215 -0.7309  1.3247  0.1714
18884SOL    HW268712   6.218   6.255   1.377  0.1438 -0.9353  0.3900
18885SOL     OW68713   7.743   8.372   2.118  0.4669 -0.2531  0.7904
18885SOL    HW168714   7.656   8.387   2.071  1.8701  0.1093 -1.8183
18885SOL    HW268715   7.777   8.280   2.096  2.4981  0.9386 -1.2728
18886SOL     OW68716   3.650   3.144   2.845 -0.9029 -0.3553 -0.2870
18886SOL    HW168717   3.615   3.146   2.752 -0.0688  1.6003 -0.5847
18886SOL    HW268718   3.708   3.063   2.857  0.1395  0.1251 -1.9029
18887SOL     OW68719   4.551   7.693   2.396 -0.1372 -0.4328 -0.0614
18887SOL    HW168720   4.604   7.619   2.438  0.8104  0.0598 -0.3618
18887SOL    HW268721   4.539   7.674   2.298 -1.2442 -0.9528  0.1681
18888SOL     OW68722   4.669   6.060   7.430  0.1015  0.0689  0.0235
18888SOL    HW168723   4.743   6.073   7.495 -0.0727  0.6053  0.1158
18888SOL    HW268724   4.592   6.120   7.453 -1.0424 -1.6808  0.9224
18889SOL     OW68725   4.834   0.758   3.965 -0.5845  0.1414 -0.4667
18889SOL    HW168726   4.930   0.735   3.948 -0.6270  1.0238 -2.0352
18889SOL    HW268727   4.829   0.834   4.029 -0.3420 -1.7212  1.8298
18890SOL     OW68728   8.053   5.567   9.791 -0.3101 -0.4956 -0.2760
18890SOL    HW168729   8.087   5.483   9.834 -0.0663  0.6835  1.9304
18890SOL    HW268730   7.962   5.551   9.753 -1.9728 -0.7673  3.5885
18891SOL     OW68731   2.547   3.024   6.820  0.1306  0.0620 -1.0988
18891SOL    HW168732   2.478   3.017   6.747 -0.2641 -0.2611 -0.6947
18891SOL    HW268733   2.610   3.098   6.798 -0.6006  0.6432 -1.2571
18892SOL     OW68734   9.423   1.898   2.589  0.3070 -0.0138  0.2703
18892SOL    HW168735   9.513   1.927   2.621  0.6055 -1.9393  1.2173
18892SOL    HW268736   9.356   1.970   2.609  1.5662  1.3261 -0.2189
18893SOL     OW68737   8.470   3.936   6.158  0.1755  0.0320  0.2166
18893SOL    HW168738   8.488   3.842   6.188  0.8779  0.0617 -0.1051
18893SOL    HW268739   8.376   3.961   6.183  1.1352  0.5407  3.6520
18894SOL     OW68740   2.449   0.805   3.126  0.0092  0.1179 -0.0757
18894SOL    HW168741   2.462   0.707   3.109  1.2663  0.2894 -0.1499
18894SOL    HW268742   2.458   0.855   3.040 -1.4155  0.2404 -0.1741
18895SOL     OW68743   6.463   3.046   1.096 -0.1876  0.3806 -0.2312
18895SOL    HW168744   6.506   3.044   1.006  1.0241 -1.5391  0.3718
18895SOL    HW268745   6.373   3.089   1.088 -0.8942 -1.4409 -2.7045
18896SOL     OW68746   7.309   8.582   6.086 -0.7859 -0.1009 -0.2639
18896SOL    HW168747   7.392   8.631   6.113 -0.6587 -0.4199 -0.0714
18896SOL    HW268748   7.324   8.483   6.096 -0.9682 -0.1898 -0.8506
18897SOL     OW68749   3.804   6.448   3.106 -0.3779  0.3258  0.4274
18897SOL    HW168750   3.753   6.513   3.050 -0.2230 -1.1801 -1.4833
18897SOL    HW268751   3.891   6.488   3.133 -0.6130  1.1898 -0.0985
18898SOL     OW68752   1.565   9.639   7.717 -0.3543  0.7195  0.0788
18898SOL    HW168753   1.528   9.685   7.636  0.2538 -1.0602 -1.2412
18898SOL    HW268754   1.660   9.667   7.731 -0.1302  0.2408 -0.4507
18899SOL     OW68755   2.617   4.484   7.817  0.4768  0.4086  0.5850
18899SOL    HW168756   2.614   4.562   7.756  3.1298  0.8471  0.9895
18899SOL    HW268757   2.528   4.475   7.863  0.0129  2.9132  0.2452
18900SOL     OW68758   9.273   0.444   1.560 -0.1178 -0.0078  0.1414
18900SOL    HW168759   9.258   0.436   1.658 -1.4532  0.2625 -0.0358
18900SOL    HW268760   9.205   0.506   1.520  0.7726  0.3459 -0.8606
18901SOL     OW68761   1.286   3.386   8.981  0.3750  0.5370 -0.3154
18901SOL    HW168762   1.255   3.391   8.887 -1.1272  0.2576  0.1608
18901SOL    HW268763   1.274   3.475   9.026  0.3287  0.4466 -0.1461
18902SOL     OW68764   8.759   0.436   0.233 -0.4794 -0.0138  0.1204
18902SOL    HW168765   8.812   0.520   0.243 -2.4603  1.4346 -1.1820
18902SOL    HW268766   8.817   0.365   0.194  0.8999  1.0796  0.1371
18903SOL     OW68767   1.427   7.872   6.769 -0.1065 -0.6252 -0.4315
18903SOL    HW168768   1.337   7.883   6.728  0.1455 -0.8459 -1.0406
18903SOL    HW268769   1.482   7.954   6.751 -0.3782 -0.2486  0.4299
18904SOL     OW68770   3.557   8.339   3.163 -0.4229  0.0238 -0.3389
18904SOL    HW168771   3.475   8.319   3.110  0.1209 -1.7230 -0.5456
18904SOL    HW268772   3.636   8.342   3.103 -0.2631  1.3475 -0.0852
18905SOL     OW68773   1.180   2.164   7.845  0.2032 -0.4952  0.2266
18905SOL    HW168774   1.191   2.133   7.750 -0.9509 -3.2827  0.9733
18905SOL    HW268775   1.218   2.095   7.907  0.1572  0.9101  1.8407
18906SOL     OW68776   7.750   5.514   2.341  0.0293 -0.7151 -0.1584
18906SOL    HW168777   7.697   5.449   2.395  0.9771 -0.4543  1.0899
18906SOL    HW268778   7.797   5.465   2.267 -1.6757 -0.9911 -1.0911
18907SOL     OW68779   6.362   1.145   8.280 -0.2472  0.2668 -0.0318
18907SOL    HW168780   6.401   1.133   8.372 -0.6800 -0.1516  0.0940
18907SOL    HW268781   6.396   1.073   8.220 -2.4417 -1.3392  0.5983
18908SOL     OW68782   0.852   7.297   8.331 -0.2465 -0.3929  0.4135
18908SOL    HW168783   0.775   7.282   8.268  0.3059  2.0176 -0.8970
18908SOL    HW268784   0.919   7.225   8.319 -0.0131  0.2045 -2.0079
18909SOL     OW68785   3.995   0.300   6.405  0.2912 -0.0999  0.5946
18909SOL    HW168786   3.941   0.298   6.321  1.4761  0.1602 -0.1779
18909SOL    HW268787   4.040   0.389   6.414  2.3381 -1.0610  0.1063
18910SOL     OW68788   9.352   1.703   3.725 -0.1857 -0.4748 -0.2417
18910SOL    HW168789   9.334   1.724   3.629 -0.0673  0.0264 -0.1535
18910SOL    HW268790   9.391   1.611   3.732 -0.8200 -0.7671 -0.6092
18911SOL     OW68791   1.994   0.504   4.773  0.0358 -0.3977 -0.3661
18911SOL    HW168792   2.004   0.574   4.701  1.4215 -0.0227  0.1570
18911SOL    HW268793   2.065   0.519   4.842 -2.3273  0.2805  1.9573
18912SOL     OW68794   9.133   2.354   6.203  0.7168  0.9763 -0.9044
18912SOL    HW168795   9.084   2.279   6.248  1.6700  0.9645  0.1394
18912SOL    HW268796   9.186   2.318   6.126  1.7866  0.4277  0.0654
18913SOL     OW68797   2.610   8.042   2.684 -0.2583  0.1752  0.2004
18913SOL    HW168798   2.597   7.947   2.712 -2.7778  0.1356 -0.9254
18913SOL    HW268799   2.703   8.054   2.650  0.8704 -1.2602  2.6484
18914SOL     OW68800   8.435   1.365   1.621 -0.3633 -0.5374 -0.3726
18914SOL    HW168801   8.497   1.295   1.587 -2.1577 -1.9273 -0.8141
18914SOL    HW268802   8.421   1.435   1.551  0.2900 -0.4854 -0.4543
18915SOL     OW68803   0.027   7.610   7.314 -0.2730 -0.0671 -0.5460
18915SOL    HW168804  -0.002   7.522   7.277  3.3306 -0.4952 -2.6075
18915SOL    HW268805   0.087   7.656   7.248  2.0897  1.5875  2.6392
18916SOL     OW68806   3.721   7.031   5.700  0.6119 -0.0298  0.1624
18916SOL    HW168807   3.659   7.091   5.651  0.1065  1.2019  2.2374
18916SOL    HW268808   3.788   7.086   5.750  0.9637 -1.2285  1.0366
18917SOL     OW68809   1.249   5.744   0.748  0.0288 -0.5037 -0.5361
18917SOL    HW168810   1.191   5.797   0.686 -0.9172 -0.5312  0.3137
18917SOL    HW268811   1.221   5.648   0.746 -0.8747 -0.2756  0.9219
18918SOL     OW68812   8.497   9.425   7.350 -0.4402 -0.3061  0.0158
18918SOL    HW168813   8.563   9.383   7.288 -1.2342  0.0917 -1.1143
18918SOL    HW268814   8.534   9.510   7.387  1.5898 -2.4276  3.0971
18919SOL     OW68815   2.560   7.390   2.082  0.2717 -0.4222 -0.3288
18919SOL    HW168816   2.595   7.403   1.989 -0.4722  0.5192 -0.4912
18919SOL    HW268817   2.630   7.345   2.138  0.7874 -0.8414 -1.2961
18920SOL     OW68818   6.801   3.297   9.894 -0.4993  0.4739 -0.0435
18920SOL    HW168819   6.890   3.339   9.874 -1.2631  1.3445 -1.7284
18920SOL    HW268820   6.737   3.368   9.923 -1.0232  0.0525 -0.1739
18921SOL     OW68821   4.130   2.169   0.625 -0.1969 -0.2043  0.3758
18921SOL    HW168822   4.215   2.205   0.665 -1.1085  1.8565  0.5070
18921SOL    HW268823   4.142   2.072   0.604  2.0152 -0.0691  0.8844
18922SOL     OW68824   6.863   1.375   1.688 -0.1431  0.1037 -0.8613
18922SOL    HW168825   6.878   1.292   1.633  1.3529 -0.8774  0.9736
18922SOL    HW268826   6.780   1.364   1.742  1.3290 -1.2553  1.2028
18923SOL     OW68827   2.375   3.875   7.987 -0.2568  0.3761 -0.6669
18923SOL    HW168828   2.318   3.835   8.059 -1.2438  1.3722 -0.8782
18923SOL    HW268829   2.398   3.804   7.920 -0.1220 -0.3421  0.1256
18924SOL     OW68830   2.580   5.785   3.936 -0.2848 -0.4373  0.1180
18924SOL    HW168831   2.525   5.860   3.899 -1.2277 -1.0894  0.1843
18924SOL    HW268832   2.538   5.698   3.911  1.2762 -0.9665 -0.6977
18925SOL     OW68833   1.411   1.553   2.439  0.0592 -0.5614  0.1028
18925SOL    HW168834   1.448   1.640   2.407  2.3472 -1.0611  1.3079
18925SOL    HW268835   1.317   1.543   2.406 -0.0936  2.1563 -0.3848
18926SOL     OW68836   7.367   2.434   1.185 -0.1815 -0.5653 -0.4875
18926SOL    HW168837   7.434   2.381   1.237 -0.1572 -1.1716 -1.1361
18926SOL    HW268838   7.400   2.527   1.173 -1.2431  0.3099  2.6673
18927SOL     OW68839   8.019   0.326   2.585 -0.3272  0.2245  0.1041
18927SOL    HW168840   7.977   0.252   2.532 -1.1463  0.5007  0.3575
18927SOL    HW268841   8.084   0.288   2.650 -1.5811 -0.3760  1.0301
18928SOL     OW68842   0.926   3.089   5.735  0.3065  0.2246 -0.2036
18928SOL    HW168843   0.916   3.072   5.833 -0.0983  1.8401  0.0592
18928SOL    HW268844   0.997   3.158   5.721 -0.0462  0.4281 -1.0101
18929SOL     OW68845   1.763   1.656   0.528 -0.0336  0.1398  0.4603
18929SOL    HW168846   1.730   1.723   0.595 -0.4539 -1.0003  1.4141
18929SOL    HW268847   1.774   1.567   0.572 -1.3508 -0.9006 -1.2147
18930SOL     OW68848   0.960   8.389   4.340  0.0039  0.1128 -0.0769
18930SOL    HW168849   1.014   8.406   4.258  0.6284 -0.3593  0.2290
18930SOL    HW268850   1.012   8.329   4.402 -0.2342  0.8783  0.8853
18931SOL     OW68851   4.252   8.133   1.063 -0.4799  0.1021 -0.3416
18931SOL    HW168852   4.192   8.208   1.093  1.5437  1.4447  0.4532
18931SOL    HW268853   4.299   8.095   1.142 -0.3456 -1.0158 -0.9491
18932SOL     OW68854   4.267   0.124   3.578 -0.2320 -1.1815 -0.1586
18932SOL    HW168855   4.326   0.052   3.543  0.5111  0.4722 -2.5192
18932SOL    HW268856   4.230   0.176   3.500 -1.6301  0.2574  1.4355
18933SOL     OW68857   5.800   0.208   3.154 -0.6467 -0.0365 -0.2620
18933SOL    HW168858   5.823   0.205   3.252 -2.0844  1.4550  0.1434
18933SOL    HW268859   5.769   0.300   3.130  0.3346 -0.2055 -2.2882
18934SOL     OW68860   1.955   0.438   7.072 -0.5560 -0.1599 -0.2124
18934SOL    HW168861   2.027   0.442   7.142 -1.1960 -0.9031  0.5044
18934SOL    HW268862   1.989   0.388   6.992 -0.2177 -0.3430  0.0453
18935SOL     OW68863   3.646   1.845   0.871 -0.0907 -0.2745  0.6062
18935SOL    HW168864   3.556   1.852   0.827  0.6778  1.5378 -0.7298
18935SOL    HW268865   3.690   1.760   0.842 -1.2599 -1.0574  1.0811
18936SOL     OW68866   1.279   9.962   2.464  0.3601 -0.0130  0.4514
18936SOL    HW168867   1.271   9.944   2.366 -2.1319 -2.2998  1.0230
18936SOL    HW268868   1.346   9.900   2.504  2.2364  1.6939  0.0528
18937SOL     OW68869   7.412   1.232   8.111  0.2268 -0.7442 -0.4110
18937SOL    HW168870   7.487   1.220   8.176  0.1099 -1.2789 -0.3747
18937SOL    HW268871   7.450   1.252   8.020  0.3866  0.1233 -0.1560
18938SOL     OW68872   8.897   5.394   2.292  0.7109  0.0426 -0.3536
18938SOL    HW168873   8.976   5.383   2.353  1.9712  2.7963 -1.3893
18938SOL    HW268874   8.905   5.332   2.215  1.1422 -0.6805  0.2667
18939SOL     OW68875   5.416   2.130   0.397 -0.1125 -0.3015  0.1133
18939SOL    HW168876   5.485   2.063   0.370  0.3845 -0.3562  1.4909
18939SOL    HW268877   5.360   2.153   0.317  1.7304  0.0511 -1.1233
18940SOL     OW68878   6.167   0.049   4.696  0.0230 -0.4786 -0.1309
18940SOL    HW168879   6.092   0.113   4.680  0.4284  0.0309 -0.0018
18940SOL    HW268880   6.143  -0.041   4.660 -1.7786 -1.0373  2.3411
18941SOL     OW68881   4.001   1.134   8.013  0.0418  0.2026 -0.1969
18941SOL    HW168882   4.092   1.101   7.988 -0.6221  0.3139 -2.9792
18941SOL    HW268883   3.933   1.085   7.959 -1.4002  1.4386  0.4916
18942SOL     OW68884   4.876   5.831   0.024 -0.0622  0.4172 -0.5784
18942SOL    HW168885   4.822   5.798   0.102  0.6068 -1.0179 -0.6959
18942SOL    HW268886   4.954   5.884   0.056 -0.7359  1.2758 -0.3485
18943SOL     OW68887   3.543   9.552   2.419 -0.1364 -0.8106 -0.2484
18943SOL    HW168888   3.453   9.528   2.456 -0.3396 -2.1322 -1.5550
18943SOL    HW268889   3.608   9.480   2.443  0.1735 -0.7137 -0.8129
18944SOL     OW68890   0.232   9.526   7.153  0.0096 -0.1346 -0.4787
18944SOL    HW168891   0.177   9.443   7.147 -0.2079  0.0171 -0.5921
18944SOL    HW268892   0.297   9.528   7.077  0.5610 -0.5921 -0.0216
18945SOL     OW68893   8.034   5.599   2.336  0.3116 -0.0645 -0.0406
18945SOL    HW168894   8.039   5.625   2.433  1.5368  0.1765 -0.1505
18945SOL    HW268895   7.939   5.599   2.306 -0.3409 -2.7543  1.8493
18946SOL     OW68896   9.641   8.122   0.070  0.0122  0.2946  0.6152
18946SOL    HW168897   9.672   8.213   0.044  0.0639  0.3530  0.8725
18946SOL    HW268898   9.553   8.129   0.116  0.4112  0.2983  1.3822
18947SOL     OW68899   9.746   7.179   5.863  0.2543  0.1199  0.4329
18947SOL    HW168900   9.822   7.223   5.815  0.5408  0.3653  1.1082
18947SOL    HW268901   9.705   7.110   5.804  0.3364  0.7157 -0.3295
18948SOL     OW68902   5.168   2.762   9.397  0.2921 -0.2940 -0.1326
18948SOL    HW168903   5.227   2.682   9.406 -0.9332 -1.0432  1.4569
18948SOL    HW268904   5.097   2.760   9.468 -0.4353  1.6213 -0.7658
18949SOL     OW68905   4.674   8.172   2.838 -0.2708  0.0356 -0.2406
18949SOL    HW168906   4.673   8.089   2.893 -0.4313  0.3768  0.2751
18949SOL    HW268907   4.581   8.193   2.807 -0.0259 -0.7552 -1.5603
18950SOL     OW68908   0.703   4.401   1.743 -0.1566 -0.2496 -0.3878
18950SOL    HW168909   0.686   4.370   1.837  0.4707  0.7417  0.0704
18950SOL    HW268910   0.768   4.477   1.745  0.0595 -0.3963 -1.6559
18951SOL     OW68911   8.749   8.375   6.565  0.1072 -0.2202  0.3261
18951SOL    HW168912   8.740   8.333   6.474  1.5463 -0.6943  0.3901
18951SOL    HW268913   8.763   8.473   6.554 -0.8666 -0.1039  0.0828
18952SOL     OW68914   3.369   4.910   1.340  0.3541  0.4365 -0.2486
18952SOL    HW168915   3.415   4.950   1.419  0.4779  0.7043 -0.4551
18952SOL    HW268916   3.290   4.966   1.315 -1.1541 -0.9994  1.2086
18953SOL     OW68917   3.030   9.298   6.026  0.1900  0.1961  0.1318
18953SOL    HW168918   3.026   9.291   5.927 -1.7611 -0.6241  0.2332
18953SOL    HW268919   3.074   9.215   6.063 -0.7728 -0.3638  0.0401
18954SOL     OW68920   2.184   7.268   1.411  0.0821 -0.3742 -0.1202
18954SOL    HW168921   2.207   7.365   1.424 -1.8374  0.0220  0.5515
18954SOL    HW268922   2.252   7.225   1.351  0.9649  1.3741 -0.4128
18955SOL     OW68923   9.145   5.862   4.065 -0.4973  0.4667 -0.3046
18955SOL    HW168924   9.123   5.879   4.161 -0.8239  0.4958 -0.3865
18955SOL    HW268925   9.202   5.936   4.031  0.9525 -0.3285  0.3127
18956SOL     OW68926   2.141   0.371   8.880 -0.5409  0.7257  0.0052
18956SOL    HW168927   2.182   0.436   8.944 -0.9551 -0.5358  1.5985
18956SOL    HW268928   2.118   0.287   8.929  0.6546 -0.9123 -2.1494
18957SOL     OW68929   4.759   7.728   1.492 -0.0484  0.1724  1.0880
18957SOL    HW168930   4.785   7.768   1.404 -0.0112  2.2222  1.9955
18957SOL    HW268931   4.659   7.728   1.500 -0.0415  0.2567  1.1704
18958SOL     OW68932   1.315   6.208   5.025  0.2296 -0.6378 -0.1685
18958SOL    HW168933   1.414   6.204   5.015  0.1908  1.3034 -1.5648
18958SOL    HW268934   1.271   6.201   4.936 -0.7328  2.0574  0.0379
18959SOL     OW68935   1.413   6.416   8.947 -0.5645  0.3135  0.0949
18959SOL    HW168936   1.413   6.332   9.002 -0.6867  0.1189 -0.1996
18959SOL    HW268937   1.419   6.392   8.850 -2.7434  0.5263 -0.1338
18960SOL     OW68938   0.955   9.599   2.024 -0.0886  0.1807  0.7387
18960SOL    HW168939   0.863   9.636   2.041  0.1675  1.7535 -1.1534
18960SOL    HW268940   0.948   9.511   1.978 -0.6690  0.9966 -0.7807
18961SOL     OW68941   9.620   8.575   3.748 -0.5614  0.5397 -0.1702
18961SOL    HW168942   9.580   8.623   3.671 -1.2142  1.0633  0.4961
18961SOL    HW268943   9.647   8.483   3.719 -2.1763  0.2030 -0.6239
18962SOL     OW68944   8.104   0.460   1.874  0.2593  0.4746 -0.4092
18962SOL    HW168945   8.023   0.518   1.871 -0.7807 -0.9437 -0.4802
18962SOL    HW268946   8.173   0.502   1.931 -1.6993  0.2729  2.2008
18963SOL     OW68947   4.806   5.380   7.657  0.8604 -0.1377 -0.2497
18963SOL    HW168948   4.802   5.432   7.742  0.1166  0.0420 -0.3892
18963SOL    HW268949   4.848   5.291   7.674  3.0774  0.8716 -0.2053
18964SOL     OW68950   0.071   2.355   8.551  0.3670  0.5427 -0.4782
18964SOL    HW168951   0.000   2.325   8.486 -2.8242  3.1198  1.6179
18964SOL    HW268952   0.075   2.292   8.628 -1.0750  1.4173  0.3339
18965SOL     OW68953   0.217   0.551   9.479 -0.2268 -0.0196 -0.6035
18965SOL    HW168954   0.273   0.509   9.550  0.1287  0.4803 -0.5828
18965SOL    HW268955   0.274   0.611   9.422 -1.1156  2.1130  0.6906
18966SOL     OW68956   8.275   0.968   6.287 -0.0421  0.3070 -0.2716
18966SOL    HW168957   8.325   1.016   6.360 -0.4397  1.2076 -0.5884
18966SOL    HW268958   8.178   0.965   6.310  0.4003 -3.5639  1.5351
18967SOL     OW68959   6.579   9.704   7.208 -0.0585  0.9950 -0.0966
18967SOL    HW168960   6.529   9.669   7.287 -1.3301  1.3707 -0.7196
18967SOL    HW268961   6.570   9.640   7.131  1.9935  0.1415  0.3324
18968SOL     OW68962   3.824   7.560   6.713 -0.3172 -0.1993  0.1352
18968SOL    HW168963   3.792   7.556   6.807 -0.3239 -0.1911  0.1337
18968SOL    HW268964   3.753   7.526   6.651 -0.9933  1.4366 -0.0274
18969SOL     OW68965   3.220   3.171   8.502  0.2226  1.1896 -0.5671
18969SOL    HW168966   3.197   3.205   8.594  0.3290  0.7505 -0.3751
18969SOL    HW268967   3.136   3.140   8.457  0.4794 -0.8696  0.3212
18970SOL     OW68968   3.577   3.038   3.668 -0.2235 -0.2063  0.0446
18970SOL    HW168969   3.537   2.991   3.746 -0.4808  1.7539  1.1222
18970SOL    HW268970   3.525   3.122   3.649  0.5530 -0.0507 -1.4718
18971SOL     OW68971   8.108   0.986   0.858 -0.3771 -0.0138 -0.4233
18971SOL    HW168972   8.189   0.939   0.822 -0.1622 -1.6585  2.0715
18971SOL    HW268973   8.045   1.007   0.784  1.2459 -0.8847 -2.0789
18972SOL     OW68974   2.625   6.320   1.395 -0.2665  0.1693 -0.4425
18972SOL    HW168975   2.545   6.288   1.446  0.1314 -0.8095 -0.4352
18972SOL    HW268976   2.688   6.244   1.380  0.6210  0.9216 -0.5373
18973SOL     OW68977   1.767   5.937   0.986  0.2567 -0.1469 -0.1982
18973SOL    HW168978   1.751   5.839   0.998  0.3044 -0.4147 -2.1568
18973SOL    HW268979   1.732   5.986   1.066  0.1823 -1.7440  0.7810
18974SOL     OW68980   8.731   5.554   2.069  0.0579  0.2747  0.4592
18974SOL    HW168981   8.775   5.572   2.157 -0.1864 -1.8498  1.0551
18974SOL    HW268982   8.744   5.632   2.008  1.4135  1.2088  1.9080
18975SOL     OW68983   0.409   0.940   6.142  0.1773  0.1866 -0.4101
18975SOL    HW168984   0.443   0.846   6.145 -0.2986  0.0401  0.2037
18975SOL    HW268985   0.377   0.960   6.049  2.4007  0.4872 -1.1637
18976SOL     OW68986   9.559   8.731   6.920 -0.1980  0.4625 -0.1027
18976SOL    HW168987   9.640   8.770   6.875 -0.2493  0.1906 -0.4376
18976SOL    HW268988   9.507   8.678   6.853  0.1916 -0.6685  0.4782
18977SOL     OW68989   7.402   2.371   0.196 -0.0698  0.1665 -0.1748
18977SOL    HW168990   7.440   2.279   0.182 -0.5692 -0.1102  0.2397
18977SOL    HW268991   7.372   2.380   0.291 -1.0541  0.3670 -0.5028
18978SOL     OW68992   4.023   5.198   6.500  0.1677  0.2587 -0.3396
18978SOL    HW168993   3.935   5.179   6.542  0.2361 -0.7720 -0.6582
18978SOL    HW268994   4.071   5.268   6.554 -1.2446  1.5470 -0.7153
18979SOL     OW68995   1.214   9.661   3.090  0.1603  0.2826  0.2839
18979SOL    HW168996   1.293   9.621   3.045 -0.9172 -1.6592  0.0526
18979SOL    HW268997   1.148   9.692   3.021 -0.2113 -0.0237  0.5014
18980SOL     OW68998   0.273   3.847   4.074 -0.2751 -0.1979 -0.1434
18980SOL    HW168999   0.319   3.778   4.018  0.7493  0.6938 -0.4058
18980SOL    HW269000   0.211   3.801   4.138 -2.0932 -1.1835 -2.5266
18981SOL     OW69001   2.887   3.397   8.641  0.2808  0.7063 -0.0658
18981SOL    HW169002   2.956   3.466   8.666  0.6908  0.1611  0.3056
18981SOL    HW269003   2.803   3.415   8.694  0.0508  1.5034 -0.6825
18982SOL     OW69004   1.108   2.902   6.698 -0.5581 -0.5765 -0.4966
18982SOL    HW169005   1.071   2.816   6.665  0.6989 -1.1731 -0.3732
18982SOL    HW269006   1.049   2.977   6.668 -1.4704 -1.4377 -0.8917
18983SOL     OW69007   4.162   5.611   8.918 -0.9894  0.4505  0.7318
18983SOL    HW169008   4.077   5.639   8.872 -1.5968 -1.2447  0.7880
18983SOL    HW269009   4.145   5.529   8.972  0.9778 -0.5771 -0.1644
18984SOL     OW69010   3.395   6.966   2.498 -0.3151 -0.1841 -0.2934
18984SOL    HW169011   3.336   6.988   2.419  0.9618  1.2518 -0.8729
18984SOL    HW269012   3.429   7.051   2.538  0.9073 -0.9888  0.3790
18985SOL     OW69013   6.055   3.567   2.398  0.3981 -0.0958  0.0632
18985SOL    HW169014   6.034   3.525   2.310 -2.2613 -1.3553  1.2679
18985SOL    HW269015   5.995   3.646   2.413  1.1286  0.3731  0.5516
18986SOL     OW69016   8.523   8.992   7.385 -0.3363 -0.5095 -1.0466
18986SOL    HW169017   8.431   8.970   7.354  0.1526 -0.8201 -2.3134
18986SOL    HW269018   8.549   8.931   7.459 -0.1729 -2.1804 -2.4407
18987SOL     OW69019   7.451   6.527   4.786 -0.0715  0.2102 -0.1932
18987SOL    HW169020   7.391   6.544   4.707 -2.2501 -0.6718  1.2090
18987SOL    HW269021   7.485   6.433   4.782  1.1145  0.6615 -0.9039
18988SOL     OW69022   9.118   2.046  10.076 -0.2560  0.1689  0.0204
18988SOL    HW169023   9.101   2.135  10.118 -2.2368 -0.2340  0.1098
18988SOL    HW269024   9.035   1.991  10.079  1.3016 -2.2127  1.2010
18989SOL     OW69025   9.201   0.154   4.553 -0.4420 -0.1625  0.5849
18989SOL    HW169026   9.285   0.177   4.602  0.6329  0.9812 -1.7003
18989SOL    HW269027   9.139   0.232   4.556  0.0747  0.3149 -0.7502
18990SOL     OW69028   1.001   9.771   8.446 -0.3451  0.1095 -0.4539
18990SOL    HW169029   1.000   9.847   8.511  0.5584  0.3741 -0.7296
18990SOL    HW269030   0.933   9.788   8.375 -0.6624  0.3017 -0.1034
18991SOL     OW69031   5.299   5.251   7.493 -0.1445  0.1133 -0.4600
18991SOL    HW169032   5.301   5.155   7.519  0.0581 -0.0394 -1.0246
18991SOL    HW269033   5.321   5.308   7.572 -2.4959 -0.1783  0.4304
18992SOL     OW69034   3.811   2.065   8.001  0.0118 -0.0278 -0.1058
18992SOL    HW169035   3.748   2.016   8.061  0.9210 -1.4439 -0.2801
18992SOL    HW269036   3.777   2.061   7.907 -1.0389  1.5665  0.2020
18993SOL     OW69037   0.305   3.921   9.284  0.3062 -0.4358 -0.4376
18993SOL    HW169038   0.267   3.837   9.324 -0.6113 -0.3592 -1.1500
18993SOL    HW269039   0.355   3.899   9.200  0.3004 -0.2984 -0.4768
18994SOL     OW69040   8.205   0.896   1.351  0.5698  0.2069  0.1464
18994SOL    HW169041   8.277   0.961   1.375  0.6490 -0.3629  1.5340
18994SOL    HW269042   8.207   0.878   1.253  2.7192 -0.2731  0.2512
18995SOL     OW69043   1.206   0.199   5.877 -0.5944  0.2005  0.1871
18995SOL    HW169044   1.205   0.183   5.779 -1.8368 -0.5998  0.3197
18995SOL    HW269045   1.241   0.291   5.895  0.1248  0.1669 -0.9628
18996SOL     OW69046   9.299   2.787   1.082 -0.7134  0.3340 -0.1154
18996SOL    HW169047   9.354   2.871   1.082 -1.1036  0.5944  0.9435
18996SOL    HW269048   9.345   2.718   1.026  1.8492 -0.2125  2.5369
18997SOL     OW69049   7.270   0.519   2.053  0.4732  0.0910 -0.0765
18997SOL    HW169050   7.364   0.496   2.078  1.2785  0.9764 -2.1149
18997SOL    HW269051   7.271   0.590   1.982 -1.7280 -0.0364 -0.2801
18998SOL     OW69052   3.707   1.944   5.407  0.1906 -0.4388  0.0432
18998SOL    HW169053   3.774   1.946   5.481  0.6119 -1.4177 -0.3093
18998SOL    HW269054   3.736   1.879   5.337 -1.3957 -1.3042  0.1589
18999SOL     OW69055   8.067   6.511   3.173 -0.3559  0.2070  0.4252
18999SOL    HW169056   8.083   6.412   3.167  0.8177  0.4534 -0.6112
18999SOL    HW269057   7.969   6.529   3.167 -0.5035 -0.8231 -0.4063
19000SOL     OW69058   6.913   6.366   2.764 -0.1798 -0.7267 -0.5913
19000SOL    HW169059   6.927   6.267   2.760  0.7875 -0.5846 -0.6751
19000SOL    HW269060   6.958   6.410   2.686  2.8067  0.1728  1.5809
19001SOL     OW69061   1.461   3.261   6.485 -0.5903 -0.0905 -0.0862
19001SOL    HW169062   1.533   3.203   6.446 -1.0668 -2.0181  1.8035
19001SOL    HW269063   1.390   3.203   6.525 -2.7093  1.7852 -0.9977
19002SOL     OW69064   9.980   4.385   4.294 -0.3312 -0.0897 -0.1764
19002SOL    HW169065   9.991   4.484   4.307  0.0089  0.1819 -2.2155
19002SOL    HW269066   9.994   4.363   4.197 -0.7396 -2.1005  0.1960
19003SOL     OW69067   2.240   1.820   6.556  0.1331  0.6190  0.6626
19003SOL    HW169068   2.275   1.851   6.644 -1.1177  0.8111  1.1019
19003SOL    HW269069   2.148   1.782   6.568  0.6502 -0.9794 -0.2672
19004SOL     OW69070   1.234   3.063   1.334 -0.4338  0.1175 -0.4475
19004SOL    HW169071   1.241   3.157   1.367 -1.5969 -0.1471  0.6037
19004SOL    HW269072   1.323   3.032   1.302 -0.4294  2.2434 -2.6610
19005SOL     OW69073   1.139   5.372   2.392 -0.7533  1.0453  0.4568
19005SOL    HW169074   1.238   5.367   2.401 -0.5718  1.8715 -1.0140
19005SOL    HW269075   1.115   5.390   2.297 -2.3899 -1.4146  0.3386
19006SOL     OW69076   3.780   8.710   5.264  0.3903  0.0294  0.2679
19006SOL    HW169077   3.693   8.695   5.217  0.5800  1.0488 -0.4310
19006SOL    HW269078   3.855   8.687   5.203  0.6659  2.9739 -0.5369
19007SOL     OW69079   3.589   7.221   5.544 -0.3891  0.1992 -0.2308
19007SOL    HW169080   3.661   7.278   5.504 -0.0852 -0.4407 -0.6122
19007SOL    HW269081   3.545   7.270   5.619 -1.4485  1.7309 -1.8036
19008SOL     OW69082   3.172   1.738   6.014  0.1448  0.4580 -0.1758
19008SOL    HW169083   3.098   1.671   6.018 -0.2824  0.9395  0.0253
19008SOL    HW269084   3.234   1.723   6.090  1.7250 -1.6380 -1.8255
19009SOL     OW69085   8.608   0.116   0.875 -0.4331 -0.2282 -0.1960
19009SOL    HW169086   8.700   0.129   0.837 -1.2460  0.9290 -1.8470
19009SOL    HW269087   8.579   0.023   0.858 -0.1574 -0.1684 -1.0515
19010SOL     OW69088   7.376   4.394   1.062  0.1038 -0.4175 -0.6218
19010SOL    HW169089   7.439   4.397   0.985  0.3254  1.2713 -0.4031
19010SOL    HW269090   7.376   4.483   1.108  1.2775 -1.9017  2.3596
19011SOL     OW69091   2.812   6.743   1.911  0.1777  0.1450 -0.0291
19011SOL    HW169092   2.844   6.779   1.824 -0.9077  0.7045 -0.2119
19011SOL    HW269093   2.796   6.644   1.902  0.3726  0.1452 -0.3778
19012SOL     OW69094   1.045   4.005   1.415 -0.6079 -0.4673  0.3701
19012SOL    HW169095   0.954   4.040   1.437 -0.3241 -0.3707  1.3891
19012SOL    HW269096   1.112   4.040   1.481  0.3652  0.3673 -1.0180
19013SOL     OW69097   0.883   4.488   5.908 -0.5851  0.1001 -0.0260
19013SOL    HW169098   0.894   4.405   5.854  0.9127 -0.3878  0.9862
19013SOL    HW269099   0.847   4.562   5.851 -2.8470 -1.4878 -0.7244
19014SOL     OW69100   2.170   9.957   9.154  0.2747 -0.2577 -0.2810
19014SOL    HW169101   2.110   9.891   9.198 -0.0954 -1.0188 -1.8784
19014SOL    HW269102   2.192   9.925   9.062  1.0373  1.2806 -0.6453
19015SOL     OW69103   8.961   0.363   2.934 -0.1683 -0.4258 -0.0302
19015SOL    HW169104   8.992   0.271   2.957  0.2642 -0.6005 -1.2966
19015SOL    HW269105   9.038   0.416   2.898  0.0979  1.1008  2.6185
19016SOL     OW69106   1.602   9.471   4.428 -0.4004  0.0700  0.1030
19016SOL    HW169107   1.604   9.554   4.483 -0.5479  1.4318 -1.9047
19016SOL    HW269108   1.579   9.393   4.486 -2.2862  1.7300  1.6471
19017SOL     OW69109   0.533   8.163   3.342 -0.1183  0.4696  0.0891
19017SOL    HW169110   0.621   8.170   3.296 -0.3606 -0.1196 -0.4621
19017SOL    HW269111   0.540   8.207   3.432  0.9800 -0.3055  0.4038
19018SOL     OW69112   1.253   7.169   3.349  0.0989  0.2545 -0.5324
19018SOL    HW169113   1.290   7.145   3.259 -0.1274 -0.2641 -0.4917
19018SOL    HW269114   1.306   7.244   3.388  0.5937  0.0627 -0.8292
19019SOL     OW69115   9.780   6.285   2.984 -0.0190 -0.3277 -0.2996
19019SOL    HW169116   9.720   6.206   2.990  0.2215 -0.5658 -0.9334
19019SOL    HW269117   9.766   6.331   2.896  0.9006 -0.5414 -0.5648
19020SOL     OW69118   7.759   3.082   0.131 -0.2298  0.3362  0.1571
19020SOL    HW169119   7.753   3.182   0.123  2.7523  0.7203  2.0545
19020SOL    HW269120   7.798   3.045   0.047  1.4102  1.0878  0.5701
19021SOL     OW69121   7.641   6.891   8.618  0.5440 -0.5175  0.1396
19021SOL    HW169122   7.631   6.879   8.519  0.3822  1.9478 -0.1626
19021SOL    HW269123   7.736   6.877   8.644  0.5754 -1.2311 -0.3542
19022SOL     OW69124   8.805   7.218   2.298  0.1260 -0.3833 -0.2985
19022SOL    HW169125   8.863   7.204   2.378  0.6720  3.6435  0.1029
19022SOL    HW269126   8.859   7.259   2.225 -1.7746  1.8726 -0.4986
19023SOL     OW69127   1.688   0.099   7.618  0.1564  0.4882 -0.4294
19023SOL    HW169128   1.624   0.067   7.688  0.9134  0.0729  0.0745
19023SOL    HW269129   1.638   0.115   7.533 -0.6591  0.3812  0.0167
19024SOL     OW69130   5.171   0.794   3.967 -0.2251 -0.0499  0.1135
19024SOL    HW169131   5.168   0.892   3.945 -0.8818  0.5544  2.6855
19024SOL    HW269132   5.253   0.753   3.926  0.1497  1.6148 -0.8506
19025SOL     OW69133   9.495   9.586   0.137 -0.1941 -0.5647 -0.0253
19025SOL    HW169134   9.468   9.673   0.178  0.5958 -0.5521  0.4661
19025SOL    HW269135   9.417   9.524   0.137 -0.8718  0.2633 -0.7207
19026SOL     OW69136   4.942   8.723   1.330  0.3573  0.5161 -0.1878
19026SOL    HW169137   4.982   8.714   1.421  0.9302 -0.1935 -0.5092
19026SOL    HW269138   4.854   8.675   1.326  1.4436 -1.4550 -0.6892
19027SOL     OW69139   7.879   6.809   8.702  0.0175  0.0775 -0.0877
19027SOL    HW169140   7.960   6.867   8.718  0.3333 -0.9102  2.0895
19027SOL    HW269141   7.832   6.793   8.789 -0.2149 -2.6938 -0.6684
19028SOL     OW69142   3.106   1.381   0.502  0.3369  0.0777 -0.1896
19028SOL    HW169143   3.054   1.426   0.429 -0.5576  0.5377  0.7245
19028SOL    HW269144   3.185   1.335   0.462 -0.0872  0.4053 -1.4442
19029SOL     OW69145   1.385   5.687   9.343 -0.3458 -0.2894  0.2314
19029SOL    HW169146   1.405   5.785   9.339  1.4398 -0.6448 -0.2540
19029SOL    HW269147   1.351   5.655   9.255 -0.4998 -0.1927  0.2558
19030SOL     OW69148   4.883   8.044   2.175 -0.5190  0.2903 -0.0208
19030SOL    HW169149   4.837   7.957   2.158  1.2026 -0.6636  0.1496
19030SOL    HW269150   4.948   8.063   2.102 -1.0599  1.5527 -0.1787
19031SOL     OW69151   8.157   8.238   2.743  0.1904 -0.2207  0.0252
19031SOL    HW169152   8.063   8.210   2.722  0.4459 -1.7696  0.8668
19031SOL    HW269153   8.220   8.192   2.681  0.2958  2.3610 -1.8834
19032SOL     OW69154   7.514   5.057   2.078 -0.1400 -0.0050 -0.5268
19032SOL    HW169155   7.477   5.035   1.988 -1.3738  0.2053 -0.0672
19032SOL    HW269156   7.524   5.156   2.087 -1.8512  0.1038  0.2874
19033SOL     OW69157   1.862   4.488   7.987 -0.2415  0.1203  0.3028
19033SOL    HW169158   1.799   4.566   7.990 -0.8705 -0.4228  1.6470
19033SOL    HW269159   1.944   4.514   7.936 -1.7964  0.6389 -2.0471
19034SOL     OW69160   0.210   9.002   5.521 -0.0258  0.4685  0.5914
19034SOL    HW169161   0.273   9.000   5.444 -1.0180  0.8436 -0.2457
19034SOL    HW269162   0.228   9.084   5.576 -1.2063  1.7534 -0.8848
19035SOL     OW69163   9.136   4.697   9.465 -0.1644  0.1744  0.3891
19035SOL    HW169164   9.175   4.752   9.539  1.8315 -0.8234  0.1101
19035SOL    HW269165   9.156   4.600   9.480 -0.6898 -0.1534 -0.8905
19036SOL     OW69166   5.550   2.095   6.438  0.5551  0.1423 -0.4071
19036SOL    HW169167   5.469   2.083   6.494  0.8982  0.7371  0.2270
19036SOL    HW269168   5.525   2.089   6.341 -0.5176  1.8671 -0.2571
19037SOL     OW69169   2.663   7.677   8.703 -0.6876  0.4940 -0.3174
19037SOL    HW169170   2.661   7.777   8.702 -1.8346  0.4764 -0.8316
19037SOL    HW269171   2.627   7.642   8.616 -1.4642 -0.3721  0.3358
19038SOL     OW69172   3.215   9.104   7.920  0.3245 -0.5111 -0.0337
19038SOL    HW169173   3.219   9.138   7.826  2.1420  0.9233  0.5291
19038SOL    HW269174   3.307   9.089   7.955 -0.3544 -1.9287  1.2272
19039SOL     OW69175   7.308   0.301   6.344  0.2591 -0.1194 -0.4647
19039SOL    HW169176   7.402   0.330   6.325  0.6851 -3.1497 -3.5057
19039SOL    HW269177   7.246   0.341   6.277 -0.4899  0.9787  0.8623
19040SOL     OW69178   3.093   5.507   0.170 -0.0789 -0.6416  0.6938
19040SOL    HW169179   3.108   5.594   0.123 -0.9636 -1.2773 -0.7915
19040SOL    HW269180   3.178   5.455   0.171 -0.0945 -0.6932 -0.3523
19041SOL     OW69181   8.283   2.866   4.037 -0.2163 -0.1870 -0.3934
19041SOL    HW169182   8.303   2.829   4.128 -0.6318 -1.2056 -0.7032
19041SOL    HW269183   8.261   2.790   3.975  0.2676  0.4805 -1.3938
19042SOL     OW69184   4.033   4.167   1.776  0.0156  0.4117  0.2369
19042SOL    HW169185   4.127   4.140   1.755  0.4549  1.7083  0.4878
19042SOL    HW269186   4.019   4.263   1.752 -1.0720  0.4021  0.7662
19043SOL     OW69187   8.061   0.424   0.826  0.1151  0.1237 -0.1745
19043SOL    HW169188   8.143   0.427   0.883  0.8947  0.5626 -1.2889
19043SOL    HW269189   8.075   0.362   0.749 -0.8537 -0.3280  0.0019
19044SOL     OW69190   4.449   5.220   3.610 -0.3030  0.5106  0.0150
19044SOL    HW169191   4.502   5.241   3.692 -0.5106 -1.4907  0.7105
19044SOL    HW269192   4.373   5.284   3.602 -0.8567  0.1431  1.9573
19045SOL     OW69193   3.125   0.634   6.867  0.0928  0.1684  0.3025
19045SOL    HW169194   3.128   0.615   6.769  2.4243 -1.5429  0.6587
19045SOL    HW269195   3.162   0.725   6.884 -2.2010  1.3103 -0.5454
19046SOL     OW69196   3.830   8.868   6.310  0.4080 -0.6877 -0.0697
19046SOL    HW169197   3.868   8.864   6.217 -1.2594  3.4238 -1.0441
19046SOL    HW269198   3.747   8.924   6.310  0.1773 -0.8885  3.8485
19047SOL     OW69199   5.542   0.866   7.295 -0.2287 -0.3849  0.4799
19047SOL    HW169200   5.462   0.808   7.280  0.6083 -1.6141  0.6768
19047SOL    HW269201   5.625   0.815   7.271  0.3531  1.8132 -2.4655
19048SOL     OW69202   6.538   9.701   1.925 -1.5499 -0.2474  0.3872
19048SOL    HW169203   6.439   9.688   1.932 -1.4347 -2.8422 -2.0534
19048SOL    HW269204   6.583   9.653   2.000 -2.0413 -1.0856  0.1586
19049SOL     OW69205   1.822   7.696   8.738  0.1783  0.8389 -0.3897
19049SOL    HW169206   1.850   7.768   8.674  0.4707 -0.4651 -1.7600
19049SOL    HW269207   1.884   7.618   8.730 -1.1328 -0.2568 -0.1640
19050SOL     OW69208   8.237   6.512   0.144  0.0781  0.4565  0.3431
19050SOL    HW169209   8.207   6.425   0.181  0.2604  0.6975  1.0751
19050SOL    HW269210   8.189   6.531   0.059 -0.1216 -0.2508  0.2973
19051SOL     OW69211   6.835   9.060   2.979  0.3765  0.8543 -0.3353
19051SOL    HW169212   6.768   9.088   3.048 -0.7404 -1.7649 -0.2910
19051SOL    HW269213   6.814   9.105   2.892 -1.4857  0.0274 -0.3280
19052SOL     OW69214   0.707   7.658   1.035  0.5299  0.4901 -0.0832
19052SOL    HW169215   0.625   7.634   0.983  1.3343  0.6992 -1.4700
19052SOL    HW269216   0.783   7.671   0.972  1.3300  1.5516  1.0996
19053SOL     OW69217   3.879   9.625   4.219 -0.6973 -0.3980  0.2958
19053SOL    HW169218   3.820   9.554   4.180 -1.6431  0.0778  0.8495
19053SOL    HW269219   3.974   9.607   4.193 -1.1285 -0.9430 -0.9361
19054SOL     OW69220   9.112   2.483   1.918  0.0871  0.2980 -0.4069
19054SOL    HW169221   9.099   2.403   1.859  0.5956 -0.1102  0.0315
19054SOL    HW269222   9.185   2.541   1.880  0.0720  0.2922 -0.4454
19055SOL     OW69223   3.292   3.551   2.251  0.3147  0.2627 -0.0539
19055SOL    HW169224   3.307   3.467   2.304 -2.1502  0.0225  0.3332
19055SOL    HW269225   3.276   3.527   2.155  0.3152  0.3374 -0.0721
19056SOL     OW69226   2.401   6.792   4.254  0.2309  0.0958  0.1190
19056SOL    HW169227   2.358   6.768   4.167  1.3537  1.6544 -0.8959
19056SOL    HW269228   2.424   6.709   4.305 -2.4597 -0.7886 -0.0472
19057SOL     OW69229   3.904   1.470   4.061 -0.3311 -0.2361  0.6376
19057SOL    HW169230   3.863   1.558   4.084  2.5465  0.5155  3.3406
19057SOL    HW269231   3.834   1.400   4.058 -2.3094  1.6602  1.2596
19058SOL     OW69232   1.935   2.106   4.551 -0.0333 -0.8097  0.2409
19058SOL    HW169233   1.898   2.185   4.503 -0.3092 -0.8332  0.4152
19058SOL    HW269234   1.897   2.022   4.514 -1.2503 -0.7692  1.3628
19059SOL     OW69235   3.709   0.044   3.484  0.5905  0.1018  0.1771
19059SOL    HW169236   3.717   0.140   3.512  1.1903 -0.6194  2.6639
19059SOL    HW269237   3.797  -0.002   3.498 -0.5436 -1.5486  2.0941
19060SOL     OW69238   8.828   1.469   7.588  0.0366  0.5793 -0.5667
19060SOL    HW169239   8.732   1.488   7.572 -0.3329  0.3911  1.2435
19060SOL    HW269240   8.883   1.551   7.570 -0.5650  0.9471 -0.7249
19061SOL     OW69241   7.741   3.253   1.126  0.3376 -0.1664  0.2024
19061SOL    HW169242   7.679   3.186   1.084  1.1601 -0.9304  0.2062
19061SOL    HW269243   7.804   3.206   1.187  2.1190  0.3582 -1.1901
19062SOL     OW69244   3.014   5.537   2.734  0.1668  0.1678 -0.8332
19062SOL    HW169245   3.083   5.535   2.806  0.0263 -1.2769 -0.7055
19062SOL    HW269246   3.057   5.530   2.645  0.2154 -0.6635 -0.7562
19063SOL     OW69247   7.573   7.248   6.656 -0.0121 -0.0001  0.1509
19063SOL    HW169248   7.652   7.240   6.717 -0.1490  0.9162  0.4439
19063SOL    HW269249   7.571   7.338   6.614 -0.6584 -0.1716 -0.2009
19064SOL     OW69250   1.563   1.938   4.092 -0.1848 -0.3940  0.0274
19064SOL    HW169251   1.475   1.920   4.134  0.2208 -1.5617  0.3821
19064SOL    HW269252   1.625   1.862   4.109  1.1909  0.8169  0.5782
19065SOL     OW69253   5.155   2.626   0.853 -0.5667 -0.3554 -0.0481
19065SOL    HW169254   5.181   2.642   0.948 -0.7480  2.3331 -0.4240
19065SOL    HW269255   5.228   2.657   0.792 -1.7567  0.8637 -0.8736
19066SOL     OW69256   7.983   4.922   7.041 -0.1375  0.2295  0.1264
19066SOL    HW169257   8.054   4.967   7.094  0.9108 -0.5275 -0.6145
19066SOL    HW269258   7.926   4.991   6.996 -0.2494  0.8498  1.2003
19067SOL     OW69259   3.623   0.846   4.098  0.1758 -0.1718 -0.0371
19067SOL    HW169260   3.598   0.893   4.182  2.1087 -1.2414  1.1753
19067SOL    HW269261   3.553   0.778   4.075 -1.3575  1.5080 -0.4185
19068SOL     OW69262   7.292   6.213   2.878 -0.1383 -0.8627  0.2897
19068SOL    HW169263   7.337   6.125   2.888  2.6792  0.6893  1.7521
19068SOL    HW269264   7.313   6.252   2.788 -0.0394 -0.9423  0.2790
19069SOL     OW69265   1.372   0.261   3.222 -0.2066  0.0992  0.1081
19069SOL    HW169266   1.346   0.286   3.128  0.9261  0.6364 -0.0784
19069SOL    HW269267   1.465   0.295   3.240  0.3186 -1.6751  0.7797
19070SOL     OW69268   8.306   1.102   2.271 -0.4932  0.5127  0.4597
19070SOL    HW169269   8.326   1.195   2.243  1.1258 -0.2615 -1.0760
19070SOL    HW269270   8.284   1.047   2.190 -0.0538 -0.7593  1.1901
19071SOL     OW69271   3.392   0.143   0.696 -0.1858 -0.1710  0.1285
19071SOL    HW169272   3.325   0.156   0.622 -0.0885 -0.0648  0.0584
19071SOL    HW269273   3.344   0.126   0.782 -0.2910 -1.7943 -0.2347
19072SOL     OW69274   9.716   9.335   0.161  0.1466  0.4165 -0.4235
19072SOL    HW169275   9.715   9.375   0.070  2.4200  1.3294 -0.0827
19072SOL    HW269276   9.808   9.304   0.183 -0.9959 -2.6540  0.3812
19073SOL     OW69277   3.714   9.141   1.561  0.1647  0.4989 -0.3728
19073SOL    HW169278   3.747   9.232   1.586 -2.5976  1.9582 -1.8161
19073SOL    HW269279   3.625   9.125   1.603  0.3703 -1.3375 -0.6037
19074SOL     OW69280   4.664   5.509   3.470 -0.1141 -0.3701 -0.2847
19074SOL    HW169281   4.654   5.448   3.391  1.5959 -0.8510 -0.1512
19074SOL    HW269282   4.759   5.541   3.475 -0.0427 -0.8557  1.9326
19075SOL     OW69283   1.953   7.578   7.103 -0.2219  0.5651 -0.5738
19075SOL    HW169284   1.854   7.567   7.087 -0.0035 -1.3489 -0.7791
19075SOL    HW269285   1.968   7.604   7.198 -0.8262 -1.7007  0.1909
19076SOL     OW69286   4.017   3.764   1.956 -0.0421  0.5633 -0.1520
19076SOL    HW169287   3.963   3.700   2.010  1.4069  1.3391  2.2991
19076SOL    HW269288   3.965   3.848   1.942 -0.9393 -0.1457 -1.1452
19077SOL     OW69289   8.618   5.760   6.811  0.1637  0.0573 -0.1026
19077SOL    HW169290   8.699   5.783   6.757  0.3614  0.0485  0.1876
19077SOL    HW269291   8.553   5.835   6.808  1.0022  0.8549  1.2115
19078SOL     OW69292   8.123   0.873   7.696 -0.1028  0.6613 -0.4193
19078SOL    HW169293   8.096   0.793   7.750  1.0746  1.4013  1.3133
19078SOL    HW269294   8.086   0.956   7.737 -0.3762  1.1134 -1.5671
19079SOL     OW69295   2.999   5.183   6.634 -1.0380  0.1052 -0.4832
19079SOL    HW169296   3.085   5.225   6.606  0.0514 -0.8349  1.3403
19079SOL    HW269297   2.977   5.107   6.574 -0.0185 -0.3392 -0.2913
19080SOL     OW69298   9.135   2.408   1.113 -0.4483  0.2604 -0.1674
19080SOL    HW169299   9.125   2.495   1.162  1.9589 -0.2969  1.3751
19080SOL    HW269300   9.096   2.418   1.021 -1.6298  2.4811  0.5353
19081SOL     OW69301   4.279   9.506   1.202 -0.0662 -0.6633  0.0686
19081SOL    HW169302   4.285   9.569   1.280  0.8448 -1.6607  0.8113
19081SOL    HW269303   4.218   9.430   1.225 -0.4284 -0.5491 -0.4935
19082SOL     OW69304   7.367   7.075   5.354  0.5702  0.0305 -0.4886
19082SOL    HW169305   7.462   7.106   5.350  0.9405 -1.0243  0.0504
19082SOL    HW269306   7.356   6.993   5.299 -0.0344  0.1421 -0.5386
19083SOL     OW69307   6.046   0.645   3.433  0.0600  0.2134 -0.2223
19083SOL    HW169308   6.089   0.599   3.511  0.2779  0.1391 -0.3846
19083SOL    HW269309   6.069   0.596   3.349 -0.2643  0.2296 -0.3208
19084SOL     OW69310   3.701   3.646   6.621  0.5646  0.8101  0.0939
19084SOL    HW169311   3.787   3.696   6.622  0.4598  1.0212 -0.6353
19084SOL    HW269312   3.658   3.656   6.531  0.1939  0.0005  0.1753
19085SOL     OW69313   5.150   9.790   1.127  0.7940  0.5474  0.3140
19085SOL    HW169314   5.175   9.783   1.031  1.1904 -0.9461  0.5162
19085SOL    HW269315   5.201   9.723   1.180 -1.8902 -0.9712  1.0818
19086SOL     OW69316   5.582   6.496   9.974 -0.7361 -0.5266  0.0620
19086SOL    HW169317   5.530   6.410   9.972 -2.1152  0.3108 -2.1854
19086SOL    HW269318   5.530   6.567   9.927  1.3371  1.0221  0.0384
19087SOL     OW69319   6.427   0.129   7.320 -0.4226 -0.1449  0.0385
19087SOL    HW169320   6.380   0.104   7.405 -0.9970  1.1078  0.1106
19087SOL    HW269321   6.428   0.229   7.311  0.7552 -0.2211 -0.8018
19088SOL     OW69322   8.193   9.673   2.156  0.1188  0.3024 -0.0462
19088SOL    HW169323   8.123   9.745   2.165  0.8235  1.2048 -1.6424
19088SOL    HW269324   8.239   9.660   2.244  1.2282  3.1200 -0.1607
19089SOL     OW69325   4.849   6.072   7.647 -0.1386 -0.4507  0.1215
19089SOL    HW169326   4.762   6.046   7.690 -0.3370 -0.2749 -0.1708
19089SOL    HW269327   4.867   6.168   7.664 -0.3690 -0.3035 -0.4408
19090SOL     OW69328   3.525   2.125   8.679 -0.5915 -0.6532  0.0839
19090SOL    HW169329   3.561   2.039   8.713  1.5989  0.6875  1.2619
19090SOL    HW269330   3.593   2.169   8.620 -1.8405  0.0991 -0.8357
19091SOL     OW69331   1.022   7.181   0.706  0.4729  0.4444  0.3986
19091SOL    HW169332   0.981   7.214   0.621 -0.1710  1.0346  0.9313
19091SOL    HW269333   1.018   7.253   0.775  0.8078 -0.1027  0.9930
19092SOL     OW69334   4.004   9.090   8.235 -0.2704  0.6029 -0.0919
19092SOL    HW169335   4.097   9.054   8.241 -0.7495 -1.0853 -2.1145
19092SOL    HW269336   3.939   9.014   8.233 -1.6969  1.7658  1.2315
19093SOL     OW69337   9.584   2.111   3.186  0.1733 -0.2565 -0.5527
19093SOL    HW169338   9.668   2.160   3.166 -0.0099 -0.1809 -1.1646
19093SOL    HW269339   9.513   2.175   3.213 -0.3562 -0.0603 -2.3374
19094SOL     OW69340   1.611   4.778   4.618  0.5178 -0.3657 -0.6594
19094SOL    HW169341   1.542   4.708   4.636  0.2877 -0.1121 -0.5637
19094SOL    HW269342   1.664   4.795   4.701  0.1790  0.0093 -0.5214
19095SOL     OW69343   4.364   1.255   3.550 -0.2891  0.0386  0.3199
19095SOL    HW169344   4.419   1.210   3.621  1.8713  0.5453 -0.9810
19095SOL    HW269345   4.341   1.348   3.580  3.4441  1.4788 -0.8971
19096SOL     OW69346   0.103   5.232   8.764 -0.0195 -0.0585  0.1462
19096SOL    HW169347   0.171   5.282   8.710 -0.4347 -0.9983 -1.2527
19096SOL    HW269348   0.150   5.176   8.832  0.6391 -0.9802 -1.0486
19097SOL     OW69349   0.326   0.239   4.874  0.0507 -0.0064 -0.0316
19097SOL    HW169350   0.383   0.309   4.832  1.3727 -0.0798  1.5523
19097SOL    HW269351   0.230   0.267   4.872  0.5192  1.6783  0.2554
19098SOL     OW69352   2.293   8.367   6.157 -0.2776  0.8727  0.9768
19098SOL    HW169353   2.278   8.427   6.079  1.4421 -1.6776 -1.3961
19098SOL    HW269354   2.391   8.366   6.180 -0.2999 -0.8843  1.0490
19099SOL     OW69355   7.517   0.455   2.203 -0.1965  0.0112  0.3187
19099SOL    HW169356   7.557   0.363   2.209 -0.9745 -0.3137  0.6325
19099SOL    HW269357   7.584   0.518   2.166  0.1105 -0.8495 -0.6174
19100SOL     OW69358   9.287   5.068   7.127 -0.0246  0.7411  0.0224
19100SOL    HW169359   9.337   5.136   7.073 -0.4433  0.1290 -1.1618
19100SOL    HW269360   9.201   5.046   7.081  0.1702 -0.6927  0.3293
19101SOL     OW69361   9.512   6.363   3.191 -0.4828  0.4643 -0.4529
19101SOL    HW169362   9.577   6.421   3.240 -0.9295  0.9440 -0.4287
19101SOL    HW269363   9.499   6.398   3.098  1.6645 -1.4017 -1.5294
19102SOL     OW69364   2.892   1.304   2.946 -0.1457  0.1275 -0.0005
19102SOL    HW169365   2.977   1.335   2.904  0.4285  0.6250  1.4977
19102SOL    HW269366   2.825   1.378   2.946 -0.8822 -0.5152 -1.9314
19103SOL     OW69367   2.168   1.284   3.094 -0.4971 -0.1190 -0.0129
19103SOL    HW169368   2.080   1.289   3.142  0.4059  1.6830  1.5081
19103SOL    HW269369   2.211   1.196   3.113 -1.8361 -0.9016 -0.5409
19104SOL     OW69370   4.112   0.665   8.856  0.1129  0.1966  0.0719
19104SOL    HW169371   4.065   0.752   8.873 -0.3797 -0.0022 -0.2520
19104SOL    HW269372   4.210   0.677   8.870 -0.0870  0.4715  1.3193
19105SOL     OW69373   4.582   2.409   1.446 -0.5930  0.3347  0.5975
19105SOL    HW169374   4.631   2.350   1.510  0.0868 -0.1292 -0.3430
19105SOL    HW269375   4.611   2.504   1.459  0.8847  0.0123 -0.2383
19106SOL     OW69376   0.149   4.149   4.731 -0.1406 -0.1259  0.0944
19106SOL    HW169377   0.162   4.236   4.777 -1.7895  1.0614 -1.6090
19106SOL    HW269378   0.236   4.115   4.696  0.4342  1.0362  0.4022
19107SOL     OW69379   8.689   2.229   2.675 -0.4008 -0.1680  0.3798
19107SOL    HW169380   8.682   2.262   2.770  0.8752  0.2254  0.3423
19107SOL    HW269381   8.667   2.131   2.672  0.2503 -0.3450  1.1966
19108SOL     OW69382   0.237   2.701   9.905 -0.7167 -0.2410 -0.0510
19108SOL    HW169383   0.301   2.740   9.839  0.1016 -1.5374 -0.0426
19108SOL    HW269384   0.238   2.755   9.989 -0.5565  0.4579 -0.4952
19109SOL     OW69385   1.642   4.332   0.320 -0.2791 -0.4289 -0.5590
19109SOL    HW169386   1.568   4.396   0.341  1.5431  1.7968 -0.7059
19109SOL    HW269387   1.640   4.310   0.223  0.2611  0.9928 -0.9076
19110SOL     OW69388   1.074   8.523   8.152  0.3815 -0.0655  0.7653
19110SOL    HW169389   1.031   8.580   8.222  2.0420  0.7478  1.1472
19110SOL    HW269390   1.048   8.556   8.061 -0.0910  0.1898  0.9898
19111SOL     OW69391   6.371   3.609   8.051  0.1056 -0.4438 -0.4656
19111SOL    HW169392   6.390   3.630   7.956  0.4361 -1.1628 -0.5634
19111SOL    HW269393   6.393   3.688   8.108 -0.4330  0.1117 -1.0207
19112SOL     OW69394   6.432   1.023   2.872 -0.6591  0.2123 -0.1962
19112SOL    HW169395   6.338   1.052   2.890  0.3778  2.4165  2.0772
19112SOL    HW269396   6.437   0.923   2.873 -2.5425  0.0920  2.1453
19113SOL     OW69397   4.962   3.502   7.491  0.2119 -0.3165 -0.1746
19113SOL    HW169398   4.996   3.408   7.479  0.7498 -0.0248 -0.9751
19113SOL    HW269399   5.011   3.563   7.429 -0.8275  0.3381 -0.3594
19114SOL     OW69400   1.189   8.840   0.807 -0.1568  0.0732  0.8109
19114SOL    HW169401   1.114   8.880   0.753 -1.4045 -2.9953  0.1505
19114SOL    HW269402   1.271   8.836   0.750 -0.5456 -0.0404  0.2430
19115SOL     OW69403   1.283   9.585   8.908 -0.0020 -0.0395 -0.1454
19115SOL    HW169404   1.372   9.566   8.865 -0.4132 -2.7780  0.1150
19115SOL    HW269405   1.211   9.580   8.839 -0.2603 -0.7733  0.1694
19116SOL     OW69406   8.050   0.819   3.940  0.1268 -0.4597 -0.5332
19116SOL    HW169407   8.127   0.785   3.885 -1.2973 -0.7915 -2.3862
19116SOL    HW269408   7.976   0.752   3.937 -0.3025 -0.0661  1.1001
19117SOL     OW69409   1.778   7.368   5.218  0.6683  0.1372  0.3174
19117SOL    HW169410   1.796   7.436   5.290  0.0663  1.2394 -0.5647
19117SOL    HW269411   1.849   7.373   5.149  0.6517 -0.1772  0.2772
19118SOL     OW69412   4.111   5.415   6.638  0.5843  0.6368  0.0236
19118SOL    HW169413   4.019   5.432   6.672  0.4603 -1.7482  1.0032
19118SOL    HW269414   4.163   5.500   6.639 -1.1700  1.7318  0.8057
19119SOL     OW69415   8.190   8.614   6.993 -0.0436 -0.0612 -0.0887
19119SOL    HW169416   8.277   8.564   6.988  1.4425  2.3587  0.6338
19119SOL    HW269417   8.180   8.670   6.911 -1.4330 -1.0628 -0.6264
19120SOL     OW69418   9.470   2.417   0.786 -0.1661  0.1296  0.1897
19120SOL    HW169419   9.458   2.512   0.814  2.9411  0.9706 -1.0810
19120SOL    HW269420   9.510   2.365   0.861  0.5110  0.4447  0.0513
19121SOL     OW69421   0.403   9.748   1.545 -0.0995  0.8746  0.0361
19121SOL    HW169422   0.445   9.818   1.488  2.0338  0.7975  1.4694
19121SOL    HW269423   0.474   9.693   1.588 -1.7320 -1.7147 -0.4734
19122SOL     OW69424   0.857   9.043   4.670  0.6965  0.3012  0.0853
19122SOL    HW169425   0.771   9.009   4.633  1.6787 -0.6856 -1.3544
19122SOL    HW269426   0.909   9.088   4.598  1.6958  0.2469  0.7573
19123SOL     OW69427   5.759   2.854   5.334 -0.3786 -0.2991  0.8316
19123SOL    HW169428   5.663   2.872   5.314 -1.1158 -3.8185  0.9068
19123SOL    HW269429   5.779   2.757   5.321  3.7300  0.6865 -1.3866
19124SOL     OW69430   1.415   9.931   2.787 -0.2781 -1.0374  0.0707
19124SOL    HW169431   1.362   9.852   2.819 -1.7714  1.8084  5.2442
19124SOL    HW269432   1.352  10.005   2.763  1.2076  0.6967  1.4016
19125SOL     OW69433   1.997   0.749   1.803  0.3372 -0.0116 -0.5463
19125SOL    HW169434   1.972   0.659   1.838  2.3268 -0.1740  0.5095
19125SOL    HW269435   1.932   0.776   1.732 -0.8405 -1.8499 -0.2051
19126SOL     OW69436   6.425   2.982   1.816  0.5253  0.3787 -0.4811
19126SOL    HW169437   6.342   3.013   1.770 -0.3810  1.0623  1.5517
19126SOL    HW269438   6.494   2.960   1.748 -0.7396  1.4303 -2.1591
19127SOL     OW69439   3.109   9.422   0.932  0.4140  0.2192 -0.1517
19127SOL    HW169440   3.206   9.408   0.949  0.6165  3.6332  2.0422
19127SOL    HW269441   3.094   9.440   0.835  1.9759 -0.1959 -0.4815
19128SOL     OW69442   0.780   9.744   8.288  0.0232  0.6640 -0.2836
19128SOL    HW169443   0.684   9.719   8.298  0.0048  0.8324 -0.0307
19128SOL    HW269444   0.812   9.721   8.196  0.2809 -1.1940  0.2620
19129SOL     OW69445   1.422   5.745   8.313  0.1982  0.5840  0.4503
19129SOL    HW169446   1.335   5.794   8.321  0.3669  1.0837 -0.7225
19129SOL    HW269447   1.497   5.806   8.340  0.3971  0.9332 -0.8864
19130SOL     OW69448   7.139   1.540   2.050 -0.0569 -0.0545 -0.1343
19130SOL    HW169449   7.049   1.517   2.087  0.3620 -0.4334  0.6490
19130SOL    HW269450   7.209   1.484   2.094  0.4094 -0.8202 -1.7838
19131SOL     OW69451   0.180   0.936   0.965  0.5921  0.1387  0.2330
19131SOL    HW169452   0.219   1.017   1.011  1.8288 -0.0071 -0.5327
19131SOL    HW269453   0.081   0.946   0.959  0.8786  2.4256 -1.3730
19132SOL     OW69454   5.288   9.192   4.818  0.4014 -0.1376 -0.2124
19132SOL    HW169455   5.367   9.138   4.790  1.8534  0.7916  1.9527
19132SOL    HW269456   5.286   9.198   4.918 -1.7496  0.8266 -0.2978
19133SOL     OW69457   2.088   8.390   1.827 -0.3388  0.3644  0.0371
19133SOL    HW169458   2.046   8.322   1.887 -0.3789  1.5307  1.3666
19133SOL    HW269459   2.187   8.373   1.822 -0.7873 -1.7499 -2.2638
19134SOL     OW69460   9.374   3.866   6.009 -0.1921 -0.2174 -0.0057
19134SOL    HW169461   9.318   3.783   6.005  1.7820 -1.5648 -0.3407
19134SOL    HW269462   9.455   3.850   6.065 -0.9474  2.2378  1.8895
19135SOL     OW69463   4.047   1.083   5.794 -0.2291  0.7339 -0.2769
19135SOL    HW169464   4.030   0.986   5.810 -1.1088  0.8563 -0.4143
19135SOL    HW269465   4.126   1.094   5.733 -0.4343  0.0807 -0.6643
19136SOL     OW69466   7.533   2.665   8.138 -0.1453 -0.3771 -0.1686
19136SOL    HW169467   7.598   2.597   8.171  0.0837  0.1095  0.3964
19136SOL    HW269468   7.513   2.730   8.212 -0.0421  0.4078 -0.8247
19137SOL     OW69469   6.179   5.384   9.250  0.1496 -0.7451  0.1507
19137SOL    HW169470   6.086   5.346   9.254  0.4068 -1.1866  3.1126
19137SOL    HW269471   6.244   5.311   9.231  0.2027 -1.0534  1.4568
19138SOL     OW69472   8.834   8.965   5.061 -0.3101  0.3402 -0.3930
19138SOL    HW169473   8.846   8.893   5.129 -1.9368 -0.8394 -1.3275
19138SOL    HW269474   8.817   8.925   4.972  1.3794  1.8836 -1.4501
19139SOL     OW69475   3.761   4.497   5.120 -0.1534  0.5599 -0.1061
19139SOL    HW169476   3.789   4.575   5.064 -2.2704 -0.2618 -2.4094
19139SOL    HW269477   3.661   4.494   5.125 -0.1213 -2.1400 -0.2672
19140SOL     OW69478   1.489   9.010   2.771  0.2659  0.5535 -0.3331
19140SOL    HW169479   1.573   8.962   2.744 -0.9308 -0.7257 -1.8319
19140SOL    HW269480   1.409   8.957   2.742 -1.0872  1.1206  2.1989
19141SOL     OW69481   7.428   7.925   1.842 -0.3246 -0.1125 -0.3298
19141SOL    HW169482   7.363   7.865   1.795 -0.2969  0.2155 -0.7941
19141SOL    HW269483   7.486   7.871   1.902 -1.2672 -0.3667  0.3602
19142SOL     OW69484   8.669   3.397   5.267  0.4504 -0.8043  0.2785
19142SOL    HW169485   8.746   3.394   5.204  0.6595 -3.1165  0.6062
19142SOL    HW269486   8.596   3.453   5.228  1.3049 -0.6561 -1.1496
19143SOL     OW69487   0.967   2.556   9.351 -0.8539  0.3091  0.0292
19143SOL    HW169488   0.942   2.482   9.414  1.8113  1.1312  2.1586
19143SOL    HW269489   1.050   2.530   9.302 -0.3137  1.5945  0.2582
19144SOL     OW69490   9.417   3.386   5.688 -0.2377 -0.2811  0.2260
19144SOL    HW169491   9.351   3.314   5.708 -0.9385  0.2661 -0.1370
19144SOL    HW269492   9.418   3.406   5.590 -0.0089  0.1731  0.3166
19145SOL     OW69493   2.286   2.892   8.815  0.1538 -0.2740 -0.7514
19145SOL    HW169494   2.345   2.946   8.755  0.2185 -0.4565 -0.8482
19145SOL    HW269495   2.228   2.954   8.869 -0.4009 -0.1279 -1.5084
19146SOL     OW69496   4.403   0.020   3.276 -0.5556 -0.3458 -0.0137
19146SOL    HW169497   4.333   0.092   3.275 -1.4167 -1.1378  1.8353
19146SOL    HW269498   4.488   0.056   3.313 -0.0402  0.5353 -1.9708
19147SOL     OW69499   2.511   1.023   3.954  0.6527 -0.2951  0.3109
19147SOL    HW169500   2.581   0.966   3.996  0.9254 -0.5335 -0.4503
19147SOL    HW269501   2.491   1.100   4.013  0.9683 -0.6714  0.9122
19148SOL     OW69502   8.413   3.249   9.990 -0.1317  0.6717 -0.1653
19148SOL    HW169503   8.319   3.277  10.011  0.1412  0.7678  0.9240
19148SOL    HW269504   8.468   3.331   9.970  0.2257  0.7783  1.2451
19149SOL     OW69505   8.432   5.989   6.816  0.0512  0.0812  0.3318
19149SOL    HW169506   8.498   6.050   6.861  0.5866  0.3377 -0.7856
19149SOL    HW269507   8.343   6.034   6.812  0.2824  0.5209  0.1062
19150SOL     OW69508   4.747   4.556   9.543  0.3380  0.3676 -0.9151
19150SOL    HW169509   4.746   4.468   9.496  0.3015  0.4813 -1.1248
19150SOL    HW269510   4.828   4.607   9.516  2.0662 -0.9230  1.6049
19151SOL     OW69511   4.655   1.256   7.266  0.3234 -0.0435  0.0280
19151SOL    HW169512   4.593   1.252   7.188  0.8588  0.9863 -0.4759
19151SOL    HW269513   4.610   1.219   7.347 -0.7963  0.3218 -0.4167
19152SOL     OW69514   4.007   7.018   2.608  0.1747  0.0184  0.4935
19152SOL    HW169515   4.017   6.976   2.518  1.1536 -0.6275  0.8906
19152SOL    HW269516   4.097   7.032   2.648 -0.2057  1.4709  0.8468
19153SOL     OW69517   2.549   2.944   4.860  0.6944 -0.7390 -0.3273
19153SOL    HW169518   2.617   3.017   4.855  0.9556 -0.9395  0.2982
19153SOL    HW269519   2.570   2.883   4.936  0.8150 -1.8050 -1.1962
19154SOL     OW69520   2.920   6.828   1.666 -0.0491  0.5046 -0.3023
19154SOL    HW169521   2.996   6.763   1.676 -0.6088  0.2041  2.6259
19154SOL    HW269522   2.956   6.920   1.650  0.9779  0.3888  1.1902
19155SOL     OW69523   3.603   1.153   8.851  0.5474  0.2481  0.3168
19155SOL    HW169524   3.555   1.208   8.919  1.7771  0.8379  0.7066
19155SOL    HW269525   3.638   1.212   8.778  0.4256 -0.2185 -0.1262
19156SOL     OW69526   4.982   5.386   9.558 -0.0872  0.8428 -0.1379
19156SOL    HW169527   5.015   5.332   9.635 -1.3149  1.3168  0.7512
19156SOL    HW269528   4.999   5.338   9.473  0.7494  0.0356  0.4793
19157SOL     OW69529   5.009   7.423   3.314 -0.1001  0.1154 -0.1714
19157SOL    HW169530   4.967   7.512   3.329  0.1619  0.2090  0.0234
19157SOL    HW269531   5.079   7.431   3.243 -0.3768 -0.0302 -0.4630
19158SOL     OW69532   0.816   7.680   9.578 -0.0875 -0.9650 -0.2043
19158SOL    HW169533   0.789   7.648   9.669 -0.2620  0.2051  0.1533
19158SOL    HW269534   0.885   7.617   9.540  0.6657 -0.9541  1.1037
19159SOL     OW69535   8.054   1.067   5.218 -0.2676  0.3424 -0.2962
19159SOL    HW169536   8.103   1.078   5.131  0.4140 -0.5736 -0.0339
19159SOL    HW269537   8.050   0.970   5.242 -2.8793  0.3387 -0.6742
19160SOL     OW69538   3.113   4.116   1.998 -0.3028  0.1880 -0.1636
19160SOL    HW169539   3.083   4.050   2.068 -0.9756 -1.3184 -1.8296
19160SOL    HW269540   3.039   4.180   1.979 -0.6590 -0.3421 -0.5747
19161SOL     OW69541   9.894   5.764   1.681  0.5592  0.0353  0.3512
19161SOL    HW169542   9.847   5.678   1.695  0.2004  0.3684  1.2311
19161SOL    HW269543   9.984   5.761   1.724  1.6059 -0.8041 -1.8106
19162SOL     OW69544   6.780   9.267   1.221 -0.7490 -0.4285 -0.3077
19162SOL    HW169545   6.705   9.333   1.221 -0.4547 -0.0902  0.0334
19162SOL    HW269546   6.757   9.191   1.281 -0.3920  0.1809  0.6322
19163SOL     OW69547   9.120   1.589   2.979 -0.4928  0.1998  0.2488
19163SOL    HW169548   9.136   1.499   2.939 -1.0132  0.2695 -0.1225
19163SOL    HW269549   9.121   1.658   2.907 -1.4156  0.3316  0.3525
19164SOL     OW69550   3.454   5.701   9.279  0.1950 -0.2164 -0.7631
19164SOL    HW169551   3.476   5.667   9.188  0.9005  0.1768 -0.7419
19164SOL    HW269552   3.485   5.635   9.348 -0.2708 -0.4788 -0.8098
19165SOL     OW69553   6.181   9.825   6.504 -0.0503 -0.0180  0.0225
19165SOL    HW169554   6.187   9.922   6.480 -2.8470  0.2470  0.2781
19165SOL    HW269555   6.243   9.806   6.581 -1.6825  2.2390  1.9736
19166SOL     OW69556   1.057   4.090   5.240  0.0169 -0.1777 -0.5049
19166SOL    HW169557   0.972   4.121   5.283  1.1450  0.9126  0.9807
19166SOL    HW269558   1.126   4.162   5.245  0.5157 -0.4122 -3.2448
19167SOL     OW69559   2.228   5.892   1.415 -0.0450  0.2823 -0.3813
19167SOL    HW169560   2.193   5.982   1.440 -1.3493 -0.2833 -0.1484
19167SOL    HW269561   2.270   5.849   1.496 -0.1767  0.3302 -0.2871
19168SOL     OW69562   6.285   2.556   1.611  0.4883 -0.1691  0.8312
19168SOL    HW169563   6.310   2.617   1.535 -0.3718 -0.6342  0.1773
19168SOL    HW269564   6.288   2.461   1.581 -0.4012 -0.3276  1.2309
19169SOL     OW69565   0.744   2.738   4.984  0.0800 -0.3997 -0.2019
19169SOL    HW169566   0.826   2.686   4.964 -0.1147 -1.6353  2.0987
19169SOL    HW269567   0.764   2.836   4.976  0.7698 -0.7271 -3.2788
19170SOL     OW69568   8.239   7.202   3.386 -0.6237  0.1885 -0.4711
19170SOL    HW169569   8.221   7.110   3.350  1.6846 -1.0879  1.4691
19170SOL    HW269570   8.153   7.246   3.411 -1.6636 -2.0338 -0.0237
19171SOL     OW69571   9.390   5.326   5.955 -0.4326  0.5491 -0.1813
19171SOL    HW169572   9.302   5.300   5.995 -0.9644 -0.3876 -1.8910
19171SOL    HW269573   9.464   5.304   6.020 -1.2638 -0.9173  0.2961
19172SOL     OW69574   0.674   0.140   6.385 -0.3206 -0.0004 -0.1940
19172SOL    HW169575   0.752   0.106   6.334 -0.2662  0.9552 -0.7584
19172SOL    HW269576   0.680   0.240   6.393 -0.2808 -0.1341  1.7507
19173SOL     OW69577   7.595   6.562   6.794 -0.2023  0.0720  0.0511
19173SOL    HW169578   7.555   6.627   6.859 -1.4618 -0.0633 -0.5828
19173SOL    HW269579   7.632   6.612   6.715  0.4380  0.1518  0.3933
19174SOL     OW69580   5.626   2.085   9.883  0.2213 -0.0272 -0.2711
19174SOL    HW169581   5.547   2.035   9.918  0.5879  0.2287  0.9419
19174SOL    HW269582   5.710   2.035   9.905  0.6581  1.4876  1.7118
19175SOL     OW69583   8.778   4.570   0.102  0.0789  0.1700  0.3850
19175SOL    HW169584   8.790   4.623   0.018 -1.8738  1.7204  1.0522
19175SOL    HW269585   8.752   4.477   0.079 -0.8751  0.7004 -0.7395
19176SOL     OW69586   8.026   3.899   4.489  0.1731 -0.5337  0.1554
19176SOL    HW169587   7.988   3.925   4.400 -0.2372  1.6526  0.9364
19176SOL    HW269588   7.953   3.863   4.547  0.4772 -2.1412 -0.4371
19177SOL     OW69589   4.236   0.042   6.761 -0.2775  0.2215  0.4729
19177SOL    HW169590   4.334   0.026   6.767 -0.2578  0.0016 -0.3320
19177SOL    HW269591   4.209   0.049   6.665 -0.6532  2.8350  0.7484
19178SOL     OW69592   8.310   0.113   6.125  0.2911 -0.0471 -0.4783
19178SOL    HW169593   8.362   0.165   6.192  0.0226 -0.3958  0.0114
19178SOL    HW269594   8.322   0.152   6.034  0.9566  0.2081 -0.2814
19179SOL     OW69595   3.325   2.979   2.696  0.4733 -0.9099 -0.2277
19179SOL    HW169596   3.260   3.055   2.701  0.3348 -0.9917 -0.7207
19179SOL    HW269597   3.359   2.958   2.787 -0.6989 -1.3023  0.1316
19180SOL     OW69598   8.196   6.250   0.401 -0.1634 -0.5184  0.0544
19180SOL    HW169599   8.202   6.191   0.481 -0.2817 -0.4339  0.1267
19180SOL    HW269600   8.120   6.219   0.344  0.4857 -1.1379 -0.4848
19181SOL     OW69601   3.497   0.599   4.865 -0.2257 -0.2092 -0.1832
19181SOL    HW169602   3.447   0.649   4.935 -1.3639  1.3043 -2.0395
19181SOL    HW269603   3.481   0.501   4.877 -0.9138  0.0701  1.2919
19182SOL     OW69604   3.090   6.107   7.710 -0.2469 -0.2365 -0.2490
19182SOL    HW169605   3.087   6.186   7.771 -0.2990 -0.8471  0.5387
19182SOL    HW269606   3.153   6.126   7.634  0.4929  0.1879  0.4580
19183SOL     OW69607   0.145   7.119   0.297 -0.2869  0.0055 -0.3722
19183SOL    HW169608   0.242   7.132   0.320 -0.5663  1.6248 -0.0650
19183SOL    HW269609   0.091   7.120   0.381 -0.5848 -0.8947 -0.5463
19184SOL     OW69610   3.827   0.109   3.983 -0.4570 -0.3011  0.1195
19184SOL    HW169611   3.914   0.124   3.936 -0.5926 -1.3804 -0.5064
19184SOL    HW269612   3.817   0.012   4.005 -1.9227 -0.3543 -0.6726
19185SOL     OW69613   1.373   3.921   6.227 -0.0292  0.0265  0.1248
19185SOL    HW169614   1.335   3.828   6.224  0.1059 -0.0148 -0.4266
19185SOL    HW269615   1.447   3.924   6.295 -0.1567 -0.2219  0.2774
19186SOL     OW69616   2.247   3.373   8.615  0.5994  0.2579 -0.3521
19186SOL    HW169617   2.321   3.396   8.678  0.1481 -0.5295  0.4847
19186SOL    HW269618   2.170   3.435   8.630  0.1894 -0.4334  0.4307
19187SOL     OW69619   8.347   6.204   5.073  0.2718  0.4422 -0.2247
19187SOL    HW169620   8.410   6.234   5.145  1.2419 -1.4628 -0.2444
19187SOL    HW269621   8.298   6.123   5.103 -1.2713  1.1675 -0.7144
19188SOL     OW69622   7.113   1.024   2.457 -0.4342  0.5837  0.1176
19188SOL    HW169623   7.209   1.036   2.432 -0.8150  1.0407 -1.2040
19188SOL    HW269624   7.071   0.956   2.396 -0.7566 -0.1922  1.1884
19189SOL     OW69625   1.157   9.386   6.979  0.1537  0.0424 -0.1581
19189SOL    HW169626   1.195   9.472   6.945 -2.2307  0.4076 -2.0486
19189SOL    HW269627   1.215   9.310   6.950 -0.3565  0.6076 -2.7360
19190SOL     OW69628   8.932   0.632   0.231 -0.2107  0.6474  0.6777
19190SOL    HW169629   8.998   0.683   0.286 -1.1389  0.6215  1.8361
19190SOL    HW269630   8.971   0.615   0.141  1.3307  0.7174  1.3008
19191SOL     OW69631   4.386   7.154   4.529 -0.7278 -0.0074  0.7195
19191SOL    HW169632   4.434   7.067   4.540  0.6323  0.4760 -1.2077
19191SOL    HW269633   4.371   7.195   4.620  1.4327 -0.7575  1.4553
19192SOL     OW69634   8.276   3.202   6.644  0.1207  0.0615  0.2464
19192SOL    HW169635   8.232   3.291   6.655  0.7348  0.3138  0.7738
19192SOL    HW269636   8.306   3.169   6.734  0.9435 -0.1283 -0.0959
19193SOL     OW69637   7.551   1.026   5.264  0.3617  0.4099  0.2216
19193SOL    HW169638   7.648   1.034   5.243  0.3131 -0.1918 -0.2725
19193SOL    HW269639   7.526   1.092   5.335  1.0364  0.8552  0.0470
19194SOL     OW69640   1.548   1.992   9.681  0.2537 -0.1378 -0.2570
19194SOL    HW169641   1.569   1.925   9.752 -2.0082 -1.2451 -0.5731
19194SOL    HW269642   1.625   2.054   9.669  2.3353 -2.5900  0.1303
19195SOL     OW69643   9.123   9.416   5.452 -0.7539  0.3345  0.0909
19195SOL    HW169644   9.036   9.375   5.425 -1.4407  1.6898  0.1771
19195SOL    HW269645   9.144   9.492   5.390 -0.0463  0.5271  0.5644
19196SOL     OW69646   8.650   7.341   5.591  0.0604  0.0664  0.5595
19196SOL    HW169647   8.632   7.264   5.529 -0.5448  0.5788  0.0922
19196SOL    HW269648   8.698   7.413   5.542 -1.7659  1.1103  0.2570
19197SOL     OW69649   5.131   2.047   1.801  0.0116 -0.3613  0.6890
19197SOL    HW169650   5.103   1.961   1.760  0.1158 -0.0718  0.0132
19197SOL    HW269651   5.222   2.038   1.841 -0.0992 -0.6461  0.8777
19198SOL     OW69652   6.920   0.402   1.713 -0.0371 -0.0196 -0.0562
19198SOL    HW169653   6.837   0.358   1.747  1.3352 -1.4721  1.5480
19198SOL    HW269654   7.000   0.350   1.744  1.4753  1.4075 -1.4712
19199SOL     OW69655   4.308   4.807   4.419  0.4466 -0.4388  0.5754
19199SOL    HW169656   4.394   4.799   4.470  0.1267  1.8839  1.5453
19199SOL    HW269657   4.328   4.816   4.322  1.2397 -1.1343  0.6653
19200SOL     OW69658   5.287   1.614   5.602  0.3083 -0.4402  0.5916
19200SOL    HW169659   5.189   1.599   5.586  0.3484  0.8962 -1.0931
19200SOL    HW269660   5.306   1.712   5.598  1.9736 -0.8029 -0.7552
19201SOL     OW69661   0.433   2.748   5.439 -0.3118  0.4117  0.0801
19201SOL    HW169662   0.494   2.669   5.451  0.1400  0.6127 -0.9002
19201SOL    HW269663   0.340   2.721   5.463 -0.4089 -0.8315 -1.6143
19202SOL     OW69664   3.746   1.965   2.356  0.0838  0.1694  0.3673
19202SOL    HW169665   3.752   2.064   2.346  2.4106  0.0097 -0.3002
19202SOL    HW269666   3.684   1.942   2.431 -1.0206  2.0920  0.0807
19203SOL     OW69667   5.780   0.419   6.313  0.0558  0.5915 -0.0437
19203SOL    HW169668   5.778   0.503   6.368 -1.6530  1.3090 -1.1439
19203SOL    HW269669   5.695   0.368   6.327  0.6683 -0.4625 -0.1415
19204SOL     OW69670   6.682   4.585   8.504  0.1518  0.5434  0.5702
19204SOL    HW169671   6.626   4.532   8.568 -0.4222  0.3869 -0.0624
19204SOL    HW269672   6.629   4.662   8.469  0.9765  1.5395  1.4802
19205SOL     OW69673   4.583   8.736   5.203  0.1809 -0.1488  0.1706
19205SOL    HW169674   4.513   8.800   5.233  0.7725  0.5604  0.0640
19205SOL    HW269675   4.541   8.656   5.161 -0.5944 -0.2288  1.1010
19206SOL     OW69676   0.194   1.443   6.390 -0.3049 -0.0446 -0.5723
19206SOL    HW169677   0.121   1.427   6.456 -1.5878  1.8858 -1.4708
19206SOL    HW269678   0.195   1.369   6.322 -2.1850  0.4861 -1.2041
19207SOL     OW69679   4.043   6.147   9.080  0.0121  0.1095 -0.5520
19207SOL    HW169680   4.067   6.117   8.988 -1.3839  0.7001 -1.1203
19207SOL    HW269681   3.959   6.202   9.077  1.1037  1.9221  0.8010
19208SOL     OW69682   8.748   8.241   6.325 -0.5474  0.4207  0.7483
19208SOL    HW169683   8.793   8.275   6.242 -1.2822 -0.7346 -0.1336
19208SOL    HW269684   8.649   8.238   6.310 -0.6651 -0.0399  1.5795
19209SOL     OW69685   4.895   1.694   1.279  0.0609 -0.3829  0.1797
19209SOL    HW169686   4.963   1.667   1.211  2.3601  0.2089  2.1735
19209SOL    HW269687   4.860   1.785   1.258 -0.2363 -0.7422 -0.9208
19210SOL     OW69688   8.177   9.428   3.200  0.4728  0.1415  0.3363
19210SOL    HW169689   8.163   9.516   3.245 -1.1745  0.3509 -0.5495
19210SOL    HW269690   8.155   9.436   3.103 -1.6929 -1.7055  0.6165
19211SOL     OW69691   9.165   7.875   4.509 -0.4203  0.1640  0.5942
19211SOL    HW169692   9.227   7.954   4.511  0.2723 -0.3873  1.3749
19211SOL    HW269693   9.085   7.893   4.566 -0.7383  0.6863 -0.0179
19212SOL     OW69694   1.989   9.907   9.555 -0.2897  0.5436 -0.0585
19212SOL    HW169695   1.906   9.864   9.591  0.0681  0.1939  0.3385
19212SOL    HW269696   1.965   9.995   9.514 -0.7520  0.7877  0.7273
19213SOL     OW69697   0.320   0.887   8.800  0.1278 -0.0041 -0.0083
19213SOL    HW169698   0.293   0.955   8.732 -0.4540 -1.2928 -1.0829
19213SOL    HW269699   0.363   0.809   8.755 -2.5049 -2.0001  0.8003
19214SOL     OW69700   5.523   8.098   5.224 -0.5869  0.4490 -0.3875
19214SOL    HW169701   5.556   8.152   5.146 -2.1137  2.3842  0.2445
19214SOL    HW269702   5.599   8.053   5.269  0.7162  1.9320 -1.0681
19215SOL     OW69703   3.056   2.081   9.837  0.2303 -0.2376  0.0054
19215SOL    HW169704   3.147   2.080   9.878  0.1839  1.5896  0.1734
19215SOL    HW269705   3.000   2.151   9.881 -0.8080 -0.3800 -1.0680
19216SOL     OW69706   8.423   8.606   0.153  0.3258  0.0624 -0.2355
19216SOL    HW169707   8.393   8.619   0.059  2.0665  2.2421 -0.5357
19216SOL    HW269708   8.519   8.579   0.154  0.2057 -0.3273  0.8879
19217SOL     OW69709   2.583   7.765   9.887 -0.4449 -0.0699 -0.1961
19217SOL    HW169710   2.677   7.739   9.866 -0.0868  0.7375  0.3874
19217SOL    HW269711   2.565   7.856   9.852 -0.7916  0.0555  0.2954
19218SOL     OW69712   7.607   3.077   8.151  0.1094  0.2896 -0.1761
19218SOL    HW169713   7.612   3.016   8.072 -1.9802 -1.6494  1.1240
19218SOL    HW269714   7.529   3.139   8.141  1.1567  1.5456 -0.6477
19219SOL     OW69715   3.138   9.568   0.076 -0.3285  0.0242  0.4956
19219SOL    HW169716   3.070   9.638   0.054 -0.2158 -0.6146 -2.0710
19219SOL    HW269717   3.094   9.494   0.128 -1.2593  0.2872  0.0923
19220SOL     OW69718   9.392   2.851   3.843  0.0113  0.3733 -0.1571
19220SOL    HW169719   9.452   2.913   3.892 -2.5803  2.6136  0.3137
19220SOL    HW269720   9.297   2.871   3.866 -1.0550 -1.6294 -2.5090
19221SOL     OW69721   2.629   5.382   9.444  0.0052 -0.4233 -0.3114
19221SOL    HW169722   2.715   5.403   9.397  0.0114 -0.9139 -0.5233
19221SOL    HW269723   2.615   5.283   9.444  1.4304 -0.7004  3.2132
19222SOL     OW69724   8.575   9.639   8.596  0.1085  0.4023 -0.7275
19222SOL    HW169725   8.597   9.564   8.658  0.6606  1.1911  0.0580
19222SOL    HW269726   8.514   9.607   8.524 -0.2897 -0.6012  0.0507
19223SOL     OW69727   8.472   8.008   1.342 -0.2197  0.4088 -0.0483
19223SOL    HW169728   8.467   7.913   1.371  0.0241  0.7304  1.0971
19223SOL    HW269729   8.497   8.013   1.245 -2.1129 -0.7217 -0.6299
19224SOL     OW69730   4.376   7.361   4.363  0.1446 -0.0726 -0.2229
19224SOL    HW169731   4.385   7.281   4.421  0.6567  0.8905  1.0586
19224SOL    HW269732   4.464   7.383   4.321 -0.0392 -0.2884 -0.7298
19225SOL     OW69733   1.277   6.246   1.024  0.6017  0.3828 -0.0379
19225SOL    HW169734   1.325   6.158   1.028  1.8182  0.9556 -1.2985
19225SOL    HW269735   1.269   6.275   0.928 -2.5580  0.1840  0.1067
19226SOL     OW69736   4.565   4.792   1.411  0.5350 -0.3363 -0.3282
19226SOL    HW169737   4.516   4.705   1.417  0.9770 -0.5373  0.4322
19226SOL    HW269738   4.607   4.801   1.321  1.8809 -1.6597  0.1480
19227SOL     OW69739   1.214   3.173   2.694  0.9323 -0.6862  0.1203
19227SOL    HW169740   1.199   3.272   2.687 -0.6321 -0.8962  0.2366
19227SOL    HW269741   1.255   3.139   2.610  0.1311 -0.1556 -0.4944
19228SOL     OW69742   6.630   7.015   3.846 -0.3171  0.0371 -0.2362
19228SOL    HW169743   6.714   6.979   3.888 -1.7131 -1.7025  1.1738
19228SOL    HW269744   6.636   7.007   3.747  0.5240 -1.6834 -0.0692
19229SOL     OW69745   1.770   1.598   7.833 -0.3020  0.0706 -0.2409
19229SOL    HW169746   1.810   1.677   7.879  1.6131 -1.0112 -0.0233
19229SOL    HW269747   1.674   1.588   7.861  1.0754 -1.1674  4.3135
19230SOL     OW69748   7.950   8.054   6.765 -0.0779 -0.5441  0.9479
19230SOL    HW169749   7.993   7.976   6.810  1.1470 -0.9079 -0.7968
19230SOL    HW269750   7.865   8.025   6.720  0.5845 -0.9735 -0.0383
19231SOL     OW69751   6.447   2.123   0.246 -0.1018 -0.1105 -0.0198
19231SOL    HW169752   6.435   2.117   0.345  1.0409  1.1524  0.2085
19231SOL    HW269753   6.381   2.064   0.201 -2.3327  1.2036  1.4153
19232SOL     OW69754   1.142   4.046   1.851 -0.3888  0.4477  0.1318
19232SOL    HW169755   1.201   4.111   1.898  0.2938  1.0325 -1.5086
19232SOL    HW269756   1.198   3.979   1.803 -1.0473  0.8799 -1.2647
19233SOL     OW69757   3.352   4.942   3.939  0.3376 -0.2973  0.5217
19233SOL    HW169758   3.316   5.015   3.998 -1.2368 -1.7996  1.4874
19233SOL    HW269759   3.448   4.959   3.918 -0.0287  2.0690  0.6921
19234SOL     OW69760   5.092   9.475   2.895  0.0264  0.1474  0.4024
19234SOL    HW169761   5.044   9.453   2.810  0.2206  0.2869  0.2554
19234SOL    HW269762   5.176   9.525   2.874 -1.5829  3.1643  0.8521
19235SOL     OW69763   4.561   6.316   2.863 -0.1147 -0.0077 -0.2420
19235SOL    HW169764   4.592   6.259   2.939  0.3447  0.0603 -0.3772
19235SOL    HW269765   4.470   6.352   2.883 -0.6460 -1.2469 -0.4039
19236SOL     OW69766   8.664   1.902   7.683 -0.2751  0.1277  0.3389
19236SOL    HW169767   8.739   1.854   7.729 -1.0650 -2.3351 -0.8159
19236SOL    HW269768   8.691   1.925   7.590  0.0689  1.9225  0.8624
19237SOL     OW69769   7.568   1.918   1.517  0.2518  0.1663  0.0163
19237SOL    HW169770   7.586   1.936   1.614  0.5172  0.1990 -0.0385
19237SOL    HW269771   7.506   1.987   1.481 -0.0949 -0.0240  0.2411
19238SOL     OW69772   4.558   0.387   8.049  0.3935 -0.0853  0.3538
19238SOL    HW169773   4.601   0.349   8.131 -1.8253 -0.7492  1.2384
19238SOL    HW269774   4.505   0.468   8.073 -0.0282 -0.1019 -0.4912
19239SOL     OW69775   0.876   6.251   6.873 -0.0591 -0.1531 -0.3199
19239SOL    HW169776   0.857   6.280   6.779  0.3056 -1.2367 -0.7459
19239SOL    HW269777   0.945   6.179   6.872  0.0327 -0.0939  0.7952
19240SOL     OW69778   1.422   1.154   9.497  0.0364  0.6508  0.3688
19240SOL    HW169779   1.422   1.201   9.586 -0.7740  1.4557 -0.0428
19240SOL    HW269780   1.333   1.166   9.453  0.1363 -0.5130 -0.1537
19241SOL     OW69781   1.832   0.212   3.296 -0.2204 -0.2590  0.1654
19241SOL    HW169782   1.910   0.239   3.352 -0.4437 -0.7062  0.6928
19241SOL    HW269783   1.795   0.125   3.329 -2.8700  1.4280  1.8539
19242SOL     OW69784   9.209   4.983   8.328 -0.2697  0.5139  0.3116
19242SOL    HW169785   9.130   4.957   8.384  0.2340 -0.9157  0.3817
19242SOL    HW269786   9.246   5.070   8.360 -0.5767  0.1748  1.6130
19243SOL     OW69787   7.114   9.107   1.871 -0.1323 -0.0779  0.7842
19243SOL    HW169788   7.029   9.055   1.863 -0.1373 -0.1220  1.1088
19243SOL    HW269789   7.192   9.044   1.865 -0.1004  0.0699 -0.3783
19244SOL     OW69790   4.449   3.378   7.939  0.3199  0.2918  0.3778
19244SOL    HW169791   4.414   3.382   7.846 -0.3292  3.2678  0.7258
19244SOL    HW269792   4.549   3.368   7.937  0.3020  0.3295 -0.6272
19245SOL     OW69793   3.660   9.732   4.533 -0.1704  0.0888  0.3199
19245SOL    HW169794   3.747   9.744   4.483 -0.7377  3.0556 -0.0805
19245SOL    HW269795   3.678   9.685   4.619  1.4956 -1.3228 -0.7604
19246SOL     OW69796   1.905   1.961   7.553 -0.0579 -0.3506 -0.0763
19246SOL    HW169797   1.843   1.985   7.627 -0.9369 -0.2221 -0.8460
19246SOL    HW269798   1.861   1.894   7.492  0.2593  0.2941 -1.0332
19247SOL     OW69799   5.373   3.242   9.041 -0.5435 -0.5938 -0.3713
19247SOL    HW169800   5.288   3.274   9.000 -0.1852  0.0795 -0.6011
19247SOL    HW269801   5.363   3.239   9.140 -0.5632  0.3234 -0.3351
19248SOL     OW69802   0.728   4.211   2.766 -0.5396  0.8163 -0.6227
19248SOL    HW169803   0.809   4.226   2.710  0.0154  1.7607  0.4062
19248SOL    HW269804   0.680   4.298   2.779 -0.8647  0.5372  0.0662
19249SOL     OW69805   8.122   2.980   3.117  0.6694 -0.0188  0.2126
19249SOL    HW169806   8.167   2.934   3.194 -0.3899 -1.0870  0.2075
19249SOL    HW269807   8.131   2.923   3.035  1.1336  0.7624 -0.2872
19250SOL     OW69808   5.151   2.408   7.898  0.6946  0.7859  0.0398
19250SOL    HW169809   5.097   2.474   7.951 -0.1945 -2.3066  3.2082
19250SOL    HW269810   5.247   2.413   7.928  1.1945  2.5912 -1.7893
19251SOL     OW69811   2.328   1.743   8.657 -0.0818 -0.6626 -0.1762
19251SOL    HW169812   2.275   1.695   8.587 -1.3779  1.1392 -0.4791
19251SOL    HW269813   2.381   1.817   8.614 -0.1180 -0.1720  0.6158
19252SOL     OW69814   6.145   9.877   4.957 -0.0496 -0.0433  0.0398
19252SOL    HW169815   6.171   9.913   4.868  2.1249 -1.8026 -0.0674
19252SOL    HW269816   6.223   9.881   5.019 -1.2659  0.2656  1.5840
19253SOL     OW69817   0.044   0.663   1.275 -0.0279  0.0138  0.5464
19253SOL    HW169818   0.023   0.608   1.356 -2.7100  0.3263  0.1216
19253SOL    HW269819   0.077   0.604   1.202 -0.3723 -0.6864  0.9493
19254SOL     OW69820   3.037   5.207   2.918  0.2445 -0.4636 -0.0899
19254SOL    HW169821   3.062   5.274   2.988 -0.1272 -0.0202 -0.3757
19254SOL    HW269822   3.028   5.117   2.959  2.7265 -0.7317 -0.0295
19255SOL     OW69823   7.433   3.522   0.059 -0.0159  0.0297  0.8772
19255SOL    HW169824   7.386   3.451   0.008  0.2246  0.6171 -0.1670
19255SOL    HW269825   7.376   3.604   0.061  0.4265  0.3457  0.6531
19256SOL     OW69826   7.539   3.066   0.753  0.1597 -0.0568 -0.2325
19256SOL    HW169827   7.476   3.025   0.687  0.3313  1.3104 -1.2611
19256SOL    HW269828   7.633   3.045   0.726  0.2034 -0.2039  0.0402
19257SOL     OW69829   5.988   2.734   4.528  0.7181  0.3956  0.4335
19257SOL    HW169830   5.983   2.676   4.610 -0.2936  1.4944  1.1583
19257SOL    HW269831   6.038   2.818   4.549  0.2338  0.7977 -0.0029
19258SOL     OW69832   3.923   7.542   0.118 -0.0146  0.0823  0.1001
19258SOL    HW169833   3.883   7.451   0.106 -2.0088  1.0121 -0.4347
19258SOL    HW269834   3.980   7.564   0.040  2.1845 -1.5421  1.1894
19259SOL     OW69835   9.850   2.582   7.286  0.1077  0.0687 -0.1342
19259SOL    HW169836   9.780   2.549   7.350 -0.6298  1.6597 -0.0829
19259SOL    HW269837   9.886   2.670   7.319  0.8137  0.1497 -1.1122
19260SOL     OW69838   1.191   3.190   5.270 -0.2393 -0.7053 -0.0957
19260SOL    HW169839   1.256   3.265   5.263  1.8726 -2.3176  1.4029
19260SOL    HW269840   1.145   3.193   5.359 -0.3014 -1.0592 -0.1142
19261SOL     OW69841   6.025   0.645   3.979 -0.1770  0.1387  0.5859
19261SOL    HW169842   5.944   0.616   3.927  0.3506  1.2221 -0.8666
19261SOL    HW269843   6.001   0.722   4.038 -0.5272 -0.4284  1.1935
19262SOL     OW69844   9.398   9.263   7.652  0.3665  0.5002 -0.0720
19262SOL    HW169845   9.399   9.163   7.659 -0.1355  0.5789  1.3119
19262SOL    HW269846   9.444   9.302   7.731  2.3443  1.3499 -1.5954
19263SOL     OW69847   3.759   0.537   6.311 -0.7166  0.1466  0.5466
19263SOL    HW169848   3.771   0.446   6.272  1.6144  0.5254  0.2593
19263SOL    HW269849   3.721   0.530   6.403 -2.4130 -0.9833 -0.2143
19264SOL     OW69850   0.796   0.085   7.737  0.4225 -0.1054  0.2161
19264SOL    HW169851   0.791   0.178   7.775 -0.3830 -0.2739  0.5189
19264SOL    HW269852   0.835   0.090   7.645  2.8145  0.2546  1.1915
19265SOL     OW69853   1.646   0.646   8.009 -0.0442 -0.3709 -0.3239
19265SOL    HW169854   1.727   0.605   7.967  0.2601 -0.0869 -0.0202
19265SOL    HW269855   1.675   0.718   8.072 -0.5584  0.1242 -0.6544
19266SOL     OW69856   4.938   6.443   3.030  0.3658 -0.2127  0.2822
19266SOL    HW169857   4.889   6.513   2.977  0.2050 -0.0088  0.6970
19266SOL    HW269858   5.001   6.488   3.093 -0.8366 -0.3744  1.6422
19267SOL     OW69859   7.475   7.601   2.700 -0.1399 -0.1982 -0.0120
19267SOL    HW169860   7.453   7.698   2.703  1.4826  0.1621  1.1914
19267SOL    HW269861   7.393   7.547   2.718 -1.0336  0.9460 -0.6262
19268SOL     OW69862   9.919   6.987   5.674 -0.4541 -0.3265 -1.2680
19268SOL    HW169863   9.959   6.912   5.727 -1.4870  0.2078  0.3154
19268SOL    HW269864   9.820   6.972   5.666 -1.0367  1.9040  0.9118
19269SOL     OW69865   2.716   6.093   2.827  0.0064  0.3125 -0.8822
19269SOL    HW169866   2.695   6.191   2.824 -2.1266 -0.1173 -0.2576
19269SOL    HW269867   2.732   6.060   2.734 -1.7715  0.7471 -1.3660
19270SOL     OW69868   1.226   8.231   9.648  0.4453  0.4799  0.0921
19270SOL    HW169869   1.254   8.278   9.732  0.4239  0.2854  0.2074
19270SOL    HW269870   1.127   8.239   9.637  0.8289  3.7864 -1.8767
19271SOL     OW69871   4.056   1.808   3.831  0.7446 -0.2951  0.0847
19271SOL    HW169872   4.101   1.843   3.914  1.8481  1.4835 -1.2376
19271SOL    HW269873   4.113   1.737   3.790  1.6372  0.9047 -0.7657
19272SOL     OW69874   1.089   1.315   6.579 -0.0257  0.2654 -0.2508
19272SOL    HW169875   1.022   1.341   6.649 -0.2463  1.7083 -0.9753
19272SOL    HW269876   1.077   1.373   6.498 -0.2244 -1.8510 -1.7706
19273SOL     OW69877   9.662   4.036   0.554  0.2901 -0.6831  0.3489
19273SOL    HW169878   9.594   3.979   0.601 -0.4929 -0.7733 -0.8435
19273SOL    HW269879   9.706   4.097   0.619 -2.2451  0.6601  0.8590
19274SOL     OW69880   1.880   4.233   7.567  0.4791  0.1125  0.4458
19274SOL    HW169881   1.805   4.289   7.532  1.2071  1.4517  0.9706
19274SOL    HW269882   1.864   4.211   7.663  0.2750 -0.4503  0.2850
19275SOL     OW69883   3.441   9.190   0.373  0.4552  0.3366 -0.7230
19275SOL    HW169884   3.540   9.201   0.379  0.5657 -0.9737  0.3685
19275SOL    HW269885   3.395   9.269   0.414  1.0777  0.1801  0.2848
19276SOL     OW69886   9.708   5.014   7.954 -0.0140  0.1512 -0.2404
19276SOL    HW169887   9.754   5.028   8.041 -1.3485  0.3046  0.4507
19276SOL    HW269888   9.669   5.100   7.923  0.3016  0.0575 -0.9115
19277SOL     OW69889   0.742   5.237   3.813  0.4861 -0.5836  0.4103
19277SOL    HW169890   0.726   5.176   3.891  0.7426 -0.8829  0.2309
19277SOL    HW269891   0.833   5.277   3.821  0.0965  0.2291  0.8315
19278SOL     OW69892   0.443   5.832   2.841  0.4670  0.1022 -0.0048
19278SOL    HW169893   0.481   5.813   2.750  1.1332  1.0303  0.0778
19278SOL    HW269894   0.349   5.797   2.845 -0.7294  2.7991 -2.1174
19279SOL     OW69895   2.020   0.036   1.325  0.6562  0.2376 -0.4664
19279SOL    HW169896   2.100  -0.023   1.331 -0.5112 -1.5397 -1.9774
19279SOL    HW269897   1.962   0.008   1.248 -1.7359  1.0845  0.9463
19280SOL     OW69898   3.342   6.861   8.758  0.7353 -0.1643  0.0620
19280SOL    HW169899   3.324   6.904   8.670 -0.9897 -0.3832  0.2785
19280SOL    HW269900   3.377   6.769   8.744  2.5114  0.5661 -0.3950
19281SOL     OW69901   1.821   3.171   0.704  0.1952  0.1605 -0.6427
19281SOL    HW169902   1.806   3.089   0.759  1.3653  1.1558  1.1741
19281SOL    HW269903   1.878   3.148   0.625 -0.9438 -1.1226 -1.1227
19282SOL     OW69904   1.324   8.803   2.684 -0.4581 -0.2222  0.2953
19282SOL    HW169905   1.354   8.713   2.717 -1.4411 -1.5714 -2.3358
19282SOL    HW269906   1.232   8.822   2.717 -0.4890 -0.4646  0.3500
19283SOL     OW69907   1.407   3.146   9.560  0.1648 -0.0175  0.0695
19283SOL    HW169908   1.324   3.090   9.565 -0.1736  0.5922  1.3598
19283SOL    HW269909   1.487   3.086   9.567 -0.1870 -0.4477  0.4966
19284SOL     OW69910   3.739   9.400   4.132  0.0397  0.0778 -0.1503
19284SOL    HW169911   3.659   9.433   4.082 -0.4275 -0.2058  0.4079
19284SOL    HW269912   3.712   9.327   4.195  0.5252  0.7687  0.8750
19285SOL     OW69913   2.577   9.458   6.736  0.3737 -0.2742 -0.0973
19285SOL    HW169914   2.507   9.522   6.766  1.7834  1.5431 -0.5934
19285SOL    HW269915   2.650   9.508   6.689  1.9306 -2.1452  0.2718
19286SOL     OW69916   5.678   6.144   9.552 -0.2766 -0.3240 -0.0810
19286SOL    HW169917   5.636   6.216   9.607  1.1988  0.8594 -0.4614
19286SOL    HW269918   5.702   6.067   9.610  0.8861  0.7400  0.8723
19287SOL     OW69919   5.776   6.151   0.306  0.0353 -0.4140  0.7483
19287SOL    HW169920   5.777   6.230   0.367  0.8313 -0.1709  0.4180
19287SOL    HW269921   5.866   6.140   0.264 -0.3505 -0.9200  0.0502
19288SOL     OW69922   2.217   4.772   5.296  0.1181 -0.0929 -0.3739
19288SOL    HW169923   2.272   4.835   5.351  0.5713 -1.1796  0.4288
19288SOL    HW269924   2.260   4.760   5.206 -0.2850  1.1912 -0.7480
19289SOL     OW69925   7.135   8.983   6.571 -0.0620 -0.4301  0.9400
19289SOL    HW169926   7.066   8.998   6.500 -0.4193 -2.9772  0.7016
19289SOL    HW269927   7.225   9.006   6.534 -0.4523  0.0409  0.2641
19290SOL     OW69928   4.381   4.956   0.387  0.0143 -0.8611 -0.2181
19290SOL    HW169929   4.404   5.051   0.404 -0.8349 -0.3546 -1.7803
19290SOL    HW269930   4.463   4.899   0.395  0.7551  0.1654 -0.4606
19291SOL     OW69931   8.891   6.254   2.534  0.2628 -0.2092 -0.3934
19291SOL    HW169932   8.819   6.267   2.465  0.7008 -1.7899 -1.1912
19291SOL    HW269933   8.882   6.162   2.574  0.8899  0.1660  0.6327
19292SOL     OW69934   9.717   6.228   7.837  0.3663 -0.4591  0.3206
19292SOL    HW169935   9.814   6.218   7.859  0.8433  2.1349 -0.3574
19292SOL    HW269936   9.703   6.210   7.740 -0.1154 -2.3339  0.7176
19293SOL     OW69937   0.113   2.710   1.938 -0.6521  0.4681  0.1891
19293SOL    HW169938   0.039   2.721   1.872 -1.2934  2.8112  1.2461
19293SOL    HW269939   0.180   2.783   1.926 -0.0497  0.0898  1.1729
19294SOL     OW69940   0.865   0.440   9.350  0.3645  0.1103  0.5797
19294SOL    HW169941   0.864   0.520   9.289  0.8771 -0.4757 -0.1978
19294SOL    HW269942   0.796   0.453   9.422 -1.4890  0.0512 -1.1244
19295SOL     OW69943   2.662   1.647   3.308  0.1236 -0.1656 -0.2752
19295SOL    HW169944   2.713   1.682   3.229  1.8729  0.4401  1.0849
19295SOL    HW269945   2.708   1.675   3.393 -1.9233 -0.4770  0.9804
19296SOL     OW69946   0.953   3.853   7.897  0.4481  0.4561 -0.0789
19296SOL    HW169947   0.935   3.948   7.870 -0.1395 -0.0631 -1.5478
19296SOL    HW269948   0.866   3.807   7.916  0.7894  0.4753  1.5754
19297SOL     OW69949   9.671   8.102   9.258 -0.5413  0.4934  0.3533
19297SOL    HW169950   9.759   8.079   9.215 -0.8299 -1.5980  0.8331
19297SOL    HW269951   9.673   8.197   9.288  1.8696  0.2784  1.0393
19298SOL     OW69952   9.274   4.162   4.850 -0.3858  0.3446 -0.3168
19298SOL    HW169953   9.230   4.214   4.922 -1.5482 -0.1313 -0.6791
19298SOL    HW269954   9.225   4.076   4.835  2.5339 -1.7321  1.5235
19299SOL     OW69955   8.795   9.758   0.813  0.5898  0.4159 -0.2851
19299SOL    HW169956   8.803   9.850   0.775  1.5482  0.6095  0.3594
19299SOL    HW269957   8.815   9.691   0.742  0.5716  0.7176 -0.5799
19300SOL     OW69958   0.065   8.359   8.245  0.2535  0.1148  0.3575
19300SOL    HW169959   0.122   8.363   8.327 -0.6130 -0.4590  0.9983
19300SOL    HW269960  -0.002   8.433   8.248 -0.5394 -0.6058  0.7497
19301SOL     OW69961   1.315   7.872   9.997  0.1281  0.1847 -0.2196
19301SOL    HW169962   1.311   7.773  10.016  0.3392 -0.0434 -1.3464
19301SOL    HW269963   1.395   7.892   9.940  0.8075  1.1933  1.0455
19302SOL     OW69964   9.285   8.528   8.381 -0.0272  0.6178  0.2375
19302SOL    HW169965   9.377   8.531   8.342  0.1005  0.6821  0.5429
19302SOL    HW269966   9.236   8.449   8.345  0.5050  0.0004  0.8627
19303SOL     OW69967   4.594   7.287   0.198  0.3049 -0.2296 -0.2515
19303SOL    HW169968   4.632   7.250   0.283  0.5957  0.7302  0.0433
19303SOL    HW269969   4.568   7.383   0.212  0.5710  0.0030 -1.3072
19304SOL     OW69970   5.987   0.212   2.176 -0.1557  0.2978 -0.6402
19304SOL    HW169971   6.017   0.270   2.100  0.3297  0.9062  0.0172
19304SOL    HW269972   5.982   0.117   2.145 -1.0964  0.7015 -1.7606
19305SOL     OW69973   2.306   8.181   4.665 -0.7710 -0.6324 -0.5846
19305SOL    HW169974   2.254   8.188   4.580  0.0147 -1.8283 -1.1817
19305SOL    HW269975   2.325   8.085   4.685 -2.1125 -0.4719  1.6812
19306SOL     OW69976   0.748   5.282   3.033 -0.4326  0.0018  0.0388
19306SOL    HW169977   0.721   5.336   2.954  1.4146 -1.6781 -1.7800
19306SOL    HW269978   0.667   5.242   3.076 -1.5828  2.1911 -0.0209
19307SOL     OW69979   4.318   9.865   5.864 -0.3478 -0.2012 -0.0669
19307SOL    HW169980   4.282   9.776   5.892  0.5693 -0.2096  1.1074
19307SOL    HW269981   4.393   9.891   5.924  1.0858  0.1985 -1.9870
19308SOL     OW69982   4.934   5.680   9.637 -0.1597 -0.4949  0.3938
19308SOL    HW169983   4.969   5.621   9.564 -0.7348 -0.1830 -0.1421
19308SOL    HW269984   4.987   5.764   9.640  0.2673 -0.7777  0.7515
19309SOL     OW69985   4.773   8.453   1.328  0.3858 -0.5320  0.1909
19309SOL    HW169986   4.768   8.388   1.253 -1.6013 -0.1558 -0.0229
19309SOL    HW269987   4.689   8.449   1.382  2.3758 -1.8993  3.3432
19310SOL     OW69988   1.409   0.141   9.605 -0.3964  0.5843  0.1139
19310SOL    HW169989   1.409   0.240   9.623 -1.1681  0.5238  0.4603
19310SOL    HW269990   1.476   0.096   9.665  2.2936  1.2687 -2.2333
19311SOL     OW69991   7.787   0.079   5.963 -0.2893  0.1580 -0.2110
19311SOL    HW169992   7.752   0.164   5.926 -0.6731 -0.7293 -1.9178
19311SOL    HW269993   7.874   0.096   6.010 -1.2577  1.7752  1.0421
19312SOL     OW69994   5.557   3.541   0.237 -0.1178  0.3425  0.3671
19312SOL    HW169995   5.521   3.451   0.261  1.4550 -0.3893  0.0273
19312SOL    HW269996   5.483   3.598   0.201 -0.6911 -1.6161 -1.6674
19313SOL     OW69997   3.551   0.628   9.142  0.1964  0.1916 -0.6191
19313SOL    HW169998   3.518   0.718   9.114 -0.1260 -0.0966 -1.1694
19313SOL    HW269999   3.638   0.638   9.190  0.2959  0.7756 -0.9197
19314SOL     OW70000   8.236   4.984   6.630 -0.0710 -0.6386 -0.7794
19314SOL    HW170001   8.162   4.924   6.660 -4.3140  2.7874 -3.8386
19314SOL    HW270002   8.270   5.037   6.708 -3.0741  0.0056  0.1609
19315SOL     OW70003   0.993   4.041   6.847  0.3135  0.6107 -0.1838
19315SOL    HW170004   1.036   4.040   6.938  1.2096  0.8165 -0.5981
19315SOL    HW270005   1.061   4.015   6.778  0.0545  1.9636 -0.9747
19316SOL     OW70006   8.554   4.573   4.346  0.5633  0.2709  0.0514
19316SOL    HW170007   8.619   4.623   4.289  2.0979 -1.1654  0.5118
19316SOL    HW270008   8.489   4.524   4.287 -0.3477  2.0025 -0.4052
19317SOL     OW70009   0.212   3.315   0.456  0.2660 -0.4780  0.1681
19317SOL    HW170010   0.259   3.358   0.533  1.9108  1.3470 -1.8045
19317SOL    HW270011   0.160   3.384   0.405 -0.2957 -1.5425 -0.7458
19318SOL     OW70012   3.114   5.497   8.099  0.0185 -0.4301  0.2828
19318SOL    HW170013   3.186   5.457   8.156 -0.0647  0.6986  1.1933
19318SOL    HW270014   3.033   5.440   8.103  0.1370 -0.5560  1.0077
19319SOL     OW70015   0.468   5.614   7.422  0.2680  0.3674  0.6022
19319SOL    HW170016   0.490   5.542   7.356  0.2900 -0.1304  1.1417
19319SOL    HW270017   0.542   5.621   7.489  0.4518  1.1775  0.3090
19320SOL     OW70018   9.002   4.886   8.451 -0.1118  0.3346 -0.0402
19320SOL    HW170019   8.990   4.881   8.550  3.0878 -0.5256  0.3687
19320SOL    HW270020   8.973   4.799   8.409  0.0744  0.0830  0.3496
19321SOL     OW70021   1.669   7.792   7.194 -0.0383  1.2091  0.4996
19321SOL    HW170022   1.574   7.815   7.174 -1.2952 -2.9559  1.0957
19321SOL    HW270023   1.692   7.821   7.287 -1.7929 -0.4910  1.5128
19322SOL     OW70024   1.205   9.219   1.752 -0.1613  0.1992  0.1477
19322SOL    HW170025   1.175   9.166   1.673  0.8242  1.2050 -0.9321
19322SOL    HW270026   1.189   9.167   1.835  0.9496 -1.8921 -0.8920
19323SOL     OW70027   8.130   0.612   9.979 -0.3948 -0.6392 -0.2074
19323SOL    HW170028   8.114   0.704   9.945  1.4666 -0.4968 -0.7552
19323SOL    HW270029   8.123   0.547   9.903  2.8373 -0.4228 -0.7628
19324SOL     OW70030   6.213   1.650   2.457  0.3322  0.6542  0.3472
19324SOL    HW170031   6.236   1.654   2.554  1.9389  0.0343  0.0052
19324SOL    HW270032   6.185   1.741   2.426  0.2733  0.9620  1.2715
19325SOL     OW70033   5.026   9.971   3.913  0.1776  0.1138  0.7342
19325SOL    HW170034   5.052   9.998   4.005 -0.3503  1.7905  0.4133
19325SOL    HW270035   5.012   9.872   3.910 -0.1479  0.0852  2.5320
19326SOL     OW70036   0.271   4.782   1.527  0.3914  0.1685 -0.2121
19326SOL    HW170037   0.243   4.852   1.593  0.5967  1.0501 -1.0524
19326SOL    HW270038   0.352   4.736   1.561  1.5098  1.7817 -0.6126
19327SOL     OW70039   0.764   4.233   7.486  0.4019 -0.3809  0.3532
19327SOL    HW170040   0.794   4.302   7.420  0.3405  0.3941  1.1339
19327SOL    HW270041   0.665   4.223   7.480  0.4461 -0.6388  0.0167
19328SOL     OW70042   0.874   1.466   1.013 -0.2416  0.3676 -0.1211
19328SOL    HW170043   0.940   1.532   0.977 -0.6282  1.0871  0.4652
19328SOL    HW270044   0.782   1.490   0.982 -0.4217  0.2880  0.3339
19329SOL     OW70045   3.818   9.535   9.771  0.3176 -0.4020  0.1908
19329SOL    HW170046   3.726   9.523   9.808 -0.0481 -1.4066 -1.0236
19329SOL    HW270047   3.884   9.488   9.830 -0.2194 -1.6900 -0.2304
19330SOL     OW70048   4.968   1.535   6.577 -0.1304  0.2424  0.8351
19330SOL    HW170049   5.009   1.580   6.657 -1.8162  1.8623  0.7980
19330SOL    HW270050   4.876   1.505   6.600  0.4935 -2.0780  0.4403
19331SOL     OW70051   0.152   1.513   0.792  0.1651 -0.2945  0.5900
19331SOL    HW170052   0.057   1.495   0.767  0.6495 -1.4560 -0.4402
19331SOL    HW270053   0.175   1.607   0.768 -0.3174 -0.4321 -0.4268
19332SOL     OW70054   3.066   1.951   2.341  0.1902  0.0395 -0.4708
19332SOL    HW170055   3.138   1.884   2.322  0.8144  0.4549  0.3702
19332SOL    HW270056   2.991   1.940   2.275  1.4310  0.2079 -1.9403
19333SOL     OW70057   9.860   5.890   5.948 -0.0860  0.2971  0.1945
19333SOL    HW170058   9.854   5.981   5.987 -1.1691  0.2595  0.1428
19333SOL    HW270059   9.922   5.833   6.002  1.6623  1.4520 -0.5610
19334SOL     OW70060   1.124   8.430   4.131 -0.3376 -0.4610 -0.2431
19334SOL    HW170061   1.203   8.448   4.072 -0.1428 -0.7033 -0.0562
19334SOL    HW270062   1.095   8.334   4.120 -1.2223 -0.1148 -1.0539
19335SOL     OW70063   9.596   6.811   3.665  0.1987 -0.5666 -0.3640
19335SOL    HW170064   9.598   6.890   3.726  0.5876 -1.2025  0.4479
19335SOL    HW270065   9.501   6.780   3.654  0.1431 -0.5376  0.0348
19336SOL     OW70066   2.047   0.711   4.573  0.2966 -0.2819  0.6775
19336SOL    HW170067   2.142   0.705   4.545  0.2549 -2.0671  0.8444
19336SOL    HW270068   1.991   0.743   4.497  0.6432 -1.9422 -0.3057
19337SOL     OW70069   4.313   1.952   5.733 -0.3438  0.3409  0.0857
19337SOL    HW170070   4.387   1.940   5.667  0.3466  0.8596  0.7559
19337SOL    HW270071   4.334   1.903   5.818 -0.4446  1.0502  0.5283
19338SOL     OW70072   7.422   9.967   7.932 -0.4283 -0.5642 -0.1910
19338SOL    HW170073   7.323   9.956   7.938 -0.3943 -0.2333  0.9966
19338SOL    HW270074   7.468   9.889   7.974 -0.1773 -0.4749 -0.2956
19339SOL     OW70075   7.003   8.511   2.267  0.5123 -0.5636 -0.8939
19339SOL    HW170076   7.025   8.607   2.283  1.9502 -1.0206  0.0029
19339SOL    HW270077   7.013   8.490   2.169  0.4496  0.1251 -1.0506
19340SOL     OW70078   4.775   1.764   6.187 -0.8928 -0.3887 -1.2642
19340SOL    HW170079   4.856   1.720   6.227 -1.6588 -2.1755 -1.6330
19340SOL    HW270080   4.756   1.723   6.097  0.0728  2.6979 -2.9764
19341SOL     OW70081   7.136   4.167   8.595  0.3702 -0.4665  0.6044
19341SOL    HW170082   7.177   4.121   8.517  1.2042 -0.8094  1.2403
19341SOL    HW270083   7.206   4.185   8.664 -0.0469  1.2430  0.6034
19342SOL     OW70084   9.566   6.235   5.042  0.2012 -0.1154 -0.1791
19342SOL    HW170085   9.641   6.286   5.083 -1.2676  1.8518  0.1562
19342SOL    HW270086   9.519   6.182   5.112  0.5853 -0.4779 -0.1923
19343SOL     OW70087   4.308   0.826   4.088 -0.0511 -0.1083  0.8890
19343SOL    HW170088   4.361   0.851   4.168 -0.9439 -1.7715  2.0091
19343SOL    HW270089   4.210   0.833   4.109 -0.3057  1.0734 -0.5669
19344SOL     OW70090   3.211   0.380   4.128  0.0998 -0.3606 -0.2826
19344SOL    HW170091   3.134   0.440   4.109  0.4207 -0.3664 -1.6531
19344SOL    HW270092   3.259   0.411   4.210  0.0885  1.0686 -0.8094
19345SOL     OW70093   7.890   4.152   9.825 -0.1763  0.0302 -0.2111
19345SOL    HW170094   7.855   4.237   9.863 -1.8430 -0.7417  0.0328
19345SOL    HW270095   7.893   4.158   9.726 -0.5861  0.2631 -0.2100
19346SOL     OW70096   7.969   5.337   3.502  0.0450 -0.5632  0.4556
19346SOL    HW170097   7.916   5.278   3.562  0.7070 -1.6808 -0.0388
19346SOL    HW270098   8.049   5.287   3.468 -0.6168 -0.1524 -1.7936
19347SOL     OW70099   1.191   0.603   8.653  0.1299  0.1205 -0.2195
19347SOL    HW170100   1.222   0.507   8.657  2.2531  0.8268  1.1988
19347SOL    HW270101   1.233   0.654   8.728  0.3745  2.5712 -1.9782
19348SOL     OW70102   8.093   1.420   1.187  0.3694  0.0792  0.0087
19348SOL    HW170103   8.011   1.408   1.131 -0.3502  1.7467  0.6760
19348SOL    HW270104   8.172   1.438   1.128 -0.1543  0.6159 -0.5296
19349SOL     OW70105   9.102   7.448   2.376  0.6952  0.2424 -0.1797
19349SOL    HW170106   9.165   7.438   2.299  0.9397 -0.8661  0.1560
19349SOL    HW270107   9.042   7.526   2.360  0.7028 -0.0109 -1.5289
19350SOL     OW70108   6.350   1.115   2.193 -0.7340  0.3717 -0.0551
19350SOL    HW170109   6.411   1.189   2.167 -2.0147  2.3676  2.4054
19350SOL    HW270110   6.256   1.138   2.170 -1.2141 -0.2262  1.2123
19351SOL     OW70111   1.812   4.652   4.488  0.1494  0.1712  0.3761
19351SOL    HW170112   1.764   4.640   4.401 -0.0296 -1.3855  0.6910
19351SOL    HW270113   1.750   4.693   4.555  0.2090  1.1171 -0.1285
19352SOL     OW70114   1.099   8.846   8.840 -0.4982 -0.5943 -0.4124
19352SOL    HW170115   1.131   8.914   8.773 -0.8104 -0.2415 -0.2034
19352SOL    HW270116   1.101   8.755   8.798 -0.4683 -0.4029 -0.8285
19353SOL     OW70117   9.117   1.408   3.994  0.4453  0.4462 -0.1060
19353SOL    HW170118   9.194   1.453   4.039  1.1065 -0.6197 -0.1479
19353SOL    HW270119   9.079   1.338   4.054 -0.6895  1.1548  0.0298
19354SOL     OW70120   0.883   4.247   6.319  0.7438 -0.1283  0.1641
19354SOL    HW170121   0.828   4.318   6.363 -0.6889 -0.1187 -1.5777
19354SOL    HW270122   0.956   4.291   6.265  0.8309 -0.0336  0.3597
19355SOL     OW70123   0.958   1.302   9.697  0.3487  0.2241 -0.4625
19355SOL    HW170124   0.931   1.353   9.779  2.3572  0.5848 -0.0053
19355SOL    HW270125   0.940   1.357   9.616 -4.4189 -1.2447 -0.5775
19356SOL     OW70126   3.379   7.301   5.997  0.6508  0.1045 -0.3179
19356SOL    HW170127   3.442   7.300   6.075  1.3653 -0.7431 -0.9024
19356SOL    HW270128   3.300   7.358   6.020  1.2767  0.5962  0.6933
19357SOL     OW70129   0.418   8.853   1.629 -0.1439 -0.1154 -0.6012
19357SOL    HW170130   0.386   8.940   1.592 -0.7675 -0.0498  0.0750
19357SOL    HW270131   0.496   8.870   1.691 -2.8741  0.4587  2.8302
19358SOL     OW70132   3.784   2.064   9.325  0.0242 -0.3233 -0.2400
19358SOL    HW170133   3.878   2.076   9.356 -0.3746  1.8348  0.1880
19358SOL    HW270134   3.782   1.995   9.251  2.1332  0.6369 -1.2302
19359SOL     OW70135   9.915   6.233   0.148  0.3271 -0.0511  0.4484
19359SOL    HW170136  10.011   6.237   0.174  0.0027  0.1983  1.6248
19359SOL    HW270137   9.861   6.199   0.225 -0.1739 -3.0712 -1.1350
19360SOL     OW70138   4.402   9.141   8.969  0.4008  0.1044  0.0169
19360SOL    HW170139   4.379   9.236   8.951  0.4385 -0.1244 -1.3071
19360SOL    HW270140   4.327   9.097   9.019 -0.6453  0.2045 -1.4495
19361SOL     OW70141   8.468   5.997   7.969 -0.5053  0.2624  0.0428
19361SOL    HW170142   8.397   5.941   8.011  0.0591 -1.1011 -0.7920
19361SOL    HW270143   8.546   5.939   7.944  0.8360  1.7192  0.8007
19362SOL     OW70144   5.956   2.572   4.764  0.0933  0.4486  0.5677
19362SOL    HW170145   5.923   2.495   4.708 -0.5018 -0.6999  2.4531
19362SOL    HW270146   5.913   2.569   4.854 -0.1490  3.1879  0.5847
19363SOL     OW70147   4.097   8.290   8.660  0.2462  0.1282 -0.2145
19363SOL    HW170148   4.075   8.374   8.710  0.7505  0.5844 -0.7600
19363SOL    HW270149   4.096   8.213   8.723  0.4823  0.6445  0.4259
19364SOL     OW70150   9.983   5.107   7.011 -0.2934  0.2190  0.0830
19364SOL    HW170151  10.078   5.078   7.019 -0.0545  0.8217 -0.5200
19364SOL    HW270152   9.964   5.178   7.080 -0.0174  0.8380 -0.4762
19365SOL     OW70153   4.214   3.569   6.844 -0.1607  0.1440 -0.0987
19365SOL    HW170154   4.307   3.534   6.847 -0.4949 -0.6434  1.4273
19365SOL    HW270155   4.154   3.500   6.802 -0.5503 -0.5323  1.5319
19366SOL     OW70156   3.161   3.545   3.557 -0.1544 -0.6403  0.6070
19366SOL    HW170157   3.098   3.623   3.555  0.5697 -0.0501  0.5432
19366SOL    HW270158   3.117   3.468   3.604 -0.7128 -0.0460  1.0723
19367SOL     OW70159   1.792   7.300   7.280 -0.0194  0.1567  0.8801
19367SOL    HW170160   1.733   7.275   7.358 -1.8553  1.8327  0.0642
19367SOL    HW270161   1.740   7.355   7.216  2.1335  0.6283 -0.4882
19368SOL     OW70162   1.343   0.950   3.979 -0.3220 -0.3309 -0.2795
19368SOL    HW170163   1.351   0.913   4.071 -0.4769 -0.4779 -0.3252
19368SOL    HW270164   1.417   1.016   3.963 -1.7142  1.5555  0.8051
19369SOL     OW70165   7.626   5.363   2.542 -0.5823  0.2919  0.3381
19369SOL    HW170166   7.650   5.266   2.544  0.4996  0.5423 -0.1932
19369SOL    HW270167   7.526   5.373   2.543 -0.7243 -0.8648 -0.8866
19370SOL     OW70168   2.965   5.987   4.477 -0.3466 -0.1677 -0.5393
19370SOL    HW170169   2.987   6.084   4.484  1.2467 -0.5421 -0.1380
19370SOL    HW270170   3.044   5.937   4.442 -0.8845 -1.4319  0.0006
19371SOL     OW70171   3.870   2.430   5.586  0.1074  0.1056 -0.2674
19371SOL    HW170172   3.810   2.375   5.528 -0.2807 -0.0846  0.3074
19371SOL    HW270173   3.931   2.485   5.529  0.6180 -1.0450 -0.8515
19372SOL     OW70174   0.523   7.595   7.538 -0.2827  0.2994 -0.0424
19372SOL    HW170175   0.477   7.633   7.618  0.6098  1.6609 -0.1738
19372SOL    HW270176   0.581   7.664   7.496  1.2318 -1.1411 -0.3859
19373SOL     OW70177   2.086   5.797   1.765  0.0337 -0.0300 -0.3152
19373SOL    HW170178   2.072   5.895   1.753 -0.5283 -0.2076 -1.1700
19373SOL    HW270179   2.017   5.747   1.712 -0.9350 -0.8603  1.6628
19374SOL     OW70180   9.620   6.743  10.028  0.1314  0.0935  0.7973
19374SOL    HW170181   9.521   6.749  10.041  0.1112 -1.4988  1.5458
19374SOL    HW270182   9.649   6.648  10.039  1.2849 -0.0653 -2.8706
19375SOL     OW70183   1.391   1.975   6.035  0.4009  0.3677  0.1612
19375SOL    HW170184   1.390   1.885   6.079  2.1767 -0.7410 -1.9820
19375SOL    HW270185   1.315   1.982   5.971  1.2184 -0.2294 -0.8756
19376SOL     OW70186   2.976   4.065   5.918 -0.0719 -0.0473  0.0025
19376SOL    HW170187   2.925   4.150   5.904  0.7773  0.4607 -0.0250
19376SOL    HW270188   3.059   4.067   5.863 -1.3850 -2.0786 -2.1688
19377SOL     OW70189   5.174   9.127   3.640 -0.6259  0.3345 -0.0215
19377SOL    HW170190   5.248   9.189   3.612  0.2260 -0.6454  0.0539
19377SOL    HW270191   5.100   9.131   3.571 -0.4289  1.1614 -0.1955
19378SOL     OW70192   1.615   2.226   7.915  0.3618  0.6618  0.3144
19378SOL    HW170193   1.633   2.253   8.009 -0.1548 -0.7425  0.8334
19378SOL    HW270194   1.548   2.288   7.875  0.8539  1.4768  0.7538
19379SOL     OW70195   6.438   5.322   0.250  0.2952  0.8806 -0.5026
19379SOL    HW170196   6.422   5.280   0.339  1.8240  0.7771 -0.2694
19379SOL    HW270197   6.352   5.358   0.215 -0.6390 -0.5419  0.2615
19380SOL     OW70198   8.556   7.747   0.457  0.1353 -0.7071  0.0588
19380SOL    HW170199   8.464   7.719   0.430  0.0532  1.3677 -2.0002
19380SOL    HW270200   8.621   7.674   0.435 -0.3158 -0.1597 -3.5494
19381SOL     OW70201   5.258   2.692   6.390  0.6010  0.4089  0.2085
19381SOL    HW170202   5.308   2.674   6.305 -0.7226  0.8945 -0.7026
19381SOL    HW270203   5.173   2.639   6.390  0.6980  0.2390  1.3474
19382SOL     OW70204   7.381   6.160   0.063 -0.2572  0.0823  0.3586
19382SOL    HW170205   7.376   6.226   0.137 -2.4509  0.0998  0.2196
19382SOL    HW270206   7.441   6.195  -0.009  1.4860  0.2808  1.8873
19383SOL     OW70207   6.203   5.750   0.837 -0.7494 -0.3387 -0.2662
19383SOL    HW170208   6.257   5.668   0.814  0.5448  0.0960  1.1070
19383SOL    HW270209   6.217   5.820   0.767  0.6972 -0.1451  0.1924
19384SOL     OW70210   0.703   4.127   2.301 -0.6966 -0.2012 -0.4602
19384SOL    HW170211   0.727   4.064   2.226  2.5190 -0.8382  0.9849
19384SOL    HW270212   0.631   4.086   2.356 -2.0699 -0.3905 -2.3386
19385SOL     OW70213   8.862   4.654   7.438  0.0418 -0.3460 -0.1905
19385SOL    HW170214   8.773   4.611   7.428  0.3364 -0.8762 -0.5812
19385SOL    HW270215   8.882   4.708   7.357 -0.1585  0.2134  0.1323
19386SOL     OW70216   5.905   9.789   3.458  0.0569  0.3402 -0.3192
19386SOL    HW170217   5.833   9.782   3.390 -1.4297  0.0724  1.2393
19386SOL    HW270218   5.954   9.875   3.446 -0.7133  0.6569 -1.2214
19387SOL     OW70219   9.778   0.327   8.645  0.0237  0.1691 -0.2863
19387SOL    HW170220   9.843   0.256   8.620  2.3284  1.3904  2.0362
19387SOL    HW270221   9.807   0.414   8.606 -0.1234  0.7609  0.9185
19388SOL     OW70222   6.800   8.025   4.505 -0.1748 -0.0873  0.5019
19388SOL    HW170223   6.844   8.109   4.475 -0.1937 -0.6315 -1.1344
19388SOL    HW270224   6.866   7.967   4.553 -0.0445  0.6470  1.2081
19389SOL     OW70225   4.439   6.451   1.770  0.6194  0.2143  0.7100
19389SOL    HW170226   4.508   6.523   1.771  1.7037 -0.7689 -0.5455
19389SOL    HW270227   4.476   6.370   1.725 -0.5806 -1.1416  2.0857
19390SOL     OW70228   9.444   6.818   2.638 -0.0125  0.4750 -0.2876
19390SOL    HW170229   9.388   6.886   2.592  0.6593 -0.0647 -1.9435
19390SOL    HW270230   9.524   6.797   2.582  0.6938 -0.3853  1.0188
19391SOL     OW70231   0.942   2.958   1.909 -0.1870  0.5231 -0.3658
19391SOL    HW170232   0.952   3.032   1.976  0.5986  0.6325 -0.5984
19391SOL    HW270233   0.893   2.881   1.951  0.1463  0.6574  0.2746
19392SOL     OW70234   9.246   7.181   5.283 -0.3249 -0.4044 -0.2356
19392SOL    HW170235   9.285   7.091   5.266 -1.0553 -0.6333 -0.7546
19392SOL    HW270236   9.198   7.212   5.200 -0.6451  0.1604  0.1630
19393SOL     OW70237   1.408   6.632   8.553  0.0770  0.0742  0.3647
19393SOL    HW170238   1.411   6.549   8.497 -0.1977  0.0906  0.3261
19393SOL    HW270239   1.323   6.634   8.605  1.4193 -1.1993  2.7263
19394SOL     OW70240   6.908   1.136   7.710  0.0169  0.3718  0.7710
19394SOL    HW170241   6.826   1.085   7.739 -0.4262  0.1821 -0.7381
19394SOL    HW270242   6.947   1.184   7.788 -1.3646  0.2155  1.5787
19395SOL     OW70243   5.803   4.463   1.721 -0.5898 -0.0395 -0.1302
19395SOL    HW170244   5.706   4.440   1.710 -0.1001 -1.9769 -0.5619
19395SOL    HW270245   5.839   4.416   1.801  0.2393 -0.1052 -0.5424
19396SOL     OW70246   5.430   1.087   5.307  0.0613 -0.0884  0.2099
19396SOL    HW170247   5.504   1.020   5.296  1.0528  0.8485  1.0179
19396SOL    HW270248   5.357   1.066   5.243  1.3182 -0.6390 -1.0845
19397SOL     OW70249   4.396   1.167   8.109 -0.1478 -0.1227  0.3151
19397SOL    HW170250   4.344   1.160   8.194 -0.0527 -1.3545  0.2881
19397SOL    HW270251   4.347   1.120   8.036  0.4696 -0.3282  0.0289
19398SOL     OW70252   6.349   2.731   4.198 -0.0467  0.3954 -0.0121
19398SOL    HW170253   6.301   2.712   4.284 -0.2309  0.6517 -0.0563
19398SOL    HW270254   6.319   2.666   4.128  1.7704 -1.2616  0.7157
19399SOL     OW70255   2.356   5.588   1.057  0.1959 -0.1628  0.4599
19399SOL    HW170256   2.350   5.495   1.092  0.6671  0.2022  1.5364
19399SOL    HW270257   2.381   5.586   0.960 -2.6003 -1.2295 -0.2896
19400SOL     OW70258   3.382   0.470   7.996  0.3262  0.5410 -0.5548
19400SOL    HW170259   3.339   0.483   8.086  2.2711  2.4807  0.1564
19400SOL    HW270260   3.312   0.470   7.925 -1.0985  0.6430  0.8211
19401SOL     OW70261   3.878   5.869   7.917 -0.4460 -0.5054  0.1934
19401SOL    HW170262   3.795   5.833   7.873 -0.8430  0.5099  0.1017
19401SOL    HW270263   3.952   5.874   7.850 -0.3292 -1.3341  0.2542
19402SOL     OW70264   3.280   1.372   3.733  0.1561  0.0477 -0.7931
19402SOL    HW170265   3.245   1.333   3.818  1.0917 -2.0371 -1.3450
19402SOL    HW270266   3.207   1.374   3.665 -0.3121  0.7410 -0.2813
19403SOL     OW70267   1.851   4.653   2.736 -0.3005  0.0305 -0.4899
19403SOL    HW170268   1.779   4.686   2.797  0.8154  0.1205  0.8065
19403SOL    HW270269   1.912   4.592   2.786  1.0252  0.6255 -1.3403
19404SOL     OW70270   3.474   1.894   3.802  0.2609 -0.2258 -0.0916
19404SOL    HW170271   3.560   1.876   3.755  0.3780  1.5492 -0.6078
19404SOL    HW270272   3.479   1.983   3.848 -1.2098 -0.1946  0.0520
19405SOL     OW70273   8.719   2.045   4.253  0.0867 -0.0845 -0.0998
19405SOL    HW170274   8.705   2.063   4.155  0.9642  2.3508  0.2051
19405SOL    HW270275   8.812   2.070   4.278  0.8545 -3.5225  0.7637
19406SOL     OW70276   8.800   8.747   0.489 -0.0453 -0.4171 -0.3420
19406SOL    HW170277   8.741   8.796   0.425 -0.4920 -0.6859 -0.1337
19406SOL    HW270278   8.789   8.648   0.475 -0.2742 -0.4756  0.2741
19407SOL     OW70279   3.349   6.275   6.056  0.2718 -0.4167  0.2953
19407SOL    HW170280   3.366   6.373   6.050  0.9297 -0.5179  0.5012
19407SOL    HW270281   3.381   6.241   6.144  0.3945 -0.8897  0.0703
19408SOL     OW70282   9.471   3.002   5.251 -0.4574  0.3247  0.0711
19408SOL    HW170283   9.521   2.923   5.287 -1.6825 -1.2385 -1.5887
19408SOL    HW270284   9.442   3.060   5.328  0.1633 -1.0123  1.3476
19409SOL     OW70285   4.172   7.849   3.490  0.1965  0.0937  0.8188
19409SOL    HW170286   4.215   7.758   3.483 -1.2293 -0.5436  0.0207
19409SOL    HW270287   4.076   7.838   3.516 -0.5369  1.2311 -1.2697
19410SOL     OW70288   6.238   1.691   3.946  0.0467 -0.2977 -0.4937
19410SOL    HW170289   6.318   1.746   3.972 -0.9668 -0.1943  2.6888
19410SOL    HW270290   6.252   1.596   3.972 -1.4610  0.0109  1.6211
19411SOL     OW70291   1.031   7.840   0.204  0.8000 -0.4812 -0.0050
19411SOL    HW170292   0.982   7.781   0.268  0.7165 -0.3164  0.0857
19411SOL    HW270293   1.100   7.787   0.155  2.0997 -0.2351  1.5200
19412SOL     OW70294   7.602   7.153   4.895  0.0420  0.3116 -0.4045
19412SOL    HW170295   7.594   7.249   4.868  2.0674  0.5463 -0.2702
19412SOL    HW270296   7.659   7.105   4.828  1.8548  0.0068  1.3016
19413SOL     OW70297   6.444   9.570   2.221 -0.1650  0.1020  0.4278
19413SOL    HW170298   6.516   9.536   2.282 -1.0705 -0.1779  1.3488
19413SOL    HW270299   6.397   9.493   2.180 -1.5122  0.2357  1.6838
19414SOL     OW70300   9.506   5.210   3.295  0.5694 -0.1706  0.1199
19414SOL    HW170301   9.579   5.225   3.361 -0.5154  1.1968  1.0348
19414SOL    HW270302   9.435   5.152   3.336 -0.7549  1.7884  0.6752
19415SOL     OW70303   1.726   4.920   3.339 -0.1270 -0.3023  0.1098
19415SOL    HW170304   1.666   4.851   3.299  0.8217  0.3816 -2.5880
19415SOL    HW270305   1.686   5.011   3.326  0.6013 -0.0012 -0.0730
19416SOL     OW70306   7.651   6.395   7.580  0.5451  0.0128 -0.3070
19416SOL    HW170307   7.607   6.310   7.552 -0.7812  0.1988  1.1440
19416SOL    HW270308   7.673   6.449   7.498 -4.1083  0.9747 -1.0625
19417SOL     OW70309   2.292   1.015   3.169 -0.8764  0.6184 -0.2431
19417SOL    HW170310   2.315   1.073   3.247 -3.3508  0.0628  0.9589
19417SOL    HW270311   2.366   0.950   3.153 -0.3528  0.6970  1.6843
19418SOL     OW70312   3.897   7.799   3.494  0.4038  0.0298 -0.1848
19418SOL    HW170313   3.834   7.726   3.520 -0.1493  0.7632  0.5830
19418SOL    HW270314   3.901   7.806   3.395  2.7823 -3.0243 -0.3749
19419SOL     OW70315   0.440   4.530   2.439 -0.4019 -0.2828  0.5470
19419SOL    HW170316   0.463   4.454   2.499  0.0518 -0.6930 -0.1375
19419SOL    HW270317   0.341   4.537   2.428 -0.5459  0.4227  2.1439
19420SOL     OW70318   0.978   0.431   8.628  0.4317 -0.0136  0.0748
19420SOL    HW170319   0.928   0.410   8.544  0.6519 -1.5801  0.3163
19420SOL    HW270320   1.038   0.509   8.613 -1.6366  1.5508 -0.3947
19421SOL     OW70321   2.651   9.199   2.424  0.1788  0.2920 -0.5968
19421SOL    HW170322   2.617   9.242   2.508 -0.6143  0.0105 -0.7627
19421SOL    HW270323   2.576   9.147   2.381  0.7106  0.0321 -1.2148
19422SOL     OW70324   0.573   4.621   6.928 -0.5391  0.6590 -0.1713
19422SOL    HW170325   0.563   4.549   6.859  1.6413 -1.1144  1.2939
19422SOL    HW270326   0.559   4.710   6.885 -3.0450 -0.6025 -2.0743
19423SOL     OW70327   7.090   7.793   4.230  0.1171 -0.1436  0.2074
19423SOL    HW170328   7.176   7.745   4.249  2.2584  2.4006 -2.5678
19423SOL    HW270329   7.023   7.728   4.194  1.3202 -1.9031  1.0633
19424SOL     OW70330   4.561   8.901   4.937 -0.4963  0.3069  0.1521
19424SOL    HW170331   4.505   8.832   4.891 -1.3822 -0.4228  2.2776
19424SOL    HW270332   4.638   8.857   4.982 -0.2416  0.8865  0.2837
19425SOL     OW70333   9.200   8.478   9.054  0.1118  0.1400  0.4031
19425SOL    HW170334   9.270   8.465   8.984 -1.5887 -2.6143 -0.8875
19425SOL    HW270335   9.222   8.423   9.135  0.1064  0.3041  0.5178
19426SOL     OW70336   3.202   5.929   6.973  0.2758 -0.7756  0.3620
19426SOL    HW170337   3.106   5.952   6.989  0.5067  0.4533  0.0240
19426SOL    HW270338   3.260   5.982   7.035  0.8648  0.1323 -0.9385
19427SOL     OW70339   2.655   0.162   6.136  0.5968 -0.3040 -0.0461
19427SOL    HW170340   2.721   0.222   6.091  1.0813 -0.6768  0.1641
19427SOL    HW270341   2.624   0.092   6.072  0.5851 -0.2741 -0.0736
19428SOL     OW70342   9.684   5.468   9.167  0.3706 -0.1761  0.7669
19428SOL    HW170343   9.764   5.408   9.170  1.4801  1.2931  1.4703
19428SOL    HW270344   9.706   5.554   9.214 -1.3069  0.6290  0.0988
19429SOL     OW70345   6.021   1.903   4.229  0.2445  0.6310  0.1157
19429SOL    HW170346   5.995   1.859   4.143  1.5663 -0.9023  0.4981
19429SOL    HW270347   5.938   1.921   4.283 -0.3228 -1.3431 -0.0610
19430SOL     OW70348   1.490   6.788   5.206  0.4644 -0.3734  0.0580
19430SOL    HW170349   1.489   6.780   5.106  3.8212 -0.2610 -0.0471
19430SOL    HW270350   1.519   6.701   5.246  2.9911  0.6922  0.6771
19431SOL     OW70351   4.811   7.212   3.242 -0.0699 -0.2346  0.2774
19431SOL    HW170352   4.867   7.288   3.273  0.4319 -1.2708  1.9318
19431SOL    HW270353   4.763   7.170   3.319  0.6027 -2.3623 -0.3983
19432SOL     OW70354   3.031   6.157   1.386  0.3491  0.2488  0.3511
19432SOL    HW170355   3.042   6.107   1.300  1.1602  0.7495  0.1542
19432SOL    HW270356   3.063   6.251   1.374 -0.8084  0.7102  0.8260
19433SOL     OW70357   5.153   7.951   3.036 -0.8078 -0.7648  0.2366
19433SOL    HW170358   5.184   8.046   3.037  0.2145 -1.0965  0.0405
19433SOL    HW270359   5.060   7.946   3.074 -1.9385  0.6765 -2.1822
19434SOL     OW70360   8.034   0.798   6.795  0.1690  0.2542  0.1004
19434SOL    HW170361   7.949   0.798   6.847 -0.6435  0.9682 -1.1903
19434SOL    HW270362   8.021   0.744   6.711  1.4861 -0.9866  0.6749
19435SOL     OW70363   8.091   9.012   8.067 -0.0856 -0.1445 -0.3249
19435SOL    HW170364   8.154   9.027   7.991  0.5942 -1.2592  0.0005
19435SOL    HW270365   8.128   9.053   8.150  0.0683 -0.5225 -0.2037
19436SOL     OW70366   8.182   2.327   0.678 -0.3864  0.1289 -0.3965
19436SOL    HW170367   8.227   2.397   0.734  0.3468 -1.4496  1.0395
19436SOL    HW270368   8.204   2.341   0.582 -1.5581  2.8226 -0.3131
19437SOL     OW70369   5.212   2.969   5.432 -0.2949 -0.2080  0.2024
19437SOL    HW170370   5.233   2.883   5.385 -1.2188 -0.2027 -0.2244
19437SOL    HW270371   5.225   2.957   5.531  1.4156 -0.2901 -0.0096
19438SOL     OW70372   1.695   4.369   5.605  0.4011  0.3189 -0.0055
19438SOL    HW170373   1.768   4.385   5.539 -1.9308  4.0035 -1.8005
19438SOL    HW270374   1.679   4.452   5.659 -2.4022 -0.4377  0.4114
19439SOL     OW70375   3.954   4.664   7.868  0.3332  0.2234  0.1365
19439SOL    HW170376   3.907   4.641   7.953  0.6188 -3.3146 -0.5766
19439SOL    HW270377   4.053   4.658   7.882  0.3980  0.3256 -0.2705
19440SOL     OW70378   2.048   9.556   2.790 -0.5957 -0.0601  0.2608
19440SOL    HW170379   2.065   9.620   2.865 -0.6692  0.7819 -0.4299
19440SOL    HW270380   2.078   9.464   2.817  1.7206  0.6922  0.4043
19441SOL     OW70381   0.734   2.856   8.577  0.1800 -0.3163 -0.4576
19441SOL    HW170382   0.713   2.785   8.644 -1.8240  0.7638  0.1057
19441SOL    HW270383   0.803   2.917   8.615 -0.9813  0.3190  0.6735
19442SOL     OW70384   3.142   8.077   1.691 -0.2891 -0.1409  0.0320
19442SOL    HW170385   3.067   8.127   1.648 -0.1752 -0.1790 -0.2135
19442SOL    HW270386   3.119   7.980   1.697 -1.2320  0.1652  2.0506
19443SOL     OW70387   3.697   2.612   6.035  0.2005 -0.4156 -0.2389
19443SOL    HW170388   3.722   2.518   6.060 -0.2978 -0.4510  0.1149
19443SOL    HW270389   3.608   2.613   5.990 -0.0820 -0.0355  0.3251
19444SOL     OW70390   9.229  10.000   1.297  0.0684  0.1204 -0.3496
19444SOL    HW170391   9.264   9.923   1.350  0.0807  0.9483  0.8626
19444SOL    HW270392   9.306  10.046   1.252  0.1246 -0.2539 -0.6365
19445SOL     OW70393   3.520   5.906   8.439  0.0746 -0.2692  0.3941
19445SOL    HW170394   3.444   5.842   8.445  0.0757 -0.4113 -1.0370
19445SOL    HW270395   3.593   5.867   8.383  1.1191 -0.0358  1.5566
19446SOL     OW70396   1.835   1.094   3.580  0.0961  0.2174  0.1300
19446SOL    HW170397   1.847   1.016   3.641 -1.3084  1.4526  2.0393
19446SOL    HW270398   1.924   1.132   3.555  0.7754 -1.8368 -0.6373
19447SOL     OW70399   0.253   2.027   4.180  0.6692  0.4833  0.0485
19447SOL    HW170400   0.233   2.000   4.275 -2.4544  0.8224 -0.4744
19447SOL    HW270401   0.298   1.951   4.134  0.9424 -0.2066  1.4053
19448SOL     OW70402   2.746   2.668   9.282 -0.0294 -0.0267 -0.3270
19448SOL    HW170403   2.764   2.714   9.369  0.9872 -3.9614  1.6236
19448SOL    HW270404   2.647   2.664   9.267 -0.1636  1.9406 -0.1036
19449SOL     OW70405   3.544   4.232   4.227  0.3773 -0.0568  0.0545
19449SOL    HW170406   3.492   4.298   4.280  1.8185  1.2198 -0.0928
19449SOL    HW270407   3.517   4.237   4.131 -0.3635 -0.5255  0.2376
19450SOL     OW70408   7.571   6.781   2.144 -0.0386  0.0512 -0.0494
19450SOL    HW170409   7.654   6.740   2.105 -0.7997 -0.3729 -1.2829
19450SOL    HW270410   7.593   6.870   2.184  1.2307 -0.5971  0.7032
19451SOL     OW70411   8.473   0.243   9.407  0.2675 -0.3978  0.8466
19451SOL    HW170412   8.542   0.247   9.335 -1.4258 -1.6993 -0.8965
19451SOL    HW270413   8.491   0.316   9.473  2.1728  0.4991 -0.5774
19452SOL     OW70414   6.798   0.816   1.714  0.1171 -0.8747  0.1180
19452SOL    HW170415   6.794   0.914   1.735  0.4447 -0.8191 -0.0824
19452SOL    HW270416   6.712   0.774   1.740 -0.0482 -0.5216  0.1546
19453SOL     OW70417   6.831   8.708   7.946  0.6890  0.0006 -0.0583
19453SOL    HW170418   6.876   8.680   7.861 -1.3269  1.0588 -1.5075
19453SOL    HW270419   6.891   8.687   8.023  2.9582 -0.1317 -1.7890
19454SOL     OW70420   3.649   0.454   0.259 -0.5515 -0.1414 -0.5996
19454SOL    HW170421   3.653   0.466   0.159 -1.6894 -0.8993 -0.7525
19454SOL    HW270422   3.576   0.389   0.281 -1.2653  1.1208  0.8244
19455SOL     OW70423   3.501   4.524   8.553 -0.3371 -0.1826 -0.4911
19455SOL    HW170424   3.506   4.521   8.653  0.0725  0.0056 -0.5028
19455SOL    HW270425   3.438   4.596   8.525  2.8874  2.8234 -0.4060
19456SOL     OW70426   0.019   0.664   7.393  0.2548 -0.7510 -0.3105
19456SOL    HW170427   0.053   0.570   7.385 -0.7354 -1.2877  1.4413
19456SOL    HW270428  -0.038   0.685   7.314 -3.7543 -3.5003  1.6319
19457SOL     OW70429   4.651   9.757   5.790 -1.1245  0.3103 -0.0268
19457SOL    HW170430   4.588   9.802   5.727  0.1290  2.7197  0.3878
19457SOL    HW270431   4.623   9.775   5.884 -1.3493 -0.8887  0.1453
19458SOL     OW70432   7.955   9.403   3.447  0.2006  0.1125 -0.3645
19458SOL    HW170433   7.961   9.501   3.428  1.4259  0.1590  0.2541
19458SOL    HW270434   7.951   9.353   3.360  0.8520  0.6286 -0.6963
19459SOL     OW70435   3.196   3.664   6.052  0.1652 -0.2329 -0.0421
19459SOL    HW170436   3.139   3.599   6.101 -0.8997 -0.1537 -1.1671
19459SOL    HW270437   3.214   3.630   5.960  0.4534  0.5798 -0.2918
19460SOL     OW70438   1.029   7.346   3.815 -0.2781 -0.3804  0.0525
19460SOL    HW170439   1.013   7.321   3.720 -1.8485 -1.6055  0.6112
19460SOL    HW270440   1.074   7.435   3.820  0.3554 -0.5818 -1.8365
19461SOL     OW70441   1.583   5.026   5.237 -0.0266  0.6467 -1.1959
19461SOL    HW170442   1.493   5.003   5.199 -0.0380  1.5365 -1.7216
19461SOL    HW270443   1.631   5.087   5.174  0.1183  1.8345  0.0266
19462SOL     OW70444   3.067   3.058   1.865  0.0745 -0.5436 -0.4128
19462SOL    HW170445   2.976   3.045   1.825  0.0398  0.0413 -0.5246
19462SOL    HW270446   3.063   3.125   1.939  0.5849  0.2101 -1.0575
19463SOL     OW70447   3.492   6.630   0.228  0.1736 -0.1113 -0.2164
19463SOL    HW170448   3.502   6.709   0.289  1.7133  1.4887 -2.4325
19463SOL    HW270449   3.552   6.556   0.258 -0.5637 -0.0952  1.3280
19464SOL     OW70450   0.365   1.015   7.866 -0.0380  0.4766  0.2397
19464SOL    HW170451   0.456   1.051   7.846 -0.0495  0.6233  0.4551
19464SOL    HW270452   0.310   1.016   7.783  0.1217  0.4914  0.1338
19465SOL     OW70453   7.546   4.093   8.231  0.1783  0.1133  0.3800
19465SOL    HW170454   7.475   4.060   8.168  0.3507 -0.8870  0.7073
19465SOL    HW270455   7.590   4.015   8.276  1.4181  0.7364  0.2600
19466SOL     OW70456   6.470   0.578   1.404  0.0307  0.2449  0.3703
19466SOL    HW170457   6.555   0.536   1.438 -0.1375 -0.3242  0.0895
19466SOL    HW270458   6.438   0.646   1.470  0.5685  0.2831  0.5978
19467SOL     OW70459   1.001   2.648   6.120  0.1534  0.0317  0.4163
19467SOL    HW170460   0.972   2.600   6.203  0.4003 -1.0965 -0.1397
19467SOL    HW270461   0.987   2.746   6.132  0.9355 -0.0336  2.1083
19468SOL     OW70462   0.183   4.995   0.918 -0.5949  0.4513 -0.1780
19468SOL    HW170463   0.186   4.902   0.954 -1.5506  1.0015  1.3591
19468SOL    HW270464   0.246   5.003   0.840 -1.0165 -1.6549 -0.7619
19469SOL     OW70465   9.992   0.602   6.334 -0.4490  0.1404  0.8759
19469SOL    HW170466   9.934   0.521   6.349 -0.0079 -0.4557 -0.5629
19469SOL    HW270467   9.952   0.659   6.263  0.4786 -0.0371  0.2029
19470SOL     OW70468   3.274   9.452   2.275 -0.3325  0.2525 -0.7287
19470SOL    HW170469   3.341   9.381   2.253  1.9290  1.9631  0.3630
19470SOL    HW270470   3.288   9.531   2.215  1.0991  2.0524  1.8582
19471SOL     OW70471   2.587   7.755   0.918 -0.2239  0.2023  0.5705
19471SOL    HW170472   2.522   7.707   0.860 -0.2486 -0.0559  0.8092
19471SOL    HW270473   2.537   7.809   0.986 -0.1922  0.2983  0.5185
19472SOL     OW70474   2.107   3.436   5.576  0.1844 -0.0465 -0.4083
19472SOL    HW170475   2.059   3.472   5.657  0.4698 -1.8951  0.5973
19472SOL    HW270476   2.043   3.431   5.500 -0.3994  0.5566  0.0255
19473SOL     OW70477   0.876   5.644   3.177 -0.3384  0.5916 -0.0879
19473SOL    HW170478   0.911   5.722   3.125  0.2172  1.2347  1.2115
19473SOL    HW270479   0.917   5.560   3.142  0.2207  1.0429 -0.5350
19474SOL     OW70480   3.674   8.771   9.295  0.0307  0.2288 -0.2889
19474SOL    HW170481   3.729   8.810   9.369 -0.3987  0.5526 -0.1360
19474SOL    HW270482   3.638   8.846   9.238 -0.0518  0.0063 -0.5310
19475SOL     OW70483   2.074   0.144   3.129  0.4479  0.2886  0.1024
19475SOL    HW170484   2.077   0.205   3.208  0.4588 -0.2203  0.5019
19475SOL    HW270485   2.073   0.049   3.161 -2.1609  0.1040 -0.4004
19476SOL     OW70486   4.859   6.333   0.610 -0.0418  0.3121 -0.1491
19476SOL    HW170487   4.875   6.243   0.650  2.1434  1.0218  0.6164
19476SOL    HW270488   4.931   6.354   0.544 -1.1192  1.0761 -1.1125
19477SOL     OW70489   0.235   5.519   0.820  0.1936  0.3684 -0.3704
19477SOL    HW170490   0.280   5.446   0.770 -0.4337  0.3012 -0.8373
19477SOL    HW270491   0.140   5.493   0.838  1.1809 -0.9342  3.4657
19478SOL     OW70492   5.367   3.855   8.878  0.5564 -0.4203  0.4253
19478SOL    HW170493   5.404   3.892   8.793  2.2459 -0.4575  1.1295
19478SOL    HW270494   5.321   3.769   8.860 -1.0544  0.6691 -0.8025
19479SOL     OW70495   5.803   0.825   7.174 -0.3742  0.2102 -0.1066
19479SOL    HW170496   5.848   0.744   7.212 -0.9231  0.0556  0.2156
19479SOL    HW270497   5.867   0.874   7.114  0.2845  0.0867  0.4868
19480SOL     OW70498   1.020   2.169   9.212  0.2206  0.0844  0.1917
19480SOL    HW170499   1.084   2.242   9.235 -0.6645  0.7420  0.6138
19480SOL    HW270500   1.055   2.082   9.247  1.5962  0.1991 -0.8949
19481SOL     OW70501   9.506   6.871   6.163  0.0435 -0.0846  0.1961
19481SOL    HW170502   9.415   6.912   6.160 -0.5564 -1.4573 -0.2814
19481SOL    HW270503   9.565   6.917   6.096 -0.5858  0.0899 -0.2441
19482SOL     OW70504   7.059   7.270   5.852 -0.0433  0.0375  0.8286
19482SOL    HW170505   7.091   7.180   5.880 -0.3949 -0.4106 -0.1848
19482SOL    HW270506   7.047   7.272   5.753  0.7859  1.4629  0.7324
19483SOL     OW70507   4.733   6.158   3.548 -0.1657 -0.0743 -0.4037
19483SOL    HW170508   4.710   6.066   3.580  0.5235 -0.3623 -0.7317
19483SOL    HW270509   4.765   6.212   3.626 -1.1229  0.0779 -0.1000
19484SOL     OW70510   2.931   9.620   0.355 -0.3990  0.5608 -0.0851
19484SOL    HW170511   2.918   9.719   0.364  1.6702  0.8954 -0.4968
19484SOL    HW270512   2.871   9.572   0.419 -0.4887  2.1434  1.0459
19485SOL     OW70513   7.834   3.145   1.696  0.4880  0.2952  0.1325
19485SOL    HW170514   7.867   3.185   1.611  1.8212 -0.6843  0.1694
19485SOL    HW270515   7.797   3.053   1.678  0.1842  0.3420  0.5043
19486SOL     OW70516   0.372   3.815   0.079  0.2513  0.4919 -0.1639
19486SOL    HW170517   0.353   3.798  -0.017  2.5260 -2.5718 -0.1405
19486SOL    HW270518   0.337   3.740   0.134  1.3975  0.8581  1.1058
19487SOL     OW70519   0.669   3.870   3.455 -0.1413 -0.0103 -0.0422
19487SOL    HW170520   0.682   3.968   3.441 -1.6140 -0.0148 -1.7727
19487SOL    HW270521   0.628   3.853   3.544 -1.9290  1.1635 -0.6176
19488SOL     OW70522   2.231   0.534   4.912 -0.4612 -0.5648 -0.5701
19488SOL    HW170523   2.290   0.454   4.909 -0.0756 -0.3397  0.7895
19488SOL    HW270524   2.257   0.593   4.988 -1.1575  0.5386 -1.1620
19489SOL     OW70525   9.365   6.615   8.914  0.2009 -0.0046  0.0598
19489SOL    HW170526   9.451   6.593   8.868 -0.1578 -0.6824 -0.3000
19489SOL    HW270527   9.334   6.706   8.887  1.4314  0.7313  1.1329
19490SOL     OW70528   3.800   9.637   6.038 -0.2509  0.3714 -0.2381
19490SOL    HW170529   3.716   9.582   6.041  0.0608 -0.1717 -1.4131
19490SOL    HW270530   3.823   9.657   5.943  0.7663  0.8141  0.1015
19491SOL     OW70531   2.334   9.996   1.617 -0.0123  0.6479 -0.1944
19491SOL    HW170532   2.342   9.971   1.520  0.8351  2.1256 -0.5266
19491SOL    HW270533   2.247   9.964   1.652 -0.1536 -0.2771 -1.3396
19492SOL     OW70534   9.422   2.803   3.362  0.3733 -0.7149 -0.1309
19492SOL    HW170535   9.364   2.873   3.404  1.4662  2.1393 -3.1675
19492SOL    HW270536   9.497   2.780   3.424 -0.4611  0.1629  1.2400
19493SOL     OW70537   2.247   1.864   2.497 -0.2217 -0.2735  0.0237
19493SOL    HW170538   2.157   1.906   2.490 -0.5507 -0.8563  0.7546
19493SOL    HW270539   2.240   1.766   2.482  0.3175 -0.3038 -0.0632
19494SOL     OW70540   9.214   7.241   4.538  0.3419  0.0176  0.1910
19494SOL    HW170541   9.163   7.324   4.513  0.2004 -0.2646 -0.4781
19494SOL    HW270542   9.179   7.205   4.624 -0.4565 -0.0585 -0.1569
19495SOL     OW70543   5.566   8.238   5.766  0.5547  0.5710 -0.0240
19495SOL    HW170544   5.547   8.150   5.809 -1.0499  0.9885  0.1579
19495SOL    HW270545   5.522   8.242   5.676 -0.4329  1.6356  0.4825
19496SOL     OW70546   8.439   1.827   3.042 -0.0699  0.1579  0.0713
19496SOL    HW170547   8.492   1.765   2.984 -0.7336 -0.0750 -0.2899
19496SOL    HW270548   8.450   1.921   3.008 -1.9029 -0.1970 -1.5421
19497SOL     OW70549   3.152   2.123   8.346  0.2173 -0.4664  0.0118
19497SOL    HW170550   3.099   2.043   8.373 -1.9261  0.2411 -1.9762
19497SOL    HW270551   3.191   2.108   8.255  1.1680  0.1121  0.3178
19498SOL     OW70552   9.565   3.445   1.791  0.1110  0.4488  0.4764
19498SOL    HW170553   9.612   3.434   1.878 -1.2863  0.1493  1.2175
19498SOL    HW270554   9.467   3.426   1.803 -0.1033  0.3988 -1.1554
19499SOL     OW70555   0.855   3.968   7.327 -0.5388  0.3623  0.4581
19499SOL    HW170556   0.814   4.032   7.391  0.3431  0.8665  0.5163
19499SOL    HW270557   0.900   3.894   7.377 -0.3609  0.4357  0.4050
19500SOL     OW70558   9.554   5.844   2.711 -0.7013 -0.7514  0.1191
19500SOL    HW170559   9.625   5.775   2.724  0.9197  0.8276 -0.2162
19500SOL    HW270560   9.596   5.933   2.695 -2.7584  0.5573  1.6684
19501SOL     OW70561   3.673   4.160   3.224 -0.3766  0.7497 -0.4884
19501SOL    HW170562   3.641   4.066   3.239 -0.1575  1.0346  1.9692
19501SOL    HW270563   3.702   4.170   3.129 -3.9876 -0.5851 -1.8199
19502SOL     OW70564   2.612   9.872   4.028  0.3414 -0.0428 -0.4321
19502SOL    HW170565   2.604   9.958   4.077 -0.1303 -0.0217 -0.5464
19502SOL    HW270566   2.521   9.834   4.012  0.4531  0.4171 -2.1390
19503SOL     OW70567   7.895   5.638   2.043  0.2209 -0.3176 -0.3042
19503SOL    HW170568   7.994   5.641   2.035  0.1148  1.0408 -1.1535
19503SOL    HW270569   7.864   5.711   2.105 -0.2785 -0.5419 -0.2849
19504SOL     OW70570   1.124   5.215   8.671 -0.1238 -0.2572 -0.4682
19504SOL    HW170571   1.129   5.248   8.576  1.2652 -1.4111 -0.8053
19504SOL    HW270572   1.172   5.280   8.731 -1.0883  0.5237 -0.5339
19505SOL     OW70573   1.424   1.698   7.591 -0.1378  0.1951  0.6433
19505SOL    HW170574   1.434   1.599   7.595  0.3601  0.2340  0.3732
19505SOL    HW270575   1.498   1.741   7.643 -0.1224  0.4358  0.4215
19506SOL     OW70576   8.233   5.365   1.828 -0.2531  0.1608  0.4246
19506SOL    HW170577   8.249   5.267   1.841  0.0431  0.2157  0.4697
19506SOL    HW270578   8.146   5.378   1.781  1.1213 -0.2390 -2.3380
19507SOL     OW70579   2.816   8.655   2.880 -0.6125  0.0299  0.3018
19507SOL    HW170580   2.751   8.713   2.929 -1.6506  0.9381 -2.0457
19507SOL    HW270581   2.828   8.569   2.929 -1.3162  1.0485  2.3085
19508SOL     OW70582   9.936   5.215   8.136  0.2748 -0.1972 -0.5451
19508SOL    HW170583   9.887   5.284   8.190 -0.0426 -0.6978 -0.1912
19508SOL    HW270584   9.942   5.245   8.041 -1.0436 -0.2975 -0.6651
19509SOL     OW70585   1.258   4.354   6.598  0.1514 -0.2806 -0.3636
19509SOL    HW170586   1.328   4.423   6.615 -0.0396 -0.9757  3.9440
19509SOL    HW270587   1.175   4.398   6.564  0.0160  1.6879  2.3514
19510SOL     OW70588   2.771   6.819   6.709  0.2044 -0.5522  0.4817
19510SOL    HW170589   2.698   6.781   6.652  0.4571 -0.3884  0.0464
19510SOL    HW270590   2.858   6.777   6.685  0.4806  0.2714  0.0216
19511SOL     OW70591   3.868   6.205   4.319  0.0186  0.2986  0.4855
19511SOL    HW170592   3.815   6.179   4.400  0.2327 -0.1770  0.4706
19511SOL    HW270593   3.820   6.175   4.237 -1.1562  2.4516  0.3414
19512SOL     OW70594   5.615   5.907   1.936 -0.5449 -0.2023 -0.2151
19512SOL    HW170595   5.582   5.820   1.972 -0.1539  0.5367  2.0200
19512SOL    HW270596   5.667   5.955   2.007 -1.1077  2.0459 -1.2750
19513SOL     OW70597   2.868   7.808   6.925 -0.3505 -0.0841  0.0999
19513SOL    HW170598   2.965   7.781   6.924 -0.0517  0.9285  1.0174
19513SOL    HW270599   2.847   7.858   6.841  0.1079  0.2899  0.1992
19514SOL     OW70600   1.865   9.349   3.693  0.5365 -0.2831  0.5252
19514SOL    HW170601   1.770   9.379   3.698  0.2062 -1.4592  1.2992
19514SOL    HW270602   1.892   9.307   3.779  1.1191 -1.8203 -0.3783
19515SOL     OW70603   4.997   2.215   0.581 -0.5005  0.0596  0.0777
19515SOL    HW170604   4.999   2.127   0.533  1.9133 -0.0695  0.3630
19515SOL    HW270605   5.011   2.200   0.679 -0.3910  0.7378  0.1674
19516SOL     OW70606   1.333   4.634   4.328 -0.6525  0.2605  0.2067
19516SOL    HW170607   1.382   4.546   4.332 -0.2272  0.3739 -1.9583
19516SOL    HW270608   1.393   4.706   4.362  0.1703  0.1759 -1.0262
19517SOL     OW70609   6.575   9.279   3.873 -0.5368 -0.4753 -0.3396
19517SOL    HW170610   6.533   9.369   3.886  1.1549  0.4002 -0.8555
19517SOL    HW270611   6.576   9.230   3.961 -1.3177  0.0540 -0.0249
19518SOL     OW70612   9.768   4.575   8.853  0.0981  0.1811 -0.4125
19518SOL    HW170613   9.731   4.653   8.904  1.9852  0.7270  0.1450
19518SOL    HW270614   9.694   4.532   8.801 -1.1983  1.6256  0.1816
19519SOL     OW70615   8.786   2.065   3.186 -0.0840 -0.2614 -0.2970
19519SOL    HW170616   8.723   1.988   3.171  1.0527 -1.0136 -1.3457
19519SOL    HW270617   8.843   2.078   3.105  0.8227  0.6757  0.4689
19520SOL     OW70618   1.003   9.676   2.624  0.2147  0.4837 -0.5621
19520SOL    HW170619   0.974   9.752   2.567  0.6637  2.1265  1.3426
19520SOL    HW270620   1.086   9.635   2.585  0.4632  1.5111 -1.1193
19521SOL     OW70621   3.027   1.661   6.424  0.8583  0.2788 -0.6815
19521SOL    HW170622   2.990   1.701   6.340  1.5440  0.2981 -0.9768
19521SOL    HW270623   2.955   1.612   6.473  0.1409  1.4097 -0.6006
19522SOL     OW70624   4.086   4.973   7.458 -0.1848  0.2940  0.1922
19522SOL    HW170625   4.057   5.048   7.399 -1.3088 -0.6133 -0.4491
19522SOL    HW270626   4.086   5.003   7.553 -1.1477  0.9638 -0.0062
19523SOL     OW70627   2.911   7.358   6.448 -0.0685 -0.4151 -0.2412
19523SOL    HW170628   2.911   7.455   6.471 -0.7083 -0.2514 -0.8962
19523SOL    HW270629   2.999   7.318   6.471  0.9783  0.8202 -1.9732
19524SOL     OW70630   5.654   4.511   1.384  0.2204 -0.1983 -0.4931
19524SOL    HW170631   5.661   4.494   1.483 -1.5599 -2.2711 -0.6813
19524SOL    HW270632   5.636   4.608   1.368  4.0432  0.8823  1.0078
19525SOL     OW70633   9.820   5.875   4.905 -0.0060 -0.1994  0.0617
19525SOL    HW170634   9.827   5.850   5.001  1.4379  1.3700  0.3916
19525SOL    HW270635   9.780   5.799   4.853 -2.6019 -0.3569  2.1732
19526SOL     OW70636   4.289   9.401   8.620 -0.1879  0.1549  0.1477
19526SOL    HW170637   4.240   9.482   8.590 -1.1036 -0.2002  0.6668
19526SOL    HW270638   4.285   9.331   8.548 -0.4663  0.1217  0.1939
19527SOL     OW70639   2.109   8.475   2.087 -0.1130 -0.2341 -0.0521
19527SOL    HW170640   2.099   8.438   1.995  0.3254  1.1837 -0.6970
19527SOL    HW270641   2.206   8.476   2.112 -0.2136 -0.4375  0.3543
19528SOL     OW70642   9.797   2.705   0.610 -0.0163 -0.1184 -0.0843
19528SOL    HW170643   9.774   2.770   0.538 -0.2018 -0.9980 -0.8258
19528SOL    HW270644   9.752   2.618   0.593 -0.5757 -0.1471  1.4438
19529SOL     OW70645   1.312   7.785   4.558 -0.1160 -0.1847 -0.0712
19529SOL    HW170646   1.405   7.753   4.540 -0.0791 -1.6242  2.4569
19529SOL    HW270647   1.255   7.770   4.478  1.5891 -0.1366 -1.3218
19530SOL     OW70648   6.462   9.878   3.366  0.2667 -0.3710 -0.4994
19530SOL    HW170649   6.384   9.854   3.424  1.4266 -0.7961  0.9282
19530SOL    HW270650   6.511   9.955   3.406  0.7355 -0.2730 -1.2534
19531SOL     OW70651   0.666   5.846   1.330 -0.7972  0.1544  0.1325
19531SOL    HW170652   0.727   5.835   1.409 -1.7142  2.2029  1.1949
19531SOL    HW270653   0.617   5.761   1.313 -0.7001 -0.2802  1.9007
19532SOL     OW70654   4.517   4.110   5.082 -0.0304  0.7061  0.4019
19532SOL    HW170655   4.614   4.114   5.107 -0.3759  1.3831  1.6913
19532SOL    HW270656   4.461   4.124   5.164 -1.2307 -0.9368 -0.1131
19533SOL     OW70657   4.158   7.951   1.879 -0.3711  0.3124  0.1633
19533SOL    HW170658   4.134   7.854   1.871 -1.0739  0.3841  1.2268
19533SOL    HW270659   4.170   7.973   1.976 -1.5034  1.5854  0.0200
19534SOL     OW70660   3.480   8.117   5.161 -0.0382  0.0919 -0.4308
19534SOL    HW170661   3.444   8.058   5.089  0.2546  0.6583 -1.0430
19534SOL    HW270662   3.499   8.208   5.124  0.7017  0.2054  0.2115
19535SOL     OW70663   8.701   3.630   9.188 -0.3287  0.9907 -0.0756
19535SOL    HW170664   8.685   3.696   9.261  3.2365  1.3206  0.4841
19535SOL    HW270665   8.763   3.558   9.220 -1.3630 -0.6892 -1.7611
19536SOL     OW70666   2.224   7.173   8.736 -0.1489 -0.0185 -0.3581
19536SOL    HW170667   2.136   7.204   8.773  2.4111  3.9774  2.8914
19536SOL    HW270668   2.260   7.241   8.673  1.4720 -0.6932 -0.1902
19537SOL     OW70669   5.703   7.846   6.893 -0.0740  0.2290  0.1872
19537SOL    HW170670   5.736   7.939   6.909  2.5728 -0.5526 -0.4386
19537SOL    HW270671   5.695   7.798   6.980 -0.3929  0.6826  0.4132
19538SOL     OW70672   2.357   1.597   9.218 -0.3788 -0.1483  0.4796
19538SOL    HW170673   2.358   1.642   9.129  0.7649 -0.0999  0.5147
19538SOL    HW270674   2.450   1.594   9.255 -0.5606 -1.8140  0.8374
19539SOL     OW70675   3.312   8.292   9.616 -0.6769  0.1842  0.0587
19539SOL    HW170676   3.269   8.381   9.633  0.2052  0.6556 -0.1380
19539SOL    HW270677   3.327   8.244   9.702  1.6264  1.5469  0.4532
19540SOL     OW70678   0.709   3.666   5.895  0.1916 -0.4420 -0.6329
19540SOL    HW170679   0.724   3.764   5.891 -0.6029 -0.2333  0.8424
19540SOL    HW270680   0.633   3.641   5.834  0.6569 -0.2007 -1.3106
19541SOL     OW70681   7.904   7.207   3.832  0.1997  0.3642  0.1750
19541SOL    HW170682   7.979   7.141   3.832  0.1512  0.3057 -0.6281
19541SOL    HW270683   7.932   7.290   3.881  1.5757  1.2112 -1.9363
19542SOL     OW70684   9.282   8.505   0.891 -0.1374  0.7243  0.1397
19542SOL    HW170685   9.252   8.566   0.818 -0.5521  0.6951  0.2786
19542SOL    HW270686   9.366   8.459   0.864 -0.7862  0.0108 -0.7039
19543SOL     OW70687   4.370   4.968   3.481 -0.0753 -0.2330  0.1794
19543SOL    HW170688   4.403   5.047   3.532 -0.8279  0.4604 -0.3929
19543SOL    HW270689   4.447   4.923   3.436  0.2079  0.9445 -0.5547
19544SOL     OW70690   3.823   9.085   0.096 -0.4586 -0.3706 -0.0197
19544SOL    HW170691   3.895   9.062   0.031 -0.4372 -0.6965  0.1189
19544SOL    HW270692   3.783   9.001   0.133  0.4117 -0.1982  1.3453
19545SOL     OW70693   9.592   6.099   2.033  0.0924 -0.1700 -0.4447
19545SOL    HW170694   9.511   6.143   1.995 -0.1506  0.6544  1.0073
19545SOL    HW270695   9.674   6.139   1.993 -0.1165  1.7566  0.9691
19546SOL     OW70696   9.173   3.496   9.353  0.0752 -0.0206 -0.0308
19546SOL    HW170697   9.154   3.591   9.380  1.8247  0.2418  0.2887
19546SOL    HW270698   9.171   3.437   9.434  2.6374  0.3426  0.3354
19547SOL     OW70699   0.934   8.653   6.910 -0.6896 -0.3093  0.2907
19547SOL    HW170700   0.979   8.575   6.955  0.1507  0.7970  1.4099
19547SOL    HW270701   0.891   8.711   6.979  0.3072  1.2242 -0.3338
19548SOL     OW70702   2.924   8.290   0.520 -0.7172  0.1265  0.2569
19548SOL    HW170703   2.973   8.210   0.554 -0.9193  0.0211  0.2947
19548SOL    HW270704   2.978   8.333   0.447 -2.0557 -1.8426 -1.9533
19549SOL     OW70705   6.209   2.914   2.323  0.1530  0.0536  0.4120
19549SOL    HW170706   6.125   2.861   2.309  0.2710 -0.1852  0.6200
19549SOL    HW270707   6.274   2.861   2.377  1.2288 -0.5843 -1.4694
19550SOL     OW70708   1.971   4.458   0.313 -0.4309 -0.3561  0.1597
19550SOL    HW170709   1.994   4.536   0.372  0.3695 -0.4127 -0.0702
19550SOL    HW270710   1.941   4.381   0.370 -0.7165 -0.0547  0.4202
19551SOL     OW70711   0.829   3.623   1.499  0.2642 -0.4408  0.5011
19551SOL    HW170712   0.880   3.660   1.422 -0.2567  0.9048  0.7970
19551SOL    HW270713   0.743   3.583   1.466 -0.6857  1.5159  0.5471
19552SOL     OW70714   6.871   9.479   4.631  0.2085 -0.3000 -0.1341
19552SOL    HW170715   6.851   9.526   4.545 -0.4892 -0.1022  0.1325
19552SOL    HW270716   6.965   9.499   4.659 -0.5091  2.1407  0.7205
19553SOL     OW70717   3.946   1.976   4.056 -0.4240  0.1241  0.4438
19553SOL    HW170718   3.930   1.887   4.013  2.4329 -0.2507  0.1027
19553SOL    HW270719   3.983   1.963   4.148 -0.5180  0.9639  0.6056
19554SOL     OW70720   7.574   8.486   7.932 -0.0288 -0.5276  0.2873
19554SOL    HW170721   7.510   8.521   8.000  0.6060 -0.3581  0.8067
19554SOL    HW270722   7.591   8.557   7.863  0.8935  0.0499  1.0821
19555SOL     OW70723   0.564   5.855  10.033 -0.0946 -1.0053  0.2284
19555SOL    HW170724   0.616   5.928  10.076  0.5807 -0.1433 -1.9847
19555SOL    HW270725   0.467   5.880  10.030  0.1782 -0.0447 -0.8095
19556SOL     OW70726   3.047   4.596   4.285 -0.2532 -0.1749  0.1619
19556SOL    HW170727   3.012   4.504   4.267  0.9503 -0.3678 -1.3422
19556SOL    HW270728   3.094   4.630   4.203  0.8638  1.0619  1.2941
19557SOL     OW70729   2.125   3.709   5.223  0.3592  0.4651 -0.0394
19557SOL    HW170730   2.103   3.723   5.319  0.2796 -1.1148  0.1896
19557SOL    HW270731   2.200   3.642   5.215  0.6305  0.8759 -1.0586
19558SOL     OW70732   3.644   7.633   0.895  0.3702  0.6985  0.1386
19558SOL    HW170733   3.670   7.536   0.896  0.7464  0.6958 -3.2122
19558SOL    HW270734   3.724   7.689   0.918  0.7989  0.3113 -0.4054
19559SOL     OW70735   5.003   3.080   6.701  0.2483 -0.1364  0.0208
19559SOL    HW170736   5.066   3.007   6.676  1.4151  0.7908  0.2240
19559SOL    HW270737   4.909   3.048   6.690  0.7387 -1.9636  0.9496
19560SOL     OW70738   0.089   5.199   4.886 -1.0469  0.2066 -0.1586
19560SOL    HW170739   0.107   5.292   4.918 -1.1283  0.1453  0.0610
19560SOL    HW270740   0.133   5.133   4.947 -0.2245  0.1274 -0.8237
19561SOL     OW70741   6.058   5.193   8.003 -0.2762 -0.2612 -0.7122
19561SOL    HW170742   6.108   5.269   7.962  0.3556  0.5454  1.4547
19561SOL    HW270743   6.121   5.116   8.018  0.8570  1.3439  3.5520
19562SOL     OW70744   1.309   3.341   4.543  0.1867  0.5535  0.0242
19562SOL    HW170745   1.351   3.263   4.589  0.1898  1.1300  1.0176
19562SOL    HW270746   1.210   3.341   4.559  0.0676  0.2955 -0.6728
19563SOL     OW70747   5.639   4.361   9.356  0.4547  0.0128 -0.0061
19563SOL    HW170748   5.657   4.263   9.367  0.9825  0.0119 -0.8417
19563SOL    HW270749   5.583   4.393   9.432  0.4941 -0.8852  0.4083
19564SOL     OW70750   9.427   4.216   2.444  0.4645 -0.2290 -0.1335
19564SOL    HW170751   9.382   4.132   2.414  2.0209 -0.5273 -1.7450
19564SOL    HW270752   9.503   4.193   2.504  0.2175  0.1031  0.3090
19565SOL     OW70753   4.684   1.547   0.577  0.5455  0.4985  0.6944
19565SOL    HW170754   4.751   1.619   0.558  1.3183 -0.3267  0.1974
19565SOL    HW270755   4.632   1.527   0.494  0.0984  0.7213  0.9215
19566SOL     OW70756   1.712   0.211   8.809 -0.5559 -0.2438  0.1074
19566SOL    HW170757   1.640   0.273   8.841  0.4278 -0.4921  2.8959
19566SOL    HW270758   1.696   0.120   8.846 -0.7976 -1.1853 -2.2465
19567SOL     OW70759   1.019   0.852   8.554 -0.0346 -0.5429  0.2629
19567SOL    HW170760   1.008   0.951   8.546 -0.0390 -0.5046  0.7406
19567SOL    HW270761   1.103   0.832   8.604  1.5559 -0.8202 -2.4209
19568SOL     OW70762   1.867   7.738   4.201  0.5783 -0.0435 -0.1741
19568SOL    HW170763   1.770   7.763   4.195  1.0107  2.5422  2.3046
19568SOL    HW270764   1.923   7.814   4.168  1.8391  0.2129  2.4502
19569SOL     OW70765   9.650   7.124   7.620 -0.0926  0.1775 -0.1530
19569SOL    HW170766   9.710   7.063   7.567 -0.7904 -1.1750  0.5724
19569SOL    HW270767   9.564   7.077   7.639 -0.2921  1.0626  1.1947
19570SOL     OW70768   2.711   6.064   1.709  0.0068  0.1355  0.4095
19570SOL    HW170769   2.798   6.091   1.668 -0.5294 -0.6669 -1.3415
19570SOL    HW270770   2.705   6.098   1.803  2.3667 -0.1621  0.6859
19571SOL     OW70771   6.986   5.763   1.124 -0.2842 -0.0873  0.1196
19571SOL    HW170772   6.936   5.838   1.167  0.5186  0.0595  0.8114
19571SOL    HW270773   7.050   5.723   1.189  0.5195 -0.2649 -0.7569
19572SOL     OW70774   3.253   6.141   3.053 -0.5309  0.0419  0.2245
19572SOL    HW170775   3.340   6.171   3.012 -0.8428 -1.3499 -1.5169
19572SOL    HW270776   3.227   6.053   3.014 -2.8373  0.5308  0.6206
19573SOL     OW70777   1.078   4.925   8.663 -0.2988  0.0933  0.0574
19573SOL    HW170778   0.981   4.942   8.651 -0.7524  0.8108  4.0142
19573SOL    HW270779   1.124   5.008   8.694  1.0422 -0.9453  0.9644
19574SOL     OW70780   1.517   0.307   5.254  0.3053 -0.2413  0.2334
19574SOL    HW170781   1.514   0.228   5.193  2.2201 -0.3692  0.2734
19574SOL    HW270782   1.427   0.351   5.256 -0.5809 -1.9593 -0.3755
19575SOL     OW70783   4.588   8.615   1.741 -0.0016  0.1022  0.0685
19575SOL    HW170784   4.647   8.687   1.704 -0.4954  0.4402 -0.0596
19575SOL    HW270785   4.520   8.589   1.673 -2.0716  1.9954  1.3529
19576SOL     OW70786   2.711   0.080   4.914  0.6284 -0.0932  0.0873
19576SOL    HW170787   2.739   0.173   4.890  0.7770 -0.3096 -0.5947
19576SOL    HW270788   2.659   0.082   5.000  0.2415  0.6738 -0.1550
19577SOL     OW70789   0.455   1.687   3.828  0.1169 -0.3892  0.2320
19577SOL    HW170790   0.548   1.718   3.806  0.4248 -0.1809  1.8243
19577SOL    HW270791   0.425   1.621   3.759  0.4389  1.5031 -1.7883
19578SOL     OW70792   5.781   5.001   1.165  0.2546  0.2814  0.2500
19578SOL    HW170793   5.870   4.969   1.135 -0.3706 -1.0204 -0.2885
19578SOL    HW270794   5.790   5.048   1.253  1.4958  0.4200  0.0581
19579SOL     OW70795   0.447   9.650   0.218 -0.1659 -0.0708  0.5641
19579SOL    HW170796   0.350   9.634   0.239  0.0568 -2.3996 -0.0036
19579SOL    HW270797   0.496   9.672   0.302 -0.5340 -2.4747  1.4323
19580SOL     OW70798   0.934   4.554   2.619 -0.4811 -0.3203  0.1742
19580SOL    HW170799   0.896   4.631   2.568  2.4973  1.1475  0.1000
19580SOL    HW270800   0.911   4.563   2.716  2.6987  2.5292  0.7263
19581SOL     OW70801   9.529   1.747   1.896  0.4991  0.1287 -0.1599
19581SOL    HW170802   9.482   1.659   1.890 -0.4790  0.6743 -0.5440
19581SOL    HW270803   9.541   1.772   1.992  0.6086 -0.3240 -0.0526
19582SOL     OW70804   9.540   3.697   8.421 -0.4270 -0.1040  0.1684
19582SOL    HW170805   9.465   3.735   8.366  0.6660  3.9414  1.2590
19582SOL    HW270806   9.502   3.644   8.496 -2.1490  0.1937 -0.4611
19583SOL     OW70807   0.552   4.965   1.398  0.1239  0.2266  0.2746
19583SOL    HW170808   0.548   5.064   1.405 -0.3899  0.2858 -0.7774
19583SOL    HW270809   0.467   4.930   1.358  0.7410 -0.5323 -0.4090
19584SOL     OW70810   4.466   2.972   8.245  0.3768 -0.1258  0.3506
19584SOL    HW170811   4.369   2.992   8.226  0.4541  0.2975  0.3915
19584SOL    HW270812   4.520   3.054   8.228  0.6660 -0.2266  0.7955
19585SOL     OW70813   2.858   1.982   2.141 -0.4651 -0.0485 -0.0013
19585SOL    HW170814   2.815   2.073   2.138 -0.3639  0.0626  1.4435
19585SOL    HW270815   2.906   1.965   2.055 -0.8263  1.0963 -0.4455
19586SOL     OW70816   2.712   5.340   3.826 -0.2605 -0.0355  0.2093
19586SOL    HW170817   2.785   5.290   3.873 -0.5613  1.9986  3.0037
19586SOL    HW270818   2.646   5.275   3.790  1.7141 -1.8179 -0.3009
19587SOL     OW70819   3.567   5.659   3.732  1.1093  0.4855  0.2063
19587SOL    HW170820   3.579   5.560   3.745 -0.2108  0.3832  0.7063
19587SOL    HW270821   3.625   5.689   3.656  1.0479 -0.8021 -0.3789
19588SOL     OW70822   8.918   3.421   3.321  0.3574  0.1579 -0.3872
19588SOL    HW170823   8.859   3.341   3.308 -0.8634  0.9275  0.3146
19588SOL    HW270824   8.999   3.395   3.373  0.0051 -0.6388 -0.2312
19589SOL     OW70825   8.488   3.881   0.331 -0.0817  0.0420 -0.5990
19589SOL    HW170826   8.476   3.916   0.239 -0.1857 -1.1668 -1.0443
19589SOL    HW270827   8.461   3.785   0.335 -2.1072  0.6515  1.1817
19590SOL     OW70828   2.162   2.822   2.711 -0.3230 -0.2751 -0.3744
19590SOL    HW170829   2.093   2.874   2.660 -0.6470 -1.2796 -0.9678
19590SOL    HW270830   2.130   2.729   2.725  0.0264 -0.1643  1.1762
19591SOL     OW70831   5.226   2.262   1.638 -0.4428  0.1962  0.5258
19591SOL    HW170832   5.302   2.237   1.578 -0.0876 -0.0612  1.0775
19591SOL    HW270833   5.200   2.182   1.693 -2.0794 -0.1376 -0.6982
19592SOL     OW70834   5.530   2.331   7.782 -0.7506 -0.0501  0.1609
19592SOL    HW170835   5.470   2.251   7.788  0.0744 -0.6993 -0.1744
19592SOL    HW270836   5.614   2.312   7.832 -0.1135  0.2100 -0.8026
19593SOL     OW70837   5.424   7.505   2.051 -0.8083  0.3475  0.0814
19593SOL    HW170838   5.499   7.441   2.035 -1.7789 -0.9923  0.7128
19593SOL    HW270839   5.455   7.580   2.109 -0.3339 -1.0035  1.6100
19594SOL     OW70840   1.980   6.332   1.595 -0.1047  0.5838 -0.2380
19594SOL    HW170841   1.946   6.426   1.589 -1.0887  0.3696  1.5755
19594SOL    HW270842   2.021   6.317   1.685 -2.2102 -1.4169  0.4312
19595SOL     OW70843   4.354   8.923   6.670  0.2254  0.7963 -0.8193
19595SOL    HW170844   4.322   8.837   6.711  0.7699  0.5353 -0.9312
19595SOL    HW270845   4.335   8.998   6.732 -0.3571  0.6069 -0.7684
19596SOL     OW70846   0.616   6.060   4.214  0.2200  0.3475 -0.0589
19596SOL    HW170847   0.711   6.076   4.238  0.3301 -0.1989 -0.1099
19596SOL    HW270848   0.606   5.967   4.177 -0.3154  0.4267 -0.1285
19597SOL     OW70849   9.061   2.761   2.586  0.0471 -0.3509  0.0049
19597SOL    HW170850   9.108   2.735   2.671  0.2517 -1.7592 -0.5200
19597SOL    HW270851   9.068   2.859   2.573  1.6895 -0.3673  0.6322
19598SOL     OW70852   2.663   2.114   0.080  0.6533 -0.1397 -0.2990
19598SOL    HW170853   2.626   2.035   0.032  2.2215 -0.7353 -0.5506
19598SOL    HW270854   2.675   2.092   0.177  2.0783 -0.5683 -0.5676
19599SOL     OW70855   0.328   2.547   6.444 -0.4476  0.2318 -0.5748
19599SOL    HW170856   0.282   2.507   6.365  0.1399 -0.8338 -0.3932
19599SOL    HW270857   0.398   2.611   6.413  0.4843 -0.9547 -0.9559
19600SOL     OW70858   0.268   5.041   6.005 -0.5870 -0.6584  0.4362
19600SOL    HW170859   0.258   5.011   6.100 -1.6446  0.1546  0.5847
19600SOL    HW270860   0.190   5.007   5.951 -1.6768  1.5815  0.5530
19601SOL     OW70861   9.824   3.123   7.184 -0.6201  0.0152  0.5282
19601SOL    HW170862   9.732   3.133   7.146 -0.0377 -0.7811 -1.1777
19601SOL    HW270863   9.888   3.102   7.110  0.3442 -2.9655  2.0990
19602SOL     OW70864   0.985   7.007   9.915  0.4207  0.0619 -0.1367
19602SOL    HW170865   1.005   6.920   9.960  0.7211 -0.8511 -1.9949
19602SOL    HW270866   0.886   7.021   9.913  0.2372 -1.2350 -1.6012
19603SOL     OW70867   3.643   7.422   7.543  0.3048  0.1261 -0.4602
19603SOL    HW170868   3.643   7.370   7.628 -0.9773  0.2307 -0.3847
19603SOL    HW270869   3.653   7.359   7.466 -0.9147 -0.2218 -0.3512
19604SOL     OW70870   7.938   6.315   1.303  0.2636  0.1050  0.5123
19604SOL    HW170871   8.009   6.273   1.360  0.2994  1.6942  1.6896
19604SOL    HW270872   7.970   6.405   1.273 -0.3801 -0.0877 -0.7689
19605SOL     OW70873   3.584   5.376   3.565 -0.3814 -0.0371  0.1681
19605SOL    HW170874   3.490   5.344   3.577 -0.2915 -0.1631  0.5506
19605SOL    HW270875   3.590   5.432   3.482 -0.7728 -0.1079  0.0908
19606SOL     OW70876   1.082   4.359   6.164 -0.2190 -0.1815 -0.3838
19606SOL    HW170877   1.122   4.451   6.171  1.3297 -0.9165  0.6455
19606SOL    HW270878   1.155   4.291   6.156 -1.3474 -1.3675 -0.8126
19607SOL     OW70879   9.931   3.514   4.005  0.1968  0.0435 -0.0885
19607SOL    HW170880   9.857   3.447   4.016 -0.1347  0.3282 -0.5405
19607SOL    HW270881   9.950   3.526   3.907  1.4681 -0.7054  0.0645
19608SOL     OW70882   3.871   8.100   2.626  0.3140  0.4765 -0.0714
19608SOL    HW170883   3.952   8.041   2.622  1.8624  2.4680  1.2101
19608SOL    HW270884   3.812   8.071   2.701  2.3396  2.1001  2.2044
19609SOL     OW70885   1.273   7.947   2.470 -0.0391 -0.8227 -0.1276
19609SOL    HW170886   1.284   8.042   2.500 -1.4482 -0.9808  0.9169
19609SOL    HW270887   1.328   7.887   2.528 -1.1199 -0.9011  0.8356
19610SOL     OW70888   3.814   3.246   7.723  0.3756  0.0403 -0.1870
19610SOL    HW170889   3.736   3.310   7.717  0.1519 -0.0420  1.5384
19610SOL    HW270890   3.866   3.249   7.638 -1.0682  0.6838 -1.0733
19611SOL     OW70891   3.180   2.187   7.641  0.4297 -0.0527 -0.0644
19611SOL    HW170892   3.082   2.164   7.644  0.5023 -0.2594  0.6867
19611SOL    HW270893   3.227   2.122   7.583  0.3434 -0.7714  0.6648
19612SOL     OW70894   2.208   5.847   5.856 -0.5122  0.7692  0.2147
19612SOL    HW170895   2.254   5.876   5.773 -2.0111  1.8699 -0.2681
19612SOL    HW270896   2.121   5.804   5.832 -0.9540  1.0924  1.1926
19613SOL     OW70897   9.886   4.474   1.695  0.4376 -0.0404 -0.2013
19613SOL    HW170898   9.864   4.387   1.651 -0.0842 -0.6057  1.1196
19613SOL    HW270899   9.962   4.518   1.648 -0.3282 -0.4565 -1.8400
19614SOL     OW70900   1.217   9.822   4.505  0.3296  0.4929 -0.2348
19614SOL    HW170901   1.251   9.916   4.506  1.5144  0.0681 -0.4796
19614SOL    HW270902   1.241   9.777   4.591 -0.0225  0.3228 -0.2214
19615SOL     OW70903   7.916   3.295   0.395 -0.6590  0.2942 -0.7617
19615SOL    HW170904   7.938   3.272   0.490 -1.3308  3.3586  0.2002
19615SOL    HW270905   7.999   3.327   0.349 -0.2466 -1.5708 -1.3747
19616SOL     OW70906   9.842   3.129   0.496  0.8151 -0.5914 -0.0111
19616SOL    HW170907   9.834   3.201   0.564  1.6266 -1.9064  1.5414
19616SOL    HW270908   9.932   3.135   0.451  1.5086 -1.5199  1.2099
19617SOL     OW70909   9.278   6.382   0.215 -0.1757 -0.0712  0.8935
19617SOL    HW170910   9.340   6.450   0.254 -0.1822  0.4918 -0.0560
19617SOL    HW270911   9.223   6.424   0.143  0.0625 -1.1647  0.0586
19618SOL     OW70912   9.654   0.079   7.590 -0.6584 -0.4022  0.5418
19618SOL    HW170913   9.649   0.102   7.493 -0.5372 -2.1585  0.0954
19618SOL    HW270914   9.684   0.159   7.643 -0.1768  0.3964 -0.9277
19619SOL     OW70915   0.256   2.484   2.649 -0.4800  0.3188 -0.5143
19619SOL    HW170916   0.294   2.525   2.566  2.7913  0.0567  0.7818
19619SOL    HW270917   0.293   2.530   2.729 -0.9274 -1.6535  0.8591
19620SOL     OW70918   6.877   4.992   1.664 -0.0998  0.3760  0.0174
19620SOL    HW170919   6.813   5.064   1.691  0.8582  0.7516  1.3312
19620SOL    HW270920   6.840   4.942   1.585 -1.8896  0.7186  0.6234
19621SOL     OW70921   4.617   4.457   7.958  0.3127  1.1226  0.0575
19621SOL    HW170922   4.711   4.489   7.942  0.4614  0.8157  0.2924
19621SOL    HW270923   4.621   4.366   8.001 -0.0831  1.5210  0.9518
19622SOL     OW70924   3.870   6.569   8.201 -0.0762 -0.1978 -0.1151
19622SOL    HW170925   3.818   6.498   8.153 -1.2717 -0.6278  1.7542
19622SOL    HW270926   3.945   6.527   8.252 -0.0086  0.0124 -0.0424
19623SOL     OW70927   6.259   3.647   0.248  0.1723  0.2741  0.4658
19623SOL    HW170928   6.250   3.548   0.234  1.2171  0.4057 -1.2537
19623SOL    HW270929   6.183   3.680   0.304 -2.5188 -0.8440 -2.3518
19624SOL     OW70930   2.975   0.211   3.063 -0.1350  0.1491  0.3232
19624SOL    HW170931   2.993   0.290   3.122 -1.1306  0.1988  0.5721
19624SOL    HW270932   3.044   0.207   2.991  0.9277  0.2464  1.3218
19625SOL     OW70933   4.070   9.425   3.270 -0.6070  0.5854 -0.1723
19625SOL    HW170934   4.002   9.352   3.272 -0.5101  0.4982 -0.0204
19625SOL    HW270935   4.118   9.428   3.358 -0.3480  0.5816 -0.3134
19626SOL     OW70936   0.920   8.287   9.734  0.1621  0.3710  0.5498
19626SOL    HW170937   0.977   8.319   9.810 -1.7028  0.9073  1.7760
19626SOL    HW270938   0.836   8.247   9.771 -0.3783 -0.1603 -1.2165
19627SOL     OW70939   5.605   8.779   6.528  0.6841  0.0648  0.4013
19627SOL    HW170940   5.619   8.699   6.586  0.2266  0.2788  0.8121
19627SOL    HW270941   5.508   8.800   6.524  0.8431  0.8980  0.7097
19628SOL     OW70942   1.842   2.564   3.418  0.0690  0.3562 -0.8665
19628SOL    HW170943   1.743   2.579   3.411  0.2808  2.1759 -0.3252
19628SOL    HW270944   1.875   2.600   3.505  1.2085 -0.2386 -1.0458
19629SOL     OW70945   3.042   7.935   9.765 -0.3293  0.0999 -0.2088
19629SOL    HW170946   3.103   7.870   9.721 -0.1850 -0.0865  0.2616
19629SOL    HW270947   3.096   8.000   9.819 -0.5590 -0.2023  0.3895
19630SOL     OW70948   0.503   5.221   4.138  0.7208 -0.5662  0.0136
19630SOL    HW170949   0.589   5.181   4.105  0.3305 -1.9081  0.6131
19630SOL    HW270950   0.427   5.160   4.117  0.2777 -0.7655  2.0577
19631SOL     OW70951   2.431   6.124   2.406 -0.5456  0.7308 -0.0180
19631SOL    HW170952   2.361   6.093   2.471 -0.5056  0.7797  0.0493
19631SOL    HW270953   2.432   6.064   2.327  0.4741 -0.2722  0.7315
19632SOL     OW70954   9.813   6.555   5.049 -0.2145 -0.7724 -0.0995
19632SOL    HW170955   9.732   6.608   5.020 -1.0630 -1.0448  1.6894
19632SOL    HW270956   9.889   6.618   5.067 -1.0481 -0.1700  1.4640
19633SOL     OW70957   6.132   8.433   5.471 -0.4222 -0.7246  0.0332
19633SOL    HW170958   6.182   8.516   5.497  0.0682 -0.8850 -0.3862
19633SOL    HW270959   6.109   8.436   5.374  0.6247 -1.5981 -0.2548
19634SOL     OW70960   2.924   1.588   7.014 -0.1208 -0.4245 -0.1659
19634SOL    HW170961   2.998   1.525   7.034 -0.1854  0.3745  2.7846
19634SOL    HW270962   2.949   1.644   6.934  2.0315 -0.8027  0.2059
19635SOL     OW70963   7.148   7.705   2.487  0.0977  0.0908  0.0784
19635SOL    HW170964   7.211   7.752   2.550 -0.1301  1.4930 -0.7071
19635SOL    HW270965   7.191   7.697   2.397  0.5785 -2.2619  0.4852
19636SOL     OW70966   8.720   5.368   3.257 -0.2016 -0.4605 -0.1491
19636SOL    HW170967   8.809   5.356   3.214 -1.0283  0.4876 -2.1672
19636SOL    HW270968   8.648   5.336   3.195 -1.4236  0.9306  0.5212
19637SOL     OW70969   2.919   2.677   8.537 -0.4350  0.1749 -0.2025
19637SOL    HW170970   2.961   2.686   8.447  0.9316  0.4708  0.4473
19637SOL    HW270971   2.880   2.764   8.566  0.1374  0.3717 -0.0215
19638SOL     OW70972   9.194   1.629   4.811  0.8759  0.2459 -0.2808
19638SOL    HW170973   9.128   1.560   4.843  0.3877  0.9174  0.1630
19638SOL    HW270974   9.145   1.711   4.781  1.6016  1.4535  1.7696
19639SOL     OW70975   9.114   2.140   9.499  0.4206  0.0599 -0.6340
19639SOL    HW170976   9.110   2.099   9.590 -3.2371  0.4058 -0.5870
19639SOL    HW270977   9.112   2.240   9.508 -1.4835  0.0810 -1.1062
19640SOL     OW70978   8.956   0.962   9.111  0.0509 -0.1041  0.0498
19640SOL    HW170979   8.993   1.047   9.074  0.8714 -0.5082 -0.0621
19640SOL    HW270980   8.898   0.982   9.190 -1.9166  0.7817 -1.5810
19641SOL     OW70981   4.425   8.509   3.010 -0.1846 -0.3913 -0.0178
19641SOL    HW170982   4.445   8.490   2.914  1.7639  1.6820 -0.0519
19641SOL    HW270983   4.393   8.603   3.019 -1.3526 -0.8915  1.2689
19642SOL     OW70984   2.099   1.218   2.724 -0.4115 -0.0641  0.5562
19642SOL    HW170985   2.171   1.179   2.782  1.8623  1.4853 -1.1470
19642SOL    HW270986   2.077   1.310   2.756  0.5337  0.6248 -0.7543
19643SOL     OW70987   1.614   0.628   0.046  0.2106  0.3248 -0.2013
19643SOL    HW170988   1.615   0.625  -0.054  0.8317  2.9262 -0.3208
19643SOL    HW270989   1.690   0.685   0.078 -0.0989 -0.3256  1.7517
19644SOL     OW70990   8.648   7.149   0.115 -0.2302  0.2944 -0.2869
19644SOL    HW170991   8.647   7.170   0.018  2.5518  2.3721  0.0772
19644SOL    HW270992   8.734   7.105   0.139 -1.1874 -0.8477  1.1198
19645SOL     OW70993   1.279   7.226   7.594 -0.3101  0.2903  0.6486
19645SOL    HW170994   1.279   7.251   7.497 -0.8505 -0.9583  0.3164
19645SOL    HW270995   1.294   7.308   7.649  2.3952  0.6715 -0.5700
19646SOL     OW70996   1.431   5.470   2.351 -0.1679 -0.8407  0.2608
19646SOL    HW170997   1.522   5.483   2.311 -0.5017  0.8317 -0.0005
19646SOL    HW270998   1.425   5.522   2.436 -0.9903 -0.6904  0.1153
19647SOL     OW70999   4.226   8.988   0.899 -0.1520  0.2819  0.3276
19647SOL    HW171000   4.315   8.942   0.892 -0.4976 -0.1579 -1.6978
19647SOL    HW271001   4.158   8.937   0.846 -1.2348  1.5134  0.4987
19648SOL     OW71002   1.436   4.631   9.366 -0.1028 -0.8155 -0.3431
19648SOL    HW171003   1.485   4.686   9.434 -0.7891  0.2522 -0.6923
19648SOL    HW271004   1.367   4.575   9.412  0.8710 -1.6892  0.0582
19649SOL     OW71005   9.408   0.539   8.228 -0.8219  0.4930  0.5693
19649SOL    HW171006   9.457   0.607   8.283 -0.5379 -0.0427  0.9881
19649SOL    HW271007   9.466   0.509   8.153 -0.2662 -0.5943  1.4216
19650SOL     OW71008   3.582   0.265   0.889  0.0261 -0.7067 -0.5452
19650SOL    HW171009   3.569   0.262   0.790 -1.8914  0.7092 -0.3743
19650SOL    HW271010   3.596   0.360   0.918  1.4880 -1.2170  0.4318
19651SOL     OW71011   2.981   3.310   1.054 -0.0679 -0.2227 -0.2356
19651SOL    HW171012   2.918   3.371   1.006  0.0159  0.3337  0.3503
19651SOL    HW271013   3.011   3.354   1.138 -0.4312 -1.3070  0.4681
19652SOL     OW71014   2.267   6.758   2.397 -0.1452 -0.3454  0.2039
19652SOL    HW171015   2.278   6.667   2.357 -0.5807 -0.4472  0.3096
19652SOL    HW271016   2.333   6.820   2.356 -0.4524 -0.4943 -0.5447
19653SOL     OW71017   4.515   9.014   1.714 -0.5242  0.1935 -0.3617
19653SOL    HW171018   4.466   8.939   1.758  0.4176 -0.2097  0.0255
19653SOL    HW271019   4.536   9.084   1.782  0.5736 -0.2414 -0.2414
19654SOL     OW71020   7.696   6.263   1.809  0.2040 -0.0625  0.6097
19654SOL    HW171021   7.647   6.220   1.734 -0.8572 -1.9689  2.3277
19654SOL    HW271022   7.778   6.308   1.775 -0.0760 -1.1828 -1.6090
19655SOL     OW71023   6.599   4.233   1.793 -0.2498 -0.5079 -0.4114
19655SOL    HW171024   6.609   4.261   1.697  1.5977 -2.2766 -0.7729
19655SOL    HW271025   6.646   4.298   1.852 -0.2519 -0.1334 -0.8204
19656SOL     OW71026   9.547   1.110   2.990 -1.0363  0.6262 -0.2302
19656SOL    HW171027   9.603   1.045   2.939  0.1203  1.0255  0.5151
19656SOL    HW271028   9.536   1.194   2.937  0.9989  1.4245  0.5725
19657SOL     OW71029   0.781   8.943   9.903  0.3666 -0.2463 -0.0725
19657SOL    HW171030   0.701   8.999   9.923  0.4588  0.0506 -0.5267
19657SOL    HW271031   0.864   8.993   9.929  0.4398 -0.2488 -0.2965
19658SOL     OW71032   7.626   1.151   3.176 -0.4952  0.1145 -0.3609
19658SOL    HW171033   7.715   1.171   3.217 -0.3679  0.4707 -0.8051
19658SOL    HW271034   7.554   1.194   3.231 -0.2669  1.2706 -0.9591
19659SOL     OW71035   4.812   6.347   7.787  0.0458 -0.3389 -0.2115
19659SOL    HW171036   4.893   6.343   7.846  1.2626 -0.4412 -1.8601
19659SOL    HW271037   4.759   6.428   7.809  0.5353 -0.3283  0.9721
19660SOL     OW71038   6.532   0.863   3.546  0.5046 -0.0559  0.1199
19660SOL    HW171039   6.433   0.877   3.555  0.0877 -2.2696 -0.6040
19660SOL    HW271040   6.561   0.790   3.607  1.2716 -1.0012 -1.3604
19661SOL     OW71041   9.468   7.504   2.747 -0.5212  0.1635 -0.2409
19661SOL    HW171042   9.518   7.431   2.701  1.5973  0.3214  1.6974
19661SOL    HW271043   9.510   7.592   2.726 -0.6850  0.4221  0.4841
19662SOL     OW71044   7.789   3.861   2.739  0.4860  0.1306 -0.2676
19662SOL    HW171045   7.770   3.875   2.642  2.0743  2.5044 -0.2723
19662SOL    HW271046   7.766   3.944   2.790  4.4882  0.7864  0.6209
19663SOL     OW71047   4.680   6.788   0.364  0.3270  0.2224  0.3372
19663SOL    HW171048   4.613   6.764   0.434  0.9614 -2.2492  0.1181
19663SOL    HW271049   4.659   6.740   0.279  0.8793  1.4635 -0.5207
19664SOL     OW71050   0.247   6.470   2.862  0.0851  0.2003  0.0794
19664SOL    HW171051   0.320   6.488   2.927 -0.3202  0.5985  0.4302
19664SOL    HW271052   0.286   6.448   2.772  0.6020  1.8156 -0.0916
19665SOL     OW71053   9.349   6.758   3.108  0.0617 -0.2686 -0.5799
19665SOL    HW171054   9.302   6.820   3.044  0.1818 -0.3592 -0.7546
19665SOL    HW271055   9.283   6.693   3.146  0.1372 -0.6872 -1.1720
19666SOL     OW71056   7.794   5.289   6.626 -0.4099  0.6001  0.3299
19666SOL    HW171057   7.757   5.355   6.691 -2.5901 -0.6754  0.4385
19666SOL    HW271058   7.738   5.206   6.628  0.8314 -0.3110 -1.5661
19667SOL     OW71059   8.289   5.315   8.960 -0.1241  0.2834 -0.6303
19667SOL    HW171060   8.208   5.371   8.942  0.3318  1.9722  2.2541
19667SOL    HW271061   8.261   5.223   8.986 -1.1029  0.5991 -0.5520
19668SOL     OW71062   7.045   0.449   2.185  0.0249 -0.0138 -0.1462
19668SOL    HW171063   7.133   0.458   2.139  0.0191  1.3775  0.1163
19668SOL    HW271064   7.037   0.356   2.221  1.3471 -0.1771 -0.2316
19669SOL     OW71065   8.360   4.511   2.411 -0.1810 -0.4810  0.0528
19669SOL    HW171066   8.335   4.592   2.358  0.2763 -0.4706 -0.1541
19669SOL    HW271067   8.305   4.507   2.494 -1.4370 -0.8932 -0.7804
19670SOL     OW71068   1.713   5.320   5.985 -0.4249  0.1426 -0.4781
19670SOL    HW171069   1.808   5.311   5.954  0.1991  1.1575  1.0709
19670SOL    HW271070   1.665   5.384   5.926 -0.7693 -1.9527 -2.5579
19671SOL     OW71071   2.458   2.174   6.456 -0.1352 -0.4863  0.2994
19671SOL    HW171072   2.363   2.147   6.441 -0.9007  1.6786  1.0582
19671SOL    HW271073   2.488   2.233   6.381 -0.5857  1.7628  1.8315
19672SOL     OW71074   7.945   3.925   9.391 -0.2857  0.1452 -0.0584
19672SOL    HW171075   8.014   3.944   9.322  0.6030 -0.6442  0.5981
19672SOL    HW271076   7.936   3.826   9.403 -2.5622  0.1856 -1.1617
19673SOL     OW71077   3.858   2.630   6.707 -0.1241  0.4408 -0.2645
19673SOL    HW171078   3.870   2.704   6.641 -1.3090  0.9722  0.1013
19673SOL    HW271079   3.829   2.667   6.795  0.3536 -0.3622  0.2422
19674SOL     OW71080   4.293   8.675   4.061  0.1184  0.5682  0.0192
19674SOL    HW171081   4.208   8.657   4.010  1.0692  1.6239 -2.0298
19674SOL    HW271082   4.362   8.608   4.035  0.9645  1.8031 -0.9776
19675SOL     OW71083   9.015   7.567   4.050 -0.7187 -0.2514  0.4500
19675SOL    HW171084   9.046   7.542   4.141  0.4551  0.7787  0.3537
19675SOL    HW271085   8.997   7.485   3.996 -1.1809 -0.8568  1.5334
19676SOL     OW71086   8.172   4.103   0.438 -0.1535  0.3446 -0.6759
19676SOL    HW171087   8.190   4.043   0.517 -0.6670 -0.9510 -1.5264
19676SOL    HW271088   8.080   4.085   0.403 -0.2625  1.5587 -1.0172
19677SOL     OW71089   8.458   3.778   0.669  0.0285  0.2135  0.3007
19677SOL    HW171090   8.505   3.720   0.601  0.5676  0.3674  0.5372
19677SOL    HW271091   8.514   3.859   0.687  0.5536 -0.5025  1.9530
19678SOL     OW71092   2.057   0.707   1.224  0.1441 -0.2618  0.3769
19678SOL    HW171093   1.999   0.642   1.175 -0.0962 -0.7957  1.3522
19678SOL    HW271094   2.078   0.671   1.315  0.7448  0.6272  0.5985
19679SOL     OW71095   5.222   6.498   1.627  0.0441  0.0025  0.6952
19679SOL    HW171096   5.231   6.409   1.583  0.1133 -0.3924  1.4917
19679SOL    HW271097   5.224   6.570   1.558  0.0331 -0.6099  0.0503
19680SOL     OW71098   6.330   8.222   2.148 -0.3916  0.0650  0.3969
19680SOL    HW171099   6.330   8.261   2.240 -0.1661  0.2452  0.3204
19680SOL    HW271100   6.371   8.131   2.149  1.3386  0.8322  0.1464
19681SOL     OW71101   9.076   8.798   4.841 -0.0674 -0.3697  0.0792
19681SOL    HW171102   9.147   8.741   4.801  1.2240  0.1986  1.5194
19681SOL    HW271103   9.114   8.887   4.865 -0.9306 -0.5291  2.1029
19682SOL     OW71104   0.545   2.793   4.761 -0.6164 -0.7505  0.4008
19682SOL    HW171105   0.583   2.767   4.850  0.1717  0.7060  0.5097
19682SOL    HW271106   0.445   2.801   4.769 -0.4771  0.1759  1.3685
19683SOL     OW71107   2.131   1.954   7.261  0.0275 -0.3996 -0.0846
19683SOL    HW171108   2.167   2.010   7.336  1.3346 -1.2146 -0.0821
19683SOL    HW271109   2.164   1.860   7.271 -0.2451 -0.6415 -1.3697
19684SOL     OW71110   3.359   3.397   1.133 -0.4331 -0.2095 -0.3483
19684SOL    HW171111   3.437   3.403   1.196 -1.1628 -0.9546  0.6430
19684SOL    HW271112   3.274   3.399   1.185 -1.0162 -2.9798 -1.0924
19685SOL     OW71113   6.708   6.224   8.702 -0.4987 -0.1118 -0.1809
19685SOL    HW171114   6.615   6.260   8.690 -0.3005  0.1934 -0.8381
19685SOL    HW271115   6.742   6.249   8.793 -0.6234  0.7731 -0.3703
19686SOL     OW71116   5.249   2.094   6.550 -0.1315  0.0722 -0.2319
19686SOL    HW171117   5.286   2.185   6.569 -1.0060  0.2929  0.4627
19686SOL    HW271118   5.229   2.047   6.635 -0.4504 -0.4495 -0.5912
19687SOL     OW71119   6.550   1.999   2.896  0.5783  0.5789 -0.2671
19687SOL    HW171120   6.454   2.023   2.884  0.2622  1.1039  2.9770
19687SOL    HW271121   6.603   2.080   2.918  1.0693 -0.2465  1.7482
19688SOL     OW71122   7.852   9.995   1.380  0.9277  0.2074  0.1502
19688SOL    HW171123   7.783  10.039   1.437  0.3889 -0.7797  0.2845
19688SOL    HW271124   7.888   9.915   1.429  0.7700 -0.3955 -0.7022
19689SOL     OW71125   7.405   0.270   2.717  0.2869  0.0911  0.3263
19689SOL    HW171126   7.333   0.334   2.745 -2.2651 -2.0185 -1.2030
19689SOL    HW271127   7.369   0.177   2.719  1.7655 -0.6948 -4.1956
19690SOL     OW71128   3.269   6.804   9.531 -0.2484  0.0225  0.2285
19690SOL    HW171129   3.207   6.727   9.542  1.8788 -1.7274  0.2856
19690SOL    HW271130   3.284   6.847   9.620  0.9557 -1.4441  0.7630
19691SOL     OW71131   3.101   9.180   6.872 -0.3483 -0.3852  0.4946
19691SOL    HW171132   3.007   9.207   6.894 -1.1756 -1.6212 -1.3593
19691SOL    HW271133   3.141   9.132   6.949 -1.4932 -0.4824  1.0432
19692SOL     OW71134   8.890   2.257   0.086  0.2141  0.1564 -0.1220
19692SOL    HW171135   8.802   2.287   0.125  1.1174  0.3877  1.7907
19692SOL    HW271136   8.893   2.282  -0.011 -0.7927  2.4630  0.4025
19693SOL     OW71137   3.395   7.217   5.016  0.0369 -0.2662  1.0857
19693SOL    HW171138   3.298   7.203   5.038 -0.2969  0.5497  0.1383
19693SOL    HW271139   3.445   7.131   5.031 -0.9283 -0.8495  1.0192
19694SOL     OW71140   3.954   7.971   1.197 -0.4128 -0.0560 -0.6032
19694SOL    HW171141   3.923   8.042   1.134  1.6543  0.3364 -1.2091
19694SOL    HW271142   4.015   7.908   1.149 -0.2778 -0.8040  0.5408
19695SOL     OW71143   5.107   2.936   9.191 -0.2557 -0.0293  0.5623
19695SOL    HW171144   5.112   3.028   9.229 -0.6474  0.2352 -0.0325
19695SOL    HW271145   5.140   2.870   9.259 -0.8372  0.4588  1.3284
19696SOL     OW71146   1.945   9.350   7.210  0.1941  0.1588  0.0971
19696SOL    HW171147   1.899   9.438   7.211 -0.1114  0.1007 -2.8987
19696SOL    HW271148   1.925   9.300   7.294  2.2789  3.8448  2.9241
19697SOL     OW71149   5.454   1.708   7.463  0.0130 -0.0325 -0.1736
19697SOL    HW171150   5.450   1.677   7.558  0.8003  0.5114  0.0446
19697SOL    HW271151   5.420   1.636   7.403  0.3844 -0.7332  0.4481
19698SOL     OW71152   4.449   5.975   7.648 -0.1056 -0.2167 -0.3815
19698SOL    HW171153   4.531   6.018   7.686 -0.5867  0.7516 -0.4172
19698SOL    HW271154   4.415   5.906   7.712  0.1996  0.0357  0.0556
19699SOL     OW71155   0.201   4.332   6.483  0.4805  0.0837  0.6020
19699SOL    HW171156   0.288   4.284   6.489 -0.3663 -1.2165  3.1197
19699SOL    HW271157   0.214   4.428   6.510  1.3314  0.1725 -0.1142
19700SOL     OW71158   0.778   6.757   4.017 -0.7357 -0.1714  0.1523
19700SOL    HW171159   0.856   6.772   4.078 -0.6080 -0.7369  0.1270
19700SOL    HW271160   0.702   6.718   4.069 -0.9216  0.1530  0.1260
19701SOL     OW71161   6.620   7.393   2.334 -0.2100 -0.0527 -0.3021
19701SOL    HW171162   6.571   7.418   2.418 -2.4990  0.6255 -1.7845
19701SOL    HW271163   6.567   7.326   2.283  1.7658 -1.4113 -0.6320
19702SOL     OW71164   8.188   5.423   0.370 -0.2183  0.4649  0.0546
19702SOL    HW171165   8.101   5.420   0.320 -0.6024  0.0717  0.7303
19702SOL    HW271166   8.205   5.333   0.411  0.2095  0.7194  0.4322
19703SOL     OW71167   5.753   5.158   0.840 -0.1018 -0.3058  0.1790
19703SOL    HW171168   5.698   5.191   0.764  0.7035  1.3655  0.2956
19703SOL    HW271169   5.721   5.200   0.925  0.9228  0.1598  0.3370
19704SOL     OW71170   3.815   3.092   0.555  0.4539 -0.5251  0.5796
19704SOL    HW171171   3.909   3.062   0.567  0.1955 -0.7007  2.2510
19704SOL    HW271172   3.768   3.092   0.643 -1.0287 -0.1540 -0.1884
19705SOL     OW71173   3.425   1.184   8.616  0.3281  0.0312 -0.3378
19705SOL    HW171174   3.383   1.245   8.683 -0.1221 -0.6548  0.0056
19705SOL    HW271175   3.482   1.238   8.553  1.1663  0.6168  0.9043
19706SOL     OW71176   9.165   6.023   5.271  0.0501 -0.1888 -0.8766
19706SOL    HW171177   9.158   5.949   5.204  1.4153 -2.5819  1.5314
19706SOL    HW271178   9.260   6.054   5.276 -0.0098 -0.1631  0.1084
19707SOL     OW71179   9.464   0.319   6.263 -0.1108 -0.2501 -0.1977
19707SOL    HW171180   9.528   0.267   6.207 -1.9752 -2.1196 -0.6661
19707SOL    HW271181   9.442   0.405   6.218  1.4834  0.0876 -0.3704
19708SOL     OW71182   7.471   5.949   7.982 -0.2750 -0.8891  0.5857
19708SOL    HW171183   7.468   5.913   7.889 -0.9677 -0.7706  0.5596
19708SOL    HW271184   7.481   6.048   7.980  1.5743 -1.0648  0.6561
19709SOL     OW71185   0.899   8.371   5.054  0.6015  0.0893  0.1310
19709SOL    HW171186   0.849   8.286   5.071 -2.1652  1.2693 -1.5896
19709SOL    HW271187   0.965   8.387   5.127  2.3993 -4.3648 -0.3735
19710SOL     OW71188   4.493   5.042   3.990 -0.1029 -1.0018  0.4116
19710SOL    HW171189   4.512   5.137   3.966 -0.3165 -1.1820 -0.4945
19710SOL    HW271190   4.486   4.987   3.907  1.8016 -2.1596  0.9633
19711SOL     OW71191   7.611   8.865   6.570  0.1316  0.0386 -0.3987
19711SOL    HW171192   7.651   8.910   6.650  0.4381 -0.2719 -0.3747
19711SOL    HW271193   7.673   8.876   6.492  0.1392 -0.2186 -0.4277
19712SOL     OW71194   7.573   9.353   3.669 -0.0757 -0.0426  0.0937
19712SOL    HW171195   7.514   9.283   3.710 -1.2535  0.5479 -0.5870
19712SOL    HW271196   7.647   9.376   3.733 -0.5467 -0.8269  0.9229
19713SOL     OW71197   3.615   3.298   6.497 -0.6642 -0.2321  0.1343
19713SOL    HW171198   3.532   3.352   6.515 -0.5815 -0.2308  0.5194
19713SOL    HW271199   3.602   3.244   6.414 -0.9218  0.0318 -0.0002
19714SOL     OW71200   3.903   4.050   6.963  0.3415 -0.2370 -0.0327
19714SOL    HW171201   3.990   4.071   6.919  0.0043  1.1083 -0.0690
19714SOL    HW271202   3.916   3.976   7.029  1.2944 -0.7594 -0.7977
19715SOL     OW71203   8.416   5.344   3.857  0.3622 -0.1722  0.1567
19715SOL    HW171204   8.476   5.402   3.802 -0.5395  0.2942 -0.3441
19715SOL    HW271205   8.398   5.388   3.945  1.4362 -0.7092  0.6611
19716SOL     OW71206   1.197   5.730   1.818  0.1664  0.0326 -0.1335
19716SOL    HW171207   1.135   5.670   1.867  1.5086  0.5014  2.2077
19716SOL    HW271208   1.290   5.721   1.855  0.9783  1.3159 -1.7501
19717SOL     OW71209   1.941   4.889   6.222 -0.3271  0.3312  0.5945
19717SOL    HW171210   1.853   4.926   6.251 -1.8564 -2.7204  0.0040
19717SOL    HW271211   1.965   4.810   6.278 -0.7541 -2.3630 -2.8311
19718SOL     OW71212   8.619   9.835   1.679  0.4389  0.4520 -0.3524
19718SOL    HW171213   8.593   9.787   1.595  0.0947 -0.1067  0.0689
19718SOL    HW271214   8.572   9.923   1.682 -2.3479 -1.0162  0.9310
19719SOL     OW71215   4.063   1.357   0.765  0.0824  0.2797 -0.2140
19719SOL    HW171216   3.980   1.391   0.808  1.3724  1.0179  1.7667
19719SOL    HW271217   4.136   1.424   0.775  0.6164  0.2144 -3.0818
19720SOL     OW71218   7.696   0.544   4.794  0.5712  0.0050 -0.6551
19720SOL    HW171219   7.623   0.479   4.773  0.4373 -0.5812  1.4975
19720SOL    HW271220   7.694   0.619   4.727 -2.6427  0.5365 -0.0473
19721SOL     OW71221   5.663   4.450   8.875 -0.2387 -0.6176 -0.1463
19721SOL    HW171222   5.728   4.522   8.899 -0.3837 -1.1728  2.1045
19721SOL    HW271223   5.693   4.404   8.791  2.7323 -1.3458  1.2315
19722SOL     OW71224   6.962   5.724   7.976 -0.3091  0.5688  0.1532
19722SOL    HW171225   7.007   5.678   7.899  1.2085  0.7636  0.9273
19722SOL    HW271226   6.864   5.703   7.973  0.1003 -1.4266 -0.4312
19723SOL     OW71227   2.559   5.848   5.509 -0.3465 -0.1867  0.2894
19723SOL    HW171228   2.518   5.916   5.571  1.3055  0.7562  0.3887
19723SOL    HW271229   2.486   5.795   5.466 -1.5944  0.0599  1.9915
19724SOL     OW71230   8.105   1.227   0.345 -0.4873 -0.2528 -0.6409
19724SOL    HW171231   8.180   1.290   0.365 -2.0256  1.8150 -1.1728
19724SOL    HW271232   8.141   1.137   0.322  1.7891  0.6302 -0.5882
19725SOL     OW71233   8.714   0.447   2.246  0.0300  0.2530 -0.0671
19725SOL    HW171234   8.657   0.466   2.166  0.3939 -0.4366 -0.4958
19725SOL    HW271235   8.657   0.407   2.319 -0.2924  0.8409  0.0067
19726SOL     OW71236   5.273   7.993   3.888  0.1007  0.4272 -0.2730
19726SOL    HW171237   5.275   7.981   3.988  1.0985  1.2504 -0.1781
19726SOL    HW271238   5.315   8.081   3.865  2.3682 -0.9653 -1.5854
19727SOL     OW71239   5.972   4.178   9.625 -0.3416 -0.0554  0.0851
19727SOL    HW171240   5.917   4.259   9.644 -0.3855  0.0952 -0.6674
19727SOL    HW271241   5.912   4.105   9.590 -0.2649 -0.3329  0.5233
19728SOL     OW71242   1.003   4.563   8.872 -0.1507 -0.2516  0.3386
19728SOL    HW171243   0.952   4.478   8.881 -2.1020  0.7694 -0.6463
19728SOL    HW271244   1.024   4.600   8.962  0.6586 -1.7111  0.7727
19729SOL     OW71245   3.025   2.802   3.924 -0.1079 -0.1195 -0.2361
19729SOL    HW171246   3.066   2.821   4.013 -0.5364 -2.9780  0.6195
19729SOL    HW271247   2.984   2.711   3.924 -1.3965  0.3854 -2.9130
19730SOL     OW71248   9.942   5.507   0.079  0.1259  0.2929 -0.6563
19730SOL    HW171249   9.887   5.551   0.008 -0.7226  1.6551  0.8085
19730SOL    HW271250  10.015   5.570   0.108  0.0064  0.0549  0.1960
19731SOL     OW71251   7.030   9.292   6.716 -0.2885 -0.0369 -0.3655
19731SOL    HW171252   7.019   9.380   6.669  0.7454  0.6042  0.5931
19731SOL    HW271253   7.053   9.307   6.812 -0.3060 -1.3636 -0.1341
19732SOL     OW71254   0.384   3.950   7.621  0.6382 -0.1095  0.7250
19732SOL    HW171255   0.436   3.876   7.664  0.4199  0.4583  1.9958
19732SOL    HW271256   0.444   4.001   7.560  0.8716 -1.1306  0.0928
19733SOL     OW71257   7.384   3.003   4.660  0.5712 -0.0076  0.0273
19733SOL    HW171258   7.334   3.055   4.729  1.0577 -1.3002  1.3806
19733SOL    HW271259   7.386   3.054   4.574 -1.0763  1.0862  0.6211
19734SOL     OW71260   2.008   8.873  10.012 -0.0783  0.0206 -0.0656
19734SOL    HW171261   1.962   8.787  10.035  2.1202 -0.8688  1.1821
19734SOL    HW271262   2.020   8.880   9.913 -1.0425 -0.6871 -0.2361
19735SOL     OW71263   9.723   4.159   5.832  0.6795 -0.1647  0.3260
19735SOL    HW171264   9.707   4.060   5.833 -0.2928 -0.0319 -0.3457
19735SOL    HW271265   9.708   4.197   5.923  3.1434 -0.9352  1.0713
19736SOL     OW71266   2.078   3.883   0.068 -0.3687 -0.0055 -0.0968
19736SOL    HW171267   2.038   3.963   0.023 -0.8015 -0.3736 -0.3643
19736SOL    HW271268   2.030   3.866   0.155 -1.9165 -1.4504 -1.2079
19737SOL     OW71269   8.457   2.191   7.950  0.4141  0.1222  0.5572
19737SOL    HW171270   8.481   2.095   7.936  1.7835  0.7132 -1.3247
19737SOL    HW271271   8.498   2.223   8.035  2.2940 -0.2171 -0.1999
19738SOL     OW71272   9.801   6.724   4.700  0.0211  0.0130  0.7580
19738SOL    HW171273   9.716   6.726   4.753 -0.7933 -1.5882 -0.4271
19738SOL    HW271274   9.780   6.709   4.603  1.6835 -1.1408  0.5438
19739SOL     OW71275   4.749   1.268   6.869  0.1947 -0.0961  0.2582
19739SOL    HW171276   4.807   1.243   6.946 -0.9493 -0.4140  1.0408
19739SOL    HW271277   4.667   1.316   6.903  0.0981  0.5496 -0.8320
19740SOL     OW71278   9.732   2.895   6.070  0.1039  0.0058  0.1781
19740SOL    HW171279   9.645   2.935   6.043  0.3905  0.2434 -0.4006
19740SOL    HW271280   9.716   2.822   6.137 -0.4516  0.7605  0.8734
19741SOL     OW71281   2.437   8.881   9.400  0.8302 -0.5792  0.2151
19741SOL    HW171282   2.531   8.858   9.374  0.7734 -2.3099  1.4824
19741SOL    HW271283   2.435   8.915   9.494  0.0593 -1.6050  0.5798
19742SOL     OW71284   7.945   1.123   2.491  0.3653 -0.1135 -0.3113
19742SOL    HW171285   7.927   1.171   2.405 -1.2001  0.5616  0.3735
19742SOL    HW271286   7.894   1.037   2.492  0.9090 -0.4373 -0.3322
19743SOL     OW71287   1.760   6.515   2.083 -0.1060 -0.3839  0.0701
19743SOL    HW171288   1.665   6.493   2.105 -0.4761  0.7703 -0.3092
19743SOL    HW271289   1.781   6.481   1.992 -0.6751  0.7801 -0.5147
19744SOL     OW71290   8.331   0.225   4.764 -0.0572  0.1204  0.0907
19744SOL    HW171291   8.314   0.253   4.670  3.1458 -1.3476 -0.9956
19744SOL    HW271292   8.257   0.165   4.795 -0.7392 -0.0255 -1.7926
19745SOL     OW71293   4.054   8.963   6.502  0.6339  0.3099 -0.1595
19745SOL    HW171294   3.994   8.953   6.423 -0.9287  0.2799  1.0179
19745SOL    HW271295   4.116   8.885   6.507 -0.4402 -0.5747 -0.3660
19746SOL     OW71296   3.234   3.412   8.390 -0.1682 -0.2408 -0.4684
19746SOL    HW171297   3.327   3.442   8.366 -0.8252  2.4536  0.1883
19746SOL    HW271298   3.236   3.315   8.416  2.5900 -0.0518  0.1957
19747SOL     OW71299   2.797   8.335   4.143 -0.2960 -0.2552  0.0040
19747SOL    HW171300   2.872   8.391   4.107 -0.5047  0.6340  0.9320
19747SOL    HW271301   2.735   8.393   4.195  0.0664 -1.5345  1.8862
19748SOL     OW71302   1.690   2.522   1.476 -0.1178  0.0342  0.0233
19748SOL    HW171303   1.723   2.614   1.451 -1.4094  0.6332  0.4979
19748SOL    HW271304   1.594   2.527   1.503 -0.5994 -1.7074 -1.3113
19749SOL     OW71305   1.641   4.974   0.040 -0.9477  0.2417 -0.2600
19749SOL    HW171306   1.592   5.007  -0.041  1.0535  1.0824 -1.1680
19749SOL    HW271307   1.711   4.908   0.011  0.8625  1.7559  0.5977
19750SOL     OW71308   3.421   7.598   8.067  0.1974 -0.5847 -0.3492
19750SOL    HW171309   3.453   7.594   7.972 -0.6030 -0.0062 -0.6550
19750SOL    HW271310   3.475   7.666   8.117 -0.7358  0.6360 -0.9497
19751SOL     OW71311   8.120   9.921   8.061 -0.4257  0.1751 -0.4853
19751SOL    HW171312   8.112   9.888   7.967 -1.1810  0.1807 -0.4222
19751SOL    HW271313   8.061  10.001   8.073 -0.0171  0.4241 -0.1166
19752SOL     OW71314   0.190   7.352   8.040 -0.3048 -0.1192  0.0053
19752SOL    HW171315   0.209   7.410   8.119 -1.9144  0.3554  0.0785
19752SOL    HW271316   0.109   7.388   7.992  0.2441 -0.7974 -1.4526
19753SOL     OW71317   2.460   4.701   1.440 -0.3233  0.2082 -0.3679
19753SOL    HW171318   2.463   4.747   1.528 -0.7657  2.7171 -1.6188
19753SOL    HW271319   2.553   4.679   1.410 -0.2489 -1.7780  1.2726
19754SOL     OW71320   1.981   2.960   4.000  0.2747 -0.1932  0.2266
19754SOL    HW171321   2.044   2.963   4.078  0.5950 -1.7175  0.0444
19754SOL    HW271322   2.024   3.005   3.922 -0.0947  1.4374  0.9616
19755SOL     OW71323   0.382   2.560   2.377  0.1880  0.0166  0.0144
19755SOL    HW171324   0.314   2.581   2.307  0.8636 -0.5989 -0.8268
19755SOL    HW271325   0.474   2.563   2.337  0.6056  0.0710  0.9651
19756SOL     OW71326   8.940   9.101   3.214  0.0530 -0.5633  0.1648
19756SOL    HW171327   8.910   9.193   3.240 -2.0707 -0.8909 -1.0396
19756SOL    HW271328   8.876   9.033   3.249 -1.3727 -1.1958 -3.4837
19757SOL     OW71329   1.412   1.438   8.415  0.0844  0.5725  0.0024
19757SOL    HW171330   1.464   1.510   8.463  2.0807 -1.3232  0.7709
19757SOL    HW271331   1.316   1.444   8.441  0.4182  2.2303  0.9733
19758SOL     OW71332   7.419   7.293   2.124 -0.3997 -0.2447 -0.0850
19758SOL    HW171333   7.373   7.231   2.061 -3.2578  0.9318  0.7729
19758SOL    HW271334   7.387   7.276   2.217  1.3494  0.2342  0.6309
19759SOL     OW71335   4.010   4.735  10.000 -0.6422  0.0511 -0.0089
19759SOL    HW171336   4.071   4.814  10.007 -2.3502  1.3477  0.6153
19759SOL    HW271337   4.006   4.689  10.089  0.2509 -0.6963 -0.3380
19760SOL     OW71338   9.221   4.237   6.369  0.0680  0.1330 -0.3662
19760SOL    HW171339   9.188   4.330   6.385 -0.2163  0.2447 -1.5194
19760SOL    HW271340   9.153   4.171   6.400 -0.0665  0.3262 -0.2548
19761SOL     OW71341   2.070   9.703   1.024  0.3966  0.4351 -0.0697
19761SOL    HW171342   2.164   9.708   1.057  0.4799 -0.4628 -0.1578
19761SOL    HW271343   2.061   9.756   0.940  1.3955 -1.3921 -1.3529
19762SOL     OW71344   9.719   2.298   2.204  0.1302 -0.9704  0.1825
19762SOL    HW171345   9.730   2.317   2.107  2.2621 -2.1370  0.1732
19762SOL    HW271346   9.755   2.375   2.257 -1.8404  0.0620  0.0768
19763SOL     OW71347   4.683   9.437   9.372  0.2017  0.1950  0.0214
19763SOL    HW171348   4.716   9.472   9.459  1.3718 -0.3246 -0.2090
19763SOL    HW271349   4.722   9.347   9.354  0.0180  0.3159 -1.0593
19764SOL     OW71350   2.725   1.156   2.762  0.1467 -0.6342  0.0573
19764SOL    HW171351   2.786   1.194   2.832 -0.1434 -0.2868  0.1288
19764SOL    HW271352   2.778   1.109   2.692  0.6625  1.2987 -0.8939
19765SOL     OW71353   4.888   2.418   1.269  0.3742  0.1936 -0.1611
19765SOL    HW171354   4.988   2.411   1.265  0.3499 -0.3905  0.3494
19765SOL    HW271355   4.855   2.384   1.356 -0.5091 -2.1943 -1.3772
19766SOL     OW71356   1.961   6.570   2.285  0.4356 -0.2226  0.0741
19766SOL    HW171357   1.982   6.666   2.272  0.7432 -0.3110 -0.0734
19766SOL    HW271358   1.865   6.553   2.262  0.8733 -0.3138 -1.7284
19767SOL     OW71359   1.309   5.911   5.121  0.1138 -0.2021 -0.4451
19767SOL    HW171360   1.374   5.924   5.047 -0.5551  0.1109 -0.9857
19767SOL    HW271361   1.293   5.999   5.167 -1.1325  0.0545 -1.3381
19768SOL     OW71362   1.063   9.130   4.503  0.1031  0.5722  0.0695
19768SOL    HW171363   1.078   9.201   4.572  0.0969  1.0336 -0.4080
19768SOL    HW271364   1.136   9.133   4.435  0.3194 -0.1364  0.2607
19769SOL     OW71365   4.167   5.472   1.462  0.2552 -0.5262  0.4662
19769SOL    HW171366   4.080   5.494   1.507  0.7154 -0.0511  1.1394
19769SOL    HW271367   4.212   5.398   1.512  1.0163  0.3613  1.1093
19770SOL     OW71368   3.970   4.434   1.688 -0.1835  0.2836 -0.0470
19770SOL    HW171369   3.997   4.507   1.750  0.6147 -0.0129 -0.0314
19770SOL    HW271370   3.873   4.415   1.698 -0.3055  1.0635  0.2396
19771SOL     OW71371   5.246   3.611   2.070 -0.1126 -0.1722 -0.1138
19771SOL    HW171372   5.249   3.548   2.147  0.8953  0.0059 -0.0080
19771SOL    HW271373   5.150   3.629   2.046 -0.4216 -0.6393  0.7486
19772SOL     OW71374   5.922   9.090   4.110 -1.0049 -0.4291  0.4405
19772SOL    HW171375   6.011   9.124   4.080 -0.8728  0.5429  1.8914
19772SOL    HW271376   5.932   8.999   4.149 -0.4610  0.1038  1.5702
19773SOL     OW71377   6.782   3.862   0.654 -0.2186 -0.1823 -0.0414
19773SOL    HW171378   6.704   3.819   0.699  1.1130 -0.6495  1.9358
19773SOL    HW271379   6.782   3.960   0.673 -0.2067 -0.2213  0.1661
19774SOL     OW71380   4.783   9.701   6.281  0.7719 -0.0188  0.2169
19774SOL    HW171381   4.837   9.770   6.330 -1.2417  1.0078  1.0712
19774SOL    HW271382   4.837   9.662   6.207  2.8553  0.5674  1.3986
19775SOL     OW71383   1.087   3.855   7.639  0.1480  0.0666 -0.1929
19775SOL    HW171384   1.025   3.853   7.718 -1.7793  1.7670 -1.6004
19775SOL    HW271385   1.039   3.820   7.558  0.7614  2.0333 -1.4637
19776SOL     OW71386   9.838   3.003   6.738 -0.2447  0.2216  0.1677
19776SOL    HW171387   9.838   3.097   6.772 -1.8104  0.7293 -1.1721
19776SOL    HW271388   9.869   3.002   6.642 -2.5446 -0.2953 -0.6006
19777SOL     OW71389   2.529   6.027   8.176  0.0252  0.2053  0.0443
19777SOL    HW171390   2.574   6.005   8.090  0.2900  1.3782 -0.1245
19777SOL    HW271391   2.515   5.943   8.229 -0.1175 -0.5180 -1.1226
19778SOL     OW71392   0.762   3.899   4.725  0.0123  0.4711  0.0418
19778SOL    HW171393   0.860   3.882   4.733  0.0100 -0.8772 -2.4514
19778SOL    HW271394   0.711   3.823   4.766 -0.0231  1.2729  1.5302
19779SOL     OW71395   3.670   9.555   4.793  0.6477 -0.1259 -0.3611
19779SOL    HW171396   3.582   9.540   4.839  0.4927 -0.2494 -0.6933
19779SOL    HW271397   3.744   9.527   4.854  0.5381  1.6363  0.6032
19780SOL     OW71398   1.445   5.394   9.971  1.1222  0.2360 -0.0373
19780SOL    HW171399   1.442   5.485   9.929 -0.6738 -0.2324 -0.9641
19780SOL    HW271400   1.512   5.337   9.923  0.2564  0.2161 -1.2566
19781SOL     OW71401   1.182   4.392   5.085 -0.1711  0.0368  0.2936
19781SOL    HW171402   1.159   4.468   5.025 -0.5313 -0.6904 -0.5019
19781SOL    HW271403   1.267   4.350   5.055 -1.9888 -2.3619 -1.7239
19782SOL     OW71404   6.129   2.092   8.808  0.2731  0.2630  0.8208
19782SOL    HW171405   6.213   2.135   8.773  0.7430 -1.6055 -0.4136
19782SOL    HW271406   6.140   2.070   8.905  1.3735 -0.3578  0.5582
19783SOL     OW71407   9.148   3.176  10.036 -0.2806  0.6465 -0.4622
19783SOL    HW171408   9.177   3.269  10.060  0.2640 -0.1571  2.1655
19783SOL    HW271409   9.227   3.124  10.004  0.2145 -0.0214  1.7651
19784SOL     OW71410   4.732   4.435   8.244  0.7049  0.2535  0.5184
19784SOL    HW171411   4.692   4.397   8.328  0.0017 -1.9649 -0.7903
19784SOL    HW271412   4.664   4.493   8.199  0.8975  1.0100  1.1842
19785SOL     OW71413   4.892   9.822   8.735  0.0408 -0.7476 -0.3510
19785SOL    HW171414   4.871   9.738   8.684 -0.0677  0.3584 -2.1683
19785SOL    HW271415   4.989   9.824   8.757 -0.2445 -2.1314  1.1820
19786SOL     OW71416   5.396   2.326   9.233 -0.9618 -0.0153  0.3252
19786SOL    HW171417   5.376   2.241   9.183 -0.9042  0.7972 -1.1131
19786SOL    HW271418   5.494   2.344   9.231 -1.1180  0.7849 -0.5563
19787SOL     OW71419   4.206   0.782   6.844 -0.3405  0.5914  0.0211
19787SOL    HW171420   4.129   0.721   6.829 -0.5482  0.9392 -0.3337
19787SOL    HW271421   4.286   0.729   6.872 -0.4412  0.1346 -0.5475
19788SOL     OW71422   9.588   7.522   4.131 -0.6374 -0.0159  0.5218
19788SOL    HW171423   9.617   7.559   4.042 -2.1035  1.7834  0.7475
19788SOL    HW271424   9.665   7.478   4.175  0.8229  1.4374 -0.4908
19789SOL     OW71425   7.523   1.114   9.629  0.5569 -0.3266 -0.2938
19789SOL    HW171426   7.482   1.070   9.710 -0.2006 -0.7889 -0.9259
19789SOL    HW271427   7.450   1.151   9.572  1.0418 -0.8575 -1.2636
19790SOL     OW71428   4.792   2.404   6.446  0.2608  0.4731 -0.3378
19790SOL    HW171429   4.700   2.367   6.456  0.2972  0.4099 -0.2422
19790SOL    HW271430   4.787   2.499   6.415  0.1796  0.0979 -1.4992
19791SOL     OW71431   8.778   0.585   8.518 -0.4039 -0.7972  0.1818
19791SOL    HW171432   8.801   0.650   8.590  1.2655 -0.8379 -0.2959
19791SOL    HW271433   8.792   0.492   8.551 -0.3141 -0.8349  0.0394
19792SOL     OW71434   0.464   4.300   2.561  0.1010 -0.7367 -0.4145
19792SOL    HW171435   0.520   4.224   2.529  1.1515 -0.5547  0.9702
19792SOL    HW271436   0.395   4.267   2.624 -0.3227 -0.7228 -0.8629
19793SOL     OW71437   2.039   2.894   3.057 -0.5313  0.4357 -0.1409
19793SOL    HW171438   2.026   2.993   3.062  0.7961  0.6524 -0.9218
19793SOL    HW271439   2.120   2.873   3.003  0.3158 -1.0178  1.6206
19794SOL     OW71440   8.809   1.021   5.318 -0.3799  0.5417 -0.1938
19794SOL    HW171441   8.748   1.048   5.244 -0.2771  1.4662  0.0570
19794SOL    HW271442   8.900   1.059   5.303 -0.1365  0.0222 -0.0338
19795SOL     OW71443   7.744   9.863   5.003 -0.1142 -0.6383 -0.2016
19795SOL    HW171444   7.818   9.826   5.059  2.3894  2.1053 -1.6333
19795SOL    HW271445   7.719   9.795   4.933  1.9886 -1.0567 -0.5808
19796SOL     OW71446   8.419   6.078   0.253  0.1752  0.2735  0.0800
19796SOL    HW171447   8.461   6.093   0.342 -0.7717 -0.7781  0.7049
19796SOL    HW271448   8.346   6.010   0.260 -0.1448  0.4253 -1.4264
19797SOL     OW71449   7.821   3.160   3.460  0.4448 -0.1197  0.0407
19797SOL    HW171450   7.883   3.168   3.382 -0.0998  1.5080 -0.2605
19797SOL    HW271451   7.865   3.197   3.542  1.0632 -1.9448  0.5397
19798SOL     OW71452   6.678   8.861   4.421 -0.3375  0.3362  0.2042
19798SOL    HW171453   6.665   8.800   4.343 -1.2869  1.9661 -0.9357
19798SOL    HW271454   6.776   8.870   4.440  0.0236  1.2481 -1.8857
19799SOL     OW71455   6.945   0.773   9.091 -0.5994  0.7094  0.3390
19799SOL    HW171456   6.963   0.688   9.041  0.1753  0.2284  1.4391
19799SOL    HW271457   6.929   0.847   9.025 -1.0288 -0.2257 -0.6259
19800SOL     OW71458   7.966   7.031   4.873  0.1484 -0.4032  0.4057
19800SOL    HW171459   8.028   6.955   4.893  2.7344  1.0747 -1.7024
19800SOL    HW271460   7.988   7.069   4.783 -2.2084  1.7672  0.7019
19801SOL     OW71461   4.786   4.427   0.320 -0.3860  0.2188 -0.0957
19801SOL    HW171462   4.821   4.498   0.380 -0.0260 -0.6726  0.7611
19801SOL    HW271463   4.848   4.416   0.242  0.9222 -0.9046  1.0793
19802SOL     OW71464   1.523   5.453   5.797  0.3036  0.2171 -0.4524
19802SOL    HW171465   1.453   5.382   5.787  0.8069 -0.5412  1.3356
19802SOL    HW271466   1.598   5.435   5.733  0.2005 -0.5783 -0.3537
19803SOL     OW71467   9.106   5.925   5.515 -0.2132  0.3509  0.0874
19803SOL    HW171468   9.106   5.965   5.424  0.3023  0.0804 -0.0328
19803SOL    HW271469   9.194   5.943   5.559  0.1380 -0.9214 -0.0832
19804SOL     OW71470   1.017   4.927   6.427  0.3897 -0.1707  0.1787
19804SOL    HW171471   0.954   4.928   6.349  1.0057 -2.0236 -0.3872
19804SOL    HW271472   1.051   4.834   6.440  0.2924  0.1198  2.6897
19805SOL     OW71473   0.643   7.180   8.137  0.2539 -0.0488  0.7000
19805SOL    HW171474   0.560   7.158   8.085  1.0556 -0.2960 -0.5064
19805SOL    HW271475   0.668   7.102   8.194  1.4891 -1.2619 -1.4248
19806SOL     OW71476   2.736   4.255   4.122 -0.0945 -0.0973 -0.3673
19806SOL    HW171477   2.765   4.232   4.029 -2.9259  1.5863 -1.7264
19806SOL    HW271478   2.655   4.314   4.119 -1.2364 -1.3188  3.1840
19807SOL     OW71479   1.496   8.783   3.480 -0.1308 -0.2891  0.1242
19807SOL    HW171480   1.504   8.748   3.574 -0.4759 -1.4125 -0.2624
19807SOL    HW271481   1.528   8.878   3.478 -0.6579 -0.0562  1.5017
19808SOL     OW71482   9.147   3.102   3.386  0.2815 -0.1206  0.1002
19808SOL    HW171483   9.178   3.121   3.479 -2.7549  0.6285  0.9932
19808SOL    HW271484   9.106   3.011   3.383  0.0866 -0.0155 -0.4459
19809SOL     OW71485   1.206   1.260   3.271 -0.1604 -0.6173 -0.4379
19809SOL    HW171486   1.271   1.290   3.201  2.4699 -0.4443  1.9891
19809SOL    HW271487   1.176   1.339   3.325  2.0853 -1.4163  2.0837
19810SOL     OW71488   3.468   2.270   4.936  0.6546 -0.0811  0.0235
19810SOL    HW171489   3.402   2.288   5.009 -0.6250  0.4630 -1.2680
19810SOL    HW271490   3.431   2.299   4.848  1.1606 -3.0733 -1.2321
19811SOL     OW71491   8.636   9.222   0.818 -0.0434 -0.3349  0.7065
19811SOL    HW171492   8.678   9.140   0.778 -1.2195 -0.4798 -0.2508
19811SOL    HW271493   8.680   9.242   0.906  2.4413 -0.1423 -0.5206
19812SOL     OW71494   6.880   1.703   9.478  0.2210  0.4650 -0.3642
19812SOL    HW171495   6.789   1.742   9.488  0.1707  0.3758 -0.4641
19812SOL    HW271496   6.918   1.728   9.389  1.6030  3.1677  0.9361
19813SOL     OW71497   1.612   0.138   1.320  0.4833 -0.1305  0.0165
19813SOL    HW171498   1.536   0.200   1.340 -0.0453 -0.9859  0.6787
19813SOL    HW271499   1.631   0.082   1.400  3.1102  1.4137  0.5372
19814SOL     OW71500   9.118   9.708   4.707  0.0553 -0.4726  0.0273
19814SOL    HW171501   9.100   9.805   4.726 -2.7586 -1.2688  1.5421
19814SOL    HW271502   9.176   9.702   4.625 -0.0233  2.4681 -0.3242
19815SOL     OW71503   8.345   6.300   8.443  0.0686 -0.2812 -0.5128
19815SOL    HW171504   8.259   6.341   8.413  0.1961 -0.3160 -0.9263
19815SOL    HW271505   8.327   6.212   8.488 -0.1826  0.1202  0.1749
19816SOL     OW71506   4.544   6.761   3.662  0.2127  0.1920  0.3962
19816SOL    HW171507   4.551   6.773   3.761  0.6029  2.4725  0.1176
19816SOL    HW271508   4.477   6.825   3.625  2.0200  1.2410 -1.1566
19817SOL     OW71509   7.752   5.456   7.814 -0.1661  0.6034 -0.3586
19817SOL    HW171510   7.738   5.519   7.890 -1.0116  1.4172 -1.1813
19817SOL    HW271511   7.846   5.421   7.817 -0.4929 -0.2150  1.6733
19818SOL     OW71512   3.742   9.673   9.144  0.1043 -0.3242 -0.2073
19818SOL    HW171513   3.717   9.577   9.141 -1.1353 -0.0812  1.4807
19818SOL    HW271514   3.660   9.728   9.163  0.8511  1.0382 -0.8279
19819SOL     OW71515   9.382   6.374   2.111  0.5679  0.4797  0.1845
19819SOL    HW171516   9.305   6.423   2.153 -0.3025 -1.1637  0.5390
19819SOL    HW271517   9.457   6.368   2.176 -0.1787 -0.6443  0.9593
19820SOL     OW71518   9.946   4.000   9.940  0.2361 -0.3618  0.1421
19820SOL    HW171519  10.019   4.046   9.889  0.7143 -1.0683  0.1799
19820SOL    HW271520   9.872   3.975   9.877  1.8969 -3.4055 -0.6858
19821SOL     OW71521   6.825   2.479   8.611 -0.1166  0.0008 -0.6617
19821SOL    HW171522   6.830   2.381   8.629  1.1083  0.2884  0.6367
19821SOL    HW271523   6.731   2.505   8.590 -1.1207 -0.8381  2.6412
19822SOL     OW71524   9.147   5.008   3.605  0.5170 -0.0678 -0.4013
19822SOL    HW171525   9.204   4.939   3.650  1.5899  0.5728 -0.7475
19822SOL    HW271526   9.072   4.964   3.555 -0.4349 -0.8022  1.6522
19823SOL     OW71527   8.356   6.339   2.024 -0.4469  0.3376 -0.0410
19823SOL    HW171528   8.357   6.257   2.081  1.6342 -1.6050 -2.7169
19823SOL    HW271529   8.267   6.348   1.979 -0.6600 -0.5025  0.2125
19824SOL     OW71530   6.737   6.730   2.134 -0.4450  0.2175 -0.9211
19824SOL    HW171531   6.754   6.784   2.052 -0.7281 -0.0790 -1.1806
19824SOL    HW271532   6.781   6.772   2.213 -0.2487  0.5524 -1.2126
19825SOL     OW71533   7.828   7.373   3.611  0.7521  0.5319 -0.2031
19825SOL    HW171534   7.875   7.312   3.674 -1.8380 -1.6662 -0.3086
19825SOL    HW271535   7.820   7.464   3.651  1.0155 -0.2791  1.7098
19826SOL     OW71536   2.763   8.360   6.780 -0.0476  0.0378 -0.2949
19826SOL    HW171537   2.776   8.431   6.850  0.1144  1.0797 -1.3585
19826SOL    HW271538   2.747   8.404   6.692  1.8046 -1.2344 -1.3020
19827SOL     OW71539   1.885   9.237   2.592 -0.0828  0.5614 -0.4227
19827SOL    HW171540   1.899   9.327   2.634 -0.5201  0.5584 -0.2678
19827SOL    HW271541   1.840   9.249   2.503 -2.8289  0.3243  0.8998
19828SOL     OW71542   8.923   6.767   9.338  0.3631  0.3979 -0.3917
19828SOL    HW171543   8.885   6.732   9.424  1.3271  0.0461 -0.0982
19828SOL    HW271544   9.012   6.725   9.322 -0.3116 -0.3955 -2.1546
19829SOL     OW71545   2.300   3.110   8.581 -0.2931 -0.2647 -0.1890
19829SOL    HW171546   2.303   3.205   8.613 -0.2989 -0.5994  0.8312
19829SOL    HW271547   2.207   3.087   8.554 -0.1434  0.2542 -1.2093
19830SOL     OW71548   7.585   1.781   4.118 -0.4794 -0.2793 -0.7186
19830SOL    HW171549   7.526   1.758   4.195  0.2769  0.1073 -0.0162
19830SOL    HW271550   7.543   1.747   4.033 -2.8535  2.0293 -0.5257
19831SOL     OW71551   1.459   7.338   1.360 -0.0073  0.1804 -0.0020
19831SOL    HW171552   1.513   7.418   1.387 -0.4810  1.1517 -1.8203
19831SOL    HW271553   1.392   7.318   1.431  1.5218  0.0841  1.4365
19832SOL     OW71554   5.167   4.081   1.670  0.4808 -0.0299 -0.0366
19832SOL    HW171555   5.104   4.118   1.739  0.2612 -1.7205  0.7060
19832SOL    HW271556   5.117   4.065   1.585  0.2381 -0.0121  0.1012
19833SOL     OW71557   6.049   3.802   2.837 -0.3188 -0.1932  0.2314
19833SOL    HW171558   6.118   3.814   2.766  0.0558 -1.3015  0.4069
19833SOL    HW271559   6.036   3.705   2.856  0.9499  0.1324  3.0171
19834SOL     OW71560   7.702   4.542   8.415  0.1435 -0.5775 -0.1629
19834SOL    HW171561   7.682   4.640   8.426 -1.1460 -1.0319  1.6939
19834SOL    HW271562   7.618   4.493   8.392  0.3682 -1.5523  1.0578
19835SOL     OW71563   1.662   3.128   3.305 -0.0551  0.1286 -0.3828
19835SOL    HW171564   1.681   3.030   3.294 -0.9589 -0.3345  1.7861
19835SOL    HW271565   1.662   3.173   3.216 -0.0234 -1.9299 -1.4468
19836SOL     OW71566   4.497   9.575   2.670 -0.0494 -0.2038 -0.1940
19836SOL    HW171567   4.553   9.593   2.588  0.5756  0.3588  0.3508
19836SOL    HW271568   4.457   9.660   2.703  0.8874 -0.1884  0.9379
19837SOL     OW71569   8.207   1.343   3.426  0.1369 -0.3536 -0.3978
19837SOL    HW171570   8.107   1.350   3.431  0.2828  0.8975  1.0624
19837SOL    HW271571   8.237   1.262   3.476 -0.1119 -0.5479 -0.5586
19838SOL     OW71572   0.425   2.295   8.695 -0.3522 -0.4994 -0.2402
19838SOL    HW171573   0.415   2.243   8.610  1.6962  0.7469 -1.2762
19838SOL    HW271574   0.470   2.238   8.763  0.2141 -0.6966 -0.7722
19839SOL     OW71575   0.712   0.939   9.780 -0.2327 -0.0039  0.1101
19839SOL    HW171576   0.675   0.948   9.872  0.3370 -0.8172  0.4301
19839SOL    HW271577   0.669   0.860   9.735 -0.4586  0.3494 -0.2969
19840SOL     OW71578   6.133   7.904   4.615  0.3360 -0.3258  0.0574
19840SOL    HW171579   6.124   7.936   4.710 -1.1356  0.5834 -0.3566
19840SOL    HW271580   6.124   7.805   4.612  1.2420 -0.4446  0.9619
19841SOL     OW71581   0.748   7.075   7.002  0.1285  0.2087  0.2343
19841SOL    HW171582   0.729   7.106   6.908 -2.4983 -1.4820  0.1785
19841SOL    HW271583   0.701   7.135   7.066 -1.3742 -1.0457  0.3048
19842SOL     OW71584   0.992   3.815   1.024 -0.1797 -0.1961  0.1981
19842SOL    HW171585   1.078   3.764   1.034  1.1049  1.9402  0.1628
19842SOL    HW271586   0.994   3.895   1.083 -1.4613  0.7830 -1.0674
19843SOL     OW71587   0.347   8.605   7.459  0.1572 -0.0368  0.2584
19843SOL    HW171588   0.321   8.630   7.552  2.9050 -1.7232  1.5818
19843SOL    HW271589   0.309   8.515   7.438 -0.4884  0.3582 -0.2741
19844SOL     OW71590   3.717   8.499   7.067  0.7290  0.3887 -0.1959
19844SOL    HW171591   3.672   8.538   6.987  0.6853 -2.2444 -1.4893
19844SOL    HW271592   3.760   8.573   7.120  0.1380  2.2401 -2.2265
19845SOL     OW71593   2.987   0.670   5.770  0.2126  0.6520 -0.0299
19845SOL    HW171594   3.032   0.623   5.846  0.3015  2.6863  1.2196
19845SOL    HW271595   3.046   0.742   5.735 -0.0111  0.0185 -1.7720
19846SOL     OW71596   4.164   2.663   6.923 -0.5197  0.1675  0.9914
19846SOL    HW171597   4.242   2.700   6.973  1.3273 -1.5317 -0.5780
19846SOL    HW271598   4.125   2.586   6.974  1.4797 -1.6860 -0.1582
19847SOL     OW71599   6.578   7.825   6.843  0.2471 -0.0411  0.1447
19847SOL    HW171600   6.526   7.739   6.843 -0.8327  0.5949 -0.2483
19847SOL    HW271601   6.676   7.804   6.837  0.0087 -1.2495  0.1677
19848SOL     OW71602   4.903   3.792   1.139  0.1062  0.0453 -0.3925
19848SOL    HW171603   4.976   3.780   1.206  0.6644 -2.1741 -1.3490
19848SOL    HW271604   4.906   3.885   1.103  0.0149  1.1753  2.3807
19849SOL     OW71605   8.366   8.929   6.686 -0.0088 -0.1258 -0.0216
19849SOL    HW171606   8.384   8.833   6.708  1.5395 -0.0149 -0.7063
19849SOL    HW271607   8.293   8.964   6.744 -1.3332 -2.0117 -0.4947
19850SOL     OW71608   3.164   8.377   6.647 -0.2705  0.2139 -0.1491
19850SOL    HW171609   3.112   8.381   6.562  1.1531 -0.3581 -1.0519
19850SOL    HW271610   3.105   8.341   6.720 -1.8808  1.8817 -0.5629
19851SOL     OW71611   3.201   3.970   8.500 -0.1493 -0.0149 -0.2124
19851SOL    HW171612   3.171   3.876   8.481  2.1175 -0.6190 -0.9277
19851SOL    HW271613   3.239   4.011   8.418 -2.7178  2.2019 -0.3629
19852SOL     OW71614   2.182   1.939   9.707 -0.2572 -0.0307 -0.5960
19852SOL    HW171615   2.266   1.889   9.723  0.2126  0.1173 -2.4686
19852SOL    HW271616   2.135   1.956   9.794  2.3674  1.1844  0.6121
19853SOL     OW71617   8.116   0.954   4.204  0.2022 -0.5059  0.0704
19853SOL    HW171618   8.105   0.919   4.111  1.1956  1.7713 -0.9627
19853SOL    HW271619   8.201   0.918   4.243  1.3553  0.8625 -1.0832
19854SOL     OW71620   9.164   0.057   3.091 -0.3130  0.4662  0.1315
19854SOL    HW171621   9.236   0.008   3.141  2.9517  4.0959 -0.7198
19854SOL    HW271622   9.128  -0.001   3.019  2.8228 -1.0468 -0.3332
19855SOL     OW71623   1.858   3.127   5.023 -0.0210 -0.1689  0.1012
19855SOL    HW171624   1.926   3.054   5.021 -0.0075 -0.2619  2.3989
19855SOL    HW271625   1.775   3.093   5.069 -1.0433  0.4277 -1.2762
19856SOL     OW71626   2.834   8.964   3.949 -0.0644  0.0509  0.2787
19856SOL    HW171627   2.810   8.954   3.852  1.9123  0.7625 -0.2963
19856SOL    HW271628   2.809   9.056   3.980  1.2971  0.5700 -0.1461
19857SOL     OW71629   8.000   3.638   2.463  0.1707  0.1284 -0.6374
19857SOL    HW171630   8.063   3.621   2.539  0.4406 -0.1698 -0.9303
19857SOL    HW271631   7.916   3.585   2.477 -0.2903  1.0217  0.0863
19858SOL     OW71632   9.533   7.537   9.838 -0.2135  0.3068  0.3065
19858SOL    HW171633   9.455   7.589   9.804 -1.2525 -1.8362 -0.6750
19858SOL    HW271634   9.511   7.497   9.927 -1.9512 -3.8765 -1.8524
19859SOL     OW71635   5.340   2.702   4.910  0.1313 -0.1270  0.3862
19859SOL    HW171636   5.267   2.736   4.851  1.1392 -0.1041 -0.8882
19859SOL    HW271637   5.413   2.665   4.853 -0.4448 -3.4309  1.7168
19860SOL     OW71638   8.156   4.108   3.737 -0.3432  0.1151 -0.1480
19860SOL    HW171639   8.244   4.139   3.700 -1.3592  1.8170 -1.2011
19860SOL    HW271640   8.117   4.180   3.795 -1.1595 -0.5466  0.1365
19861SOL     OW71641   2.643   3.067   2.029  0.0131  0.0280  0.2460
19861SOL    HW171642   2.626   2.988   1.971  0.2285  0.0110  0.2047
19861SOL    HW271643   2.656   3.149   1.973 -0.2575  0.1026  0.2902
19862SOL     OW71644   9.866   0.509   1.863 -0.3465 -0.1051  0.4593
19862SOL    HW171645   9.792   0.467   1.916 -1.1969 -1.3998 -1.6966
19862SOL    HW271646   9.952   0.463   1.883 -0.7072 -0.7590  0.5180
19863SOL     OW71647   8.376   7.196   8.816 -0.6338 -0.6638 -0.1087
19863SOL    HW171648   8.372   7.296   8.817 -0.9846 -0.6730 -0.3097
19863SOL    HW271649   8.400   7.165   8.724  0.1664 -0.7458  0.1201
19864SOL     OW71650   8.698   9.058   0.595  0.4038 -0.3365  0.0820
19864SOL    HW171651   8.798   9.064   0.598  0.4643 -0.9486 -0.4937
19864SOL    HW271652   8.668   8.973   0.638  0.2439 -0.9886 -1.2939
19865SOL     OW71653   7.504   6.262   4.740  0.1201  0.6332  0.2521
19865SOL    HW171654   7.436   6.189   4.734  1.0599 -0.0633 -3.2048
19865SOL    HW271655   7.588   6.226   4.779  0.2931  0.0548 -0.6320
19866SOL     OW71656   3.311   3.478   0.408 -0.0775  0.3657 -0.3016
19866SOL    HW171657   3.331   3.423   0.326  2.1187  0.0709  0.4029
19866SOL    HW271658   3.263   3.561   0.381  0.2641  0.0797 -1.8496
19867SOL     OW71659   1.287   3.133   3.018  0.0816 -0.1713 -0.1367
19867SOL    HW171660   1.272   3.232   3.025  0.9798 -0.0103 -0.3476
19867SOL    HW271661   1.282   3.106   2.922  0.7597 -0.1680 -0.1770
19868SOL     OW71662   7.430   7.246   3.741 -0.1829  0.3384  0.0700
19868SOL    HW171663   7.367   7.274   3.814 -0.9275 -0.8239 -0.1145
19868SOL    HW271664   7.384   7.180   3.681  0.8242  0.3829 -0.7545
19869SOL     OW71665   1.183   6.059   5.742 -0.0238 -0.1778 -0.3683
19869SOL    HW171666   1.188   6.158   5.730 -2.7865  0.0148 -0.3435
19869SOL    HW271667   1.192   6.037   5.839 -2.1885  0.3111 -0.0297
19870SOL     OW71668   9.901   1.236   4.820  0.5062 -0.6172 -0.3084
19870SOL    HW171669   9.979   1.286   4.856  1.1198 -0.7448 -1.4281
19870SOL    HW271670   9.908   1.140   4.847  0.4547 -0.5252  0.0371
19871SOL     OW71671   6.164   5.416   0.807 -0.0181  0.4831  0.5684
19871SOL    HW171672   6.245   5.458   0.848 -0.7082  1.7371  0.6752
19871SOL    HW271673   6.159   5.442   0.710 -0.5188  0.7574  0.6681
19872SOL     OW71674   1.640   6.886   6.527 -1.0781  0.2289 -0.2109
19872SOL    HW171675   1.601   6.867   6.436 -0.9636  0.3166 -0.2782
19872SOL    HW271676   1.602   6.972   6.562 -1.3310  0.0542 -0.0550
19873SOL     OW71677   0.217   1.899   6.817 -0.1676 -0.3832 -0.2561
19873SOL    HW171678   0.121   1.904   6.842 -0.0596  2.9202 -0.2162
19873SOL    HW271679   0.225   1.889   6.718 -0.5632 -0.1459 -0.3124
19874SOL     OW71680   1.507   9.410   5.281  0.6697 -0.0973 -0.1290
19874SOL    HW171681   1.478   9.374   5.370  1.6062  0.1919  0.3049
19874SOL    HW271682   1.607   9.414   5.278  0.5984  1.4177 -0.6033
19875SOL     OW71683   9.880   7.190   8.228  0.2217 -0.2807  0.2851
19875SOL    HW171684   9.934   7.272   8.240  3.3452 -1.9648 -1.6198
19875SOL    HW271685   9.823   7.199   8.145 -0.2517  0.3533  0.6776
19876SOL     OW71686   1.675   4.596   5.775  0.0161  0.5682 -0.4446
19876SOL    HW171687   1.582   4.627   5.756  0.7526  2.6152 -0.8665
19876SOL    HW271688   1.735   4.676   5.789  1.6036 -0.7188  0.3233
19877SOL     OW71689   1.930   1.824   9.217 -0.3614 -0.2957 -0.4749
19877SOL    HW171690   2.003   1.807   9.283 -1.3151  0.5013  0.8073
19877SOL    HW271691   1.967   1.821   9.124  1.6943  2.0236  0.2176
19878SOL     OW71692   2.589   1.287   7.353  0.3161 -0.0115 -0.1089
19878SOL    HW171693   2.501   1.334   7.363  0.5356  0.3862 -0.0676
19878SOL    HW271694   2.614   1.245   7.440 -0.3001 -0.9457 -0.3734
19879SOL     OW71695   2.564   5.888   2.998 -0.1263  0.0795  0.0418
19879SOL    HW171696   2.467   5.881   3.021 -0.0492 -0.7766  0.1084
19879SOL    HW271697   2.577   5.961   2.931 -0.7004  0.8125  0.7097
19880SOL     OW71698   7.172   0.040   3.305  0.8988 -0.0446  0.5288
19880SOL    HW171699   7.204   0.025   3.399  2.4800  0.2849  0.0558
19880SOL    HW271700   7.224   0.114   3.264  1.5189 -1.4273 -1.2468
19881SOL     OW71701   2.988   8.720   6.507 -0.0348 -0.1336  0.1684
19881SOL    HW171702   3.086   8.740   6.500 -0.0341  0.0975  0.7889
19881SOL    HW271703   2.947   8.781   6.576 -0.5961 -0.2871 -0.0339
19882SOL     OW71704   6.946   7.819   3.918  0.1734  0.5369 -0.4872
19882SOL    HW171705   6.846   7.808   3.920  0.0097  2.0495 -0.0881
19882SOL    HW271706   6.969   7.915   3.932  1.6570  0.3583 -1.6330
19883SOL     OW71707   2.166   5.697   7.074 -0.2104  0.0170 -0.2288
19883SOL    HW171708   2.204   5.789   7.067  0.4588 -0.2028  0.5194
19883SOL    HW271709   2.211   5.637   7.009 -0.2614  0.0850 -0.3268
19884SOL     OW71710   3.039   1.125   9.474  0.1370  0.3318 -0.5715
19884SOL    HW171711   3.113   1.173   9.522  1.3665 -0.4082 -1.6683
19884SOL    HW271712   3.033   1.158   9.380 -0.0123 -0.5808 -0.8891
19885SOL     OW71713   1.777   9.426   2.819 -0.4909 -0.3610 -0.4133
19885SOL    HW171714   1.761   9.383   2.908  2.8398 -2.0481 -0.5710
19885SOL    HW271715   1.860   9.480   2.822 -0.0939 -0.8064 -2.6253
19886SOL     OW71716   0.153   2.720   5.906  0.5269 -0.6551 -0.0845
19886SOL    HW171717   0.202   2.785   5.847 -0.8665  0.7256  0.2317
19886SOL    HW271718   0.183   2.734   6.001 -1.7207  1.4466  0.3664
19887SOL     OW71719   5.052   9.573   5.771 -0.0467  0.3691  0.1978
19887SOL    HW171720   4.956   9.544   5.769  0.0067  0.1787  0.4616
19887SOL    HW271721   5.060   9.657   5.825 -0.1170  0.5797 -0.1149
19888SOL     OW71722   3.543   8.058   8.429  0.2837  0.2144  0.3220
19888SOL    HW171723   3.629   8.109   8.436  1.2805 -1.0293 -2.1041
19888SOL    HW271724   3.475   8.113   8.381  1.5545 -0.8198 -2.8718
19889SOL     OW71725   8.699   0.468   7.802 -0.4634  0.1874 -0.2842
19889SOL    HW171726   8.656   0.446   7.890 -0.7093  1.3127 -0.1226
19889SOL    HW271727   8.650   0.544   7.759  0.4493  0.4894 -0.8002
19890SOL     OW71728   3.754   1.198   8.355 -0.2604  0.0067  0.1508
19890SOL    HW171729   3.836   1.242   8.390 -0.9945  0.4597  1.3326
19890SOL    HW271730   3.754   1.102   8.382  0.7068 -0.4131 -1.3139
19891SOL     OW71731   4.539   3.517   0.868  0.2255  0.4351 -0.9728
19891SOL    HW171732   4.557   3.421   0.847 -0.3521  0.0526  0.2525
19891SOL    HW271733   4.613   3.554   0.924  0.5504  0.7622 -1.6170
19892SOL     OW71734   3.668   4.315   1.234 -0.5293  0.6588  0.1301
19892SOL    HW171735   3.730   4.378   1.187  0.0592  0.4092  0.5741
19892SOL    HW271736   3.585   4.365   1.261  0.0439  1.3169  0.7046
19893SOL     OW71737   3.756   9.735   9.584  0.1902  0.1558  0.2517
19893SOL    HW171738   3.795   9.680   9.657 -0.8507 -0.5611  0.2842
19893SOL    HW271739   3.815   9.730   9.503  1.5436  1.2858  1.1709
19894SOL     OW71740   7.966   3.048   9.991  0.2626  0.0322  0.0522
19894SOL    HW171741   7.973   2.963  10.042 -1.0314  0.0491  0.2743
19894SOL    HW271742   7.959   3.028   9.893 -3.3430 -0.3207  0.3074
19895SOL     OW71743   2.023   1.613   5.043  0.2681 -0.0980 -0.0501
19895SOL    HW171744   1.997   1.677   4.970 -1.2632 -2.8407 -2.0011
19895SOL    HW271745   1.959   1.622   5.119 -0.7563 -0.1998 -0.8797
19896SOL     OW71746   4.134   2.950   5.066 -0.1389 -0.5889 -0.4774
19896SOL    HW171747   4.211   3.014   5.057 -0.9848  0.4898 -0.2038
19896SOL    HW271748   4.058   2.982   5.009 -1.0480 -0.6132  0.6953
19897SOL     OW71749   2.741   4.519   0.274  0.4535 -0.1501  0.3867
19897SOL    HW171750   2.729   4.536   0.372  0.9685  0.9040  0.2715
19897SOL    HW271751   2.738   4.421   0.257  1.2375 -0.3913  1.5806
19898SOL     OW71752   3.549   4.148   2.066 -0.2822  0.5669 -0.0992
19898SOL    HW171753   3.479   4.163   1.997  0.4213  1.0525 -0.7092
19898SOL    HW271754   3.605   4.230   2.075 -0.5316  0.6041  1.2360
19899SOL     OW71755   6.411   4.832   1.630 -0.2080 -0.2425  0.2795
19899SOL    HW171756   6.479   4.904   1.642 -1.2810  0.4829  2.2539
19899SOL    HW271757   6.452   4.743   1.652  0.1678  0.1557  1.1887
19900SOL     OW71758   7.505   1.344   2.422  0.6422 -0.6792  0.3445
19900SOL    HW171759   7.523   1.425   2.479  1.8900 -0.1262 -0.8199
19900SOL    HW271760   7.588   1.319   2.373  0.1006 -2.3395  0.2536
19901SOL     OW71761   8.323   5.830   4.859 -0.6791  0.2440 -0.4469
19901SOL    HW171762   8.409   5.806   4.905 -1.7248 -0.6041  1.1037
19901SOL    HW271763   8.271   5.893   4.916 -1.9906 -0.7989 -0.4699
19902SOL     OW71764   9.496   6.679   6.886  0.2214  0.2001  1.2244
19902SOL    HW171765   9.486   6.652   6.981  1.4735  1.3937  1.7024
19902SOL    HW271766   9.409   6.716   6.853  0.0565  0.6628  2.1773
19903SOL     OW71767   5.791   3.099   8.635  0.1544 -0.6639  0.2525
19903SOL    HW171768   5.738   3.024   8.593 -0.5694 -0.2439  0.4077
19903SOL    HW271769   5.888   3.082   8.622 -0.0363 -1.0208 -0.7830
19904SOL     OW71770   8.698   1.267   6.237  0.3441 -0.3088  0.6223
19904SOL    HW171771   8.610   1.226   6.213  1.2280 -1.0012 -1.5877
19904SOL    HW271772   8.772   1.210   6.201  1.6501  1.6649  0.0969
19905SOL     OW71773   3.101   3.407   0.119 -0.4733 -0.1338 -0.1441
19905SOL    HW171774   3.134   3.440   0.031 -1.6933  0.0892 -0.5323
19905SOL    HW271775   3.173   3.354   0.164  0.3486  0.2233 -1.0202
19906SOL     OW71776   9.320   0.205   6.996 -0.5896 -0.2428  0.4877
19906SOL    HW171777   9.327   0.108   7.017 -0.3065  0.1600  2.3115
19906SOL    HW271778   9.371   0.224   6.912 -2.7615 -2.0792 -1.3325
19907SOL     OW71779   9.437   8.847   3.271 -0.2406 -0.2887  0.3077
19907SOL    HW171780   9.376   8.768   3.267  1.2542 -1.4965  0.7796
19907SOL    HW271781   9.487   8.847   3.357  0.3442  0.7426 -0.0168
19908SOL     OW71782   4.134   0.443   9.385 -0.4408 -0.3424 -0.5245
19908SOL    HW171783   4.220   0.434   9.336  0.3753  1.7147  0.4554
19908SOL    HW271784   4.059   0.456   9.320  0.0679 -1.5897 -1.3596
19909SOL     OW71785   5.529   0.521   2.581 -0.2017  0.1863 -0.2149
19909SOL    HW171786   5.442   0.551   2.621  0.6246  1.8708  0.3684
19909SOL    HW271787   5.550   0.428   2.611 -2.1195 -0.4948 -0.8958
19910SOL     OW71788   1.112   3.968   4.495 -0.1476  0.0253 -0.7133
19910SOL    HW171789   1.132   3.911   4.575  1.0070  1.2183 -0.1301
19910SOL    HW271790   1.017   3.999   4.498  0.5539  2.1218  1.5567
19911SOL     OW71791   1.008   4.935   5.141  0.3457  0.2475 -0.0978
19911SOL    HW171792   1.060   4.922   5.225 -0.0629 -1.3709 -0.0746
19911SOL    HW271793   0.946   4.857   5.128 -1.0969  1.4856 -0.8129
19912SOL     OW71794   5.012   4.463   6.869 -0.6434  0.0436 -0.1882
19912SOL    HW171795   5.091   4.522   6.854  0.1169 -1.4712 -2.3220
19912SOL    HW271796   4.932   4.501   6.822 -0.5216  0.1685 -0.2941
19913SOL     OW71797   4.363   0.735   3.225 -0.1596 -0.1937  0.6374
19913SOL    HW171798   4.276   0.784   3.214 -0.6027 -0.8193  1.3616
19913SOL    HW271799   4.425   0.790   3.280 -0.3414 -0.0521  0.7009
19914SOL     OW71800   2.466   7.705   7.445 -0.0320  0.0232 -0.2202
19914SOL    HW171801   2.415   7.765   7.506 -0.2442  1.0927 -1.4117
19914SOL    HW271802   2.402   7.648   7.394  0.0626  0.0422 -0.3620
19915SOL     OW71803   2.914   0.599   6.283  0.1697  0.0935 -0.2198
19915SOL    HW171804   2.840   0.633   6.341  0.3478 -0.2089  0.1829
19915SOL    HW271805   2.893   0.619   6.187 -0.9656 -0.9933 -0.2094
19916SOL     OW71806   5.487   2.806   9.382 -0.0396 -0.2954 -0.1154
19916SOL    HW171807   5.451   2.713   9.375 -2.1065  0.4097  0.8503
19916SOL    HW271808   5.464   2.857   9.300  0.8680 -0.5540 -0.5330
19917SOL     OW71809   9.109   0.593   3.869  0.2468  0.3682  0.0652
19917SOL    HW171810   9.087   0.588   3.772 -1.9674  0.1838  0.5662
19917SOL    HW271811   9.117   0.501   3.907 -2.7242  0.4201  0.8886
19918SOL     OW71812   6.385   9.778   3.738 -0.5910 -0.4130  0.5425
19918SOL    HW171813   6.354   9.863   3.782 -1.0014 -0.4977  0.4142
19918SOL    HW271814   6.342   9.769   3.649 -0.8811 -0.9757  0.7378
19919SOL     OW71815   8.787   2.265   3.408 -0.4063  0.3305 -0.1918
19919SOL    HW171816   8.773   2.226   3.499  0.3193 -0.3471 -0.3687
19919SOL    HW271817   8.802   2.192   3.342 -2.6379  0.7271 -1.1783
19920SOL     OW71818   7.000   1.070   2.115 -0.0387  0.2100  0.5885
19920SOL    HW171819   6.923   1.007   2.121  0.6445 -0.7417 -0.4486
19920SOL    HW271820   7.085   1.018   2.110  0.5385  1.2095 -0.2165
19921SOL     OW71821   4.410   0.449   6.195 -0.3397 -0.2853 -0.4583
19921SOL    HW171822   4.502   0.457   6.233 -0.6682 -0.5312  0.4101
19921SOL    HW271823   4.353   0.394   6.257 -1.6176  1.4807 -0.0141
19922SOL     OW71824   6.857   1.997   5.849 -0.0301  0.0376 -0.1504
19922SOL    HW171825   6.928   2.060   5.816  1.6768 -1.3093  0.8434
19922SOL    HW271826   6.860   1.913   5.795  0.0815 -0.5756  0.7956
19923SOL     OW71827   9.094   0.001   4.762  0.1565 -0.1107  0.3353
19923SOL    HW171828   9.121   0.036   4.852  0.4194  1.0292 -0.1769
19923SOL    HW271829   9.149   0.045   4.692 -0.6058 -0.3962 -0.4497
19924SOL     OW71830   3.877   1.549   8.057  0.2185 -0.2894 -0.6867
19924SOL    HW171831   3.875   1.450   8.070  0.0832 -0.1191  0.5872
19924SOL    HW271832   3.843   1.571   7.965  1.3383 -1.4937 -1.4153
19925SOL     OW71833   8.871   5.219   4.175 -0.1163 -0.5829  0.7773
19925SOL    HW171834   8.856   5.317   4.181 -0.8016 -0.7655  2.1808
19925SOL    HW271835   8.791   5.175   4.134 -0.0419 -0.6187  0.6713
19926SOL     OW71836   9.145   3.612   4.533 -0.1419 -0.4045  0.0657
19926SOL    HW171837   9.123   3.585   4.439 -1.2633  0.1023  0.1720
19926SOL    HW271838   9.139   3.712   4.540  2.1186 -0.2403  0.1342
19927SOL     OW71839   6.809   0.728   8.761 -0.1391  0.0683 -0.2954
19927SOL    HW171840   6.892   0.776   8.786 -1.4019  2.5252 -0.6354
19927SOL    HW271841   6.793   0.653   8.825  2.4664 -0.6397 -0.4256
19928SOL     OW71842   9.682   1.809   0.442  0.4465 -0.0480  0.2635
19928SOL    HW171843   9.775   1.775   0.459 -1.0036 -2.9143  2.7789
19928SOL    HW271844   9.643   1.762   0.363  0.2683 -0.5940  0.6756
19929SOL     OW71845   3.392   8.929   0.348 -0.1735 -0.2676 -0.1245
19929SOL    HW171846   3.396   9.029   0.347  0.9979 -0.3031  0.4764
19929SOL    HW271847   3.396   8.896   0.442  0.0524 -0.9020 -0.3533
19930SOL     OW71848   3.640   6.724   4.277  0.0012  0.7773  0.7201
19930SOL    HW171849   3.547   6.752   4.253 -0.0213 -0.3537 -0.6087
19930SOL    HW271850   3.692   6.803   4.310 -1.5019  1.3664  1.6985
19931SOL     OW71851   7.136   3.328   3.806 -0.0094  0.1959 -0.0193
19931SOL    HW171852   7.075   3.285   3.872  2.4169 -1.2715  1.3375
19931SOL    HW271853   7.147   3.425   3.830  0.1077 -0.1032  1.1865
19932SOL     OW71854   3.592   6.577   2.928 -0.7345  0.2549  0.6882
19932SOL    HW171855   3.592   6.478   2.941  1.1120 -0.0092 -0.9293
19932SOL    HW271856   3.564   6.598   2.834  1.7074  1.0548  0.1031
19933SOL     OW71857   8.368   1.833   6.825 -0.3086  0.2013  0.2810
19933SOL    HW171858   8.463   1.816   6.848 -0.6893 -2.3025  0.1339
19933SOL    HW271859   8.354   1.821   6.727 -1.3860 -2.6443  0.7450
19934SOL     OW71860   8.123   3.519   4.513  0.0135  0.6460  0.2210
19934SOL    HW171861   8.083   3.489   4.426 -1.9936 -1.0436  1.6616
19934SOL    HW271862   8.062   3.587   4.555  0.4904  0.7372  0.7615
19935SOL     OW71863   2.410   7.002   3.688 -0.5237  0.0713 -0.6289
19935SOL    HW171864   2.473   7.055   3.631  0.4123 -1.5705 -1.1652
19935SOL    HW271865   2.328   6.980   3.636 -0.7878  0.7291 -0.4979
19936SOL     OW71866   7.171   6.011   9.174  0.3174  0.0671 -0.2609
19936SOL    HW171867   7.163   6.098   9.222  0.6833  0.7117 -1.3396
19936SOL    HW271868   7.215   6.026   9.085 -0.1302 -1.1264 -0.6978
19937SOL     OW71869   7.512   0.032   3.069  0.0314  0.0825  0.1581
19937SOL    HW171870   7.471  -0.035   3.007 -0.7158 -0.7206  1.4958
19937SOL    HW271871   7.595  -0.008   3.110 -0.0283  0.2360  0.4290
19938SOL     OW71872   5.833   9.382   5.301  0.2242  0.8280  0.2999
19938SOL    HW171873   5.880   9.470   5.307  0.1900  0.8244  0.6019
19938SOL    HW271874   5.891   9.318   5.249  0.4647  0.8841  0.4972
19939SOL     OW71875   3.127   9.803   0.858  0.0868  0.4128  0.0814
19939SOL    HW171876   3.137   9.889   0.909  1.4451 -0.6735  1.6928
19939SOL    HW271877   3.058   9.746   0.903  0.2524  0.0449 -0.1336
19940SOL     OW71878   0.020   1.096   3.931 -0.1479  0.3252 -0.1491
19940SOL    HW171879   0.063   1.052   4.010 -0.2789  1.0526  0.3325
19940SOL    HW271880  -0.077   1.071   3.927 -0.3195  0.8949  0.3635
19941SOL     OW71881   2.970   7.623   5.372  0.2697  0.2806  0.0452
19941SOL    HW171882   2.961   7.691   5.299  1.0575 -0.7275 -1.0018
19941SOL    HW271883   3.053   7.641   5.424  1.4197 -0.9163 -1.3427
19942SOL     OW71884   1.695   1.828   2.666 -0.4856  0.8344 -1.1139
19942SOL    HW171885   1.734   1.763   2.602 -1.2112 -0.5514 -0.1802
19942SOL    HW271886   1.604   1.856   2.634 -1.9418 -1.8121  0.5409
19943SOL     OW71887   5.277   2.242   7.121  0.1320  0.2151  0.0602
19943SOL    HW171888   5.355   2.190   7.156 -0.0852  0.6508  1.2311
19943SOL    HW271889   5.253   2.313   7.187 -1.2020  0.1317 -0.3270
19944SOL     OW71890   7.860   9.198   5.183 -0.2117 -0.3796  0.7169
19944SOL    HW171891   7.864   9.218   5.281 -2.9160 -0.9559  0.9611
19944SOL    HW271892   7.784   9.247   5.142  0.0162 -1.3004 -0.8429
19945SOL     OW71893   9.202   4.423   9.511 -0.4399 -0.4986 -0.0208
19945SOL    HW171894   9.166   4.333   9.488 -0.5903  0.0326 -1.9877
19945SOL    HW271895   9.291   4.436   9.465 -0.5578  0.4572  0.0116
19946SOL     OW71896   3.540   1.514   0.831 -0.0875  0.4354  0.7614
19946SOL    HW171897   3.468   1.478   0.891  1.1827 -0.6710  1.6504
19946SOL    HW271898   3.500   1.544   0.744 -1.9951  2.3261  2.2576
19947SOL     OW71899   2.380   2.799   7.772  0.0127  0.2197 -0.7288
19947SOL    HW171900   2.289   2.758   7.762 -1.3622  2.8301  0.6576
19947SOL    HW271901   2.412   2.834   7.684 -0.7828  0.2669 -0.9973
19948SOL     OW71902   2.800   8.727   3.547  0.2706 -0.0747  0.4256
19948SOL    HW171903   2.823   8.776   3.463  1.1428 -2.0245 -0.4989
19948SOL    HW271904   2.732   8.656   3.527  0.0248 -0.1540  1.4959
19949SOL     OW71905   6.648   5.546   7.101  0.0301 -0.8461  0.5724
19949SOL    HW171906   6.694   5.472   7.053 -0.4326 -1.6684  1.3843
19949SOL    HW271907   6.588   5.595   7.038  1.2767 -0.3660 -0.2635
19950SOL     OW71908   7.897   8.835   4.109  0.4322 -0.4773 -0.1767
19950SOL    HW171909   7.960   8.877   4.043  2.2279 -2.1094  0.4558
19950SOL    HW271910   7.909   8.736   4.108 -0.7765 -0.6602  1.3675
19951SOL     OW71911   5.574   2.884   8.804 -0.9055 -0.0856  0.1271
19951SOL    HW171912   5.581   2.983   8.816  0.1119 -0.0530 -0.6481
19951SOL    HW271913   5.657   2.840   8.836 -0.8011 -0.5573 -0.7624
19952SOL     OW71914   0.350   7.202   2.774  0.5494  0.2280 -0.3014
19952SOL    HW171915   0.300   7.285   2.801  0.6816  0.0784  0.4045
19952SOL    HW271916   0.382   7.212   2.680 -2.8815 -0.6438 -1.6476
19953SOL     OW71917   8.958   1.852   0.978 -0.0530  0.0441 -0.0654
19953SOL    HW171918   9.001   1.907   1.049  1.2838 -0.5030 -0.4444
19953SOL    HW271919   8.942   1.908   0.897 -0.9289  0.4852  0.4036
19954SOL     OW71920   9.777   9.242   6.737 -0.6714  0.1963 -0.2528
19954SOL    HW171921   9.697   9.201   6.780 -0.1050 -0.7872 -0.1067
19954SOL    HW271922   9.775   9.225   6.638  0.9735 -2.7224  0.1443
19955SOL     OW71923   8.556   1.682   1.008 -0.0722 -0.7362 -0.1074
19955SOL    HW171924   8.643   1.670   1.057 -0.8358 -1.9295  1.0034
19955SOL    HW271925   8.509   1.594   1.001 -0.2508 -0.4926 -2.5404
19956SOL     OW71926   9.682   0.351   7.997 -0.0475 -0.7442 -0.9373
19956SOL    HW171927   9.604   0.398   7.957 -1.3248  0.1483  2.4565
19956SOL    HW271928   9.758   0.415   8.008 -0.8581 -0.1048  1.1478
19957SOL     OW71929   8.347   9.332   4.444  0.5371  0.1991 -0.4945
19957SOL    HW171930   8.333   9.387   4.361  1.5179  0.9403 -0.1814
19957SOL    HW271931   8.445   9.331   4.467  0.2082  0.3878  0.9217
19958SOL     OW71932   8.169   6.267   5.312  0.6982  0.3698 -0.4189
19958SOL    HW171933   8.101   6.214   5.261  1.1727 -1.9553  1.2895
19958SOL    HW271934   8.259   6.223   5.305  0.9620  0.5016  1.6477
19959SOL     OW71935   1.124   0.849   7.466 -0.2188  0.1254  0.1093
19959SOL    HW171936   1.206   0.864   7.522 -0.0063 -3.0567  0.7143
19959SOL    HW271937   1.043   0.854   7.524 -0.0729 -2.0706  0.5211
19960SOL     OW71938   5.827   1.652   4.699 -0.2904  0.9044 -0.4109
19960SOL    HW171939   5.863   1.662   4.606  0.6289  1.1329 -0.0396
19960SOL    HW271940   5.738   1.695   4.705  0.2888  2.1769 -0.8061
19961SOL     OW71941   4.453   4.430   9.187 -0.9947  0.5629  0.2098
19961SOL    HW171942   4.415   4.472   9.104  0.3151  0.2000 -0.5960
19961SOL    HW271943   4.379   4.406   9.250 -2.0781  0.0943 -1.2141
19962SOL     OW71944   3.386   2.326   8.081  0.0315 -0.1810 -0.6018
19962SOL    HW171945   3.341   2.413   8.104  0.8071 -0.1756  0.9673
19962SOL    HW271946   3.458   2.307   8.148  0.6008 -1.4980 -1.5681
19963SOL     OW71947   6.378   1.273   5.614 -0.5820  0.3376 -0.0611
19963SOL    HW171948   6.299   1.333   5.625 -2.0879 -1.7248  0.6981
19963SOL    HW271949   6.396   1.225   5.700  0.8274 -0.0058 -0.5339
19964SOL     OW71950   5.193   9.327   5.740  0.2974  0.3383  0.2057
19964SOL    HW171951   5.116   9.391   5.738 -2.9592 -3.3547  1.5130
19964SOL    HW271952   5.270   9.370   5.786 -1.9380  3.1650  1.5221
19965SOL     OW71953   3.490   0.162   4.388 -0.2581  0.2999 -0.0367
19965SOL    HW171954   3.440   0.079   4.415 -0.4921  0.4929  0.1261
19965SOL    HW271955   3.502   0.221   4.468 -0.3621  0.5651 -0.2168
19966SOL     OW71956   4.547   4.122   7.553  0.0957 -0.2691  0.0860
19966SOL    HW171957   4.458   4.163   7.533  0.2721  0.3061  0.4721
19966SOL    HW271958   4.578   4.152   7.643  0.4895 -0.8030  0.1347
19967SOL     OW71959   9.224   1.559   7.103 -0.1221  0.0630 -0.1165
19967SOL    HW171960   9.306   1.565   7.160 -0.6392  1.9965  0.4483
19967SOL    HW271961   9.244   1.595   7.011  0.2078 -1.3599 -0.6133
19968SOL     OW71962   7.727   8.591   1.578  0.5235 -0.4349 -0.2583
19968SOL    HW171963   7.631   8.586   1.605  0.6698 -0.8844  0.1923
19968SOL    HW271964   7.760   8.500   1.555  0.7762 -0.2448 -0.6554
19969SOL     OW71965   2.669   8.873   1.251 -0.0684  0.8759 -0.1769
19969SOL    HW171966   2.590   8.841   1.303  0.8964  1.5219  1.7533
19969SOL    HW271967   2.642   8.891   1.157 -2.3090  1.4328  0.5311
19970SOL     OW71968   4.721   1.715   5.886 -0.3357  0.3953 -0.2067
19970SOL    HW171969   4.760   1.788   5.829  1.6829 -0.1120  0.4933
19970SOL    HW271970   4.721   1.629   5.835  1.0330  0.0402  0.3880
19971SOL     OW71971   8.251   4.035   6.887  0.4784 -0.3922 -0.5404
19971SOL    HW171972   8.214   3.971   6.954  2.0065 -0.8483 -0.1112
19971SOL    HW271973   8.327   3.991   6.837 -0.9003 -0.2224 -2.8720
19972SOL     OW71974   8.896   7.377   1.111 -0.4221 -0.1343  0.6155
19972SOL    HW171975   8.848   7.462   1.088  1.4034  1.1159  1.2506
19972SOL    HW271976   8.901   7.367   1.211  1.7175  0.4525  0.6057
19973SOL     OW71977   7.200   2.113   2.997 -0.0757  0.4597 -0.6728
19973SOL    HW171978   7.230   2.047   3.066 -0.7639  0.5847 -0.2486
19973SOL    HW271979   7.280   2.154   2.953  0.3554 -0.2550 -0.5516
19974SOL     OW71980   1.216   1.317   6.826  0.2193  0.2526 -0.1827
19974SOL    HW171981   1.257   1.234   6.862 -0.2241  0.1612  0.1258
19974SOL    HW271982   1.208   1.311   6.727  0.0969 -0.1149 -0.1484
19975SOL     OW71983   0.083   6.818   9.791 -0.4610  0.3087 -0.1673
19975SOL    HW171984  -0.013   6.811   9.820 -0.4473  0.5359 -0.0704
19975SOL    HW271985   0.118   6.726   9.772 -0.2531  0.0789  1.2650
19976SOL     OW71986   1.722   5.477   1.741 -0.1161  0.1430 -0.2691
19976SOL    HW171987   1.688   5.384   1.758  2.3996 -0.7187  0.2869
19976SOL    HW271988   1.707   5.533   1.823 -3.6959  0.9389 -1.3700
19977SOL     OW71989   1.121   8.924   1.667 -0.0304 -0.1556  0.6021
19977SOL    HW171990   1.063   8.855   1.624  0.9823 -0.1301 -0.8257
19977SOL    HW271991   1.140   8.897   1.762 -1.4124 -0.7408  0.7191
19978SOL     OW71992   2.923   9.970   6.395  0.4345  0.2833  0.6107
19978SOL    HW171993   2.860   9.933   6.327  0.5507  1.3055 -0.0556
19978SOL    HW271994   2.992  10.025   6.351  1.2238 -0.0155  1.4495
19979SOL     OW71995   1.920   2.931   2.550 -0.1131  0.2624  0.4514
19979SOL    HW171996   1.846   2.954   2.612 -0.8437 -0.2439 -0.2133
19979SOL    HW271997   1.936   3.007   2.487 -1.5267 -0.4206 -0.7843
19980SOL     OW71998   6.600   7.601   2.648  0.7566  1.2917  0.4596
19980SOL    HW171999   6.647   7.514   2.662  0.4540  1.2980  1.5620
19980SOL    HW272000   6.664   7.676   2.662  0.9139  1.2578 -0.0715
19981SOL     OW72001   9.184   4.273   5.412  0.0430  0.2644 -0.2437
19981SOL    HW172002   9.220   4.350   5.360 -0.1419  1.5085  1.4347
19981SOL    HW272003   9.163   4.303   5.505  2.1231 -2.3369  1.1384
19982SOL     OW72004   3.346   3.929   3.308  0.1657  0.2657  0.2916
19982SOL    HW172005   3.406   3.982   3.248  0.7470  0.0465  0.6778
19982SOL    HW272006   3.401   3.875   3.371 -0.4275 -0.5744  0.1010
19983SOL     OW72007   3.813   0.516   0.706  0.1010  0.7017  0.4694
19983SOL    HW172008   3.823   0.465   0.620 -0.6151  0.0209  0.7801
19983SOL    HW272009   3.883   0.587   0.712  0.5945  0.2813 -0.3528
19984SOL     OW72010   1.734   0.968   5.607  0.0377  0.4413 -1.1140
19984SOL    HW172011   1.775   1.044   5.658  2.1140 -1.0209 -0.5674
19984SOL    HW272012   1.690   0.905   5.671 -1.3157  0.9426 -1.5351
19985SOL     OW72013   1.788   5.346   3.391  0.3927  0.4836  0.1109
19985SOL    HW172014   1.697   5.304   3.390  0.6750 -0.1153 -1.1883
19985SOL    HW272015   1.856   5.279   3.364  0.9947  1.4409 -0.8049
19986SOL     OW72016   1.610   2.301   8.153 -0.5420 -0.2052 -0.5406
19986SOL    HW172017   1.657   2.364   8.215 -0.4568  0.7451 -1.5478
19986SOL    HW272018   1.608   2.210   8.193 -0.8719  0.4779  1.0510
19987SOL     OW72019   8.904   2.934   4.701  0.1947 -0.0067 -0.4415
19987SOL    HW172020   8.932   2.841   4.726 -2.7833 -0.1828  2.5023
19987SOL    HW272021   8.827   2.931   4.637  0.1141  0.4511 -0.3728
19988SOL     OW72022   0.931   1.276   5.596 -0.1200 -0.3372 -0.0368
19988SOL    HW172023   0.978   1.192   5.568  1.3618 -0.3915  2.4488
19988SOL    HW272024   0.889   1.263   5.685  0.5689  1.7326  0.6174
19989SOL     OW72025   9.655   0.194   6.115 -0.0492  0.2194  0.3575
19989SOL    HW172026   9.682   0.099   6.101  0.1711  0.5369 -1.6136
19989SOL    HW272027   9.633   0.236   6.026  0.1943  2.0969  1.1448
19990SOL     OW72028   3.484   1.544   6.893 -0.3133  0.2987 -0.0864
19990SOL    HW172029   3.507   1.453   6.930  0.1346  0.4064 -0.0953
19990SOL    HW272030   3.418   1.534   6.818  0.6751 -0.1244 -0.9169
19991SOL     OW72031   2.734   3.480   6.077  0.5783  0.0671 -0.1983
19991SOL    HW172032   2.828   3.479   6.111  0.4154  1.8579  0.3809
19991SOL    HW272033   2.734   3.515   5.983  0.3998  1.1098  0.1793
19992SOL     OW72034   6.557   1.746   1.364 -0.7239  0.1392  0.0226
19992SOL    HW172035   6.600   1.762   1.275 -0.4339  0.6537  0.2537
19992SOL    HW272036   6.532   1.650   1.373  0.2067 -0.1227 -0.1864
19993SOL     OW72037   7.162   8.992   6.070  0.1477 -0.3594 -0.1769
19993SOL    HW172038   7.200   8.967   6.158  0.6938  2.3016  0.3949
19993SOL    HW272039   7.226   9.052   6.021 -1.1841  0.1704 -1.3273
19994SOL     OW72040   5.494   9.587   3.482  0.2614  0.3294 -0.7540
19994SOL    HW172041   5.541   9.672   3.459  1.4721 -0.1200  0.0104
19994SOL    HW272042   5.543   9.509   3.441 -0.2207 -0.0863 -0.5460
19995SOL     OW72043   3.952   5.650   3.456 -0.2119  0.2526 -0.5730
19995SOL    HW172044   4.006   5.617   3.378  0.9736  2.1570 -0.5728
19995SOL    HW272045   3.958   5.583   3.531  0.7446 -0.3563 -1.1847
19996SOL     OW72046   5.313   5.921   0.302 -0.6819  0.0223 -0.0332
19996SOL    HW172047   5.282   5.997   0.359 -2.6804  0.0788 -1.1490
19996SOL    HW272048   5.296   5.835   0.350 -2.1701  0.0802 -0.4526
19997SOL     OW72049   3.123   6.646   4.851  0.0501  0.1670 -0.2184
19997SOL    HW172050   3.054   6.590   4.806 -0.2524 -0.5366  1.0878
19997SOL    HW272051   3.207   6.594   4.862  0.1187  0.3280  0.0261
19998SOL     OW72052   1.364   8.404   5.676  0.1650 -0.4079 -0.4705
19998SOL    HW172053   1.375   8.502   5.695  3.3381 -1.2596  2.5056
19998SOL    HW272054   1.418   8.379   5.596 -0.6078  0.2421 -1.2042
19999SOL     OW72055   1.342   9.273   2.064  0.1226  0.0690  0.1411
19999SOL    HW172056   1.287   9.193   2.039  1.1167 -0.6620  0.2500
19999SOL    HW272057   1.298   9.356   2.030 -0.6062 -0.5773 -0.5123
20000SOL     OW72058   8.507   0.422   3.539  0.2634  0.1311  0.4898
20000SOL    HW172059   8.570   0.488   3.580  0.9371 -0.4232  0.3569
20000SOL    HW272060   8.558   0.341   3.510 -0.5662 -0.4740  0.6994
20001SOL     OW72061   1.015   9.593   7.262  0.0772 -0.3985 -0.0953
20001SOL    HW172062   0.970   9.669   7.215 -1.0681 -0.9783  0.0472
20001SOL    HW272063   1.110   9.617   7.280 -0.0482  0.6735 -0.7928
20002SOL     OW72064   2.026   8.005   4.048 -0.2215 -0.1306  0.1295
20002SOL    HW172065   1.972   8.088   4.037  2.5118  1.4266 -2.3612
20002SOL    HW272066   2.037   7.960   3.959  1.3254 -1.2104  0.8307
20003SOL     OW72067   2.796   0.376   7.778 -0.4845  0.0621 -0.3264
20003SOL    HW172068   2.838   0.463   7.806 -0.6810  0.5117 -1.4316
20003SOL    HW272069   2.706   0.394   7.740 -1.9231 -0.9485  2.5061
20004SOL     OW72070   8.049   6.029   3.604 -0.7295  0.4524  0.1984
20004SOL    HW172071   8.038   5.939   3.562 -1.5458  0.2047  0.9230
20004SOL    HW272072   8.131   6.030   3.661  0.3108  0.7469 -1.2660
20005SOL     OW72073   7.015   0.424   6.828 -0.0544 -0.0911 -0.7346
20005SOL    HW172074   7.000   0.367   6.909 -0.2131  1.5125  0.4011
20005SOL    HW272075   7.103   0.400   6.787  0.4135 -0.3750  0.4020
20006SOL     OW72076   1.825   9.701   8.344 -0.2946 -0.3783 -0.2438
20006SOL    HW172077   1.750   9.767   8.359 -1.8210 -1.9827 -0.6985
20006SOL    HW272078   1.816   9.625   8.409 -0.7070 -1.9797 -2.1424
20007SOL     OW72079   6.273   2.003   3.873 -0.2932 -1.1234 -0.0964
20007SOL    HW172080   6.281   2.093   3.828  2.0451 -0.4768  1.5145
20007SOL    HW272081   6.188   2.000   3.926 -0.0911  0.3729  0.3378
20008SOL     OW72082   7.737   9.228   4.026  0.1082 -0.0244 -0.0607
20008SOL    HW172083   7.791   9.193   3.949  2.3689 -0.5150  1.6996
20008SOL    HW272084   7.778   9.314   4.058 -0.6276 -0.0015  0.8279
20009SOL     OW72085   9.574   9.485   3.048  0.4190  0.3481  0.3951
20009SOL    HW172086   9.608   9.471   3.140 -0.2040  2.9860  1.0688
20009SOL    HW272087   9.476   9.467   3.045  0.4282  0.3168  0.2591
20010SOL     OW72088   6.328   9.275   4.278  0.5796  0.0449 -0.1727
20010SOL    HW172089   6.310   9.210   4.351  0.2622  3.1832  2.6546
20010SOL    HW272090   6.418   9.257   4.238  0.5536 -1.9879  0.6628
20011SOL     OW72091   6.625   8.652   7.325 -0.3868  0.3682  0.0918
20011SOL    HW172092   6.632   8.588   7.401 -0.8609  0.7073  0.4260
20011SOL    HW272093   6.565   8.728   7.351  1.9871  2.1428  0.5291
20012SOL     OW72094   1.933   8.406   4.354  0.6409 -0.2958  0.4518
20012SOL    HW172095   1.929   8.425   4.452  0.6348 -2.5846  0.9321
20012SOL    HW272096   1.851   8.444   4.310 -0.2007 -0.7114  1.6199
20013SOL     OW72097   2.093   6.055   1.780 -0.3084 -0.0850  0.0127
20013SOL    HW172098   2.171   6.108   1.750 -0.3523  0.2652  0.5120
20013SOL    HW272099   2.029   6.114   1.830 -1.5733 -0.0553 -1.5922
20014SOL     OW72100   8.931   4.829   3.554  0.3718  0.1900 -0.2158
20014SOL    HW172101   8.897   4.805   3.463 -3.0628  0.3790  0.9643
20014SOL    HW272102   8.935   4.747   3.611 -0.5715  0.5822  0.4226
20015SOL     OW72103   4.455   8.720   7.217  0.2492 -0.1437  0.1498
20015SOL    HW172104   4.491   8.784   7.285 -0.9626 -0.0446  0.7129
20015SOL    HW272105   4.525   8.701   7.149  0.3936  2.4123 -0.4811
20016SOL     OW72106   9.009   8.934   7.574 -0.1225  0.0015 -0.9772
20016SOL    HW172107   9.053   8.845   7.561 -0.6761 -0.7391  1.7707
20016SOL    HW272108   8.929   8.941   7.515 -0.9073 -1.9370 -0.1834
20017SOL     OW72109   7.303   9.906   8.871  0.4209 -0.4833 -0.1116
20017SOL    HW172110   7.330   9.998   8.899  1.0458 -0.3481 -1.1040
20017SOL    HW272111   7.204   9.899   8.870  0.3608  0.3462 -0.5201
20018SOL     OW72112   2.869   7.341   7.902 -0.5299 -0.0978 -0.2088
20018SOL    HW172113   2.842   7.246   7.916  2.0161 -0.6926  0.9090
20018SOL    HW272114   2.968   7.346   7.893 -0.6487  2.4539 -0.3434
20019SOL     OW72115   8.655   9.641   6.922 -0.1337 -0.0613  0.4418
20019SOL    HW172116   8.688   9.596   6.839  0.8818 -0.8825  1.2838
20019SOL    HW272117   8.563   9.607   6.944 -0.1346 -0.3363  0.0266
20020SOL     OW72118   2.447   0.684   0.439  0.5564 -0.0921  0.6820
20020SOL    HW172119   2.452   0.721   0.531 -0.1416  1.3014  0.1818
20020SOL    HW272120   2.538   0.684   0.397  0.7112  0.2396  1.0157
20021SOL     OW72121   8.240   6.885   9.471 -0.1744 -0.0749 -0.5645
20021SOL    HW172122   8.284   6.932   9.393 -0.4350  0.1222 -0.5923
20021SOL    HW272123   8.147   6.920   9.482 -0.4604 -0.7776 -0.7477
20022SOL     OW72124   1.675   3.048   9.549  0.2215  0.4885  0.1038
20022SOL    HW172125   1.753   2.988   9.569 -1.2077 -2.1572 -1.8411
20022SOL    HW272126   1.653   3.043   9.452 -1.5456  2.2337  0.3838
20023SOL     OW72127   8.930   5.181   1.234  0.7089 -0.6221 -0.0130
20023SOL    HW172128   8.973   5.267   1.262 -0.8602 -0.1221  0.9379
20023SOL    HW272129   8.969   5.151   1.147  0.9399  1.3135 -0.6023
20024SOL     OW72130   7.729   6.031   5.334  0.4217 -0.2530  0.0722
20024SOL    HW172131   7.697   5.955   5.390 -0.9147  0.5641  0.4477
20024SOL    HW272132   7.675   6.113   5.354  0.8887  0.4361 -1.3577
20025SOL     OW72133   8.505   5.088   4.666 -0.3863 -0.2073 -0.3423
20025SOL    HW172134   8.516   5.031   4.585  2.3236  0.7554 -0.7119
20025SOL    HW272135   8.593   5.097   4.713 -1.5803  0.5369  1.8537
20026SOL     OW72136   0.722   7.812   6.823 -0.3701  0.8553  0.3526
20026SOL    HW172137   0.702   7.875   6.749 -1.3348  2.6796  2.1133
20026SOL    HW272138   0.821   7.804   6.834 -0.2383  1.7362 -0.1512
20027SOL     OW72139   6.771   4.426   1.068  0.6108  0.6143  0.5222
20027SOL    HW172140   6.724   4.512   1.085  0.0358  0.1391  1.3730
20027SOL    HW272141   6.785   4.377   1.155 -0.3956 -0.8265 -0.1066
20028SOL     OW72142   2.633   9.681   4.301  0.3266 -0.3357  0.2814
20028SOL    HW172143   2.580   9.765   4.307  0.2624 -0.4482  1.4709
20028SOL    HW272144   2.731   9.703   4.305  0.3968 -0.1129 -2.1111
20029SOL     OW72145   3.216   3.872   7.660  0.4262  0.1957  0.1442
20029SOL    HW172146   3.166   3.877   7.574 -0.7390 -1.4142  0.6876
20029SOL    HW272147   3.295   3.811   7.649 -0.5391 -1.1754  0.5547
20030SOL     OW72148   3.792   5.959   1.200  0.0837  0.2427 -0.3979
20030SOL    HW172149   3.869   5.985   1.258  0.3417  1.4930 -1.2943
20030SOL    HW272150   3.731   6.037   1.187 -0.1829 -0.1383 -1.4928
20031SOL     OW72151   7.649   8.930   6.880 -0.0398  0.1049  0.5003
20031SOL    HW172152   7.739   8.893   6.902 -0.3121  0.6683  2.7222
20031SOL    HW272153   7.587   8.856   6.855  0.1312 -0.6838  2.3205
20032SOL     OW72154   0.112   2.278   3.135  0.1635  0.3589  1.2740
20032SOL    HW172155   0.023   2.309   3.168 -0.3179 -0.3346  0.6308
20032SOL    HW272156   0.136   2.192   3.179 -0.3901 -0.4665 -0.0209
20033SOL     OW72157   4.861   6.097   0.734  0.3526 -0.0138 -0.3004
20033SOL    HW172158   4.818   6.007   0.741  0.6652 -0.1117  0.4374
20033SOL    HW272159   4.956   6.091   0.766  0.1774  0.7161  0.3620
20034SOL     OW72160   1.694   4.073   9.306 -0.3692  0.5602  0.5626
20034SOL    HW172161   1.713   4.133   9.229  0.2875  0.4212  0.6111
20034SOL    HW272162   1.726   4.116   9.391 -0.7556  0.5535  0.7128
20035SOL     OW72163   0.506   2.625   8.326  0.7054  0.2245 -0.0891
20035SOL    HW172164   0.441   2.588   8.259  0.0782  1.4487 -0.1758
20035SOL    HW272165   0.471   2.610   8.418  1.0666 -0.5266 -0.0706
20036SOL     OW72166   2.535   6.198   9.342  0.3097 -0.2489 -1.0223
20036SOL    HW172167   2.611   6.136   9.358 -1.1832 -1.2398  2.8018
20036SOL    HW272168   2.569   6.292   9.340  1.5588 -0.5802  1.9250
20037SOL     OW72169   0.275   1.012   0.135  0.2299  0.1563 -0.1021
20037SOL    HW172170   0.194   1.064   0.107 -1.8191 -1.2084  2.8672
20037SOL    HW272171   0.333   1.069   0.193 -0.3993  0.1432  0.5612
20038SOL     OW72172   7.456   0.552   2.484  0.5218 -0.2140  0.0616
20038SOL    HW172173   7.472   0.525   2.389 -1.6465 -1.3048 -0.0118
20038SOL    HW272174   7.475   0.650   2.494  1.3466 -0.2155 -1.3514
20039SOL     OW72175   2.301   6.549   1.921 -0.2907 -0.5906  0.4211
20039SOL    HW172176   2.260   6.625   1.973 -1.1027  0.5273 -1.7770
20039SOL    HW272177   2.306   6.574   1.824  2.6303 -2.0109  0.1509
20040SOL     OW72178   3.521   4.397   8.071  0.3842  0.1681  0.2967
20040SOL    HW172179   3.560   4.419   7.982 -0.1950 -0.0089 -0.0005
20040SOL    HW272180   3.592   4.403   8.141  1.3260 -1.7381 -0.4696
20041SOL     OW72181   4.772   6.192   8.674 -0.6060 -0.0190  0.2333
20041SOL    HW172182   4.809   6.104   8.702 -0.5528  0.2526  1.0397
20041SOL    HW272183   4.829   6.231   8.602 -0.3694 -0.4302  0.1935
20042SOL     OW72184   1.114   6.561   1.449  0.2253  0.6080  0.2368
20042SOL    HW172185   1.196   6.604   1.487  1.5779  0.2200 -2.1655
20042SOL    HW272186   1.093   6.600   1.360 -1.9361  0.3298  0.5866
20043SOL     OW72187   4.070   3.237  10.055 -0.2074 -0.1221 -0.1235
20043SOL    HW172188   4.140   3.292  10.010 -0.3742  0.9817  0.9467
20043SOL    HW272189   4.009   3.297  10.107  0.4512 -1.4179  2.2172
20044SOL     OW72190   7.416   2.918   0.569 -0.2023 -0.2497  0.5817
20044SOL    HW172191   7.465   2.916   0.482  0.6535 -1.9390  1.0814
20044SOL    HW272192   7.349   2.845   0.571 -1.5361  0.9488  0.6208
20045SOL     OW72193   2.225   4.141   1.324  0.0637  0.3135 -0.3551
20045SOL    HW172194   2.257   4.187   1.241 -0.6610 -0.6240 -1.1697
20045SOL    HW272195   2.203   4.210   1.394  2.8106  1.0034 -0.1286
20046SOL     OW72196   7.273   7.494   2.993  0.3968  0.5536 -0.8921
20046SOL    HW172197   7.274   7.406   3.040 -3.3384  1.1302  0.4286
20046SOL    HW272198   7.261   7.480   2.895  1.3604 -0.4310 -0.8748
20047SOL     OW72199   2.916   1.291   9.779 -0.0032 -0.2779  0.3748
20047SOL    HW172200   2.911   1.329   9.872 -2.9948  0.7325 -0.1346
20047SOL    HW272201   2.830   1.243   9.759  0.2241  0.3757 -2.2303
20048SOL     OW72202   3.126   4.834   8.092  0.5922  0.4572 -0.2881
20048SOL    HW172203   3.201   4.780   8.053 -0.5530 -0.6198 -1.0102
20048SOL    HW272204   3.116   4.919   8.040 -2.2774 -1.8867 -3.8077
20049SOL     OW72205   2.483   6.073   1.218 -0.2522 -0.6682 -0.7367
20049SOL    HW172206   2.482   5.973   1.219  0.5705 -0.6810  1.5289
20049SOL    HW272207   2.529   6.107   1.300  1.3365  1.5648 -2.4856
20050SOL     OW72208   1.830   5.569   8.563  0.4914  0.5459 -0.1825
20050SOL    HW172209   1.900   5.599   8.498  1.3741  0.2203  0.6260
20050SOL    HW272210   1.753   5.531   8.512  1.5704 -0.5620 -1.0140
20051SOL     OW72211   3.931   2.333   8.387  0.2001 -0.1875  0.1866
20051SOL    HW172212   3.889   2.415   8.347 -1.0952 -1.6945 -1.6802
20051SOL    HW272213   4.022   2.319   8.348  0.2702  0.1595  0.2285
20052SOL     OW72214   0.068   9.256   2.248 -0.7570  0.2822 -0.1910
20052SOL    HW172215   0.091   9.238   2.152 -2.4283  0.0418 -0.5567
20052SOL    HW272216  -0.025   9.291   2.254 -0.6722  0.2818  1.3671
20053SOL     OW72217   2.123   9.812   9.784  0.3881  0.2500 -0.0243
20053SOL    HW172218   2.185   9.741   9.749  0.7285  1.1688 -1.2994
20053SOL    HW272219   2.068   9.848   9.710 -3.0983 -1.8833  1.3962
20054SOL     OW72220   3.510   7.312   9.183 -0.1468  0.6137  0.1303
20054SOL    HW172221   3.415   7.281   9.178  0.7848 -2.4945  1.1620
20054SOL    HW272222   3.555   7.295   9.095  0.2597 -0.5710  0.5727
20055SOL     OW72223   1.220   5.476   8.790  0.6395  0.4086  0.1606
20055SOL    HW172224   1.298   5.511   8.739 -0.5333  0.8689 -1.3524
20055SOL    HW272225   1.137   5.526   8.763 -0.8862 -2.7192 -1.2617
20056SOL     OW72226   1.282   5.315   5.835  0.6032  0.1127  0.4860
20056SOL    HW172227   1.262   5.235   5.778 -0.1130  0.2854  0.4897
20056SOL    HW272228   1.243   5.302   5.926  1.2613  0.0818  0.7695
20057SOL     OW72229   1.127   2.628   5.209 -0.1658  0.3766 -0.2025
20057SOL    HW172230   1.033   2.635   5.242 -0.1364  0.7393 -0.1929
20057SOL    HW272231   1.177   2.711   5.232  0.7289 -0.6242  1.5584
20058SOL     OW72232   8.372   2.189   5.073 -0.0798  0.0623 -0.1558
20058SOL    HW172233   8.316   2.149   5.001 -0.1806  0.6232 -0.3924
20058SOL    HW272234   8.454   2.133   5.087  0.2878  0.3253 -1.1898
20059SOL     OW72235   5.043   9.471   9.002  0.2449 -0.0583 -0.1179
20059SOL    HW172236   5.005   9.504   9.089 -1.0016 -0.8613 -0.3416
20059SOL    HW272237   5.074   9.377   9.014 -0.5364 -0.3915 -0.7153
20060SOL     OW72238   9.271   6.588   5.093  0.1170 -0.0169 -0.1602
20060SOL    HW172239   9.239   6.562   5.002 -2.4763 -1.6664  1.1684
20060SOL    HW272240   9.232   6.526   5.161  3.3701  0.0976  1.9466
20061SOL     OW72241   1.323   5.412   7.994  0.1156 -0.1523  0.3407
20061SOL    HW172242   1.328   5.314   7.976 -2.0293 -0.1591 -0.2823
20061SOL    HW272243   1.288   5.459   7.913 -0.2193  0.9604  1.1292
20062SOL     OW72244   4.109   5.733   3.713 -0.2926 -0.0182  0.0121
20062SOL    HW172245   4.089   5.756   3.808  1.9326 -0.2766  0.5776
20062SOL    HW272246   4.121   5.817   3.660  0.4762  0.1258  0.4162
20063SOL     OW72247   0.157   9.262   0.455 -0.1770 -0.5925 -0.6070
20063SOL    HW172248   0.195   9.173   0.479 -0.2094 -1.0503 -2.1990
20063SOL    HW272249   0.188   9.331   0.521  0.7380 -1.5614 -0.0168
20064SOL     OW72250   8.732   1.956   2.664  0.1891 -0.6692 -0.0845
20064SOL    HW172251   8.734   1.857   2.678  0.5194 -0.4495  1.5135
20064SOL    HW272252   8.813   1.985   2.614 -0.3610 -1.3190 -1.3558
20065SOL     OW72253   7.457   5.063   8.101  0.3922 -0.3212 -0.5437
20065SOL    HW172254   7.445   5.152   8.058  0.4520 -0.6564 -1.2605
20065SOL    HW272255   7.555   5.048   8.119  0.4326 -0.4548 -0.8773
20066SOL     OW72256   3.444   6.826   1.103 -0.0564 -0.1447 -0.3600
20066SOL    HW172257   3.466   6.903   1.043  0.8157  0.4296  0.6863
20066SOL    HW272258   3.362   6.846   1.156  0.4393  0.2701  0.2585
20067SOL     OW72259   7.451   0.443   7.930 -0.2980 -0.3130 -0.2455
20067SOL    HW172260   7.401   0.397   7.857  1.9686 -0.1017 -2.0152
20067SOL    HW272261   7.438   0.541   7.923 -0.5317 -0.3306 -0.0364
20068SOL     OW72262   3.605   3.515   7.723 -0.1602 -0.3283 -0.0131
20068SOL    HW172263   3.645   3.587   7.781 -0.5307 -1.3319  1.5327
20068SOL    HW272264   3.518   3.548   7.686 -1.6433 -0.8653  2.8194
20069SOL     OW72265   5.752   8.543   2.636  0.6083  0.0489  0.1494
20069SOL    HW172266   5.684   8.616   2.641  0.1263 -0.3395 -0.6870
20069SOL    HW272267   5.841   8.578   2.665  0.1075  0.6173  1.0414
20070SOL     OW72268   6.397   1.580   9.652 -0.3506 -0.9219  0.1372
20070SOL    HW172269   6.496   1.571   9.668 -0.2053 -0.4642 -0.4741
20070SOL    HW272270   6.347   1.549   9.733  0.3251  0.0732  0.9535
20071SOL     OW72271   4.503   7.966   4.560 -0.0263 -0.2812  0.5485
20071SOL    HW172272   4.412   8.001   4.582 -0.4419 -0.5357 -0.6904
20071SOL    HW272273   4.535   7.906   4.633 -0.7316  0.0472  1.1254
20072SOL     OW72274   9.491   1.883   5.403  0.0106 -0.2873  0.7274
20072SOL    HW172275   9.409   1.906   5.349  0.1091  0.4990  0.9005
20072SOL    HW272276   9.499   1.784   5.411 -0.8768 -0.3732  0.6257
20073SOL     OW72277   1.467   6.904   3.987 -0.0525 -0.2970  0.1568
20073SOL    HW172278   1.425   6.932   4.074  2.0937 -1.6875  1.6773
20073SOL    HW272279   1.536   6.835   4.004 -0.1257 -1.1551 -2.7879
20074SOL     OW72280   2.564   5.896   7.902 -0.2658  0.2355 -0.1545
20074SOL    HW172281   2.654   5.851   7.908 -0.0112  0.6390 -0.9216
20074SOL    HW272282   2.565   5.963   7.828 -1.0371  0.6247  0.1808
20075SOL     OW72283   6.787   0.818   2.368  0.4390  0.0953 -0.2203
20075SOL    HW172284   6.784   0.840   2.466 -1.0911  0.6833 -0.3804
20075SOL    HW272285   6.819   0.724   2.356  0.8122  0.0765  0.8337
20076SOL     OW72286   3.696   9.479   0.975  0.1068  0.3906 -0.5729
20076SOL    HW172287   3.681   9.466   0.877 -1.9678  0.5294 -0.2876
20076SOL    HW272288   3.751   9.561   0.990 -0.2429  0.8167 -1.5789
20077SOL     OW72289   4.607   8.218   4.050 -0.6698  0.6015 -0.0181
20077SOL    HW172290   4.545   8.167   4.110 -0.5037  0.4270  0.0045
20077SOL    HW272291   4.693   8.236   4.098 -0.1113 -0.5041 -0.5824
20078SOL     OW72292   3.144   7.094   7.727 -0.8242  0.2993  0.4524
20078SOL    HW172293   3.094   7.095   7.641 -0.5027  0.7963  0.2660
20078SOL    HW272294   3.166   7.188   7.753  0.5289  0.0550  0.2338
20079SOL     OW72295   1.701   1.301   3.382  0.0947  0.2813 -0.0389
20079SOL    HW172296   1.616   1.353   3.381  0.8338  1.5479  1.3689
20079SOL    HW272297   1.713   1.257   3.471  0.2662 -1.0048 -0.6758
20080SOL     OW72298   1.517   8.670   2.879  0.1492  0.2108 -0.5921
20080SOL    HW172299   1.473   8.729   2.946 -0.4086 -2.7125  1.7048
20080SOL    HW272300   1.600   8.715   2.845  0.5006  1.7335  2.1316
20081SOL     OW72301   5.397   9.384   6.287  0.0467  0.1457 -0.3143
20081SOL    HW172302   5.442   9.447   6.224 -1.3424 -0.3948 -1.8700
20081SOL    HW272303   5.437   9.395   6.379  2.6976  0.3268 -1.4408
20082SOL     OW72304   0.962   6.016   3.908  0.3557 -0.0336 -0.2829
20082SOL    HW172305   0.945   5.977   3.998  0.1521  0.2093 -0.2153
20082SOL    HW272306   0.940   5.948   3.837  0.4262 -0.1904 -0.1553
20083SOL     OW72307   2.347   9.869   0.846  0.3120  0.6696 -0.4527
20083SOL    HW172308   2.249   9.891   0.843 -0.0332 -0.8201 -0.5007
20083SOL    HW272309   2.361   9.776   0.812  1.6542  0.5431  0.4289
20084SOL     OW72310   8.295   0.438   2.772  0.6457 -0.6409 -0.2457
20084SOL    HW172311   8.233   0.512   2.799  1.5256  0.5826 -1.5036
20084SOL    HW272312   8.334   0.459   2.682  1.5786 -2.2191 -0.2173
20085SOL     OW72313   2.289   3.671   7.535 -0.0811 -0.1429  0.1635
20085SOL    HW172314   2.353   3.737   7.495 -0.7023  1.2030  1.3559
20085SOL    HW272315   2.228   3.637   7.464  0.0648  0.7705 -0.4066
20086SOL     OW72316   1.627   0.462   1.884  0.2707  0.0059 -0.4407
20086SOL    HW172317   1.643   0.372   1.925 -0.6279 -0.6884 -1.6048
20086SOL    HW272318   1.578   0.520   1.949  1.6884 -0.0011  0.6849
20087SOL     OW72319   0.693   9.461   3.608 -0.1994 -0.5010  0.3575
20087SOL    HW172320   0.751   9.501   3.536 -0.2025 -0.5576  0.3237
20087SOL    HW272321   0.725   9.491   3.697  0.9028 -1.8447  0.4355
20088SOL     OW72322   8.009   9.265   4.271  0.1928 -0.5090  0.4718
20088SOL    HW172323   8.048   9.286   4.181  2.2728 -0.0557  1.4254
20088SOL    HW272324   7.993   9.167   4.279 -0.4338 -0.4909 -0.5537
20089SOL     OW72325   9.269   6.197   0.822 -0.0432  0.1210  0.1969
20089SOL    HW172326   9.369   6.195   0.818 -0.0581  0.9970 -1.3117
20089SOL    HW272327   9.235   6.265   0.756 -1.6568 -0.8546 -0.0033
20090SOL     OW72328   8.543   7.858   1.601  0.0915 -0.0358 -0.2086
20090SOL    HW172329   8.631   7.904   1.601 -0.5656  1.2939 -1.5754
20090SOL    HW272330   8.555   7.763   1.573  1.2133 -0.1370  0.6083
20091SOL     OW72331   3.057   9.924   2.919 -0.1636  0.1081  0.4921
20091SOL    HW172332   3.070  10.021   2.939  1.0771  0.3394 -1.4072
20091SOL    HW272333   3.141   9.874   2.939 -0.3977 -0.3841  0.2686
20092SOL     OW72334   3.164   6.225   9.267 -0.1127 -0.2676  0.0132
20092SOL    HW172335   3.072   6.203   9.234 -1.4498  3.2050  1.1281
20092SOL    HW272336   3.161   6.236   9.367  1.9391 -1.8978  0.2824
20093SOL     OW72337   7.693   9.705   5.389 -0.1683  0.2762  0.3498
20093SOL    HW172338   7.776   9.685   5.442  1.8012  1.2181 -2.2937
20093SOL    HW272339   7.666   9.800   5.405  0.7182  0.7129 -0.6773
20094SOL     OW72340   0.557   0.699   4.191  0.1290 -0.0782 -0.2318
20094SOL    HW172341   0.562   0.672   4.095 -0.3959 -0.1242 -0.2476
20094SOL    HW272342   0.646   0.685   4.235  0.0858 -1.0593 -0.4476
20095SOL     OW72343   9.705   4.513   0.913  0.1300 -0.3826 -0.1788
20095SOL    HW172344   9.646   4.512   0.994 -0.2763 -2.2132 -0.4681
20095SOL    HW272345   9.801   4.511   0.941 -0.0177 -1.4536  0.2637
20096SOL     OW72346   4.304   8.361   1.627 -0.4957  0.5277 -0.0209
20096SOL    HW172347   4.227   8.298   1.635 -0.9159  1.1480  0.8960
20096SOL    HW272348   4.275   8.453   1.652  0.3829  0.8906 -0.2994
20097SOL     OW72349   8.223   9.147   1.344  0.0179  0.3298 -0.0725
20097SOL    HW172350   8.272   9.065   1.374 -1.3379 -1.0574 -1.5400
20097SOL    HW272351   8.255   9.173   1.253 -0.0659  1.0143  0.0915
20098SOL     OW72352   9.817   5.148   3.928  0.1172 -0.9339 -0.3088
20098SOL    HW172353   9.885   5.199   3.979 -0.3765  1.1718 -1.6985
20098SOL    HW272354   9.863   5.078   3.872  1.0563 -0.1507 -0.5319
20099SOL     OW72355   0.386   1.726   8.460 -0.0436  0.0921 -0.1558
20099SOL    HW172356   0.482   1.728   8.487  0.8265  0.9275 -3.1592
20099SOL    HW272357   0.343   1.813   8.485 -0.3029 -0.6366  2.0465
20100SOL     OW72358   2.361   9.254   3.568 -0.9469 -0.0378  0.6441
20100SOL    HW172359   2.336   9.317   3.641 -2.0843  0.2978 -0.0392
20100SOL    HW272360   2.313   9.278   3.484  0.3822 -0.3981 -0.2466
20101SOL     OW72361   4.074   0.611   7.189 -0.3653 -0.6045 -0.3071
20101SOL    HW172362   4.146   0.549   7.157  1.7549  1.4989  0.2166
20101SOL    HW272363   4.095   0.704   7.160 -1.8144  0.3752  1.6524
20102SOL     OW72364   9.196   3.456  10.041  1.1466 -0.4572 -0.1913
20102SOL    HW172365   9.256   3.534  10.025 -1.0109  1.6515  1.6401
20102SOL    HW272366   9.126   3.480  10.109 -1.0820 -3.1783 -1.3822
20103SOL     OW72367   7.783   6.555   3.098 -0.0819  0.4098  0.0035
20103SOL    HW172368   7.694   6.552   3.143 -0.0988  0.4351 -0.0282
20103SOL    HW272369   7.771   6.577   3.002 -0.0812 -0.0865 -0.1139
20104SOL     OW72370   7.139   9.992   7.891 -0.0781  0.0619 -0.0157
20104SOL    HW172371   7.076  10.006   7.814 -0.1845  0.5313  0.1584
20104SOL    HW272372   7.089  10.000   7.977  0.1235 -0.0510  0.1123
20105SOL     OW72373   2.378   8.489   2.138 -0.3895  0.1253 -0.2735
20105SOL    HW172374   2.470   8.472   2.104 -0.0919  0.5995  0.2835
20105SOL    HW272375   2.381   8.496   2.238 -1.3838 -2.2180 -0.0370
20106SOL     OW72376   7.890   3.887   9.045  0.0668 -0.3003 -0.1049
20106SOL    HW172377   7.865   3.798   9.083  1.7009 -0.4223  0.7370
20106SOL    HW272378   7.832   3.958   9.084 -1.5507 -1.0273 -1.1119
20107SOL     OW72379   9.478   6.969   5.009  0.1067 -0.0314  0.2329
20107SOL    HW172380   9.388   6.955   5.049 -0.5545 -0.1040 -1.2344
20107SOL    HW272381   9.535   6.888   5.025  0.1666  0.3297  1.8297
20108SOL     OW72382   0.572   5.169   2.176  0.3139  0.6226  0.1753
20108SOL    HW172383   0.599   5.241   2.112  1.2788 -0.7641 -1.0364
20108SOL    HW272384   0.538   5.090   2.124  1.3390 -0.6112  1.3401
20109SOL     OW72385   8.088   3.219   5.003  0.4543 -0.0797 -0.2458
20109SOL    HW172386   8.183   3.237   5.029  0.0684  0.7174  0.6303
20109SOL    HW272387   8.077   3.122   4.982  1.5498 -0.1041 -0.7365
20110SOL     OW72388   8.976   4.751   1.210  0.2228 -0.5486  0.2627
20110SOL    HW172389   8.915   4.803   1.151  0.4501 -1.6833 -1.0075
20110SOL    HW272390   8.972   4.787   1.303 -0.9144  0.6105 -0.2257
20111SOL     OW72391   8.566   7.989   9.197  0.0230 -0.1239  0.0289
20111SOL    HW172392   8.571   8.079   9.239 -0.3146  0.8751 -2.0311
20111SOL    HW272393   8.493   7.987   9.129  0.7331 -1.6145 -0.7280
20112SOL     OW72394   7.868   6.560   3.966 -0.1787  0.1720  0.0813
20112SOL    HW172395   7.823   6.492   4.024 -0.2987  1.0359  1.0033
20112SOL    HW272396   7.860   6.532   3.870  1.7932 -2.3174  0.5808
20113SOL     OW72397   1.733   9.853   1.962 -0.0906  1.1629  0.4143
20113SOL    HW172398   1.736   9.787   2.037 -2.9331  0.2777 -0.2197
20113SOL    HW272399   1.713   9.807   1.876  0.5654  2.5168 -0.4928
20114SOL     OW72400   2.044   5.763   6.276  0.3451 -0.2831  0.2756
20114SOL    HW172401   2.053   5.863   6.272  2.3068 -0.3491  2.1948
20114SOL    HW272402   2.025   5.735   6.370  0.4888 -1.7670 -0.1275
20115SOL     OW72403   9.048   3.855   0.722  0.0513 -0.2624  0.0668
20115SOL    HW172404   9.031   3.942   0.767 -0.7411 -1.1135  1.4540
20115SOL    HW272405   9.027   3.863   0.624  0.1068  1.1288  0.1675
20116SOL     OW72406   7.334   0.934   9.264  0.1372  0.2405 -0.5994
20116SOL    HW172407   7.347   1.030   9.289 -0.1885  0.2568 -0.4928
20116SOL    HW272408   7.419   0.884   9.280  0.4791  0.6241 -1.1707
20117SOL     OW72409   3.382   6.674   3.098  0.5662 -0.0377 -0.1299
20117SOL    HW172410   3.300   6.620   3.078 -0.4409  1.8267 -1.1685
20117SOL    HW272411   3.445   6.667   3.021  1.5037 -1.6784  0.7792
20118SOL     OW72412   3.504   1.285   1.069  0.3594 -0.3542  0.0354
20118SOL    HW172413   3.413   1.308   1.105  0.3692  0.3717 -0.4069
20118SOL    HW272414   3.494   1.245   0.978  0.5524  0.6405 -0.4240
20119SOL     OW72415   9.644   4.831   9.241 -0.0343 -0.4478  0.4188
20119SOL    HW172416   9.667   4.850   9.146  0.9412 -0.5467  0.6315
20119SOL    HW272417   9.722   4.788   9.287 -0.4672 -0.3258  1.2910
20120SOL     OW72418   1.109   6.189   3.247  0.0320 -0.1473  0.7373
20120SOL    HW172419   1.146   6.119   3.186  1.1727  1.0643 -0.0029
20120SOL    HW272420   1.163   6.194   3.330 -0.0853 -0.1937  0.8161
20121SOL     OW72421   9.597   4.464   5.901 -0.5563  0.5434  0.0921
20121SOL    HW172422   9.679   4.480   5.846 -0.8210 -1.4518 -0.9517
20121SOL    HW272423   9.609   4.380   5.954 -1.1553  1.2980  1.4310
20122SOL     OW72424   5.204   1.448   8.655  0.4121 -0.9501  0.5773
20122SOL    HW172425   5.190   1.370   8.594  0.7754 -0.5631 -0.0081
20122SOL    HW272426   5.200   1.417   8.750 -2.4845 -1.1794  0.4131
20123SOL     OW72427   1.792   0.063   4.910  0.0228  0.4361 -0.2591
20123SOL    HW172428   1.787   0.155   4.870  0.5264  0.3544 -0.5063
20123SOL    HW272429   1.880   0.051   4.956  0.1583 -0.0976 -0.6563
20124SOL     OW72430   0.734   7.765   1.281  0.0876  0.4646 -0.3597
20124SOL    HW172431   0.707   7.723   1.194  0.4459 -0.0020 -0.2450
20124SOL    HW272432   0.822   7.812   1.269 -0.7657  2.0054 -0.7387
20125SOL     OW72433   0.065   0.605   9.079 -0.5328  0.1476  0.2589
20125SOL    HW172434   0.147   0.652   9.046 -1.1357  0.8933 -0.2065
20125SOL    HW272435  -0.016   0.647   9.038 -1.1581 -0.4854  0.8285
20126SOL     OW72436   3.641   7.511   4.057 -0.2208 -0.5642 -0.6248
20126SOL    HW172437   3.620   7.607   4.071 -0.8089 -0.6789 -0.7005
20126SOL    HW272438   3.594   7.478   3.975  0.6094 -0.7113 -1.0451
20127SOL     OW72439   1.621   7.483   4.584  0.0639 -0.1709 -0.2759
20127SOL    HW172440   1.675   7.447   4.508 -0.1317  0.1640 -0.5704
20127SOL    HW272441   1.631   7.422   4.663  0.8695 -0.1138 -0.3288
20128SOL     OW72442   5.461   5.978   8.675  0.1362  0.5114 -0.0169
20128SOL    HW172443   5.474   5.915   8.599 -0.9581 -1.7153  1.6048
20128SOL    HW272444   5.388   6.042   8.653 -1.0224 -0.9038 -0.3679
20129SOL     OW72445   6.186   5.804   9.226 -0.0935  0.2144  0.4004
20129SOL    HW172446   6.187   5.834   9.321  0.4826  0.1333  0.4217
20129SOL    HW272447   6.101   5.834   9.182 -1.7924 -2.3557  1.7617
20130SOL     OW72448   9.726   0.768   9.941 -0.3288  0.5650  0.3300
20130SOL    HW172449   9.799   0.715   9.985  0.8977  1.2636 -0.8309
20130SOL    HW272450   9.755   0.792   9.848 -1.8185  1.3364  0.0665
20131SOL     OW72451   7.639   5.587   8.025 -0.4624 -0.3853  0.3867
20131SOL    HW172452   7.687   5.674   8.016 -0.1760 -0.6477 -0.6446
20131SOL    HW272453   7.680   5.534   8.099 -0.1976  0.0730  0.5669
20132SOL     OW72454   4.333   1.003   4.832  0.4982 -0.4199  0.0984
20132SOL    HW172455   4.242   1.011   4.872 -0.0392  0.9254 -1.3725
20132SOL    HW272456   4.363   1.092   4.799  2.0337 -1.0109 -0.1400
20133SOL     OW72457   2.640   9.627   9.962  0.2584 -0.5306  0.3247
20133SOL    HW172458   2.737   9.612   9.943  0.0652 -0.4936 -0.7072
20133SOL    HW272459   2.585   9.564   9.907 -0.3339 -0.0713  0.3878
20134SOL     OW72460   0.931   7.234   5.488  0.2311 -1.1386  0.1427
20134SOL    HW172461   0.914   7.333   5.478 -1.3145 -1.4997 -1.1325
20134SOL    HW272462   0.885   7.201   5.570  1.8332 -0.5700  1.2827
20135SOL     OW72463   7.288   6.417   7.558  0.1914 -0.6553  0.3222
20135SOL    HW172464   7.372   6.440   7.605 -0.0571  0.0156  0.4377
20135SOL    HW272465   7.280   6.472   7.475  0.4586 -1.5800 -0.3268
20136SOL     OW72466   5.186   8.912   1.970  0.1272  0.1723  0.5262
20136SOL    HW172467   5.208   8.978   2.042  1.2060  1.1326 -0.6661
20136SOL    HW272468   5.094   8.932   1.934 -0.3085 -0.1521  1.4336
20137SOL     OW72469   3.285   7.795   6.150  0.6237 -0.2511  0.5309
20137SOL    HW172470   3.357   7.864   6.141 -0.4714  0.7862 -0.3970
20137SOL    HW272471   3.266   7.754   6.061 -1.1580  0.7465  0.4259
20138SOL     OW72472   2.500   7.587   4.164  0.0648  0.2453  0.4534
20138SOL    HW172473   2.501   7.654   4.089  1.4923  0.8306  0.9629
20138SOL    HW272474   2.490   7.495   4.126 -0.5340  0.6422 -0.3633
20139SOL     OW72475   2.897   1.023   3.020 -1.1902 -0.1223  0.7422
20139SOL    HW172476   2.867   1.113   2.989 -0.0630  0.4979  1.4137
20139SOL    HW272477   2.919   0.966   2.941 -0.9102  0.5495  0.3257
20140SOL     OW72478   2.663   2.773   3.968 -0.0328  0.4842  0.0416
20140SOL    HW172479   2.599   2.849   3.972 -0.8465 -0.2249  0.8052
20140SOL    HW272480   2.748   2.798   4.014  0.0501  1.2534 -0.5319
20141SOL     OW72481   0.402   9.519   1.034 -0.4595 -0.2763  0.1378
20141SOL    HW172482   0.388   9.572   1.118  0.6927 -1.5944  1.1894
20141SOL    HW272483   0.500   9.517   1.013 -0.6359 -0.8489 -0.6437
20142SOL     OW72484   7.195   8.631   8.502 -0.1995 -0.0937 -0.2271
20142SOL    HW172485   7.258   8.660   8.430  0.9635  1.2260  1.2663
20142SOL    HW272486   7.243   8.572   8.567 -1.1403 -1.0031 -0.3453
20143SOL     OW72487   7.897   9.389   1.310  0.0612 -0.0572 -0.0120
20143SOL    HW172488   7.943   9.325   1.371  0.1702 -0.6273 -0.6908
20143SOL    HW272489   7.802   9.401   1.340  0.3434  0.2925  0.7506
20144SOL     OW72490   1.111   3.809   5.589  0.3974 -0.2815 -0.6685
20144SOL    HW172491   1.055   3.794   5.508  1.2224  0.6175 -1.4255
20144SOL    HW272492   1.147   3.903   5.588  1.3602 -0.6309  0.1441
20145SOL     OW72493   3.187   0.937   3.041  0.4317 -0.0631 -0.6641
20145SOL    HW172494   3.179   0.838   3.053  1.4322  0.0145  0.7053
20145SOL    HW272495   3.095   0.977   3.045 -0.0816 -1.0073 -2.1516
20146SOL     OW72496   1.198   4.567   3.726 -0.5154  0.4154  0.3246
20146SOL    HW172497   1.125   4.499   3.726 -1.1591  1.1011  0.0657
20146SOL    HW272498   1.210   4.604   3.818 -1.2815  1.1417  0.1327
20147SOL     OW72499   3.517   9.031   8.428  0.3025 -0.0342  0.2413
20147SOL    HW172500   3.580   9.057   8.501  1.3855 -0.8419 -0.3865
20147SOL    HW272501   3.460   8.955   8.458  0.0316  0.3215  0.6142
20148SOL     OW72502   9.495   8.359   0.811 -0.3373 -0.0417 -0.0378
20148SOL    HW172503   9.552   8.282   0.840  0.7085  1.1767  1.2120
20148SOL    HW272504   9.544   8.411   0.741  0.1800  1.1314  1.1927
20149SOL     OW72505   2.670   0.165   5.810 -0.0687  0.0518 -0.6167
20149SOL    HW172506   2.576   0.166   5.843  0.4774  0.2788  0.9858
20149SOL    HW272507   2.700   0.071   5.797 -0.0993 -0.0559  0.0988
20150SOL     OW72508   3.524   7.989   9.445  0.0158  0.1558 -0.0038
20150SOL    HW172509   3.534   8.035   9.533  0.2684  3.5828 -1.7746
20150SOL    HW272510   3.436   7.941   9.442 -0.6121  1.1804  1.5636
20151SOL     OW72511   3.068   8.916   1.490 -0.4084 -0.0966  0.1594
20151SOL    HW172512   3.001   8.981   1.527  0.6127 -0.4982  2.8635
20151SOL    HW272513   3.159   8.957   1.494  0.4406 -2.0975  3.1674
20152SOL     OW72514   8.702   0.262   7.624  0.0864 -0.2248  0.5666
20152SOL    HW172515   8.794   0.225   7.634  0.3792  0.3210 -0.0910
20152SOL    HW272516   8.690   0.339   7.687  0.0559 -0.3376  0.6989
20153SOL     OW72517   5.186   5.288   1.612  0.0458 -0.1162 -0.3863
20153SOL    HW172518   5.203   5.200   1.657 -2.3908 -1.2691 -1.5934
20153SOL    HW272519   5.125   5.343   1.668 -1.9560 -1.0245 -1.6362
20154SOL     OW72520   2.777   3.797   8.620  0.0659  0.6496 -0.3351
20154SOL    HW172521   2.750   3.892   8.636  0.1595  0.4643  0.9444
20154SOL    HW272522   2.869   3.782   8.657 -0.6602 -0.4072  1.0666
20155SOL     OW72523   8.261   8.898   5.795  0.1587  0.0927 -0.4762
20155SOL    HW172524   8.255   8.833   5.720  0.1817  0.8046 -1.0928
20155SOL    HW272525   8.280   8.848   5.880 -0.6336 -0.7803 -0.8074
20156SOL     OW72526   8.648   5.188   4.012  0.1618 -0.4196  0.3137
20156SOL    HW172527   8.677   5.166   3.919  1.4754 -0.3726  0.6985
20156SOL    HW272528   8.548   5.196   4.015 -0.0811 -2.6098 -0.6203
20157SOL     OW72529   2.597   6.093   0.312  0.9228 -0.7030  0.4907
20157SOL    HW172530   2.601   6.151   0.394  2.3511 -1.1627  0.7669
20157SOL    HW272531   2.690   6.077   0.279  0.4107 -1.3038 -0.6766
20158SOL     OW72532   7.154   7.627   3.847 -0.0640 -0.0931  0.5403
20158SOL    HW172533   7.233   7.614   3.907 -0.1833  0.6528  0.8725
20158SOL    HW272534   7.098   7.702   3.883  0.3141  0.9229 -0.9764
20159SOL     OW72535   8.120   3.684   1.898 -0.4427  0.5769  0.3266
20159SOL    HW172536   8.037   3.681   1.953 -0.0209  2.9058  1.1634
20159SOL    HW272537   8.185   3.747   1.940  1.2879 -0.3198 -0.9503
20160SOL     OW72538   0.605   1.725   4.982  0.2455 -0.1758  0.3689
20160SOL    HW172539   0.550   1.808   4.995 -0.7277 -0.6511 -0.5544
20160SOL    HW272540   0.702   1.746   4.994 -0.0665  0.9158  0.9674
20161SOL     OW72541   2.169   9.243   4.927 -0.1462 -0.0986 -0.0052
20161SOL    HW172542   2.165   9.302   4.847 -0.4655  2.5160  1.8935
20161SOL    HW272543   2.086   9.188   4.932  0.8184 -1.9466 -2.6198
20162SOL     OW72544   1.144   0.323   7.134 -0.4348  0.2096  0.0565
20162SOL    HW172545   1.083   0.392   7.097 -1.1784 -0.4203  0.1012
20162SOL    HW272546   1.203   0.364   7.204 -0.6021  0.8800 -0.1985
20163SOL     OW72547   1.037   7.375   1.446  0.7458  0.8174  0.1653
20163SOL    HW172548   1.106   7.304   1.433  1.4078  1.4312  0.2979
20163SOL    HW272549   1.013   7.380   1.544 -1.5237 -1.2727 -0.2220
20164SOL     OW72550   9.434   1.966   3.925  0.0336  0.5228 -0.6203
20164SOL    HW172551   9.433   1.871   3.955 -0.4791  0.9360  0.7155
20164SOL    HW272552   9.499   1.977   3.849  1.2295 -0.5883  0.2198
20165SOL     OW72553   3.474   3.862   6.299 -0.0719 -0.4067 -0.0286
20165SOL    HW172554   3.538   3.919   6.246  0.7917 -0.5073  0.8841
20165SOL    HW272555   3.519   3.776   6.321  0.0354  0.1361  1.9419
20166SOL     OW72556   5.316   3.249   9.307 -0.7403  0.1715 -0.0000
20166SOL    HW172557   5.217   3.253   9.296 -0.7311 -2.8044 -1.5973
20166SOL    HW272558   5.341   3.175   9.369  0.4414  2.1140  1.9343
20167SOL     OW72559   8.074   8.908   6.766  0.1321  0.1818 -0.4466
20167SOL    HW172560   8.070   8.997   6.812 -1.6348 -0.5334  0.8023
20167SOL    HW272561   8.004   8.847   6.803  1.4649 -1.8286 -1.1357
20168SOL     OW72562   8.636   5.925   8.950 -0.5444  0.0517  0.1063
20168SOL    HW172563   8.718   5.930   8.893 -1.1897  0.2009 -0.8111
20168SOL    HW272564   8.600   5.831   8.949 -0.7576  0.1343 -0.0240
20169SOL     OW72565   8.032   6.500   5.477 -0.5376  0.0011  0.4957
20169SOL    HW172566   8.057   6.594   5.500 -2.2090  0.0254  2.3556
20169SOL    HW272567   8.114   6.450   5.446  0.5341  1.7784  0.3816
20170SOL     OW72568   8.944   4.333   3.515  0.0556  0.2951 -0.6017
20170SOL    HW172569   8.945   4.328   3.415 -0.0224  0.7236 -0.6276
20170SOL    HW272570   8.858   4.297   3.550 -0.5178  1.4601 -0.7742
20171SOL     OW72571   4.935   5.468   8.412  0.3668  0.4004  0.0370
20171SOL    HW172572   4.917   5.514   8.499  0.2721  1.4507 -0.5307
20171SOL    HW272573   5.022   5.501   8.375  1.4681 -1.5937  0.7413
20172SOL     OW72574   8.733   6.626   1.897  0.5953 -0.0028 -0.1239
20172SOL    HW172575   8.744   6.715   1.940  1.3769  0.4759 -1.3048
20172SOL    HW272576   8.821   6.595   1.860  0.2101 -0.9914 -0.2349
20173SOL     OW72577   3.349   3.926   4.216 -0.1680  0.5208 -0.2490
20173SOL    HW172578   3.332   3.890   4.308  0.3632 -1.8294 -1.0258
20173SOL    HW272579   3.285   4.001   4.197 -0.2660  1.0459  2.0212
20174SOL     OW72580   9.949   2.891   9.986 -0.3060  0.4827 -0.0130
20174SOL    HW172581   9.914   2.948  10.060 -0.2100  0.1323  0.3042
20174SOL    HW272582   9.896   2.908   9.903 -0.8477  0.3799  0.3124
20175SOL     OW72583   0.696   0.130   1.378  0.5491  0.2491 -0.2179
20175SOL    HW172584   0.633   0.055   1.360  0.5202  0.6295 -1.8392
20175SOL    HW272585   0.656   0.194   1.444 -0.6637  0.3534 -1.0502
20176SOL     OW72586   2.811   7.549   3.532  0.2296  0.5166  0.8671
20176SOL    HW172587   2.894   7.531   3.479  0.0707  1.4520  0.2881
20176SOL    HW272588   2.833   7.610   3.608  0.3403 -0.3408  1.5201
20177SOL     OW72589   7.959   6.039   7.107  0.8703  0.1386 -0.4347
20177SOL    HW172590   7.896   5.980   7.057  2.1661  1.0940 -3.3171
20177SOL    HW272591   8.007   5.986   7.177  1.0478 -1.9123 -2.0666
20178SOL     OW72592   1.857   1.804   3.948  0.3509  0.2479  0.4231
20178SOL    HW172593   1.797   1.842   3.878 -1.0984  0.1140  1.5586
20178SOL    HW272594   1.951   1.830   3.929  0.3212 -1.7796 -2.8861
20179SOL     OW72595   2.928   6.434   2.453  0.2664 -0.4712  0.1530
20179SOL    HW172596   2.964   6.416   2.544  0.1536  0.4185  0.3849
20179SOL    HW272597   2.912   6.533   2.443 -0.6223 -0.6776 -0.4927
20180SOL     OW72598   7.964   3.537   8.561 -1.0468 -0.2419 -0.0977
20180SOL    HW172599   7.971   3.514   8.464 -1.3690 -0.1265 -0.1501
20180SOL    HW272600   7.998   3.461   8.616  0.8673  0.4282 -0.3418
20181SOL     OW72601   3.334   1.518   2.063 -0.1829  0.0562  0.1906
20181SOL    HW172602   3.327   1.617   2.057  0.4389  0.2201  1.7375
20181SOL    HW272603   3.426   1.489   2.037 -0.7977 -0.2656 -1.6786
20182SOL     OW72604   8.526   6.509   0.067  0.1069  0.3133  0.2984
20182SOL    HW172605   8.587   6.446   0.115 -0.3764 -0.0879  0.3957
20182SOL    HW272606   8.431   6.489   0.092 -0.0580  1.0197  0.2558
20183SOL     OW72607   0.505   0.457   2.774  0.5037 -0.0984 -0.6967
20183SOL    HW172608   0.409   0.449   2.799  0.0983  0.1018 -2.1613
20183SOL    HW272609   0.526   0.553   2.753  0.8181 -0.2739 -1.1912
20184SOL     OW72610   8.387   9.850   6.450 -0.0803  0.0369  0.5756
20184SOL    HW172611   8.413   9.798   6.369 -0.1866  0.3865  0.3148
20184SOL    HW272612   8.290   9.836   6.470  0.2535 -1.1282  1.4469
20185SOL     OW72613   1.791   6.955   6.172 -0.5376  0.1456  0.2850
20185SOL    HW172614   1.864   7.014   6.140  0.6329 -2.3863 -1.9293
20185SOL    HW272615   1.818   6.913   6.260 -0.2348  0.8227  0.5171
20186SOL     OW72616   0.610   7.788   7.233  0.4170 -0.4440  0.0918
20186SOL    HW172617   0.601   7.869   7.174 -0.8203 -2.4137 -2.5228
20186SOL    HW272618   0.704   7.779   7.263  1.0897  0.6344 -1.6087
20187SOL     OW72619   1.076   9.888   6.920  0.9355  0.2009 -0.0922
20187SOL    HW172620   0.999   9.829   6.899  0.7927  0.4545 -0.2906
20187SOL    HW272621   1.112   9.866   7.010  0.8963 -0.2006 -0.1765
20188SOL     OW72622   0.392   7.061   4.877  0.8722 -0.2772 -0.0937
20188SOL    HW172623   0.414   6.973   4.920 -1.6553 -2.0199 -2.2169
20188SOL    HW272624   0.399   7.052   4.777 -0.9053  1.5001 -0.4071
20189SOL     OW72625   1.697   1.967   5.978  0.3908  0.5546 -0.5132
20189SOL    HW172626   1.742   1.960   6.067  0.6922  1.9210 -0.5387
20189SOL    HW272627   1.603   1.998   5.990  0.2149  0.0648 -0.6236
20190SOL     OW72628   0.726   8.024   8.419  0.2257 -0.2822  0.4663
20190SOL    HW172629   0.727   8.041   8.518  4.3390  1.4232  0.2471
20190SOL    HW272630   0.752   8.108   8.371  0.2922 -1.6502 -1.9726
20191SOL     OW72631   3.452   5.936   9.650 -0.0519 -0.5353  0.0838
20191SOL    HW172632   3.397   5.972   9.725 -1.4370 -1.0728 -0.6518
20191SOL    HW272633   3.503   5.856   9.681 -1.8973 -1.7565  0.0255
20192SOL     OW72634   5.597   3.303   8.641  0.3176 -0.3424 -0.4834
20192SOL    HW172635   5.678   3.247   8.659  0.2824 -0.2680 -0.0893
20192SOL    HW272636   5.546   3.264   8.564  0.1990 -0.9564 -0.1028
20193SOL     OW72637   0.389   2.796   6.575 -0.6661  0.2364  0.0890
20193SOL    HW172638   0.296   2.787   6.537 -0.8870  0.3924  0.5876
20193SOL    HW272639   0.420   2.890   6.566 -0.2869  0.0389 -0.6905
20194SOL     OW72640   5.655   1.474   4.206  0.5449  0.0406 -0.7402
20194SOL    HW172641   5.565   1.504   4.239  0.9050  0.4409 -0.1022
20194SOL    HW272642   5.718   1.552   4.206  1.2497 -0.5151  0.0811
20195SOL     OW72643   4.530   2.429   9.979 -0.3814  0.1885 -0.4466
20195SOL    HW172644   4.624   2.393   9.976 -0.5653 -0.4303  0.8864
20195SOL    HW272645   4.524   2.501  10.048 -0.7210  0.7401 -1.0488
20196SOL     OW72646   1.116   4.416   2.975  0.8262  0.1876  0.3428
20196SOL    HW172647   1.185   4.470   2.928  1.7972 -1.4299 -0.1243
20196SOL    HW272648   1.031   4.419   2.924  1.5398 -0.6213 -0.9199
20197SOL     OW72649   1.553   1.300   2.284 -0.4334  0.1183  0.3247
20197SOL    HW172650   1.570   1.202   2.279 -1.1709  0.1057 -2.5000
20197SOL    HW272651   1.458   1.315   2.311 -0.6625  0.0217 -0.4057
20198SOL     OW72652   3.301   9.967   1.984  0.7293 -0.3180 -0.2169
20198SOL    HW172653   3.335  10.036   2.047  1.5249 -0.2527 -0.7185
20198SOL    HW272654   3.371   9.897   1.969 -0.1013 -1.3046  0.3754
20199SOL     OW72655   8.958   7.032   1.467  0.2743 -0.0875 -0.6422
20199SOL    HW172656   8.991   6.938   1.472  0.1064 -0.1102  0.0521
20199SOL    HW272657   8.877   7.042   1.525 -1.6152 -0.3217 -3.1187
20200SOL     OW72658   1.747   2.892   2.279  0.5095 -0.2600 -0.4407
20200SOL    HW172659   1.768   2.990   2.281  0.5453 -0.1871 -2.6646
20200SOL    HW272660   1.704   2.865   2.365  3.2856  1.0574  1.4491
20201SOL     OW72661   8.858   0.483   9.380  0.2943 -0.4691 -0.1325
20201SOL    HW172662   8.808   0.448   9.459  0.7535  0.7991  0.7393
20201SOL    HW272663   8.891   0.407   9.324 -1.1846 -1.3362  0.1711
20202SOL     OW72664   3.441   8.103   7.136  0.0001  0.3062 -0.7308
20202SOL    HW172665   3.444   8.011   7.176  1.1612  0.3426 -0.7081
20202SOL    HW272666   3.437   8.171   7.209  1.2827  0.3425 -0.6876
20203SOL     OW72667   7.488   4.149   3.840  0.1226  0.0517  0.5212
20203SOL    HW172668   7.486   4.083   3.915 -1.1994 -0.0707  0.3851
20203SOL    HW272669   7.518   4.238   3.875  0.1335 -0.1629  1.0640
20204SOL     OW72670   8.118   3.245   9.131  0.2412  0.0727 -0.1971
20204SOL    HW172671   8.164   3.157   9.136 -0.4331 -0.2298  0.5970
20204SOL    HW272672   8.185   3.315   9.104  0.8206 -0.6316 -0.6199
20205SOL     OW72673   8.765   6.262   9.153 -0.3200  0.0649 -0.7266
20205SOL    HW172674   8.697   6.311   9.100  0.0148  1.7436  0.3483
20205SOL    HW272675   8.844   6.322   9.169  0.1892 -0.8940  0.4145
20206SOL     OW72676   0.234   0.703   2.918 -0.4215 -1.2110  0.3732
20206SOL    HW172677   0.232   0.724   2.820 -0.2769  0.3089  0.6910
20206SOL    HW272678   0.304   0.758   2.963 -3.2850  1.1724  2.0413
20207SOL     OW72679   2.092   0.127   0.471 -0.6285  0.3869  0.3595
20207SOL    HW172680   2.148   0.049   0.499 -1.2519 -0.2137 -0.0477
20207SOL    HW272681   2.066   0.181   0.551  0.8706  0.9052  0.5106
20208SOL     OW72682   0.435   7.745   3.390  0.0095  0.4444 -0.9923
20208SOL    HW172683   0.373   7.818   3.361 -0.2390  1.5303  2.1445
20208SOL    HW272684   0.526   7.784   3.406 -0.2060  0.1554  1.0065
20209SOL     OW72685   2.377   6.446   8.917 -0.3203 -0.4658 -0.1090
20209SOL    HW172686   2.294   6.501   8.926 -0.0385  0.1439 -1.2512
20209SOL    HW272687   2.369   6.386   8.838 -0.3946 -1.6905  0.8053
20210SOL     OW72688   0.537   3.723   2.663 -0.0866 -0.1507  0.4690
20210SOL    HW172689   0.536   3.656   2.737 -0.3410  0.7379  1.2818
20210SOL    HW272690   0.561   3.813   2.699 -0.3302  0.3208 -0.5095
20211SOL     OW72691   9.014   3.106   4.537 -0.1461  0.5565  0.2315
20211SOL    HW172692   8.989   3.037   4.606 -1.3469  0.4212 -0.3215
20211SOL    HW272693   8.970   3.193   4.560 -0.4786  0.5333 -0.3009
20212SOL     OW72694   3.736   2.074   7.725 -0.1648 -0.5558 -0.3519
20212SOL    HW172695   3.651   2.114   7.689  0.2078  1.7723  1.2391
20212SOL    HW272696   3.740   1.977   7.700 -2.4422 -0.2939 -1.9516
20213SOL     OW72697   7.192   8.429   4.962  0.3898  0.4013  0.0538
20213SOL    HW172698   7.196   8.474   5.051 -0.8719  1.0240 -0.1917
20213SOL    HW272699   7.278   8.442   4.913 -0.2058  3.1375 -0.2982
20214SOL     OW72700   5.353   5.586   8.769 -0.4179  0.5151  0.4385
20214SOL    HW172701   5.282   5.654   8.751 -0.3832 -0.1226 -2.2931
20214SOL    HW272702   5.431   5.630   8.814  0.3950  2.7439 -2.9829
20215SOL     OW72703   3.395   3.655   7.614 -0.1608 -0.3381 -0.2037
20215SOL    HW172704   3.306   3.609   7.622 -0.2615  0.0737  1.2182
20215SOL    HW272705   3.425   3.652   7.519 -0.7647 -2.2115 -0.3683
20216SOL     OW72706   0.326   2.520   5.833  0.1749 -0.2185 -0.5225
20216SOL    HW172707   0.356   2.487   5.922  0.8402  0.0738 -0.6355
20216SOL    HW272708   0.253   2.587   5.844  1.1081  0.7466 -0.1409
20217SOL     OW72709   9.111   1.595   2.453  0.2168 -0.2903  0.2116
20217SOL    HW172710   9.019   1.634   2.454 -0.3866 -1.6856  2.2783
20217SOL    HW272711   9.123   1.539   2.372 -1.0870 -0.8612  0.4097
20218SOL     OW72712   1.159   2.456   2.538  0.0182 -0.2262  0.0858
20218SOL    HW172713   1.134   2.376   2.593 -1.7011 -0.3213 -0.8048
20218SOL    HW272714   1.184   2.531   2.599  1.0924 -1.2527  0.9389
20219SOL     OW72715   7.654   3.175   8.922 -0.2328 -0.3887 -0.5604
20219SOL    HW172716   7.713   3.245   8.961 -2.3983  2.0738 -1.5697
20219SOL    HW272717   7.589   3.144   8.991 -0.2756 -0.3012 -0.5623
20220SOL     OW72718   9.851   2.717   7.584 -0.1179  0.1196  0.6937
20220SOL    HW172719   9.944   2.684   7.601 -0.1395 -0.2182  0.1825
20220SOL    HW272720   9.818   2.768   7.663  0.4374  0.0853  0.9476
20221SOL     OW72721   1.131   5.704   5.174 -0.1468 -0.4293 -0.0270
20221SOL    HW172722   1.195   5.778   5.157  0.7653 -0.8110  1.6040
20221SOL    HW272723   1.058   5.736   5.234 -0.9359 -0.2732 -1.0575
20222SOL     OW72724   5.371   3.582   8.619  0.1231 -0.6982  0.7048
20222SOL    HW172725   5.320   3.662   8.589 -0.4325 -1.3606 -0.1421
20222SOL    HW272726   5.469   3.599   8.611  0.0162  0.1472  1.2017
20223SOL     OW72727   6.042   5.674   9.529  0.1224  0.0807 -0.1052
20223SOL    HW172728   6.052   5.716   9.619  0.0095 -2.3282  1.0664
20223SOL    HW272729   5.987   5.734   9.470 -0.0138  1.5600  1.4829
20224SOL     OW72730   3.342   4.596   0.341  0.2845 -0.3544 -0.3225
20224SOL    HW172731   3.337   4.576   0.243 -1.2045  0.5942 -0.4679
20224SOL    HW272732   3.411   4.667   0.357  3.0131 -2.9415 -0.2352
20225SOL     OW72733   7.910   9.092   5.602  0.6707 -0.0392 -0.2206
20225SOL    HW172734   7.954   9.014   5.559  0.1967  0.1940 -1.1392
20225SOL    HW272735   7.811   9.079   5.603  0.7874 -1.1646  3.0041
20226SOL     OW72736   9.237   4.954   1.662  0.0790  0.0718  0.3663
20226SOL    HW172737   9.201   4.875   1.711 -0.3869  0.3053  0.3997
20226SOL    HW272738   9.310   4.925   1.600  0.0372 -0.3521  0.5196
20227SOL     OW72739   9.775   7.436   1.959 -0.7588  0.1816  0.5818
20227SOL    HW172740   9.842   7.362   1.965  0.9055  1.7062  1.4189
20227SOL    HW272741   9.683   7.399   1.974  0.1350 -1.5274  2.0176
20228SOL     OW72742   9.599   4.475   3.389 -0.4405  0.4143 -0.2219
20228SOL    HW172743   9.680   4.488   3.446  0.1218  0.0819 -0.9463
20228SOL    HW272744   9.559   4.386   3.408 -0.1769  0.2491 -0.4419
20229SOL     OW72745   0.197   0.123   7.475 -0.4212 -0.7994 -0.3821
20229SOL    HW172746   0.098   0.122   7.487 -0.0233 -0.8300  3.2481
20229SOL    HW272747   0.223   0.050   7.411 -2.8240  0.1196 -2.4694
20230SOL     OW72748   6.975   0.450   7.112 -0.2909 -0.1775  0.4092
20230SOL    HW172749   6.993   0.517   7.040 -0.3225  1.1608  1.6367
20230SOL    HW272750   6.985   0.493   7.201  2.2638 -2.4673  1.2823
20231SOL     OW72751   8.170   4.310   1.199  0.4229 -0.6136  0.4623
20231SOL    HW172752   8.133   4.369   1.127  1.3135 -1.3449 -0.6052
20231SOL    HW272753   8.095   4.259   1.243 -0.0883 -0.3762 -0.1322
20232SOL     OW72754   0.022   8.589   8.831 -0.0840  0.5158 -0.0130
20232SOL    HW172755   0.037   8.583   8.930  0.0657  1.4909  0.0265
20232SOL    HW272756  -0.018   8.678   8.809 -0.0125  0.3440 -0.8458
20233SOL     OW72757   4.455   3.559   3.141  0.2484 -0.1998  0.1183
20233SOL    HW172758   4.359   3.586   3.141 -0.2901 -2.0983 -1.1503
20233SOL    HW272759   4.485   3.542   3.235 -0.4884  0.8697  0.5611
20234SOL     OW72760   6.341   9.216   6.527  0.1525  0.1220 -0.1147
20234SOL    HW172761   6.438   9.194   6.526  0.1617  0.1596 -0.0354
20234SOL    HW272762   6.317   9.262   6.442  0.0830 -0.4036 -0.3835
20235SOL     OW72763   6.311   1.173   6.543 -0.7225  0.3508  0.8886
20235SOL    HW172764   6.256   1.218   6.613 -1.8061  0.1711  0.1551
20235SOL    HW272765   6.366   1.241   6.494 -0.0971  0.4969  1.7793
20236SOL     OW72766   2.624   0.679   6.373 -0.4026 -0.1285 -0.8657
20236SOL    HW172767   2.619   0.580   6.382 -0.9011  0.0333  0.9785
20236SOL    HW272768   2.532   0.717   6.372 -0.2085  0.3334 -1.3076
20237SOL     OW72769   5.532   8.730   2.625 -0.3295  0.7829 -0.2576
20237SOL    HW172770   5.483   8.813   2.650  0.5803  1.5682 -1.0254
20237SOL    HW272771   5.470   8.666   2.581 -1.4896  0.2214  2.1031
20238SOL     OW72772   1.434   9.286   8.087 -0.0618  0.1450  0.5970
20238SOL    HW172773   1.343   9.267   8.125 -0.8653 -1.3773 -1.9305
20238SOL    HW272774   1.427   9.356   8.016  1.0465  1.2938  1.5970
20239SOL     OW72775   3.779   3.242   0.330 -0.1483 -0.0850 -0.7625
20239SOL    HW172776   3.776   3.187   0.414 -2.8462 -0.5390 -1.1152
20239SOL    HW272777   3.803   3.337   0.353  0.1358 -0.4207  0.3763
20240SOL     OW72778   3.621   9.237   6.683 -0.6577 -0.3520  0.6355
20240SOL    HW172779   3.621   9.254   6.781  2.0815 -1.8690  0.9665
20240SOL    HW272780   3.584   9.146   6.665 -1.0010 -0.1406  0.2708
20241SOL     OW72781   3.355   6.432   9.240 -0.2090 -0.1937 -0.4039
20241SOL    HW172782   3.394   6.438   9.148 -3.2344 -0.5209 -1.7460
20241SOL    HW272783   3.287   6.360   9.243 -0.0672 -0.2683  2.1585
20242SOL     OW72784   6.632   9.112   4.087 -0.0518  0.3242  0.2500
20242SOL    HW172785   6.551   9.056   4.103 -0.4930  1.0331  0.5032
20242SOL    HW272786   6.675   9.136   4.174  0.5176 -0.1769  0.1102
20243SOL     OW72787   2.721   7.402   3.791  0.3426  0.8842 -0.1693
20243SOL    HW172788   2.741   7.499   3.802  0.7545  0.8317 -0.4361
20243SOL    HW272789   2.677   7.387   3.702  0.2132  0.8411 -0.0962
20244SOL     OW72790   1.347   5.651   2.568 -0.3511 -0.9518  0.8814
20244SOL    HW172791   1.248   5.640   2.561 -0.0109 -2.4600 -2.7207
20244SOL    HW272792   1.369   5.749   2.568 -1.7362 -0.6135 -0.8568
20245SOL     OW72793   5.351   3.707   9.393  0.2895 -0.3001  0.7707
20245SOL    HW172794   5.381   3.755   9.311  1.5269 -1.1849  0.7019
20245SOL    HW272795   5.399   3.620   9.401 -2.0308 -1.6151  0.8311
20246SOL     OW72796   4.246   9.032   4.761 -0.2342 -0.2460  0.2094
20246SOL    HW172797   4.312   8.990   4.698 -0.7859 -1.4112  0.3955
20246SOL    HW272798   4.200   8.960   4.813 -0.4430  0.6622  1.2849
20247SOL     OW72799   4.234   2.734   1.527 -0.2278  0.0748  0.2698
20247SOL    HW172800   4.306   2.803   1.520 -1.4381  1.3379 -0.0413
20247SOL    HW272801   4.184   2.731   1.440 -0.8497 -0.4437  0.6480
20248SOL     OW72802   6.931   3.005   4.533  0.0402 -0.0531  0.6435
20248SOL    HW172803   6.843   3.012   4.485  0.9387  0.9278 -0.8903
20248SOL    HW272804   6.960   2.909   4.537  0.2221 -0.0920 -1.2704
20249SOL     OW72805   3.395   1.899   1.787  0.0436 -0.1830  0.0907
20249SOL    HW172806   3.366   1.849   1.868  0.6590  0.1905  0.5412
20249SOL    HW272807   3.473   1.853   1.745  1.9932  1.5368  1.7208
20250SOL     OW72808   0.355   8.796   3.478 -0.0324 -0.2999 -0.0004
20250SOL    HW172809   0.291   8.829   3.548 -0.6539 -1.9047  0.1935
20250SOL    HW272810   0.316   8.812   3.387  0.0516  0.2887  0.0658
20251SOL     OW72811   1.434   8.601   3.221  0.4238 -0.1753 -0.5793
20251SOL    HW172812   1.434   8.683   3.162 -1.4042  0.0766 -0.2810
20251SOL    HW272813   1.522   8.592   3.266  2.0639 -0.6600 -3.7469
20252SOL     OW72814   9.905   7.188   2.276 -0.2001 -0.0830  0.4202
20252SOL    HW172815   9.923   7.284   2.256  1.7006 -0.3741  0.6077
20252SOL    HW272816   9.958   7.160   2.356 -1.1935 -1.1256  0.7238
20253SOL     OW72817   8.451   0.795   0.232 -0.0751  0.3464  0.1241
20253SOL    HW172818   8.518   0.803   0.159  0.4498 -2.1498  0.2921
20253SOL    HW272819   8.444   0.699   0.261 -1.7463  0.9835  1.9513
20254SOL     OW72820   8.504   5.349   5.318  0.2201  0.1690 -0.0453
20254SOL    HW172821   8.412   5.363   5.281  0.2256  0.7929  0.1596
20254SOL    HW272822   8.558   5.432   5.303  0.7188 -0.1633 -0.0806
20255SOL     OW72823   2.473   8.215   3.071  0.2895 -0.1483  0.3057
20255SOL    HW172824   2.470   8.120   3.040 -0.5551 -0.0979  0.2186
20255SOL    HW272825   2.429   8.273   3.003  0.4173  0.2493  0.5642
20256SOL     OW72826   2.530   9.492   4.457  0.4867 -0.6554 -0.5191
20256SOL    HW172827   2.571   9.542   4.381 -2.2223 -0.3965 -1.8949
20256SOL    HW272828   2.492   9.406   4.424  2.0092 -2.0053  1.1702
20257SOL     OW72829   0.498   5.172   9.174 -0.0706 -0.3704 -0.3651
20257SOL    HW172830   0.411   5.185   9.127  0.0299  2.3791  0.0862
20257SOL    HW272831   0.500   5.228   9.257  1.8251 -0.9831  0.0411
20258SOL     OW72832   3.855   4.150   5.976 -0.7206 -0.3792 -0.1076
20258SOL    HW172833   3.898   4.094   5.905 -0.4150 -0.2677 -0.0116
20258SOL    HW272834   3.858   4.102   6.063 -0.6357 -0.2963 -0.0647
20259SOL     OW72835   3.414   9.752   7.261  0.4601 -0.4192 -0.0815
20259SOL    HW172836   3.357   9.792   7.189  0.6851 -0.7761 -0.4659
20259SOL    HW272837   3.456   9.668   7.226  0.4221 -0.6918  0.5362
20260SOL     OW72838   0.892   1.024   3.677 -0.1788 -0.2833 -0.2409
20260SOL    HW172839   0.975   1.071   3.645  0.1460 -0.0060  0.9984
20260SOL    HW272840   0.910   0.980   3.765 -1.2523 -0.5201 -0.1334
20261SOL     OW72841   1.480   9.240   4.480  0.6168  0.1841  0.2667
20261SOL    HW172842   1.457   9.246   4.577  0.5785  0.4627  0.2403
20261SOL    HW272843   1.400   9.261   4.425  0.6708  0.1509  0.1752
20262SOL     OW72844   1.665   4.242   2.766  0.5308 -0.6244 -1.2720
20262SOL    HW172845   1.672   4.145   2.789  2.0134  0.0023  1.0672
20262SOL    HW272846   1.580   4.279   2.803  1.1389 -0.4679 -0.0367
20263SOL     OW72847   4.261   6.020   8.289  0.1981  0.5736 -0.1916
20263SOL    HW172848   4.342   6.078   8.297  0.1608  0.2819  2.8427
20263SOL    HW272849   4.288   5.924   8.288  0.0442  0.5323 -1.9729
20264SOL     OW72850   0.957   7.335   8.584  0.4379  0.7404  0.0552
20264SOL    HW172851   0.917   7.290   8.504  1.1418 -0.9414  0.6360
20264SOL    HW272852   0.884   7.361   8.647  0.0643 -0.1701  0.0065
20265SOL     OW72853   1.498   6.404   4.731  0.1674  0.2244 -0.1186
20265SOL    HW172854   1.419   6.342   4.727 -0.9032  1.4378  1.6709
20265SOL    HW272855   1.574   6.356   4.775  0.5174 -0.9936 -1.9646
20266SOL     OW72856   5.834   1.665   4.235 -0.0115 -0.3082 -0.1750
20266SOL    HW172857   5.863   1.685   4.142 -1.3756  2.2706 -0.0936
20266SOL    HW272858   5.914   1.657   4.295  0.7791 -0.2132 -1.2153
20267SOL     OW72859   1.863   6.051   5.955  0.1957 -0.0966  0.0227
20267SOL    HW172860   1.952   6.087   5.984 -0.3347  0.3377  1.1068
20267SOL    HW272861   1.828   5.988   6.024 -1.0170  0.8519  0.2700
20268SOL     OW72862   1.823   7.541   3.668 -0.0810 -0.2171 -0.1064
20268SOL    HW172863   1.768   7.542   3.584 -0.0029  1.0806 -0.1553
20268SOL    HW272864   1.897   7.475   3.658  0.8909  1.0784 -1.7052
20269SOL     OW72865   7.393   6.968   2.494  0.4703  0.0556  0.5485
20269SOL    HW172866   7.390   6.883   2.546 -2.7134 -0.3164 -0.1341
20269SOL    HW272867   7.369   7.045   2.553 -0.2716 -0.0043  0.3341
20270SOL     OW72868   4.248   3.328   9.013  0.0418  0.1462 -0.6502
20270SOL    HW172869   4.250   3.370   8.923  0.3801  1.3266 -0.0928
20270SOL    HW272870   4.262   3.229   9.004 -3.7528 -0.3518 -2.2472
20271SOL     OW72871   7.767   8.396   4.332 -0.0417 -0.2136 -0.2594
20271SOL    HW172872   7.743   8.431   4.422  2.1942 -2.2990  1.2207
20271SOL    HW272873   7.684   8.370   4.282 -1.2287 -0.4643  1.8165
20272SOL     OW72874   2.783   0.375   0.135  0.2250  0.3437  0.4154
20272SOL    HW172875   2.812   0.280   0.149  0.5070  0.5606  1.3270
20272SOL    HW272876   2.763   0.389   0.038  1.9978 -0.1364 -0.0423
20273SOL     OW72877   5.646   8.676   7.291  0.0763 -0.6761  0.5562
20273SOL    HW172878   5.712   8.683   7.216 -0.7039 -0.8757 -0.1475
20273SOL    HW272879   5.679   8.730   7.369  0.1740  0.7359 -0.4438
20274SOL     OW72880   0.083   5.770   1.384  0.4260 -0.2328  0.3655
20274SOL    HW172881   0.123   5.830   1.315 -0.0073 -0.6358 -0.2464
20274SOL    HW272882   0.138   5.687   1.392  0.4273 -0.2242  0.4421
20275SOL     OW72883   1.917   2.683   5.411  0.5809 -0.4078 -0.5641
20275SOL    HW172884   1.836   2.629   5.435 -0.4442 -0.0842 -3.0706
20275SOL    HW272885   1.908   2.776   5.447  0.5008 -0.7768  0.3721
20276SOL     OW72886   1.184   2.116   4.231 -0.1263 -0.3630 -0.5842
20276SOL    HW172887   1.121   2.161   4.295  1.2351 -0.3923  0.7909
20276SOL    HW272888   1.248   2.184   4.196 -0.8970 -0.3366 -1.9886
20277SOL     OW72889   0.525   6.547   7.975  0.2533 -0.0222 -0.2077
20277SOL    HW172890   0.589   6.621   7.992 -0.7418  0.6879  0.4837
20277SOL    HW272891   0.557   6.492   7.897  0.3825  1.8226 -1.4802
20278SOL     OW72892   2.050   4.123   8.800 -0.3400 -0.5000 -0.1476
20278SOL    HW172893   2.081   4.087   8.889  0.6108 -1.1801 -0.7459
20278SOL    HW272894   2.086   4.066   8.727  4.0227  3.5384 -1.3675
20279SOL     OW72895   9.317   9.354   3.804  0.1324  0.0719  0.0253
20279SOL    HW172896   9.346   9.384   3.714 -1.2483  1.2689 -0.0353
20279SOL    HW272897   9.316   9.431   3.867  0.9129 -0.7170  1.0269
20280SOL     OW72898   8.234   1.735   0.546 -0.2914 -0.4208 -0.4950
20280SOL    HW172899   8.247   1.825   0.504 -1.0672  0.4160  1.0089
20280SOL    HW272900   8.145   1.699   0.520 -0.7705  0.0966  0.3967
20281SOL     OW72901   8.389   4.926   5.296  0.4798 -0.0441  0.5570
20281SOL    HW172902   8.323   4.998   5.276  2.2624  1.5104  0.0558
20281SOL    HW272903   8.349   4.837   5.274 -0.2588  1.0697 -3.0541
20282SOL     OW72904   2.910   9.455   1.871  0.2367  0.1939  0.2953
20282SOL    HW172905   2.943   9.538   1.826  3.1397 -0.8457  0.4107
20282SOL    HW272906   2.948   9.449   1.964 -1.6730 -0.2036  1.0830
20283SOL     OW72907   7.454   6.304   8.294 -0.3166 -0.6726  0.4441
20283SOL    HW172908   7.371   6.330   8.244  0.3012 -1.1768 -0.8667
20283SOL    HW272909   7.459   6.205   8.301  0.5793 -0.6720 -0.1784
20284SOL     OW72910   1.101   6.964   3.372  0.0884 -0.1691  0.1650
20284SOL    HW172911   1.004   6.985   3.383 -0.3449 -2.3569  0.8426
20284SOL    HW272912   1.152   7.049   3.358 -1.8129  1.0783  0.5570
20285SOL     OW72913   1.510   6.842   1.190  0.3838 -0.4550 -0.1443
20285SOL    HW172914   1.588   6.831   1.129 -0.6983 -1.1569 -1.4226
20285SOL    HW272915   1.494   6.939   1.207  0.1758 -0.1988 -1.6943
20286SOL     OW72916   1.064   6.598   4.532 -0.2509 -0.4966 -0.3089
20286SOL    HW172917   1.003   6.666   4.574 -0.4199 -0.1847 -1.0603
20286SOL    HW272918   1.146   6.643   4.497 -0.9437 -0.4819 -1.9643
20287SOL     OW72919   3.821   6.341   3.944  0.2369  0.2633  0.5388
20287SOL    HW172920   3.791   6.303   3.856  1.6209 -0.1442  0.2228
20287SOL    HW272921   3.754   6.406   3.977 -1.1028 -0.8067 -0.0224
20288SOL     OW72922   8.593   9.166   1.113 -0.9594 -1.2939  0.3575
20288SOL    HW172923   8.683   9.205   1.091 -1.3443 -0.9535 -0.6598
20288SOL    HW272924   8.605   9.073   1.147 -0.3921 -2.4413 -2.7814
20289SOL     OW72925   9.286   0.545   2.546 -0.1087 -0.0859 -0.4293
20289SOL    HW172926   9.224   0.478   2.505 -0.3804  0.9538 -1.7644
20289SOL    HW272927   9.374   0.542   2.499  0.3335 -0.4469  0.4108
20290SOL     OW72928   7.178   2.786   5.055  0.1764  0.2328 -0.0205
20290SOL    HW172929   7.274   2.762   5.064  0.1699  0.5729  0.9676
20290SOL    HW272930   7.121   2.713   5.094  0.0749  0.5900  0.5072
20291SOL     OW72931   0.241   8.756   0.167  0.1579  0.3441  0.2832
20291SOL    HW172932   0.186   8.734   0.247 -0.8559 -0.0310 -0.5110
20291SOL    HW272933   0.182   8.770   0.088  1.0132  2.6892  0.0291
20292SOL     OW72934   4.379   0.493   8.583 -0.4317  0.3331  0.4782
20292SOL    HW172935   4.462   0.454   8.544  0.2142 -0.2232  2.3804
20292SOL    HW272936   4.303   0.479   8.519  0.8016  0.3478 -1.0238
20293SOL     OW72937   5.503   9.653   3.732 -0.0784 -0.0014  0.0696
20293SOL    HW172938   5.496   9.598   3.649 -1.6909  0.8031 -0.3556
20293SOL    HW272939   5.530   9.594   3.809  2.3080 -0.5801 -1.1667
20294SOL     OW72940   0.433   7.990   1.902  0.0840  0.1634 -0.3948
20294SOL    HW172941   0.449   7.929   1.979  0.5968 -2.0164 -2.1641
20294SOL    HW272942   0.341   8.029   1.907 -0.5298 -1.3902  0.3456
20295SOL     OW72943   0.055   9.864   3.635  0.4017  0.1157 -0.0400
20295SOL    HW172944  -0.011   9.917   3.582  1.4665  0.2078 -1.2822
20295SOL    HW272945   0.028   9.768   3.635 -0.0622  0.2441 -0.0264
20296SOL     OW72946   2.786   5.434   0.744 -0.3273  0.0773  0.0808
20296SOL    HW172947   2.884   5.445   0.758 -0.0857 -1.5164 -0.2203
20296SOL    HW272948   2.739   5.437   0.832  0.0924 -0.0386  0.3106
20297SOL     OW72949   7.240   0.830   9.020 -0.4059  0.0745  0.1076
20297SOL    HW172950   7.261   0.874   9.108 -0.4668 -0.3558  0.3414
20297SOL    HW272951   7.287   0.879   8.946 -1.0251  0.9392  0.2825
20298SOL     OW72952   9.526   7.757   2.713  0.5217  0.4744  0.7030
20298SOL    HW172953   9.621   7.738   2.738  0.5591 -0.6655 -0.2755
20298SOL    HW272954   9.523   7.838   2.654  0.6320  1.9527  2.6883
20299SOL     OW72955   2.687   9.855   4.728  0.3376 -0.0105  0.4376
20299SOL    HW172956   2.768   9.797   4.722  0.2210 -0.0948 -0.3247
20299SOL    HW272957   2.711   9.942   4.771  1.0490  0.3650 -0.7102
20300SOL     OW72958   1.205   3.607   9.075 -0.3327 -0.3167  0.3357
20300SOL    HW172959   1.112   3.640   9.093  0.5525  1.1497  2.3758
20300SOL    HW272960   1.252   3.592   9.162  1.2739 -1.2342 -0.6819
20301SOL     OW72961   0.103   8.245   1.169  0.5094 -0.1181  0.4874
20301SOL    HW172962   0.170   8.175   1.195  0.3890 -0.1395  0.7317
20301SOL    HW272963   0.059   8.282   1.250  0.5979  0.2686  0.3618
20302SOL     OW72964   9.864   4.236   9.754  0.3861 -0.4154 -0.1330
20302SOL    HW172965   9.963   4.244   9.743  0.4348 -1.8448 -0.8429
20302SOL    HW272966   9.823   4.204   9.669 -0.6973  0.1990  0.1472
20303SOL     OW72967   6.195   7.639   4.306 -0.1339  0.3425  0.7276
20303SOL    HW172968   6.279   7.668   4.352 -0.5652  3.2737 -0.2761
20303SOL    HW272969   6.116   7.680   4.352 -0.9851 -1.4919  0.9681
20304SOL     OW72970   9.490   8.315   7.472 -0.1985  0.1526 -0.2399
20304SOL    HW172971   9.461   8.235   7.524 -0.5244  1.1537  1.1394
20304SOL    HW272972   9.572   8.292   7.419  0.4944 -0.7202  1.1639
20305SOL     OW72973   3.916   2.626   9.710  0.9173 -0.1859  0.0680
20305SOL    HW172974   3.924   2.640   9.809  1.7707 -2.6026  0.3728
20305SOL    HW272975   3.829   2.663   9.678  1.6682  2.8167  1.2830
20306SOL     OW72976   9.295   5.447   5.620 -0.3944  0.6667  0.0656
20306SOL    HW172977   9.329   5.357   5.594 -0.1455  1.6105 -3.1872
20306SOL    HW272978   9.199   5.440   5.648 -0.9134 -0.4048 -1.8500
20307SOL     OW72979   5.668   9.452   7.333 -0.2761  0.9274 -0.3785
20307SOL    HW172980   5.615   9.476   7.414 -0.1406  0.2935 -0.1029
20307SOL    HW272981   5.765   9.447   7.356 -0.3430 -0.3643 -0.3077
20308SOL     OW72982   6.958   4.876   7.772 -0.0920  0.7001  0.2854
20308SOL    HW172983   7.047   4.875   7.818 -0.4472 -1.3197  1.0065
20308SOL    HW272984   6.952   4.956   7.712  2.2535  0.8099  0.1301
20309SOL     OW72985   8.641   7.497   0.323  0.6441  0.4008  0.5687
20309SOL    HW172986   8.581   7.417   0.332  0.8000  0.1117 -0.8053
20309SOL    HW272987   8.595   7.567   0.270  1.5880  0.0925 -0.6818
20310SOL     OW72988   9.025   3.972   3.677  0.2801 -0.1647  0.6017
20310SOL    HW172989   8.944   3.919   3.652 -1.7185  2.3192  1.5279
20310SOL    HW272990   9.038   3.968   3.776  0.2297  0.9066  0.6518
20311SOL     OW72991   6.865   7.612   7.075  0.3468 -0.9011 -0.2655
20311SOL    HW172992   6.839   7.520   7.046 -1.3779 -0.3204 -0.6176
20311SOL    HW272993   6.835   7.627   7.169 -0.1747 -0.3951 -0.5099
20312SOL     OW72994   9.713   0.925   5.109 -0.7262  0.0548  0.1229
20312SOL    HW172995   9.650   0.926   5.031 -0.3612  1.8431 -0.1820
20312SOL    HW272996   9.724   1.019   5.144  1.4534 -0.2827  0.4121
20313SOL     OW72997   7.744   9.385   7.644 -0.5683 -0.0906 -0.2666
20313SOL    HW172998   7.773   9.404   7.738 -0.0615 -1.3291 -0.1608
20313SOL    HW272999   7.645   9.394   7.637 -0.5727  0.3254  0.3083
20314SOL     OW73000   8.081   3.775   7.507  0.1459  0.1805  0.2510
20314SOL    HW173001   8.138   3.694   7.495 -0.3754  0.0021 -1.1557
20314SOL    HW273002   8.003   3.752   7.565  0.7239  0.0412  0.9746
20315SOL     OW73003   9.811   8.982   1.807 -0.6368 -0.2674  0.3417
20315SOL    HW173004   9.826   9.060   1.868  1.4089  0.5288 -1.1261
20315SOL    HW273005   9.737   8.925   1.843  1.0696 -0.3079  4.0054
20316SOL     OW73006   4.326   9.701   1.797  0.1570 -0.0221  0.6041
20316SOL    HW173007   4.370   9.715   1.708 -0.8191 -1.7017 -0.1730
20316SOL    HW273008   4.262   9.776   1.814 -0.4540 -0.2459 -0.6281
20317SOL     OW73009   9.766   6.779   9.218 -0.2289  0.3942 -0.4252
20317SOL    HW173010   9.822   6.749   9.295 -0.9356 -2.0742 -0.8427
20317SOL    HW273011   9.824   6.824   9.150  0.9384 -0.3925  0.0416
20318SOL     OW73012   7.323   0.692   5.088 -0.6937  0.6551 -0.4313
20318SOL    HW173013   7.379   0.729   5.162  1.3122 -3.3794  0.1928
20318SOL    HW273014   7.364   0.716   5.000  0.2291  0.4058 -0.0675
20319SOL     OW73015   7.381   9.319   2.159 -0.1653  0.1847  0.2095
20319SOL    HW173016   7.472   9.350   2.187  0.2042 -0.3198 -0.3983
20319SOL    HW273017   7.388   9.271   2.071 -1.0566  0.3593  0.0354
20320SOL     OW73018   0.474   2.467   4.817 -0.0035  0.8913  0.6353
20320SOL    HW173019   0.479   2.368   4.832  1.1607  0.9815  0.8895
20320SOL    HW273020   0.509   2.515   4.898  0.8018  1.4760 -0.0441
20321SOL     OW73021   3.091   7.064   1.692 -0.0045 -0.1981 -1.3170
20321SOL    HW173022   3.188   7.056   1.669 -0.3110 -0.5826 -2.4991
20321SOL    HW273023   3.075   7.028   1.784  0.7708 -1.3006 -1.6078
20322SOL     OW73024   8.270   1.548   0.915 -0.0827  0.1524 -0.3875
20322SOL    HW173025   8.278   1.448   0.913  1.7430  0.2922 -1.9927
20322SOL    HW273026   8.342   1.588   0.859  0.7434  2.4924  2.2570
20323SOL     OW73027   0.110   9.625   3.924  0.1674 -0.2608  0.2366
20323SOL    HW173028   0.202   9.587   3.921  0.8387  1.3692 -0.8263
20323SOL    HW273029   0.078   9.631   4.018  1.2643 -0.5884  0.6277
20324SOL     OW73030   9.573   5.352   8.582 -0.3379 -0.6555 -0.0359
20324SOL    HW173031   9.493   5.413   8.581  2.0313  2.5351 -0.8984
20324SOL    HW273032   9.604   5.341   8.676 -0.8629 -0.6374  0.1438
20325SOL     OW73033   4.323   5.430   3.325  0.3843  0.4882 -0.1157
20325SOL    HW173034   4.417   5.395   3.325 -1.4446 -4.9337 -0.3887
20325SOL    HW273035   4.281   5.409   3.413 -1.5779 -0.2926 -1.2145
20326SOL     OW73036   8.269   3.107   8.829  0.3307 -0.4898  0.4165
20326SOL    HW173037   8.191   3.048   8.852  1.1830 -1.8356 -0.0907
20326SOL    HW273038   8.237   3.201   8.818 -1.6100 -1.3462 -1.8304
20327SOL     OW73039   2.672   2.348   7.641  0.0216 -0.4122  0.8211
20327SOL    HW173040   2.670   2.250   7.664 -1.3928 -0.5568  0.1795
20327SOL    HW273041   2.579   2.385   7.647  0.5520  0.9155  1.0931
20328SOL     OW73042   1.177   2.679   0.868  0.1937  0.0464  0.0402
20328SOL    HW173043   1.120   2.685   0.950  0.6058  0.6862  0.2876
20328SOL    HW273044   1.190   2.770   0.830  2.2854  0.1225  0.8576
20329SOL     OW73045   4.869   6.999   1.947  0.8749 -0.0955  1.2638
20329SOL    HW173046   4.783   7.049   1.938  0.8571 -0.7178 -3.0981
20329SOL    HW273047   4.940   7.061   1.981  0.0367  2.0019 -0.6912
20330SOL     OW73048   9.999   4.698   3.164  0.3375  0.0172  0.6608
20330SOL    HW173049   9.918   4.750   3.137  1.0907  0.5778 -0.5620
20330SOL    HW273050  10.005   4.615   3.109  0.3080 -0.2745  1.1025
20331SOL     OW73051   1.737   0.652   0.379 -0.1719  0.0872 -0.2086
20331SOL    HW173052   1.680   0.594   0.438  0.2116 -1.4999 -1.3642
20331SOL    HW273053   1.771   0.598   0.302  1.9033  1.3239 -0.1968
20332SOL     OW73054   0.452   7.519   9.201  0.2311  0.3590 -0.2087
20332SOL    HW173055   0.392   7.592   9.170  1.4018  2.3236  1.9926
20332SOL    HW273056   0.547   7.542   9.180  0.4703 -1.5616 -1.4193
20333SOL     OW73057   4.199   8.596   1.703  0.0964 -0.4511 -0.2293
20333SOL    HW173058   4.125   8.629   1.762 -0.8220 -1.3988 -0.8404
20333SOL    HW273059   4.239   8.674   1.654  0.6256  0.2984  1.3377
20334SOL     OW73060   1.718   9.569   8.021 -0.1252 -0.6723  0.0506
20334SOL    HW173061   1.635   9.529   7.982  0.0955 -1.2462  0.1789
20334SOL    HW273062   1.699   9.664   8.047 -0.5094 -0.5335 -0.6927
20335SOL     OW73063   3.133   6.757   9.016 -0.3961 -0.0697  0.3876
20335SOL    HW173064   3.190   6.724   9.090  2.0675  3.2677  0.0676
20335SOL    HW273065   3.135   6.856   9.013 -2.9796 -0.0053 -2.2108
20336SOL     OW73066   2.624   5.502   1.188 -0.1143 -0.1991  0.0074
20336SOL    HW173067   2.670   5.490   1.276 -0.2668 -0.1178  0.0985
20336SOL    HW273068   2.555   5.573   1.196  1.1214  1.1099 -0.6586
20337SOL     OW73069   9.602   6.041   9.044  0.0073 -0.1822 -0.2495
20337SOL    HW173070   9.633   6.040   8.949  0.6975 -1.4105 -0.0155
20337SOL    HW273071   9.569   5.950   9.070  1.3670 -0.2824  1.1874
20338SOL     OW73072   6.853   2.115   1.693  0.2023 -0.7898  0.0465
20338SOL    HW173073   6.800   2.160   1.621  0.5886  1.1719  0.9588
20338SOL    HW273074   6.797   2.043   1.735 -0.0477 -1.9005 -2.1257
20339SOL     OW73075   8.957   0.932   1.905 -0.3389 -0.3330  0.0217
20339SOL    HW173076   8.912   0.854   1.949 -2.0148  0.2619 -0.5838
20339SOL    HW273077   9.052   0.938   1.936 -0.7649 -1.4276  1.6006
20340SOL     OW73078   2.222   0.214   2.332  0.5023 -0.2544  0.6864
20340SOL    HW173079   2.268   0.131   2.363 -0.4725 -1.0704 -0.0153
20340SOL    HW273080   2.127   0.213   2.361 -0.1457 -0.5320 -1.3325
20341SOL     OW73081   8.732   2.339   0.934  0.1510 -0.0534  0.2562
20341SOL    HW173082   8.672   2.419   0.937 -0.5565 -0.5608 -0.2493
20341SOL    HW273083   8.817   2.363   0.887  0.0260  0.4629  0.2911
20342SOL     OW73084   3.813   6.407   2.117 -1.0452  0.4041 -0.4219
20342SOL    HW173085   3.849   6.500   2.107  1.1585 -0.5051 -1.3005
20342SOL    HW273086   3.873   6.355   2.178 -0.5009 -1.2962 -2.3258
20343SOL     OW73087   0.434   4.744   7.124  0.0204  0.4390 -0.3166
20343SOL    HW173088   0.490   4.687   7.064  1.2424 -0.6398  1.7769
20343SOL    HW273089   0.337   4.728   7.105  0.3042 -3.0207  0.7679
20344SOL     OW73090   9.729   2.493   3.427  0.4518 -0.1423 -0.0078
20344SOL    HW173091   9.752   2.584   3.395 -1.6965  0.2211 -0.6176
20344SOL    HW273092   9.795   2.463   3.496  0.7317  2.1710  0.7420
20345SOL     OW73093   8.318   3.470   8.282 -0.1782  0.2245 -0.1499
20345SOL    HW173094   8.355   3.423   8.363 -0.2813  1.6078  0.7212
20345SOL    HW273095   8.247   3.413   8.240 -0.4321 -0.3203  0.9944
20346SOL     OW73096   8.328   2.285   6.965 -0.0379  0.1026 -0.4625
20346SOL    HW173097   8.426   2.279   6.986  0.2266 -0.6650 -1.8519
20346SOL    HW273098   8.313   2.352   6.892 -0.6708  0.9593  0.4400
20347SOL     OW73099   7.455   4.686   1.094 -0.0125  0.1870  0.7759
20347SOL    HW173100   7.489   4.682   1.188  0.1934 -1.5891  0.6249
20347SOL    HW273101   7.496   4.765   1.047  1.3830 -0.0530  1.5804
20348SOL     OW73102   8.070   5.633   2.621  0.2751 -0.6517 -0.0253
20348SOL    HW173103   8.048   5.669   2.712  3.4192 -0.6961  0.8256
20348SOL    HW273104   8.030   5.542   2.611 -2.5415  0.5222  0.1747
20349SOL     OW73105   3.479   4.679   3.314  0.3523 -0.3732 -0.2869
20349SOL    HW173106   3.456   4.728   3.230 -1.1748 -0.2312  0.2044
20349SOL    HW273107   3.499   4.584   3.292  3.2020  0.3840 -1.2281
20350SOL     OW73108   3.510   2.880   0.223  0.0974  0.9107  0.0336
20350SOL    HW173109   3.410   2.884   0.226 -0.0539 -2.3440  0.7356
20350SOL    HW273110   3.545   2.852   0.313  1.5618  0.3978 -0.6768
20351SOL     OW73111   8.744   7.511   9.198  0.0832  0.3184 -0.5750
20351SOL    HW173112   8.767   7.608   9.207  1.3705  0.1608 -2.0834
20351SOL    HW273113   8.824   7.460   9.167 -0.2812 -1.4181  1.2025
20352SOL     OW73114   9.298   1.914   6.981  0.0442 -0.3695 -0.3294
20352SOL    HW173115   9.212   1.893   7.028 -0.6208  1.7642 -0.4995
20352SOL    HW273116   9.277   1.954   6.891  1.1997  0.1583 -0.3712
20353SOL     OW73117   4.747   2.995   6.703  0.2796 -0.2898 -0.3043
20353SOL    HW173118   4.676   2.989   6.634  1.0870 -1.6325 -1.0371
20353SOL    HW273119   4.718   2.946   6.785 -0.3704  0.6782  0.0529
20354SOL     OW73120   0.051   7.816   2.883  0.1446  0.5462  0.8983
20354SOL    HW173121   0.097   7.739   2.839 -1.0414  0.7076 -0.6576
20354SOL    HW273122   0.082   7.901   2.842  0.9536  0.8693  2.1608
20355SOL     OW73123   9.440   8.070   9.668 -0.0714 -0.2269  0.5496
20355SOL    HW173124   9.480   8.021   9.590  0.5217 -0.3866  0.9535
20355SOL    HW273125   9.432   8.007   9.746  0.4920  0.2688  1.0061
20356SOL     OW73126   5.143   1.254   8.452 -0.0468 -0.3479 -0.4020
20356SOL    HW173127   5.239   1.282   8.451 -0.6865  2.0661 -3.8584
20356SOL    HW273128   5.123   1.203   8.368 -1.7418 -1.0671  0.4279
20357SOL     OW73129   3.133   7.228   4.492 -0.2260 -0.5608 -0.0982
20357SOL    HW173130   3.131   7.202   4.588  0.4305 -0.9480 -0.1884
20357SOL    HW273131   3.106   7.323   4.483 -2.6851 -1.1827  0.2370
20358SOL     OW73132   3.569   1.405   4.454  0.7842  0.2659 -0.0934
20358SOL    HW173133   3.597   1.501   4.444 -1.2373  0.8374 -0.3995
20358SOL    HW273134   3.484   1.400   4.506 -0.6380 -1.1544 -2.4914
20359SOL     OW73135   6.952   5.244   9.695 -0.0850  0.5373  0.0125
20359SOL    HW173136   6.967   5.329   9.644 -0.4888  0.5309 -0.1235
20359SOL    HW273137   6.873   5.256   9.755  0.0255  0.3456  0.1955
20360SOL     OW73138   4.191   1.013   7.671  0.0792 -0.1597 -0.3217
20360SOL    HW173139   4.278   0.971   7.646  0.4015 -1.7543  3.3041
20360SOL    HW273140   4.116   0.956   7.637  0.4673 -0.7186 -0.2468
20361SOL     OW73141   3.941   4.771   5.648  0.7437  0.0114  0.3719
20361SOL    HW173142   4.040   4.752   5.651  0.4566 -1.7410 -0.7992
20361SOL    HW273143   3.914   4.798   5.556 -0.2200 -1.5392  0.1838
20362SOL     OW73144   3.411   4.840   4.272  0.1459 -0.7754  0.0698
20362SOL    HW173145   3.380   4.823   4.366 -0.8934  0.7485  0.0224
20362SOL    HW273146   3.472   4.919   4.272 -1.6085  0.6191 -0.8224
20363SOL     OW73147   8.453   9.099   5.808  0.2254  0.2232 -0.0658
20363SOL    HW173148   8.387   9.025   5.806  2.2978 -1.7376  1.2767
20363SOL    HW273149   8.435   9.159   5.886 -0.2580 -0.0046 -0.0059
20364SOL     OW73150   6.515   8.291   4.169 -0.5097 -0.6272  0.0427
20364SOL    HW173151   6.440   8.278   4.104 -1.5922 -0.2520  1.2024
20364SOL    HW273152   6.584   8.350   4.128 -0.8516 -0.9462 -1.0244
20365SOL     OW73153   4.630   2.585   8.211 -0.9173 -1.0310 -0.3796
20365SOL    HW173154   4.589   2.674   8.231  1.7715  0.1572  0.0617
20365SOL    HW273155   4.643   2.576   8.112 -2.5161 -1.5602 -0.5514
20366SOL     OW73156   5.097   1.081   6.219  0.0158 -0.2971  0.5423
20366SOL    HW173157   5.016   1.035   6.181  0.5969 -1.5176  0.7733
20366SOL    HW273158   5.162   1.099   6.145 -0.3951  0.5759  0.3771
20367SOL     OW73159   7.644   4.176   1.000 -0.3070 -0.0860 -0.2078
20367SOL    HW173160   7.677   4.115   1.072 -0.2863 -0.0864 -0.2177
20367SOL    HW273161   7.624   4.123   0.918  1.3772  0.1618 -0.7935
20368SOL     OW73162   7.249   0.995   1.487 -0.4053  0.0229  0.0359
20368SOL    HW173163   7.315   0.930   1.450 -0.8939 -1.0968  1.1121
20368SOL    HW273164   7.164   0.990   1.433 -0.9507 -1.2732  0.9904
20369SOL     OW73165   2.324   4.314   3.840  0.1710 -0.4457 -0.1010
20369SOL    HW173166   2.254   4.243   3.842 -0.9594  0.6710  1.2191
20369SOL    HW273167   2.280   4.404   3.845  1.4967  0.4134 -3.0161
20370SOL     OW73168   9.050   9.556   2.050  0.2193 -0.2103 -0.3935
20370SOL    HW173169   9.068   9.503   2.133 -0.8328  1.4866  0.9433
20370SOL    HW273170   8.969   9.520   2.004  0.1274 -0.4244 -0.0671
20371SOL     OW73171   9.978   2.868   3.944  0.5262  0.1333 -0.4133
20371SOL    HW173172  10.006   2.874   3.848 -0.9816  0.9013 -0.8181
20371SOL    HW273173   9.928   2.951   3.970 -2.4344 -1.6992 -0.0685
20372SOL     OW73174   1.922   5.100   5.584 -0.2786 -0.1647 -0.0545
20372SOL    HW173175   1.966   5.021   5.628 -0.3711  0.3941  1.0561
20372SOL    HW273176   1.927   5.179   5.645 -0.1847  0.6889 -1.1746
20373SOL     OW73177   4.161   3.526   1.047  0.3781  0.0493  0.1719
20373SOL    HW173178   4.125   3.434   1.056  1.3048 -0.2693  0.6983
20373SOL    HW273179   4.191   3.542   0.953 -0.5540  0.1066 -0.1169
20374SOL     OW73180   5.677   0.963   3.677 -0.0873  0.1178  0.3985
20374SOL    HW173181   5.660   1.045   3.732  1.5484 -0.9387  2.5850
20374SOL    HW273182   5.766   0.924   3.703  0.0116 -1.2866 -1.9507
20375SOL     OW73183   1.391   8.904   2.444  0.1665 -0.1471 -0.2104
20375SOL    HW173184   1.409   8.820   2.394  0.7788 -0.6108  0.7765
20375SOL    HW273185   1.366   8.883   2.539  2.3965  0.8350  0.6382
20376SOL     OW73186   5.082   4.003   0.190  0.2917  0.0351 -0.1697
20376SOL    HW173187   5.004   3.941   0.197  1.0534 -1.0083 -0.6241
20376SOL    HW273188   5.151   3.963   0.129  1.1397  0.9707  0.1541
20377SOL     OW73189   3.176   0.045   1.142  0.1509 -0.6919 -0.1579
20377SOL    HW173190   3.273   0.073   1.141  0.2879 -0.9825  2.0926
20377SOL    HW273191   3.118   0.126   1.134  0.5797 -0.3447  0.2265
20378SOL     OW73192   2.606   6.920   8.806 -0.0855  0.5303  0.2055
20378SOL    HW173193   2.684   6.877   8.760 -1.2086  0.9269 -2.1440
20378SOL    HW273194   2.579   7.002   8.757 -2.0700  0.3233  0.9008
20379SOL     OW73195   5.307   4.575   6.500 -0.2816 -0.0607 -0.2395
20379SOL    HW173196   5.272   4.483   6.480 -0.0184  0.1244 -1.5320
20379SOL    HW273197   5.337   4.619   6.416 -1.9361  1.8498  0.1445
20380SOL     OW73198   8.164   4.798   0.589 -0.0806 -0.0653  0.1636
20380SOL    HW173199   8.124   4.861   0.522  0.3778  0.4622  0.3851
20380SOL    HW273200   8.229   4.738   0.543  0.7465  0.7547  0.2587
20381SOL     OW73201   3.558   8.233   4.831  0.1896 -0.2647  0.2258
20381SOL    HW173202   3.653   8.214   4.808  0.2185  0.9555 -0.6642
20381SOL    HW273203   3.498   8.176   4.774  0.3876 -1.8976  1.5958
20382SOL     OW73204   0.684   4.582   9.855 -0.4345 -0.4130 -0.1051
20382SOL    HW173205   0.737   4.499   9.838 -0.6188 -0.2366 -1.6625
20382SOL    HW273206   0.715   4.654   9.793  1.3502  1.4525  2.8445
20383SOL     OW73207   4.781   0.837   2.082  0.2883 -0.0041  0.3123
20383SOL    HW173208   4.864   0.832   2.138  1.0772 -0.5339 -0.8746
20383SOL    HW273209   4.767   0.930   2.050  1.9952 -0.4055 -1.7540
20384SOL     OW73210   6.085   9.414   4.714 -0.2390 -0.0968 -0.0119
20384SOL    HW173211   6.113   9.484   4.780 -0.5028  0.8213 -0.8659
20384SOL    HW273212   5.994   9.381   4.738 -0.5116  0.5420 -0.1628
20385SOL     OW73213   3.187   7.803   2.789 -0.7032  0.0737  0.9410
20385SOL    HW173214   3.273   7.752   2.785 -2.9332 -3.7578 -0.4870
20385SOL    HW273215   3.177   7.857   2.706  1.4902  2.7140  2.2913
20386SOL     OW73216   1.679   8.970   0.423 -0.3646  0.6337  0.1605
20386SOL    HW173217   1.671   9.004   0.517  1.9187  0.0921  0.5797
20386SOL    HW273218   1.695   8.872   0.424 -0.4213  0.6119 -0.8083
20387SOL     OW73219   2.437   8.009   5.767 -0.4608 -0.2615  0.6801
20387SOL    HW173220   2.484   7.991   5.681  0.6854  0.9356  1.0400
20387SOL    HW273221   2.370   7.937   5.784 -1.5392  0.0982 -1.7837
20388SOL     OW73222   8.820   3.081   6.216 -0.1093  0.3360 -0.0420
20388SOL    HW173223   8.849   3.152   6.281 -0.2435  0.1994  0.1704
20388SOL    HW273224   8.721   3.068   6.224  0.0862 -0.7370  0.8006
20389SOL     OW73225   7.289   2.949   8.979  0.5647 -0.4312 -0.1041
20389SOL    HW173226   7.197   2.982   9.003  1.3515  3.0102 -1.5310
20389SOL    HW273227   7.284   2.897   8.894 -0.0626 -0.2922 -0.1585
20390SOL     OW73228   3.418   2.532   5.687 -0.4518  0.4270 -0.5943
20390SOL    HW173229   3.457   2.502   5.600 -0.6113 -0.9043 -0.2186
20390SOL    HW273230   3.336   2.479   5.707  0.2003 -0.0566  0.8983
20391SOL     OW73231   8.858   8.832   4.063  0.4146 -0.3679 -0.0557
20391SOL    HW173232   8.779   8.841   4.123 -1.7241  0.2895 -2.8692
20391SOL    HW273233   8.907   8.919   4.059  1.0104 -0.6340  1.3037
20392SOL     OW73234   8.482   6.331   0.436 -0.4460 -0.5389 -0.1919
20392SOL    HW173235   8.387   6.302   0.426  0.2591 -2.5884 -1.3367
20392SOL    HW273236   8.523   6.283   0.513  0.0684 -0.8194 -0.6356
20393SOL     OW73237   4.726   3.634   0.210  0.3746 -0.4670  0.5183
20393SOL    HW173238   4.647   3.623   0.270 -0.7858  1.8639 -0.5504
20393SOL    HW273239   4.708   3.590   0.122  0.7789 -1.0022  0.6952
20394SOL     OW73240   5.669   1.451   5.962  0.4468 -0.2439 -0.5870
20394SOL    HW173241   5.684   1.369   6.019  1.3554 -0.0620 -0.5484
20394SOL    HW273242   5.627   1.523   6.017  0.2625 -0.4616 -0.4437
20395SOL     OW73243   9.448   0.716   1.441 -1.2643 -0.7666 -0.2157
20395SOL    HW173244   9.396   0.774   1.504  0.8556  1.9282 -0.8546
20395SOL    HW273245   9.424   0.739   1.347  2.1051  1.7234 -0.5936
20396SOL     OW73246   8.749   5.977   3.920 -0.2466 -0.3856 -0.2328
20396SOL    HW173247   8.818   5.947   3.855  0.1733 -0.9116  0.4418
20396SOL    HW273248   8.783   5.962   4.013 -2.1031 -2.6020  0.1289
20397SOL     OW73249   9.141   9.158   5.296 -0.2101 -0.2210 -0.4625
20397SOL    HW173250   9.105   9.150   5.204 -0.2529  0.6250 -0.5251
20397SOL    HW273251   9.123   9.074   5.347 -1.4869 -0.1380 -0.7662
20398SOL     OW73252   8.414   3.505   7.037 -0.5778 -0.0652  0.8368
20398SOL    HW173253   8.410   3.473   7.131 -0.7575  3.0734  1.9472
20398SOL    HW273254   8.488   3.571   7.027 -0.9434  0.0885 -1.0767
20399SOL     OW73255   4.964   1.485   9.722 -0.3956 -0.6241 -0.5619
20399SOL    HW173256   5.011   1.560   9.769 -0.1723 -2.5032  2.3126
20399SOL    HW273257   4.922   1.520   9.638  2.1943  2.0595 -0.8214
20400SOL     OW73258   4.457   9.771   5.212 -0.0126 -0.1334  0.3431
20400SOL    HW173259   4.514   9.817   5.144  0.0011 -0.1937  0.3136
20400SOL    HW273260   4.401   9.702   5.166  0.6771 -0.8182  0.5310
20401SOL     OW73261   1.438   8.782   9.314 -0.4620 -0.0256 -0.2342
20401SOL    HW173262   1.498   8.861   9.301  0.9813 -1.0805 -0.0341
20401SOL    HW273263   1.387   8.793   9.400  0.0380  0.4829 -0.0009
20402SOL     OW73264   2.551   6.667   5.970  0.0694 -0.3547  0.0279
20402SOL    HW173265   2.567   6.730   6.046  0.7697  0.2143 -0.5828
20402SOL    HW273266   2.605   6.584   5.983 -1.2412 -1.0649  1.0927
20403SOL     OW73267   2.347   7.487   4.525 -0.3817  0.0923 -0.3997
20403SOL    HW173268   2.432   7.435   4.521 -1.1574 -1.2411  0.2540
20403SOL    HW273269   2.279   7.447   4.464 -0.7450  0.7905 -0.4693
20404SOL     OW73270   9.607   5.331   0.028 -0.4623 -0.1192  0.4482
20404SOL    HW173271   9.701   5.298   0.028  1.0249  3.8248 -0.3120
20404SOL    HW273272   9.569   5.323  -0.065 -0.2666 -0.0337  0.3609
20405SOL     OW73273   6.900   4.860   0.072  0.2780 -0.1661  0.7415
20405SOL    HW173274   6.883   4.809   0.156  2.5250 -2.6450 -0.2383
20405SOL    HW273275   6.844   4.822  -0.002  0.7857 -0.1665  0.3566
20406SOL     OW73276   8.390   3.460   4.513 -0.3238  0.3633  0.3518
20406SOL    HW173277   8.291   3.476   4.512 -0.2187  1.0330 -0.0030
20406SOL    HW273278   8.437   3.548   4.519  0.2342 -0.0302  1.7386
20407SOL     OW73279   6.566   5.932   0.816 -0.5120 -0.1494 -0.3331
20407SOL    HW173280   6.595   5.973   0.729  1.2918 -0.1717  0.2408
20407SOL    HW273281   6.569   5.832   0.809 -1.1333 -0.1564 -0.4975
20408SOL     OW73282   7.070   0.970   7.569  0.2816  0.1972 -0.6976
20408SOL    HW173283   7.021   1.023   7.638 -0.3805 -2.3674  0.9042
20408SOL    HW273284   7.004   0.931   7.504  0.4432 -1.0752 -0.1124
20409SOL     OW73285   8.976   8.589   1.282 -0.2753 -0.2820 -0.1774
20409SOL    HW173286   8.907   8.649   1.242  0.0759 -0.6557 -1.3836
20409SOL    HW273287   9.064   8.605   1.238  0.1695 -0.5628  0.6031
20410SOL     OW73288   3.384   4.012   3.011 -0.1253 -0.1939  0.2129
20410SOL    HW173289   3.291   3.978   3.030 -0.2183 -0.4050 -0.6323
20410SOL    HW273290   3.381   4.111   3.000 -0.1168 -0.0994  0.9939
20411SOL     OW73291   2.279   1.219   8.326 -0.1307  0.4811  0.1728
20411SOL    HW173292   2.293   1.253   8.419 -0.3230  1.3606 -0.1130
20411SOL    HW273293   2.209   1.276   8.280  0.8536  0.8260 -0.9225
20412SOL     OW73294   1.921   0.421   3.121 -0.4527 -0.4792 -0.1382
20412SOL    HW173295   1.903   0.351   3.190  0.9051 -0.5146  0.1961
20412SOL    HW273296   1.863   0.405   3.042 -1.3937 -0.9602  0.6376
20413SOL     OW73297   8.325   6.460   8.690  0.0154 -0.6953  0.6149
20413SOL    HW173298   8.386   6.536   8.713 -0.2134 -0.8758  1.8162
20413SOL    HW273299   8.371   6.401   8.623  0.0818  0.6482 -0.5561
20414SOL     OW73300   2.982   5.277   1.764 -0.0669  0.2640  0.5809
20414SOL    HW173301   2.955   5.345   1.696  1.5546  2.3465  1.9510
20414SOL    HW273302   3.000   5.189   1.718  1.3375  1.7003 -1.7501
20415SOL     OW73303   7.314   5.385   1.704  0.4529  0.0765  0.5623
20415SOL    HW173304   7.220   5.416   1.711  0.0281 -0.6796 -1.2734
20415SOL    HW273305   7.324   5.297   1.751  0.5251  0.7116  1.7388
20416SOL     OW73306   1.943   4.339   9.355  0.1434  0.6491 -0.0441
20416SOL    HW173307   1.990   4.331   9.443  0.2392  0.6157 -0.0963
20416SOL    HW273308   1.855   4.383   9.368 -0.7206 -1.1645  0.3750
20417SOL     OW73309   7.526   9.543   5.249  0.6618 -0.4999  0.4467
20417SOL    HW173310   7.580   9.613   5.296  1.1157 -1.8509  1.9782
20417SOL    HW273311   7.436   9.581   5.226  0.9452  0.6301  1.1461
20418SOL     OW73312   9.025   9.947   6.829  0.4921  0.3227  0.1340
20418SOL    HW173313   9.073   9.862   6.849  0.0003  0.3996  1.6446
20418SOL    HW273314   8.940   9.928   6.781  0.3454 -0.0306  0.5421
20419SOL     OW73315   2.120   6.158   0.402  0.3900 -0.9079 -0.2414
20419SOL    HW173316   2.143   6.233   0.340  1.4429  0.4957  1.7858
20419SOL    HW273317   2.027   6.170   0.436  0.9454  0.1529  0.9627
20420SOL     OW73318   2.542   7.916   7.016  0.6485  0.4776 -0.7509
20420SOL    HW173319   2.563   7.846   7.084 -1.3799  1.3278  0.8011
20420SOL    HW273320   2.610   7.989   7.021  0.0794  0.9163  0.9439
20421SOL     OW73321   4.417   3.461   4.918 -0.1657 -0.3682  0.3872
20421SOL    HW173322   4.418   3.555   4.886  1.0313  0.1480  1.8569
20421SOL    HW273323   4.361   3.405   4.857 -1.7883  1.5035  0.1051
20422SOL     OW73324   8.068   4.867   4.987  0.5259 -0.0036  0.1544
20422SOL    HW173325   8.011   4.940   5.023  0.1425 -0.1547 -0.1415
20422SOL    HW273326   8.118   4.824   5.062  0.3149  0.1854  0.4051
20423SOL     OW73327   7.396   2.685   3.094 -0.0941  0.0335 -0.0317
20423SOL    HW173328   7.488   2.723   3.104  0.4113 -1.3452  0.7338
20423SOL    HW273329   7.403   2.587   3.072 -1.3802 -0.0454 -0.1254
20424SOL     OW73330   0.411   3.120   1.106 -0.0154  0.2460  0.3581
20424SOL    HW173331   0.417   3.109   1.007  1.5417  0.1038  0.4586
20424SOL    HW273332   0.499   3.151   1.142 -0.3322 -0.4709  1.7985
20425SOL     OW73333   0.463   8.699   5.230 -0.0115  0.6905 -0.5197
20425SOL    HW173334   0.399   8.677   5.304 -0.1365  0.7875 -0.5987
20425SOL    HW273335   0.476   8.619   5.172  1.1392  0.1960  0.3898
20426SOL     OW73336   8.468   2.787   8.500  0.3961  0.0752 -0.0988
20426SOL    HW173337   8.444   2.852   8.573  0.7505  1.8398 -1.5003
20426SOL    HW273338   8.518   2.710   8.539 -1.5067 -0.2267  1.8602
20427SOL     OW73339   2.959   1.939  10.080  0.4267  0.2766 -1.0151
20427SOL    HW173340   3.031   1.890  10.031 -0.4404  0.7088 -2.7879
20427SOL    HW273341   2.965   2.036  10.059 -0.0304  0.4566 -0.3296
20428SOL     OW73342   9.354   9.272   1.476 -0.0940  0.0961 -0.0957
20428SOL    HW173343   9.343   9.314   1.566 -2.1872  0.5265 -0.5397
20428SOL    HW273344   9.451   9.265   1.454  0.5832 -1.9550  3.1240
20429SOL     OW73345   1.739   4.027   5.295  0.2322 -0.4186 -0.6406
20429SOL    HW173346   1.654   4.058   5.254  0.0900  0.1779  0.0981
20429SOL    HW273347   1.724   3.942   5.346  0.5032 -1.4095 -2.1834
20430SOL     OW73348   2.769   2.934   1.319 -0.5263  0.1604  0.5966
20430SOL    HW173349   2.845   2.970   1.374  0.7902 -1.8799  0.1841
20430SOL    HW273350   2.766   2.834   1.328 -0.6484 -0.1845 -2.5253
20431SOL     OW73351   8.637   7.331   9.447 -0.0332 -0.5754  0.2871
20431SOL    HW173352   8.677   7.412   9.491  0.9403 -1.4478  1.0544
20431SOL    HW273353   8.558   7.358   9.392  0.5625  0.9583  0.1544
20432SOL     OW73354   0.975   3.056   9.371  0.1247  0.5140  0.0664
20432SOL    HW173355   1.000   3.147   9.341  0.8167  0.9505  1.8968
20432SOL    HW273356   0.985   2.991   9.296  1.7401  1.5675 -0.6362
20433SOL     OW73357   2.395   9.916   3.748 -0.1246 -0.0789 -0.6965
20433SOL    HW173358   2.485   9.880   3.724  1.0638  0.6132  2.4439
20433SOL    HW273359   2.370   9.884   3.839 -0.5484  4.1164  0.7881
20434SOL     OW73360   2.048   3.331   3.904  0.4102 -0.4534 -0.3705
20434SOL    HW173361   2.006   3.381   3.829  0.1995  0.0381  0.0680
20434SOL    HW273362   2.094   3.395   3.965  0.7432 -0.8673 -0.1870
20435SOL     OW73363   5.431   0.962   1.762 -0.0274 -0.3429 -0.1690
20435SOL    HW173364   5.458   0.867   1.744 -1.0017 -0.7645  0.5451
20435SOL    HW273365   5.376   0.965   1.846  0.5313  0.9435  0.1599
20436SOL     OW73366   9.135   5.065   9.186 -0.6610  0.4655  0.5675
20436SOL    HW173367   9.057   5.021   9.142 -0.7698 -0.6872  1.8828
20436SOL    HW273368   9.220   5.030   9.146 -0.7549 -0.6858  1.3547
20437SOL     OW73369   7.916   4.123   0.336 -0.2492 -0.0337 -0.5852
20437SOL    HW173370   7.853   4.049   0.357 -0.1476  0.3459  1.1311
20437SOL    HW273371   7.874   4.184   0.268 -1.5243 -0.0817  0.1297
20438SOL     OW73372   0.515   7.385   5.793  0.7785  0.3075  0.6427
20438SOL    HW173373   0.568   7.323   5.851 -0.4008  0.0487  1.4612
20438SOL    HW273374   0.458   7.332   5.730  1.9668  0.5873 -0.6873
20439SOL     OW73375   7.451   1.283   3.337 -0.8928 -0.2720 -0.1156
20439SOL    HW173376   7.365   1.326   3.312 -0.7090  0.1379 -0.0491
20439SOL    HW273377   7.507   1.348   3.388 -0.4587 -0.4683 -0.3390
20440SOL     OW73378   7.778   3.848   7.958  0.2223  0.3044 -0.1970
20440SOL    HW173379   7.687   3.878   7.926  0.1208  1.1827  0.8911
20440SOL    HW273380   7.771   3.756   7.996  0.0171 -0.0803 -1.1288
20441SOL     OW73381   1.986   3.826   2.523  0.4424 -0.0591 -0.2810
20441SOL    HW173382   1.998   3.919   2.557 -0.2802 -0.3089  0.6745
20441SOL    HW273383   1.889   3.810   2.502  0.4845 -0.7494  0.0361
20442SOL     OW73384   6.442   0.559   5.033  0.2669  0.2710  0.2028
20442SOL    HW173385   6.485   0.541   4.944 -0.9712  1.3901 -0.6467
20442SOL    HW273386   6.435   0.657   5.048  0.5581  0.0903  1.5974
20443SOL     OW73387   8.777   5.342   7.849 -0.5123  0.0524 -0.0146
20443SOL    HW173388   8.681   5.372   7.849 -0.5712 -0.1285 -0.4712
20443SOL    HW273389   8.780   5.243   7.865 -0.2936  0.3727  2.0113
20444SOL     OW73390   0.274   3.925   1.428 -0.3656 -0.0723  0.2697
20444SOL    HW173391   0.317   4.005   1.469  0.6201 -1.2062  1.5109
20444SOL    HW273392   0.283   3.930   1.328  0.5552  0.8795  0.3868
20445SOL     OW73393   1.978   2.145   6.638  0.4511 -0.1712 -0.1981
20445SOL    HW173394   2.003   2.092   6.719 -0.0904  1.5314  1.1318
20445SOL    HW273395   1.895   2.198   6.657  0.7468  0.8340 -1.6030
20446SOL     OW73396   7.113   9.388   2.034  1.0949 -0.4115 -0.3841
20446SOL    HW173397   7.062   9.325   2.093  1.0032  1.6175  1.7709
20446SOL    HW273398   7.211   9.376   2.048  1.0843 -0.2246 -0.1663
20447SOL     OW73399   3.643   4.066   7.990 -0.0461 -0.1248  0.0090
20447SOL    HW173400   3.678   4.098   7.902 -1.6254 -0.8897 -0.9086
20447SOL    HW273401   3.697   4.107   8.064 -0.0957  2.2613 -1.2254
20448SOL     OW73402   6.851   1.360   1.241 -0.4702 -0.5194  0.0924
20448SOL    HW173403   6.763   1.382   1.200 -1.6513 -2.2020  1.6861
20448SOL    HW273404   6.924   1.388   1.179 -2.0520  2.0599 -0.7087
20449SOL     OW73405   0.799   5.740   8.342  0.3949 -0.3569  0.3691
20449SOL    HW173406   0.752   5.824   8.316  0.6751 -0.8850 -1.9295
20449SOL    HW273407   0.733   5.674   8.378 -0.3465 -0.4143 -1.0743
20450SOL     OW73408   7.333   5.128   1.267 -0.2883  0.1153  0.4725
20450SOL    HW173409   7.293   5.115   1.177  1.3655 -1.9115 -0.0005
20450SOL    HW273410   7.297   5.058   1.330 -1.3646  1.4566  1.3897
20451SOL     OW73411   0.458   4.647   3.722 -0.9271  0.7663 -0.1444
20451SOL    HW173412   0.463   4.737   3.680  0.1774 -0.0505 -1.8128
20451SOL    HW273413   0.548   4.604   3.720 -1.7362 -0.9310 -0.6143
20452SOL     OW73414   2.019   6.884   7.500  0.1147 -0.5258 -0.4193
20452SOL    HW173415   2.058   6.889   7.408  0.3367 -0.1764 -0.3074
20452SOL    HW273416   1.955   6.960   7.513 -0.4387 -0.9716 -0.5248
20453SOL     OW73417   3.519   0.314   1.869  0.0762 -0.1232  0.4297
20453SOL    HW173418   3.555   0.240   1.812  0.5615 -0.1756  0.7910
20453SOL    HW273419   3.502   0.395   1.813 -1.0296 -0.6995 -0.0676
20454SOL     OW73420   9.645   7.930   7.578  0.0037  0.1869 -0.3656
20454SOL    HW173421   9.632   8.025   7.604 -3.0619 -0.2927  0.0842
20454SOL    HW273422   9.678   7.878   7.657  0.8565  0.6955 -0.3809
20455SOL     OW73423   8.776   6.157   8.564 -0.2632 -0.4359 -0.3503
20455SOL    HW173424   8.735   6.102   8.490 -2.0732  0.9259 -0.3827
20455SOL    HW273425   8.709   6.221   8.600  1.7452  1.6477 -0.1571
20456SOL     OW73426   9.413   2.079   8.430  0.0602 -0.1464 -0.5115
20456SOL    HW173427   9.440   2.087   8.526 -1.1387 -0.3381 -0.1481
20456SOL    HW273428   9.440   1.989   8.395 -0.3839 -0.4519 -0.0698
20457SOL     OW73429   0.361   0.022   0.747  0.1287 -0.4604 -0.3213
20457SOL    HW173430   0.297  -0.055   0.755 -0.1253 -0.3369 -1.1620
20457SOL    HW273431   0.440  -0.006   0.693 -1.1549  0.6095 -2.8303
20458SOL     OW73432   7.596   1.109   4.576  0.3747 -0.0628 -0.3029
20458SOL    HW173433   7.662   1.183   4.563  0.7910 -0.1218  1.4251
20458SOL    HW273434   7.532   1.133   4.648  0.3346 -1.2561  0.0686
20459SOL     OW73435   4.244   3.702   7.566  0.1849  0.2866  0.1317
20459SOL    HW173436   4.176   3.771   7.592  1.6541  1.8030  0.0323
20459SOL    HW273437   4.197   3.618   7.539 -1.6128  0.9673  1.0243
20460SOL     OW73438   6.191   2.658   3.562  0.5552 -0.4303 -0.2637
20460SOL    HW173439   6.186   2.595   3.639 -0.6657 -1.2549 -1.0130
20460SOL    HW273440   6.277   2.709   3.567  0.7130 -0.8183  1.3669
20461SOL     OW73441   8.011   6.581   1.234 -0.1554  0.2152  0.4043
20461SOL    HW173442   8.000   6.611   1.329  0.3538  0.9829  0.2233
20461SOL    HW273443   8.055   6.653   1.181  1.9024 -1.2150  0.1440
20462SOL     OW73444   1.942   5.639   4.938  0.1053  0.5993 -0.4946
20462SOL    HW173445   1.874   5.639   5.011  0.6457  1.0307  0.0176
20462SOL    HW273446   2.029   5.673   4.974  0.7233 -0.4069 -1.0199
20463SOL     OW73447   7.865   1.925   0.071  0.3366 -0.1496  0.1297
20463SOL    HW173448   7.890   2.019   0.049 -0.2216  0.4455  1.9993
20463SOL    HW273449   7.765   1.916   0.071  0.3648 -0.4808  1.0321
20464SOL     OW73450   6.282   8.367   4.833 -0.5770 -0.4627  0.5886
20464SOL    HW173451   6.358   8.419   4.873  0.9489  0.0588 -2.8391
20464SOL    HW273452   6.205   8.429   4.815 -0.4719 -0.2997  0.6965
20465SOL     OW73453   2.536   7.093   0.407 -0.3139 -0.4609 -0.0090
20465SOL    HW173454   2.577   7.083   0.317 -1.9064 -0.9877 -0.6857
20465SOL    HW273455   2.452   7.039   0.413  0.8832 -2.1491  2.5162
20466SOL     OW73456   7.272   9.204   3.544 -0.2346 -0.2230 -1.2020
20466SOL    HW173457   7.255   9.120   3.493 -0.3778 -0.4997 -0.6959
20466SOL    HW273458   7.186   9.243   3.574 -0.1176 -0.3531 -0.6953
20467SOL     OW73459   5.191   6.602   2.768 -0.4685 -0.0349 -0.8431
20467SOL    HW173460   5.274   6.637   2.726 -0.4249  0.2970 -0.4782
20467SOL    HW273461   5.115   6.664   2.749 -0.4699  0.0643 -0.5187
20468SOL     OW73462   4.862   8.719   6.861  0.1986  0.4822 -0.0354
20468SOL    HW173463   4.859   8.656   6.783 -0.6141  0.9983 -0.4308
20468SOL    HW273464   4.870   8.667   6.946 -1.5013 -0.2038 -0.2796
20469SOL     OW73465   8.933   1.306   1.019 -0.2867  0.2357  0.1776
20469SOL    HW173466   8.886   1.323   1.106 -0.4678  1.0395 -0.0668
20469SOL    HW273467   8.936   1.391   0.966  1.5476  0.2193  0.2245
20470SOL     OW73468   4.973   7.763   5.110  0.2652 -0.0184  0.7544
20470SOL    HW173469   4.952   7.826   5.184  1.8772  0.2323  1.0145
20470SOL    HW273470   4.900   7.767   5.041  0.0038  1.6104  1.1036
20471SOL     OW73471   5.913   8.499   3.887  0.0994 -0.3939 -0.1234
20471SOL    HW173472   5.874   8.407   3.873 -1.3964 -0.0483  1.5931
20471SOL    HW273473   5.845   8.557   3.931 -0.1055  2.5003 -4.0232
20472SOL     OW73474   2.485   8.553   0.444  0.1504 -0.1678  0.1296
20472SOL    HW173475   2.488   8.465   0.398 -0.8733  0.2390 -0.7611
20472SOL    HW273476   2.439   8.543   0.532 -1.0194 -0.3207 -0.4860
20473SOL     OW73477   8.733   7.476   7.034 -0.0667 -0.3235  0.4461
20473SOL    HW173478   8.678   7.528   6.969 -0.7814 -1.7431 -0.0986
20473SOL    HW273479   8.830   7.497   7.020 -0.3247  0.5510 -0.0329
20474SOL     OW73480   0.879   8.117   9.054 -0.0423 -0.0402 -0.5279
20474SOL    HW173481   0.965   8.135   9.102 -0.3309  2.0815 -0.7603
20474SOL    HW273482   0.809   8.181   9.086 -1.1991 -0.9094 -1.2623
20475SOL     OW73483   6.914   3.862   2.961 -0.3039  0.2984  0.2938
20475SOL    HW173484   6.954   3.924   3.029  0.2259  0.8931 -0.5545
20475SOL    HW273485   6.986   3.825   2.902 -0.7875 -0.0303 -0.0972
20476SOL     OW73486   9.003   1.974   8.210  0.0163  0.1120 -0.1382
20476SOL    HW173487   9.012   1.886   8.162  0.6853 -0.0081  0.2010
20476SOL    HW273488   9.076   1.983   8.277  1.9993  2.3967 -2.4753
20477SOL     OW73489   3.069   2.116   3.613 -0.0186 -0.2698 -0.3088
20477SOL    HW173490   3.108   2.097   3.703  1.5759 -0.7915 -1.0904
20477SOL    HW273491   3.128   2.077   3.542 -1.0731  0.4331 -1.5978
20478SOL     OW73492   3.961   7.291   1.913 -0.2151 -0.3413 -0.3896
20478SOL    HW173493   3.997   7.335   1.995 -1.1958  2.5267 -1.4162
20478SOL    HW273494   4.022   7.218   1.884  0.4322 -1.0207  2.5498
20479SOL     OW73495   9.461   7.944   7.095  0.3822 -0.0658 -0.3369
20479SOL    HW173496   9.415   7.892   7.023 -1.1633  3.3782 -1.9543
20479SOL    HW273497   9.407   7.941   7.179  0.7029 -1.6655 -0.1743
20480SOL     OW73498   2.847   3.501   3.539  0.2516 -0.2232 -0.2661
20480SOL    HW173499   2.900   3.504   3.455 -0.2153 -0.5030 -0.5719
20480SOL    HW273500   2.757   3.462   3.521 -0.2721  0.7907  0.1387
20481SOL     OW73501   1.090   7.375   0.934  0.0047 -0.1370 -0.5580
20481SOL    HW173502   1.172   7.377   0.877  1.5529 -0.5765  1.6025
20481SOL    HW273503   1.103   7.433   1.014 -1.8338 -0.1289 -0.2515
20482SOL     OW73504   5.778   6.018   0.701  0.0817 -0.0452 -0.0868
20482SOL    HW173505   5.853   6.074   0.666  1.2789 -1.5821 -0.0070
20482SOL    HW273506   5.810   5.926   0.719 -1.5058 -0.3671  1.2597
20483SOL     OW73507   8.100   2.679   5.804  0.1610 -0.2683 -0.6089
20483SOL    HW173508   8.070   2.773   5.786  0.6069  0.2069  1.0472
20483SOL    HW273509   8.069   2.620   5.730 -0.5172  1.1059 -1.4492
20484SOL     OW73510   4.280   9.645   3.400  0.0211 -0.4962  0.5288
20484SOL    HW173511   4.358   9.667   3.459 -0.1388 -1.8317  1.2468
20484SOL    HW273512   4.229   9.569   3.439 -2.1616  0.9275  0.5155
20485SOL     OW73513   7.144   8.731   1.994 -0.3549  0.3581  0.2740
20485SOL    HW173514   7.192   8.673   2.060 -0.6163 -1.9021 -1.4784
20485SOL    HW273515   7.091   8.800   2.043 -0.3371 -1.1169  2.4174
20486SOL     OW73516   0.356   3.799   4.919  0.3092 -0.7608  0.0753
20486SOL    HW173517   0.294   3.760   4.852  0.6158 -0.6685 -0.2616
20486SOL    HW273518   0.331   3.894   4.938 -0.8165 -1.2945  1.3513
20487SOL     OW73519   3.101   4.288   7.822 -0.3295 -0.7745  0.2189
20487SOL    HW173520   3.156   4.275   7.905  0.4012  0.9587  0.0377
20487SOL    HW273521   3.025   4.349   7.843  0.2697  0.2555 -0.5437
20488SOL     OW73522   9.836   0.162   1.857  0.0997  0.2475 -0.0358
20488SOL    HW173523   9.848   0.087   1.922  1.8933 -0.1093 -0.7545
20488SOL    HW273524   9.784   0.235   1.901  0.1947 -0.5097  1.3834
20489SOL     OW73525   5.239   4.768   9.518  0.0505 -0.2888 -0.3382
20489SOL    HW173526   5.211   4.840   9.454  0.6410  0.6818  0.5003
20489SOL    HW273527   5.301   4.805   9.586 -0.3225 -1.3978  0.6261
20490SOL     OW73528   8.385   3.582   0.859  0.0115 -0.5372 -0.6652
20490SOL    HW173529   8.412   3.653   0.794 -0.9024  1.6985  1.3028
20490SOL    HW273530   8.285   3.580   0.868  0.1498 -0.1612  1.3061
20491SOL     OW73531   7.189   2.367   8.461  0.0526 -0.2150 -0.2014
20491SOL    HW173532   7.094   2.371   8.431  0.3596  0.7217 -1.0694
20491SOL    HW273533   7.225   2.460   8.471  0.5765 -0.5414  1.1226
20492SOL     OW73534   0.579   6.933   5.211  0.0505  0.1083 -0.7538
20492SOL    HW173535   0.486   6.969   5.208  0.7500  1.8624 -2.7533
20492SOL    HW273536   0.604   6.913   5.306 -2.0688  0.3669 -0.1189
20493SOL     OW73537   1.430   4.449   2.024 -0.1979 -0.1988  0.0508
20493SOL    HW173538   1.408   4.503   1.943  0.8689  0.4427  0.1826
20493SOL    HW273539   1.482   4.505   2.089 -1.7999 -0.4093  1.5875
20494SOL     OW73540   5.173   4.324   7.498 -0.4911  0.1280  0.0868
20494SOL    HW173541   5.098   4.318   7.432 -1.4609 -0.8342  1.2219
20494SOL    HW273542   5.168   4.244   7.559  1.6985 -0.1368 -0.0670
20495SOL     OW73543   6.967   1.747   3.863 -0.1581  0.2122  0.3717
20495SOL    HW173544   7.047   1.797   3.896 -0.8981  0.7669  1.3624
20495SOL    HW273545   6.913   1.716   3.941 -0.5913 -0.6967 -0.2802
20496SOL     OW73546   4.616   7.394   3.710 -0.7673  0.2546 -0.1726
20496SOL    HW173547   4.569   7.410   3.623 -1.6628  0.6327  0.3657
20496SOL    HW273548   4.592   7.304   3.746 -0.4415  0.1204 -0.2991
20497SOL     OW73549   4.611   2.512   9.726 -0.4951 -0.1712 -0.0012
20497SOL    HW173550   4.666   2.432   9.705  1.0577  1.0317 -0.6043
20497SOL    HW273551   4.560   2.496   9.811  0.7237 -1.3278  0.5310
20498SOL     OW73552   9.075   4.446   7.073 -0.0606  0.2815  0.1463
20498SOL    HW173553   8.999   4.380   7.070 -0.0624  0.3179 -0.7215
20498SOL    HW273554   9.048   4.530   7.026 -0.3902  1.2691  2.0479
20499SOL     OW73555   9.540   6.601   9.164 -0.1042 -0.1777  0.2649
20499SOL    HW173556   9.615   6.667   9.156 -1.7295  1.9350  2.1416
20499SOL    HW273557   9.467   6.625   9.100  0.3573 -1.6933 -0.8844
20500SOL     OW73558   5.509   3.490   2.062 -0.3370 -0.4379 -0.4994
20500SOL    HW173559   5.553   3.468   1.974  2.5840  1.2748  0.4422
20500SOL    HW273560   5.420   3.532   2.045  0.9892  1.6726 -2.7987
20501SOL     OW73561   9.341   6.990   1.387 -0.4850  0.4920 -0.2535
20501SOL    HW173562   9.294   6.902   1.378  1.5531 -0.6626 -0.0153
20501SOL    HW273563   9.417   6.980   1.453 -0.8653  2.6995  0.5545
20502SOL     OW73564   6.995   8.373   5.925  0.1235 -0.2789  0.3774
20502SOL    HW173565   7.030   8.466   5.918  1.2218 -0.6485  0.7426
20502SOL    HW273566   7.072   8.310   5.939 -0.6954 -1.1280  1.0834
20503SOL     OW73567   5.722   7.310   4.326 -0.4195  0.1333 -0.1839
20503SOL    HW173568   5.778   7.327   4.406  0.5481 -0.6399 -0.6826
20503SOL    HW273569   5.760   7.233   4.274 -0.2569  1.4652 -2.0893
20504SOL     OW73570   4.466   6.069   2.703  0.7020 -0.0245 -0.4635
20504SOL    HW173571   4.394   6.002   2.687 -0.7760  1.7349 -1.2313
20504SOL    HW273572   4.517   6.043   2.786 -1.8474 -0.3856  1.0281
20505SOL     OW73573   9.648   9.627   8.921 -0.1744 -0.2821 -0.1806
20505SOL    HW173574   9.692   9.553   8.870  1.9684  2.7033 -2.8716
20505SOL    HW273575   9.580   9.671   8.863  0.3247  1.4008  0.4681
20506SOL     OW73576   3.732   4.332   0.757 -0.3460 -0.0386 -0.2296
20506SOL    HW173577   3.686   4.263   0.812  0.5047 -1.5731 -1.3805
20506SOL    HW273578   3.820   4.356   0.799 -0.5248  0.1460  0.0360
20507SOL     OW73579   2.271   1.960   8.261  0.3765  0.2130  0.5043
20507SOL    HW173580   2.326   2.009   8.194  1.5497 -0.3341  1.0544
20507SOL    HW273581   2.261   1.865   8.234  0.3075  0.1448  0.7642
20508SOL     OW73582   6.424   1.983   1.796 -0.4073 -0.5559  0.6163
20508SOL    HW173583   6.360   2.060   1.794 -0.1907 -0.3578  1.0549
20508SOL    HW273584   6.465   1.970   1.706 -0.8475 -0.4971  0.4094
20509SOL     OW73585   0.702   6.160   2.094  0.1203 -0.7089  0.2212
20509SOL    HW173586   0.695   6.249   2.048 -2.2969 -1.3919 -0.8191
20509SOL    HW273587   0.735   6.173   2.187  3.1151  0.9146 -0.9999
20510SOL     OW73588   9.179   6.642   2.274 -0.1703 -0.5138 -0.3321
20510SOL    HW173589   9.254   6.699   2.307 -1.2397  0.5580  0.2719
20510SOL    HW273590   9.111   6.632   2.346 -2.0477  1.0168 -1.8614
20511SOL     OW73591   8.882   8.377   0.525  0.3619 -0.3551 -0.0036
20511SOL    HW173592   8.923   8.286   0.521  0.8900 -0.0809 -0.9322
20511SOL    HW273593   8.917   8.426   0.605 -0.8399 -1.3900  1.1986
20512SOL     OW73594   3.650   1.456   9.854 -0.2947  0.5787  0.2509
20512SOL    HW173595   3.631   1.502   9.767 -0.3336  0.1363  0.0203
20512SOL    HW273596   3.733   1.493   9.895 -1.0334  1.7524  0.7123
20513SOL     OW73597   1.825   1.424   0.670 -0.0607 -0.3236 -0.3682
20513SOL    HW173598   1.731   1.408   0.639 -1.4783  2.4012  2.2146
20513SOL    HW273599   1.843   1.369   0.751  1.0335 -1.7085 -1.5125
20514SOL     OW73600   8.049   5.476   3.773  0.1667 -0.3457  0.3253
20514SOL    HW173601   8.005   5.457   3.860  2.2024 -1.0720  1.2156
20514SOL    HW273602   8.086   5.392   3.735  0.1851  0.1370 -0.7608
20515SOL     OW73603   9.974   2.362   9.228 -0.3942 -0.3738 -0.1949
20515SOL    HW173604  10.065   2.400   9.208 -0.6562  0.2614 -0.2018
20515SOL    HW273605   9.980   2.300   9.306 -0.1819  0.6909  0.6586
20516SOL     OW73606   3.233   8.070   4.214 -0.2273 -0.9626 -0.1104
20516SOL    HW173607   3.223   8.010   4.294  1.1289  2.5114  2.8266
20516SOL    HW273608   3.146   8.075   4.165 -1.0013 -3.4300  0.9393
20517SOL     OW73609   0.769   1.988   0.894 -0.0326 -0.0354 -0.2020
20517SOL    HW173610   0.862   1.996   0.857  0.1854  0.6606  0.4799
20517SOL    HW273611   0.709   2.052   0.847  0.4130  1.4052  1.1634
20518SOL     OW73612   4.776   2.222   6.980 -0.2406  0.8041  0.7334
20518SOL    HW173613   4.874   2.214   6.966 -0.2844 -0.3601  1.0214
20518SOL    HW273614   4.732   2.252   6.895  0.3724  1.5169  0.6591
20519SOL     OW73615   3.819   1.517   0.822  0.3692 -0.2130 -0.3587
20519SOL    HW173616   3.826   1.575   0.741  0.2807  0.0055 -0.2098
20519SOL    HW273617   3.723   1.500   0.842  0.3305  1.4140  0.9004
20520SOL     OW73618   2.526   5.349   2.769 -0.4563  0.1968  0.5136
20520SOL    HW173619   2.504   5.419   2.837 -0.9099 -1.0862  1.7014
20520SOL    HW273620   2.445   5.329   2.715 -0.2479  0.7850 -0.0335
20521SOL     OW73621   7.760   1.481   1.495 -0.3245 -0.1117 -0.5791
20521SOL    HW173622   7.706   1.436   1.567 -0.2210  0.2204 -0.2959
20521SOL    HW273623   7.848   1.435   1.487 -0.1658  0.1201 -0.1960
20522SOL     OW73624   8.881   1.703   4.868  0.4697 -0.0294  0.1629
20522SOL    HW173625   8.944   1.776   4.896  0.3516  1.1223 -2.4489
20522SOL    HW273626   8.917   1.615   4.899  1.1259  1.0186  2.4841
20523SOL     OW73627   4.896   3.608   7.960 -0.4963  0.5808 -0.2845
20523SOL    HW173628   4.966   3.543   7.930 -0.4931 -1.0830  3.1409
20523SOL    HW273629   4.940   3.683   8.010 -1.0394  0.0564  0.9957
20524SOL     OW73630   3.348   4.322   5.974  0.7680 -0.1233  0.5599
20524SOL    HW173631   3.366   4.400   6.034  1.2311  1.2056 -1.2815
20524SOL    HW273632   3.307   4.248   6.028 -0.3129  1.6181  2.1863
20525SOL     OW73633   9.540   6.512   7.580 -0.3768  0.0804 -0.2594
20525SOL    HW173634   9.621   6.456   7.563  0.1891  1.1162 -1.0298
20525SOL    HW273635   9.489   6.523   7.495 -1.1943 -0.3376  0.1651
20526SOL     OW73636   5.875   8.321   2.191 -0.2162  0.0734  1.1759
20526SOL    HW173637   5.874   8.232   2.147 -0.0564  0.7231 -0.1593
20526SOL    HW273638   5.964   8.364   2.178 -1.2733  1.7326 -0.8790
20527SOL     OW73639   3.680   9.817   4.904 -0.7351  0.0773  0.4270
20527SOL    HW173640   3.659   9.887   4.836 -0.9760  0.5453  0.9801
20527SOL    HW273641   3.675   9.726   4.862 -0.8232  0.3674 -0.1889
20528SOL     OW73642   0.667   9.518   0.956  0.0168  0.2765 -0.0499
20528SOL    HW173643   0.725   9.463   0.897  0.6792  1.6784 -0.7354
20528SOL    HW273644   0.725   9.578   1.012 -0.7441  1.5161 -0.5718
20529SOL     OW73645   8.921   4.943   1.385 -0.1130 -0.4281 -0.3013
20529SOL    HW173646   8.917   5.017   1.318 -0.3089 -0.8654 -0.7810
20529SOL    HW273647   8.966   4.975   1.468 -0.3437  0.2729 -0.4420
20530SOL     OW73648   3.319   1.278   1.577  0.2930  0.4574 -0.3198
20530SOL    HW173649   3.294   1.283   1.674  0.3388 -0.8332 -0.2410
20530SOL    HW273650   3.253   1.331   1.524 -1.3355 -1.0737  0.1327
20531SOL     OW73651   9.663   7.762   0.605  0.5225  0.2274 -0.6516
20531SOL    HW173652   9.727   7.771   0.682  0.5774  0.3611 -0.7120
20531SOL    HW273653   9.640   7.853   0.571 -0.3593  0.2208 -0.0838
20532SOL     OW73654   3.868   3.974   3.498  0.2965  0.1319  0.2592
20532SOL    HW173655   3.957   3.950   3.537 -1.3819 -2.3077  2.7791
20532SOL    HW273656   3.819   4.033   3.562 -0.6117 -0.0089 -0.3028
20533SOL     OW73657   2.917   4.034   7.993 -0.5654  0.1219 -0.2588
20533SOL    HW173658   2.820   4.057   7.998 -0.3948  0.5435  1.6215
20533SOL    HW273659   2.970   4.104   8.041  0.6894 -0.0369 -1.3817
20534SOL     OW73660   8.695   2.959   8.757 -0.3100  0.3683 -0.1140
20534SOL    HW173661   8.793   2.971   8.744 -0.6451  0.9863 -2.3873
20534SOL    HW273662   8.665   3.007   8.839  1.3080  0.0789  0.6485
20535SOL     OW73663   1.434   9.125   9.050  0.0411  0.1948  0.0243
20535SOL    HW173664   1.376   9.207   9.049 -0.4791 -0.1680  0.5180
20535SOL    HW273665   1.378   9.045   9.068  0.3024 -0.4674 -1.9729
20536SOL     OW73666   2.236   6.468   6.308 -0.0765 -0.2055 -0.4185
20536SOL    HW173667   2.185   6.383   6.300 -1.7751  0.7443  0.1083
20536SOL    HW273668   2.329   6.455   6.272 -0.4749 -2.1201 -0.7915
20537SOL     OW73669   0.041   0.095   5.066  0.4501  0.5651  0.3982
20537SOL    HW173670   0.049  -0.004   5.079  0.7961  0.7289  1.4832
20537SOL    HW273671  -0.055   0.121   5.072  0.5721  0.6266  2.7805
20538SOL     OW73672   2.918   0.472   0.481 -0.2304  0.0480 -0.1225
20538SOL    HW173673   2.936   0.398   0.416 -0.0085  0.2374 -0.2785
20538SOL    HW273674   2.819   0.483   0.492 -0.2771  0.4119 -0.8801
20539SOL     OW73675   8.487   4.408   0.662 -0.6747 -0.5430  0.1752
20539SOL    HW173676   8.426   4.354   0.605 -0.4954  1.1707 -1.6861
20539SOL    HW273677   8.433   4.458   0.730 -0.9907 -1.7965  0.8537
20540SOL     OW73678   9.885   8.632   1.819 -0.1271 -0.0853 -0.1311
20540SOL    HW173679   9.824   8.671   1.888  1.7094  0.9644  0.9567
20540SOL    HW273680   9.938   8.704   1.776 -0.1937 -0.9008 -1.6205
20541SOL     OW73681   8.360   2.192   3.290  0.3026  0.1034 -0.1203
20541SOL    HW173682   8.317   2.112   3.247  0.4838  0.3672 -0.8063
20541SOL    HW273683   8.456   2.172   3.307  0.0660 -0.2502  0.8045
20542SOL     OW73684   5.598   7.293   2.085 -0.2880  0.1953  0.1627
20542SOL    HW173685   5.540   7.245   2.150 -0.4615 -0.3752 -0.4042
20542SOL    HW273686   5.691   7.256   2.091 -0.3095  0.1243  0.0762
20543SOL     OW73687   1.894   8.616   0.076  0.0373 -0.5298  0.4381
20543SOL    HW173688   1.875   8.518   0.065 -1.3275 -0.4012  1.5635
20543SOL    HW273689   1.993   8.631   0.071  0.3115 -2.0562  0.9902
20544SOL     OW73690   5.291   9.624   1.296 -0.2111 -0.2745  0.2497
20544SOL    HW173691   5.274   9.661   1.387 -1.1804 -2.5414  1.0139
20544SOL    HW273692   5.310   9.526   1.302 -2.4347 -0.9279 -2.1547
20545SOL     OW73693   7.477   4.883   6.957  0.7549 -0.0451 -0.0046
20545SOL    HW173694   7.399   4.821   6.971 -0.9778  2.0590 -0.2265
20545SOL    HW273695   7.485   4.906   6.861 -0.0934  1.9805  0.3976
20546SOL     OW73696   1.504   1.089   5.076  0.1448  0.0138 -0.2037
20546SOL    HW173697   1.483   1.050   5.165 -0.2177  1.1468  0.2220
20546SOL    HW273698   1.461   1.179   5.068 -0.9874 -0.6667 -2.0657
20547SOL     OW73699   2.373   9.359   0.164 -0.0796  0.0266  0.1950
20547SOL    HW173700   2.412   9.446   0.134  3.5385 -1.5148  0.2800
20547SOL    HW273701   2.393   9.345   0.261 -1.8325 -0.3110  0.5255
20548SOL     OW73702   8.715   8.236   3.442 -0.3646  0.6504 -0.5198
20548SOL    HW173703   8.773   8.243   3.361 -0.4806 -0.2532 -0.6839
20548SOL    HW273704   8.771   8.231   3.524 -0.1906 -0.9360 -0.7298
20549SOL     OW73705   2.243   0.610   0.283  0.3993 -0.0346 -0.7333
20549SOL    HW173706   2.232   0.513   0.264 -0.0054 -0.1975  0.2999
20549SOL    HW273707   2.310   0.622   0.356  2.2089  0.5994 -2.4267
20550SOL     OW73708   1.395   3.961   2.064  0.7814 -0.4497 -0.1230
20550SOL    HW173709   1.338   4.001   2.136  0.2323  0.9724 -1.3227
20550SOL    HW273710   1.486   3.941   2.101  1.3825  2.8114  0.3106
20551SOL     OW73711   7.583   1.350   7.337  0.5084 -0.2085  0.4108
20551SOL    HW173712   7.588   1.281   7.410 -0.1959  0.2151  0.8693
20551SOL    HW273713   7.578   1.441   7.378  2.3833  0.1813 -0.2062
20552SOL     OW73714   9.103   5.365   1.929 -0.6467  0.2474 -0.0127
20552SOL    HW173715   9.023   5.320   1.967 -1.1594  0.9333 -0.2685
20552SOL    HW273716   9.125   5.446   1.982 -0.6745  0.5679 -0.4824
20553SOL     OW73717   7.744   7.512   0.614 -0.7761  0.2518  0.4684
20553SOL    HW173718   7.783   7.555   0.533  0.8679  2.7507  2.5223
20553SOL    HW273719   7.697   7.428   0.588 -1.2575  1.5918 -3.2167
20554SOL     OW73720   2.513   0.108   4.165  0.2303 -0.3214  0.0622
20554SOL    HW173721   2.470   0.193   4.135 -0.1470 -0.4612  0.2026
20554SOL    HW273722   2.602   0.128   4.207  0.6668 -0.1047 -0.9419
20555SOL     OW73723   6.641   0.986   6.197  0.2251  0.1317 -0.4913
20555SOL    HW173724   6.567   1.050   6.215  0.8231  1.1067 -1.4883
20555SOL    HW273725   6.702   0.982   6.277 -0.0546  0.4593 -0.2616
20556SOL     OW73726   0.954   8.624   7.273  0.0837  0.1251 -0.4598
20556SOL    HW173727   0.998   8.638   7.362  0.6746 -2.0807 -0.3775
20556SOL    HW273728   0.959   8.708   7.220  0.8584  1.0846  1.0968
20557SOL     OW73729   2.698   4.523   6.548 -0.6232 -0.0780  0.0714
20557SOL    HW173730   2.754   4.558   6.624 -0.7044  0.4431 -0.1129
20557SOL    HW273731   2.704   4.585   6.470  0.5833 -1.3283 -0.8509
20558SOL     OW73732   2.965   9.238   9.625  0.4839  0.2710  0.0766
20558SOL    HW173733   2.984   9.321   9.572  1.4877  0.2256  0.3443
20558SOL    HW273734   3.039   9.172   9.609 -0.4120 -0.6510 -0.2938
20559SOL     OW73735   8.319   5.439   2.291 -0.2192 -0.0019  0.7630
20559SOL    HW173736   8.222   5.432   2.313 -0.9054  1.7464 -1.5372
20559SOL    HW273737   8.368   5.479   2.369 -1.4839 -0.0801  1.6077
20560SOL     OW73738   7.051   6.663   3.217 -0.1269  0.1981 -0.2184
20560SOL    HW173739   7.034   6.761   3.203  2.8975  0.5241 -2.0894
20560SOL    HW273740   7.002   6.611   3.147 -1.3608  0.3758  0.4924
20561SOL     OW73741   9.407   5.647   7.053 -0.3243 -0.2751  0.4345
20561SOL    HW173742   9.349   5.568   7.071 -0.2242  0.4153  4.2604
20561SOL    HW273743   9.356   5.731   7.076 -0.1352  0.7850 -2.7439
20562SOL     OW73744   3.854   4.254   4.174  0.6225  0.0338  0.5621
20562SOL    HW173745   3.756   4.246   4.194  0.5187  0.1059  0.0908
20562SOL    HW273746   3.869   4.334   4.116  0.9914  0.1650  0.8437
20563SOL     OW73747   6.038   4.125   9.908 -0.1381  0.3898  0.3025
20563SOL    HW173748   6.012   4.134   9.812 -0.7149  0.1689  0.4381
20563SOL    HW273749   6.124   4.173   9.924  1.0668 -1.3508 -0.7857
20564SOL     OW73750   6.874   5.212   1.445 -0.5248 -0.3120  0.2060
20564SOL    HW173751   6.857   5.281   1.516  1.7861 -0.1677  0.6572
20564SOL    HW273752   6.792   5.155   1.434 -2.2611  2.0668  0.2793
20565SOL     OW73753   0.098   2.542   5.258 -0.0712 -0.4750 -1.1139
20565SOL    HW173754   0.009   2.584   5.272  0.3373 -0.1270  0.5819
20565SOL    HW273755   0.153   2.598   5.196  0.0611  0.9095  0.2425
20566SOL     OW73756   5.743   0.109   4.497 -0.7312  0.1841  0.0986
20566SOL    HW173757   5.781   0.089   4.406 -2.7147  1.5625 -1.0846
20566SOL    HW273758   5.685   0.032   4.526 -1.3886  0.4276 -0.5470
20567SOL     OW73759   2.470   6.724   8.133  0.1664 -0.1388  0.4716
20567SOL    HW173760   2.496   6.709   8.038  1.3057  0.7081  0.6213
20567SOL    HW273761   2.523   6.801   8.169 -1.3634  0.5210  1.3371
20568SOL     OW73762   8.454   6.123   2.892  0.0245 -0.2553 -0.0726
20568SOL    HW173763   8.522   6.097   2.823 -0.5989 -0.5571 -0.5819
20568SOL    HW273764   8.455   6.222   2.904  1.0803 -0.3292  0.4734
20569SOL     OW73765   2.261   5.549   2.908 -0.5026 -0.9245 -0.0623
20569SOL    HW173766   2.315   5.579   2.986 -2.3174 -2.1428  1.7408
20569SOL    HW273767   2.320   5.533   2.829  1.4878 -0.5016  1.3264
20570SOL     OW73768   7.372   0.222   1.439 -0.4255  0.3042 -0.7031
20570SOL    HW173769   7.437   0.147   1.451  0.6556  0.9418 -2.3040
20570SOL    HW273770   7.313   0.203   1.362 -1.1552  0.4152 -0.1741
20571SOL     OW73771   7.977   9.457   4.755  0.0101 -0.2104  0.1081
20571SOL    HW173772   7.968   9.497   4.846  0.5488 -0.6088  0.3327
20571SOL    HW273773   7.894   9.405   4.733 -0.1946  0.0350  0.2969
20572SOL     OW73774   8.950   7.086   7.170 -0.1847  0.9007 -0.1315
20572SOL    HW173775   8.868   7.076   7.225 -1.3959  0.9081 -1.8908
20572SOL    HW273776   8.982   7.181   7.175  1.3781  0.2768  2.8004
20573SOL     OW73777   0.266   9.124   8.402 -0.2079  0.3453 -0.6777
20573SOL    HW173778   0.294   9.112   8.497 -1.3790  1.4541 -0.1733
20573SOL    HW273779   0.318   9.062   8.343  1.6859  0.7854  0.4842
20574SOL     OW73780   9.227   1.197   9.115  0.3214  0.2035  0.3258
20574SOL    HW173781   9.309   1.250   9.092  0.9981 -0.6463  0.7664
20574SOL    HW273782   9.147   1.257   9.110  0.7195  0.5969 -1.9538
20575SOL     OW73783   4.427   5.061   2.294 -0.3831  0.1717 -0.0448
20575SOL    HW173784   4.469   5.017   2.215 -0.0888 -0.2773  0.3613
20575SOL    HW273785   4.486   5.136   2.325 -0.3120  0.1047 -0.0160
20576SOL     OW73786   5.960   3.292   2.062 -0.5665  0.3132  0.3290
20576SOL    HW173787   6.014   3.327   1.986 -0.7611  0.3664  0.2162
20576SOL    HW273788   5.913   3.208   2.034 -0.3278  0.1183  0.5104
20577SOL     OW73789   1.981   2.363   7.619 -0.2874  0.1672 -0.2898
20577SOL    HW173790   2.036   2.320   7.691  0.5725  1.3214 -0.2326
20577SOL    HW273791   1.953   2.295   7.552 -1.8617 -1.1108  1.6051
20578SOL     OW73792   2.616   5.195   3.504 -0.1996 -0.2983 -0.5724
20578SOL    HW173793   2.564   5.219   3.423  1.7758 -1.2885 -2.1741
20578SOL    HW273794   2.671   5.113   3.486 -0.0678 -0.8094  1.9083
20579SOL     OW73795   1.845   4.671   3.479 -0.0954 -0.1260  0.1540
20579SOL    HW173796   1.848   4.749   3.416 -1.5800  0.1327  0.3635
20579SOL    HW273797   1.873   4.588   3.431  2.2571  0.6569  0.1417
20580SOL     OW73798   5.283   3.026   9.465 -0.1695  0.1071 -0.3507
20580SOL    HW173799   5.255   3.037   9.560 -1.8844  0.2642 -0.8654
20580SOL    HW273800   5.286   2.928   9.443  2.6593 -0.0528  0.5582
20581SOL     OW73801   1.314   1.611   9.908 -0.1685  0.0323 -0.0993
20581SOL    HW173802   1.268   1.683   9.857  0.8572 -0.9677 -2.5107
20581SOL    HW273803   1.337   1.644   9.999  1.0480  3.0617 -1.4400
20582SOL     OW73804   0.466   3.676   8.163 -0.2042 -0.1982 -0.5016
20582SOL    HW173805   0.421   3.752   8.210 -1.0965 -0.8491 -0.2850
20582SOL    HW273806   0.483   3.602   8.228 -0.0848 -0.5143 -0.8910
20583SOL     OW73807   2.678   8.388   3.776  0.1973  0.5241 -0.2532
20583SOL    HW173808   2.664   8.474   3.826 -0.2964  1.3980 -1.8547
20583SOL    HW273809   2.625   8.390   3.691  0.9749 -0.9620 -0.7933
20584SOL     OW73810   3.663   0.890   6.734 -0.1807  0.0610 -0.0084
20584SOL    HW173811   3.713   0.892   6.647 -0.6846  1.4585 -0.2822
20584SOL    HW273812   3.713   0.945   6.802 -1.2615  1.3464 -0.2437
20585SOL     OW73813   3.609   9.971   8.910  0.2221  0.3748 -0.0389
20585SOL    HW173814   3.619  10.069   8.897  2.1104  0.1909 -0.0711
20585SOL    HW273815   3.663   9.922   8.841 -1.3326 -0.6942 -0.5223
20586SOL     OW73816   0.255   3.956   7.261  0.0187 -0.1772  0.0911
20586SOL    HW173817   0.352   3.965   7.238  0.0805 -0.3925  0.2636
20586SOL    HW273818   0.236   3.862   7.288 -0.6652 -0.6357 -1.9303
20587SOL     OW73819   2.934   6.334   6.591  0.0998  0.0183  0.1564
20587SOL    HW173820   2.859   6.282   6.632 -0.1133 -1.0635 -1.5726
20587SOL    HW273821   3.017   6.279   6.591  0.2386  0.2270 -0.3472
20588SOL     OW73822   8.728   4.274   8.263  0.0521 -0.6442  1.0824
20588SOL    HW173823   8.724   4.175   8.274  1.2660 -0.9039 -0.7419
20588SOL    HW273824   8.782   4.297   8.182 -2.7440  1.4164 -0.2833
20589SOL     OW73825   4.347   0.250   6.365 -0.3823 -0.3413  0.9702
20589SOL    HW173826   4.414   0.182   6.336 -0.3830  0.0094  0.1320
20589SOL    HW273827   4.274   0.205   6.416  0.0596 -0.8469  1.1530
20590SOL     OW73828   1.196   5.974   8.452 -0.2036  0.1585 -0.1440
20590SOL    HW173829   1.280   5.964   8.506  0.4907  2.1667 -0.7742
20590SOL    HW273830   1.179   6.072   8.436 -2.3300 -0.2698 -0.5597
20591SOL     OW73831   4.267   2.582   8.946 -0.0874  0.1136 -0.2681
20591SOL    HW173832   4.222   2.619   8.865  0.6503  1.9334  0.1340
20591SOL    HW273833   4.366   2.587   8.934  0.0266  1.4060  1.1948
20592SOL     OW73834   4.551   9.510   3.742  0.3341 -0.3723 -0.1107
20592SOL    HW173835   4.579   9.483   3.650 -0.8311  0.1454 -0.6332
20592SOL    HW273836   4.622   9.485   3.808  1.7256  0.3870 -1.3082
20593SOL     OW73837   2.476   3.924   2.732  0.0529  0.5305 -0.4204
20593SOL    HW173838   2.499   3.833   2.765 -1.4807  0.1705 -0.3056
20593SOL    HW273839   2.456   3.984   2.811  2.4545  1.3738 -0.4180
20594SOL     OW73840   3.821   1.121   3.112  0.2536 -0.1892 -0.0725
20594SOL    HW173841   3.895   1.182   3.083 -0.0257 -0.0247 -0.4462
20594SOL    HW273842   3.794   1.062   3.035 -1.1913  0.9581 -0.4686
20595SOL     OW73843   2.124   6.838   9.505 -0.0314 -0.4620  0.5008
20595SOL    HW173844   2.081   6.827   9.415 -0.6429 -0.4193  0.7813
20595SOL    HW273845   2.140   6.935   9.522 -1.1653 -0.3437  0.9959
20596SOL     OW73846   0.503   8.397   9.637 -0.0630  0.6492 -0.1373
20596SOL    HW173847   0.595   8.420   9.607 -0.6445  3.4279  0.0591
20596SOL    HW273848   0.440   8.404   9.560 -0.0312 -2.0151 -0.4522
20597SOL     OW73849   0.988   2.954   9.100  0.7274 -0.2310 -0.9770
20597SOL    HW173850   1.045   3.027   9.064  2.2248 -0.9802 -0.2081
20597SOL    HW273851   0.966   2.889   9.027  0.6971  0.1555 -1.3139
20598SOL     OW73852   7.538   4.448   7.806  0.4722  1.0719  0.1620
20598SOL    HW173853   7.626   4.449   7.758 -1.7478 -0.0083 -4.1496
20598SOL    HW273854   7.520   4.356   7.840  0.7770  1.1912  0.6558
20599SOL     OW73855   8.185   2.103   9.033  0.0242 -0.2009 -0.3485
20599SOL    HW173856   8.218   2.102   9.128 -0.1913  1.9733 -0.2181
20599SOL    HW273857   8.259   2.132   8.973 -0.6382  1.2689 -0.4792
20600SOL     OW73858   9.855   8.754   3.571 -0.3608  0.2160  0.2257
20600SOL    HW173859   9.803   8.721   3.492  0.5327  0.9693 -0.6789
20600SOL    HW273860   9.814   8.839   3.605  0.4674  1.0033 -0.7084
20601SOL     OW73861   9.215   6.978   3.261 -0.3308 -0.3866 -0.1542
20601SOL    HW173862   9.260   7.054   3.308 -0.6400 -0.4451  0.2437
20601SOL    HW273863   9.283   6.922   3.213  0.0823 -0.8203  0.9300
20602SOL     OW73864   3.762   8.326   5.183  0.2758  0.7025  0.0982
20602SOL    HW173865   3.828   8.395   5.152 -0.4338  0.6362 -1.5762
20602SOL    HW273866   3.671   8.366   5.188  0.1423  0.3294  0.7669
20603SOL     OW73867   4.060   8.576   5.548 -1.1782  0.0317  0.1085
20603SOL    HW173868   4.113   8.491   5.543 -1.8645 -0.2786 -2.2670
20603SOL    HW273869   4.123   8.653   5.557 -0.4924 -0.5913  0.8157
20604SOL     OW73870   4.794   5.994   2.670 -0.0845  0.3219  0.3458
20604SOL    HW173871   4.840   5.940   2.740 -0.3412 -0.2482  0.0798
20604SOL    HW273872   4.822   6.090   2.677  0.8197  0.0500  0.4467
20605SOL     OW73873   2.676   7.787   0.114  0.3108 -0.0904  0.1415
20605SOL    HW173874   2.759   7.822   0.071  0.2778  0.8910  0.8653
20605SOL    HW273875   2.610   7.761   0.044  0.0964  1.8872 -0.4086
20606SOL     OW73876   6.606   3.263   1.824 -0.2631 -0.3675  0.6722
20606SOL    HW173877   6.621   3.333   1.894 -0.2245 -0.8520  1.1467
20606SOL    HW273878   6.522   3.213   1.844 -0.1077 -0.6880  0.5191
20607SOL     OW73879   0.686   2.273   7.625  0.1204  0.0019  0.0811
20607SOL    HW173880   0.601   2.327   7.619 -1.1528 -1.8091  1.2436
20607SOL    HW273881   0.708   2.259   7.721  1.6627  0.2904 -0.2240
20608SOL     OW73882   8.307   5.882   8.933 -0.1850 -0.0995  0.2146
20608SOL    HW173883   8.349   5.971   8.948 -0.7335  0.0358  0.9898
20608SOL    HW273884   8.375   5.810   8.947 -0.0316  0.1507  0.7627
20609SOL     OW73885   9.136   2.356   8.478 -1.0328 -0.2624  0.3039
20609SOL    HW173886   9.236   2.361   8.482 -0.9306 -2.0004  0.3805
20609SOL    HW273887   9.097   2.441   8.512  0.4225  0.3611  0.4460
20610SOL     OW73888   7.584   9.054   8.445  0.0056 -0.5013  0.0897
20610SOL    HW173889   7.491   9.091   8.435  0.3489 -0.0317 -1.4529
20610SOL    HW273890   7.582   8.978   8.510 -1.4516 -0.4379  0.1440
20611SOL     OW73891   9.435   0.592   1.924  0.0749 -0.7342  0.0255
20611SOL    HW173892   9.495   0.587   1.843 -0.5150 -0.2386 -0.4484
20611SOL    HW273893   9.340   0.584   1.895 -0.1649 -0.1306  0.6295
20612SOL     OW73894   2.412   1.839   2.942  0.0805  0.9621 -0.1271
20612SOL    HW173895   2.464   1.816   3.024  0.6237  1.6756 -0.2707
20612SOL    HW273896   2.366   1.757   2.908 -1.3208  0.9568  1.6998
20613SOL     OW73897   4.337   8.996   1.202  0.0982  0.7896  0.3405
20613SOL    HW173898   4.294   8.907   1.222  2.0883 -0.5447 -1.1027
20613SOL    HW273899   4.333   9.014   1.104  0.3867  1.9594  0.5375
20614SOL     OW73900   8.581   7.442   8.968  0.3474 -0.4757 -0.2267
20614SOL    HW173901   8.622   7.476   9.053 -1.0408  0.7546 -0.0327
20614SOL    HW273902   8.487   7.475   8.961  0.1350 -1.3787 -1.7772
20615SOL     OW73903   3.324   6.029   0.700  1.0143  0.6926 -0.0779
20615SOL    HW173904   3.233   6.000   0.669  1.0301  0.0043  0.5000
20615SOL    HW273905   3.350   6.114   0.653 -0.2463  1.3001  0.3040
20616SOL     OW73906   0.306   0.355   6.085 -0.4099 -0.8388 -0.1926
20616SOL    HW173907   0.357   0.273   6.111  1.5213  0.4777  0.2183
20616SOL    HW273908   0.283   0.408   6.166  0.2237  0.1129 -0.6203
20617SOL     OW73909   0.726   7.612   9.118  0.2187  0.2184  0.2287
20617SOL    HW173910   0.706   7.700   9.076  1.4940  0.8429  0.9026
20617SOL    HW273911   0.816   7.580   9.090 -1.2859 -2.1893 -2.1429
20618SOL     OW73912   1.032   6.721   2.975  0.3753 -0.3609  0.1321
20618SOL    HW173913   0.943   6.749   3.009  0.9456  2.9207 -0.9560
20618SOL    HW273914   1.092   6.698   3.052 -1.3154 -2.4695  0.8629
20619SOL     OW73915   8.719   7.457   7.708 -0.2461  0.3516  0.2970
20619SOL    HW173916   8.801   7.483   7.657  0.4970  1.5664  2.0471
20619SOL    HW273917   8.642   7.514   7.679 -0.3775 -0.4973 -1.0455
20620SOL     OW73918   8.439   3.643   9.451  0.3507  0.2349  0.0666
20620SOL    HW173919   8.524   3.692   9.473  0.7100 -0.5618  0.4685
20620SOL    HW273920   8.460   3.556   9.408 -0.2906  0.4031 -0.5972
20621SOL     OW73921   7.085   2.441   1.188  0.3208  0.2854  0.6052
20621SOL    HW173922   7.069   2.360   1.245  0.6073 -0.2753 -0.0914
20621SOL    HW273923   7.184   2.459   1.185  0.2153  0.9699  1.1714
20622SOL     OW73924   2.309   1.611   4.272  0.2465 -0.4969 -0.1555
20622SOL    HW173925   2.246   1.534   4.278 -0.2706  0.0793  2.4951
20622SOL    HW273926   2.298   1.657   4.184 -2.1237 -1.1785 -0.2416
20623SOL     OW73927   6.510   6.002   2.044 -0.0008  0.1583  0.0354
20623SOL    HW173928   6.588   5.994   1.981 -0.6600 -1.2846 -0.6117
20623SOL    HW273929   6.461   5.915   2.048 -2.3792  1.4298 -0.5739
20624SOL     OW73930   3.532   8.479   6.356 -0.2299  0.1904 -0.3274
20624SOL    HW173931   3.575   8.539   6.424  1.3790 -1.6423  0.2860
20624SOL    HW273932   3.433   8.494   6.358 -0.3734 -0.7034  3.3166
20625SOL     OW73933   8.108   0.442   5.349 -0.5918 -0.0394 -0.2264
20625SOL    HW173934   8.152   0.432   5.261 -0.0427 -0.0044  0.0421
20625SOL    HW273935   8.020   0.395   5.348 -0.6576  0.0932 -0.8396
20626SOL     OW73936   3.509   9.535   0.433 -1.0751  0.2978 -0.4465
20626SOL    HW173937   3.556   9.498   0.513 -0.3175 -0.2175 -1.1132
20626SOL    HW273938   3.464   9.621   0.457 -1.7530 -0.3859  0.7899
20627SOL     OW73939   5.238   7.430   2.638 -0.2840 -0.0256  0.0218
20627SOL    HW173940   5.257   7.367   2.562 -0.8300 -0.7181  0.4530
20627SOL    HW273941   5.218   7.521   2.601 -1.3365 -0.5416 -0.7142
20628SOL     OW73942   9.159   5.277   3.640 -0.6328 -0.1274  0.1081
20628SOL    HW173943   9.177   5.323   3.726 -0.1118  0.4912 -0.3264
20628SOL    HW273944   9.174   5.179   3.651 -2.0550 -0.2447  1.1205
20629SOL     OW73945   7.211   0.628   8.378  0.6216  0.0050  0.2659
20629SOL    HW173946   7.155   0.711   8.369  0.2206 -0.1584  1.2334
20629SOL    HW273947   7.210   0.578   8.292 -1.9275 -0.7671  0.7235
20630SOL     OW73948   1.992   6.563   6.760 -0.5149 -0.0053  0.0621
20630SOL    HW173949   2.071   6.623   6.759  0.3178 -1.0850 -0.4727
20630SOL    HW273950   1.922   6.599   6.822  1.2689 -0.1366  2.1946
20631SOL     OW73951   8.910   8.167   4.248  0.0989  0.4902 -0.0650
20631SOL    HW173952   8.982   8.106   4.280 -0.0340 -0.8960 -2.2986
20631SOL    HW273953   8.949   8.256   4.225  0.3064  1.2891  3.1256
20632SOL     OW73954   9.880   2.664   8.146 -0.5182 -0.1362  0.7079
20632SOL    HW173955   9.782   2.683   8.147 -0.6047 -0.6146  1.5290
20632SOL    HW273956   9.931   2.749   8.128 -1.0691  0.1314  0.3979
20633SOL     OW73957   3.040   5.058   5.990  0.4121 -0.8371  0.3993
20633SOL    HW173958   3.116   5.005   6.027 -1.1696 -2.5344  1.2711
20633SOL    HW273959   3.041   5.150   6.029  0.6451 -1.5964  2.2152
20634SOL     OW73960   9.410   0.513   7.928  0.3074  0.3427  0.1305
20634SOL    HW173961   9.357   0.598   7.931  0.3831  0.4561 -1.2163
20634SOL    HW273962   9.359   0.444   7.877  0.5629 -0.1911  0.6000
20635SOL     OW73963   0.332   7.888   5.167  0.1711  0.4069  0.3128
20635SOL    HW173964   0.324   7.987   5.155 -0.4369  0.3849  0.5344
20635SOL    HW273965   0.243   7.850   5.191  0.4972 -0.1363  0.6676
20636SOL     OW73966   0.096   4.236   0.141  0.0962 -0.2372  0.8969
20636SOL    HW173967   0.128   4.268   0.051  0.2615 -1.7621  0.3906
20636SOL    HW273968   0.160   4.167   0.176  0.0005  0.3137  2.1634
20637SOL     OW73969   1.432   1.485   6.561  0.4250 -0.4782 -0.0353
20637SOL    HW173970   1.349   1.540   6.571  1.5020  1.0299  0.8145
20637SOL    HW273971   1.489   1.495   6.642  1.8642 -0.7666 -0.9969
20638SOL     OW73972   6.894   1.140   5.553  0.1256  0.0748 -0.2170
20638SOL    HW173973   6.972   1.170   5.607 -0.0494  0.2094 -0.0361
20638SOL    HW273974   6.812   1.190   5.582 -0.3506 -1.1823  0.6826
20639SOL     OW73975   1.191   1.797   9.492 -0.5241 -0.4564  0.0551
20639SOL    HW173976   1.175   1.817   9.395 -1.3521  0.2633  0.3299
20639SOL    HW273977   1.112   1.747   9.528  0.4197 -2.0368  0.0036
20640SOL     OW73978   2.027   0.707   8.844  0.0043  0.4647 -0.3086
20640SOL    HW173979   2.005   0.699   8.747 -0.4950 -0.4057 -0.1254
20640SOL    HW273980   2.107   0.767   8.855  0.9566 -0.5791 -1.3576
20641SOL     OW73981   4.692   3.189   6.084  0.1954 -0.6450 -0.2522
20641SOL    HW173982   4.641   3.106   6.061  0.5030 -0.6086 -1.0912
20641SOL    HW273983   4.708   3.243   6.001 -1.0049  0.8344  0.4419
20642SOL     OW73984   6.322   5.782   1.701  0.8932  0.3101 -0.5764
20642SOL    HW173985   6.378   5.863   1.719  1.5087 -0.1767 -0.2738
20642SOL    HW273986   6.375   5.717   1.647  0.5009 -0.0099 -0.5758
20643SOL     OW73987   1.822   8.227   4.764  0.3967 -0.0532  0.0038
20643SOL    HW173988   1.786   8.192   4.678 -0.1786  2.3359 -0.7714
20643SOL    HW273989   1.870   8.313   4.748  2.0413 -0.5987  1.7896
20644SOL     OW73990   1.111   3.221   3.655  0.0935  0.0531  0.3225
20644SOL    HW173991   1.067   3.249   3.570  1.2949 -1.1105 -0.7138
20644SOL    HW273992   1.129   3.301   3.712  0.4350  0.9983 -1.0915
20645SOL     OW73993   5.135   9.186   2.674  0.3752  0.2618  0.0504
20645SOL    HW173994   5.112   9.105   2.620 -0.8356  1.5820 -1.4665
20645SOL    HW273995   5.052   9.235   2.698  1.0624  0.8079  1.3916
20646SOL     OW73996   3.938   2.501   7.340 -0.0959 -0.3951  1.0561
20646SOL    HW173997   3.930   2.490   7.241  0.1556  2.3656  0.6771
20646SOL    HW273998   3.991   2.426   7.378  0.9821 -0.7619 -1.0968
20647SOL     OW73999   8.486   8.046   4.677  0.2336  0.3614 -0.5759
20647SOL    HW174000   8.498   8.088   4.767  0.1062  0.9901 -0.8475
20647SOL    HW274001   8.545   8.092   4.610  0.5656 -0.3150 -0.7474
20648SOL     OW74002   4.343   9.478   6.164  0.1455 -0.7676 -0.6189
20648SOL    HW174003   4.268   9.469   6.229 -1.3805 -0.3057 -2.2677
20648SOL    HW274004   4.405   9.550   6.194 -0.7691 -0.2746  0.1146
20649SOL     OW74005   2.051   5.845   1.223  0.1316  0.3039 -0.1572
20649SOL    HW174006   2.093   5.849   1.314 -2.2636 -0.8127  1.0232
20649SOL    HW274007   2.079   5.926   1.170 -0.3472  2.2324  2.4309
20650SOL     OW74008   2.209   3.638   5.955  0.6027  0.1768 -0.0443
20650SOL    HW174009   2.299   3.678   5.937  0.4822  0.1445 -0.7293
20650SOL    HW274010   2.155   3.637   5.870  0.3093 -0.6953  0.1508
20651SOL     OW74011   0.281   4.942   3.383  0.0837  0.2697 -0.4366
20651SOL    HW174012   0.242   5.007   3.448  0.3449  0.3636 -0.3728
20651SOL    HW274013   0.258   4.849   3.412  1.8957  0.2119  0.9316
20652SOL     OW74014   7.229   2.423   4.921 -0.1193  0.0373  0.0206
20652SOL    HW174015   7.265   2.398   4.832 -0.6988 -3.3696  0.6467
20652SOL    HW274016   7.288   2.491   4.964  2.2897 -1.0881 -1.4010
20653SOL     OW74017   8.394   5.821   1.868 -0.7084  0.4251 -0.5650
20653SOL    HW174018   8.408   5.808   1.966 -1.3865 -0.3600 -0.5678
20653SOL    HW274019   8.452   5.758   1.817  0.2167  1.3600 -0.6953
20654SOL     OW74020   0.162   8.631   5.923  0.2565  0.2095  0.0924
20654SOL    HW174021   0.158   8.531   5.915  1.7409  0.0755  0.8807
20654SOL    HW274022   0.220   8.656   6.000 -0.8340  1.6854  0.4579
20655SOL     OW74023   2.680   3.012   4.382 -0.4420  0.2174  0.0946
20655SOL    HW174024   2.692   3.106   4.414 -0.6437  0.2990 -0.0669
20655SOL    HW274025   2.695   2.948   4.458  1.6050  0.2826 -0.2233
20656SOL     OW74026   3.374   3.497   0.875 -0.3323 -0.2826  0.4314
20656SOL    HW174027   3.283   3.522   0.842 -0.3389 -0.1934  0.5173
20656SOL    HW274028   3.370   3.480   0.974  0.0768  1.2807  0.7156
20657SOL     OW74029   7.731   0.127   4.985  0.3706  0.1423 -0.4009
20657SOL    HW174030   7.709   0.029   4.974  0.0128  0.0452  0.9918
20657SOL    HW274031   7.651   0.181   4.960  0.1968  0.0177 -0.1258
20658SOL     OW74032   9.016   6.734   3.196  0.0852  0.8944  0.2032
20658SOL    HW174033   9.046   6.781   3.279 -1.6804 -1.0621  2.0130
20658SOL    HW274034   9.069   6.651   3.184 -1.1277  0.0312  0.6411
20659SOL     OW74035   2.523   8.587   8.743  0.5723 -0.0535  0.3472
20659SOL    HW174036   2.450   8.519   8.757  0.2254  0.1641 -0.3708
20659SOL    HW274037   2.609   8.540   8.727  0.0651 -0.3571 -1.5776
20660SOL     OW74038   2.166   3.008   5.333 -0.2720  0.1229 -0.2696
20660SOL    HW174039   2.185   2.940   5.404 -2.1928 -0.9505 -0.7444
20660SOL    HW274040   2.248   3.062   5.316  0.0053  1.0221  3.4143
20661SOL     OW74041   8.266   5.884   8.553 -0.2408  0.3723  0.2199
20661SOL    HW174042   8.237   5.866   8.460 -0.1051 -1.7756  0.5721
20661SOL    HW274043   8.256   5.801   8.608  0.9579  1.2297  1.7829
20662SOL     OW74044   8.887   3.863   6.685  0.0657 -0.1733  0.3668
20662SOL    HW174045   8.985   3.867   6.666  0.0609  0.5015  0.4697
20662SOL    HW274046   8.837   3.912   6.614  0.0557  2.3740  2.0646
20663SOL     OW74047   9.127   4.485   6.397 -0.3759 -0.2916 -0.1570
20663SOL    HW174048   9.063   4.538   6.341 -2.1320 -0.1608  1.8739
20663SOL    HW274049   9.143   4.533   6.483 -0.6438 -2.2346  1.0001
20664SOL     OW74050   0.583   1.752   7.578 -0.5140 -0.4462 -0.0517
20664SOL    HW174051   0.490   1.727   7.605  0.4684 -3.4955  0.7503
20664SOL    HW274052   0.615   1.689   7.508  0.9457  0.6262 -0.3694
20665SOL     OW74053   7.838   2.213   7.756  0.0721 -0.0315  0.4498
20665SOL    HW174054   7.840   2.219   7.656  1.4941  1.6518  0.5521
20665SOL    HW274055   7.919   2.165   7.788  0.5523  1.0412  0.8745
20666SOL     OW74056   5.776   0.059   1.817  0.1708  0.1318  0.6245
20666SOL    HW174057   5.860   0.091   1.860  0.8036 -0.7199  0.0349
20666SOL    HW274058   5.794   0.037   1.721 -0.8181  0.3348  0.3860
20667SOL     OW74059   8.839   8.406   7.072  0.1931 -0.0465 -0.3140
20667SOL    HW174060   8.768   8.368   7.012 -0.1163 -0.7223  0.4689
20667SOL    HW274061   8.808   8.402   7.167  0.1091  2.2644 -0.2007
20668SOL     OW74062   3.258   8.096   9.877  0.1020 -0.7173  0.1322
20668SOL    HW174063   3.282   8.186   9.913  0.5362 -0.4352 -0.8680
20668SOL    HW274064   3.287   8.025   9.941  0.9694 -0.2190  0.2845
20669SOL     OW74065   7.034   1.410   0.452  0.2923 -0.0257  0.1214
20669SOL    HW174066   7.079   1.375   0.370  0.9090 -0.5108  0.6534
20669SOL    HW274067   7.010   1.506   0.440 -0.9192 -0.4704 -1.1636
20670SOL     OW74068   1.052   8.823   2.790 -0.4201 -0.4532  0.2173
20670SOL    HW174069   0.979   8.870   2.740  0.0883  1.2065  0.9776
20670SOL    HW274070   1.058   8.860   2.883  0.3917 -1.6373  0.6427
20671SOL     OW74071   1.825   0.285   2.876 -0.5174  0.1954 -0.1322
20671SOL    HW174072   1.886   0.327   2.809  0.5947  1.4514  1.6379
20671SOL    HW274073   1.878   0.230   2.940 -1.4381 -0.0280  0.4552
20672SOL     OW74074   5.633   0.507   8.588  0.4669 -0.0568 -0.8201
20672SOL    HW174075   5.679   0.418   8.597 -0.2061 -0.2825  0.4925
20672SOL    HW274076   5.610   0.523   8.492 -1.1781 -2.2066 -0.8224
20673SOL     OW74077   1.837   2.396   7.210  0.2489 -0.1839 -0.6209
20673SOL    HW174078   1.742   2.424   7.224  0.1137 -0.8273 -0.2227
20673SOL    HW274079   1.894   2.477   7.194 -0.6004  0.0967 -2.2829
20674SOL     OW74080   5.151   0.857   7.504 -0.7076 -0.6746 -0.1851
20674SOL    HW174081   5.052   0.869   7.492 -0.3346  1.6085 -1.1108
20674SOL    HW274082   5.173   0.867   7.601 -1.1999  0.2980 -0.1674
20675SOL     OW74083   8.778   3.913   9.846 -0.4542  0.0272 -0.0749
20675SOL    HW174084   8.840   3.971   9.793 -0.7526 -0.1774 -0.6460
20675SOL    HW274085   8.702   3.968   9.880 -0.4420  0.0850 -0.1419
20676SOL     OW74086   5.219   3.097   9.982  0.7536 -0.0241 -0.0392
20676SOL    HW174087   5.252   3.013  10.025  0.6855 -0.2046 -0.3348
20676SOL    HW274088   5.185   3.160  10.052  1.0031 -0.1556  0.1997
20677SOL     OW74089   3.448   7.798   3.051  0.4204 -0.1519 -0.5113
20677SOL    HW174090   3.415   7.706   3.027 -1.3789  0.5256 -0.7078
20677SOL    HW274091   3.472   7.800   3.148  1.1154 -1.0128 -0.6590
20678SOL     OW74092   4.700   7.136   4.596 -0.0118  0.7447 -0.1394
20678SOL    HW174093   4.640   7.058   4.582  1.1562  0.1735 -2.0964
20678SOL    HW274094   4.679   7.178   4.685 -0.2091 -2.1534  1.2562
20679SOL     OW74095   2.353   8.074   0.862 -0.1540  0.4730  0.1430
20679SOL    HW174096   2.331   8.045   0.955  0.5530 -0.0272  0.1606
20679SOL    HW274097   2.310   8.012   0.796  0.1816  0.2281  0.1547
20680SOL     OW74098   0.339   3.900   0.786  0.1691 -0.3206  0.3211
20680SOL    HW174099   0.246   3.896   0.824  0.0386 -2.0543 -0.1513
20680SOL    HW274100   0.344   3.974   0.720 -0.5955  0.4490  1.1082
20681SOL     OW74101   5.154   5.415   0.043 -0.0680 -0.0325  0.0182
20681SOL    HW174102   5.158   5.358  -0.039 -0.6910 -0.3794  0.2188
20681SOL    HW274103   5.191   5.505   0.024  1.3842 -0.6689 -0.1755
20682SOL     OW74104   1.209   5.481   0.001  0.2609  0.2514  0.2266
20682SOL    HW174105   1.296   5.453  -0.040 -0.4910  0.0859 -1.2671
20682SOL    HW274106   1.225   5.559   0.062  1.3977  0.4579 -0.3150
20683SOL     OW74107   2.834   0.312   5.618  0.2595  0.4074  0.1758
20683SOL    HW174108   2.877   0.246   5.556 -0.3749 -0.5213  0.7123
20683SOL    HW274109   2.756   0.269   5.663  0.7110  1.0700  1.6223
20684SOL     OW74110   3.927   4.384   4.471  0.5252  0.6287  0.1370
20684SOL    HW174111   4.004   4.448   4.466 -0.1466  1.6085  1.8743
20684SOL    HW274112   3.851   4.419   4.417  0.2136  1.2161  0.9571
20685SOL     OW74113   2.501   8.144   3.844 -0.1162  0.1400  0.2615
20685SOL    HW174114   2.580   8.201   3.820 -0.4085  0.7888  0.8430
20685SOL    HW274115   2.479   8.084   3.768 -0.4508  1.5275 -0.7503
20686SOL     OW74116   6.882   9.844   2.782 -0.4393 -0.1035  0.2634
20686SOL    HW174117   6.980   9.849   2.762 -0.5747  1.4503 -0.0185
20686SOL    HW274118   6.830   9.886   2.707 -1.2595  0.1854  0.9860
20687SOL     OW74119   4.279   5.767   8.397  0.1934 -0.4451 -0.1012
20687SOL    HW174120   4.279   5.752   8.496  0.5335  0.4071  0.0323
20687SOL    HW274121   4.284   5.679   8.350  0.2404 -0.8445  0.6400
20688SOL     OW74122   7.356   9.040   4.162  0.1136 -0.7672 -0.6333
20688SOL    HW174123   7.354   8.984   4.079  1.0435  0.3775 -1.4515
20688SOL    HW274124   7.450   9.069   4.180 -0.1623 -0.5932  0.5467
20689SOL     OW74125   1.381   3.732   3.294 -0.2272  0.1885  0.4122
20689SOL    HW174126   1.389   3.831   3.287  1.9324  0.0825  0.9518
20689SOL    HW274127   1.401   3.690   3.206  2.3363  0.0886  1.0009
20690SOL     OW74128   9.908   5.937   9.795 -0.9565 -0.2325 -0.0332
20690SOL    HW174129   9.867   5.885   9.721 -1.3257 -2.1375  1.4724
20690SOL    HW274130   9.941   5.875   9.866  2.5676  1.3449 -0.1704
20691SOL     OW74131   8.343   4.282   4.887  0.6655  0.0957 -0.8456
20691SOL    HW174132   8.388   4.209   4.938  0.0458 -1.1495 -2.0349
20691SOL    HW274133   8.285   4.242   4.816 -2.8171  1.6257  1.0072
20692SOL     OW74134   2.373   3.277   5.041  0.2492 -0.0489  0.2140
20692SOL    HW174135   2.413   3.321   4.960  1.7983 -0.2465  0.8581
20692SOL    HW274136   2.338   3.187   5.016 -2.0767  1.1095 -0.9027
20693SOL     OW74137   4.425   3.316   7.682  0.1293  0.2168 -0.0377
20693SOL    HW174138   4.498   3.328   7.614  0.6819  2.4553  0.8965
20693SOL    HW274139   4.338   3.343   7.643 -0.0957 -1.7388 -0.9178
20694SOL     OW74140   3.583   4.664   1.107  0.0667 -0.3834  0.1215
20694SOL    HW174141   3.539   4.594   1.050  1.7002 -0.7473 -0.7061
20694SOL    HW274142   3.619   4.737   1.049 -1.1315  0.8837  0.9453
20695SOL     OW74143   1.925   3.961   2.908 -0.1503  0.1755  0.5514
20695SOL    HW174144   1.832   3.979   2.876  0.5063  0.2473 -1.4410
20695SOL    HW274145   1.930   3.971   3.007 -2.1271  0.7359  0.6043
20696SOL     OW74146   3.738   1.610   2.608  0.2654  0.2376 -0.5738
20696SOL    HW174147   3.765   1.580   2.516 -1.1584 -2.2018 -0.2417
20696SOL    HW274148   3.817   1.607   2.669  1.1420  1.5329 -1.6060
20697SOL     OW74149   9.025   9.166   7.701 -0.0277 -0.2009  0.1394
20697SOL    HW174150   8.937   9.175   7.750 -1.3841  0.2847 -2.3116
20697SOL    HW274151   9.031   9.076   7.659 -0.8074  0.8915 -2.3847
20698SOL     OW74152   1.350   4.226   8.705 -0.2689  0.0760  0.3849
20698SOL    HW174153   1.290   4.273   8.770 -2.6275 -0.5584 -1.2921
20698SOL    HW274154   1.296   4.191   8.629  2.2985 -0.2945 -1.3067
20699SOL     OW74155   5.059   2.596   8.957  0.2657 -0.2062  0.2187
20699SOL    HW174156   5.124   2.671   8.970 -0.3451  0.4221 -0.2857
20699SOL    HW274157   5.104   2.509   8.977  1.5330  0.1473 -0.9790
20700SOL     OW74158   9.089   1.992   9.003 -0.4225  0.1725 -0.2594
20700SOL    HW174159   9.095   1.919   8.935 -1.1886 -0.0709 -0.0694
20700SOL    HW274160   9.093   2.080   8.957  0.1826  0.0125 -0.5204
20701SOL     OW74161   0.863   0.380   6.072 -0.1930 -0.2244  0.3161
20701SOL    HW174162   0.862   0.281   6.055  0.4723  0.0422 -1.3009
20701SOL    HW274163   0.772   0.418   6.052 -0.3657 -0.4422  0.6631
20702SOL     OW74164   1.359   1.037   9.860 -0.9992  0.6478  0.3198
20702SOL    HW174165   1.305   0.994   9.933  0.2829 -1.6947 -0.0642
20702SOL    HW274166   1.296   1.073   9.791 -2.1535  0.4670  1.2406
20703SOL     OW74167   2.096   7.031   8.389  0.4499 -0.0330  0.2170
20703SOL    HW174168   2.137   6.953   8.437  1.1971 -0.0113 -0.3753
20703SOL    HW274169   1.997   7.031   8.404  0.3578 -1.4832 -0.3406
20704SOL     OW74170   1.296   4.672   4.720  0.7306 -0.5851 -0.0770
20704SOL    HW174171   1.381   4.620   4.709  0.7997 -0.8658  1.6805
20704SOL    HW274172   1.250   4.644   4.803 -0.0596  1.0173  0.0484
20705SOL     OW74173   9.840   0.287   4.841 -0.0003 -0.6704  0.2004
20705SOL    HW174174   9.917   0.350   4.843  2.0643 -3.0752  0.2178
20705SOL    HW274175   9.817   0.259   4.934  1.9121 -3.1067  0.0166
20706SOL     OW74176   7.147   3.103   2.524  0.7375 -0.2486 -0.6886
20706SOL    HW174177   7.232   3.148   2.498  0.4938  1.0186  0.6268
20706SOL    HW274178   7.092   3.165   2.581 -0.9843 -1.1092 -1.3741
20707SOL     OW74179   3.115   8.305   8.661 -0.2020  0.0996 -0.2023
20707SOL    HW174180   3.083   8.260   8.578 -0.0059  1.0076 -0.7789
20707SOL    HW274181   3.056   8.384   8.680  1.5545  1.6889 -1.1725
20708SOL     OW74182   6.384   7.916   3.372 -0.9495 -0.4947 -0.0296
20708SOL    HW174183   6.414   7.994   3.427  2.7593 -1.0621 -1.1184
20708SOL    HW274184   6.387   7.833   3.428  0.5537 -0.7066 -0.4088
20709SOL     OW74185   0.530   5.514   7.027 -0.1433 -0.0160 -0.0595
20709SOL    HW174186   0.615   5.508   7.080 -0.2130  0.8734  0.1555
20709SOL    HW274187   0.526   5.602   6.981 -1.0124 -0.0142  0.0209
20710SOL     OW74188   6.064   0.507   2.645  0.0345 -0.1003 -0.3429
20710SOL    HW174189   5.985   0.453   2.676 -0.5698 -0.0036 -1.6583
20710SOL    HW274190   6.033   0.598   2.619  0.2608 -0.6346 -2.5721
20711SOL     OW74191   3.288   3.032   3.313  0.1783 -0.5149  0.6213
20711SOL    HW174192   3.247   2.987   3.392 -2.1559 -1.2238 -0.9150
20711SOL    HW274193   3.338   2.966   3.258  0.0375 -0.4553  0.4183
20712SOL     OW74194   4.309   9.330   8.022  0.7195  0.1485 -0.4517
20712SOL    HW174195   4.257   9.411   8.048  0.9284  0.1069  0.1078
20712SOL    HW274196   4.343   9.340   7.929 -0.8814 -0.1142 -1.0913
20713SOL     OW74197   6.646   9.293   2.728 -0.0440 -0.3349 -0.5109
20713SOL    HW174198   6.730   9.326   2.687  0.4681  1.4358  1.8701
20713SOL    HW274199   6.596   9.369   2.769 -0.4391 -1.9807  2.2599
20714SOL     OW74200   8.433   3.957   7.579  0.5898  0.4905  0.6921
20714SOL    HW174201   8.412   3.864   7.609  1.7781 -0.0534 -0.1554
20714SOL    HW274202   8.350   3.999   7.541  0.4216 -0.7763 -0.3836
20715SOL     OW74203   9.128   7.703   1.453 -0.4631 -0.7717 -0.2408
20715SOL    HW174204   9.134   7.774   1.524 -0.0236 -2.0641  1.0497
20715SOL    HW274205   9.076   7.625   1.489  0.4906 -1.7952 -1.0570
20716SOL     OW74206   2.863   9.961   5.754  0.2098  0.1310  0.2688
20716SOL    HW174207   2.869   9.947   5.656  0.3684  1.8224  0.0320
20716SOL    HW274208   2.941  10.016   5.785 -0.2948  0.3302  1.2064
20717SOL     OW74209   2.673   1.428   7.601 -0.5633 -0.3530 -0.0595
20717SOL    HW174210   2.706   1.522   7.588 -0.4758 -0.5090 -1.0235
20717SOL    HW274211   2.575   1.430   7.619 -0.8109 -0.1477 -1.3653
20718SOL     OW74212   0.443   2.118   8.489 -0.1855 -0.6352  0.1445
20718SOL    HW174213   0.406   2.174   8.415  0.5891  0.2738  0.4342
20718SOL    HW274214   0.380   2.043   8.509 -0.5415 -0.7067 -1.2233
20719SOL     OW74215   8.176   8.495   8.254 -0.7414  0.3189 -0.4150
20719SOL    HW174216   8.101   8.498   8.187 -0.8496 -0.3715 -0.3277
20719SOL    HW274217   8.212   8.587   8.268  0.2060  0.2776 -2.4455
20720SOL     OW74218   5.133   1.446   8.014  0.2748  0.2402 -0.2691
20720SOL    HW174219   5.073   1.393   8.075 -0.0145  1.9112  0.9195
20720SOL    HW274220   5.090   1.452   7.924 -0.5212 -0.0527  0.0774
20721SOL     OW74221   1.890   1.530   2.022 -0.1744 -0.3080  0.2114
20721SOL    HW174222   1.860   1.522   2.117  2.2548 -1.1006  0.9494
20721SOL    HW274223   1.815   1.509   1.960 -1.1959 -1.8749  1.9786
20722SOL     OW74224   2.400   0.733   3.430  0.2668  0.7697 -0.1138
20722SOL    HW174225   2.420   0.763   3.337  1.1491  0.9466  0.1303
20722SOL    HW274226   2.377   0.812   3.486  1.6567  0.8918  0.2956
20723SOL     OW74227   5.980   2.137   8.356 -0.3862  0.1072  0.1695
20723SOL    HW174228   6.026   2.081   8.424  0.1244 -1.1463 -1.1837
20723SOL    HW274229   5.946   2.079   8.282  0.1814  1.5705 -1.2843
20724SOL     OW74230   0.604   7.603   3.986 -0.3371 -0.0751  0.5178
20724SOL    HW174231   0.564   7.682   3.940 -0.4246 -0.3870  0.0477
20724SOL    HW274232   0.565   7.519   3.948  1.0904 -0.4011 -0.2649
20725SOL     OW74233   0.571   9.201   7.321 -0.6717 -0.2499 -0.6373
20725SOL    HW174234   0.514   9.279   7.344 -0.4223 -0.0465 -0.7019
20725SOL    HW274235   0.618   9.168   7.403  0.1891  0.4520 -0.8412
20726SOL     OW74236   8.492   7.185   6.216 -0.0361 -0.3626  0.4621
20726SOL    HW174237   8.574   7.145   6.177  0.0814 -0.2988  0.6443
20726SOL    HW274238   8.453   7.251   6.151 -1.2619 -2.0899 -0.6327
20727SOL     OW74239   1.533   7.922   9.869 -0.4016 -0.3963 -0.1836
20727SOL    HW174240   1.594   7.885   9.938  1.0056 -0.1700 -1.2591
20727SOL    HW274241   1.532   8.022   9.876 -1.1839 -0.4297  0.2565
20728SOL     OW74242   8.009   6.836   0.093  0.3486  0.2988  0.1581
20728SOL    HW174243   7.982   6.747   0.058  0.9703  0.3591 -0.4884
20728SOL    HW274244   7.965   6.852   0.182 -0.0136 -0.5102  0.1268
20729SOL     OW74245   7.722   9.681   1.510  0.4485 -0.5368  0.2065
20729SOL    HW174246   7.677   9.728   1.434  0.8627 -1.0707 -0.3799
20729SOL    HW274247   7.701   9.584   1.506  0.8598 -0.6394  0.4988
20730SOL     OW74248   3.186   7.730   7.570  0.4234 -0.3457  0.0226
20730SOL    HW174249   3.141   7.666   7.509  2.0365 -2.5622  1.0624
20730SOL    HW274250   3.206   7.684   7.657  2.1928  1.3577  0.5592
20731SOL     OW74251   1.113   0.500   7.982  0.1186  0.4030 -0.5804
20731SOL    HW174252   1.141   0.512   8.078 -0.8672 -0.4745 -0.1684
20731SOL    HW274253   1.177   0.439   7.936  0.4185  0.5745 -0.3907
20732SOL     OW74254   5.974   4.354   9.125 -0.0941  0.3657 -0.0861
20732SOL    HW174255   6.012   4.437   9.084 -4.6624  2.2466 -0.8669
20732SOL    HW274256   5.980   4.359   9.224  2.0394  0.3857 -0.2039
20733SOL     OW74257   5.674   8.466   6.371 -0.0458  0.1349  0.0692
20733SOL    HW174258   5.599   8.406   6.397  0.1229 -1.2314 -2.4120
20733SOL    HW274259   5.638   8.555   6.344 -0.5133  0.3713  1.4323
20734SOL     OW74260   3.144   9.511   6.126  0.0701 -0.2846  0.3062
20734SOL    HW174261   3.126   9.577   6.053  0.8415 -0.4968 -0.0847
20734SOL    HW274262   3.119   9.419   6.095 -2.1770 -0.0364  1.2910
20735SOL     OW74263   5.874   0.593   0.759 -0.0860 -0.0403  0.8968
20735SOL    HW174264   5.845   0.585   0.855 -2.4384 -0.3999  0.1856
20735SOL    HW274265   5.884   0.502   0.720  3.2156  0.0470  1.4388
20736SOL     OW74266   8.219   1.876   4.741  0.3039 -0.0013  0.4991
20736SOL    HW174267   8.227   1.955   4.801  1.2584 -0.6021  1.1871
20736SOL    HW274268   8.308   1.857   4.698 -0.2652  0.1698 -0.7835
20737SOL     OW74269   1.791   6.173   1.815 -0.1168 -0.1355 -0.1850
20737SOL    HW174270   1.788   6.159   1.914  2.5308 -0.9042 -0.1727
20737SOL    HW274271   1.771   6.268   1.794 -0.3524  0.1084  1.1236
20738SOL     OW74272   8.984   9.630   8.986 -0.5746  0.1025 -0.3657
20738SOL    HW174273   8.983   9.608   8.888 -0.2064 -1.2464 -0.0682
20738SOL    HW274274   8.952   9.552   9.038  1.6800 -0.0913  0.7740
20739SOL     OW74275   0.535   2.909   4.022 -0.1119 -0.2137 -0.1023
20739SOL    HW174276   0.539   2.810   4.004  0.3667  0.1027 -1.8872
20739SOL    HW274277   0.440   2.938   4.028 -0.2630 -0.6757 -0.2547
20740SOL     OW74278   0.842   3.881   6.638 -0.3237  0.0583 -0.0281
20740SOL    HW174279   0.894   3.912   6.559 -1.3338  0.8339 -0.3953
20740SOL    HW274280   0.885   3.914   6.722 -0.1913  0.6420 -0.3238
20741SOL     OW74281   3.562   2.146   3.929  0.2402  0.1513  0.1710
20741SOL    HW174282   3.505   2.221   3.963 -0.1774  0.1428 -0.5020
20741SOL    HW274283   3.618   2.180   3.854  1.7288  0.3727  1.3603
20742SOL     OW74284   5.125   1.224   7.227  0.2091 -0.2892  0.1498
20742SOL    HW174285   5.096   1.286   7.301 -0.8243  0.0616 -0.5338
20742SOL    HW274286   5.219   1.244   7.202  0.9923 -1.2441  2.2184
20743SOL     OW74287   7.381   6.555   7.346  0.3651 -0.2527 -0.4964
20743SOL    HW174288   7.335   6.630   7.395 -0.4972 -0.6057 -0.7522
20743SOL    HW274289   7.479   6.560   7.362  0.0839 -0.4324  1.3746
20744SOL     OW74290   9.271   8.132   0.719 -0.6822 -0.0164  0.3675
20744SOL    HW174291   9.367   8.153   0.736 -0.0122 -1.9103 -0.9644
20744SOL    HW274292   9.214   8.185   0.782  1.2033  1.2527  1.0618
20745SOL     OW74293   6.658   1.755   5.370 -0.3820 -0.2322  0.1066
20745SOL    HW174294   6.722   1.829   5.390 -2.2288  1.3959  0.1317
20745SOL    HW274295   6.700   1.692   5.305  1.0812  1.0607 -0.2485
20746SOL     OW74296   9.912   5.661   9.925  0.3394 -0.0480 -0.7929
20746SOL    HW174297  10.011   5.666   9.941 -0.2769  0.0067  3.7147
20746SOL    HW274298   9.870   5.748   9.950 -1.0154 -0.4441 -1.6350
20747SOL     OW74299   1.333   9.171   8.720  0.1120  0.9762 -0.0832
20747SOL    HW174300   1.386   9.087   8.708 -1.4381  0.1171 -0.9940
20747SOL    HW274301   1.392   9.250   8.700  1.6874  0.1549  1.1667
20748SOL     OW74302   3.436   0.439   8.453  1.0638  0.5971 -0.8607
20748SOL    HW174303   3.497   0.390   8.390  0.7816 -1.0756  0.1466
20748SOL    HW274304   3.452   0.407   8.546 -0.4554  1.0668 -0.4289
20749SOL     OW74305   4.914   5.792   8.534 -0.3152 -0.3864  0.7937
20749SOL    HW174306   4.917   5.700   8.573  0.5713 -0.6564  0.1147
20749SOL    HW274307   5.006   5.817   8.502 -0.8249  0.2117 -0.2174
20750SOL     OW74308   8.699   8.689   2.585 -0.3108  0.0155  0.2463
20750SOL    HW174309   8.609   8.730   2.601 -0.8464 -0.1195 -2.2686
20750SOL    HW274310   8.749   8.687   2.671 -2.4980  0.5842  1.5965
20751SOL     OW74311   3.332   4.088   8.244 -0.2868 -0.1926 -0.4233
20751SOL    HW174312   3.383   4.003   8.255  0.9841  0.4150 -1.4364
20751SOL    HW274313   3.380   4.162   8.291 -0.0340  0.4468 -1.6502
20752SOL     OW74314   1.147   4.863   3.537 -0.3070 -0.3498 -0.2084
20752SOL    HW174315   1.202   4.942   3.563 -0.0874 -0.2427 -0.9850
20752SOL    HW274316   1.200   4.780   3.548 -0.9544 -0.5077  1.8207
20753SOL     OW74317   4.074   0.172   3.883  0.5903 -0.5930 -0.2789
20753SOL    HW174318   4.020   0.144   3.804 -0.8214  0.1835  0.3960
20753SOL    HW274319   4.171   0.178   3.857  0.3747 -1.9849 -1.5015
20754SOL     OW74320   3.085   7.911   3.532  0.0760  0.2116  0.0921
20754SOL    HW174321   3.041   8.000   3.544 -1.3431 -0.4295 -0.2264
20754SOL    HW274322   3.098   7.893   3.434 -1.2747 -0.6859  0.0595
20755SOL     OW74323   0.506   4.907   3.605  0.1466 -0.3784 -0.1907
20755SOL    HW174324   0.417   4.902   3.561 -0.8347 -0.7455  1.7943
20755SOL    HW274325   0.544   4.999   3.594  0.0102 -0.5216 -1.9387
20756SOL     OW74326   0.037   3.890   7.967 -0.7026 -0.0638  0.3402
20756SOL    HW174327   0.131   3.920   7.987 -1.0626  0.4669  1.2740
20756SOL    HW274328  -0.018   3.969   7.942 -1.1689 -0.2274  0.8496
20757SOL     OW74329   6.109   8.251   6.424 -0.2199  0.2347 -0.2431
20757SOL    HW174330   6.140   8.235   6.330 -1.5137  1.3450 -0.8776
20757SOL    HW274331   6.154   8.334   6.459  0.4097 -0.2868  0.1982
20758SOL     OW74332   7.789   4.872   9.628  0.2112 -0.2606 -0.1027
20758SOL    HW174333   7.742   4.906   9.710  1.2358 -0.8377  0.7251
20758SOL    HW274334   7.724   4.872   9.551  0.1508  3.5482 -0.1599
20759SOL     OW74335   3.294   5.587   4.043 -0.1810 -0.2157  0.3263
20759SOL    HW174336   3.386   5.548   4.055 -0.2810 -0.0074  2.0033
20759SOL    HW274337   3.231   5.542   4.107 -0.7483  1.2020  0.7827
20760SOL     OW74338   4.960   0.518   4.243  0.1942 -0.5054 -0.2482
20760SOL    HW174339   4.960   0.425   4.279 -0.7374 -0.7426 -0.8519
20760SOL    HW274340   4.916   0.579   4.308 -1.4077 -0.9191 -0.9210
20761SOL     OW74341   2.973   0.499   4.049 -0.0788 -0.0018 -0.0292
20761SOL    HW174342   3.019   0.557   3.981 -1.4452  0.2483 -0.7521
20761SOL    HW274343   2.900   0.448   4.005 -0.2585 -0.6796  1.0447
20762SOL     OW74344   7.468   8.731   1.380  0.0723  0.3060 -0.0603
20762SOL    HW174345   7.459   8.653   1.317 -0.1710 -0.7749  1.2794
20762SOL    HW274346   7.541   8.791   1.348  0.7483 -0.8560 -0.7359
20763SOL     OW74347   7.880   5.346   0.879  0.0454  0.3065  0.5833
20763SOL    HW174348   7.955   5.394   0.833  0.3554  1.2386  1.9965
20763SOL    HW274349   7.916   5.295   0.957 -0.7624  0.7626  1.2751
20764SOL     OW74350   4.810   9.277   4.005  0.2751 -0.1503  0.4567
20764SOL    HW174351   4.910   9.284   4.008  0.1894  1.4181  0.1353
20764SOL    HW274352   4.776   9.244   4.093  0.9916  0.6719  1.0451
20765SOL     OW74353   1.419   8.280   2.791  0.5608  1.1851  0.3499
20765SOL    HW174354   1.364   8.323   2.862  0.1343  0.4327  0.4851
20765SOL    HW274355   1.505   8.247   2.830  0.0873  0.2721  0.6546
20766SOL     OW74356   9.195   1.306   8.607  1.3661 -0.1929 -0.2100
20766SOL    HW174357   9.203   1.264   8.697 -0.9518  1.1700  0.6623
20766SOL    HW274358   9.175   1.235   8.539  1.2820 -0.9953  0.6319
20767SOL     OW74359   7.426   8.415   3.496 -0.3253  0.2293  0.3842
20767SOL    HW174360   7.352   8.361   3.534 -0.6954 -0.7430 -1.6447
20767SOL    HW274361   7.404   8.512   3.502 -1.9897 -0.0729 -0.6103
20768SOL     OW74362   3.257   3.130   4.232  0.0208  0.0851  0.1777
20768SOL    HW174363   3.287   3.216   4.271  0.1076 -0.1710  0.6825
20768SOL    HW274364   3.312   3.055   4.270  0.3716 -0.1245 -0.7314
20769SOL     OW74365   2.082   4.145   0.314 -0.8293  0.3434  0.1448
20769SOL    HW174366   2.132   4.060   0.329 -0.6322  0.3007 -0.7001
20769SOL    HW274367   2.126   4.219   0.365  0.2836  0.3625 -0.8080
20770SOL     OW74368   4.778   0.444   5.044  0.0968 -0.4267 -0.1078
20770SOL    HW174369   4.815   0.528   5.082  0.3574 -1.0094  0.9389
20770SOL    HW274370   4.683   0.433   5.072  0.2334 -0.7657  0.2229
20771SOL     OW74371   2.598   4.908   0.093  0.2507 -0.0189 -0.9198
20771SOL    HW174372   2.567   4.814   0.083 -0.4206 -0.0431  1.1494
20771SOL    HW274373   2.681   4.922   0.039  0.2756 -1.7579 -1.3466
20772SOL     OW74374   7.542   2.614   4.698 -0.5031 -0.6569 -0.0774
20772SOL    HW174375   7.533   2.571   4.788  3.1271 -1.5667 -0.0993
20772SOL    HW274376   7.565   2.711   4.709  1.8558 -1.2089  0.0102
20773SOL     OW74377   3.918   5.087   0.266  0.1499  0.2560  0.4443
20773SOL    HW174378   4.017   5.077   0.254  0.2164 -1.1783  1.9496
20773SOL    HW274379   3.895   5.184   0.277  1.6216  0.4610  1.8536
20774SOL     OW74380   8.285   0.315   6.614  0.2372  0.0927  0.3193
20774SOL    HW174381   8.190   0.285   6.615  0.4406 -0.6060 -0.4098
20774SOL    HW274382   8.301   0.373   6.534  1.2203 -2.5539 -1.4849
20775SOL     OW74383   1.958   0.727   7.357  0.2860  0.2945 -0.0762
20775SOL    HW174384   1.946   0.796   7.428 -0.3684  0.2778 -0.1671
20775SOL    HW274385   1.943   0.636   7.395 -3.0150  0.4456 -0.8543
20776SOL     OW74386   3.589   4.650   7.770  0.7498  0.1017 -0.0314
20776SOL    HW174387   3.593   4.677   7.866 -1.3663  1.6848 -0.3642
20776SOL    HW274388   3.622   4.556   7.760 -0.8299 -0.7526  2.5108
20777SOL     OW74389   8.234   2.464   8.841  1.3215 -0.3016 -0.1569
20777SOL    HW174390   8.263   2.483   8.935  2.3543  0.7019 -0.6639
20777SOL    HW274391   8.136   2.479   8.833  1.4720  1.1282  0.4097
20778SOL     OW74392   0.256   4.887   4.697  0.1941  0.5409  0.0824
20778SOL    HW174393   0.318   4.955   4.659 -0.7559  2.4408  1.7792
20778SOL    HW274394   0.162   4.908   4.669  0.1850 -1.9764 -2.0062
20779SOL     OW74395   3.606   0.915   8.326 -0.0645  0.0934 -0.2879
20779SOL    HW174396   3.539   0.922   8.399  1.5910  3.1697  1.0073
20779SOL    HW274397   3.627   0.818   8.310 -3.6614 -0.8622  0.2337
20780SOL     OW74398   7.767   7.871   8.478  0.3010  0.4146  0.1000
20780SOL    HW174399   7.751   7.894   8.381 -0.0114 -2.2828 -0.5118
20780SOL    HW274400   7.856   7.828   8.488 -0.8925 -2.0082  0.5353
20781SOL     OW74401   2.017   0.734   5.073 -0.2675 -0.1193  0.6733
20781SOL    HW174402   1.978   0.647   5.104 -1.6375 -0.6528 -2.3871
20781SOL    HW274403   2.000   0.746   4.975  0.2741  3.3998  0.9179
20782SOL     OW74404   0.808   8.225   9.315 -0.5892  0.3875  0.4227
20782SOL    HW174405   0.857   8.302   9.357 -1.5186  1.3279 -0.2019
20782SOL    HW274406   0.766   8.255   9.229 -1.9682 -0.4973  0.7774
20783SOL     OW74407   1.370   7.730   1.078 -0.2749 -0.1428 -0.6274
20783SOL    HW174408   1.462   7.691   1.068 -0.9981 -1.6573 -1.5449
20783SOL    HW274409   1.329   7.743   0.988 -0.8248  0.8987 -0.2386
20784SOL     OW74410   1.569   2.924   8.174 -0.2987 -0.0544  0.4848
20784SOL    HW174411   1.537   3.015   8.147  0.1958  0.2972  1.0803
20784SOL    HW274412   1.657   2.932   8.221  0.1829 -0.9298 -0.2679
20785SOL     OW74413   9.435   9.221   3.250  0.0524  0.1698 -0.3536
20785SOL    HW174414   9.496   9.157   3.298 -1.0049 -0.3888  0.2595
20785SOL    HW274415   9.390   9.173   3.175 -1.4427 -0.0706  0.6794
20786SOL     OW74416   5.343   1.014   3.348  0.4885 -0.0980  0.4859
20786SOL    HW174417   5.301   1.104   3.361 -0.8976 -0.6339 -0.2437
20786SOL    HW274418   5.309   0.951   3.418 -1.8126 -1.1824 -1.5541
20787SOL     OW74419   8.159   4.445   2.851  0.0042  0.3674 -0.3154
20787SOL    HW174420   8.191   4.534   2.821  0.9880  0.2997  0.4964
20787SOL    HW274421   8.127   4.451   2.946  0.5406 -0.2484 -0.0937
20788SOL     OW74422   6.796   2.221   0.744 -0.4415  0.0482  0.4220
20788SOL    HW174423   6.749   2.209   0.832  0.8206  1.8846  1.3657
20788SOL    HW274424   6.819   2.317   0.731  0.8770 -0.4608 -1.1456
20789SOL     OW74425   5.171   0.753   6.757  0.2228  0.2554  0.7238
20789SOL    HW174426   5.232   0.769   6.835  1.6476 -1.1948 -0.0622
20789SOL    HW274427   5.215   0.784   6.673 -0.7826  0.6475  0.3401
20790SOL     OW74428   5.118   8.270   1.024 -0.1580  0.3243 -0.3270
20790SOL    HW174429   5.107   8.227   1.113  0.5291  1.4902  0.3294
20790SOL    HW274430   5.198   8.330   1.025 -0.8398  1.2659 -1.3609
20791SOL     OW74431   8.136   5.339   9.908  0.7037 -0.2535  0.5849
20791SOL    HW174432   8.161   5.339  10.004  1.6714 -0.7376  0.3368
20791SOL    HW274433   8.131   5.245   9.874  0.0798 -0.1013  0.2307
20792SOL     OW74434   6.687   0.261   5.063  0.1469 -0.1056  0.0847
20792SOL    HW174435   6.598   0.265   5.109  0.2145  0.9981  0.1160
20792SOL    HW274436   6.741   0.187   5.104 -0.1596  0.2280  1.1192
20793SOL     OW74437   1.375   6.196   6.988  0.3473 -0.0764 -0.0292
20793SOL    HW174438   1.406   6.181   6.894 -0.6779  0.6693 -0.4997
20793SOL    HW274439   1.327   6.115   7.020  0.8409 -0.3959 -0.0894
20794SOL     OW74440   0.881   1.189   8.673 -0.0328 -0.2347 -0.2354
20794SOL    HW174441   0.905   1.117   8.738 -0.2335  1.6713  2.0064
20794SOL    HW274442   0.808   1.156   8.613 -1.3993 -1.2794  1.9459
20795SOL     OW74443   4.455   2.510   4.298 -0.2729  0.0005 -0.3986
20795SOL    HW174444   4.454   2.533   4.201 -2.1462  0.8771 -0.1959
20795SOL    HW274445   4.537   2.549   4.340 -1.1486  2.5765 -0.9721
20796SOL     OW74446   4.078   1.050   6.804  0.8496  0.0503 -0.0158
20796SOL    HW174447   4.101   1.089   6.715  1.6207  0.1607  0.2292
20796SOL    HW274448   4.138   0.972   6.823  1.4798  0.7581  0.9315
20797SOL     OW74449   3.217   6.551   4.298  0.2885 -0.0181 -0.0544
20797SOL    HW174450   3.118   6.552   4.285  0.2602 -0.8962  0.0207
20797SOL    HW274451   3.238   6.520   4.391  0.6322  0.1773 -0.0661
20798SOL     OW74452   5.513   3.570   9.624 -0.0064  0.2132 -0.2220
20798SOL    HW174453   5.481   3.528   9.539  4.1602 -0.9860 -1.3287
20798SOL    HW274454   5.488   3.512   9.701 -1.2458 -0.2278 -0.9484
20799SOL     OW74455   1.306   2.828   7.605  0.5229  0.0565  0.3259
20799SOL    HW174456   1.237   2.762   7.574  0.0535  0.2983  0.8548
20799SOL    HW274457   1.387   2.778   7.636  0.2250 -0.2686  0.5874
20800SOL     OW74458   7.960   6.227   6.039  0.2510 -0.0575 -0.2542
20800SOL    HW174459   8.013   6.306   6.067 -0.6346  0.1377  0.9233
20800SOL    HW274460   7.988   6.147   6.092  0.8552 -0.4537 -1.1487
20801SOL     OW74461   1.665   4.721   2.925  0.3544  0.1554 -0.0946
20801SOL    HW174462   1.628   4.759   3.011  1.6224  0.1901  0.4523
20801SOL    HW274463   1.590   4.697   2.864 -0.5428  1.2221  0.5640
20802SOL     OW74464   5.975   1.242   1.826  0.2754  0.2567  0.0269
20802SOL    HW174465   5.906   1.282   1.767 -0.6536  0.6039  1.3289
20802SOL    HW274466   6.047   1.310   1.844 -0.9008  1.1228  1.5980
20803SOL     OW74467   1.054   7.809   6.244 -0.0697  0.4733  0.2973
20803SOL    HW174468   1.044   7.727   6.187 -1.7341  1.8895 -1.5243
20803SOL    HW274469   1.148   7.842   6.238  0.4588 -0.9322  0.5489
20804SOL     OW74470   0.289   3.762   1.182  0.1626  0.3845 -0.3913
20804SOL    HW174471   0.289   3.704   1.263  0.3295  1.0225  0.0752
20804SOL    HW274472   0.266   3.708   1.102  1.0209 -0.4704 -0.0763
20805SOL     OW74473   2.523   8.777   6.889  0.2335  0.2060 -0.0928
20805SOL    HW174474   2.445   8.791   6.829  1.2453  0.9487 -1.2657
20805SOL    HW274475   2.514   8.689   6.936 -0.5613 -0.3972 -1.3386
20806SOL     OW74476   7.960   4.956   8.249  0.5625 -0.4424  0.6108
20806SOL    HW174477   8.003   4.881   8.298 -0.7273 -1.1053  0.7469
20806SOL    HW274478   7.948   5.034   8.311  0.9421 -0.4956  0.7522
20807SOL     OW74479   7.022   1.200   4.227  0.7987  0.3603  0.0474
20807SOL    HW174480   7.003   1.205   4.128  1.1908 -0.5136 -0.0706
20807SOL    HW274481   6.935   1.205   4.277  0.7432  3.4286 -0.2243
20808SOL     OW74482   1.661   8.047   1.053 -0.0819 -0.3143  0.0922
20808SOL    HW174483   1.648   8.110   1.130  0.4336 -0.2116  0.0938
20808SOL    HW274484   1.594   7.974   1.059 -1.7715  1.1106 -0.8034
20809SOL     OW74485   0.253   2.671   5.044 -0.3444 -0.0364 -0.4900
20809SOL    HW174486   0.239   2.678   4.945  0.9670  2.7033 -0.5128
20809SOL    HW274487   0.348   2.645   5.062 -0.3595  0.2867  0.0583
20810SOL     OW74488   4.568   0.936   4.311 -0.0252 -0.4578  0.5098
20810SOL    HW174489   4.515   0.852   4.329  0.7383 -0.3797  3.4551
20810SOL    HW274490   4.561   0.997   4.390  1.7037  1.0520 -0.4640
20811SOL     OW74491   8.533   1.529   9.139 -0.0347  0.0615 -0.1972
20811SOL    HW174492   8.545   1.497   9.233  3.1602  0.8973 -0.2645
20811SOL    HW274493   8.578   1.466   9.076 -0.3091  0.6505 -0.9971
20812SOL     OW74494   8.302   9.381   9.617  0.0015 -0.4961 -0.2099
20812SOL    HW174495   8.246   9.352   9.540  2.0293 -2.1260 -1.1072
20812SOL    HW274496   8.298   9.312   9.689  0.1188 -0.1844  0.0959
20813SOL     OW74497   1.054   7.684   3.177  0.4967 -0.2330 -0.2483
20813SOL    HW174498   1.065   7.782   3.159  2.8220 -0.9326 -2.9890
20813SOL    HW274499   0.971   7.651   3.132  1.3434 -0.1054 -1.9305
20814SOL     OW74500   8.960   1.602   9.883  0.3529  0.2236  0.0850
20814SOL    HW174501   9.034   1.551   9.839  0.5517  1.1676 -0.7093
20814SOL    HW274502   8.963   1.697   9.852 -1.2466  0.2437 -0.0266
20815SOL     OW74503   0.260   5.591   7.891  0.1401  0.4415  0.5063
20815SOL    HW174504   0.301   5.585   7.982  0.4332 -0.2233  0.3310
20815SOL    HW274505   0.315   5.540   7.825 -0.7165 -0.0807  0.1810
20816SOL     OW74506   6.136   7.984   4.876 -0.1191  0.1278 -0.3194
20816SOL    HW174507   6.068   8.050   4.907 -0.7330  0.3325 -2.0105
20816SOL    HW274508   6.147   7.912   4.945 -2.9925 -0.6022 -0.5245
20817SOL     OW74509   2.239   0.041   4.168  0.1634  0.7744  0.2098
20817SOL    HW174510   2.170   0.058   4.238 -1.4607  2.6483 -1.7613
20817SOL    HW274511   2.329   0.069   4.203 -0.0465 -1.4781  2.7145
20818SOL     OW74512   9.883   6.388   2.325  0.0320  0.0767 -0.5931
20818SOL    HW174513   9.918   6.435   2.244 -0.3458  0.1875 -0.6923
20818SOL    HW274514   9.893   6.447   2.405 -0.6596  0.4202 -0.7574
20819SOL     OW74515   0.499   6.201   0.495 -0.2032 -0.4592  0.5087
20819SOL    HW174516   0.492   6.300   0.504 -0.0874 -0.5458  1.6978
20819SOL    HW274517   0.513   6.161   0.586  2.6255 -1.3173 -0.2585
20820SOL     OW74518   7.051   6.002   1.701 -0.0195 -0.0567  0.1973
20820SOL    HW174519   7.127   5.995   1.765 -0.0602 -0.5932  0.1873
20820SOL    HW274520   6.982   5.933   1.723 -0.7408  0.7548  0.5235
20821SOL     OW74521   9.131   3.650   8.563 -0.1165  0.3504  0.1678
20821SOL    HW174522   9.147   3.730   8.621  0.3199 -0.5790  1.3684
20821SOL    HW274523   9.037   3.618   8.577  0.3896 -0.6509  1.3780
20822SOL     OW74524   8.398   6.736   2.670 -0.2380  0.0005  0.4352
20822SOL    HW174525   8.418   6.709   2.576 -0.6218  1.0817  0.0421
20822SOL    HW274526   8.484   6.738   2.723  0.3188  1.7391 -0.5012
20823SOL     OW74527   9.172   2.574   4.889 -0.4072 -0.3574 -0.4969
20823SOL    HW174528   9.174   2.647   4.957  0.3053  0.1008 -1.0070
20823SOL    HW274529   9.232   2.500   4.919  0.3410  0.0838 -0.8868
20824SOL     OW74530   8.527   6.353   3.425 -0.1734  0.3971  0.3986
20824SOL    HW174531   8.499   6.426   3.363  0.8613  0.5662  0.1293
20824SOL    HW274532   8.605   6.383   3.480  0.6270 -0.6885 -0.1138
20825SOL     OW74533   1.620   8.245   0.056  0.1296  0.3268 -0.2461
20825SOL    HW174534   1.599   8.238  -0.041  0.4481 -1.2741 -0.2148
20825SOL    HW274535   1.536   8.250   0.109 -0.0680 -0.1374 -0.5158
20826SOL     OW74536   0.550   3.388   0.924  0.3143 -0.2404 -0.1880
20826SOL    HW174537   0.472   3.383   0.862  1.1994  1.5054 -1.4457
20826SOL    HW274538   0.559   3.481   0.960 -0.8819 -1.4397  3.5162
20827SOL     OW74539   5.802   0.950   1.068  0.1855 -0.5546  0.5192
20827SOL    HW174540   5.709   0.977   1.042  0.7745  0.7872 -0.2328
20827SOL    HW274541   5.868   1.012   1.025  1.2876  0.7239  3.8731
20828SOL     OW74542   1.541   5.772   7.339 -0.1454 -0.2778  0.1620
20828SOL    HW174543   1.504   5.686   7.374  0.9047 -0.5244  0.6848
20828SOL    HW274544   1.549   5.766   7.239  0.5686 -1.0587  0.2579
20829SOL     OW74545   6.062   3.799   9.451  0.4364 -0.3088 -0.4976
20829SOL    HW174546   6.097   3.744   9.527 -0.0170 -1.0236 -0.8029
20829SOL    HW274547   6.025   3.738   9.381  0.5121  0.3641 -1.1225
20830SOL     OW74548   5.859   4.601   7.802 -0.2226 -0.6208  0.0987
20830SOL    HW174549   5.766   4.596   7.765 -0.6217  1.1296  0.7970
20830SOL    HW274550   5.919   4.643   7.734 -0.4644  0.4525  0.5352
20831SOL     OW74551   5.022   1.319   7.536 -0.1544 -0.0589 -0.3140
20831SOL    HW174552   4.950   1.354   7.597  0.6114  1.1932 -0.1094
20831SOL    HW274553   5.111   1.353   7.568  0.6702 -2.5659  0.1479
20832SOL     OW74554   9.445   2.063   4.930 -0.0199  0.1417  0.2179
20832SOL    HW174555   9.414   2.009   4.852  1.3233  0.7487 -0.7643
20832SOL    HW274556   9.368   2.083   4.991 -0.8249 -1.4921 -0.2393
20833SOL     OW74557   7.963   8.750   5.256 -0.4820  0.0321 -0.1763
20833SOL    HW174558   7.909   8.667   5.270 -0.1714 -0.4316 -1.5910
20833SOL    HW274559   7.906   8.819   5.211 -0.8396  0.7162  1.3087
20834SOL     OW74560   4.169   4.336   6.810 -0.4059  0.3552 -0.1511
20834SOL    HW174561   4.163   4.240   6.839 -0.4341  0.6287  0.7560
20834SOL    HW274562   4.166   4.340   6.710  1.6393 -0.7579 -0.3053
20835SOL     OW74563   0.340   3.798   6.553 -0.1573  0.4296  0.3630
20835SOL    HW174564   0.430   3.811   6.593  0.5304  0.3083 -1.1070
20835SOL    HW274565   0.286   3.882   6.565 -0.0472  0.3068  1.7256
20836SOL     OW74566   2.919   8.702   0.627  0.1098  0.4729  0.7694
20836SOL    HW174567   2.914   8.602   0.619 -2.5459  0.7251 -1.2252
20836SOL    HW274568   2.947   8.741   0.540  2.1868  1.4709  1.8364
20837SOL     OW74569   0.810   6.709   8.108  0.3128 -0.2384  0.6753
20837SOL    HW174570   0.904   6.743   8.105 -0.1779  1.3069  1.9745
20837SOL    HW274571   0.759   6.744   8.030  0.7242 -0.8468  0.1215
20838SOL     OW74572   2.738   3.724   7.079  0.6356 -0.1966 -0.5962
20838SOL    HW174573   2.668   3.662   7.114  0.6082 -0.7222 -1.5640
20838SOL    HW274574   2.737   3.809   7.132  0.2635 -0.7771  0.3438
20839SOL     OW74575   6.566   9.943   7.595 -1.3947  0.5912 -0.2458
20839SOL    HW174576   6.545   9.860   7.646  1.1957  0.6399  1.0143
20839SOL    HW274577   6.643   9.926   7.533 -2.3969  1.4159 -1.7420
20840SOL     OW74578   5.976   1.716   5.319 -0.5379 -0.0920 -0.0574
20840SOL    HW174579   5.996   1.710   5.417 -0.1613  0.4998 -0.0977
20840SOL    HW274580   6.051   1.674   5.268 -0.0573  0.8755 -0.1508
20841SOL     OW74581   6.112   8.450   2.933 -0.7334 -0.0789 -0.5923
20841SOL    HW174582   6.131   8.495   2.846  1.1538 -0.1191 -0.2228
20841SOL    HW274583   6.067   8.515   2.995  3.3078  1.8813  0.4669
20842SOL     OW74584   7.816   9.640   2.260  0.2726  0.0118 -0.5667
20842SOL    HW174585   7.810   9.633   2.359  0.8933  0.1624 -0.5163
20842SOL    HW274586   7.778   9.557   2.219 -3.4978  1.5539 -0.3317
20843SOL     OW74587   9.587   3.504   9.958  0.0065 -0.3142  0.6047
20843SOL    HW174588   9.549   3.460  10.039  0.4436 -0.0988  0.9229
20843SOL    HW274589   9.686   3.496   9.958  0.0371  0.0333  0.2916
20844SOL     OW74590   9.304   8.118   5.763 -0.5292 -0.5246 -0.5244
20844SOL    HW174591   9.372   8.054   5.728 -0.0450  0.4758 -1.4513
20844SOL    HW274592   9.212   8.082   5.747 -0.2351 -1.4298 -0.1561
20845SOL     OW74593   0.792   8.105   5.045 -0.1232  0.1878 -0.3467
20845SOL    HW174594   0.781   8.028   5.107 -0.0614 -0.0393 -0.6148
20845SOL    HW274595   0.797   8.071   4.951 -2.4576  0.6684 -0.6832
20846SOL     OW74596   7.664   4.732   3.246 -0.1553 -0.1937  0.7259
20846SOL    HW174597   7.617   4.806   3.198 -1.7103 -1.8953 -0.4455
20846SOL    HW274598   7.598   4.661   3.271  1.6543 -2.2501 -0.1957
20847SOL     OW74599   0.852   1.326   7.684 -0.1549  0.0969 -0.3903
20847SOL    HW174600   0.825   1.308   7.589 -1.9620  0.3848  0.0598
20847SOL    HW274601   0.894   1.417   7.689 -0.8736  0.4522 -0.7523
20848SOL     OW74602   7.220   4.358   2.660 -0.6731 -0.0313 -0.2011
20848SOL    HW174603   7.187   4.432   2.718 -1.7756  0.4711 -1.4442
20848SOL    HW274604   7.315   4.337   2.683  0.6362  3.7338 -1.7912
20849SOL     OW74605   3.837   7.503   0.522  0.2509 -1.0754 -0.1933
20849SOL    HW174606   3.755   7.537   0.567 -0.0550 -2.0538  0.0029
20849SOL    HW274607   3.814   7.424   0.465  0.3029  1.2158 -3.5155
20850SOL     OW74608   8.223   8.453   0.993  0.7498  0.1398  0.0338
20850SOL    HW174609   8.152   8.508   1.037  0.3214  0.0998 -0.6133
20850SOL    HW274610   8.183   8.398   0.920  1.6591  1.1323 -1.2359
20851SOL     OW74611   3.437   8.873   4.389  0.4735 -0.0872 -0.0096
20851SOL    HW174612   3.469   8.957   4.344 -0.7361 -0.5434 -1.7718
20851SOL    HW274613   3.513   8.808   4.397  1.1023  0.6649  0.1771
20852SOL     OW74614   1.543   7.713   4.459 -0.0386 -0.3372 -0.2122
20852SOL    HW174615   1.572   7.643   4.523 -2.2084 -1.6167 -0.5854
20852SOL    HW274616   1.604   7.792   4.467  1.8099 -1.8293  0.9349
20853SOL     OW74617   9.204   6.282   8.432  0.2848 -0.3650 -0.0483
20853SOL    HW174618   9.300   6.302   8.415 -0.0293  0.7857 -0.5021
20853SOL    HW274619   9.147   6.347   8.382 -0.6936  1.1587  2.9402
20854SOL     OW74620   9.416   0.065   6.402  0.0313 -0.1826 -0.2495
20854SOL    HW174621   9.420   0.156   6.359  0.1516  0.1807  0.5173
20854SOL    HW274622   9.361   0.070   6.485  1.2532 -0.4768  0.5915
20855SOL     OW74623   8.465   1.300   5.312 -0.4258 -0.4143 -0.2818
20855SOL    HW174624   8.377   1.263   5.342 -0.9931  1.6302  0.6347
20855SOL    HW274625   8.495   1.251   5.230 -2.5787 -0.9084 -0.8077
20856SOL     OW74626   9.369   6.399   4.149  0.0370  0.1822  0.1919
20856SOL    HW174627   9.288   6.459   4.149 -0.0947  0.0313  1.7927
20856SOL    HW274628   9.394   6.376   4.055 -1.8521  0.1430 -0.3138
20857SOL     OW74629   9.770   5.097   6.435  0.0436  0.3933 -0.1001
20857SOL    HW174630   9.842   5.149   6.482 -0.1828  1.6232 -1.1029
20857SOL    HW274631   9.779   5.109   6.336 -1.5177  0.5276 -0.2315
20858SOL     OW74632   3.531   8.618   6.869 -0.6356  0.1364 -0.5084
20858SOL    HW174633   3.567   8.710   6.855  1.3949 -0.2551  1.7537
20858SOL    HW274634   3.466   8.618   6.945 -2.2106  0.0468 -1.8293
20859SOL     OW74635   3.839   0.265   9.198  0.0044  0.5663 -0.3458
20859SOL    HW174636   3.774   0.273   9.273 -2.1507  0.4825 -2.1356
20859SOL    HW274637   3.801   0.310   9.117  0.7870 -2.2131 -2.3221
20860SOL     OW74638   1.707   3.440   5.343 -0.4170  0.3312 -0.6741
20860SOL    HW174639   1.634   3.372   5.333  0.0515 -0.0541 -1.6053
20860SOL    HW274640   1.705   3.502   5.264 -0.2156  0.7857 -0.3230
20861SOL     OW74641   7.168   8.247   7.929 -0.2728 -0.5279 -0.1474
20861SOL    HW174642   7.246   8.202   7.886  1.5416 -0.6932  3.1607
20861SOL    HW274643   7.189   8.344   7.942  0.6761 -1.1266  3.3903
20862SOL     OW74644   5.265   3.593   8.876  0.4126 -0.1161  0.1545
20862SOL    HW174645   5.261   3.571   8.778 -0.2166 -0.8407  0.3395
20862SOL    HW274646   5.175   3.625   8.907  0.4070 -0.6273  0.6675
20863SOL     OW74647   2.260   3.523   9.894 -0.3689  0.2295 -0.7453
20863SOL    HW174648   2.293   3.571   9.813 -0.2890 -0.6924 -1.2625
20863SOL    HW274649   2.259   3.425   9.877  0.8080 -0.0730  0.7744
20864SOL     OW74650   0.886   4.527   2.887 -0.0541 -0.3832 -0.0473
20864SOL    HW174651   0.893   4.600   2.955 -1.4730 -0.9268  0.6890
20864SOL    HW274652   0.791   4.498   2.878  0.6161 -2.8652  0.4264
20865SOL     OW74653   0.810   9.916   0.277  0.3720  0.3285  0.8122
20865SOL    HW174654   0.799   9.988   0.345  0.1460  2.5823 -1.5362
20865SOL    HW274655   0.896   9.929   0.228  1.0759 -1.9373  1.3834
20866SOL     OW74656   3.586   7.870   5.204  0.0349  0.1560 -0.2410
20866SOL    HW174657   3.566   7.968   5.214  0.4761  0.3658 -1.3731
20866SOL    HW274658   3.532   7.833   5.129  0.0326 -0.4264  0.0501
20867SOL     OW74659   5.986   0.832   3.204  0.1137 -0.3960  0.0588
20867SOL    HW174660   6.085   0.825   3.217  0.4383  1.1096 -1.4645
20867SOL    HW274661   5.967   0.867   3.113 -1.7330  2.2033  1.3838
20868SOL     OW74662   2.550   4.645   0.107  0.0113 -0.7410  0.2943
20868SOL    HW174663   2.475   4.636   0.173 -0.7035 -1.5359 -0.5961
20868SOL    HW274664   2.634   4.609   0.147  0.1903  1.2360  1.7338
20869SOL     OW74665   5.791   8.466   6.624  0.0337  0.2578 -0.1932
20869SOL    HW174666   5.781   8.371   6.652  1.9055  0.2417  0.4337
20869SOL    HW274667   5.771   8.474   6.526  0.6092 -0.9031 -0.4153
20870SOL     OW74668   8.791   8.435   5.762 -0.1075 -0.2458 -0.4725
20870SOL    HW174669   8.776   8.343   5.799  0.9175 -0.1698  0.1597
20870SOL    HW274670   8.882   8.467   5.789  0.2236  0.2597 -2.1583
20871SOL     OW74671   9.342   1.128  10.019 -0.0518  0.0324 -0.2478
20871SOL    HW174672   9.434   1.103  10.049  0.1175  0.0941 -0.7029
20871SOL    HW274673   9.291   1.045   9.996  0.3021  0.0597 -1.1640
20872SOL     OW74674   2.557   6.864   1.748 -0.2293  0.3188 -0.4983
20872SOL    HW174675   2.531   6.815   1.831 -1.1722 -0.6495 -1.3435
20872SOL    HW274676   2.618   6.806   1.693  0.4656  0.9895 -0.4452
20873SOL     OW74677   0.887   4.373   4.165 -0.0370 -0.2331 -0.3886
20873SOL    HW174678   0.983   4.345   4.157  0.3920  1.0381  0.1706
20873SOL    HW274679   0.854   4.403   4.075  0.1242 -0.5484 -0.5552
20874SOL     OW74680   8.523   1.569   7.565  0.2054  0.0535 -0.6104
20874SOL    HW174681   8.506   1.558   7.467  2.7106 -0.9888 -0.9759
20874SOL    HW274682   8.501   1.662   7.593 -0.1766  0.4660 -2.2394
20875SOL     OW74683   8.128   4.127   9.985  0.0248 -0.0739 -0.0022
20875SOL    HW174684   8.051   4.156   9.928  0.2300 -0.3180 -0.4058
20875SOL    HW274685   8.209   4.114   9.928 -0.0941 -1.5402  0.1364
20876SOL     OW74686   1.946   9.375   9.714  0.3696  0.1091 -0.1837
20876SOL    HW174687   1.865   9.354   9.769  1.6080 -0.6024  1.4175
20876SOL    HW274688   1.943   9.323   9.629 -1.0818  0.4605 -0.3615
20877SOL     OW74689   2.207   1.730   5.330  0.4038  0.7020 -0.1690
20877SOL    HW174690   2.187   1.748   5.234  0.3880  0.3188 -0.2367
20877SOL    HW274691   2.246   1.812   5.372  2.2482  0.2715 -0.9990
20878SOL     OW74692   2.070   4.336   5.236  0.1004 -0.0835 -0.0437
20878SOL    HW174693   2.074   4.382   5.147  1.8386  2.6145  1.3618
20878SOL    HW274694   2.161   4.337   5.278 -0.9170 -0.3372  2.2402
20879SOL     OW74695   0.088   9.309   7.278 -0.5550 -0.0910 -0.0048
20879SOL    HW174696  -0.009   9.328   7.265 -0.7445 -0.0324  1.3892
20879SOL    HW274697   0.109   9.216   7.248 -0.6986  0.4603 -1.8705
20880SOL     OW74698   9.322   4.446   8.638 -0.1667 -0.6933 -0.2755
20880SOL    HW174699   9.374   4.366   8.666  0.3042  0.0412  0.9831
20880SOL    HW274700   9.265   4.477   8.714  1.4058  1.5393  0.0449
20881SOL     OW74701   6.200   2.233   0.438 -0.3056 -0.9996  0.0130
20881SOL    HW174702   6.153   2.152   0.403  2.1712 -2.8108  0.7962
20881SOL    HW274703   6.269   2.206   0.504  0.3337  1.8079  0.5547
20882SOL     OW74704   1.897   9.190   6.969 -0.2856  0.0149 -0.2832
20882SOL    HW174705   1.821   9.159   7.027  1.0565 -0.4791  1.2614
20882SOL    HW274706   1.957   9.249   7.022  1.0648 -0.5767 -1.1359
20883SOL     OW74707   3.221   7.865   4.394  0.1460  0.0829 -0.3577
20883SOL    HW174708   3.154   7.901   4.459  0.8381  0.5547  0.0907
20883SOL    HW274709   3.236   7.768   4.413 -0.5544 -0.0709 -0.5799
20884SOL     OW74710   2.446   3.420   2.338 -0.2788  0.9883 -0.1120
20884SOL    HW174711   2.358   3.446   2.298 -0.4376  0.5356 -0.0658
20884SOL    HW274712   2.517   3.482   2.306 -0.7918  1.9881  0.6554
20885SOL     OW74713   5.133   2.450   9.961  0.2540 -0.1931  0.2221
20885SOL    HW174714   5.216   2.396   9.946 -0.2962 -0.6988 -1.0546
20885SOL    HW274715   5.082   2.411  10.038  1.0516 -0.0623  0.8155
20886SOL     OW74716   4.062   5.099   2.171  0.3345 -0.1564  0.1125
20886SOL    HW174717   4.084   5.123   2.266  0.7872 -0.5037  0.0986
20886SOL    HW274718   4.058   5.000   2.162 -2.0380 -0.0866  0.2795
20887SOL     OW74719   0.549   3.988   2.792 -0.5385  0.4293 -0.2179
20887SOL    HW174720   0.592   3.938   2.867  0.8854  0.2790 -1.1080
20887SOL    HW274721   0.603   4.070   2.772  0.5507 -0.8354 -2.7157
20888SOL     OW74722   5.505   9.604   6.143 -0.0997 -0.6593 -0.2295
20888SOL    HW174723   5.474   9.682   6.088  0.2150 -0.6647 -0.4178
20888SOL    HW274724   5.594   9.625   6.184  0.4899 -1.3183 -1.1421
20889SOL     OW74725   8.660   5.384   0.167 -0.9919 -0.3101 -0.4206
20889SOL    HW174726   8.638   5.319   0.094 -0.5170 -0.0821 -0.7640
20889SOL    HW274727   8.647   5.478   0.133  2.3964 -0.0959 -1.2482
20890SOL     OW74728   7.595   8.678   1.958  0.4296 -0.0193  0.2161
20890SOL    HW174729   7.552   8.590   1.934  0.4360 -0.1900  0.8303
20890SOL    HW274730   7.570   8.703   2.051  0.3208  0.7030 -0.0108
20891SOL     OW74731   3.479   8.025   4.679  0.4389  0.0205 -0.4031
20891SOL    HW174732   3.417   8.037   4.602  1.6399  2.8887 -0.9695
20891SOL    HW274733   3.573   8.026   4.647  0.9331  0.6683  1.0274
20892SOL     OW74734   8.979   1.828   2.176 -0.1898  0.3729 -0.5182
20892SOL    HW174735   8.912   1.815   2.103 -1.0518  0.3293  0.2732
20892SOL    HW274736   8.955   1.771   2.254 -0.0753  1.4792  0.3447
20893SOL     OW74737   4.087   3.434   9.249  0.1310  0.4990  0.1498
20893SOL    HW174738   4.087   3.381   9.333 -0.5387  0.5650  0.1915
20893SOL    HW274739   4.058   3.377   9.172  0.6546  0.4625 -0.0229
20894SOL     OW74740   7.934   2.540   8.713  0.1784  0.3119 -0.6562
20894SOL    HW174741   7.908   2.445   8.695  1.5904 -0.0663 -0.7104
20894SOL    HW274742   7.860   2.601   8.684 -0.4410 -0.7242 -1.2617
20895SOL     OW74743   0.085   9.165   4.533  0.0560 -0.5881  0.1323
20895SOL    HW174744   0.049   9.143   4.443 -0.6355 -0.1722  0.3062
20895SOL    HW274745   0.044   9.103   4.601 -0.2006 -0.2288  0.3048
20896SOL     OW74746   4.741   7.193   1.617 -0.0816 -0.1591 -0.4822
20896SOL    HW174747   4.788   7.229   1.698  0.1925 -2.9492  0.6695
20896SOL    HW274748   4.808   7.160   1.551 -0.3484  0.3079 -0.9948
20897SOL     OW74749   9.216   3.665   5.005  0.2734  0.3503  0.2349
20897SOL    HW174750   9.211   3.756   5.044  0.2408  0.1332  0.7388
20897SOL    HW274751   9.139   3.651   4.942 -1.3577 -0.3459  2.3425
20898SOL     OW74752   5.332   7.552   3.935 -0.1665 -0.0493 -0.0895
20898SOL    HW174753   5.250   7.568   3.880  0.8375  1.4916 -1.1771
20898SOL    HW274754   5.405   7.518   3.875 -0.0117 -1.4790  0.8874
20899SOL     OW74755   8.210   7.602   8.619  0.0974  0.2127 -0.4494
20899SOL    HW174756   8.287   7.659   8.590 -0.2750  0.2241 -1.4360
20899SOL    HW274757   8.164   7.645   8.697  0.2679  0.9045 -0.7260
20900SOL     OW74758   7.121   7.234   2.111 -0.1843  0.1650 -0.0427
20900SOL    HW174759   7.125   7.326   2.152  0.2002  0.2955 -0.3647
20900SOL    HW274760   7.134   7.241   2.013 -2.2112 -0.0473 -0.3416
20901SOL     OW74761   0.670   6.962   5.513 -0.4271 -0.2828 -0.0686
20901SOL    HW174762   0.584   6.916   5.535 -0.6467  0.6065  0.9371
20901SOL    HW274763   0.704   7.010   5.593 -1.0384  2.6921 -1.5013
20902SOL     OW74764   5.679   9.800   7.611  0.5385 -0.1314  0.7072
20902SOL    HW174765   5.621   9.718   7.602 -1.2241  0.9174  2.2508
20902SOL    HW274766   5.762   9.776   7.661  0.6794 -1.2805 -0.0481
20903SOL     OW74767   2.883   1.517   1.073 -0.2087 -0.4526 -0.0701
20903SOL    HW174768   2.857   1.424   1.046 -1.4958  0.3880 -1.7868
20903SOL    HW274769   2.800   1.571   1.088  0.5416  0.8774 -0.6622
20904SOL     OW74770   5.122   1.676   8.400 -0.3376  0.4196 -0.3396
20904SOL    HW174771   5.213   1.646   8.426  0.3061  1.4542 -1.3310
20904SOL    HW274772   5.066   1.597   8.374  0.6957 -0.0892 -1.0193
20905SOL     OW74773   0.103   8.939   9.087 -0.4570  0.4832 -0.0079
20905SOL    HW174774   0.114   9.009   9.158  0.1022 -0.3801  0.7720
20905SOL    HW274775   0.138   8.852   9.121 -0.4812 -0.0147 -1.2395
20906SOL     OW74776   9.456   9.409   8.374  0.2536  0.6512  0.0162
20906SOL    HW174777   9.542   9.445   8.337  0.0919  1.6280  0.5643
20906SOL    HW274778   9.387   9.407   8.302  0.8526 -0.5668 -0.5456
20907SOL     OW74779   1.090   9.370   2.268  0.7527 -0.4079 -0.0265
20907SOL    HW174780   1.094   9.470   2.274  1.1308 -0.3563 -1.0138
20907SOL    HW274781   1.062   9.343   2.176 -2.9458 -1.1653  1.2479
20908SOL     OW74782   0.747   0.534   1.466 -0.4713  0.1177  0.0515
20908SOL    HW174783   0.687   0.461   1.499  0.6103 -0.4120  0.8839
20908SOL    HW274784   0.704   0.580   1.388 -1.9921 -0.1949  0.6822
20909SOL     OW74785   5.453   6.661   9.775  0.4450 -0.3991 -0.2235
20909SOL    HW174786   5.438   6.642   9.678  0.1571  0.4241 -0.3458
20909SOL    HW274787   5.458   6.759   9.790 -1.1296 -0.4495  0.8235
20910SOL     OW74788   7.677   2.995   1.435 -0.0762 -0.4669 -0.4036
20910SOL    HW174789   7.643   2.963   1.346 -0.1990 -1.5583  0.0273
20910SOL    HW274790   7.618   2.960   1.508 -1.0979  2.0272 -0.0192
20911SOL     OW74791   1.682   0.001   4.350 -0.0415 -0.8574 -0.4494
20911SOL    HW174792   1.689   0.054   4.265  0.6505  0.9803  0.7200
20911SOL    HW274793   1.747   0.038   4.417 -1.0553 -1.8632  1.1047
20912SOL     OW74794   9.369   9.008   3.051  0.0015  0.8329  0.4996
20912SOL    HW174795   9.293   8.969   3.000 -1.1849  1.7465  1.5491
20912SOL    HW274796   9.385   8.953   3.133 -0.2002  1.2374  0.8097
20913SOL     OW74797   2.194   5.906   0.048  0.7740 -0.5841 -0.0887
20913SOL    HW174798   2.248   5.948   0.121  0.0627  0.7682 -0.3265
20913SOL    HW274799   2.215   5.951  -0.039  2.0385 -2.5589 -0.8440
20914SOL     OW74800   6.874   1.409   2.712 -0.1774 -0.7283  0.3678
20914SOL    HW174801   6.879   1.498   2.667 -2.1390 -0.2737  1.0253
20914SOL    HW274802   6.950   1.351   2.679  3.8590  2.6155  3.2242
20915SOL     OW74803   8.287   6.266   3.568  0.6400  0.4261  0.4404
20915SOL    HW174804   8.337   6.348   3.540  0.4192  0.6292  0.6382
20915SOL    HW274805   8.343   6.212   3.630  0.8806  0.3039  0.1147
20916SOL     OW74806   6.518   7.952   7.066  0.0519 -0.2477  0.0812
20916SOL    HW174807   6.566   7.920   6.985  0.4039 -0.9317  0.5611
20916SOL    HW274808   6.469   8.037   7.044  0.5134 -0.1847 -0.7184
20917SOL     OW74809   2.681   5.178   5.861  0.2850 -0.1974  0.3000
20917SOL    HW174810   2.735   5.095   5.853  0.3033 -0.0460 -1.2470
20917SOL    HW274811   2.642   5.184   5.953  2.1537 -0.7551  1.1328
20918SOL     OW74812   3.445   1.858   0.010  0.2106  0.2626 -0.3535
20918SOL    HW174813   3.426   1.927   0.080 -0.4167  0.7724 -1.0150
20918SOL    HW274814   3.522   1.801   0.039 -1.1092 -0.6263  1.5477
20919SOL     OW74815   0.416   6.040   3.839  0.5301  0.2976  0.1923
20919SOL    HW174816   0.394   6.114   3.902 -1.3843  0.0059 -0.0993
20919SOL    HW274817   0.477   5.975   3.883  1.1713  1.3516  0.8912
20920SOL     OW74818   4.430   4.960   2.559  0.1136  0.3628 -0.0642
20920SOL    HW174819   4.408   5.043   2.609  0.6027  1.0948 -1.0389
20920SOL    HW274820   4.485   4.983   2.478  1.1188 -1.0079  0.2074
20921SOL     OW74821   7.807   3.556   3.343  0.0582  0.3134  0.1837
20921SOL    HW174822   7.844   3.614   3.416 -1.7377 -0.3261  1.6430
20921SOL    HW274823   7.881   3.529   3.281  1.5736  1.0843  1.6066
20922SOL     OW74824   7.790   6.583   7.952  0.4127  0.5033  0.7650
20922SOL    HW174825   7.759   6.529   8.031  0.0347 -0.8695 -0.3060
20922SOL    HW274826   7.855   6.652   7.983  1.9927 -1.4746  1.9879
20923SOL     OW74827   1.308   9.154   6.934 -0.3539 -0.4113  0.3287
20923SOL    HW174828   1.357   9.198   7.010 -0.4597 -1.1505  0.8319
20923SOL    HW274829   1.373   9.130   6.862 -0.1720 -0.1642  0.4099
20924SOL     OW74830   6.932   5.069   8.461  0.2917 -0.2349 -0.1464
20924SOL    HW174831   6.987   5.152   8.464 -1.4715  1.1146 -2.9340
20924SOL    HW274832   6.844   5.085   8.506  0.6380 -1.1466  0.8595
20925SOL     OW74833   4.202   3.550   6.408  0.3458  0.2684  0.7857
20925SOL    HW174834   4.231   3.454   6.406  1.7578  0.6867  1.0489
20925SOL    HW274835   4.108   3.555   6.443  0.3508 -0.9945  1.0021
20926SOL     OW74836   9.814   0.900   4.278 -0.1038  0.0922  0.2031
20926SOL    HW174837   9.745   0.924   4.210 -0.2941 -0.1620  0.3062
20926SOL    HW274838   9.903   0.892   4.233 -0.6257 -2.4878 -0.4901
20927SOL     OW74839   0.999   1.291   1.256 -0.1228  0.1708 -0.4696
20927SOL    HW174840   1.040   1.304   1.166 -0.1928  1.0245 -0.3866
20927SOL    HW274841   0.923   1.355   1.267 -1.5319 -1.4542 -0.6569
20928SOL     OW74842   8.815   8.457   1.493  0.3989 -0.2650 -0.1426
20928SOL    HW174843   8.821   8.441   1.591  1.1647 -1.9597 -0.4640
20928SOL    HW274844   8.890   8.517   1.464  0.3771 -0.0529  0.2385
20929SOL     OW74845   9.950   8.838   8.718  0.4786  0.0817  0.1667
20929SOL    HW174846   9.876   8.811   8.656  1.0219 -0.2920 -0.3311
20929SOL    HW274847  10.018   8.891   8.667  1.3707 -0.9829  0.2252
20930SOL     OW74848   1.959   7.947   6.642  0.2482 -0.4269 -0.3542
20930SOL    HW174849   1.926   7.906   6.728 -1.5859  1.0839 -0.2925
20930SOL    HW274850   2.027   8.017   6.663  1.8175 -1.9290 -0.3292
20931SOL     OW74851   0.039   5.855   0.752  0.7234  0.9426  0.1086
20931SOL    HW174852  -0.004   5.767   0.732  2.2328  0.3065 -0.4398
20931SOL    HW274853  -0.017   5.929   0.715  0.1094  0.1262 -0.6085
20932SOL     OW74854   3.831   6.541   1.024  0.8110 -0.2559 -0.0170
20932SOL    HW174855   3.876   6.613   0.972  0.0386  0.5291  0.3861
20932SOL    HW274856   3.745   6.575   1.061  0.5956 -1.2842  0.4636
20933SOL     OW74857   8.162   4.109   1.453 -0.3368 -0.1303  0.2596
20933SOL    HW174858   8.133   4.097   1.548 -0.4094  2.3574  0.5757
20933SOL    HW274859   8.084   4.092   1.393 -0.9183  0.6582  0.7780
20934SOL     OW74860   0.881   8.128   7.163  0.8367  0.2264 -0.4166
20934SOL    HW174861   0.831   8.148   7.079 -1.1599 -1.0415  0.4383
20934SOL    HW274862   0.890   8.212   7.216 -0.4984  0.4742 -0.5481
20935SOL     OW74863   7.775   6.250   1.522 -0.0348 -0.0711 -0.3838
20935SOL    HW174864   7.799   6.269   1.427 -1.3855  0.1456 -0.6885
20935SOL    HW274865   7.832   6.175   1.556  0.4967 -0.1103 -1.3346
20936SOL     OW74866   0.502   1.289   7.363 -0.2310 -0.2611 -0.2766
20936SOL    HW174867   0.552   1.262   7.281  0.3915 -1.1473  0.3764
20936SOL    HW274868   0.476   1.207   7.414 -1.7312  0.2289 -0.2454
20937SOL     OW74869   4.303   4.241   7.456 -0.3120  1.0794  0.4483
20937SOL    HW174870   4.335   4.295   7.379 -0.2565 -0.2564 -0.4751
20937SOL    HW274871   4.211   4.206   7.436  0.4448 -0.7841  0.2196
20938SOL     OW74872   4.624   1.660   7.143 -0.1726 -0.1887  0.3673
20938SOL    HW174873   4.549   1.633   7.203  0.6540  2.1195  2.5201
20938SOL    HW274874   4.644   1.757   7.156  3.0376 -0.7014 -0.3391
20939SOL     OW74875   7.855   7.754   4.564 -0.2719 -0.6178 -0.4756
20939SOL    HW174876   7.757   7.739   4.549 -0.2589 -2.2402  0.8848
20939SOL    HW274877   7.883   7.709   4.649  1.4879  0.5549 -0.4013
20940SOL     OW74878   8.678   7.443   2.549 -0.7662  0.2984  0.0396
20940SOL    HW174879   8.642   7.352   2.568 -0.9571  0.2774 -0.4263
20940SOL    HW274880   8.735   7.473   2.625 -1.4302  0.1617  0.5937
20941SOL     OW74881   6.970   3.070   8.204 -0.3913 -0.2896 -0.8098
20941SOL    HW174882   6.962   3.084   8.105 -2.2440  0.0075 -0.6439
20941SOL    HW274883   6.891   3.112   8.250  0.1440 -0.9377  0.7437
20942SOL     OW74884   9.765   8.619   3.333  0.3356  0.1473 -0.4490
20942SOL    HW174885   9.753   8.683   3.256  1.2418 -0.5027 -1.1433
20942SOL    HW274886   9.737   8.528   3.305 -1.7228  0.3802  0.8012
20943SOL     OW74887   9.989   7.095   4.095 -0.6175  0.2792 -0.1715
20943SOL    HW174888   9.991   7.102   3.996  3.9594 -1.0746 -0.3114
20943SOL    HW274889   9.939   7.173   4.134 -0.2488  2.1959 -3.4147
20944SOL     OW74890   2.212   6.510   2.352 -0.4550  0.4026  0.1232
20944SOL    HW174891   2.222   6.426   2.407  0.9435  1.5892  1.7360
20944SOL    HW274892   2.115   6.527   2.336 -0.8595 -0.4453  1.5231
20945SOL     OW74893   0.156   7.123   6.247  0.4129 -0.1904  0.3850
20945SOL    HW174894   0.114   7.136   6.337 -0.7522 -0.1921 -0.1430
20945SOL    HW274895   0.097   7.164   6.177  0.8543 -0.9917 -0.4639
20946SOL     OW74896   9.254   3.726   0.839  0.0366 -0.0305 -0.5065
20946SOL    HW174897   9.300   3.647   0.799  1.7055  0.8949 -0.4370
20946SOL    HW274898   9.183   3.759   0.777 -0.7594 -1.6343 -0.4891
20947SOL     OW74899   3.443   7.028   5.955 -0.1253 -0.6601 -0.1055
20947SOL    HW174900   3.388   7.111   5.948  1.6323  0.4417 -1.2081
20947SOL    HW274901   3.429   6.972   5.872  0.3306 -0.4307 -0.3378
20948SOL     OW74902   5.214   1.317   3.982 -0.6811  0.5337  0.3654
20948SOL    HW174903   5.254   1.264   4.057  1.5559 -0.3999 -1.4245
20948SOL    HW274904   5.135   1.369   4.016  0.3391  0.2130  3.3554
20949SOL     OW74905   3.538   1.086   3.659 -0.1873 -0.1012 -0.1328
20949SOL    HW174906   3.456   1.040   3.624 -0.5108 -0.1731  0.7100
20949SOL    HW274907   3.535   1.183   3.633  0.6982 -0.6154 -2.2655
20950SOL     OW74908   9.477   0.339   1.050  0.0582 -0.8033 -0.0626
20950SOL    HW174909   9.569   0.342   1.013 -0.7200 -0.7929 -2.0684
20950SOL    HW274910   9.479   0.358   1.148  2.2931 -2.0151  0.1298
20951SOL     OW74911   8.244   8.046   6.522  0.0475  0.1270 -0.3821
20951SOL    HW174912   8.338   8.068   6.498  0.1233 -0.5849 -0.7818
20951SOL    HW274913   8.202   8.122   6.570  1.0233  0.2048  0.3443
20952SOL     OW74914   5.185   2.465   1.208  0.2851  0.3539 -0.1328
20952SOL    HW174915   5.178   2.474   1.307  1.7333 -0.3921  0.0360
20952SOL    HW274916   5.265   2.410   1.184  0.0035  0.6052 -1.7189
20953SOL     OW74917   0.356   9.281   2.627 -0.1165  0.6689  0.1892
20953SOL    HW174918   0.279   9.257   2.567 -0.1916  1.5757 -0.0842
20953SOL    HW274919   0.351   9.225   2.710 -0.7088  0.2683 -0.1066
20954SOL     OW74920   0.523   5.284   6.408 -0.2986  0.5464  0.0419
20954SOL    HW174921   0.586   5.253   6.480  0.0658  0.4604 -0.3165
20954SOL    HW274922   0.517   5.384   6.410  0.9049  0.6496 -0.8063
20955SOL     OW74923   0.171   2.118   3.662  0.3830 -0.6215 -0.3930
20955SOL    HW174924   0.251   2.142   3.717  0.6325 -0.5095 -0.7990
20955SOL    HW274925   0.100   2.079   3.721 -0.2549  1.6145  0.3890
20956SOL     OW74926   6.146   1.209   4.285 -0.2021  0.0242  0.0513
20956SOL    HW174927   6.159   1.134   4.220  0.1180  1.2900 -1.3838
20956SOL    HW274928   6.055   1.249   4.271  0.3270  1.0640 -0.4396
20957SOL     OW74929   3.870   0.987   3.944  0.2592  0.2389 -0.3951
20957SOL    HW174930   3.868   0.910   3.880 -0.2281 -1.3301  1.4503
20957SOL    HW274931   3.778   1.025   3.952 -0.0295 -0.6445  0.6144
20958SOL     OW74932   3.954   4.496   5.988 -0.3996  0.7346 -0.0970
20958SOL    HW174933   3.887   4.441   5.939 -0.2265  0.6379 -0.2248
20958SOL    HW274934   3.991   4.443   6.065 -1.0708  1.0771  0.4691
20959SOL     OW74935   5.332   0.954   6.585 -0.0623 -0.8532  0.1120
20959SOL    HW174936   5.294   0.991   6.670 -0.7452  0.4245 -0.7157
20959SOL    HW274937   5.423   0.993   6.570 -0.0195 -0.9308  0.1787
20960SOL     OW74938   9.890   0.528   8.073 -0.0338  0.2548  0.1029
20960SOL    HW174939   9.853   0.606   8.023 -0.0076 -0.5846 -1.2558
20960SOL    HW274940   9.984   0.511   8.043 -0.2692 -0.7050 -0.1160
20961SOL     OW74941   9.918   2.355   3.621 -0.0569  0.1570 -0.4248
20961SOL    HW174942   9.952   2.271   3.580 -1.6600 -0.0410 -1.3987
20961SOL    HW274943   9.994   2.407   3.660  1.6411  0.8126 -4.4577
20962SOL     OW74944   2.340   3.477   5.476  0.6034 -0.8580  0.2069
20962SOL    HW174945   2.250   3.456   5.513 -0.2785  0.4977 -1.1021
20962SOL    HW274946   2.333   3.493   5.378  1.9595  1.0267  0.3862
20963SOL     OW74947   4.089   4.469   8.590  0.7177  0.1792  0.2272
20963SOL    HW174948   4.185   4.452   8.614  0.4699 -1.4991  0.1512
20963SOL    HW274949   4.084   4.523   8.506  1.5891  2.3166  1.5235
20964SOL     OW74950   0.686   0.915   7.343  0.0334 -0.3257  0.3730
20964SOL    HW174951   0.658   0.940   7.251  0.2818 -0.0037  0.3827
20964SOL    HW274952   0.605   0.900   7.400 -0.1169 -0.9428 -0.0085
20965SOL     OW74953   2.175   5.364   7.545 -0.7012 -0.0192 -0.4072
20965SOL    HW174954   2.213   5.393   7.632 -2.7187 -0.5040  0.6776
20965SOL    HW274955   2.152   5.444   7.490 -0.0369  0.2954 -0.2269
20966SOL     OW74956   3.291   9.111   2.100  0.2292 -0.6955  0.2184
20966SOL    HW174957   3.334   9.021   2.112 -1.9773 -1.7073  0.6931
20966SOL    HW274958   3.351   9.182   2.139  1.9611 -1.9349 -0.1026
20967SOL     OW74959   6.142   4.080   9.420 -0.1503  0.4052 -0.1356
20967SOL    HW174960   6.081   4.000   9.425  1.1025 -0.7040 -1.8485
20967SOL    HW274961   6.113   4.148   9.487 -0.8733 -1.7444  1.8270
20968SOL     OW74962   0.247   7.526   0.011  0.8453 -0.1502 -0.3944
20968SOL    HW174963   0.319   7.525  -0.058  0.0510 -4.7451 -1.3632
20968SOL    HW274964   0.163   7.564  -0.029  1.5931  1.3398 -0.5587
20969SOL     OW74965   3.105   7.709   6.477  0.0280  0.4019 -0.4674
20969SOL    HW174966   3.014   7.678   6.505  0.5691  0.1927  1.0974
20969SOL    HW274967   3.108   7.809   6.481 -0.0517  0.3975 -0.2889
20970SOL     OW74968   5.498   9.741   7.189  0.0046 -0.0429 -0.1136
20970SOL    HW174969   5.552   9.734   7.273 -1.4240 -0.7341  0.7652
20970SOL    HW274970   5.549   9.700   7.114  0.0662 -2.0851  1.0124
20971SOL     OW74971   7.496   6.575   8.420  0.2570  0.6677  0.2835
20971SOL    HW174972   7.463   6.482   8.405  1.9740 -0.0171  0.5867
20971SOL    HW274973   7.558   6.576   8.499 -0.5544  2.2651  0.9219
20972SOL     OW74974   9.093   9.247   3.559 -0.0877 -0.4987  0.2934
20972SOL    HW174975   9.110   9.326   3.617  0.6120 -0.1286 -0.4086
20972SOL    HW274976   8.995   9.242   3.538  0.0383  0.9223 -0.7055
20973SOL     OW74977   8.735   2.173   1.159 -0.1575 -0.0847  0.0729
20973SOL    HW174978   8.688   2.085   1.147 -0.3714 -0.0663  0.7749
20973SOL    HW274979   8.743   2.218   1.070  0.2976 -0.9850 -0.3509
20974SOL     OW74980   0.198   2.996   0.890 -0.1448 -0.0852  0.8635
20974SOL    HW174981   0.154   2.921   0.840 -0.5404  0.7337 -0.0316
20974SOL    HW274982   0.142   3.021   0.969  1.1726 -2.3218  2.5687
20975SOL     OW74983   6.834   3.321   1.674  0.6081 -0.3873  0.5258
20975SOL    HW174984   6.769   3.281   1.737 -0.2995 -1.2244 -0.9176
20975SOL    HW274985   6.801   3.312   1.580  1.4471  1.7178 -0.0281
20976SOL     OW74986   8.739   7.028   7.363 -0.8169 -0.1287 -0.3904
20976SOL    HW174987   8.725   6.929   7.351  1.3237 -0.7348  1.7931
20976SOL    HW274988   8.792   7.044   7.446 -1.5048  2.9114 -0.5004
20977SOL     OW74989   5.527   0.232   5.011 -0.0993 -0.8693 -0.3936
20977SOL    HW174990   5.440   0.236   5.060  1.5666  0.1667  2.5712
20977SOL    HW274991   5.547   0.321   4.971  0.6005 -0.5058  0.7485
20978SOL     OW74992   7.579   2.739   4.109  0.2497  0.3710  0.3633
20978SOL    HW174993   7.539   2.830   4.098 -0.1896  0.1136 -0.1954
20978SOL    HW274994   7.533   2.692   4.184  0.6191  0.6818  0.7915
20979SOL     OW74995   9.449   2.896   8.052  0.1235 -0.0601 -0.4495
20979SOL    HW174996   9.532   2.941   8.086 -0.6053 -0.5179  2.1044
20979SOL    HW274997   9.473   2.809   8.010  1.0375  0.2658 -0.6198
20980SOL     OW74998   6.871   8.619   6.413  0.1322 -0.1322  0.2683
20980SOL    HW174999   6.880   8.537   6.356  0.7802 -0.6636  1.1303
20980SOL    HW275000   6.775   8.632   6.437  0.1482 -1.1967  0.9358
20981SOL     OW75001   9.605   7.304   0.056 -0.6657 -0.0955 -0.2962
20981SOL    HW175002   9.625   7.208   0.039 -1.3622 -0.3609  0.3741
20981SOL    HW275003   9.688   7.349   0.092 -0.1589 -0.2901 -1.2075
20982SOL     OW75004   1.429   4.130   5.381 -0.5691  0.4788  0.0169
20982SOL    HW175005   1.352   4.105   5.440 -0.1546  1.9592  1.2330
20982SOL    HW275006   1.514   4.120   5.432 -0.1113  0.6891 -0.7012
20983SOL     OW75007   1.271   2.958   5.191 -0.5497  0.2749  0.3547
20983SOL    HW175008   1.354   2.962   5.134  0.2483  0.0604  1.4885
20983SOL    HW275009   1.238   3.050   5.208 -0.1209  0.4030  0.5009
20984SOL     OW75010   2.753   0.439   8.534 -0.6934  0.2484 -0.0832
20984SOL    HW175011   2.700   0.455   8.450 -1.1510 -1.8297 -0.2129
20984SOL    HW275012   2.692   0.437   8.612 -0.2686  2.1525  0.3263
20985SOL     OW75013   9.981   4.534   9.870 -0.0450  0.4262 -0.3725
20985SOL    HW175014  10.020   4.565   9.783 -0.0382 -2.3566 -1.4180
20985SOL    HW275015   9.883   4.556   9.872 -0.2374 -0.2558 -1.4955
20986SOL     OW75016   8.433   0.449   4.354 -0.6215 -0.5457 -0.3816
20986SOL    HW175017   8.399   0.502   4.276 -1.7199  3.0380  2.4008
20986SOL    HW275018   8.356   0.414   4.407  0.0390  0.3474  1.2190
20987SOL     OW75019   2.186   7.042   5.249  0.0815  0.4640  0.4542
20987SOL    HW175020   2.190   7.121   5.189 -1.5779 -1.5189 -2.4057
20987SOL    HW275021   2.094   7.003   5.247  0.3420 -0.4703  3.2833
20988SOL     OW75022   2.108   1.484   0.602  0.0361 -0.4447 -0.1547
20988SOL    HW175023   2.014   1.465   0.572 -0.2801  2.6445 -1.3123
20988SOL    HW275024   2.107   1.558   0.669  1.7773  1.2567 -1.9247
20989SOL     OW75025   1.405   1.108   7.381  0.5285 -0.5372 -0.2007
20989SOL    HW175026   1.389   1.162   7.464 -0.0125  0.2988 -0.8485
20989SOL    HW275027   1.458   1.162   7.316 -0.5459 -0.5594 -1.1035
20990SOL     OW75028   5.522   6.490   0.220 -0.1684 -0.2931  0.0965
20990SOL    HW175029   5.565   6.577   0.196 -1.4522  0.5543  0.8221
20990SOL    HW275030   5.552   6.419   0.156  0.1284  0.8940 -1.1016
20991SOL     OW75031   7.571   2.157   9.057  0.2085  0.3464  0.6183
20991SOL    HW175032   7.597   2.232   8.997 -1.3557  1.5739  1.3971
20991SOL    HW275033   7.605   2.070   9.021  0.7510  1.2587 -1.0976
20992SOL     OW75034   0.991   8.567   2.568  0.3565  0.2910  0.2517
20992SOL    HW175035   1.033   8.574   2.658  0.4944 -1.3562  0.3371
20992SOL    HW275036   0.911   8.507   2.573  1.0960 -0.8298 -0.9509
20993SOL     OW75037   5.713   8.477   5.379 -0.2331 -0.5271  0.0823
20993SOL    HW175038   5.747   8.567   5.405 -0.7717  0.1616 -1.5434
20993SOL    HW275039   5.616   8.470   5.400 -0.5268 -0.1919 -1.1243
20994SOL     OW75040   0.578   8.064   2.622 -0.0757  0.3266  0.2706
20994SOL    HW175041   0.573   8.143   2.560 -0.3735 -0.5384 -0.8143
20994SOL    HW275042   0.561   8.095   2.716  1.0753  1.7699  0.0298
20995SOL     OW75043   3.369   5.892   7.920  0.5612  0.3331  0.1160
20995SOL    HW175044   3.332   5.807   7.882 -1.5946  0.9558  0.7275
20995SOL    HW275045   3.301   5.933   7.981  1.9909  1.9669  0.6542
20996SOL     OW75046   7.534   3.919   7.823 -0.1169 -0.1559  0.9631
20996SOL    HW175047   7.499   3.854   7.756  0.3712  1.0434 -0.5048
20996SOL    HW275048   7.577   3.996   7.775 -1.4457  1.6755  2.6311
20997SOL     OW75049   1.413   0.952   5.309  0.2038  0.3447 -0.2918
20997SOL    HW175050   1.326   0.964   5.357 -0.3027 -0.6012 -0.9584
20997SOL    HW275051   1.442   0.857   5.315  1.5915  0.7987  0.5704
20998SOL     OW75052   9.029   1.398   1.421 -0.1167 -0.9286 -0.4524
20998SOL    HW175053   9.089   1.477   1.409 -1.8397  0.4989  0.1377
20998SOL    HW275054   9.079   1.314   1.397  2.6707  0.0192  1.7150
20999SOL     OW75055   5.477   3.189   8.039  0.3977 -0.6221  0.0889
20999SOL    HW175056   5.550   3.122   8.055  0.4008 -1.1499 -2.0144
20999SOL    HW275057   5.508   3.256   7.971 -0.4947  0.1147  0.3929
21000SOL     OW75058   5.076   9.879   4.564  0.1447  0.0918  0.2880
21000SOL    HW175059   5.094   9.827   4.648 -3.3817 -1.0242  0.4499
21000SOL    HW275060   5.108   9.973   4.576  3.0638 -1.0077  1.4580
21001SOL     OW75061   4.071   5.839   2.548 -0.3570 -0.1845  0.4208
21001SOL    HW175062   4.057   5.748   2.586  2.4219 -0.4688  0.8877
21001SOL    HW275063   4.054   5.838   2.449  0.1156 -1.3036  0.3529
21002SOL     OW75064   6.491   9.183   3.630  0.1295  0.8458 -0.1952
21002SOL    HW175065   6.527   9.208   3.720 -1.0595  1.3300  0.1583
21002SOL    HW275066   6.422   9.250   3.602 -0.3405  0.0558 -0.9515
21003SOL     OW75067   8.513   1.154   4.240 -0.1054 -0.2157  0.4340
21003SOL    HW175068   8.545   1.066   4.275  2.1131  0.3457 -0.0716
21003SOL    HW275069   8.458   1.200   4.310 -4.1023 -3.3933 -0.4701
21004SOL     OW75070   8.396   3.442   7.297  0.2457 -0.5297 -0.0137
21004SOL    HW175071   8.470   3.489   7.345  0.2549 -0.1301 -0.4169
21004SOL    HW275072   8.418   3.344   7.291  0.4431 -0.5168  0.4193
21005SOL     OW75073   8.792   9.643   0.478 -0.4196  0.1054 -0.3560
21005SOL    HW175074   8.772   9.741   0.474  0.5914  0.2566 -2.3339
21005SOL    HW275075   8.714   9.591   0.444  0.0694  0.3753 -1.9203
21006SOL     OW75076   4.755   5.246   9.316 -0.3231  0.4965 -0.1310
21006SOL    HW175077   4.693   5.225   9.391  0.2305  1.4690  0.6034
21006SOL    HW275078   4.707   5.301   9.248 -0.4016  0.8272  0.1954
21007SOL     OW75079   7.338   5.033   9.898  0.0184 -0.0101 -0.2679
21007SOL    HW175080   7.366   5.072   9.986  1.2329  0.0957 -0.6843
21007SOL    HW275081   7.274   4.958   9.914 -0.3584  0.4917  0.6636
21008SOL     OW75082   1.920   5.858   2.411 -0.4570  0.0157 -0.0513
21008SOL    HW175083   1.962   5.930   2.467  1.1934 -0.6057 -0.4682
21008SOL    HW275084   1.982   5.834   2.336 -1.7354 -0.6578 -0.9074
21009SOL     OW75085   2.345   3.955   7.061  0.6171 -1.1919  0.4562
21009SOL    HW175086   2.281   4.017   7.106 -0.1405 -1.5020 -0.2002
21009SOL    HW275087   2.434   4.000   7.053 -0.5907  0.8432 -2.3249
21010SOL     OW75088   4.433   4.045  10.046  0.7180  0.1904  0.1955
21010SOL    HW175089   4.452   3.948  10.033 -0.1987  0.2004 -1.2748
21010SOL    HW275090   4.510   4.099  10.013  0.6310  0.0141 -0.2959
21011SOL     OW75091   3.375   5.029   5.241 -0.1346 -0.2877  0.3779
21011SOL    HW175092   3.292   5.078   5.214 -0.0513  0.6840  1.8043
21011SOL    HW275093   3.395   5.049   5.337  2.7542  0.9305 -0.4245
21012SOL     OW75094   1.950   6.693   9.234 -0.5393 -0.1938 -0.2685
21012SOL    HW175095   1.925   6.774   9.182 -0.0383  1.4076  1.8997
21012SOL    HW275096   1.884   6.679   9.308 -1.7033 -2.8917 -1.7296
21013SOL     OW75097   1.966   2.691   3.893  0.0302 -0.5925 -0.2377
21013SOL    HW175098   1.964   2.781   3.938 -1.4014 -0.4007 -0.6824
21013SOL    HW275099   1.999   2.623   3.958  2.6205  0.4887 -0.3347
21014SOL     OW75100   1.543   4.431   8.692 -0.3090  0.3329  0.0988
21014SOL    HW175101   1.538   4.466   8.785 -0.4795 -0.0614  0.2402
21014SOL    HW275102   1.487   4.347   8.684  3.0726 -2.0715  0.7423
21015SOL     OW75103   5.330   1.051   5.574  0.4574  0.1228  0.1286
21015SOL    HW175104   5.346   1.079   5.479 -2.2366  2.3512  0.2640
21015SOL    HW275105   5.234   1.025   5.584  0.3629  1.3254  2.5870
21016SOL     OW75106   9.227   3.992   6.222 -0.6276  0.1227 -0.2574
21016SOL    HW175107   9.258   4.085   6.202 -1.1198  0.4704  0.5840
21016SOL    HW275108   9.304   3.930   6.216  0.3067  1.0136  2.0512
21017SOL     OW75109   1.324   6.968   8.860  0.1300 -0.1230 -0.4714
21017SOL    HW175110   1.241   7.025   8.863  0.2241  0.0274 -0.6943
21017SOL    HW275111   1.368   6.968   8.950 -0.2165 -0.3592 -0.3010
21018SOL     OW75112   7.510   7.647   5.361  0.1823 -0.6383 -0.2147
21018SOL    HW175113   7.461   7.560   5.347 -0.2596 -0.1504 -1.7920
21018SOL    HW275114   7.445   7.723   5.356  1.0010 -0.0239 -1.7969
21019SOL     OW75115   3.555   4.134   9.592 -0.4411 -0.5597  0.0399
21019SOL    HW175116   3.534   4.187   9.510 -0.1057 -0.5700 -0.0549
21019SOL    HW275117   3.520   4.182   9.672 -3.0606 -1.7945 -0.3032
21020SOL     OW75118   4.026   5.528   8.499  0.6222  0.2378 -0.0748
21020SOL    HW175119   4.112   5.478   8.490  0.7526  0.5770 -0.7558
21020SOL    HW275120   3.950   5.472   8.466  0.5683 -0.0826  0.5782
21021SOL     OW75121   8.591   7.538   9.933  1.1018 -0.2761 -0.5592
21021SOL    HW175122   8.528   7.568  10.004  0.4170  0.0097 -1.2773
21021SOL    HW275123   8.675   7.503   9.975  0.9876  0.5388  0.3589
21022SOL     OW75124   7.833   2.703   4.907 -0.3644 -0.1777  0.5320
21022SOL    HW175125   7.854   2.608   4.931 -0.0836 -0.3342 -0.3285
21022SOL    HW275126   7.784   2.705   4.820 -0.8066  0.4378  0.7942
21023SOL     OW75127   7.648   7.570   0.866 -0.2325 -0.6022  0.2138
21023SOL    HW175128   7.668   7.531   0.777  3.6970 -0.7262  1.0819
21023SOL    HW275129   7.655   7.670   0.862  1.7929 -0.6957  0.7473
21024SOL     OW75130   3.029   8.727   2.139  0.0489 -0.1556  0.5436
21024SOL    HW175131   3.014   8.750   2.042 -0.0984 -1.9498  0.1243
21024SOL    HW275132   2.958   8.770   2.195 -0.4892  0.0172 -0.2645
21025SOL     OW75133   9.250   9.284   4.527  0.2873  0.1339 -0.0564
21025SOL    HW175134   9.306   9.283   4.444  0.1597 -0.6426 -0.1344
21025SOL    HW275135   9.304   9.252   4.604 -0.2031 -1.1401 -0.2327
21026SOL     OW75136   0.250   9.284   6.120 -0.0454  0.2120 -0.0622
21026SOL    HW175137   0.203   9.201   6.149  0.7446 -0.5151 -0.8187
21026SOL    HW275138   0.184   9.359   6.113 -0.8941 -0.5229 -0.0802
21027SOL     OW75139   5.754   4.727   9.192  0.4658  0.0908  0.4998
21027SOL    HW175140   5.660   4.754   9.212 -0.1280 -2.4877  1.3689
21027SOL    HW275141   5.759   4.695   9.097  0.4782  0.1691  0.4728
21028SOL     OW75142   4.555   8.067   3.809  0.7542 -0.4618 -0.0694
21028SOL    HW175143   4.607   8.118   3.878  1.1175 -0.9355  0.0076
21028SOL    HW275144   4.596   8.082   3.719  0.7867 -0.5185 -0.0638
21029SOL     OW75145   4.216   0.231   3.324 -0.3962 -0.2197 -0.0305
21029SOL    HW175146   4.243   0.324   3.348 -1.4335 -0.2919  1.4551
21029SOL    HW275147   4.125   0.232   3.282  0.0494 -0.4530 -1.0210
21030SOL     OW75148   8.918   7.746   5.619  0.1500  0.5044 -0.5249
21030SOL    HW175149   9.015   7.738   5.595  0.1609  1.1309 -0.7007
21030SOL    HW275150   8.872   7.804   5.552 -0.6838 -1.0841 -1.3622
21031SOL     OW75151   1.279   9.145   5.474 -0.0683 -0.2689 -0.0066
21031SOL    HW175152   1.322   9.230   5.504  1.3122 -0.5219 -1.1986
21031SOL    HW275153   1.200   9.125   5.532 -1.0801  2.3958 -0.3958
21032SOL     OW75154   7.379   5.626   7.935 -0.2085 -0.0504  0.4888
21032SOL    HW175155   7.366   5.703   7.872  1.2582 -0.9815 -0.9800
21032SOL    HW275156   7.476   5.612   7.951 -0.5185 -0.7634  1.8130
21033SOL     OW75157   0.965   8.661   5.203 -0.3910 -0.1803 -0.0005
21033SOL    HW175158   0.921   8.579   5.167 -1.1436  0.0982  0.2747
21033SOL    HW275159   0.903   8.707   5.266  0.8593 -0.5657  1.5384
21034SOL     OW75160   3.631   2.886   7.864  0.5559  0.0221 -0.3285
21034SOL    HW175161   3.588   2.800   7.895  0.0377 -0.7565 -3.0612
21034SOL    HW275162   3.730   2.879   7.874  0.4131 -0.2312  1.0340
21035SOL     OW75163   8.065   0.707   8.487  0.2182  0.4431  0.2668
21035SOL    HW175164   8.012   0.640   8.436  0.6235  0.2387  0.1147
21035SOL    HW275165   8.007   0.784   8.511 -0.2418  0.0545  0.4104
21036SOL     OW75166   0.396   5.108   0.429 -0.1209  0.0421 -0.4301
21036SOL    HW175167   0.343   5.177   0.379  1.2226 -0.0505 -2.0237
21036SOL    HW275168   0.492   5.115   0.403  0.4345 -0.7521  1.3482
21037SOL     OW75169   7.982   6.765   8.018  0.7203 -0.1447  0.1060
21037SOL    HW175170   8.060   6.726   7.969  1.4883  0.0460  1.1784
21037SOL    HW275171   8.006   6.780   8.113 -0.8908 -0.8522  0.6496
21038SOL     OW75172   6.185   3.511   1.175 -0.0663 -0.5265  0.1625
21038SOL    HW175173   6.172   3.457   1.258  0.4483 -1.7795 -0.5711
21038SOL    HW275174   6.187   3.451   1.096  1.9705  0.4303 -0.5350
21039SOL     OW75175   8.065   5.631   6.482  0.0785  0.1945 -0.1238
21039SOL    HW175176   8.063   5.545   6.533 -0.9926  0.3590  0.1113
21039SOL    HW275177   8.149   5.635   6.428  0.5472 -0.6125  0.5245
21040SOL     OW75178   9.072   5.153   3.994  0.0110 -0.3461  0.9055
21040SOL    HW175179   9.102   5.233   3.942 -0.4430 -0.8278 -0.1086
21040SOL    HW275180   8.986   5.174   4.041  1.3058  0.6592  2.8920
21041SOL     OW75181   9.297   7.814   8.273  0.5837  0.6410  0.1899
21041SOL    HW175182   9.385   7.780   8.240  1.2704  1.8852  0.7197
21041SOL    HW275183   9.298   7.914   8.274  0.6370  0.6736  4.0621
21042SOL     OW75184   3.077   8.834   6.193  0.3833  0.4883 -0.2330
21042SOL    HW175185   3.026   8.799   6.115  0.0097  1.0476 -0.2430
21042SOL    HW275186   3.167   8.866   6.163  0.5510 -0.0399 -0.2970
21043SOL     OW75187   3.358   1.820   9.438 -0.3497 -0.1420  0.2443
21043SOL    HW175188   3.344   1.806   9.536 -0.2630 -0.9285  0.1445
21043SOL    HW275189   3.454   1.804   9.415 -0.1761  0.9556  0.1841
21044SOL     OW75190   0.606   1.317   3.058  0.2800  0.2591  0.3331
21044SOL    HW175191   0.615   1.395   2.996  0.1647  0.3159  0.3887
21044SOL    HW275192   0.697   1.291   3.092  0.6597 -1.4290 -1.8925
21045SOL     OW75193   9.450   2.913   0.603 -0.3873  0.1366  0.5211
21045SOL    HW175194   9.529   2.878   0.553 -0.9263  0.6498 -0.7125
21045SOL    HW275195   9.481   2.975   0.676  0.4517 -1.3387  1.4483
21046SOL     OW75196   2.280   2.104   6.191 -0.5037  0.1767  0.2366
21046SOL    HW175197   2.213   2.066   6.127 -1.6978  1.9473  0.3933
21046SOL    HW275198   2.238   2.113   6.282 -0.2104  1.6866  0.2387
21047SOL     OW75199   5.252   7.815   4.772  0.6307  0.7993 -0.0182
21047SOL    HW175200   5.321   7.817   4.845  1.2879  0.7430 -0.6294
21047SOL    HW275201   5.292   7.776   4.689 -0.6129 -0.7490  0.0915
21048SOL     OW75202   1.837   1.230   5.674 -0.0851 -0.3201 -0.4456
21048SOL    HW175203   1.745   1.266   5.666  0.2108  0.2768 -1.2117
21048SOL    HW275204   1.882   1.268   5.755 -0.4518 -0.5037 -0.1527
21049SOL     OW75205   2.670   9.029   8.245  0.8606  0.2018  0.2480
21049SOL    HW175206   2.629   9.113   8.282  1.9326  1.4900 -1.4248
21049SOL    HW275207   2.710   9.049   8.156 -0.5554 -2.5393 -1.0593
21050SOL     OW75208   6.143   3.047   9.158 -0.0683  0.1373  0.4511
21050SOL    HW175209   6.114   2.953   9.136  0.1044  0.3440 -0.6605
21050SOL    HW275210   6.122   3.066   9.254 -1.9608 -0.3459  0.1436
21051SOL     OW75211   6.325   1.397   5.085 -0.6290 -0.1887  0.0881
21051SOL    HW175212   6.324   1.314   5.140 -1.2871 -0.5199 -0.4193
21051SOL    HW275213   6.269   1.384   5.003  0.7316  0.1297 -0.9026
21052SOL     OW75214   9.328   4.455   7.260  0.6921  0.1486 -0.4401
21052SOL    HW175215   9.380   4.401   7.193 -1.7928 -1.7788 -0.9019
21052SOL    HW275216   9.232   4.458   7.233  0.4656  3.4251  0.5402
21053SOL     OW75217   8.140   3.840   7.067  0.0250  0.3527  0.0352
21053SOL    HW175218   8.131   3.754   7.017  0.1156 -0.3017  1.1331
21053SOL    HW275219   8.211   3.832   7.136 -0.0364  1.2799  0.2183
21054SOL     OW75220   1.155   4.276   6.970 -0.3323 -0.0278 -0.2891
21054SOL    HW175221   1.101   4.339   7.027 -1.4831 -0.4893 -0.8633
21054SOL    HW275222   1.139   4.182   7.000  2.8659  0.0268  1.8383
21055SOL     OW75223   3.266   7.478   3.919  0.0539  0.6329 -0.0142
21055SOL    HW175224   3.229   7.570   3.930 -0.2172  0.7856 -2.0695
21055SOL    HW275225   3.197   7.419   3.877  1.2441  0.2852 -1.5485
21056SOL     OW75226   9.689   1.998   6.181 -0.3916  0.0971  0.2057
21056SOL    HW175227   9.607   2.011   6.237  1.6244  0.0441  3.2715
21056SOL    HW275228   9.739   2.084   6.174  0.7883 -0.5266  0.8238
21057SOL     OW75229   8.316   0.364   0.935  0.5585  0.0489  0.2510
21057SOL    HW175230   8.373   0.434   0.891  0.5454 -0.6499 -0.8956
21057SOL    HW275231   8.364   0.328   1.014  1.8514 -0.7184 -0.8509
21058SOL     OW75232   3.906   4.060   1.014 -0.9678 -0.1594  0.3310
21058SOL    HW175233   3.951   4.119   0.947  1.1529 -0.4919  1.4036
21058SOL    HW275234   3.973   4.031   1.082 -2.9039 -0.4847  2.1375
21059SOL     OW75235   1.869   9.465   0.984  0.5545 -0.8045 -0.3067
21059SOL    HW175236   1.898   9.530   1.054 -0.8609 -0.1765 -0.2925
21059SOL    HW275237   1.926   9.476   0.902  1.4842 -0.7822  0.3356
21060SOL     OW75238   1.581   6.191   2.260  0.1612 -0.6684  0.3698
21060SOL    HW175239   1.528   6.146   2.333 -0.6545 -0.4837 -0.1097
21060SOL    HW275240   1.527   6.195   2.177  1.5765 -2.0824 -0.6603
21061SOL     OW75241   6.867   4.510   1.887  0.6727  0.0421  0.3786
21061SOL    HW175242   6.887   4.529   1.791  0.8824  2.6766  0.9001
21061SOL    HW275243   6.875   4.595   1.940 -0.8037 -1.0975  2.4960
21062SOL     OW75244   1.247   0.115   7.585  0.0855  0.0930 -0.1359
21062SOL    HW175245   1.185   0.132   7.509  0.3539  0.4813 -0.2674
21062SOL    HW275246   1.328   0.173   7.576  1.7588 -2.3288 -1.4336
21063SOL     OW75247   8.921   0.421   2.422  0.1764 -0.1721 -0.8011
21063SOL    HW175248   8.861   0.426   2.342 -0.3764 -0.2711 -0.3901
21063SOL    HW275249   8.882   0.474   2.497  0.0652 -1.1255 -0.1865
21064SOL     OW75250   6.121   3.247   1.344  0.2587  0.2605  0.3400
21064SOL    HW175251   6.038   3.263   1.397  0.8878 -2.0157  2.0847
21064SOL    HW275252   6.104   3.266   1.247 -1.7341  1.6333  0.9376
21065SOL     OW75253   4.709   1.375   6.286 -0.0666 -0.0918 -0.2350
21065SOL    HW175254   4.658   1.366   6.371 -0.7791 -1.4441 -0.7840
21065SOL    HW275255   4.664   1.440   6.225  0.9556  1.5889  0.7784
21066SOL     OW75256   0.664   2.509   2.896  0.1167  0.0592  0.1120
21066SOL    HW175257   0.663   2.581   2.827 -0.9319 -0.0349  0.0238
21066SOL    HW275258   0.641   2.549   2.985  1.8408  0.2522  0.4913
21067SOL     OW75259   8.979   3.346   1.532 -0.0585  0.0772  0.5111
21067SOL    HW175260   9.063   3.302   1.565  0.5024  0.2135 -0.7119
21067SOL    HW275261   8.942   3.294   1.455 -0.7848  0.3445  0.6694
21068SOL     OW75262   4.210   4.694   5.507 -0.1746  0.1522 -0.8586
21068SOL    HW175263   4.153   4.680   5.426 -1.3317 -0.0634 -0.0315
21068SOL    HW275264   4.305   4.672   5.486 -0.7031 -1.3586 -1.7408
21069SOL     OW75265   7.187   7.312   1.840 -0.4156 -0.4539  0.2941
21069SOL    HW175266   7.137   7.397   1.826  0.1002 -0.3066 -0.6604
21069SOL    HW275267   7.243   7.292   1.760  0.3873 -1.0750  0.9948
21070SOL     OW75268   6.470   8.243   5.640  0.4925  0.1302  0.2428
21070SOL    HW175269   6.568   8.254   5.656  0.5432  1.4089 -0.8564
21070SOL    HW275270   6.421   8.318   5.683 -0.1894 -1.5265  2.4241
21071SOL     OW75271   3.004   4.585   1.896 -0.2048 -0.1107  0.1770
21071SOL    HW175272   3.090   4.637   1.894 -0.0505 -0.3963 -1.0236
21071SOL    HW275273   2.960   4.598   1.985  0.8532  0.4024  0.6442
21072SOL     OW75274   8.198   1.017   6.693  0.2990 -0.2186  0.1428
21072SOL    HW175275   8.203   1.085   6.767  0.3915 -0.7375  0.6196
21072SOL    HW275276   8.127   0.950   6.714 -0.1820  0.0577 -0.6054
21073SOL     OW75277   1.203   8.232   8.443  0.3191  0.1289 -0.6055
21073SOL    HW175278   1.178   8.211   8.537 -0.2149  1.8074 -0.3613
21073SOL    HW275279   1.299   8.258   8.439  0.4258 -0.2513 -0.5873
21074SOL     OW75280   4.166   8.234   5.781  0.0736 -0.0776  0.4602
21074SOL    HW175281   4.156   8.240   5.682 -1.2359 -1.5691  0.4991
21074SOL    HW275282   4.222   8.311   5.813  0.4232  0.4673 -1.4095
21075SOL     OW75283   6.439   2.100   5.093 -0.6958 -0.1472  0.5327
21075SOL    HW175284   6.353   2.066   5.131 -0.8746  0.3226  0.5455
21075SOL    HW275285   6.424   2.187   5.047 -0.3621 -0.4048 -0.0843
21076SOL     OW75286   9.399   8.082   8.281 -0.2167  0.2969  0.4184
21076SOL    HW175287   9.411   8.112   8.376  1.8883 -2.8700  1.2268
21076SOL    HW275288   9.481   8.104   8.229 -0.5196  0.1307 -0.1236
21077SOL     OW75289   2.342   8.142   7.931  0.6969 -0.3018  0.2992
21077SOL    HW175290   2.309   8.232   7.962  0.2268 -0.3269 -0.1090
21077SOL    HW275291   2.378   8.091   8.009  1.1898  0.3355  0.4964
21078SOL     OW75292   4.138   8.481   6.952  0.4096  0.5919 -0.5576
21078SOL    HW175293   4.119   8.578   6.934 -0.6742  0.2359 -1.4004
21078SOL    HW275294   4.160   8.435   6.866  1.4270  0.1925 -0.0884
21079SOL     OW75295   0.820   5.094   7.666  0.3316 -0.0283  0.1399
21079SOL    HW175296   0.887   5.094   7.740  0.5806  0.8654 -0.0783
21079SOL    HW275297   0.748   5.027   7.686  1.3414 -1.0795  0.3200
21080SOL     OW75298   2.121   5.670   8.002  0.0521 -0.1551 -0.3294
21080SOL    HW175299   2.094   5.758   8.043  0.2373  0.4856 -1.5753
21080SOL    HW275300   2.221   5.662   8.003  0.0683 -0.0090 -0.9365
21081SOL     OW75301   9.467   7.399   1.357  0.0121  0.0505 -0.2790
21081SOL    HW175302   9.493   7.304   1.339  1.9523  0.5259 -0.1359
21081SOL    HW275303   9.466   7.450   1.271  0.9691  0.3553 -0.1197
21082SOL     OW75304   8.821   8.581   4.234  0.4291 -0.1590 -0.5148
21082SOL    HW175305   8.765   8.604   4.314 -0.0826 -1.4950 -0.4796
21082SOL    HW275306   8.762   8.557   4.157  0.9316 -0.1460 -0.9080
21083SOL     OW75307   2.362   1.434   2.207 -0.5719  0.1027 -0.3239
21083SOL    HW175308   2.367   1.479   2.117  1.5914  0.0806 -0.2420
21083SOL    HW275309   2.449   1.388   2.226 -1.5474 -1.1709  1.1296
21084SOL     OW75310   9.065   4.882   7.552  0.3919 -0.1232 -0.7886
21084SOL    HW175311   9.068   4.979   7.525  1.1804 -0.4838 -2.0670
21084SOL    HW275312   9.010   4.831   7.486 -0.0378 -0.5467 -0.1065
21085SOL     OW75313   8.412   6.381   6.062 -0.7436 -0.4626  0.2134
21085SOL    HW175314   8.394   6.418   6.153  0.1619  0.3339  0.0695
21085SOL    HW275315   8.452   6.452   6.004  1.2412 -1.7232  0.0074
21086SOL     OW75316   0.444   4.413   9.543  0.2424 -0.4529 -0.2336
21086SOL    HW175317   0.379   4.337   9.548  0.5091 -0.5905  1.3871
21086SOL    HW275318   0.487   4.427   9.632  0.6797  1.1902 -0.6693
21087SOL     OW75319   9.982   3.409   3.098 -0.3137  0.6304 -0.0950
21087SOL    HW175320   9.927   3.343   3.046  0.0947 -0.8728  1.3451
21087SOL    HW275321   9.997   3.491   3.042 -0.2981 -0.7415 -2.1667
21088SOL     OW75322   8.667   3.659   8.745  0.8360  0.5634  0.6647
21088SOL    HW175323   8.613   3.734   8.706  1.9606  1.0122 -0.0591
21088SOL    HW275324   8.719   3.615   8.672 -0.9312 -1.8903  0.8340
21089SOL     OW75325   0.918   1.863   2.312 -0.9230 -0.0296  0.1741
21089SOL    HW175326   0.871   1.776   2.328 -0.7296 -0.1319  0.1831
21089SOL    HW275327   0.947   1.869   2.217  0.4198 -0.6382  0.5449
21090SOL     OW75328   8.136   7.446   6.844 -0.0267 -0.2976 -0.8370
21090SOL    HW175329   8.133   7.366   6.905  2.6795  0.1917 -0.0174
21090SOL    HW275330   8.078   7.518   6.881  0.2019 -0.6530  0.2437
21091SOL     OW75331   0.900   4.818   2.589  0.1344 -0.2384  0.1756
21091SOL    HW175332   0.807   4.853   2.597  0.1847 -0.6644  3.1696
21091SOL    HW275333   0.955   4.853   2.665  1.8648 -1.6849 -0.3826
21092SOL     OW75334   9.003   2.577   3.639 -0.7364 -1.0019  0.4717
21092SOL    HW175335   8.918   2.591   3.690 -2.0366 -3.6353 -0.8602
21092SOL    HW275336   9.023   2.658   3.584 -1.6889  0.1310  1.7561
21093SOL     OW75337   0.512   3.044   0.075 -0.1598 -0.5636  0.1280
21093SOL    HW175338   0.593   3.103   0.083  1.2890 -2.5294  0.2088
21093SOL    HW275339   0.433   3.100   0.050  1.2380  1.3765 -0.0670
21094SOL     OW75340   0.074   0.195   7.731 -0.1152  0.4684  0.8331
21094SOL    HW175341   0.124   0.114   7.698 -0.5379 -0.1465  1.6958
21094SOL    HW275342   0.131   0.245   7.796  0.1087  0.8244  0.3715
21095SOL     OW75343   1.290   9.522   3.541  0.3101 -0.1979 -0.3044
21095SOL    HW175344   1.238   9.604   3.516  0.9879  0.3795  0.1711
21095SOL    HW275345   1.368   9.512   3.480  0.2644 -0.4600 -0.3211
21096SOL     OW75346   5.343   7.903   5.890  0.0930  0.1481 -0.0238
21096SOL    HW175347   5.294   7.940   5.970 -1.6583 -1.1294 -0.4743
21096SOL    HW275348   5.432   7.947   5.882 -0.5072  1.6870  1.5173
21097SOL     OW75349   0.831   9.069   5.334 -0.3087  0.1611  0.1845
21097SOL    HW175350   0.752   9.114   5.292 -0.2439  1.8279  1.8389
21097SOL    HW275351   0.799   8.989   5.386 -0.6845 -0.2513 -0.6539
21098SOL     OW75352   1.369   1.701   1.662  0.1015 -0.0574 -0.2419
21098SOL    HW175353   1.397   1.790   1.626  0.6281 -0.6226 -1.2360
21098SOL    HW275354   1.449   1.643   1.674  0.0749  0.4740  2.8558
21099SOL     OW75355   4.572   8.403   1.939 -0.3801 -0.0062 -0.1160
21099SOL    HW175356   4.505   8.435   2.006  2.1333  0.5149  2.2006
21099SOL    HW275357   4.578   8.470   1.865  1.0918  2.4411  2.1318
21100SOL     OW75358   5.603   4.418   0.100  0.3455 -0.0176 -0.3388
21100SOL    HW175359   5.540   4.342   0.084 -0.4067  0.7548 -1.0904
21100SOL    HW275360   5.675   4.389   0.163  0.0325 -1.3335 -0.5774
21101SOL     OW75361   3.798   9.778   3.320 -0.5127  0.3599 -0.1387
21101SOL    HW175362   3.845   9.744   3.239 -1.7568  0.4048 -0.8836
21101SOL    HW275363   3.706   9.740   3.325 -1.4157  2.4190 -0.2177
21102SOL     OW75364   0.649   1.197   9.718 -0.1261  0.3607  0.4788
21102SOL    HW175365   0.674   1.100   9.722  1.0836  0.7378  4.3782
21102SOL    HW275366   0.727   1.252   9.747 -0.8274  2.5502 -1.6255
21103SOL     OW75367   5.474   3.824   9.922  0.0684  0.1634  0.3045
21103SOL    HW175368   5.406   3.802   9.851  0.6394  2.2833 -0.9307
21103SOL    HW275369   5.560   3.779   9.900 -0.1615 -0.3312  0.4139
21104SOL     OW75370   5.494   5.026   8.267 -0.5853  0.4998  0.0899
21104SOL    HW175371   5.489   4.975   8.181 -0.4311 -1.6934  1.3655
21104SOL    HW275372   5.583   5.071   8.274  0.7089 -2.0943  0.6298
21105SOL     OW75373   0.989   3.468   7.208 -0.5909  0.0380 -0.5026
21105SOL    HW175374   0.909   3.526   7.222 -0.4708  0.5657 -1.9055
21105SOL    HW275375   1.053   3.514   7.145  0.8266 -0.3603  0.6130
21106SOL     OW75376   5.289   4.309   1.370  0.0842  0.2274 -0.4658
21106SOL    HW175377   5.284   4.331   1.272 -1.7236  0.1745 -0.4059
21106SOL    HW275378   5.281   4.393   1.423 -1.4960  0.0128 -0.3342
21107SOL     OW75379   7.613   2.636   9.252  0.4307  0.4339 -0.1958
21107SOL    HW175380   7.693   2.585   9.219 -0.0451 -0.7227  0.4254
21107SOL    HW275381   7.530   2.593   9.219  0.0470  1.5224 -0.6703
21108SOL     OW75382   7.543   3.033   9.426  0.0356  0.2251 -0.5782
21108SOL    HW175383   7.443   3.037   9.416 -0.1127 -1.2246  0.1559
21108SOL    HW275384   7.568   2.951   9.478  1.3730  2.5880  2.6734
21109SOL     OW75385   7.122   1.828   5.663 -0.8227 -0.2449 -0.0093
21109SOL    HW175386   7.053   1.878   5.610 -0.2762  0.7895  0.2641
21109SOL    HW275387   7.154   1.750   5.609 -1.4804 -0.1635 -0.5340
21110SOL     OW75388   1.320   1.989   8.662 -0.0538 -0.2100 -0.7862
21110SOL    HW175389   1.378   1.980   8.581 -0.0103 -1.7497 -0.5984
21110SOL    HW275390   1.236   1.936   8.648 -1.8479  2.6692 -1.4156
21111SOL     OW75391   3.902   9.565   4.973  0.8165  0.3221  0.0840
21111SOL    HW175392   3.951   9.556   5.060  1.6304 -0.6853 -0.4585
21111SOL    HW275393   3.903   9.477   4.926 -1.7355  0.2291  0.1595
21112SOL     OW75394   7.635   1.186   1.902 -0.4964 -0.3459  0.0117
21112SOL    HW175395   7.712   1.132   1.869 -0.1791  0.3409 -0.3736
21112SOL    HW275396   7.603   1.247   1.830 -0.8747 -0.0424  0.4310
21113SOL     OW75397   0.090   0.286   6.857  0.2514 -1.0207  0.0537
21113SOL    HW175398   0.018   0.325   6.799  1.3679 -0.2728 -0.8532
21113SOL    HW275399   0.121   0.200   6.818  1.2251 -0.3597 -0.6394
21114SOL     OW75400   8.226   3.275   2.964  0.0906 -0.0063 -0.8548
21114SOL    HW175401   8.219   3.372   2.983  0.0542 -0.3536  0.9569
21114SOL    HW275402   8.163   3.224   3.024  0.0822 -1.1402 -1.8036
21115SOL     OW75403   5.435   0.923   8.491  0.2394 -0.1902 -0.3110
21115SOL    HW175404   5.346   0.905   8.450  0.0908  0.2398 -0.1817
21115SOL    HW275405   5.423   0.949   8.587  0.5029 -0.1184 -0.2963
21116SOL     OW75406   1.221   7.085   6.983 -0.3623 -0.1387  0.1296
21116SOL    HW175407   1.154   7.145   7.027 -1.3968  0.0360 -1.6457
21116SOL    HW275408   1.218   6.995   7.025 -1.5260 -0.0464  0.2585
21117SOL     OW75409   8.297   5.158   2.448  0.0123 -0.8243  0.2791
21117SOL    HW175410   8.221   5.174   2.385  0.0814 -2.7614 -0.3179
21117SOL    HW275411   8.349   5.242   2.459  0.5103 -0.6684 -2.9524
21118SOL     OW75412   1.511   0.540   8.577 -0.0763  0.2226 -0.0307
21118SOL    HW175413   1.475   0.448   8.560  1.3996  0.0250 -2.3153
21118SOL    HW275414   1.448   0.590   8.636 -1.9168 -1.5601 -0.4373
21119SOL     OW75415   8.628   9.798   8.855  0.1682 -0.0715  0.4647
21119SOL    HW175416   8.564   9.768   8.784 -2.6800  0.8632  2.5170
21119SOL    HW275417   8.631   9.730   8.928  1.3328  0.0284  0.5138
21120SOL     OW75418   2.144   3.731   8.697 -0.1939  0.0033  0.0100
21120SOL    HW175419   2.154   3.698   8.791 -1.0709 -3.1353 -0.9657
21120SOL    HW275420   2.051   3.765   8.683  0.2662  1.5478  0.5699
21121SOL     OW75421   1.012   2.805   7.319 -0.6616  0.1933 -0.0382
21121SOL    HW175422   0.975   2.739   7.252 -0.4534 -0.7929  0.8067
21121SOL    HW275423   1.051   2.755   7.396 -1.9179  1.3457  1.3720
21122SOL     OW75424   1.641   2.203   8.929 -0.2492 -0.2840  0.3265
21122SOL    HW175425   1.552   2.244   8.947 -1.1953 -2.6546  1.2801
21122SOL    HW275426   1.675   2.161   9.013  3.1714  3.0794  0.7781
21123SOL     OW75427   4.253   1.642   4.738  0.0058 -0.0666  0.4172
21123SOL    HW175428   4.274   1.571   4.671 -1.7469  0.6064 -0.9059
21123SOL    HW275429   4.159   1.630   4.770  0.1072  0.9279  1.0961
21124SOL     OW75430   5.896   3.001   1.763 -0.5054 -0.4075 -0.0867
21124SOL    HW175431   5.839   3.080   1.787 -0.2449 -0.2188 -0.0848
21124SOL    HW275432   5.907   2.942   1.843 -1.3019 -0.8260 -0.2805
21125SOL     OW75433   3.816   5.432   7.309 -0.3498 -0.0659  0.0855
21125SOL    HW175434   3.847   5.456   7.217 -1.0075 -0.4170 -0.2318
21125SOL    HW275435   3.716   5.423   7.309 -0.4287  0.8419  1.0481
21126SOL     OW75436   3.697   3.684   9.645 -0.0882  0.2855  0.6121
21126SOL    HW175437   3.735   3.732   9.724  2.1048 -1.1264  0.4534
21126SOL    HW275438   3.768   3.675   9.575 -0.7478 -2.2760  0.2491
21127SOL     OW75439   5.510   1.936   5.898 -0.2676  0.1796 -0.2053
21127SOL    HW175440   5.411   1.939   5.879 -0.5707  3.7453  1.6207
21127SOL    HW275441   5.555   2.011   5.850  1.1436  0.2912  1.2776
21128SOL     OW75442   3.282   5.743   6.132 -0.0976  0.0888  0.7589
21128SOL    HW175443   3.206   5.807   6.131  0.2782  0.5337 -0.2146
21128SOL    HW275444   3.363   5.788   6.169  0.1302  0.1367  0.2082
21129SOL     OW75445   1.432   7.877   9.319  0.0439  0.2011 -0.1821
21129SOL    HW175446   1.348   7.828   9.297 -0.9132  0.8161  1.9721
21129SOL    HW275447   1.439   7.959   9.263 -0.4712 -0.1722 -0.8057
21130SOL     OW75448   3.238   2.081   5.763  0.4860 -0.0316  0.2517
21130SOL    HW175449   3.317   2.080   5.824 -0.7359  0.2545  1.8726
21130SOL    HW275450   3.156   2.055   5.814 -0.3528 -1.0763 -1.5887
21131SOL     OW75451   4.554   9.453   4.481 -0.0673 -0.2333 -0.1826
21131SOL    HW175452   4.618   9.479   4.408  0.3230  1.0690  0.5991
21131SOL    HW275453   4.591   9.376   4.532  0.9119  0.5166  0.2679
21132SOL     OW75454   3.203   4.422   4.713  0.3671  0.0996 -0.5439
21132SOL    HW175455   3.214   4.514   4.674  0.6094 -0.6287 -2.2344
21132SOL    HW275456   3.129   4.375   4.666  1.3715 -1.1904 -0.8638
21133SOL     OW75457   2.072   8.177   9.969 -0.6065  0.0445 -0.6484
21133SOL    HW175458   2.019   8.177   9.884  0.5058 -1.2433 -1.3479
21133SOL    HW275459   2.166   8.153   9.950 -0.0586  0.9505  0.8015
21134SOL     OW75460   9.157   6.435   3.434 -0.5487  0.3572 -0.2098
21134SOL    HW175461   9.236   6.468   3.485  0.7582  0.2695 -2.1425
21134SOL    HW275462   9.084   6.410   3.498 -0.4157  3.9194  1.4480
21135SOL     OW75463   7.514   3.030   3.810  0.5349  0.0521 -0.4617
21135SOL    HW175464   7.589   2.980   3.853  0.3697 -0.8998 -1.2839
21135SOL    HW275465   7.552   3.104   3.754  0.8521 -0.3540 -0.7844
21136SOL     OW75466   4.980   3.190   7.371  0.0645  0.1192  0.2859
21136SOL    HW175467   4.983   3.228   7.279 -1.1187 -1.1599 -0.3125
21136SOL    HW275468   5.063   3.137   7.388  0.4344  0.6313  0.0848
21137SOL     OW75469   5.029   0.716   0.607  0.0444  0.3204  0.0557
21137SOL    HW175470   5.122   0.729   0.643  0.3772  0.0741 -0.6937
21137SOL    HW275471   5.006   0.794   0.548  0.1707 -0.1049 -0.5670
21138SOL     OW75472   2.908   6.649   7.249  0.7238 -0.2807  0.2051
21138SOL    HW175473   2.991   6.599   7.271  1.0097 -0.8657 -2.0922
21138SOL    HW275474   2.838   6.629   7.318  2.4497  0.2424  2.1663
21139SOL     OW75475   0.499   0.419   4.785  0.1748 -0.7007  0.9146
21139SOL    HW175476   0.477   0.414   4.688 -0.3390 -0.6317  1.0247
21139SOL    HW275477   0.598   0.409   4.798  0.3776  0.3646  0.2965
21140SOL     OW75478   8.151   9.820   8.360  0.0948 -0.0435  0.4148
21140SOL    HW175479   8.200   9.866   8.286  0.5250  0.3112  0.9276
21140SOL    HW275480   8.147   9.722   8.340 -1.3039  0.2658 -0.9493
21141SOL     OW75481   5.342   7.127   2.352  0.3390 -0.3746 -0.3344
21141SOL    HW175482   5.416   7.064   2.329 -0.2555 -0.4161 -2.2859
21141SOL    HW275483   5.342   7.146   2.450  2.4138 -1.0194 -0.1960
21142SOL     OW75484   2.486   8.637   3.085  0.0078  0.0645 -0.2059
21142SOL    HW175485   2.532   8.714   3.042  0.5067 -0.0218  0.1651
21142SOL    HW275486   2.435   8.668   3.165 -0.0652  0.0606 -0.2506
21143SOL     OW75487   3.252   8.554   9.679  0.0899  0.2472 -0.1698
21143SOL    HW175488   3.351   8.549   9.690  0.0804 -1.4357 -0.7125
21143SOL    HW275489   3.217   8.633   9.729  1.5989  0.3711  0.7212
21144SOL     OW75490   2.531   6.209   3.707 -0.1105  0.2967 -0.0498
21144SOL    HW175491   2.507   6.305   3.714 -0.7183  0.2326 -1.1091
21144SOL    HW275492   2.615   6.199   3.653 -1.0544  0.1197 -1.5045
21145SOL     OW75493   9.349   0.393   5.900  0.2284 -0.0822 -0.0383
21145SOL    HW175494   9.284   0.323   5.928 -0.8072  0.6908 -0.5057
21145SOL    HW275495   9.365   0.456   5.976  2.0387 -1.4710  0.7606
21146SOL     OW75496   2.067   6.560   4.176  0.5879 -0.2461 -0.4780
21146SOL    HW175497   2.018   6.520   4.098 -3.9301 -1.0165  2.5389
21146SOL    HW275498   2.107   6.488   4.231  2.1908  0.1804 -1.0666
21147SOL     OW75499   1.960   4.363   6.651  0.3560  0.5994 -0.5631
21147SOL    HW175500   1.987   4.450   6.693 -1.5673  1.0043 -0.1030
21147SOL    HW275501   1.900   4.314   6.714  2.0112 -1.4221 -0.5216
21148SOL     OW75502   0.462   7.052   4.623 -0.1421  0.3020  0.4788
21148SOL    HW175503   0.446   7.025   4.528 -1.4634 -1.7908  1.2613
21148SOL    HW275504   0.549   7.014   4.655 -0.2805 -0.0177  0.4749
21149SOL     OW75505   4.924   9.569   7.878  0.0199 -0.2226  0.3091
21149SOL    HW175506   4.865   9.645   7.903  0.2705 -0.1140  0.5710
21149SOL    HW275507   4.992   9.600   7.812  0.3118 -0.1431  0.6426
21150SOL     OW75508   8.821   5.482   9.907 -0.1016  0.0618  0.6359
21150SOL    HW175509   8.855   5.573   9.881  1.3342 -0.6438  0.0030
21150SOL    HW275510   8.722   5.480   9.896 -0.0653  1.3332 -0.0451
21151SOL     OW75511   9.283   3.756   8.340 -0.0914  0.3902 -0.2279
21151SOL    HW175512   9.263   3.849   8.310  0.5046 -0.0991 -2.2272
21151SOL    HW275513   9.224   3.733   8.417  0.7704  2.9199  1.2504
21152SOL     OW75514   2.287   6.661   1.662 -0.3216 -0.3389 -0.2803
21152SOL    HW175515   2.335   6.637   1.577  1.0255  2.7478 -0.4453
21152SOL    HW275516   2.203   6.711   1.640  0.2760  0.8830  0.2219
21153SOL     OW75517   4.520   6.366   4.006 -0.4296 -0.1156 -0.1161
21153SOL    HW175518   4.457   6.423   3.954 -0.3388 -1.8456 -2.1957
21153SOL    HW275519   4.467   6.305   4.066 -0.4923  2.9982  3.1342
21154SOL     OW75520   1.977   4.100   0.639  0.1789 -0.0032  0.3392
21154SOL    HW175521   1.938   4.131   0.725  0.2981 -0.4904  0.5682
21154SOL    HW275522   1.903   4.084   0.573 -0.0500 -1.2245  0.8707
21155SOL     OW75523   7.034   3.055   9.718 -0.1719 -0.3322 -0.0721
21155SOL    HW175524   7.068   3.100   9.801 -2.2392  0.0017  0.6264
21155SOL    HW275525   7.005   3.125   9.652  0.5055 -0.6023 -0.6527
21156SOL     OW75526   0.380   2.064   7.738 -0.3419 -0.1358 -0.0561
21156SOL    HW175527   0.444   2.103   7.804  0.7602 -0.2159 -1.0536
21156SOL    HW275528   0.286   2.081   7.768  0.1235  2.4360  0.0278
21157SOL     OW75529   0.813   3.583   6.871 -0.0879  0.2029  0.0299
21157SOL    HW175530   0.738   3.648   6.874  0.2659  0.6272 -0.2615
21157SOL    HW275531   0.895   3.624   6.911 -0.0221 -0.2726  0.3879
21158SOL     OW75532   9.063   0.207   5.701 -0.3633  0.5026 -0.2486
21158SOL    HW175533   9.109   0.138   5.756  1.2374  0.6767 -1.3524
21158SOL    HW275534   8.964   0.204   5.720 -0.1261 -1.0369  0.8280
21159SOL     OW75535   8.290   9.103   4.263 -0.1225  0.3431  0.5470
21159SOL    HW175536   8.333   9.019   4.296  0.1090  0.5146  0.6882
21159SOL    HW275537   8.241   9.147   4.338 -3.6552 -1.7359 -0.4509
21160SOL     OW75538   7.108   3.979   2.525  0.3478 -0.0742  0.1360
21160SOL    HW175539   7.138   4.052   2.464 -0.5517  0.1433 -0.0391
21160SOL    HW275540   7.010   3.962   2.514 -0.1446  0.9546  2.5189
21161SOL     OW75541   0.590   0.017   1.062 -0.6147 -0.3319  0.1744
21161SOL    HW175542   0.640   0.003   0.976 -0.9213 -0.0045 -0.0609
21161SOL    HW275543   0.555   0.111   1.065 -1.4420 -0.6377  0.2177
21162SOL     OW75544   9.128   3.630   5.372  0.1659 -0.6944  0.2579
21162SOL    HW175545   9.122   3.641   5.471  0.8501 -0.3836  0.2724
21162SOL    HW275546   9.102   3.537   5.347 -1.2930 -0.3771  0.5919
21163SOL     OW75547   2.533   2.553   8.594  0.2084 -0.9622  0.3227
21163SOL    HW175548   2.441   2.568   8.631 -0.2666 -2.1211 -0.3507
21163SOL    HW275549   2.601   2.598   8.653 -0.8508  0.7318  0.2831
21164SOL     OW75550   2.795   0.984   6.844 -0.2378 -0.3558 -0.4220
21164SOL    HW175551   2.761   0.969   6.751 -1.3770  0.3834 -0.1246
21164SOL    HW275552   2.719   1.000   6.906  0.5154 -0.8623  0.6572
21165SOL     OW75553   4.164   7.294   2.359  0.0294 -0.0249 -0.0316
21165SOL    HW175554   4.180   7.195   2.355 -1.3827 -0.2737  0.0221
21165SOL    HW275555   4.240   7.339   2.406  0.5857 -1.1130  0.1161
21166SOL     OW75556   2.058   5.090   2.130  0.9709  0.0601 -0.3245
21166SOL    HW175557   2.004   5.040   2.198  0.3654  0.8116 -0.2408
21166SOL    HW275558   2.112   5.161   2.177 -1.3312  2.2270 -0.8742
21167SOL     OW75559   8.304   8.678   7.465  0.2122  0.3104 -0.3529
21167SOL    HW175560   8.282   8.605   7.401 -1.2918 -1.1384  1.7898
21167SOL    HW275561   8.286   8.767   7.422 -1.5198 -0.6634 -1.6610
21168SOL     OW75562   1.536   8.103   6.690 -0.5517  0.0541  0.4842
21168SOL    HW175563   1.483   8.123   6.608 -0.3528  1.1867  0.6286
21168SOL    HW275564   1.624   8.151   6.685  0.6860 -2.1945  0.0133
21169SOL     OW75565   1.567   8.784   5.894  0.0560  0.2549 -0.1366
21169SOL    HW175566   1.635   8.810   5.963 -0.0294  2.2913 -0.8141
21169SOL    HW275567   1.476   8.806   5.928 -0.1466 -0.7698 -0.0017
21170SOL     OW75568   3.269   3.468   2.643  0.1516  0.1726  0.3159
21170SOL    HW175569   3.191   3.433   2.591  0.8827  0.6844 -1.1295
21170SOL    HW275570   3.333   3.393   2.662 -1.0832 -0.4407  2.2785
21171SOL     OW75571   3.473   3.582   4.467  0.3842  0.1151 -0.0022
21171SOL    HW175572   3.558   3.604   4.420  0.4728 -0.3370 -0.0531
21171SOL    HW275573   3.421   3.666   4.482  0.5679  0.3203 -0.4947
21172SOL     OW75574   9.291   2.107   2.827  0.5852 -0.2341 -0.5284
21172SOL    HW175575   9.376   2.157   2.809 -0.0863  1.3692  0.6678
21172SOL    HW275576   9.245   2.086   2.741 -0.7370  4.0758 -0.9608
21173SOL     OW75577   3.125   3.223   7.317  0.0555 -0.0017  0.2418
21173SOL    HW175578   3.172   3.298   7.270 -1.1216  1.1551  0.8723
21173SOL    HW275579   3.116   3.145   7.255  2.0797  0.0373 -0.1358
21174SOL     OW75580   4.235   6.700   3.019  0.0466 -0.0478  0.2622
21174SOL    HW175581   4.148   6.731   3.057 -0.3911  0.2008 -0.9224
21174SOL    HW275582   4.241   6.727   2.923  0.4503 -2.0419 -0.2910
21175SOL     OW75583   3.547   9.372   3.787  0.6040 -0.2569  0.2899
21175SOL    HW175584   3.588   9.297   3.840  1.1697 -1.2770 -1.5625
21175SOL    HW275585   3.447   9.364   3.791  0.6564 -1.2574 -0.0828
21176SOL     OW75586   8.418   4.246   1.512 -0.1104  0.1966  0.3344
21176SOL    HW175587   8.496   4.300   1.481  0.2907 -1.6001 -1.8553
21176SOL    HW275588   8.360   4.222   1.434 -2.0313  0.1829  1.7176
21177SOL     OW75589   9.942   5.908   4.262 -0.8752  0.3572  0.5198
21177SOL    HW175590  10.026   5.943   4.221 -0.8384  0.0823  0.3620
21177SOL    HW275591   9.929   5.812   4.236 -0.2237 -0.1758  2.0974
21178SOL     OW75592   2.914   6.866   7.476 -0.0616  0.2742  0.8516
21178SOL    HW175593   2.945   6.783   7.522 -0.1962 -0.3474 -0.1830
21178SOL    HW275594   2.988   6.903   7.420 -0.8394 -0.6581 -0.8294
21179SOL     OW75595   8.175   9.879   9.418 -0.6659 -0.2988 -0.2397
21179SOL    HW175596   8.135   9.971   9.421 -1.1579 -0.5101 -0.3520
21179SOL    HW275597   8.106   9.814   9.387 -0.6856 -0.9124  1.0761
21180SOL     OW75598   0.599   7.332   7.631 -0.0064  0.6553  0.2439
21180SOL    HW175599   0.545   7.402   7.584 -2.6139 -0.4562  1.4901
21180SOL    HW275600   0.622   7.364   7.723  0.5248  0.6747  0.1051
21181SOL     OW75601   8.348   5.070   0.023  0.2327 -0.3430  0.3230
21181SOL    HW175602   8.275   5.125   0.064  0.6065 -0.7231  1.5099
21181SOL    HW275603   8.354   4.982   0.069  1.0982 -0.5179 -0.1172
21182SOL     OW75604   9.179   2.481   9.273  0.1546 -0.2555 -0.2057
21182SOL    HW175605   9.117   2.423   9.221 -0.1498 -1.7306  1.7203
21182SOL    HW275606   9.266   2.488   9.225 -1.2148  1.2032 -2.5509
21183SOL     OW75607   4.683   7.182   1.089  0.6758 -0.8022  0.4754
21183SOL    HW175608   4.711   7.101   1.140  0.2962 -2.3325 -1.6706
21183SOL    HW275609   4.592   7.167   1.050 -1.0090  2.0635  2.9960
21184SOL     OW75610   2.346   7.316   8.534 -0.4992 -0.4112 -0.1705
21184SOL    HW175611   2.406   7.396   8.541 -0.8337 -0.2068  0.4022
21184SOL    HW275612   2.293   7.322   8.450 -2.9589  1.6874  1.4603
21185SOL     OW75613   9.808   5.454   1.216  0.2208  0.2917  0.0918
21185SOL    HW175614   9.828   5.389   1.143  1.0980  0.8144 -0.1350
21185SOL    HW275615   9.862   5.537   1.203  1.4389 -0.1556  2.0797
21186SOL     OW75616   7.430   4.450   8.746  0.1283 -0.6852 -0.4313
21186SOL    HW175617   7.510   4.498   8.783 -0.7437  0.1291  0.4354
21186SOL    HW275618   7.458   4.392   8.670  1.3939  0.3546 -0.7754
21187SOL     OW75619   8.870   2.160   9.337  0.2399 -0.3127 -0.3110
21187SOL    HW175620   8.904   2.192   9.248  1.7201  0.2018  0.4234
21187SOL    HW275621   8.939   2.177   9.407 -1.3116  0.1951  1.1221
21188SOL     OW75622   2.975   8.592   5.653  0.0638  0.1455 -0.1267
21188SOL    HW175623   2.974   8.629   5.560  0.2005 -0.3848 -0.3372
21188SOL    HW275624   3.062   8.613   5.696  0.7020 -1.1938 -0.7527
21189SOL     OW75625   9.522   1.225   6.182  0.3679 -0.5582  0.1259
21189SOL    HW175626   9.529   1.150   6.247  0.3552 -0.4836  0.2138
21189SOL    HW275627   9.429   1.263   6.184  0.2740 -0.7679 -0.1735
21190SOL     OW75628   8.970   9.653   6.126  0.2910  0.0256 -0.5969
21190SOL    HW175629   9.008   9.745   6.136 -0.4082  0.1545  1.0344
21190SOL    HW275630   8.958   9.633   6.029  1.2736  1.3106 -1.0085
21191SOL     OW75631   3.712   7.054  10.061 -0.0457 -0.6152  0.4413
21191SOL    HW175632   3.762   6.979  10.016  2.9089  0.9336  0.9931
21191SOL    HW275633   3.662   7.018  10.139  0.2078 -2.2335 -0.1122
21192SOL     OW75634   2.799   6.245   8.855 -0.1606 -0.6116  0.3252
21192SOL    HW175635   2.735   6.291   8.917 -0.1592 -0.7745  0.4482
21192SOL    HW275636   2.842   6.312   8.795  1.4646 -0.1647  1.9514
21193SOL     OW75637   4.302   0.093   5.674 -0.6474  0.3666 -0.1774
21193SOL    HW175638   4.318   0.106   5.576 -1.5792  1.1062 -0.2372
21193SOL    HW275639   4.347   0.009   5.704 -2.1866 -1.0523 -1.7198
21194SOL     OW75640   7.532   3.761   9.593 -0.2589 -0.0810 -0.4566
21194SOL    HW175641   7.518   3.853   9.630 -0.2826 -0.4011  0.3344
21194SOL    HW275642   7.513   3.694   9.664 -0.7212 -0.7164 -1.1755
21195SOL     OW75643   3.916   8.945   4.883  0.3235 -0.1010 -0.3417
21195SOL    HW175644   3.999   8.890   4.885  0.6408  0.3816  0.1250
21195SOL    HW275645   3.935   9.036   4.922 -0.2910  0.1930 -0.7103
21196SOL     OW75646   8.689   4.715   8.854 -0.1274 -0.5862 -0.4219
21196SOL    HW175647   8.750   4.766   8.793 -1.1497  1.3308  0.1469
21196SOL    HW275648   8.745   4.664   8.920  0.8946  0.4185 -0.4871
21197SOL     OW75649   7.775   3.534   8.993 -0.6501  0.2078  0.5032
21197SOL    HW175650   7.773   3.541   8.893 -1.4554  1.6056  0.6022
21197SOL    HW275651   7.813   3.445   9.020  1.1362  0.4726 -1.0227
21198SOL     OW75652   8.284   9.270   0.621  0.2558 -0.9191 -0.3692
21198SOL    HW175653   8.307   9.243   0.714 -0.5340 -2.0815 -0.5029
21198SOL    HW275654   8.277   9.370   0.616  1.2695 -0.7982  0.5814
21199SOL     OW75655   2.721   3.934   3.227 -0.9354 -0.1156  0.1826
21199SOL    HW175656   2.689   3.875   3.302  3.4032  0.1042  2.3670
21199SOL    HW275657   2.721   4.029   3.257 -0.9169  0.1938 -0.7718
21200SOL     OW75658   9.330   7.492   7.024 -0.0656 -0.0967  0.1286
21200SOL    HW175659   9.354   7.588   7.010  0.3240 -0.1332  0.5513
21200SOL    HW275660   9.412   7.436   7.017  0.1829 -0.1143  2.6492
21201SOL     OW75661   7.973   0.326   8.824 -1.0387 -0.2730 -0.3965
21201SOL    HW175662   7.875   0.343   8.820 -0.9872 -0.2089 -1.5479
21201SOL    HW275663   7.995   0.240   8.778 -0.6340 -0.6509  0.4852
21202SOL     OW75664   7.078   3.211   1.657 -0.1994 -0.2487  0.0374
21202SOL    HW175665   7.058   3.147   1.583 -0.3478  0.4251 -0.5098
21202SOL    HW275666   6.994   3.258   1.684 -0.3004 -1.0703  1.1880
21203SOL     OW75667   2.727   1.230   4.833  0.1972  0.1454 -0.6591
21203SOL    HW175668   2.782   1.281   4.767  1.0202  0.4798  0.2655
21203SOL    HW275669   2.773   1.232   4.923 -0.8234 -0.4300 -0.1192
21204SOL     OW75670   5.472   9.889   3.594 -0.9203 -0.5481  0.0467
21204SOL    HW175671   5.512   9.814   3.648 -2.5208 -2.5261 -1.4372
21204SOL    HW275672   5.396   9.929   3.645 -0.0166  0.1322  0.8758
21205SOL     OW75673   4.661   4.203   9.965 -0.4676 -0.1118 -0.3012
21205SOL    HW175674   4.731   4.206  10.036  0.1402  0.2862 -0.9077
21205SOL    HW275675   4.705   4.208   9.875 -1.2961  0.5415 -0.6746
21206SOL     OW75676   3.259   1.752   8.344 -1.0138 -0.0097  0.2341
21206SOL    HW175677   3.174   1.780   8.299  0.4947  0.2715 -2.5383
21206SOL    HW275678   3.286   1.822   8.410 -1.2652  1.4409 -1.1727
21207SOL     OW75679   7.091   8.994   5.452  0.0884 -0.0548 -0.1541
21207SOL    HW175680   7.020   9.061   5.432 -1.2475 -1.3410  0.2121
21207SOL    HW275681   7.053   8.902   5.447  1.5872 -0.7386  0.6010
21208SOL     OW75682   7.841   1.022   4.227  0.5720  0.2973 -0.6125
21208SOL    HW175683   7.847   1.051   4.131  2.1229  1.5084 -0.1680
21208SOL    HW275684   7.918   0.962   4.249 -1.3843 -2.4363 -0.8922
21209SOL     OW75685   8.106   4.400   1.852  0.1741  0.5259  0.4319
21209SOL    HW175686   8.158   4.463   1.910 -0.4151 -1.2808  3.0439
21209SOL    HW275687   8.168   4.338   1.805  0.5561 -2.3094  4.3331
21210SOL     OW75688   4.012   4.733   3.476 -0.1117  0.5396  0.1540
21210SOL    HW175689   4.081   4.675   3.519 -0.8405 -0.1197  0.4509
21210SOL    HW275690   4.056   4.810   3.430  0.8225  0.0590  0.2450
21211SOL     OW75691   9.460   5.152   9.121 -0.2899  0.7383  0.0237
21211SOL    HW175692   9.447   5.242   9.163 -0.3706  0.0438  1.4889
21211SOL    HW275693   9.529   5.101   9.172 -0.2114 -0.0257 -0.8299
21212SOL     OW75694   2.132   0.104   7.967  0.2476  0.5561 -0.1524
21212SOL    HW175695   2.130   0.041   7.889  2.0912 -0.1315  0.3429
21212SOL    HW275696   2.055   0.082   8.028  0.9423 -1.3352  0.0871
21213SOL     OW75697   5.034   4.715   6.732 -0.4428  0.1220 -0.7343
21213SOL    HW175698   5.019   4.795   6.790  0.6169  0.6370 -1.1491
21213SOL    HW275699   5.098   4.739   6.658  0.7549 -1.3857 -0.2247
21214SOL     OW75700   8.068   6.102   8.863 -0.3059  0.0706 -0.1696
21214SOL    HW175701   8.122   6.184   8.882 -1.2955  0.5013  0.9150
21214SOL    HW275702   8.080   6.037   8.938 -0.7876 -0.0982 -0.2379
21215SOL     OW75703   4.484   5.331   0.921 -1.0157 -0.4138 -0.0705
21215SOL    HW175704   4.473   5.252   0.860  0.6581  1.1047 -2.4103
21215SOL    HW275705   4.432   5.408   0.885  0.1992  0.5811  0.2782
21216SOL     OW75706   8.408   8.673   3.248 -0.0038 -0.0756  0.3040
21216SOL    HW175707   8.416   8.616   3.167 -1.0835 -1.4069  1.1109
21216SOL    HW275708   8.314   8.705   3.257  0.0599 -0.1144  1.1394
21217SOL     OW75709   2.171   9.667   4.545  0.5114 -0.4621 -0.3063
21217SOL    HW175710   2.271   9.664   4.542  0.4650 -0.6140 -3.3893
21217SOL    HW275711   2.141   9.742   4.603  2.4364 -0.0184  0.1322
21218SOL     OW75712   4.855   0.734   0.232 -0.0595 -0.0321 -0.2333
21218SOL    HW175713   4.788   0.788   0.180  0.1858 -2.1437 -2.8769
21218SOL    HW275714   4.825   0.638   0.235  0.5407 -0.1658  2.5971
21219SOL     OW75715   6.724   9.982   5.448 -0.0014  0.6194 -0.2703
21219SOL    HW175716   6.700   9.890   5.479  1.6905  0.0815 -0.4745
21219SOL    HW275717   6.697  10.049   5.518 -1.6605  0.0251 -0.3277
21220SOL     OW75718   9.057   0.346   7.873 -0.4725  0.6502  0.0394
21220SOL    HW175719   9.154   0.355   7.853 -0.5845 -1.7098 -1.7531
21220SOL    HW275720   9.009   0.431   7.850  0.9775  1.4268 -0.1207
21221SOL     OW75721   8.390   8.637   5.855 -0.5332  0.2651  0.2037
21221SOL    HW175722   8.400   8.605   5.949  0.4414 -0.0548  0.0003
21221SOL    HW275723   8.472   8.688   5.828 -1.3875  1.5162 -0.0247
21222SOL     OW75724   0.273   1.195   8.053  0.0040 -0.3051  0.4790
21222SOL    HW175725   0.285   1.116   7.993 -1.3969 -0.7558  0.7731
21222SOL    HW275726   0.304   1.278   8.005 -0.1274 -0.7985 -0.4763
21223SOL     OW75727   8.221   4.696   9.582 -0.6832 -0.4986  0.8615
21223SOL    HW175728   8.160   4.751   9.638 -0.7982 -1.0264  1.2622
21223SOL    HW275729   8.225   4.734   9.489 -2.4554 -1.0613  0.5325
21224SOL     OW75730   8.220   3.374   8.790  0.4822  0.5730 -0.4175
21224SOL    HW175731   8.268   3.428   8.720 -0.5730  1.4535 -0.4722
21224SOL    HW275732   8.122   3.375   8.771  0.5513 -2.7084 -1.3489
21225SOL     OW75733   9.031   7.008   8.638  0.0364  0.6328  0.3262
21225SOL    HW175734   9.094   7.074   8.596 -0.4424  0.2074 -1.0996
21225SOL    HW275735   8.961   7.057   8.690 -0.0203  1.2417 -0.3098
21226SOL     OW75736   9.914   9.362   8.165 -0.0308 -0.2871 -0.7564
21226SOL    HW175737   9.827   9.402   8.192  0.4950  1.2023 -1.1838
21226SOL    HW275738   9.963   9.331   8.246 -0.4988 -0.1586 -0.4213
21227SOL     OW75739   8.077   8.915   8.809 -0.1149  0.1682 -0.8042
21227SOL    HW175740   8.151   8.906   8.743 -0.7184  0.0844 -1.4702
21227SOL    HW275741   8.113   8.906   8.902  0.5937 -0.5887 -1.1576
21228SOL     OW75742   4.304   4.114   2.683  0.1814  0.3258 -0.1150
21228SOL    HW175743   4.215   4.134   2.725  0.0144 -1.3554  0.3832
21228SOL    HW275744   4.344   4.034   2.728  1.8807  0.9805 -0.4501
21229SOL     OW75745   2.298   9.205  10.024  0.4155  0.0550  0.4451
21229SOL    HW175746   2.345   9.244  10.103 -1.3009  0.5190  1.2784
21229SOL    HW275747   2.246   9.276   9.977  0.2872 -0.4990 -0.2646
21230SOL     OW75748   4.976   9.310   6.482  0.1622  0.3570  0.1773
21230SOL    HW175749   5.041   9.298   6.556  0.6268 -1.0549 -0.4378
21230SOL    HW275750   5.024   9.340   6.399 -0.2320  1.1134  0.2169
21231SOL     OW75751   7.565   1.983   8.459  0.2541  0.1228 -0.0419
21231SOL    HW175752   7.481   1.993   8.405  1.1084  0.3003 -1.3430
21231SOL    HW275753   7.586   1.886   8.471 -1.0215  0.0311  1.6938
21232SOL     OW75754   3.888   5.696   1.475 -0.1139 -0.0306  0.5632
21232SOL    HW175755   3.921   5.734   1.389 -0.6456  0.2937  0.4988
21232SOL    HW275756   3.902   5.761   1.549  1.1546 -0.6572  0.8922
21233SOL     OW75757   9.480   4.230   6.297 -0.1885  0.3827 -0.0360
21233SOL    HW175758   9.511   4.146   6.341  1.7476  0.7647 -0.6098
21233SOL    HW275759   9.387   4.252   6.327 -0.2116 -1.2474  1.1185
21234SOL     OW75760   7.061   0.170   2.260  0.5772  0.1568  0.2481
21234SOL    HW175761   7.091   0.088   2.212  0.1264 -0.5391  1.1428
21234SOL    HW275762   7.120   0.186   2.339 -0.6452 -0.5387  1.3178
21235SOL     OW75763   7.777   4.599   6.746  0.3099 -0.7277 -0.2473
21235SOL    HW175764   7.727   4.578   6.829  0.2536 -1.2022 -0.3978
21235SOL    HW275765   7.847   4.668   6.765  0.0494 -0.5614  0.1080
21236SOL     OW75766   2.887   1.521   9.585  0.4450 -0.0650 -0.5137
21236SOL    HW175767   2.964   1.514   9.522  0.4835 -0.5795 -0.4106
21236SOL    HW275768   2.832   1.437   9.581  0.0266  0.2009 -0.4112
21237SOL     OW75769   5.035   4.429   1.590 -0.3906  0.4081  0.3907
21237SOL    HW175770   4.950   4.401   1.635 -0.5689  2.7912  1.5868
21237SOL    HW275771   5.041   4.528   1.588  1.8208  0.2830 -0.7595
21238SOL     OW75772   6.671   2.038   8.347 -0.2525 -0.7961 -0.3352
21238SOL    HW175773   6.639   1.945   8.326 -1.1179 -0.6013  0.0881
21238SOL    HW275774   6.612   2.078   8.418  1.3232 -0.6632  0.9240
21239SOL     OW75775   3.010   2.822   5.353  0.1624 -0.0761  0.0010
21239SOL    HW175776   3.106   2.837   5.376  0.5601 -1.3991 -0.7784
21239SOL    HW275777   2.957   2.809   5.437  1.2697 -2.8607  0.3121
21240SOL     OW75778   0.098   4.764   6.143 -0.6215 -0.1869 -0.0837
21240SOL    HW175779   0.034   4.762   6.219  0.7685 -0.5051  1.0903
21240SOL    HW275780   0.118   4.671   6.113  0.4984 -0.1697  0.5866
21241SOL     OW75781   9.116   9.768   8.250 -0.3399 -0.2180 -0.1341
21241SOL    HW175782   9.174   9.693   8.220 -1.0740 -0.2701 -1.4303
21241SOL    HW275783   9.089   9.754   8.345  0.2341 -1.1460 -0.1087
21242SOL     OW75784   8.466   4.031   8.211  0.2281  0.2345  0.0316
21242SOL    HW175785   8.453   4.067   8.303  1.0561  0.9591 -0.1270
21242SOL    HW275786   8.465   4.107   8.145 -0.0884 -0.2494 -0.5323
21243SOL     OW75787   6.172   3.763   1.637  0.0984  0.0648  0.5344
21243SOL    HW175788   6.257   3.785   1.684 -0.2205 -0.3196  1.3134
21243SOL    HW275789   6.138   3.844   1.589  0.9286  0.1987  0.1743
21244SOL     OW75790   4.638   8.890   3.121  0.0131 -0.2050  0.1073
21244SOL    HW175791   4.693   8.965   3.157 -0.0046  0.0644 -0.4133
21244SOL    HW275792   4.691   8.805   3.123  0.0932 -0.1429  0.5340
21245SOL     OW75793   6.275   9.753   4.735  0.1173  0.1655  0.1941
21245SOL    HW175794   6.187   9.780   4.697  0.5315  1.3807  0.0869
21245SOL    HW275795   6.268   9.660   4.773 -1.8490  1.1109  2.2884
21246SOL     OW75796   0.223   9.424   5.532  0.1258  0.6459 -0.0809
21246SOL    HW175797   0.310   9.464   5.561  0.5722 -1.2161  1.2072
21246SOL    HW275798   0.240   9.359   5.458  0.0493 -0.8233  1.1627
21247SOL     OW75799   4.365   0.623   7.427 -0.3540 -0.5162 -0.2682
21247SOL    HW175800   4.271   0.604   7.455 -0.3051 -0.7276 -0.2436
21247SOL    HW275801   4.365   0.678   7.344 -0.5268  1.9317  1.2753
21248SOL     OW75802   7.785   0.988   5.941 -0.3924 -0.0857 -0.1057
21248SOL    HW175803   7.804   1.043   6.022  1.6445 -0.7300 -0.1138
21248SOL    HW275804   7.812   0.893   5.959  1.0777 -0.0259 -1.8742
21249SOL     OW75805   5.741   3.267   8.231  0.5095 -0.2398 -0.4139
21249SOL    HW175806   5.719   3.321   8.150 -1.3835  0.1159  0.3049
21249SOL    HW275807   5.700   3.176   8.221  0.3415 -0.2200  0.1033
21250SOL     OW75808   8.200   6.013   5.966 -0.6155 -0.3271 -0.1896
21250SOL    HW175809   8.137   5.984   5.894 -0.9795 -0.9107  0.3625
21250SOL    HW275810   8.158   5.997   6.056 -1.3031  2.9238  0.1322
21251SOL     OW75811   1.078   7.388   1.746 -0.4488  0.1615 -0.9740
21251SOL    HW175812   1.096   7.314   1.811 -0.1908  2.0075  1.1169
21251SOL    HW275813   0.982   7.414   1.750  0.5872  4.0565  2.9454
21252SOL     OW75814   0.411   4.438   5.733 -0.8455 -0.3472  0.4545
21252SOL    HW175815   0.490   4.378   5.725 -1.6476 -1.0828 -2.7219
21252SOL    HW275816   0.339   4.392   5.785 -0.1767 -0.7015  1.0866
21253SOL     OW75817   9.462   8.623   6.262  0.1504 -0.0892  0.0499
21253SOL    HW175818   9.389   8.670   6.313 -0.0867  0.6885 -0.9898
21253SOL    HW275819   9.514   8.565   6.325 -1.3473 -0.6280  0.8065
21254SOL     OW75820   7.624   5.052   2.994 -0.0973 -0.0518  0.0112
21254SOL    HW175821   7.636   5.140   3.041 -1.1168 -0.6054  1.3713
21254SOL    HW275822   7.552   5.061   2.925  0.0273  0.2690 -0.0773
21255SOL     OW75823   7.613   2.067   2.668  0.0690  0.2323 -0.4365
21255SOL    HW175824   7.698   2.119   2.661 -0.4581  1.0628 -0.8330
21255SOL    HW275825   7.616   2.008   2.748  0.1897  1.8022  0.7447
21256SOL     OW75826   0.861   7.019   0.324 -0.6739 -0.3034 -0.4414
21256SOL    HW175827   0.834   7.070   0.243  1.0310  1.7614  0.2438
21256SOL    HW275828   0.961   7.007   0.324 -0.7941 -1.4356  0.6722
21257SOL     OW75829   2.565   4.755   0.956 -0.1704 -0.3741  0.6375
21257SOL    HW175830   2.587   4.675   1.012  0.7610  0.0243  0.8652
21257SOL    HW275831   2.640   4.772   0.893 -0.3035  0.3999  0.6874
21258SOL     OW75832   8.960   5.081   3.154 -0.0410 -0.3694  0.2597
21258SOL    HW175833   9.004   5.131   3.228  0.4636  1.4208 -1.1881
21258SOL    HW275834   8.992   5.117   3.066 -3.8725  0.5358 -0.8599
21259SOL     OW75835   9.994   9.256   4.872 -0.2989  0.2438 -0.2803
21259SOL    HW175836   9.982   9.200   4.789  1.5915  1.5316 -1.4615
21259SOL    HW275837  10.020   9.197   4.948 -1.2174 -0.8585 -0.7957
21260SOL     OW75838   8.718   1.999   1.899  0.1282  0.0579  0.5434
21260SOL    HW175839   8.705   2.031   1.805  0.2557 -0.1874  0.4438
21260SOL    HW275840   8.718   1.900   1.901 -1.0261  0.0667  0.9703
21261SOL     OW75841   2.234   0.690   4.046 -0.6470 -0.2163 -0.1223
21261SOL    HW175842   2.211   0.677   3.950 -0.1869 -2.9248  0.0809
21261SOL    HW275843   2.248   0.787   4.065 -2.5774  0.5377 -2.3438
21262SOL     OW75844   0.263   6.300   4.495  0.0092 -0.2563 -0.2390
21262SOL    HW175845   0.206   6.278   4.416 -1.0508 -1.0818  0.7302
21262SOL    HW275846   0.220   6.374   4.548  1.1046  0.8222 -0.8519
21263SOL     OW75847   7.138   7.133   4.172 -0.3884  0.8531 -0.3308
21263SOL    HW175848   7.173   7.057   4.119  0.8617  0.5321  0.9224
21263SOL    HW275849   7.161   7.120   4.269 -3.9919  0.5911  0.5657
21264SOL     OW75850   8.799   4.848   1.810  0.1155  0.0703  0.6198
21264SOL    HW175851   8.764   4.825   1.719  0.7270  1.1455  0.1043
21264SOL    HW275852   8.898   4.844   1.810  0.1761  1.2269  0.9015
21265SOL     OW75853   5.160   8.836   7.034  0.0109 -0.1868  0.4633
21265SOL    HW175854   5.256   8.840   7.005  0.1055  1.7461  0.9387
21265SOL    HW275855   5.116   8.756   6.994  0.8638  0.8734 -2.7945
21266SOL     OW75856   4.647   1.398   8.353 -0.5995 -0.1038 -0.0136
21266SOL    HW175857   4.620   1.324   8.414  0.1091  1.4739  2.3082
21266SOL    HW275858   4.574   1.466   8.348  0.0903  0.7021  0.6313
21267SOL     OW75859   5.210   1.884   5.869 -0.2737 -0.4172 -0.2794
21267SOL    HW175860   5.173   1.898   5.778 -0.1897 -1.4427 -0.4744
21267SOL    HW275861   5.236   1.789   5.880  1.3817  0.0805  0.2030
21268SOL     OW75862   6.716   7.978   2.165  0.4874  0.5042 -0.5230
21268SOL    HW175863   6.616   7.985   2.168  0.4681  0.5921 -1.2580
21268SOL    HW275864   6.744   7.888   2.198  0.0833 -0.0481 -1.6695
21269SOL     OW75865   2.772   8.741   8.367  0.5490  0.2766  0.5049
21269SOL    HW175866   2.769   8.839   8.345 -0.9973 -0.1344 -1.2057
21269SOL    HW275867   2.859   8.703   8.338  0.3484  0.7285 -0.7181
21270SOL     OW75868   9.587   5.015   8.536  0.6045 -0.1279  0.5148
21270SOL    HW175869   9.654   4.945   8.509  0.6409 -1.0018  2.6947
21270SOL    HW275870   9.577   5.082   8.463  1.1077 -2.0228 -1.3540
21271SOL     OW75871   0.918   1.915   7.933  0.0927  0.2505  0.4999
21271SOL    HW175872   0.826   1.929   7.896 -0.7427 -0.5720  2.1863
21271SOL    HW275873   0.946   1.997   7.984 -0.5266 -0.2230  1.6265
21272SOL     OW75874   3.593   6.271   6.827 -0.0151 -0.0802  0.0433
21272SOL    HW175875   3.644   6.310   6.750  1.0101  0.5197  1.0161
21272SOL    HW275876   3.587   6.172   6.817 -1.6673  0.1759 -1.8629
21273SOL     OW75877   2.728   4.116   7.673 -0.0561 -0.3630  0.5281
21273SOL    HW175878   2.712   4.181   7.747 -0.3525  1.0077 -0.7135
21273SOL    HW275879   2.821   4.127   7.638 -0.3081 -0.1671 -0.0949
21274SOL     OW75880   9.620   1.969   7.209  0.1493  0.6024  0.3248
21274SOL    HW175881   9.611   1.932   7.116 -0.0013 -2.1806  1.3876
21274SOL    HW275882   9.584   2.062   7.212 -1.7409 -0.0077 -1.9440
21275SOL     OW75883   8.634   2.410   3.246  0.7749  0.1112  0.3575
21275SOL    HW175884   8.690   2.483   3.207  1.6022 -0.8208 -0.2295
21275SOL    HW275885   8.692   2.350   3.301  0.0486  0.0438  1.0532
21276SOL     OW75886   1.435   5.049   1.630  0.2476  0.2240 -0.0422
21276SOL    HW175887   1.439   5.099   1.717 -0.2346 -1.7117  1.1191
21276SOL    HW275888   1.477   5.105   1.558  1.8948  1.3071  1.7000
21277SOL     OW75889   1.691   4.493   9.381  0.2454 -0.2583 -0.4708
21277SOL    HW175890   1.723   4.548   9.458  0.0422 -0.1194 -0.4880
21277SOL    HW275891   1.604   4.528   9.348  0.8434  0.3395 -1.4530
21278SOL     OW75892   1.387   4.783   1.497  0.0792  0.0881 -0.5194
21278SOL    HW175893   1.420   4.868   1.540 -0.7578  1.0241 -1.6982
21278SOL    HW275894   1.465   4.723   1.479  0.8810  1.2956 -1.1793
21279SOL     OW75895   2.237   5.205   5.258  0.1867  0.4927 -0.4177
21279SOL    HW175896   2.186   5.124   5.286  2.3132 -1.4631 -1.9862
21279SOL    HW275897   2.325   5.208   5.307  1.5294  0.0406 -2.7470
21280SOL     OW75898   0.272   9.719   8.691  0.4959 -0.0372  0.3870
21280SOL    HW175899   0.199   9.720   8.622  1.6792 -0.3116 -0.8759
21280SOL    HW275900   0.234   9.749   8.779 -0.8797  0.9822 -0.5252
21281SOL     OW75901   2.669  10.001   5.359  0.3081  0.7966  0.0170
21281SOL    HW175902   2.588   9.978   5.413  1.1399  0.9334  1.3427
21281SOL    HW275903   2.707   9.917   5.318  0.9475  0.3468  1.4728
21282SOL     OW75904   8.796   2.536   7.894 -0.1770  0.0358 -0.2061
21282SOL    HW175905   8.808   2.613   7.831 -2.2765  0.0995 -0.5780
21282SOL    HW275906   8.817   2.451   7.846 -0.2032  0.2011 -0.5153
21283SOL     OW75907   2.297   4.141   6.462  0.1500 -0.1538  0.0789
21283SOL    HW175908   2.322   4.089   6.543 -0.9870 -0.0712  0.4977
21283SOL    HW275909   2.227   4.208   6.486  1.0034  1.0140 -0.6319
21284SOL     OW75910   6.108   9.609   2.902 -0.2842 -0.3515 -0.1408
21284SOL    HW175911   6.106   9.665   2.819 -2.0727 -3.4105 -2.2594
21284SOL    HW275912   6.026   9.627   2.956  0.5602  1.1568  0.6669
21285SOL     OW75913   8.317   0.607   4.158  0.6240 -0.5310 -0.1686
21285SOL    HW175914   8.289   0.683   4.217  1.2986 -1.2331  1.0808
21285SOL    HW275915   8.326   0.640   4.064 -0.4802  0.6025  0.1023
21286SOL     OW75916   0.681   2.901   5.415  0.4545 -0.0001 -0.2836
21286SOL    HW175917   0.691   2.805   5.390 -0.2653 -0.6300  1.7497
21286SOL    HW275918   0.599   2.913   5.471  1.2051  1.5715  0.5370
21287SOL     OW75919   8.831   5.939   8.723 -0.1653 -0.3668 -0.2566
21287SOL    HW175920   8.767   5.888   8.666  1.8143 -1.5336 -1.4968
21287SOL    HW275921   8.845   6.030   8.684  1.1866 -1.1642 -1.6695
21288SOL     OW75922   5.452   1.703   5.184 -0.2905  0.4733 -0.0427
21288SOL    HW175923   5.473   1.643   5.261 -0.1689  1.5546  0.7816
21288SOL    HW275924   5.423   1.648   5.106  0.8417 -0.7196  0.3614
21289SOL     OW75925   8.951   6.392   9.389  0.5939  0.5584 -0.0642
21289SOL    HW175926   8.997   6.462   9.334  0.3437  0.9895  0.2718
21289SOL    HW275927   8.905   6.435   9.467  0.7123 -0.0197  0.3285
21290SOL     OW75928   7.654   4.774   2.357 -0.1396 -0.4219  0.5643
21290SOL    HW175929   7.625   4.705   2.423  2.1298 -0.8175  1.1851
21290SOL    HW275930   7.740   4.815   2.386 -0.1635  0.8803 -1.0938
21291SOL     OW75931   7.143   0.870   0.738  0.1115 -0.0950  0.0744
21291SOL    HW175932   7.092   0.784   0.726 -0.5702  0.4636 -1.0995
21291SOL    HW275933   7.200   0.863   0.820  0.3135 -1.7977 -0.1797
21292SOL     OW75934   8.907   0.181   6.848 -0.1532 -0.4761 -0.5302
21292SOL    HW175935   8.942   0.088   6.860 -0.9005 -0.9545 -1.9465
21292SOL    HW275936   8.838   0.200   6.918  0.0045 -0.9826 -0.2371
21293SOL     OW75937   8.074   5.457   9.078 -0.5169  0.1877 -0.9782
21293SOL    HW175938   8.055   5.548   9.042 -1.4392  0.4142  0.0411
21293SOL    HW275939   8.009   5.437   9.152  1.5792 -0.1078  0.8123
21294SOL     OW75940   0.192   8.772   1.767  0.1343  0.5409 -0.1164
21294SOL    HW175941   0.121   8.783   1.698 -1.9216 -0.6654  1.7411
21294SOL    HW275942   0.281   8.789   1.726 -1.0011 -0.4418 -3.1447
21295SOL     OW75943   9.833   5.405   4.778 -0.1473 -0.0808  0.3550
21295SOL    HW175944   9.758   5.420   4.842 -0.7012 -0.2986 -0.2370
21295SOL    HW275945   9.806   5.334   4.712  1.0603 -1.0823  0.9263
21296SOL     OW75946   8.801   2.894   0.143  0.5140  0.3980 -0.3352
21296SOL    HW175947   8.795   2.933   0.051 -1.2000  2.6302  0.6590
21296SOL    HW275948   8.731   2.937   0.202  0.8092 -1.8158  1.7046
21297SOL     OW75949   5.036   1.635   9.462  0.1892 -0.3254 -0.7410
21297SOL    HW175950   5.040   1.543   9.425  0.2083 -0.2884 -0.8304
21297SOL    HW275951   5.083   1.698   9.401 -1.4616  0.0636 -1.6471
21298SOL     OW75952   1.251   8.577   3.453 -0.3584 -0.0626  0.6987
21298SOL    HW175953   1.345   8.568   3.418 -0.8533  3.1302 -1.7285
21298SOL    HW275954   1.199   8.495   3.431  1.2313 -0.9093 -0.0037
21299SOL     OW75955   1.981   9.939   8.835 -0.3100  0.1105 -0.1684
21299SOL    HW175956   1.980   9.840   8.853  0.8025  0.2806  0.8545
21299SOL    HW275957   1.937   9.956   8.747 -1.8030 -1.1561  0.2917
21300SOL     OW75958   1.476   1.353   6.140 -0.1170 -0.2488  0.3524
21300SOL    HW175959   1.464   1.255   6.156 -1.6465 -0.5232 -2.2132
21300SOL    HW275960   1.417   1.404   6.201 -0.5437 -0.9904  0.5662
21301SOL     OW75961   8.296   9.180   9.841  0.2899 -0.1287  0.2059
21301SOL    HW175962   8.239   9.246   9.891  0.1932 -0.4084  0.4646
21301SOL    HW275963   8.298   9.093   9.891 -0.2811 -0.5985 -0.5701
21302SOL     OW75964   9.508   7.606   4.500  0.2698  0.2618  0.5956
21302SOL    HW175965   9.588   7.602   4.560  0.5968  0.9155  0.2102
21302SOL    HW275966   9.517   7.536   4.429  1.6728  1.8610 -0.8631
21303SOL     OW75967   1.798   0.272   9.636 -0.3613 -0.6310  0.6018
21303SOL    HW175968   1.795   0.372   9.638 -2.1115 -0.6505 -0.3859
21303SOL    HW275969   1.862   0.242   9.565  0.9558 -0.2261  1.5990
21304SOL     OW75970   9.150   6.967   0.181  0.1802 -0.0869  0.5589
21304SOL    HW175971   9.179   7.051   0.227  1.3798 -0.3799  0.3435
21304SOL    HW275972   9.112   6.903   0.249  1.0429 -0.1329  1.0072
21305SOL     OW75973   5.005   1.017   5.705 -0.4960  1.0997 -0.1342
21305SOL    HW175974   4.945   1.071   5.646  0.6119  1.3428 -1.0469
21305SOL    HW275975   5.014   0.925   5.668 -4.6321 -0.7006  2.8946
21306SOL     OW75976   6.293   7.483   6.496 -0.2678  0.4208 -0.8748
21306SOL    HW175977   6.331   7.560   6.445  3.0963  0.3092  1.3591
21306SOL    HW275978   6.280   7.406   6.433  0.7133  1.3128 -2.2026
21307SOL     OW75979   7.349   6.710   4.602  0.6277  0.4690 -0.3053
21307SOL    HW175980   7.342   6.734   4.506  0.1917 -0.6206 -0.5569
21307SOL    HW275981   7.358   6.793   4.657 -1.4052  1.2336 -1.0866
21308SOL     OW75982   2.359   2.714   0.780 -0.0308  0.4503 -0.4352
21308SOL    HW175983   2.344   2.803   0.738 -0.8230  1.2916  1.5536
21308SOL    HW275984   2.291   2.699   0.852  2.2341 -0.2239  1.6329
21309SOL     OW75985   2.603   6.489   3.644  0.0965  0.4678  0.9334
21309SOL    HW175986   2.662   6.485   3.563 -1.5023  1.3426 -0.2837
21309SOL    HW275987   2.640   6.556   3.709  0.7383  0.6219  0.4104
21310SOL     OW75988   2.204   4.290   1.567 -0.2533  0.3812  0.3786
21310SOL    HW175989   2.163   4.204   1.596 -0.8418  0.5501  0.0594
21310SOL    HW275990   2.184   4.361   1.635  1.4398 -0.0521  1.3595
21311SOL     OW75991   4.272   9.668   4.734 -0.3258 -0.1814 -0.4289
21311SOL    HW175992   4.309   9.590   4.782  0.9039  0.1388 -0.8452
21311SOL    HW275993   4.204   9.714   4.791 -0.4206 -1.0352  0.1468
21312SOL     OW75994   3.210   4.641   4.550  0.0562  0.8496  0.1786
21312SOL    HW175995   3.162   4.652   4.463  1.5490 -3.5160 -1.3103
21312SOL    HW275996   3.286   4.705   4.555  0.0018  1.0858 -1.7490
21313SOL     OW75997   0.642   7.110   9.601  0.6114  0.0503  0.0299
21313SOL    HW175998   0.662   7.195   9.650  5.1286  0.1643 -1.7291
21313SOL    HW275999   0.590   7.130   9.518  0.0235  0.8551  0.5882
21314SOL     OW76000   9.245   7.799   7.308  0.2712 -0.0485 -0.3273
21314SOL    HW176001   9.161   7.830   7.355  1.1736  1.3551  0.4151
21314SOL    HW276002   9.321   7.800   7.373  1.2587  0.5586 -1.4692
21315SOL     OW76003   0.817   2.161   9.656 -0.1346 -0.2193  0.2172
21315SOL    HW176004   0.829   2.072   9.701 -2.3630  0.1665  1.6498
21315SOL    HW276005   0.771   2.149   9.569  1.2003 -0.6301 -0.4473
21316SOL     OW76006   0.195   6.392   9.908 -0.2560 -0.4369 -0.1924
21316SOL    HW176007   0.204   6.452   9.828 -0.1456 -0.0467  0.1106
21316SOL    HW276008   0.123   6.324   9.890 -1.3783  0.6791  0.0039
21317SOL     OW76009   8.660   8.324   7.897 -0.2512 -0.1612 -0.6334
21317SOL    HW176010   8.741   8.340   7.841  0.0715  0.8448  0.1026
21317SOL    HW276011   8.644   8.226   7.905  0.1376 -0.3312 -1.8569
21318SOL     OW76012   0.115   2.888   3.295  0.1735  0.0612 -0.2381
21318SOL    HW176013   0.062   2.841   3.224 -0.3905 -0.4241  0.5009
21318SOL    HW276014   0.212   2.883   3.273  0.1025 -1.3538 -0.2173
21319SOL     OW76015   8.753   7.969   9.940 -0.0919  0.1971  0.5935
21319SOL    HW176016   8.731   8.011   9.852 -1.6613 -1.9523 -0.1008
21319SOL    HW276017   8.705   8.018  10.013  0.4299  1.3831  0.1508
21320SOL     OW76018   8.395   0.579   0.016  0.2768  0.4175  0.3599
21320SOL    HW176019   8.304   0.600  -0.019  0.1199 -1.3522 -0.3329
21320SOL    HW276020   8.390   0.560   0.114 -0.6702 -2.9665 -0.2953
21321SOL     OW76021   9.996   0.654   9.615  0.3086 -0.3204  0.3300
21321SOL    HW176022  10.064   0.639   9.544 -0.1782 -1.8244  0.1634
21321SOL    HW276023   9.939   0.573   9.624 -2.5559  1.5010 -0.6788
21322SOL     OW76024   1.626   3.175   8.464 -0.3159  0.5439  0.6783
21322SOL    HW176025   1.665   3.154   8.374 -0.0171  0.8395  0.7371
21322SOL    HW276026   1.696   3.217   8.521 -0.6809  0.9263  0.8447
21323SOL     OW76027   7.400   2.520   1.718  0.2665 -0.2555 -0.1119
21323SOL    HW176028   7.331   2.592   1.730  2.0272  1.2948  0.9179
21323SOL    HW276029   7.394   2.456   1.794 -0.6303 -0.6373 -0.4959
21324SOL     OW76030   6.987   5.061   8.017  0.2410 -0.6086 -0.3636
21324SOL    HW176031   7.067   5.082   7.961  1.2874  0.7634  1.5714
21324SOL    HW276032   6.989   4.964   8.043  1.2671 -0.5867 -0.3473
21325SOL     OW76033   8.974   3.476   9.810 -0.0312  0.2925  0.1478
21325SOL    HW176034   8.957   3.381   9.783  1.0199  0.6179 -1.7154
21325SOL    HW276035   9.055   3.479   9.868  0.1594  0.0915 -0.1059
21326SOL     OW76036   8.603   3.173   4.665 -0.6487 -0.4340 -0.1560
21326SOL    HW176037   8.605   3.198   4.569  2.8277 -0.7704 -0.2445
21326SOL    HW276038   8.603   3.255   4.722  2.7707 -0.1317 -0.4789
21327SOL     OW76039   2.670   6.539   7.038 -0.0596  0.2130 -0.0001
21327SOL    HW176040   2.655   6.577   7.129  0.5355 -0.5106  0.4033
21327SOL    HW276041   2.612   6.459   7.025 -0.2368  0.3887 -0.3065
21328SOL     OW76042   8.250   8.990   5.069 -0.1575  0.0138 -0.2209
21328SOL    HW176043   8.216   8.922   5.134 -0.3307  0.9543  0.6782
21328SOL    HW276044   8.174   9.046   5.037  0.2583  0.9987  0.4814
21329SOL     OW76045   1.340   0.414   3.714  0.3651 -0.0508  0.1099
21329SOL    HW176046   1.288   0.433   3.631  0.1347  1.2338  0.5307
21329SOL    HW276047   1.290   0.347   3.770 -0.5110  0.6473  0.1787
21330SOL     OW76048   4.066   2.278   4.278 -0.0520  0.6165 -0.6907
21330SOL    HW176049   4.160   2.265   4.311  0.5232 -0.3039 -2.5920
21330SOL    HW276050   4.068   2.327   4.191 -1.2574 -0.2974 -1.2477
21331SOL     OW76051   8.388   9.829   4.371 -0.5534 -0.0330 -0.3471
21331SOL    HW176052   8.342   9.909   4.332  0.7806  0.2034 -1.4990
21331SOL    HW276053   8.321   9.771   4.418 -1.7447  1.0959 -0.6338
21332SOL     OW76054   4.771   9.499   5.740  0.0139  0.1526 -0.4709
21332SOL    HW176055   4.724   9.574   5.787  2.6370 -0.0514  2.6039
21332SOL    HW276056   4.731   9.412   5.768  0.4435  0.1210  0.0414
21333SOL     OW76057   9.859   2.702   5.848 -0.0673  0.3710 -0.7086
21333SOL    HW176058   9.957   2.706   5.869 -0.2028  1.1022 -0.1956
21333SOL    HW276059   9.809   2.758   5.913 -0.9974 -1.2683  0.0084
21334SOL     OW76060   9.453   7.192   8.219 -1.1837 -0.2809 -0.1847
21334SOL    HW176061   9.377   7.219   8.279 -0.6490  1.5735 -0.3048
21334SOL    HW276062   9.539   7.203   8.268 -0.9878 -2.6648  0.0473
21335SOL     OW76063   0.868   3.193   9.647  0.6226  0.1442  0.4594
21335SOL    HW176064   0.801   3.254   9.606  0.7916 -0.8280 -1.2978
21335SOL    HW276065   0.869   3.107   9.598  1.9587 -0.4727  1.5426
21336SOL     OW76066   8.515   3.603   2.645 -0.1083 -0.6782 -0.1807
21336SOL    HW176067   8.604   3.636   2.613 -0.3718  0.5066  0.2680
21336SOL    HW276068   8.469   3.552   2.572  1.6511 -2.7629  0.1101
21337SOL     OW76069   9.564   4.096   2.695 -0.3429  0.5290  0.7130
21337SOL    HW176070   9.586   4.034   2.619 -0.3081  2.1788 -0.6356
21337SOL    HW276071   9.485   4.060   2.745 -1.1973  0.1076 -0.9013
21338SOL     OW76072   4.410   9.976   5.366 -0.1114  0.0190 -0.7083
21338SOL    HW176073   4.383   9.897   5.311 -0.6872 -0.3194  0.0633
21338SOL    HW276074   4.510   9.982   5.368 -0.0650 -0.6761 -0.7915
21339SOL     OW76075   5.625   0.950   4.465  0.7582 -0.5879  0.2960
21339SOL    HW176076   5.569   0.883   4.513 -0.3977  1.2358  1.5423
21339SOL    HW276077   5.575   0.986   4.387  1.9169 -2.1611 -1.2179
21340SOL     OW76078   4.579   8.551   4.497  0.3820  0.0260  0.2534
21340SOL    HW176079   4.589   8.453   4.481 -0.0915 -0.1834  1.2352
21340SOL    HW276080   4.484   8.571   4.522  0.1331  0.9357 -1.3614
21341SOL     OW76081   2.973   9.709   3.089  0.2386 -0.2811 -0.0407
21341SOL    HW176082   2.926   9.794   3.113  0.9434 -0.3684  1.6889
21341SOL    HW276083   2.935   9.674   3.003 -0.2698  1.6091 -0.6210
21342SOL     OW76084   6.906   0.479   7.687  0.0947  0.4069  0.2101
21342SOL    HW176085   6.893   0.572   7.653  1.7761  0.0464 -1.4809
21342SOL    HW276086   6.842   0.417   7.643  0.1519  0.4736  0.0339
21343SOL     OW76087   9.123   0.188  10.026  0.0953  0.0576 -0.4405
21343SOL    HW176088   9.110   0.093  10.053 -1.3319  0.3085 -0.1734
21343SOL    HW276089   9.202   0.227  10.074 -0.5206 -0.4177  0.9680
21344SOL     OW76090   0.290   5.146   8.932 -0.5802 -0.0243 -0.1229
21344SOL    HW176091   0.378   5.101   8.923 -1.0223 -1.3059  1.6793
21344SOL    HW276092   0.226   5.086   8.980 -1.6921  1.8588  0.8429
21345SOL     OW76093   7.109   0.239   0.887 -0.4130 -0.2746 -0.7833
21345SOL    HW176094   7.036   0.281   0.833 -0.9876 -1.1141 -0.6685
21345SOL    HW276095   7.082   0.237   0.984  0.1270  0.1871 -0.6201
21346SOL     OW76096   9.624   2.395   4.614 -0.1108 -0.5196 -0.1080
21346SOL    HW176097   9.689   2.375   4.540 -0.7521 -3.7711  0.1346
21346SOL    HW276098   9.532   2.367   4.586 -0.3963 -1.5808  1.8141
21347SOL     OW76099   0.841   7.058   3.382  0.1085  0.4840 -0.1156
21347SOL    HW176100   0.820   7.155   3.378  0.2503  0.4531 -1.8535
21347SOL    HW276101   0.757   7.005   3.369 -0.1816  0.3547  2.0940
21348SOL     OW76102   4.607   4.264   8.415 -0.1929  0.3293  0.1950
21348SOL    HW176103   4.600   4.312   8.502 -0.6637  0.3620  0.1353
21348SOL    HW276104   4.542   4.188   8.413 -0.9423  0.9822 -0.5531
21349SOL     OW76105   3.516   3.421   1.353 -0.5293  0.5644  0.4922
21349SOL    HW176106   3.521   3.497   1.417 -1.3091  1.6476 -0.7262
21349SOL    HW276107   3.459   3.348   1.392 -3.0848  2.2571 -0.0207
21350SOL     OW76108   7.203   1.993   2.185 -0.0531  0.1627  0.0866
21350SOL    HW176109   7.247   2.019   2.099 -2.4007 -1.3857 -1.6483
21350SOL    HW276110   7.193   2.073   2.243  0.6801  1.4363 -1.5083
21351SOL     OW76111   0.412   3.683   3.910 -0.0918  0.6338  0.3379
21351SOL    HW176112   0.493   3.692   3.969  1.0169 -2.9816 -0.5237
21351SOL    HW276113   0.431   3.726   3.822  0.3547  1.1004  0.6568
21352SOL     OW76114   3.173   4.132   4.153  0.0179  0.7903  0.4160
21352SOL    HW176115   3.103   4.061   4.166  0.8659 -0.3545 -1.1401
21352SOL    HW276116   3.160   4.176   4.065  2.6459 -1.0570 -0.9481
21353SOL     OW76117   4.826   8.826   7.332 -0.2705  0.4353 -0.3746
21353SOL    HW176118   4.740   8.869   7.359 -1.2467 -2.7089  1.8934
21353SOL    HW276119   4.807   8.748   7.272  1.0174 -0.0262 -0.2082
21354SOL     OW76120   6.649   1.756   2.937  0.5934 -0.4942  0.2601
21354SOL    HW176121   6.623   1.851   2.920 -0.3301 -0.4738  1.6278
21354SOL    HW276122   6.748   1.750   2.948  1.1025 -0.3543 -3.7370
21355SOL     OW76123   2.173   0.530   0.560  0.0888 -0.3243 -0.2958
21355SOL    HW176124   2.167   0.628   0.542  0.2438 -0.4461 -1.0098
21355SOL    HW276125   2.156   0.479   0.476  0.0409 -0.9157  0.0629
21356SOL     OW76126   4.651   0.711   8.367 -0.3981 -0.0062  0.3132
21356SOL    HW176127   4.747   0.686   8.379  0.1262  0.0815 -3.2825
21356SOL    HW276128   4.637   0.805   8.399  0.4691 -0.3490  1.7487
21357SOL     OW76129   0.761   7.040   7.858  0.1759  0.2798 -0.7618
21357SOL    HW176130   0.698   7.077   7.789 -2.1280 -0.6884  0.7456
21357SOL    HW276131   0.807   7.116   7.904  0.9054  0.9685 -2.5858
21358SOL     OW76132   9.678   8.949   7.099 -0.7173  0.5611  0.6247
21358SOL    HW176133   9.760   8.906   7.137  0.7592  2.2000 -0.6427
21358SOL    HW276134   9.637   8.888   7.031  1.5894  1.2646 -1.4616
21359SOL     OW76135   8.781   2.292   6.060  0.1240 -0.4727  0.5500
21359SOL    HW176136   8.763   2.382   6.021  0.0814 -0.2275  1.1357
21359SOL    HW276137   8.695   2.247   6.082  0.1873  0.0181  1.7959
21360SOL     OW76138   2.270   3.330   2.533  0.0389  0.2550  0.0863
21360SOL    HW176139   2.316   3.307   2.619  1.4363  1.0155 -0.4503
21360SOL    HW276140   2.337   3.362   2.466 -1.3327  2.0020 -0.5019
21361SOL     OW76141   3.699   9.117   1.866  0.1180  0.0751 -0.5561
21361SOL    HW176142   3.760   9.054   1.819  0.1107 -0.1167 -0.3105
21361SOL    HW276143   3.658   9.179   1.800  0.6431  0.2581 -0.7109
21362SOL     OW76144   9.047   7.860   3.156  0.1894  0.1123 -0.1385
21362SOL    HW176145   9.038   7.768   3.118 -0.0857 -0.4059  1.1623
21362SOL    HW276146   9.119   7.860   3.226  1.7715  1.4040 -1.7233
21363SOL     OW76147   1.786   6.075   7.624 -0.2253  0.4872  0.1384
21363SOL    HW176148   1.699   6.060   7.670  0.4996 -2.4055  0.7130
21363SOL    HW276149   1.796   6.008   7.550  1.8673  0.1806  0.6669
21364SOL     OW76150   0.116   7.922   8.834  0.6050  0.4479  0.2865
21364SOL    HW176151   0.149   7.845   8.781 -0.9918  0.7980 -1.2863
21364SOL    HW276152   0.083   7.890   8.923  0.2344 -0.6505 -0.2390
21365SOL     OW76153   7.028   8.324   7.692  0.0126 -0.4480 -0.1665
21365SOL    HW176154   7.061   8.267   7.767  2.5362  0.6107 -0.4275
21365SOL    HW276155   7.003   8.414   7.728  2.2276  0.4138 -0.7078
21366SOL     OW76156   3.172   4.790   5.972  0.1456  0.5388 -0.3524
21366SOL    HW176157   3.130   4.727   6.037 -0.6647  2.0691  0.6474
21366SOL    HW276158   3.142   4.767   5.879  0.3869 -0.9432 -0.0680
21367SOL     OW76159   0.955   6.747   4.215 -0.3208  0.0928  0.3117
21367SOL    HW176160   0.905   6.728   4.300  2.4660 -0.8611  1.8367
21367SOL    HW276161   1.015   6.669   4.194 -0.9810  0.3275 -2.5597
21368SOL     OW76162   3.879   7.959   6.065 -0.6709 -0.3410 -0.1689
21368SOL    HW176163   3.957   7.896   6.067 -1.0652 -0.9040 -2.1008
21368SOL    HW276164   3.896   8.032   5.999  0.3990  2.4756  3.0150
21369SOL     OW76165   2.389   9.170   3.068  0.5420 -0.5061 -0.1016
21369SOL    HW176166   2.333   9.156   3.149 -1.2118  0.6633 -1.0698
21369SOL    HW276167   2.362   9.105   2.997  0.9088 -0.4286 -0.3148
21370SOL     OW76168   1.508   1.757   8.316 -0.5949 -0.1118  0.2300
21370SOL    HW176169   1.524   1.722   8.408 -1.4120  1.6078  1.0602
21370SOL    HW276170   1.411   1.752   8.295 -0.3611 -0.8602 -0.7072
21371SOL     OW76171   0.883   6.362   8.473 -0.2437 -0.0401  0.1263
21371SOL    HW176172   0.830   6.388   8.392  1.4192 -0.1770 -1.0312
21371SOL    HW276173   0.861   6.267   8.498  0.5685 -0.6080 -1.2696
21372SOL     OW76174   2.284   4.954   3.658  0.5223 -0.1605  0.0809
21372SOL    HW176175   2.362   4.892   3.656  0.1864 -0.5921  0.2704
21372SOL    HW276176   2.219   4.923   3.727  0.6530  0.7654  0.6291
21373SOL     OW76177   0.276   5.937  10.017  0.3757  0.6883 -0.1523
21373SOL    HW176178   0.257   6.024   9.973 -0.9024  0.3162 -0.3503
21373SOL    HW276179   0.288   5.951  10.115 -2.3278  0.7569  0.2002
21374SOL     OW76180   7.093   4.086   9.519  0.0410  0.0583  0.4329
21374SOL    HW176181   6.996   4.073   9.500 -0.4369  0.6213  2.3948
21374SOL    HW276182   7.115   4.183   9.515  0.5183 -0.0651  0.0257
21375SOL     OW76183   6.067   0.028   3.319  0.2444  0.0368 -0.2509
21375SOL    HW176184   6.107   0.120   3.319 -1.2462  0.6990 -0.8221
21375SOL    HW276185   6.073  -0.012   3.228  1.3957 -0.6694  0.1240
21376SOL     OW76186   7.673   7.442   3.066 -0.0188  0.5527 -0.6654
21376SOL    HW176187   7.763   7.444   3.022 -0.2428  0.6219 -1.1156
21376SOL    HW276188   7.627   7.529   3.050  0.1756  0.8357  0.2746
21377SOL     OW76189   5.457   9.728   5.407  0.2499 -0.1720  0.0738
21377SOL    HW176190   5.517   9.665   5.456 -0.7738 -0.1326  1.3969
21377SOL    HW276191   5.456   9.817   5.453 -0.2461  0.0591 -0.3690
21378SOL     OW76192   3.423   2.848   9.468  0.1538 -0.4697 -0.5604
21378SOL    HW176193   3.495   2.912   9.443 -1.1377  1.2547  0.0249
21378SOL    HW276194   3.437   2.761   9.420  1.6784  0.4011 -1.7232
21379SOL     OW76195   5.638   3.186   9.183 -0.1498 -0.5711  0.3380
21379SOL    HW176196   5.699   3.154   9.111 -0.4880 -1.0943  0.2780
21379SOL    HW276197   5.640   3.286   9.187  1.4934 -0.6228  1.0296
21380SOL     OW76198   3.028   7.032   8.211  0.5919  0.1868  0.1468
21380SOL    HW176199   3.004   7.037   8.114 -1.7017  2.2412  0.7683
21380SOL    HW276200   3.084   6.950   8.227 -0.2535 -1.0063 -2.6332
21381SOL     OW76201   5.814   1.950   9.110  0.7178  0.2746 -0.7270
21381SOL    HW176202   5.799   1.855   9.085 -1.2358  0.4295 -0.2410
21381SOL    HW276203   5.834   2.004   9.028  1.2553 -0.4542 -1.0724
21382SOL     OW76204   1.977   2.907   1.579 -0.2209  0.0253 -0.0868
21382SOL    HW176205   2.033   2.825   1.574  3.0282  2.1228  0.1606
21382SOL    HW276206   1.937   2.915   1.671  1.4998 -0.0373  0.6964
21383SOL     OW76207   9.364   1.495   4.609 -0.8762 -0.0515 -0.6996
21383SOL    HW176208   9.383   1.509   4.511  0.7330 -0.2522 -0.4369
21383SOL    HW276209   9.296   1.562   4.640 -0.7410  0.5895 -1.7582
21384SOL     OW76210   0.384   5.431   4.821  0.0039  0.3518 -0.2129
21384SOL    HW176211   0.338   5.388   4.899  0.4962 -0.2267 -0.2447
21384SOL    HW276212   0.319   5.493   4.775 -1.5418 -2.2666 -1.7085
21385SOL     OW76213   2.493   7.098   1.643 -0.3296 -0.4659 -0.1405
21385SOL    HW176214   2.393   7.101   1.654 -0.3239 -1.3107  0.2003
21385SOL    HW276215   2.526   7.008   1.671  0.4477 -0.4429 -0.9821
21386SOL     OW76216   8.482   1.680   2.039  0.3643  0.5424  1.0603
21386SOL    HW176217   8.467   1.635   1.951  1.3982  0.9474  0.6770
21386SOL    HW276218   8.425   1.762   2.044  3.2339  2.7249 -0.8809
21387SOL     OW76219   4.912   4.203   7.968  0.1184  0.2468 -0.3409
21387SOL    HW176220   4.916   4.280   7.904  0.5095  0.6330  0.1545
21387SOL    HW276221   4.938   4.119   7.920  0.2806  0.5148 -0.7260
21388SOL     OW76222   8.877   0.565   4.374 -0.0846  0.4849  0.0979
21388SOL    HW176223   8.848   0.633   4.442  0.3289 -0.2202  0.9974
21388SOL    HW276224   8.804   0.497   4.363 -0.9478  1.6524 -1.6060
21389SOL     OW76225   8.023   4.559   0.200  0.0432 -0.6120  0.0358
21389SOL    HW176226   8.007   4.498   0.277 -0.7274  0.9127  1.0929
21389SOL    HW276227   7.938   4.606   0.176  1.1238  1.8098  0.7616
21390SOL     OW76228   9.515   7.262   9.717 -0.4309  0.7201 -0.3327
21390SOL    HW176229   9.499   7.351   9.761 -2.3874 -0.6036  1.7646
21390SOL    HW276230   9.599   7.222   9.754  0.8694  1.9926 -1.8390
21391SOL     OW76231   3.505   5.284   9.599  0.4258 -0.0422  0.1967
21391SOL    HW176232   3.567   5.206   9.608  1.5885  1.0090  1.3073
21391SOL    HW276233   3.515   5.345   9.677 -0.1306  1.4871 -0.8943
21392SOL     OW76234   6.329   0.393   5.926  0.2633 -0.1124  0.3680
21392SOL    HW176235   6.427   0.383   5.914  0.5867  0.6371  2.2199
21392SOL    HW276236   6.281   0.359   5.845  2.0734  0.1789 -0.8433
21393SOL     OW76237   9.411   9.438   8.650 -0.2968  0.4838 -0.3286
21393SOL    HW176238   9.401   9.396   8.560 -0.3757 -0.0079 -0.0907
21393SOL    HW276239   9.430   9.536   8.639 -0.1023  0.3863 -0.8806
21394SOL     OW76240   1.307   3.898   3.855 -0.2039  0.0919  0.2370
21394SOL    HW176241   1.276   3.868   3.945 -0.3199 -0.8032 -0.0897
21394SOL    HW276242   1.387   3.845   3.828  0.1667  0.7453  0.0553
21395SOL     OW76243   1.818   2.866   4.331 -0.2231 -0.5126 -0.2673
21395SOL    HW176244   1.882   2.791   4.345  0.8335  0.5876  0.8982
21395SOL    HW276245   1.745   2.861   4.399  0.4267  0.1221  0.4790
21396SOL     OW76246   7.194   7.694   7.137 -0.6285 -0.6130  0.0887
21396SOL    HW176247   7.158   7.753   7.064 -0.4008 -1.0904 -0.4194
21396SOL    HW276248   7.257   7.747   7.194 -0.3776 -0.3819 -0.3982
21397SOL     OW76249   4.873   7.816   2.867  0.2477  0.1076 -0.8801
21397SOL    HW176250   4.919   7.853   2.947 -3.1614  0.7834  0.8904
21397SOL    HW276251   4.844   7.722   2.887  0.6823 -0.2370 -1.8763
21398SOL     OW76252   8.008   7.474   2.811  0.7732 -0.1936  0.4895
21398SOL    HW176253   8.055   7.518   2.887  0.1220 -1.0282  1.3975
21398SOL    HW276254   7.911   7.499   2.813  0.8938  0.3857 -0.5278
21399SOL     OW76255   3.343   9.079   1.117  0.0428  0.2237  0.0274
21399SOL    HW176256   3.351   9.166   1.068 -0.4188 -0.0250 -0.4876
21399SOL    HW276257   3.433   9.037   1.124  0.3000  0.8317  0.4443
21400SOL     OW76258   2.184   7.086   2.530  0.0603 -0.4471 -0.1861
21400SOL    HW176259   2.088   7.057   2.522  0.0773 -1.1645  1.9243
21400SOL    HW276260   2.190   7.163   2.594  1.0139 -0.9611  0.3441
21401SOL     OW76261   2.041   9.154   8.241 -0.8513  0.5127  0.1074
21401SOL    HW176262   2.056   9.069   8.290 -0.6338  1.4294  1.6527
21401SOL    HW276263   2.001   9.134   8.151 -0.1662 -1.2473  0.1753
21402SOL     OW76264   4.533   2.270   8.200 -0.5459  0.5411 -0.1196
21402SOL    HW176265   4.467   2.335   8.162  0.3256  1.2679 -0.3911
21402SOL    HW276266   4.558   2.298   8.292 -0.6357  0.2552 -0.0094
21403SOL     OW76267   2.274   9.592   7.575 -0.4982 -0.7310 -0.0167
21403SOL    HW176268   2.311   9.563   7.487 -0.9950 -0.7302 -0.2229
21403SOL    HW276269   2.265   9.692   7.576  1.0622 -0.5679  0.6365
21404SOL     OW76270   6.536   6.215   1.249 -0.0974 -0.1005  0.6687
21404SOL    HW176271   6.549   6.200   1.151  0.5889 -2.5816  1.0984
21404SOL    HW276272   6.439   6.225   1.269 -0.1908  1.1170 -0.3434
21405SOL     OW76273   3.618   9.219   4.278 -0.4455 -0.1575 -1.1145
21405SOL    HW176274   3.658   9.220   4.369  1.6905 -0.4131 -2.0194
21405SOL    HW276275   3.523   9.247   4.283 -0.1144  0.6391  1.0825
21406SOL     OW76276   9.362   3.677   1.433  0.1788  0.1801 -0.1507
21406SOL    HW176277   9.360   3.683   1.333  1.2348 -2.5501 -0.3761
21406SOL    HW276278   9.379   3.582   1.461  0.0811  0.9260  2.6301
21407SOL     OW76279   5.715   1.465   9.622 -0.2025 -0.1725  0.3758
21407SOL    HW176280   5.622   1.442   9.653 -0.7545  0.3439 -0.8685
21407SOL    HW276281   5.711   1.539   9.554  1.2259  0.6708  1.1905
21408SOL     OW76282   3.986   9.162   9.753 -0.1379 -0.8725  0.2183
21408SOL    HW176283   4.021   9.249   9.789 -0.8133 -0.9198  1.0041
21408SOL    HW276284   4.050   9.127   9.684 -0.8716  1.2353 -1.5830
21409SOL     OW76285   9.320   1.121   2.239 -0.2889 -0.3478  0.6475
21409SOL    HW176286   9.261   1.108   2.160  0.3592  0.0094  0.0977
21409SOL    HW276287   9.294   1.057   2.311 -1.2568 -0.2817  0.3647
21410SOL     OW76288   4.150   4.318   9.605 -0.4941 -0.9858 -0.0016
21410SOL    HW176289   4.057   4.285   9.593  1.0266 -4.7158 -2.6702
21410SOL    HW276290   4.207   4.246   9.644  1.9853  0.0253 -1.5719
21411SOL     OW76291   3.522   1.985   4.287  0.4868 -0.3354  0.5241
21411SOL    HW176292   3.510   1.887   4.275 -0.1114 -0.4034  1.5872
21411SOL    HW276293   3.582   2.021   4.215 -2.1089 -0.8595 -1.9772
21412SOL     OW76294   5.360   8.511   3.482  0.4438  0.4766 -0.2123
21412SOL    HW176295   5.440   8.504   3.542  1.9001  0.4844 -2.1086
21412SOL    HW276296   5.296   8.437   3.502  1.5304 -0.2945  0.4604
21413SOL     OW76297   8.556   0.043   8.366 -0.6145 -0.0616  0.5921
21413SOL    HW176298   8.501   0.004   8.292 -0.0801 -0.4553  0.4028
21413SOL    HW276299   8.564  -0.023   8.441 -1.6863  0.5707  1.2850
21414SOL     OW76300   3.306   7.214   2.334  0.0729 -0.1551 -0.6743
21414SOL    HW176301   3.351   7.233   2.422  0.4118  2.5369 -1.3827
21414SOL    HW276302   3.372   7.224   2.260 -0.7729 -0.0537 -1.4163
21415SOL     OW76303   2.633   1.004   2.381 -0.2267  0.4130 -0.3205
21415SOL    HW176304   2.559   0.952   2.338 -0.2589  0.3714 -0.2135
21415SOL    HW276305   2.721   0.971   2.347 -0.1980 -0.4388  0.5516
21416SOL     OW76306   1.322   4.579   2.886 -0.0437 -0.0850 -0.0150
21416SOL    HW176307   1.400   4.551   2.831 -0.2379  1.0890 -0.9113
21416SOL    HW276308   1.262   4.638   2.831 -0.0909  1.3378  1.5476
21417SOL     OW76309   1.241   1.235   4.864 -0.0446 -0.0604 -0.0876
21417SOL    HW176310   1.297   1.290   4.803 -0.5357  0.1972 -0.3043
21417SOL    HW276311   1.191   1.167   4.811 -0.6530  0.3178  0.0071
21418SOL     OW76312   6.651   4.577   9.380  0.4689 -0.5911 -0.1529
21418SOL    HW176313   6.710   4.592   9.459 -0.2015  0.6640  0.1327
21418SOL    HW276314   6.706   4.581   9.296  0.9078 -0.2152  0.1505
21419SOL     OW76315   7.049   0.838   8.828 -0.0119 -0.6095 -0.1763
21419SOL    HW176316   7.092   0.818   8.916 -2.2702 -3.7479  0.2722
21419SOL    HW276317   7.119   0.837   8.756  1.2637 -1.7350  1.0500
21420SOL     OW76318   8.995   0.351   0.489 -0.0812  0.0484 -0.2137
21420SOL    HW176319   8.927   0.286   0.456 -0.3666  0.4788 -0.4763
21420SOL    HW276320   9.070   0.357   0.422 -0.9310  1.3390 -1.0572
21421SOL     OW76321   7.651   7.081   2.279  0.6340  0.1175  0.2620
21421SOL    HW176322   7.674   7.048   2.370  1.8460  1.7585  0.5672
21421SOL    HW276323   7.602   7.168   2.286  2.5681  1.3086 -0.6915
21422SOL     OW76324   4.779   8.373   6.085  0.0884 -0.5016  0.0045
21422SOL    HW176325   4.738   8.288   6.120 -0.6717 -0.5200 -0.9107
21422SOL    HW276326   4.870   8.353   6.047  0.4547 -0.6739  0.9647
21423SOL     OW76327   3.681   3.926   4.208 -0.0866 -0.0483  0.1334
21423SOL    HW176328   3.753   3.937   4.277 -0.4158 -1.1285  0.6533
21423SOL    HW276329   3.611   3.995   4.222 -0.4501 -0.6451  1.2548
21424SOL     OW76330   9.161   4.871   2.218  0.7911 -0.1750  0.4038
21424SOL    HW176331   9.118   4.788   2.252  0.6441  0.4703  1.8307
21424SOL    HW276332   9.216   4.850   2.137 -2.1495 -1.0264 -1.4473
21425SOL     OW76333   7.321   8.088   3.381 -0.3001 -0.2983 -0.2189
21425SOL    HW176334   7.250   8.063   3.316 -0.5776  0.5604 -0.2477
21425SOL    HW276335   7.379   8.159   3.342  0.5624 -0.9733 -0.1813
21426SOL     OW76336   3.479   0.572   8.821  0.5417  0.2125  0.1891
21426SOL    HW176337   3.508   0.584   8.917  2.3239 -0.5093 -0.2348
21426SOL    HW276338   3.553   0.603   8.761 -1.3674  2.6569 -1.0044
21427SOL     OW76339   4.552   1.869   6.516 -0.2126 -0.4763 -0.3213
21427SOL    HW176340   4.630   1.844   6.573 -0.4826 -0.1433  0.2019
21427SOL    HW276341   4.583   1.926   6.439 -0.3994  2.8778  1.9688
21428SOL     OW76342   5.187   9.456   5.213  0.5274 -0.0447  0.4846
21428SOL    HW176343   5.187   9.365   5.255  1.2697 -1.0359 -1.6214
21428SOL    HW276344   5.095   9.476   5.178 -0.3196  1.1279  3.1785
21429SOL     OW76345   0.940   4.313   4.793  0.7667  0.1864 -0.3627
21429SOL    HW176346   0.862   4.276   4.743  1.1609 -1.3358  0.0947
21429SOL    HW276347   0.999   4.365   4.731  1.3223 -1.7794 -1.5215
21430SOL     OW76348   5.378   8.791   2.344  0.3908  0.2434 -0.2776
21430SOL    HW176349   5.413   8.734   2.418 -1.7992  0.3419  0.8793
21430SOL    HW276350   5.285   8.762   2.322  0.6227  0.9465 -2.2525
21431SOL     OW76351   2.245   6.387   7.055  0.3177 -0.3231 -0.0881
21431SOL    HW176352   2.301   6.460   7.015 -0.1116 -0.4785 -0.9866
21431SOL    HW276353   2.162   6.427   7.094  0.7424 -0.1692  0.6586
21432SOL     OW76354   3.085   7.893   0.318  0.6591  0.2819 -0.2895
21432SOL    HW176355   3.027   7.913   0.239  2.7049  0.7149 -1.7369
21432SOL    HW276356   3.105   7.795   0.321  1.4968  0.4259 -0.9810
21433SOL     OW76357   9.433   8.497   5.062  0.2563  0.3340  0.2172
21433SOL    HW176358   9.400   8.545   5.143 -0.7609  0.2443 -0.1364
21433SOL    HW276359   9.464   8.564   4.994  0.5887  0.4275  0.4610
21434SOL     OW76360   2.170   6.092   7.309 -0.0150  0.7335 -0.0014
21434SOL    HW176361   2.210   6.182   7.292  0.0480  0.6834 -0.1127
21434SOL    HW276362   2.086   6.082   7.255  1.6442 -0.4997 -2.4469
21435SOL     OW76363   5.329   8.877   3.579  0.2246  0.2052  0.2140
21435SOL    HW176364   5.336   8.816   3.500 -0.4980 -1.0290  1.0910
21435SOL    HW276365   5.270   8.955   3.556  1.0087  0.5003 -0.8494
21436SOL     OW76366   7.292   1.862   9.132 -0.3262  0.4272  0.0912
21436SOL    HW176367   7.352   1.784   9.147  0.9343  1.0366 -1.6833
21436SOL    HW276368   7.339   1.932   9.078 -1.6479  2.1607  1.1185
21437SOL     OW76369   7.746   0.147   4.330  1.1330  0.4056 -0.0549
21437SOL    HW176370   7.656   0.170   4.292  0.5971 -1.4946  0.0233
21437SOL    HW276371   7.750   0.176   4.426  0.1624 -0.5236  0.2869
21438SOL     OW76372   2.374   0.814   6.139 -0.1231 -0.1397  0.2938
21438SOL    HW176373   2.290   0.842   6.093  0.4774 -1.2660 -1.5758
21438SOL    HW276374   2.397   0.879   6.211 -1.8501  0.9098 -0.0823
21439SOL     OW76375   3.773   1.699   4.164 -0.2970  0.7385 -0.2565
21439SOL    HW176376   3.809   1.718   4.255 -0.5603 -0.7003  0.1492
21439SOL    HW276377   3.676   1.677   4.170  0.2739 -1.9775 -0.5599
21440SOL     OW76378   8.010   6.443   4.904  0.0372  0.3136  0.3117
21440SOL    HW176379   7.921   6.450   4.860 -0.4186 -0.6122  1.0601
21440SOL    HW276380   8.079   6.416   4.836 -0.5322 -0.4519  0.0379
21441SOL     OW76381   7.433   4.076   2.430  0.0737 -0.0640 -0.1198
21441SOL    HW176382   7.433   4.049   2.527 -0.4541  0.0183 -0.0933
21441SOL    HW276383   7.345   4.117   2.408  0.2899  0.1551 -0.5734
21442SOL     OW76384   1.935   5.210   9.101 -0.0284 -0.3679 -0.6589
21442SOL    HW176385   2.010   5.262   9.059  1.2936 -1.7501 -0.0610
21442SOL    HW276386   1.916   5.248   9.191 -0.3182  0.2415 -0.9749
21443SOL     OW76387   7.385   4.619   7.654 -0.3214 -0.0993  0.3775
21443SOL    HW176388   7.340   4.703   7.684  1.4321  0.9078  0.2596
21443SOL    HW276389   7.425   4.572   7.733 -0.8813 -0.5722  0.3816
21444SOL     OW76390   3.487   6.393   2.470 -0.8512 -0.3950  0.4960
21444SOL    HW176391   3.402   6.342   2.463 -0.6960 -0.3559 -2.0224
21444SOL    HW276392   3.564   6.329   2.478 -0.9241 -0.4857  0.4594
21445SOL     OW76393   1.973   3.499   5.793 -0.0694  0.1771  0.3880
21445SOL    HW176394   1.898   3.560   5.769 -1.6531 -2.0691 -0.5362
21445SOL    HW276395   1.959   3.463   5.885  1.4675  2.0669  1.3859
21446SOL     OW76396   5.186   3.128   8.682  0.0492  0.1400  0.0551
21446SOL    HW176397   5.206   3.217   8.643  0.6169 -0.1354 -0.2918
21446SOL    HW276398   5.168   3.137   8.780  2.8623  0.2934  0.6120
21447SOL     OW76399   3.982   0.465   4.279  0.6018  0.0041  0.4548
21447SOL    HW176400   3.937   0.376   4.266  1.1256 -0.1028 -0.6142
21447SOL    HW276401   3.944   0.531   4.214  0.3721  0.5170  1.0998
21448SOL     OW76402   6.270   2.526   9.580 -0.0112  0.1116 -0.2157
21448SOL    HW176403   6.268   2.593   9.655 -0.1737 -0.0341 -0.0909
21448SOL    HW276404   6.280   2.574   9.493 -1.3940  0.3828 -0.2312
21449SOL     OW76405   3.436   0.671   1.462  0.6889  0.3001  0.3401
21449SOL    HW176406   3.516   0.647   1.406  1.1156 -0.5166  1.2786
21449SOL    HW276407   3.354   0.630   1.422  1.0882 -0.8559  0.6666
21450SOL     OW76408   8.097   4.590   3.779 -0.1040  0.0791 -0.4039
21450SOL    HW176409   8.000   4.593   3.756 -0.1071 -3.3674 -1.2107
21450SOL    HW276410   8.151   4.624   3.702 -0.5780 -0.7518 -1.1085
21451SOL     OW76411   0.751   7.705   4.691 -0.5122  0.3181  0.2279
21451SOL    HW176412   0.753   7.610   4.722  0.6857  0.9609  2.1572
21451SOL    HW276413   0.726   7.707   4.594  2.3722 -2.1851 -0.6608
21452SOL     OW76414   0.594   4.310   1.113  0.4695 -0.2206 -0.2992
21452SOL    HW176415   0.599   4.367   1.031  0.3207  1.7596  1.0183
21452SOL    HW276416   0.629   4.219   1.092  1.5687  0.6034 -2.2537
21453SOL     OW76417   7.864   2.206   2.794 -0.1045 -0.4725  0.1565
21453SOL    HW176418   7.943   2.204   2.733 -1.1596 -0.2373 -1.2595
21453SOL    HW276419   7.867   2.128   2.856  0.5915 -1.1665 -0.7303
21454SOL     OW76420   4.380   9.637   0.583  0.5048 -0.3459 -0.0779
21454SOL    HW176421   4.462   9.654   0.638  1.2820 -0.5958 -1.1459
21454SOL    HW276422   4.302   9.684   0.625  1.6652  1.9245 -0.3892
21455SOL     OW76423   5.020   2.633   6.002  0.0699 -0.2713  0.1283
21455SOL    HW176424   4.970   2.714   6.032 -0.1375 -0.9667  1.6931
21455SOL    HW276425   5.103   2.662   5.953 -0.6221  0.8754 -0.3974
21456SOL     OW76426   1.947   0.128   2.514 -0.3401 -0.2003 -0.1581
21456SOL    HW176427   1.982   0.083   2.595  3.0787  2.0662 -0.2661
21456SOL    HW276428   1.937   0.062   2.440 -0.9669 -1.7885  1.3286
21457SOL     OW76429   9.420   7.399   3.782  0.1370 -0.1984 -0.4668
21457SOL    HW176430   9.513   7.377   3.812  0.2473  1.5616  0.5361
21457SOL    HW276431   9.372   7.447   3.856 -1.6013 -1.1836 -0.9460
21458SOL     OW76432   2.141   6.393   9.441  0.3119  0.3321 -0.2930
21458SOL    HW176433   2.167   6.302   9.474  3.9746  1.3566 -0.1312
21458SOL    HW276434   2.129   6.390   9.342 -0.2244 -0.4462 -0.2111
21459SOL     OW76435   3.904   9.874   5.303  0.0185 -0.0131  0.0179
21459SOL    HW176436   3.912   9.888   5.205 -0.3880 -0.0938 -0.0258
21459SOL    HW276437   3.880   9.960   5.348  1.0826  0.2256  0.1484
21460SOL     OW76438   4.358   5.869   2.330  0.0165 -0.6316 -0.1324
21460SOL    HW176439   4.403   5.826   2.408 -0.0636 -0.8277 -0.1933
21460SOL    HW276440   4.398   5.835   2.245 -0.7116 -1.3309 -0.2031
21461SOL     OW76441   5.396   1.836   4.544 -0.0661 -0.6443  0.4364
21461SOL    HW176442   5.300   1.810   4.536  0.0768 -1.0791  0.0785
21461SOL    HW276443   5.445   1.810   4.460  0.3565 -0.4156  0.6084
21462SOL     OW76444   0.497   7.247   9.403 -0.1411  0.4548  0.1606
21462SOL    HW176445   0.563   7.322   9.403 -0.8270  1.0678  0.9739
21462SOL    HW276446   0.436   7.257   9.325  0.9661 -0.3342 -0.8191
21463SOL     OW76447   2.229   0.590   2.791  0.4348 -0.2923  0.1701
21463SOL    HW176448   2.212   0.684   2.760  0.5432  0.6203  2.7885
21463SOL    HW276449   2.301   0.550   2.735 -1.0798  0.4008 -2.3968
21464SOL     OW76450   6.216   0.925   4.745 -0.3751 -0.2319  0.0784
21464SOL    HW176451   6.228   0.996   4.814 -1.5734 -0.0139  0.0762
21464SOL    HW276452   6.261   0.953   4.660  0.9826 -0.4391  0.7210
21465SOL     OW76453   4.257   4.432   0.638 -0.0045 -0.3284  0.2833
21465SOL    HW176454   4.268   4.439   0.539  0.2007 -2.1134  0.1536
21465SOL    HW276455   4.294   4.344   0.669  0.3763  0.4229  2.0124
21466SOL     OW76456   2.873   3.718   2.360  0.6222  0.0775  0.2164
21466SOL    HW176457   2.969   3.697   2.375  0.0327 -3.4341 -0.4769
21466SOL    HW276458   2.863   3.812   2.328  3.7206  0.7365  1.0994
21467SOL     OW76459   1.247   3.113   6.545 -0.2548  0.4603  0.1722
21467SOL    HW176460   1.147   3.116   6.544 -0.3053  1.3613  2.7643
21467SOL    HW276461   1.277   3.018   6.554 -0.9796  0.3315  1.4788
21468SOL     OW76462   3.362   6.021   6.741 -0.4514  0.0312 -0.1493
21468SOL    HW176463   3.306   5.991   6.818  1.1093  0.6144  1.2549
21468SOL    HW276464   3.457   5.993   6.756  0.1292  1.4056 -1.1570
21469SOL     OW76465   2.423   8.433   5.599 -0.0159 -0.0901 -0.2035
21469SOL    HW176466   2.401   8.530   5.609 -1.4107 -0.5317  1.1505
21469SOL    HW276467   2.513   8.424   5.557  0.5519  1.7840  0.5468
21470SOL     OW76468   6.998   5.917   1.435 -0.2157  0.3482  0.2878
21470SOL    HW176469   7.000   5.818   1.453 -1.4935  0.1049 -0.7826
21470SOL    HW276470   7.027   5.966   1.517  1.3288 -0.9327  0.5483
21471SOL     OW76471   7.643   6.611   2.609  0.3293  0.7885  0.0721
21471SOL    HW176472   7.557   6.607   2.559  0.5262  0.3612 -0.2344
21471SOL    HW276473   7.713   6.651   2.550  0.7908 -0.5757 -0.3186
21472SOL     OW76474   7.783   4.864   9.023  0.0393  0.2484 -0.4548
21472SOL    HW176475   7.692   4.826   9.010  0.2477 -0.6085  0.5486
21472SOL    HW276476   7.776   4.956   9.063 -0.3269 -0.9444  2.3435
21473SOL     OW76477   9.129   8.165   1.161  0.0758 -0.2068  0.4481
21473SOL    HW176478   9.058   8.235   1.174  0.9410  0.9178 -0.7805
21473SOL    HW276479   9.086   8.075   1.163 -1.3982  0.4461 -0.1608
21474SOL     OW76480   2.942   5.712   0.773  0.4519  0.2431 -0.2969
21474SOL    HW176481   2.885   5.716   0.691 -0.5371  2.7961  0.4871
21474SOL    HW276482   3.038   5.718   0.747  0.1997 -0.0241 -1.3210
21475SOL     OW76483   2.682   7.395   8.790 -0.4162 -0.6255  0.4211
21475SOL    HW176484   2.655   7.411   8.884  0.8744 -1.1574  0.8927
21475SOL    HW276485   2.683   7.482   8.740 -3.8108 -0.6969  0.1416
21476SOL     OW76486   2.809   3.849   9.105 -0.2804  0.2219  0.8977
21476SOL    HW176487   2.724   3.901   9.115 -0.9572 -0.5360 -0.7032
21476SOL    HW276488   2.800   3.786   9.027  1.8438  0.3243  0.5511
21477SOL     OW76489   4.919   7.486   1.574  0.4531  0.3469  0.2627
21477SOL    HW176490   4.856   7.564   1.575  0.5109  0.3903  0.5459
21477SOL    HW276491   4.943   7.464   1.480  1.3750  1.4340  0.2369
21478SOL     OW76492   0.087   2.528   3.750  0.1480  0.0340 -0.3158
21478SOL    HW176493   0.086   2.493   3.843  0.0538  0.4998 -0.1399
21478SOL    HW276494   0.134   2.617   3.748 -0.4254  0.3374 -0.5978
21479SOL     OW76495   7.235   9.701   8.148 -0.6247 -0.3389  0.5863
21479SOL    HW176496   7.260   9.680   8.054 -2.3354  0.2516 -0.0354
21479SOL    HW276497   7.240   9.800   8.162  2.1262 -0.6240  1.8977
21480SOL     OW76498   8.752   3.836   7.448  0.3090  0.2029  0.4496
21480SOL    HW176499   8.722   3.929   7.427 -1.3894 -0.0250  1.7276
21480SOL    HW276500   8.772   3.787   7.364  0.0936  1.3561 -0.2840
21481SOL     OW76501   3.355   5.332   2.557 -0.4924  0.2720  0.3666
21481SOL    HW176502   3.318   5.310   2.466 -1.5499 -0.6167  1.0036
21481SOL    HW276503   3.445   5.289   2.568  0.5425  1.9963 -0.9861
21482SOL     OW76504   3.791   1.745   3.867  0.0937 -0.9994  0.0182
21482SOL    HW176505   3.890   1.761   3.864  0.1683 -1.5012 -0.3343
21482SOL    HW276506   3.763   1.730   3.962  0.3114 -0.5845  0.1483
21483SOL     OW76507   9.416   9.812   4.917  0.3639 -0.2583 -0.3751
21483SOL    HW176508   9.394   9.725   4.962 -0.6844  0.3395  0.2972
21483SOL    HW276509   9.391   9.807   4.821 -3.1486  0.5091  0.4366
21484SOL     OW76510   3.935   9.885   5.040 -0.1488  0.9209 -0.1421
21484SOL    HW176511   3.859   9.833   5.000  1.0980 -0.9450 -0.1113
21484SOL    HW276512   4.021   9.857   4.998  0.8042  1.3232  1.4793
21485SOL     OW76513   9.550   4.740   0.598  0.2179  0.1182 -0.1449
21485SOL    HW176514   9.467   4.749   0.544 -0.3117  1.6196  0.8905
21485SOL    HW276515   9.533   4.682   0.677 -0.2835  1.6403  0.8868
21486SOL     OW76516   9.017   7.215   3.127 -0.0689  0.0843  0.0337
21486SOL    HW176517   8.930   7.225   3.175  0.9291 -0.3865  1.9856
21486SOL    HW276518   9.088   7.268   3.174  0.8119  0.0673 -1.2449
21487SOL     OW76519   6.898   2.357   9.591  0.0544  0.1801  0.5775
21487SOL    HW176520   6.871   2.376   9.685 -2.6511 -0.3353 -0.0651
21487SOL    HW276521   6.867   2.266   9.565  2.6203 -0.5362 -0.1798
21488SOL     OW76522   7.937   0.676   0.836  0.2937 -0.1329 -0.0449
21488SOL    HW176523   8.015   0.739   0.844 -0.2147  0.5380 -0.2350
21488SOL    HW276524   7.970   0.585   0.813  1.0914 -0.0749  0.8368
21489SOL     OW76525   9.027   2.398   2.455  0.0758  0.0844  0.2524
21489SOL    HW176526   8.969   2.478   2.438 -0.8667 -0.4440  0.9859
21489SOL    HW276527   9.018   2.334   2.379  1.9431  1.3202 -1.0422
21490SOL     OW76528   7.897   5.052   9.334 -0.2990 -0.5686 -0.2119
21490SOL    HW176529   7.851   5.085   9.252 -1.4838 -2.1858 -0.2257
21490SOL    HW276530   7.851   4.969   9.367  0.7325 -0.4725  1.5420
21491SOL     OW76531   0.142   5.139   4.085  0.4680  0.0077  0.2138
21491SOL    HW176532   0.106   5.047   4.069 -0.2216  0.2412  0.3721
21491SOL    HW276533   0.128   5.164   4.181  0.4432  0.3667  0.1175
21492SOL     OW76534   8.420   0.566   3.160  0.6823  0.2121  0.2448
21492SOL    HW176535   8.406   0.515   3.245  0.4144 -1.8148 -0.9757
21492SOL    HW276536   8.395   0.662   3.174 -0.0537 -0.2450  2.2436
21493SOL     OW76537   2.971   7.094   9.347 -0.5629  0.1629  0.0279
21493SOL    HW176538   2.873   7.097   9.327 -0.7832  1.8035  1.2006
21493SOL    HW276539   3.019   7.163   9.293  0.2843 -2.0753 -2.1426
21494SOL     OW76540   0.902   8.636   1.470 -0.8905 -0.1137 -0.0446
21494SOL    HW176541   0.839   8.615   1.544 -2.3048  0.5645 -1.0282
21494SOL    HW276542   0.907   8.558   1.407 -2.2107  0.4992 -0.9537
21495SOL     OW76543   1.012   5.576   4.924 -0.4610  0.0149  0.0888
21495SOL    HW176544   0.973   5.499   4.973 -0.2889 -0.5621 -0.6751
21495SOL    HW276545   1.057   5.638   4.989  1.0952 -1.5172  0.5156
21496SOL     OW76546   5.296   3.357   5.319  0.3383  0.4248  0.3905
21496SOL    HW176547   5.262   3.386   5.229 -1.6957  1.0293  1.3354
21496SOL    HW276548   5.295   3.435   5.381 -0.0914 -0.4349  1.4718
21497SOL     OW76549   5.385   1.507   7.289 -0.3738  0.0931 -0.3887
21497SOL    HW176550   5.385   1.505   7.189  1.7875 -0.6573 -0.3906
21497SOL    HW276551   5.428   1.424   7.324  1.1830  1.4906  1.1266
21498SOL     OW76552   7.192   8.443   7.505  0.0676 -0.2605  0.4905
21498SOL    HW176553   7.143   8.409   7.585 -1.1980  3.8332  1.5511
21498SOL    HW276554   7.127   8.471   7.435  1.0029  0.5916 -0.0628
21499SOL     OW76555   2.824   2.834   0.563  0.0738 -0.3317 -0.0397
21499SOL    HW176556   2.857   2.923   0.596 -0.5678 -0.2400  0.3679
21499SOL    HW276557   2.884   2.802   0.490 -0.4169  1.0347 -1.0676
21500SOL     OW76558   9.789   0.789   7.537  0.3392  0.1832 -0.1611
21500SOL    HW176559   9.747   0.702   7.565 -1.1340  0.2638 -2.0305
21500SOL    HW276560   9.864   0.770   7.473 -0.8624  0.3329 -1.6366
21501SOL     OW76561   1.643   8.997   5.338 -0.6698  0.0398 -0.0508
21501SOL    HW176562   1.611   9.075   5.392 -1.6867 -0.4924  0.1275
21501SOL    HW276563   1.608   8.912   5.378  1.0868 -0.5730  0.2218
21502SOL     OW76564   0.518   9.782   5.810 -0.2234  0.4906  0.2742
21502SOL    HW176565   0.615   9.758   5.799 -0.0829  0.8190  0.7743
21502SOL    HW276566   0.485   9.826   5.727  0.1155  0.5725  0.1829
21503SOL     OW76567   5.413   9.659   4.836 -0.1744 -0.1996 -0.4440
21503SOL    HW176568   5.500   9.706   4.853 -0.7550  1.0120 -0.7822
21503SOL    HW276569   5.404   9.582   4.900  1.5275 -0.8666 -0.9675
21504SOL     OW76570   6.985   7.396   6.775  0.0678  0.1873 -0.3262
21504SOL    HW176571   7.059   7.390   6.707 -0.3527  1.3178 -0.8945
21504SOL    HW276572   7.025   7.397   6.866  0.5643 -3.0255 -0.4496
21505SOL     OW76573   8.438   1.284   9.901  0.0546 -0.0242 -0.3882
21505SOL    HW176574   8.521   1.340   9.911 -0.3974  0.8281 -1.2772
21505SOL    HW276575   8.382   1.321   9.827 -1.3585 -0.2984  0.5256
21506SOL     OW76576   9.249   6.882   9.310  0.6215 -0.2429  0.3258
21506SOL    HW176577   9.225   6.914   9.219  2.0073  1.2050  0.4369
21506SOL    HW276578   9.348   6.893   9.324  0.6250 -1.6432  1.5326
21507SOL     OW76579   4.673   9.415   4.234 -0.3898  0.4144  0.4272
21507SOL    HW176580   4.768   9.444   4.248 -0.2742  0.0096  0.4977
21507SOL    HW276581   4.665   9.318   4.256 -0.4778  0.0506 -1.1311
21508SOL     OW76582   8.725   9.528   4.544 -0.0333 -0.4415 -0.4789
21508SOL    HW176583   8.637   9.511   4.590  0.2653 -0.2870  0.1565
21508SOL    HW276584   8.709   9.544   4.447 -0.9738  2.0148  0.0303
21509SOL     OW76585   2.129   6.093   6.006 -0.1131  0.0911 -0.7103
21509SOL    HW176586   2.146   6.001   5.971 -0.5096 -0.0750 -0.4729
21509SOL    HW276587   2.192   6.112   6.082 -0.4068 -0.2020 -0.3885
21510SOL     OW76588   7.927   7.790   1.141 -0.0771  0.4351 -0.1473
21510SOL    HW176589   7.915   7.820   1.236 -0.7814 -0.3064  0.0014
21510SOL    HW276590   8.025   7.785   1.120  0.1895 -2.3045  1.4915
21511SOL     OW76591   2.952   6.071   7.987 -0.1989 -0.1267  0.4906
21511SOL    HW176592   2.859   6.060   8.024 -0.4722  0.1233 -0.1076
21511SOL    HW276593   2.979   6.167   7.995 -0.7549  0.1732 -1.0976
21512SOL     OW76594   9.558   4.708   1.084 -0.0351 -0.5635 -0.6005
21512SOL    HW176595   9.626   4.781   1.071  1.1449 -1.4022  0.7062
21512SOL    HW276596   9.485   4.718   1.017  1.0828  0.7161 -1.6500
21513SOL     OW76597   6.948   1.153   1.557 -0.0613 -0.6071 -0.5482
21513SOL    HW176598   7.028   1.168   1.498 -1.3889 -0.0190 -2.2374
21513SOL    HW276599   6.976   1.103   1.639  2.1544  0.1402 -0.8120
21514SOL     OW76600   7.780   5.842   4.257 -0.1438  0.1195 -0.0597
21514SOL    HW176601   7.821   5.902   4.325 -0.1583  1.0907 -0.9007
21514SOL    HW276602   7.847   5.773   4.229  0.1413  0.2470  0.3028
21515SOL     OW76603   9.596   6.515   4.283  0.0434  0.1735  0.2600
21515SOL    HW176604   9.606   6.561   4.195  1.7498  1.7942  1.2745
21515SOL    HW276605   9.518   6.452   4.279 -0.7206  1.2170 -1.9702
21516SOL     OW76606   6.119   3.477   1.637  0.5272  0.0921  0.4965
21516SOL    HW176607   6.155   3.565   1.607 -0.5235  0.3689  0.0283
21516SOL    HW276608   6.190   3.427   1.687  0.6762  1.8292  2.0585
21517SOL     OW76609   5.879   4.270   0.073 -0.1521 -0.0639 -0.1471
21517SOL    HW176610   5.955   4.303   0.018 -1.5743  0.1394 -2.0329
21517SOL    HW276611   5.910   4.257   0.168  1.9640  0.8850 -0.6712
21518SOL     OW76612   3.284   8.495   2.461  0.5217 -0.1669  0.5340
21518SOL    HW176613   3.365   8.479   2.404  0.8346  0.0000  0.9334
21518SOL    HW276614   3.300   8.573   2.520  0.0942 -0.1821  0.6692
21519SOL     OW76615   1.909   7.682   3.247 -0.5642  0.2493  0.4680
21519SOL    HW176616   1.954   7.767   3.221 -1.4401  0.2797 -1.0457
21519SOL    HW276617   1.920   7.615   3.173 -1.1896 -0.4454  0.9950
21520SOL     OW76618   0.523   9.123   3.767  0.6254  0.5492 -0.1119
21520SOL    HW176619   0.572   9.076   3.841  0.3558  0.8481  0.2606
21520SOL    HW276620   0.554   9.089   3.679 -0.5233 -1.3087  0.1719
21521SOL     OW76621   5.513   4.845   9.276  0.1866 -0.1053 -0.3233
21521SOL    HW176622   5.438   4.796   9.320 -0.5713 -1.6065 -3.1406
21521SOL    HW276623   5.491   4.942   9.270 -0.0537 -0.0053  1.7618
21522SOL     OW76624   5.143   0.431   9.628  0.3049  0.5203 -0.2497
21522SOL    HW176625   5.185   0.347   9.594  2.8130  1.3315  0.6724
21522SOL    HW276626   5.104   0.482   9.552 -1.0184 -1.3172 -0.8562
21523SOL     OW76627   8.441   9.169   7.683 -0.5737  0.3032 -0.8060
21523SOL    HW176628   8.419   9.167   7.585 -2.0939  0.6058 -0.4794
21523SOL    HW276629   8.417   9.259   7.721  1.6448  0.7951 -0.5145
21524SOL     OW76630   2.872   8.542   6.096 -0.3813  0.0061 -0.1915
21524SOL    HW176631   2.873   8.473   6.024  2.5418  0.9354 -1.1119
21524SOL    HW276632   2.896   8.631   6.058 -1.0218  0.9548  1.5410
21525SOL     OW76633   2.274   8.359   0.132 -0.2306 -0.4527  0.2080
21525SOL    HW176634   2.370   8.353   0.160  0.2149  1.2770 -0.8420
21525SOL    HW276635   2.245   8.272   0.093  1.0220 -0.8708  0.1863
21526SOL     OW76636   0.405   0.539   0.766 -0.0984 -0.2708 -0.9619
21526SOL    HW176637   0.492   0.582   0.790  0.6304 -1.3695 -1.5813
21526SOL    HW276638   0.331   0.586   0.812  0.7937  0.9054 -0.6990
21527SOL     OW76639   8.680   0.003   0.168  0.3251 -0.2433 -0.2654
21527SOL    HW176640   8.763   0.026   0.218  1.8005 -0.3812 -2.5836
21527SOL    HW276641   8.654   0.080   0.109 -0.2212 -0.8281 -0.7994
21528SOL     OW76642   4.652   7.082   3.439  0.3139 -0.5437 -0.2211
21528SOL    HW176643   4.678   6.986   3.452 -1.8331 -1.0022  0.9257
21528SOL    HW276644   4.559   7.096   3.472  0.9112  2.1425  0.4270
21529SOL     OW76645   7.688   3.456   9.971  0.1737 -0.2070 -0.8542
21529SOL    HW176646   7.620   3.427  10.038  0.3686  1.1888 -0.0378
21529SOL    HW276647   7.779   3.429  10.001  0.3415  1.0732 -0.1581
21530SOL     OW76648   7.108   8.714   6.992 -0.4154  0.1268  0.1198
21530SOL    HW176649   7.187   8.704   6.931 -0.8218  0.0342 -0.3946
21530SOL    HW276650   7.060   8.626   6.998 -1.2531  0.5324 -0.6253
21531SOL     OW76651   7.957   2.895   8.006 -0.2182  0.2085  0.2681
21531SOL    HW176652   7.887   2.825   8.023  0.1695 -0.3349 -0.3274
21531SOL    HW276653   8.044   2.850   7.984  0.3752  0.8800  1.2255
21532SOL     OW76654   1.541   3.868   4.248  0.6066 -0.2131 -0.3496
21532SOL    HW176655   1.517   3.774   4.222 -0.6779  0.3367 -1.2019
21532SOL    HW276656   1.460   3.914   4.285  0.8680  0.9958 -1.2525
21533SOL     OW76657   1.282   3.462   9.319 -0.2413  0.2673 -0.4609
21533SOL    HW176658   1.380   3.469   9.303 -0.1582  3.3653  0.9492
21533SOL    HW276659   1.265   3.443   9.416 -1.0466  1.4017 -0.3707
21534SOL     OW76660   5.132   4.100   7.674  0.1590  0.2519 -0.2698
21534SOL    HW176661   5.069   4.066   7.744 -0.2749  0.5806 -0.4932
21534SOL    HW276662   5.145   4.029   7.604  1.6632 -0.5834  0.8309
21535SOL     OW76663   0.488   8.991   9.231  0.0671 -0.3076  0.1223
21535SOL    HW176664   0.584   8.967   9.247  0.5197  0.7044 -0.9583
21535SOL    HW276665   0.452   9.036   9.312  0.6729 -0.2322  0.3574
21536SOL     OW76666   4.453   6.540   8.988 -0.6142  0.0151 -0.2097
21536SOL    HW176667   4.438   6.554   9.086  1.1039 -0.9369  0.1922
21536SOL    HW276668   4.364   6.535   8.942 -1.4364  1.4850  1.1317
21537SOL     OW76669   0.233   6.040   7.254 -0.1508  0.0115 -0.3947
21537SOL    HW176670   0.229   6.131   7.296 -0.1566  0.4184 -1.2654
21537SOL    HW276671   0.147   6.023   7.206 -0.9383 -1.2615  1.4017
21538SOL     OW76672   3.695   2.602   8.214 -0.8051 -0.1906 -0.5780
21538SOL    HW176673   3.655   2.628   8.302 -1.0598 -1.2047 -0.3758
21538SOL    HW276674   3.775   2.659   8.195 -0.7257  0.0159  0.3308
21539SOL     OW76675   4.911   1.491   7.100 -0.3502  0.4970 -0.2040
21539SOL    HW176676   4.901   1.394   7.078 -0.8934  0.5049  0.0045
21539SOL    HW276677   4.916   1.544   7.015 -0.7765  0.3590 -0.3137
21540SOL     OW76678   5.140   8.997   7.591  0.4220 -0.0412  0.5397
21540SOL    HW176679   5.097   9.085   7.573 -1.0631 -0.6642  0.9167
21540SOL    HW276680   5.239   9.006   7.585  0.3421  1.9392  1.8413
21541SOL     OW76681   2.959   7.735   8.634 -0.5490  0.7337 -0.4086
21541SOL    HW176682   2.888   7.716   8.703 -0.3929  0.9094 -0.1963
21541SOL    HW276683   3.017   7.810   8.667 -0.0901  0.3973 -0.4534
21542SOL     OW76684   2.122   6.801   8.542 -0.3806  0.6508 -0.9998
21542SOL    HW176685   2.202   6.742   8.553 -0.9819 -0.0116 -0.0223
21542SOL    HW276686   2.076   6.810   8.630 -0.4909  2.3236 -1.2246
21543SOL     OW76687   8.843   0.045   0.753  0.2385  0.3875 -0.1310
21543SOL    HW176688   8.818   0.032   0.657 -0.0916 -1.3439  0.1862
21543SOL    HW276689   8.931   0.093   0.758  0.9869 -0.8136 -1.3392
21544SOL     OW76690   7.075   7.034   1.874 -0.2953  0.4764 -1.1687
21544SOL    HW176691   7.089   7.130   1.852  0.0946  0.7198  0.0995
21544SOL    HW276692   7.151   7.001   1.930 -1.4172 -0.0316  0.0846
21545SOL     OW76693   0.725   5.019   9.244 -0.3217 -0.4273 -0.0937
21545SOL    HW176694   0.636   5.063   9.233  0.7333  1.4108 -1.4426
21545SOL    HW276695   0.787   5.080   9.292  0.5986 -1.1981 -0.2885
21546SOL     OW76696   9.751   0.213   4.199  0.1548 -0.3810 -0.5769
21546SOL    HW176697   9.847   0.189   4.186  0.2021 -1.2524  1.2029
21546SOL    HW276698   9.744   0.297   4.251 -0.0388 -0.7514  0.0044
21547SOL     OW76699   9.056   6.265   3.622  0.6588  0.2912  0.1498
21547SOL    HW176700   8.967   6.279   3.667  0.5280  1.3273 -0.3996
21547SOL    HW276701   9.076   6.168   3.617 -0.2258  0.0705  0.7223
21548SOL     OW76702   2.732   1.666   1.856  0.1331 -0.3574  0.3620
21548SOL    HW176703   2.758   1.569   1.861  0.4865 -0.3051 -0.4762
21548SOL    HW276704   2.638   1.676   1.889  0.3381 -0.8827  1.1242
21549SOL     OW76705   8.525   1.198   8.809  0.5846  0.4495 -0.0963
21549SOL    HW176706   8.568   1.226   8.723  0.8216 -1.9089 -0.7844
21549SOL    HW276707   8.450   1.135   8.790 -1.7984  2.7923  1.2371
21550SOL     OW76708   9.095   5.654   1.947  0.3298 -0.1825 -0.6364
21550SOL    HW176709   9.006   5.684   1.912  0.2046 -0.3500 -0.4634
21550SOL    HW276710   9.166   5.718   1.916 -0.0015  0.5555  0.1232
21551SOL     OW76711   2.837   5.815   8.233 -0.0020  0.2198  0.0916
21551SOL    HW176712   2.827   5.915   8.226  0.7183  0.1018 -3.8085
21551SOL    HW276713   2.923   5.794   8.280 -0.0775  1.4307  0.7997
21552SOL     OW76714   8.750   9.835   8.515  0.0955  0.4759 -0.7804
21552SOL    HW176715   8.766   9.908   8.581  0.9318  0.1748 -0.6367
21552SOL    HW276716   8.691   9.765   8.555  1.0890 -0.0037 -0.1331
21553SOL     OW76717   3.686   0.366   2.248 -0.0283  0.4087  0.3456
21553SOL    HW176718   3.595   0.395   2.279  0.0542  0.4231  0.5779
21553SOL    HW276719   3.704   0.274   2.281  0.8904  1.1908  2.1019
21554SOL     OW76720   3.670   4.387   1.730  0.3722  0.0883 -0.1996
21554SOL    HW176721   3.655   4.304   1.676  2.0149  0.5075 -1.3320
21554SOL    HW276722   3.619   4.462   1.689  1.3279  0.3229 -0.9780
21555SOL     OW76723   2.215   5.391   8.770  0.0112 -0.0092  0.0718
21555SOL    HW176724   2.225   5.342   8.856  0.0017 -0.6465 -0.2873
21555SOL    HW276725   2.305   5.399   8.725 -0.1339 -0.5047 -0.3087
21556SOL     OW76726   6.482   3.546   0.141 -0.0804  0.2320  1.2727
21556SOL    HW176727   6.425   3.627   0.154  0.1435  0.3150  1.7659
21556SOL    HW276728   6.540   3.533   0.222 -0.6441 -0.8358  1.5130
21557SOL     OW76729   5.515   1.663   0.754  0.1268 -0.8209 -0.5627
21557SOL    HW176730   5.530   1.637   0.658 -0.1347  0.0137 -0.8380
21557SOL    HW276731   5.521   1.582   0.812 -0.3554 -1.4398 -1.3642
21558SOL     OW76732   9.742   2.828   3.764 -0.2838 -0.5976  0.1997
21558SOL    HW176733   9.838   2.827   3.737 -0.5193 -0.5698 -0.6557
21558SOL    HW276734   9.714   2.736   3.792  0.2338 -0.4111  1.3330
21559SOL     OW76735   8.798   3.005   9.972 -0.7444  0.0425  0.1189
21559SOL    HW176736   8.825   3.077   9.908  1.2461 -1.3439 -0.6615
21559SOL    HW276737   8.745   2.936   9.923 -0.9621 -0.0024  0.4204
21560SOL     OW76738   9.774   8.243   8.865 -0.1312  0.0346  0.0526
21560SOL    HW176739   9.820   8.283   8.786  0.6596  1.2602  1.1058
21560SOL    HW276740   9.695   8.190   8.835  0.5953 -0.1365 -1.6049
21561SOL     OW76741   3.209   6.337   3.454 -0.0537  0.6091 -0.2257
21561SOL    HW176742   3.153   6.355   3.535 -2.2222  0.2276 -1.5993
21561SOL    HW276743   3.190   6.245   3.420  0.4894  0.9297 -1.4290
21562SOL     OW76744   8.795   3.899   0.146 -0.1776 -0.2357 -0.3297
21562SOL    HW176745   8.702   3.867   0.162 -0.6568 -0.8729 -3.9953
21562SOL    HW276746   8.800   3.997   0.163 -1.1399 -0.4413  1.2703
21563SOL     OW76747   4.061   3.946   1.193  0.3511 -0.3496 -0.0667
21563SOL    HW176748   4.101   3.971   1.281 -0.3188 -0.9082  0.3927
21563SOL    HW276749   4.030   3.851   1.195 -1.0824  0.1024 -0.3943
21564SOL     OW76750   5.828   5.495   9.488 -0.2143  0.1350 -0.2529
21564SOL    HW176751   5.850   5.398   9.486 -1.2862 -0.1568  1.1936
21564SOL    HW276752   5.912   5.548   9.502  0.3569 -0.5873 -0.9064
21565SOL     OW76753   0.974   8.806   9.377 -0.0842  0.2598 -0.2835
21565SOL    HW176754   1.065   8.841   9.400 -0.3592  0.5759  0.3577
21565SOL    HW276755   0.979   8.708   9.359  0.0706 -0.1257  1.6995
21566SOL     OW76756   5.019   5.755   0.438  0.3745  0.1357 -0.1773
21566SOL    HW176757   5.117   5.736   0.430  0.4757  0.7117 -0.3208
21566SOL    HW276758   4.998   5.776   0.533  0.3730 -0.0685 -0.1313
21567SOL     OW76759   9.180   7.620   5.611 -0.3213  0.2535 -0.1571
21567SOL    HW176760   9.202   7.526   5.633 -0.1891  0.2476 -0.3106
21567SOL    HW276761   9.221   7.644   5.523  1.7844  1.2235  1.0321
21568SOL     OW76762   0.161   2.603   2.183  0.2118  0.3388 -0.5806
21568SOL    HW176763   0.120   2.634   2.096  0.6329  1.2150 -0.4681
21568SOL    HW276764   0.108   2.525   2.218  0.7082 -0.7525 -2.1959
21569SOL     OW76765   9.189   1.560   8.902  0.0624 -0.3336 -0.0295
21569SOL    HW176766   9.090   1.549   8.915  0.0182  0.4507  0.3397
21569SOL    HW276767   9.235   1.554   8.990  0.2186  0.4712 -0.0478
21570SOL     OW76768   9.473   2.940   6.431  0.3707  0.3777  0.6708
21570SOL    HW176769   9.424   2.916   6.515  0.1088 -1.0969  0.1056
21570SOL    HW276770   9.409   2.978   6.364  0.1372 -0.6937  0.2700
21571SOL     OW76771   2.429   5.032   1.903 -0.2348 -0.0032  0.5580
21571SOL    HW176772   2.363   4.973   1.951 -1.8686 -0.0292 -1.6078
21571SOL    HW276773   2.379   5.100   1.849  1.4436 -0.7048 -2.0028
21572SOL     OW76774   7.077   8.299   2.076 -0.2533  0.1387 -0.1406
21572SOL    HW176775   6.989   8.317   2.032 -0.3591 -0.1807 -0.0584
21572SOL    HW276776   7.093   8.201   2.079 -0.6304  0.1130  1.2662
21573SOL     OW76777   0.514   3.531   2.871  0.2228 -0.2558 -0.3672
21573SOL    HW176778   0.415   3.528   2.853  0.1634 -0.2427 -0.0489
21573SOL    HW276779   0.543   3.445   2.913  0.1911  0.0602  0.3165
21574SOL     OW76780   2.834   8.310   2.613 -0.4324  0.0002  0.4678
21574SOL    HW176781   2.779   8.318   2.696 -0.4321  1.1258  0.3704
21574SOL    HW276782   2.787   8.355   2.537  0.7485  1.2957  0.4622
21575SOL     OW76783   9.314   3.879   4.794 -0.2256  0.2405 -0.8066
21575SOL    HW176784   9.394   3.933   4.819 -0.1721  0.9876 -2.5088
21575SOL    HW276785   9.289   3.819   4.870  2.4580 -0.6382 -0.5681
21576SOL     OW76786   7.710   6.196   8.685  0.2682  0.0543  0.3726
21576SOL    HW176787   7.778   6.267   8.666 -0.0054  0.3578  0.5189
21576SOL    HW276788   7.754   6.107   8.688  0.6962  0.2812  0.7192
21577SOL     OW76789   4.455   1.051   3.180 -0.0727 -0.1078  0.1168
21577SOL    HW176790   4.424   1.017   3.091 -0.3732  1.0609 -0.2251
21577SOL    HW276791   4.535   0.999   3.210  0.3700 -0.1220 -1.0935
21578SOL     OW76792   0.170   9.887   3.875  0.1894 -0.3038 -0.2096
21578SOL    HW176793   0.120   9.909   3.791 -1.5895  0.8709  1.1128
21578SOL    HW276794   0.152   9.792   3.899  1.3949 -0.9008 -1.6057
21579SOL     OW76795   2.836   7.137   1.873 -0.2990  0.2609 -0.3220
21579SOL    HW176796   2.853   7.086   1.957 -0.6696  0.5142 -0.0944
21579SOL    HW276797   2.758   7.197   1.885  0.5737  1.4239 -0.3458
21580SOL     OW76798   8.443   8.449   2.709 -0.2553  0.6000  0.2212
21580SOL    HW176799   8.485   8.359   2.696  2.2388  1.8445 -0.7765
21580SOL    HW276800   8.382   8.447   2.788  0.2953 -1.7817  0.6089
21581SOL     OW76801   2.881   4.698   0.071  0.3239  0.3465  0.1519
21581SOL    HW176802   2.891   4.696   0.170  0.3423  1.7183  0.1939
21581SOL    HW276803   2.876   4.793   0.040 -2.5602 -0.0839 -0.8600
21582SOL     OW76804   9.942   5.515   0.861 -0.3412  0.0908  0.2983
21582SOL    HW176805   9.880   5.441   0.834  0.3760 -0.7057  0.8149
21582SOL    HW276806   9.974   5.564   0.779  0.5057 -1.2514 -0.1856
21583SOL     OW76807   8.012   5.614   7.106 -0.3023  0.1240 -0.7193
21583SOL    HW176808   8.058   5.531   7.136 -0.7565 -0.3340 -1.2682
21583SOL    HW276809   8.072   5.666   7.045 -0.0856  0.1079 -0.5189
21584SOL     OW76810   5.216   2.708   5.212  0.4030 -0.3263 -0.2332
21584SOL    HW176811   5.250   2.628   5.262  1.6683  0.7466  0.6408
21584SOL    HW276812   5.197   2.681   5.117  2.1600 -1.3394 -0.3185
21585SOL     OW76813   3.455   2.717   1.064 -0.5673  0.3489 -0.0492
21585SOL    HW176814   3.438   2.619   1.080  0.6232  0.0706 -0.4669
21585SOL    HW276815   3.378   2.755   1.013 -1.1319 -0.3278  0.2825
21586SOL     OW76816   3.330   4.546   5.298 -0.0841 -0.0996 -0.5157
21586SOL    HW176817   3.297   4.636   5.270 -0.1540 -0.1665 -0.6489
21586SOL    HW276818   3.276   4.513   5.375 -0.1202 -0.0689 -0.5278
21587SOL     OW76819   3.950   9.480   6.979 -0.1103 -0.0528  0.1741
21587SOL    HW176820   3.881   9.529   7.032 -0.3258  0.6706 -0.7642
21587SOL    HW276821   3.919   9.470   6.884  0.0623 -1.7447  0.2805
21588SOL     OW76822   9.290   4.559   0.151  0.3781  0.2444 -0.2385
21588SOL    HW176823   9.286   4.495   0.074  0.4518  0.0527 -0.0827
21588SOL    HW276824   9.200   4.563   0.194  0.3866  0.2091 -0.2190
21589SOL     OW76825   2.123   2.608   4.555  0.6841 -0.3326 -0.3062
21589SOL    HW176826   2.151   2.542   4.624  0.0909 -0.2415  0.0203
21589SOL    HW276827   2.200   2.670   4.536  0.6106  0.1114  0.8216
21590SOL     OW76828   8.942   4.443   8.015  0.1873 -0.4841  0.3585
21590SOL    HW176829   8.905   4.413   7.927  0.4764  1.1644 -0.3347
21590SOL    HW276830   8.938   4.543   8.021  1.0253 -0.5223  1.8397
21591SOL     OW76831   4.978   9.028   6.299 -0.1210  0.1813 -0.2308
21591SOL    HW176832   4.930   9.097   6.244 -0.1386  0.3551 -0.0003
21591SOL    HW276833   4.949   9.036   6.395  0.2552  0.1880 -0.1162
21592SOL     OW76834   1.496   6.541   5.298  0.6378  0.2242 -0.5842
21592SOL    HW176835   1.412   6.510   5.255  1.3651 -1.4671 -0.8453
21592SOL    HW276836   1.565   6.468   5.292  2.4253  1.9105 -1.2385
21593SOL     OW76837   1.944   2.620   4.362 -0.0033  0.1728 -0.1701
21593SOL    HW176838   1.974   2.627   4.267 -1.8468 -2.9329 -1.0490
21593SOL    HW276839   2.023   2.601   4.421  1.0115  1.1714 -1.2002
21594SOL     OW76840   0.198   6.593   2.408  0.1208  0.1171  0.9721
21594SOL    HW176841   0.237   6.533   2.338  2.1269  0.2177  1.9674
21594SOL    HW276842   0.114   6.634   2.373 -0.7416 -2.4683 -0.1043
21595SOL     OW76843   6.668   9.182   4.374  0.4468 -0.2283  0.0261
21595SOL    HW176844   6.626   9.268   4.347  1.1242  0.2816  0.5803
21595SOL    HW276845   6.650   9.166   4.471  1.8852  0.2039  0.3702
21596SOL     OW76846   2.627   9.556   5.949  0.0433 -0.4610 -0.3015
21596SOL    HW176847   2.683   9.637   5.928 -1.4920  0.5942 -0.4326
21596SOL    HW276848   2.683   9.487   5.993  0.9841  1.4518  1.6052
21597SOL     OW76849   5.129   1.859   0.963  0.0828  0.1943 -0.3603
21597SOL    HW176850   5.220   1.867   0.922  0.5711 -1.1142  0.4320
21597SOL    HW276851   5.059   1.872   0.893  0.8621  2.0155 -0.8231
21598SOL     OW76852   3.209   2.383   5.851 -0.7458  0.0327 -0.2905
21598SOL    HW176853   3.243   2.290   5.835  0.2707  0.3959 -0.2597
21598SOL    HW276854   3.189   2.395   5.948  2.2905  0.8851  0.2685
21599SOL     OW76855   2.626   8.995   0.418  0.1893  0.3437  0.2328
21599SOL    HW176856   2.551   8.931   0.400  0.4501  0.4093 -1.1516
21599SOL    HW276857   2.647   8.994   0.516 -0.2643 -1.1782  0.3366
21600SOL     OW76858   1.559   8.485   6.226  0.1470  0.0852  0.0394
21600SOL    HW176859   1.575   8.566   6.284  1.0610  0.4508 -0.7210
21600SOL    HW276860   1.461   8.463   6.228 -0.1071  1.1667  0.3159
21601SOL     OW76861   1.195   6.900   5.114 -0.3192 -0.6581 -0.0380
21601SOL    HW176862   1.154   6.841   5.183 -1.6546 -0.7863 -0.9363
21601SOL    HW276863   1.133   6.977   5.095 -0.5811 -1.3521 -2.0745
21602SOL     OW76864   2.209   5.295   9.042  0.6180  0.2926 -0.0511
21602SOL    HW176865   2.264   5.366   9.085  2.6620 -1.2841  0.0261
21602SOL    HW276866   2.242   5.205   9.072 -0.5029 -0.7301 -1.8269
21603SOL     OW76867   7.886   6.368   8.787  0.1118  0.6443  0.3189
21603SOL    HW176868   7.962   6.362   8.852 -0.6968  0.6563  1.2760
21603SOL    HW276869   7.922   6.393   8.697  1.5348 -1.9001  0.1502
21604SOL     OW76870   8.197   4.057   6.314 -0.1394  0.1361 -0.5496
21604SOL    HW176871   8.226   4.113   6.392  0.6155  0.3207 -0.9586
21604SOL    HW276872   8.178   4.116   6.236 -0.0164 -0.1171 -0.7722
21605SOL     OW76873   7.004   8.223   5.014 -0.3657 -0.1045 -0.3598
21605SOL    HW176874   6.909   8.249   4.998 -0.4784 -0.7005 -0.6980
21605SOL    HW276875   7.064   8.283   4.963 -0.6288 -0.6040 -1.2680
21606SOL     OW76876   0.037   0.255   6.031  0.4252 -0.0902 -0.0017
21606SOL    HW176877   0.008   0.185   6.097  0.4350  0.5145  0.6427
21606SOL    HW276878   0.129   0.286   6.054  0.5548 -0.1056 -0.4943
21607SOL     OW76879   8.096   4.274   7.729  0.1196 -0.0852  0.8488
21607SOL    HW176880   8.044   4.252   7.646  0.3776 -0.8382  0.8835
21607SOL    HW276881   8.032   4.291   7.804 -0.0964 -1.0847  0.9102
21608SOL     OW76882   2.330   1.698   9.982  0.4424 -0.3930 -0.3996
21608SOL    HW176883   2.391   1.635  10.030 -1.5619 -2.4036 -0.3974
21608SOL    HW276884   2.261   1.733  10.045 -0.8733 -1.3437 -1.2716
21609SOL     OW76885   9.661   9.291   1.667 -0.5334 -0.0334 -0.0960
21609SOL    HW176886   9.637   9.235   1.747 -1.2542  0.3653 -0.0299
21609SOL    HW276887   9.614   9.379   1.673  0.2835  0.4274 -0.4039
21610SOL     OW76888   0.263   7.235   3.991 -0.4531  0.0424 -0.1010
21610SOL    HW176889   0.198   7.221   4.066 -0.5862 -1.8420 -0.5449
21610SOL    HW276890   0.250   7.164   3.922  1.3777  0.2836 -0.7121
21611SOL     OW76891   0.789   4.305   9.869  0.1664  1.0751 -0.0636
21611SOL    HW176892   0.696   4.269   9.880 -0.5964  3.1451  0.3562
21611SOL    HW276893   0.846   4.235   9.824 -1.2215 -0.7257  0.9006
21612SOL     OW76894   3.723   9.593   8.821  0.0975 -0.2459 -0.1994
21612SOL    HW176895   3.696   9.658   8.749  0.4300 -0.1868 -0.2698
21612SOL    HW276896   3.710   9.636   8.911  0.2859 -0.0939 -0.2448
21613SOL     OW76897   2.494   0.473   7.980  0.4788  0.4104 -0.2812
21613SOL    HW176898   2.531   0.392   7.933 -2.2960 -0.5874 -0.8658
21613SOL    HW276899   2.468   0.542   7.912  1.7465  1.3144  0.1488
21614SOL     OW76900   4.324   8.865   4.386  0.1502 -0.0099  0.5766
21614SOL    HW176901   4.391   8.868   4.313 -0.1398  2.1465  0.3445
21614SOL    HW276902   4.240   8.821   4.354 -0.0932  1.2243 -0.5129
21615SOL     OW76903   9.530   1.921   9.586  0.1638  0.1964 -0.0885
21615SOL    HW176904   9.487   1.941   9.498 -0.9901  1.6061  0.7528
21615SOL    HW276905   9.600   1.990   9.605  0.1977  0.0733  0.2319
21616SOL     OW76906   4.091   9.925   5.545 -0.9925  0.3800 -0.2056
21616SOL    HW176907   4.106   9.999   5.609 -0.5090  1.0639 -1.0952
21616SOL    HW276908   4.017   9.950   5.482 -0.0847  0.5924 -1.2093
21617SOL     OW76909   2.625   3.822   1.484 -0.0460 -0.0192 -0.2508
21617SOL    HW176910   2.529   3.847   1.493 -0.8154 -2.5018 -0.9975
21617SOL    HW276911   2.657   3.781   1.570 -0.1391 -0.6786 -0.5261
21618SOL     OW76912   3.827   9.311   5.435  0.1390  0.5818 -0.0110
21618SOL    HW176913   3.822   9.214   5.409 -0.8557  0.3025  1.1798
21618SOL    HW276914   3.915   9.329   5.479 -0.4291 -0.2291  1.4890
21619SOL     OW76915   8.165   2.203   8.287  0.4824  0.4841 -0.0317
21619SOL    HW176916   8.082   2.254   8.307  0.0124 -0.5936  0.8012
21619SOL    HW276917   8.153   2.151   8.202  0.4358  0.5875 -0.0894
21620SOL     OW76918   3.207   9.669   2.509  0.0179  0.7505 -0.0048
21620SOL    HW176919   3.132   9.675   2.444  0.0346  0.6494 -0.0332
21620SOL    HW276920   3.284   9.723   2.477  0.4771 -0.2868 -0.6791
21621SOL     OW76921   6.859   2.788   3.328  0.2585  0.5793 -0.2304
21621SOL    HW176922   6.814   2.855   3.269 -1.3003 -1.2669 -1.1954
21621SOL    HW276923   6.958   2.795   3.318  0.0343  0.7741 -2.5683
21622SOL     OW76924   5.385   0.639   3.911  0.5510  0.2827 -0.3098
21622SOL    HW176925   5.409   0.549   3.873 -0.0252  0.5397 -1.2894
21622SOL    HW276926   5.469   0.688   3.936  0.8469 -0.8713  1.0715
21623SOL     OW76927   6.275   8.057   2.442 -0.2184 -0.4716 -0.9603
21623SOL    HW176928   6.359   8.075   2.492  0.0631 -2.7344 -0.5726
21623SOL    HW276929   6.202   8.117   2.476  0.4146 -0.7591  0.9114
21624SOL     OW76930   1.602   0.168   4.143 -0.0685  0.4784 -0.0930
21624SOL    HW176931   1.579   0.079   4.104 -0.8435  0.3814  0.5664
21624SOL    HW276932   1.644   0.226   4.072  1.1757 -0.6749 -0.3140
21625SOL     OW76933   8.255   9.003   3.141  0.3725  0.1963 -0.6577
21625SOL    HW176934   8.292   9.045   3.224 -1.9228  2.1995 -0.6045
21625SOL    HW276935   8.310   9.030   3.063  1.3675 -0.0960 -0.0709
21626SOL     OW76936   9.448   9.719   6.867 -0.2799 -0.5593  0.6902
21626SOL    HW176937   9.397   9.793   6.912 -0.4098 -1.7441  2.5452
21626SOL    HW276938   9.540   9.752   6.845 -0.3882  0.2180  1.3561
21627SOL     OW76939   2.677   6.681   4.531 -0.1237  0.1478  0.2810
21627SOL    HW176940   2.719   6.595   4.561  0.7765  0.0178 -1.3015
21627SOL    HW276941   2.748   6.741   4.494 -0.7040  1.7058  1.6690
21628SOL     OW76942   7.766   2.345   4.112  0.0619  0.0424  0.0541
21628SOL    HW176943   7.713   2.263   4.135  0.1087  0.7333  2.8936
21628SOL    HW276944   7.716   2.398   4.044 -0.6891 -1.5995 -0.7202
21629SOL     OW76945   7.528   5.792   1.806  0.1080  0.2010 -0.2976
21629SOL    HW176946   7.567   5.817   1.717  1.6722 -0.7934  0.0992
21629SOL    HW276947   7.532   5.693   1.817 -0.8772  0.2445  0.5389
21630SOL     OW76948   2.666   5.292   0.992 -0.2504  0.5497  0.0429
21630SOL    HW176949   2.660   5.370   1.055  1.5957  2.4926 -2.1342
21630SOL    HW276950   2.613   5.311   0.910  1.1506 -0.0011 -0.9981
21631SOL     OW76951   9.437   8.510   9.537  0.3657  0.2600 -0.2068
21631SOL    HW176952   9.429   8.526   9.438 -1.2861  0.6751 -0.0217
21631SOL    HW276953   9.505   8.439   9.554  1.6284  1.1095 -1.5631
21632SOL     OW76954   9.618   5.154   1.453 -0.8461 -0.4514 -0.4721
21632SOL    HW176955   9.594   5.071   1.502 -1.0224 -1.3458 -2.0547
21632SOL    HW276956   9.557   5.228   1.480  1.6316  0.2055  3.7334
21633SOL     OW76957   9.514   7.153   0.370 -0.0240  0.2809 -0.1754
21633SOL    HW176958   9.490   7.119   0.279 -0.8661 -0.8564  0.4647
21633SOL    HW276959   9.603   7.197   0.366  0.1695 -0.1984 -1.4461
21634SOL     OW76960   1.500   4.090   0.523 -0.3909 -0.7107 -0.0244
21634SOL    HW176961   1.518   4.045   0.611 -0.7262 -0.6459  0.0781
21634SOL    HW276962   1.570   4.063   0.457 -0.2709 -0.9449  0.1975
21635SOL     OW76963   3.176   6.189   1.015  0.1099  0.5623  0.5008
21635SOL    HW176964   3.230   6.138   0.947 -1.5107  0.7678 -0.9685
21635SOL    HW276965   3.134   6.124   1.078 -0.0378  0.2349  0.0716
21636SOL     OW76966   4.271   3.259   7.312 -0.4887 -0.1542  0.2406
21636SOL    HW176967   4.196   3.256   7.246 -1.5679  2.5250  1.2551
21636SOL    HW276968   4.319   3.171   7.313 -1.7495 -0.9207 -2.5675
21637SOL     OW76969   1.920   4.944   9.025  0.0121 -0.2654  0.1607
21637SOL    HW176970   2.013   4.929   8.990 -0.2906 -1.7295 -0.0458
21637SOL    HW276971   1.901   5.042   9.028  1.8422  0.0877  0.9200
21638SOL     OW76972   9.171   0.109   4.995  0.1670 -0.2583 -0.0743
21638SOL    HW176973   9.168   0.207   4.975  2.9461  0.0293  0.7205
21638SOL    HW276974   9.127   0.091   5.083 -0.5940  0.2256 -0.3541
21639SOL     OW76975   4.741   9.091   1.573  0.3635 -0.0016  0.5617
21639SOL    HW176976   4.705   9.174   1.532 -1.0777 -0.9832 -0.2117
21639SOL    HW276977   4.669   9.045   1.626  1.3149 -0.4302  1.5166
21640SOL     OW76978   9.718   9.932   8.784 -0.1483  0.1245  0.4865
21640SOL    HW176979   9.652  10.006   8.776  1.5865  1.6970  0.4165
21640SOL    HW276980   9.795   9.961   8.842  0.1635 -1.9094  1.1663
21641SOL     OW76981   9.578   9.808   9.841  0.1264  0.0634  0.0583
21641SOL    HW176982   9.596   9.888   9.784  0.0308  0.4113  0.5114
21641SOL    HW276983   9.526   9.836   9.922  0.4131 -0.3923  0.4022
21642SOL     OW76984   9.721   6.250   5.809 -0.2054  0.2314 -0.2700
21642SOL    HW176985   9.637   6.304   5.808 -1.3461 -1.4661  1.1674
21642SOL    HW276986   9.699   6.153   5.800  1.6661 -0.1640 -0.7557
21643SOL     OW76987   4.656   7.046   0.032  0.1045  0.0482  0.2766
21643SOL    HW176988   4.641   7.055  -0.066  1.4868  3.1329  0.3060
21643SOL    HW276989   4.614   7.123   0.080  1.0537 -0.4207  1.9161
21644SOL     OW76990   2.414   1.010   6.310  0.5596  0.6143  0.2023
21644SOL    HW176991   2.330   1.016   6.364 -0.1521  0.6011 -0.8765
21644SOL    HW276992   2.488   1.055   6.359  0.7356 -2.2125  2.7032
21645SOL     OW76993   6.829   1.384   5.001  0.0879 -0.2371  0.5238
21645SOL    HW176994   6.924   1.415   5.004  0.0815 -0.1136 -0.3165
21645SOL    HW276995   6.788   1.414   4.915 -0.2291 -1.6882  0.1655
21646SOL     OW76996   8.331   6.427   7.285  0.0596  0.9528 -0.3823
21646SOL    HW176997   8.428   6.412   7.300 -0.2481 -0.1508  0.5153
21646SOL    HW276998   8.281   6.419   7.372 -1.1489 -0.9956 -1.2129
21647SOL     OW76999   6.982   2.777   0.395  0.3159 -0.1367 -0.0325
21647SOL    HW177000   7.022   2.766   0.304 -0.1315 -1.1006 -0.1230
21647SOL    HW277001   6.986   2.690   0.444  1.2635  0.5611  1.1707
21648SOL     OW77002   4.704   9.823   8.943 -0.8477 -0.2048  0.4203
21648SOL    HW177003   4.778   9.857   8.885 -1.9697 -1.2900 -1.7284
21648SOL    HW277004   4.678   9.894   9.009  1.2189  0.6424  0.3567
21649SOL     OW77005   3.798   2.661   5.318  0.1206 -0.1103 -0.1722
21649SOL    HW177006   3.733   2.725   5.277  0.0638 -0.4786 -0.6654
21649SOL    HW277007   3.806   2.580   5.260  0.7347 -0.2332  0.0807
21650SOL     OW77008   1.723   9.216   8.511 -0.4196 -0.1794 -0.0055
21650SOL    HW177009   1.716   9.230   8.412 -3.0991  0.2995  0.2097
21650SOL    HW277010   1.686   9.126   8.534  0.5311 -0.4296  0.5196
21651SOL     OW77011   1.682   0.591   6.826  0.0349 -0.4955  0.7824
21651SOL    HW177012   1.649   0.673   6.875 -1.3518 -1.6115  1.7578
21651SOL    HW277013   1.607   0.526   6.815  0.7272 -0.9575 -1.4694
21652SOL     OW77014   1.587   6.833   2.566  0.8206  0.2666 -0.1036
21652SOL    HW177015   1.597   6.917   2.512  2.6187  0.1859  0.0714
21652SOL    HW277016   1.620   6.849   2.659 -1.0261  0.0175  0.6080
21653SOL     OW77017   6.505   5.049   9.530 -0.7881  0.1188  0.5168
21653SOL    HW177018   6.479   4.969   9.474 -0.3615  0.6467 -0.4424
21653SOL    HW277019   6.603   5.066   9.520 -0.6763  0.0956  1.5976
21654SOL     OW77020   9.757   9.177   7.622  0.8222 -0.0510  0.1633
21654SOL    HW177021   9.770   9.160   7.719  0.6653  2.4085  0.6511
21654SOL    HW277022   9.693   9.253   7.610  1.1542 -0.0679 -1.8605
21655SOL     OW77023   6.507   4.043   9.715 -0.3713 -0.2337 -0.0159
21655SOL    HW177024   6.605   4.055   9.729 -0.6317  0.5127  1.2495
21655SOL    HW277025   6.485   4.054   9.618  0.5572  1.2917 -0.0733
21656SOL     OW77026   8.535   0.071   8.920 -0.2557 -0.3870  0.0361
21656SOL    HW177027   8.542  -0.026   8.897 -0.0692 -1.0000  2.4942
21656SOL    HW277028   8.624   0.115   8.907 -0.8151 -0.0476 -3.0146
21657SOL     OW77029   4.498   3.160   1.413 -0.2226  0.0628 -0.0879
21657SOL    HW177030   4.539   3.242   1.453  2.6437 -0.5809 -1.5656
21657SOL    HW277031   4.474   3.178   1.318 -1.4859 -0.2088  0.1713
21658SOL     OW77032   8.831   2.703   6.251  0.3382  0.2531  0.2841
21658SOL    HW177033   8.802   2.725   6.344 -1.0885 -0.2646 -0.0144
21658SOL    HW277034   8.750   2.699   6.191  1.1019 -0.6134 -0.7181
21659SOL     OW77035   4.345   8.126   2.510 -1.3807  0.6125  0.1296
21659SOL    HW177036   4.297   8.038   2.515 -0.3075 -0.0562 -1.0135
21659SOL    HW277037   4.375   8.142   2.416 -0.9708  1.8867  0.4713
21660SOL     OW77038   7.816   6.094   3.754  0.2749 -0.1498 -0.0391
21660SOL    HW177039   7.888   6.094   3.685 -0.9108  0.1004 -1.3117
21660SOL    HW277040   7.733   6.052   3.716 -0.7643  1.0645  0.8122
21661SOL     OW77041   4.813   4.297   2.177  0.4633  0.1322  0.4839
21661SOL    HW177042   4.907   4.262   2.180  0.6240  0.5512  0.5798
21661SOL    HW277043   4.761   4.259   2.254 -0.2814 -2.3378 -1.1856
21662SOL     OW77044   7.525   1.347   6.400 -0.2626  0.1225  0.1979
21662SOL    HW177045   7.448   1.310   6.452 -1.7565  2.0753 -0.5606
21662SOL    HW277046   7.498   1.358   6.304  1.1487  0.2845 -0.1842
21663SOL     OW77047   9.857   9.570   1.484  0.2796  0.1831 -0.3578
21663SOL    HW177048   9.919   9.645   1.509  1.4060 -1.0048  0.5061
21663SOL    HW277049   9.901   9.512   1.415 -0.4845  0.1689 -0.8395
21664SOL     OW77050   2.300   5.966   8.359  0.2267 -0.5671 -0.7270
21664SOL    HW177051   2.204   5.947   8.338 -0.2967 -0.3004  1.3423
21664SOL    HW277052   2.327   6.051   8.314 -0.6948 -0.3010 -0.7944
21665SOL     OW77053   9.047   8.650   6.966  0.2463 -0.0252 -0.6995
21665SOL    HW177054   9.102   8.578   7.007  0.8409  0.8285  0.0064
21665SOL    HW277055   8.950   8.635   6.989  0.4516 -0.1622  0.0899
21666SOL     OW77056   4.979   0.377   5.802  0.1068  0.6656 -0.6559
21666SOL    HW177057   5.040   0.338   5.871 -0.1029  2.4096  0.5438
21666SOL    HW277058   4.884   0.354   5.823  0.1475 -0.0653 -1.2236
21667SOL     OW77059   8.131   9.234   3.588 -0.3870 -0.1013  0.0456
21667SOL    HW177060   8.039   9.254   3.554  0.7605  1.2758 -2.4205
21667SOL    HW277061   8.172   9.162   3.533  0.2072 -0.3331  0.7853
21668SOL     OW77062   3.243   5.662   1.823  0.2010 -0.1553 -0.2051
21668SOL    HW177063   3.150   5.696   1.840  0.4059  1.1818 -1.5638
21668SOL    HW277064   3.306   5.709   1.884  0.6026  2.7274 -2.6983
21669SOL     OW77065   9.441   7.615   0.662 -0.2246  0.6144  0.2175
21669SOL    HW177066   9.448   7.621   0.762  0.6205 -0.2015  0.2208
21669SOL    HW277067   9.522   7.656   0.621  0.0457 -0.2014 -0.0818
21670SOL     OW77068   8.932   2.373   1.471 -0.2364  0.8390 -0.1888
21670SOL    HW177069   9.018   2.413   1.500 -0.9669  2.8766 -0.7697
21670SOL    HW277070   8.949   2.306   1.399  0.8654  1.1244 -0.1964
21671SOL     OW77071   1.851   4.196   2.503 -0.1578 -0.0321 -0.3363
21671SOL    HW177072   1.933   4.230   2.457 -1.4343 -0.7148 -3.2094
21671SOL    HW277073   1.783   4.269   2.509 -0.3071 -0.1770 -0.2577
21672SOL     OW77074   7.719   7.252   2.644  0.7320 -0.0286  0.3755
21672SOL    HW177075   7.639   7.238   2.587 -0.0172 -0.7245  1.5867
21672SOL    HW277076   7.706   7.332   2.702  2.4844  2.1334 -2.1247
21673SOL     OW77077   1.248   6.330   1.382 -0.2763  0.0595 -0.2182
21673SOL    HW177078   1.205   6.420   1.393  0.2632  0.3012 -0.0701
21673SOL    HW277079   1.347   6.342   1.373 -0.4441 -0.3228 -2.8059
21674SOL     OW77080   3.212   0.550   5.169  0.1702  0.5658  0.3572
21674SOL    HW177081   3.132   0.521   5.118 -0.6764  1.6839  1.0209
21674SOL    HW277082   3.186   0.573   5.262  0.9877  2.2957  0.1893
21675SOL     OW77083   1.125   6.752   5.357 -0.4219 -0.3945 -0.3346
21675SOL    HW177084   1.092   6.822   5.421  0.5052  0.0824 -0.3558
21675SOL    HW277085   1.219   6.727   5.382 -0.7867 -1.7013 -0.2788
21676SOL     OW77086   7.075   5.011   9.577  0.2898  0.2741 -0.1610
21676SOL    HW177087   7.058   4.938   9.644  2.1996  0.4588  0.5840
21676SOL    HW277088   7.029   5.094   9.606  0.6172  0.1864  0.6230
21677SOL     OW77089   1.546   4.757   4.934 -0.2406 -0.1120 -0.5854
21677SOL    HW177090   1.632   4.807   4.924 -0.1081 -0.4266 -1.0925
21677SOL    HW277091   1.566   4.662   4.959 -0.4603 -0.0667 -0.2401
21678SOL     OW77092   7.598   8.551   8.234 -0.6257 -0.3812 -0.0099
21678SOL    HW177093   7.681   8.501   8.260 -1.3544 -2.0562 -0.8553
21678SOL    HW277094   7.517   8.499   8.262 -1.4458  1.8681  2.0444
21679SOL     OW77095   8.102   2.087   8.618  0.3530  0.1254  0.4424
21679SOL    HW177096   8.126   2.134   8.533  0.7574  0.5147  0.7683
21679SOL    HW277097   8.150   1.999   8.622  0.9451  0.4574  0.6316
21680SOL     OW77098   0.782   5.924   6.983  0.2516 -0.2447  0.3692
21680SOL    HW177099   0.837   5.973   6.915  0.1085 -0.4018  0.1429
21680SOL    HW277100   0.733   5.990   7.040 -0.9265 -0.1408 -0.7385
21681SOL     OW77101   2.351   8.149   8.257 -0.4774 -0.0977 -0.2766
21681SOL    HW177102   2.402   8.197   8.328 -0.7562  0.3710 -0.3933
21681SOL    HW277103   2.415   8.101   8.197 -0.3386 -3.3714  2.2875
21682SOL     OW77104   7.792   7.978   3.611  0.5427  0.1035 -0.9831
21682SOL    HW177105   7.847   7.921   3.549 -0.1873  0.9448 -2.4222
21682SOL    HW277106   7.711   8.011   3.563 -1.5649 -1.5652  1.2758
21683SOL     OW77107   4.213   9.027   0.074 -0.2314 -0.0551 -0.2366
21683SOL    HW177108   4.139   9.042   0.009 -0.7699  0.0899  0.3972
21683SOL    HW277109   4.201   9.089   0.152 -0.6574 -1.5400  0.8912
21684SOL     OW77110   3.000   9.093   4.465 -0.1632 -0.0417 -0.0651
21684SOL    HW177111   2.995   9.172   4.404  0.9259 -0.9260 -1.3372
21684SOL    HW277112   3.096   9.069   4.480 -0.4966 -1.4744 -0.1699
21685SOL     OW77113   2.077   4.990   9.294  0.0121 -0.3936  0.2776
21685SOL    HW177114   2.168   5.024   9.314 -0.4463  1.2877 -0.4612
21685SOL    HW277115   2.030   5.053   9.232 -2.0593 -0.6629  1.5247
21686SOL     OW77116   6.116   0.722   2.376 -0.3983 -0.6738  0.4483
21686SOL    HW177117   6.034   0.669   2.397 -0.2765 -1.3119 -0.6008
21686SOL    HW277118   6.097   0.785   2.301  0.1390 -1.0706 -0.0399
21687SOL     OW77119   1.044   0.045   2.604  0.2581 -0.2827  0.2399
21687SOL    HW177120   0.983   0.020   2.530  1.0597 -0.7864 -0.2634
21687SOL    HW277121   1.125  -0.014   2.602 -0.1703 -1.0050  2.1416
21688SOL     OW77122   7.879   8.307   8.566 -0.1475 -0.9939  0.5557
21688SOL    HW177123   7.827   8.348   8.642  1.8173  0.5671  1.0920
21688SOL    HW277124   7.976   8.331   8.575  0.5474 -3.0817 -0.9507
21689SOL     OW77125   7.957   4.393   7.357 -0.3632 -0.3779 -0.3844
21689SOL    HW177126   7.899   4.472   7.378  0.2553 -0.1102  0.3436
21689SOL    HW277127   7.943   4.366   7.262 -0.3427  0.8017 -0.7337
21690SOL     OW77128   2.306   7.898   0.631 -0.3557  0.8631  0.2627
21690SOL    HW177129   2.327   7.963   0.558 -0.4828  0.9985  0.3482
21690SOL    HW277130   2.367   7.819   0.623 -0.5396  0.7612 -0.1402
21691SOL     OW77131   4.165   9.908   6.280  0.3528  0.5141 -0.1013
21691SOL    HW177132   4.125   9.884   6.192 -1.3407 -0.0142  0.7820
21691SOL    HW277133   4.167   9.826   6.338 -0.4352  1.2898  1.0445
21692SOL     OW77134   5.832   0.404   4.169 -0.3169  0.4842 -0.1422
21692SOL    HW177135   5.789   0.470   4.107 -2.4054 -1.0827 -0.4485
21692SOL    HW277136   5.762   0.340   4.201  1.7126 -1.8176 -0.1755
21693SOL     OW77137  -0.001   6.129   9.153 -0.0387 -0.2593  0.5206
21693SOL    HW177138  -0.042   6.182   9.228  0.5681 -2.5203  2.5399
21693SOL    HW277139   0.094   6.157   9.140 -0.5740  1.1557 -0.4158
21694SOL     OW77140   6.142   5.762   8.241  0.3003  0.5196  0.1692
21694SOL    HW177141   6.225   5.815   8.257  0.0468  0.5001  1.5835
21694SOL    HW277142   6.080   5.771   8.319 -1.1529  0.7417 -0.9633
21695SOL     OW77143   4.256   4.867   0.832  0.1409  0.1089  0.3660
21695SOL    HW177144   4.196   4.944   0.855 -1.0774 -0.4825 -0.7274
21695SOL    HW277145   4.241   4.793   0.897  0.6908  0.4738  0.9102
21696SOL     OW77146   8.711   1.483   9.917  0.8410 -0.0313  0.4587
21696SOL    HW177147   8.804   1.513   9.897  0.4325 -0.7587 -2.7766
21696SOL    HW277148   8.700   1.474  10.016  3.3510  2.6661  1.0604
21697SOL     OW77149   5.460   5.125   7.820  0.1320  0.0026 -0.7196
21697SOL    HW177150   5.495   5.041   7.863 -1.8469 -2.0450 -2.9536
21697SOL    HW277151   5.360   5.124   7.823  0.0445  1.2145 -2.7723
21698SOL     OW77152   2.116   1.115   4.983 -0.5671 -0.0641 -0.3071
21698SOL    HW177153   2.084   1.070   4.900  0.8873 -0.9066 -0.4275
21698SOL    HW277154   2.093   1.212   4.980  0.7725  0.2046 -2.3746
21699SOL     OW77155   6.236   4.379   9.711 -0.0961 -0.2541  0.0750
21699SOL    HW177156   6.308   4.378   9.642 -0.6235  0.2224 -0.4840
21699SOL    HW277157   6.189   4.467   9.709 -1.9061 -1.2128 -0.8227
21700SOL     OW77158   0.959   7.939   8.873 -0.1299 -0.0690  0.3010
21700SOL    HW177159   1.056   7.954   8.853 -0.4338  0.4757 -0.8233
21700SOL    HW277160   0.931   8.000   8.947 -0.3388  1.9932 -1.4277
21701SOL     OW77161   3.587   3.365   9.045  0.1095 -0.3543  0.1284
21701SOL    HW177162   3.680   3.403   9.041 -0.5012  0.9840 -2.0724
21701SOL    HW277163   3.555   3.344   8.953 -1.6380 -1.1634  0.9006
21702SOL     OW77164   6.884   2.009   1.441  0.2458 -0.1487 -0.1302
21702SOL    HW177165   6.788   2.038   1.436 -0.2811 -1.7169  0.6880
21702SOL    HW277166   6.912   2.005   1.537  1.7478  2.2079 -0.4232
21703SOL     OW77167   4.775   9.445   7.334 -0.2484 -0.2666 -0.0584
21703SOL    HW177168   4.711   9.411   7.403 -0.1581 -2.2334 -0.8980
21703SOL    HW277169   4.849   9.378   7.321  0.9576  1.1129 -0.4516
21704SOL     OW77170   0.318   9.687   9.345  0.0869 -0.3226 -0.4364
21704SOL    HW177171   0.301   9.704   9.248 -0.1851  2.2242  0.0376
21704SOL    HW277172   0.326   9.774   9.394  2.2369 -1.5486  1.4877
21705SOL     OW77173   0.494   7.845   0.435  0.2970 -0.0643  0.5565
21705SOL    HW177174   0.414   7.903   0.425  0.1188 -0.4526 -0.2539
21705SOL    HW277175   0.517   7.837   0.532  0.0812  1.0234  0.7046
21706SOL     OW77176   9.389   5.171   1.782  0.2819 -0.1374 -0.0551
21706SOL    HW177177   9.481   5.134   1.765 -0.0773 -0.0310 -2.4328
21706SOL    HW277178   9.321   5.099   1.765 -0.1763  0.3617 -0.3323
21707SOL     OW77179   7.549   6.169   2.032  0.1800  0.6189 -0.3884
21707SOL    HW177180   7.449   6.174   2.033  0.0427 -1.5746 -1.6338
21707SOL    HW277181   7.583   6.216   1.950  0.0555 -0.1924 -0.9141
21708SOL     OW77182   0.702   1.403   9.528 -0.6081 -1.1182 -0.6495
21708SOL    HW177183   0.669   1.308   9.531 -0.9872 -1.0016 -1.2745
21708SOL    HW277184   0.635   1.461   9.482 -0.7231 -0.3968  0.4099
21709SOL     OW77185   2.017   7.465   1.003 -0.4310  0.0780  0.1297
21709SOL    HW177186   2.026   7.561   1.031 -1.1091 -0.3793  1.9827
21709SOL    HW277187   1.926   7.450   0.964 -0.8283 -0.1110  1.1139
21710SOL     OW77188   3.798   6.357   8.014  0.6180 -0.6624 -0.4043
21710SOL    HW177189   3.873   6.346   7.948  0.5506 -1.7565 -0.3066
21710SOL    HW277190   3.767   6.267   8.043 -1.1312 -0.2269 -0.8808
21711SOL     OW77191   0.759   5.198   2.665 -0.4790 -0.4559  0.1167
21711SOL    HW177192   0.737   5.295   2.653 -0.8083 -0.4424  0.8212
21711SOL    HW277193   0.849   5.190   2.708 -1.9197 -0.3781  3.2843
21712SOL     OW77194   1.766   7.196   6.428 -0.0429  0.0876 -0.1436
21712SOL    HW177195   1.716   7.176   6.344 -1.1013 -0.2133  0.5590
21712SOL    HW277196   1.773   7.295   6.439 -0.6542  0.1319 -0.1439
21713SOL     OW77197   2.570   1.680   9.559 -0.2665  0.6128 -0.0041
21713SOL    HW177198   2.545   1.621   9.482  0.3765 -1.3062  1.2139
21713SOL    HW277199   2.630   1.752   9.527 -0.2074 -0.0164 -1.3565
21714SOL     OW77200   8.943   3.584   3.686  0.1307 -0.1411  0.0347
21714SOL    HW177201   8.870   3.649   3.665 -0.5760 -0.9664 -0.1051
21714SOL    HW277202   9.011   3.627   3.744 -0.4791  0.6344  0.1777
21715SOL     OW77203   7.601   2.922   1.191  0.0459  0.3301 -0.3975
21715SOL    HW177204   7.684   2.922   1.136 -0.1249 -0.3884 -0.6609
21715SOL    HW277205   7.539   2.993   1.158 -0.0211 -0.0464 -1.0950
21716SOL     OW77206   8.315   3.047   9.201 -0.0049 -0.4152 -0.2152
21716SOL    HW177207   8.377   3.112   9.157 -0.0285 -0.7186 -0.7008
21716SOL    HW277208   8.349   3.025   9.293 -0.2769  0.6774  0.1467
21717SOL     OW77209   2.903   2.169   5.394  0.4994 -0.6071  0.6335
21717SOL    HW177210   3.001   2.171   5.411  0.6908 -3.3851  0.1522
21717SOL    HW277211   2.854   2.178   5.481  1.2296 -1.2330  1.1194
21718SOL     OW77212   0.204   0.255   2.663  0.1716  0.0760 -0.4708
21718SOL    HW177213   0.182   0.161   2.634  1.3325 -0.0371 -1.0516
21718SOL    HW277214   0.270   0.294   2.599 -0.8759  1.5726 -0.6533
21719SOL     OW77215   3.254   5.366   9.460  0.1051 -0.1942 -0.1321
21719SOL    HW177216   3.216   5.441   9.514 -0.6033 -2.0009  1.9357
21719SOL    HW277217   3.353   5.363   9.471  0.2569  1.1261 -1.1211
21720SOL     OW77218   7.500   0.947   3.351  0.4713 -0.1006 -0.1011
21720SOL    HW177219   7.514   1.040   3.316  0.5025 -0.0120  0.1455
21720SOL    HW277220   7.471   0.887   3.276  1.3186 -0.0938 -0.4433
21721SOL     OW77221   3.680   2.491   8.796 -0.6176 -0.3307  0.1450
21721SOL    HW177222   3.691   2.430   8.874  0.9072  0.9042  0.8999
21721SOL    HW277223   3.584   2.520   8.790 -0.8820 -0.9683  1.1329
21722SOL     OW77224   5.160   0.759   9.305  0.3340  0.6310 -0.2098
21722SOL    HW177225   5.209   0.804   9.380 -1.6729  3.9280 -0.8141
21722SOL    HW277226   5.194   0.792   9.218  0.7471 -1.1632 -0.7590
21723SOL     OW77227   5.579   8.525   4.199  0.5423  0.2125 -0.0450
21723SOL    HW177228   5.564   8.565   4.109  2.4471  1.6848  0.2666
21723SOL    HW277229   5.527   8.576   4.267  2.3403  1.6842  0.2421
21724SOL     OW77230   9.820   4.219   1.593 -0.2726  0.2336 -0.1561
21724SOL    HW177231   9.776   4.182   1.675 -1.4066 -2.5555 -1.9454
21724SOL    HW277232   9.919   4.210   1.601 -0.3015  1.2085  1.4494
21725SOL     OW77233   2.117   8.138   7.752 -0.0777  0.1290 -0.9251
21725SOL    HW177234   2.131   8.146   7.653  1.4600  0.7103 -0.6732
21725SOL    HW277235   2.202   8.106   7.794 -0.4112  0.9197  0.3427
21726SOL     OW77236   7.858   2.814   4.145 -0.0513 -0.2384  0.4918
21726SOL    HW177237   7.917   2.778   4.073 -0.6701  0.5273 -0.4180
21726SOL    HW277238   7.765   2.780   4.132 -0.2598  0.2635  0.6548
21727SOL     OW77239   9.622   5.826   5.364  0.5864  0.1957 -0.0698
21727SOL    HW177240   9.628   5.785   5.455  1.2891  0.5360  0.0356
21727SOL    HW277241   9.652   5.921   5.368  0.5491  0.2329 -0.6431
21728SOL     OW77242   5.343   8.458   1.771 -0.5437  0.5605 -0.4432
21728SOL    HW177243   5.321   8.466   1.674  0.2478  0.0738 -0.6651
21728SOL    HW277244   5.301   8.375   1.808  0.0879  0.1490 -0.6377
21729SOL     OW77245   7.270   5.489   9.717  0.9111 -0.2929 -0.0832
21729SOL    HW177246   7.246   5.403   9.763 -2.1359  0.6354  0.2030
21729SOL    HW277247   7.337   5.539   9.772 -0.8329 -0.3457  2.1486
21730SOL     OW77248   5.132   5.886   9.619 -0.3246  0.4756 -0.6604
21730SOL    HW177249   5.198   5.891   9.694 -0.4707  0.5036 -0.5355
21730SOL    HW277250   5.135   5.972   9.567  0.7541 -0.0522 -1.5061
21731SOL     OW77251   7.076   8.989   7.522  0.3394  0.2274  0.0304
21731SOL    HW177252   6.993   9.008   7.574  0.6819  1.4841  0.1281
21731SOL    HW277253   7.055   8.985   7.425 -0.1458 -1.2613  0.1815
21732SOL     OW77254   9.650   4.622   9.484 -0.4511  0.1500 -0.2510
21732SOL    HW177255   9.731   4.650   9.433 -0.1471  1.0690  0.7103
21732SOL    HW277256   9.673   4.613   9.581 -0.9642 -1.8221 -0.2943
21733SOL     OW77257   0.710   8.894   9.332 -0.5391  0.1038 -0.1779
21733SOL    HW177258   0.655   8.810   9.325 -0.7261  0.1774  0.4431
21733SOL    HW277259   0.803   8.870   9.360  0.2445 -0.2028 -2.8682
21734SOL     OW77260   0.037   7.747   3.593  0.3272  0.0990  0.3161
21734SOL    HW177261   0.048   7.683   3.518 -0.3595 -0.1314  0.4102
21734SOL    HW277262   0.123   7.796   3.608  0.3809  0.3453 -0.7938
21735SOL     OW77263   2.074   7.744   7.644  0.2026 -0.6139 -0.0059
21735SOL    HW177264   2.004   7.804   7.682 -0.6925 -0.5918 -1.6435
21735SOL    HW277265   2.130   7.707   7.718 -1.7917 -0.9508  1.3831
21736SOL     OW77266   2.911   2.994   9.251 -0.1060 -0.2299  0.0164
21736SOL    HW177267   2.852   3.069   9.282  1.8580  0.3314  2.5574
21736SOL    HW277268   2.924   2.929   9.326  1.3397 -1.0847 -0.9669
21737SOL     OW77269   6.962   5.151   7.266 -0.1161 -0.2728 -0.2388
21737SOL    HW177270   6.874   5.164   7.312 -0.6639 -0.6663 -1.1498
21737SOL    HW277271   6.955   5.184   7.172  0.5785 -0.6960 -0.4427
21738SOL     OW77272   7.308   0.081   0.731  0.4422  0.7303 -0.6365
21738SOL    HW177273   7.241   0.152   0.749 -0.5336 -0.0528 -1.1312
21738SOL    HW277274   7.276  -0.007   0.767  1.2670  0.3820 -0.7264
21739SOL     OW77275   0.754   5.027   9.875  0.3010 -0.1500 -0.2012
21739SOL    HW177276   0.747   4.945   9.932  0.0855  1.8679  2.7552
21739SOL    HW277277   0.662   5.058   9.850  0.3609 -0.4888 -0.8372
21740SOL     OW77278   7.296   9.692   3.880 -0.1333  0.5969 -0.0320
21740SOL    HW177279   7.309   9.788   3.858  0.6410  0.5270  0.1081
21740SOL    HW277280   7.341   9.635   3.811  0.6391  0.3545  0.6612
21741SOL     OW77281   2.681   9.555   2.379  0.1382  0.3631 -0.7335
21741SOL    HW177282   2.684   9.477   2.441 -0.1491  0.4521 -0.6052
21741SOL    HW277283   2.700   9.639   2.429 -0.2138  0.4487 -0.7351
21742SOL     OW77284   8.805   9.236   1.374 -0.7577 -0.1899  0.2160
21742SOL    HW177285   8.870   9.279   1.438  1.0711  0.0238 -1.7187
21742SOL    HW277286   8.777   9.148   1.410  1.8122 -0.9828  0.4204
21743SOL     OW77287   8.801   2.955   2.657  0.2554  0.1791 -0.2891
21743SOL    HW177288   8.851   3.021   2.601 -0.4681  1.0475  0.0747
21743SOL    HW277289   8.717   2.929   2.609 -0.0634  0.4592  0.1219
21744SOL     OW77290   8.186   8.210   4.355 -0.1665 -0.6243 -0.3058
21744SOL    HW177291   8.149   8.296   4.391 -2.0124 -0.9226 -1.4156
21744SOL    HW277292   8.177   8.138   4.425  1.3264  0.0523  0.5995
21745SOL     OW77293   2.110   7.620   8.413 -0.1892  0.0900 -0.4652
21745SOL    HW177294   2.032   7.570   8.374  0.3801 -1.5567  0.4523
21745SOL    HW277295   2.171   7.648   8.339 -0.8830  0.0739 -1.0562
21746SOL     OW77296   1.670   0.162   1.050 -0.2768 -0.3381  0.0803
21746SOL    HW177297   1.766   0.147   1.025 -1.0072 -0.3589 -2.9674
21746SOL    HW277298   1.660   0.158   1.149  2.9111 -0.1058  0.4671
21747SOL     OW77299   5.213   9.908   7.436  0.1495 -0.3312  0.1143
21747SOL    HW177300   5.220   9.877   7.341  0.1271  0.4760 -0.1568
21747SOL    HW277301   5.236  10.005   7.441 -2.9988  0.4513  0.4227
21748SOL     OW77302   2.128   2.696   1.529 -0.3843  0.3311  0.4888
21748SOL    HW177303   2.171   2.627   1.588  0.7807 -0.0848 -0.8201
21748SOL    HW277304   2.143   2.671   1.434 -1.2258  1.6406  0.0141
21749SOL     OW77305   8.873   0.212   0.106 -0.2251 -0.0571  0.2291
21749SOL    HW177306   8.951   0.230   0.046 -0.1997  1.1183  0.6003
21749SOL    HW277307   8.790   0.200   0.051 -0.0695  0.2999 -0.0817
21750SOL     OW77308   7.112   3.697   9.828  0.2838  0.8088 -0.3885
21750SOL    HW177309   7.156   3.626   9.774  0.1532  0.4094  0.0310
21750SOL    HW277310   7.128   3.681   9.925  0.5186  1.5275 -0.3033
21751SOL     OW77311   1.416   3.838   2.374  0.3570  0.3345 -0.2007
21751SOL    HW177312   1.399   3.827   2.472 -2.3921 -0.2411 -0.7049
21751SOL    HW277313   1.366   3.767   2.324 -0.1733  2.0570 -2.1703
21752SOL     OW77314   0.495   3.726   9.442  0.5801  0.8806 -0.0806
21752SOL    HW177315   0.466   3.791   9.372  0.1415  0.2357 -0.5036
21752SOL    HW277316   0.568   3.668   9.406 -0.7940 -0.5749 -0.6037
21753SOL     OW77317   1.896   2.771   0.009  0.2279  0.2400  1.0855
21753SOL    HW177318   1.872   2.860  -0.030  0.9292  0.9366  2.2140
21753SOL    HW277319   1.843   2.755   0.092 -0.5131 -0.7842  0.4295
21754SOL     OW77320   8.677   7.970   7.424 -0.3881 -0.3576  0.4426
21754SOL    HW177321   8.581   7.951   7.442 -0.3495 -3.2712 -1.8613
21754SOL    HW277322   8.696   7.954   7.327  2.5769 -0.5976  1.0143
21755SOL     OW77323   9.808   6.338   8.447 -0.4467 -0.4893  0.3078
21755SOL    HW177324   9.902   6.318   8.476 -0.5603  0.9432  1.7539
21755SOL    HW277325   9.808   6.420   8.390 -0.6974 -1.0943 -0.5631
21756SOL     OW77326   0.683   9.827   0.043  0.1711  0.5799 -0.1619
21756SOL    HW177327   0.587   9.827   0.072  0.3255 -4.3735  0.8143
21756SOL    HW277328   0.740   9.856   0.120 -0.3292  0.2589  0.3380
21757SOL     OW77329   4.953   7.431   2.475  0.1842  0.1521 -0.5035
21757SOL    HW177330   4.954   7.531   2.484 -0.9559  0.0917  0.3507
21757SOL    HW277331   5.044   7.400   2.449  1.3245  1.1658  2.0798
21758SOL     OW77332   2.583   9.343   4.920 -0.3358 -0.2372  0.0548
21758SOL    HW177333   2.633   9.392   4.849 -0.6465 -1.1476 -0.8112
21758SOL    HW277334   2.510   9.402   4.957  0.5386  0.6313  0.4210
21759SOL     OW77335   0.218   7.869   7.619 -0.4240 -0.8025 -0.5638
21759SOL    HW177336   0.195   7.919   7.702 -0.9882  0.6000 -1.5340
21759SOL    HW277337   0.158   7.790   7.609 -1.4529 -0.0448 -0.4682
21760SOL     OW77338   6.677   0.316   6.542  0.0562  0.1870 -0.1174
21760SOL    HW177339   6.653   0.230   6.497  0.3670 -0.7489  1.4906
21760SOL    HW277340   6.732   0.372   6.479  0.1407 -0.9222 -1.0441
21761SOL     OW77341   2.106   7.402   9.692 -0.5191 -0.1039  0.0573
21761SOL    HW177342   2.079   7.415   9.596 -1.0358 -2.1846 -0.0999
21761SOL    HW277343   2.037   7.443   9.752 -2.2887 -2.2795 -0.4137
21762SOL     OW77344   3.043   4.746   1.149 -0.4338  0.1760 -0.2816
21762SOL    HW177345   2.981   4.736   1.071 -1.1884 -0.3687  0.3906
21762SOL    HW277346   3.043   4.663   1.203  1.1263  0.0572 -0.4355
21763SOL     OW77347   5.902   1.343   0.904 -0.2770 -0.2615  0.4799
21763SOL    HW177348   5.917   1.416   0.837 -1.5283 -1.0015 -0.6216
21763SOL    HW277349   5.815   1.359   0.951  0.1988 -0.1983  1.3452
21764SOL     OW77350   0.292   9.430   8.743  0.1225  0.3383  0.0551
21764SOL    HW177351   0.282   9.514   8.690  1.0468 -0.7887 -1.9545
21764SOL    HW277352   0.204   9.406   8.784 -0.5868  1.2561 -0.8958
21765SOL     OW77353   9.645   8.861   7.885 -0.2505 -0.0858  0.0793
21765SOL    HW177354   9.663   8.779   7.830 -0.5256  0.1810 -0.4116
21765SOL    HW277355   9.555   8.898   7.860  0.6957  1.4744 -1.1021
21766SOL     OW77356   4.000   3.239   5.506  0.0512 -0.2451  0.1284
21766SOL    HW177357   4.082   3.182   5.500  0.7481  0.6795  0.6251
21766SOL    HW277358   4.016   3.324   5.455 -1.4649 -1.0448 -1.7581
21767SOL     OW77359   1.884   1.999   1.987  0.2101  0.1981  0.6050
21767SOL    HW177360   1.894   1.931   2.060  1.1144 -1.4314 -1.0120
21767SOL    HW277361   1.800   1.982   1.936  0.9936 -0.3995 -0.4989
21768SOL     OW77362   1.793   6.575   4.300  0.3856 -0.0200 -0.3427
21768SOL    HW177363   1.892   6.578   4.314 -0.0439  1.9199  2.7569
21768SOL    HW277364   1.752   6.511   4.364 -0.5596  0.5811 -0.3402
21769SOL     OW77365   2.898   7.905   0.033 -0.2080 -0.3784 -0.2500
21769SOL    HW177366   2.871   7.979  -0.028 -2.4583 -1.5977 -0.8111
21769SOL    HW277367   2.971   7.851  -0.009 -0.0322  0.2643 -0.7636
21770SOL     OW77368   1.313   1.516   6.284 -0.1108  0.4467  0.1522
21770SOL    HW177369   1.337   1.533   6.379  0.4756  1.5210 -0.1803
21770SOL    HW277370   1.215   1.498   6.276 -0.0719 -0.1824  1.0216
21771SOL     OW77371   1.237   4.989   2.389  0.4260 -0.2516  0.3197
21771SOL    HW177372   1.257   4.902   2.435 -1.3765 -1.4553 -1.0534
21771SOL    HW277373   1.138   4.995   2.373  0.6689  1.5831 -0.5428
21772SOL     OW77374   2.745   4.134   6.875 -0.4098 -0.0904 -0.3013
21772SOL    HW177375   2.686   4.116   6.953 -0.2933 -1.3713 -0.5035
21772SOL    HW277376   2.830   4.082   6.883  0.2081  0.8595 -0.5799
21773SOL     OW77377   2.408   1.836   1.490 -0.0605 -0.0158 -0.3578
21773SOL    HW177378   2.501   1.815   1.458 -0.3138 -1.6812 -0.0313
21773SOL    HW277379   2.341   1.790   1.431 -0.6485  0.3146  0.0482
21774SOL     OW77380   3.476   3.273   3.591 -0.3583 -0.1976 -0.1742
21774SOL    HW177381   3.428   3.267   3.504  0.3587 -1.0455 -0.5134
21774SOL    HW277382   3.515   3.365   3.601 -0.2082 -0.1811 -0.8742
21775SOL     OW77383   9.890   2.230   7.032  0.0970 -0.4566  0.6524
21775SOL    HW177384   9.989   2.222   7.049  0.2879 -0.0632 -0.2677
21775SOL    HW277385   9.874   2.245   6.935 -0.7774  0.9855  1.0021
21776SOL     OW77386   8.719   8.861   4.464 -0.2411  0.3962 -0.0118
21776SOL    HW177387   8.631   8.897   4.432  0.3186 -0.2249 -2.3403
21776SOL    HW277388   8.715   8.761   4.467 -0.1156  0.4255  1.4375
21777SOL     OW77389   8.712   3.974   0.466 -0.1194  0.6112  0.1625
21777SOL    HW177390   8.680   3.987   0.560  2.1839 -2.6382  1.4904
21777SOL    HW277391   8.644   3.921   0.415 -1.0856  1.8492  0.1331
21778SOL     OW77392   7.341   1.390   0.551  0.8456  0.5054  0.4181
21778SOL    HW177393   7.264   1.442   0.589 -0.1263 -0.9086  0.4337
21778SOL    HW277394   7.399   1.357   0.625 -0.7805 -1.8374  0.6976
21779SOL     OW77395   1.366   6.683   6.860 -0.3586 -0.1987  0.0360
21779SOL    HW177396   1.366   6.585   6.879  0.2179  0.0720  1.4746
21779SOL    HW277397   1.309   6.730   6.927  1.4681  0.7407  0.9713
21780SOL     OW77398   0.717   1.205   1.659 -0.1971  0.2713  0.5143
21780SOL    HW177399   0.771   1.137   1.611 -0.7848  0.7926 -0.9205
21780SOL    HW277400   0.668   1.162   1.735  1.2306 -0.4375  1.0312
21781SOL     OW77401   1.864   8.821   2.077 -0.1777 -0.1536  0.0170
21781SOL    HW177402   1.868   8.745   2.141 -0.3276 -0.4154 -0.2814
21781SOL    HW277403   1.778   8.870   2.089  0.3716  0.5930  0.9148
21782SOL     OW77404   1.819   6.995   8.411 -0.1104 -0.2158  0.0160
21782SOL    HW177405   1.776   6.910   8.381 -0.6423 -0.1214  0.4861
21782SOL    HW277406   1.803   7.007   8.509  0.6362  0.0373  0.1068
21783SOL     OW77407   2.580   4.469   6.145  0.2482 -0.2802  0.3699
21783SOL    HW177408   2.528   4.552   6.162  1.3677  0.5389 -0.1397
21783SOL    HW277409   2.591   4.455   6.047  0.2079 -0.9399  0.4543
21784SOL     OW77410   0.646   4.272   5.698 -0.4085  0.9900  0.1997
21784SOL    HW177411   0.740   4.301   5.716  0.1357  1.7276 -3.4516
21784SOL    HW277412   0.646   4.180   5.659 -1.1028  1.4282 -0.8480
21785SOL     OW77413   7.685   4.590   1.612  0.1903 -0.6377  0.0886
21785SOL    HW177414   7.705   4.527   1.687  0.7446  0.0339  0.5194
21785SOL    HW277415   7.763   4.596   1.551 -0.0672 -0.7886 -0.2574
21786SOL     OW77416   3.816   7.960   1.540  0.4595 -0.4825 -0.3044
21786SOL    HW177417   3.832   7.935   1.635  2.1870 -3.5853 -1.3330
21786SOL    HW277418   3.729   7.921   1.509 -1.0318  2.0934  0.4637
21787SOL     OW77419   1.162   1.949   4.497 -0.1757 -0.2105  0.1585
21787SOL    HW177420   1.078   1.939   4.444  0.1052  3.1630 -1.0469
21787SOL    HW277421   1.148   2.015   4.570  1.3829  0.2141  0.0823
21788SOL     OW77422   7.714   1.458   8.510  0.0193 -0.3430  0.0669
21788SOL    HW177423   7.792   1.396   8.507  0.0156 -0.3856  0.6910
21788SOL    HW277424   7.671   1.453   8.601 -1.1217 -0.8340 -0.4862
21789SOL     OW77425   0.455   1.980   6.920 -0.4343  0.0590  0.2170
21789SOL    HW177426   0.368   1.944   6.885 -1.4172  1.0049  1.6309
21789SOL    HW277427   0.509   1.905   6.957 -1.8003 -0.1941  1.7418
21790SOL     OW77428   1.581   4.240   3.442  0.4049 -0.1296  0.0307
21790SOL    HW177429   1.574   4.283   3.352 -1.4815 -0.4898 -0.0097
21790SOL    HW277430   1.603   4.309   3.511  2.4116  0.0655 -0.7570
21791SOL     OW77431   9.517   0.386   3.537 -0.2269  0.1354 -1.2748
21791SOL    HW177432   9.551   0.449   3.607 -0.3231 -1.1872 -0.0240
21791SOL    HW277433   9.533   0.426   3.446  0.3242  1.6537 -0.5276
21792SOL     OW77434   0.108   6.057   2.633 -0.1573  0.1516  0.0058
21792SOL    HW177435   0.179   5.994   2.600  0.1374  0.6289 -0.2836
21792SOL    HW277436   0.132   6.089   2.725  0.4198  0.9426 -0.4170
21793SOL     OW77437   2.206   5.815   4.425  0.0621 -0.6801  0.1583
21793SOL    HW177438   2.239   5.869   4.502  0.4368  0.7391 -0.9814
21793SOL    HW277439   2.195   5.719   4.454  0.9288 -0.3194  1.7509
21794SOL     OW77440   5.223   7.961   6.133  0.1250  0.5771 -0.0964
21794SOL    HW177441   5.218   7.879   6.190  0.3149 -0.0921 -1.0353
21794SOL    HW277442   5.163   8.031   6.171  0.9770  0.4740  1.4758
21795SOL     OW77443   0.598   8.316   8.602  0.3714 -0.3564 -0.1951
21795SOL    HW177444   0.557   8.404   8.625 -0.7427 -1.1653  0.9579
21795SOL    HW277445   0.697   8.320   8.617  0.0608  0.0723  1.8833
21796SOL     OW77446   1.460   5.749   0.378  0.3544  0.4504  0.1979
21796SOL    HW177447   1.422   5.657   0.388  0.1782  0.6436  1.4273
21796SOL    HW277448   1.507   5.757   0.290  0.9913 -1.0391  0.3876
21797SOL     OW77449   2.597   1.819   4.049 -0.0714 -0.1204  0.4079
21797SOL    HW177450   2.603   1.875   3.966 -0.1095 -0.8981 -0.1203
21797SOL    HW277451   2.510   1.770   4.050  0.3859 -0.9516  0.3638
21798SOL     OW77452   1.691   3.677   2.928  0.3299  0.5225  0.5114
21798SOL    HW177453   1.780   3.715   2.952  1.4594 -1.1598 -0.8854
21798SOL    HW277454   1.703   3.599   2.867 -2.2836  2.4379 -2.5870
21799SOL     OW77455   8.255   7.125   8.247 -0.1108 -0.3498 -0.2914
21799SOL    HW177456   8.346   7.090   8.270 -1.0783 -0.6298  3.4272
21799SOL    HW277457   8.191   7.049   8.240 -0.7069  0.0911  0.3247
21800SOL     OW77458   9.656   6.673   2.468  0.1111 -1.3959 -0.4616
21800SOL    HW177459   9.636   6.658   2.371  1.0672  0.4164 -0.9537
21800SOL    HW277460   9.755   6.667   2.483 -0.0113 -1.4302  0.3728
21801SOL     OW77461   8.447   5.907   2.454 -0.1281 -0.1415 -0.2011
21801SOL    HW177462   8.401   5.985   2.496 -0.9523 -1.8558  2.2422
21801SOL    HW277463   8.384   5.861   2.391 -0.2135  0.2008 -0.3636
21802SOL     OW77464   6.341   5.629   7.925 -0.2959 -0.0316  0.0667
21802SOL    HW177465   6.422   5.574   7.904 -0.3288 -0.0691  0.0393
21802SOL    HW277466   6.357   5.723   7.896  0.3095  0.2938  1.4203
21803SOL     OW77467   5.901   0.411   7.456  0.1512  0.2187 -0.0693
21803SOL    HW177468   5.868   0.428   7.549 -2.2761 -0.0628 -0.8234
21803SOL    HW277469   5.822   0.407   7.394  1.6636 -0.6003 -1.9714
21804SOL     OW77470   0.043   3.626   7.873 -1.0088  0.1298 -0.2504
21804SOL    HW177471  -0.045   3.617   7.826  0.1770  0.7591 -2.6117
21804SOL    HW277472   0.058   3.722   7.898 -1.2479 -0.0705  0.6880
21805SOL     OW77473   9.536   9.409   5.677 -0.2129 -0.5630 -0.6007
21805SOL    HW177474   9.438   9.405   5.662 -0.7526  0.2055  2.4252
21805SOL    HW277475   9.572   9.317   5.690 -1.1290 -0.6242  1.6458
21806SOL     OW77476   3.867   0.793   3.774  0.8033 -0.5141  0.4086
21806SOL    HW177477   3.965   0.774   3.773  0.7935 -0.5545  0.1659
21806SOL    HW277478   3.817   0.708   3.794  0.7316 -0.8812 -1.2117
21807SOL     OW77479   9.931   0.309   3.073  0.4393  0.1061 -0.1417
21807SOL    HW177480   9.832   0.315   3.078  0.4088 -1.0146  0.5994
21807SOL    HW277481   9.958   0.274   2.983  0.2033  1.1523 -0.6259
21808SOL     OW77482   9.543   0.861   3.783 -0.4974  0.3986 -0.9781
21808SOL    HW177483   9.571   0.916   3.704  1.2110  1.7657  0.5455
21808SOL    HW277484   9.530   0.920   3.862 -0.0013 -1.2257  0.3445
21809SOL     OW77485   6.918   6.139   4.750 -0.5849  0.4852  0.2329
21809SOL    HW177486   6.915   6.238   4.760  1.6347  0.5578  0.3411
21809SOL    HW277487   6.878   6.113   4.662  0.3228  1.5994 -0.5255
21810SOL     OW77488   7.879   8.566   2.485  0.5062  0.1862  0.2737
21810SOL    HW177489   7.943   8.491   2.471 -0.3120 -0.4773  0.0640
21810SOL    HW277490   7.915   8.649   2.443  1.7863  0.1062  1.2051
21811SOL     OW77491   7.904   3.068   4.289 -0.0414 -0.2348 -0.6032
21811SOL    HW177492   7.995   3.079   4.329  0.8411 -0.8553 -2.3785
21811SOL    HW277493   7.889   2.971   4.267 -2.7829 -0.8497  3.4371
21812SOL     OW77494   6.394   2.587   3.316  0.3827  0.2644  0.0525
21812SOL    HW177495   6.383   2.586   3.216  0.7049  0.3546  0.0161
21812SOL    HW277496   6.304   2.579   3.359  0.2476  0.1648 -0.2452
21813SOL     OW77497   4.405   4.303   2.516 -0.1121 -0.4314  0.3954
21813SOL    HW177498   4.345   4.301   2.436 -1.1959  0.6773  1.1725
21813SOL    HW277499   4.379   4.231   2.580 -1.6139  0.9874  1.4257
21814SOL     OW77500   8.904   9.938   7.073  0.3286  0.3664 -0.3020
21814SOL    HW177501   8.973   9.914   7.004  1.1746  0.9487  0.3310
21814SOL    HW277502   8.853  10.018   7.041  1.2476  1.1223  0.0774
21815SOL     OW77503   1.069   6.696  10.053 -0.3314  0.3009 -0.3353
21815SOL    HW177504   1.066   6.710  10.152 -2.0360 -2.3354  0.0413
21815SOL    HW277505   1.160   6.663  10.027 -0.3769 -0.6237  0.6254
21816SOL     OW77506   2.957   0.176   1.383 -0.1934  0.5105  0.0332
21816SOL    HW177507   2.950   0.084   1.421 -1.8940  1.2333  1.5790
21816SOL    HW277508   2.947   0.172   1.283  0.1557 -1.0067  0.0467
21817SOL     OW77509   3.989   9.081   1.533  0.2515  0.4944  0.0664
21817SOL    HW177510   3.894   9.090   1.564  0.3100  0.4961  0.2446
21817SOL    HW277511   4.033   9.171   1.533 -0.3463  0.8072 -1.9474
21818SOL     OW77512   0.885   3.099   6.029  0.1850  0.6862 -0.0289
21818SOL    HW177513   0.819   3.159   6.074 -0.5528 -0.6788  0.7127
21818SOL    HW277514   0.965   3.087   6.088 -0.1716  0.0259  0.3289
21819SOL     OW77515   2.979   1.364   6.259 -0.3163  0.5643 -0.1555
21819SOL    HW177516   3.039   1.284   6.268 -0.8225  0.0384 -1.3091
21819SOL    HW277517   3.033   1.444   6.232 -0.2597 -0.1619 -2.3061
21820SOL     OW77518   2.808   0.006   3.066  1.0657 -0.3708  0.0937
21820SOL    HW177519   2.727   0.019   3.123  1.8429 -1.1013  1.3874
21820SOL    HW277520   2.864   0.089   3.068  0.0269  0.3646 -1.3228
21821SOL     OW77521   3.206   3.185   2.262  0.4167  0.1762  0.4888
21821SOL    HW177522   3.123   3.241   2.261  0.5225  0.3550  1.2367
21821SOL    HW277523   3.279   3.236   2.308  1.3071  0.5385 -1.2998
21822SOL     OW77524   0.949   0.347   2.985  0.1940  0.3082 -0.3706
21822SOL    HW177525   0.995   0.284   3.048  1.6817  1.0184 -0.7127
21822SOL    HW277526   0.894   0.412   3.037  0.8997  0.4886  0.1620
21823SOL     OW77527   0.087   3.079   8.505 -0.0138 -0.2514 -0.2052
21823SOL    HW177528   0.119   3.041   8.592 -1.5878  0.7016  0.7948
21823SOL    HW277529   0.086   3.006   8.436  1.4139 -0.9705  0.5097
21824SOL     OW77530   2.668   4.140   0.733 -0.5695 -0.0226  0.3055
21824SOL    HW177531   2.724   4.102   0.659  1.2299  0.9353  1.1338
21824SOL    HW277532   2.603   4.071   0.764  0.0134 -1.1098 -0.8203
21825SOL     OW77533   3.099   2.741   2.006 -0.1529 -0.5831 -0.0919
21825SOL    HW177534   3.061   2.817   1.954  0.1638 -0.5687 -0.3039
21825SOL    HW277535   3.052   2.734   2.094 -0.9364 -0.8337 -0.5249
21826SOL     OW77536   2.112   8.680   2.446  0.6715 -0.2479  0.3270
21826SOL    HW177537   2.113   8.660   2.544  0.5991 -1.8638  0.0167
21826SOL    HW277538   2.131   8.777   2.431 -0.2181  0.1998  1.9802
21827SOL     OW77539   3.356   8.559   0.025 -0.0934 -0.0830 -0.0429
21827SOL    HW177540   3.285   8.488   0.028 -0.8031  0.5881 -0.7651
21827SOL    HW277541   3.436   8.522  -0.022 -0.0851 -0.7359  0.4688
21828SOL     OW77542   2.024   7.955   3.775  0.4047  0.5916  0.0425
21828SOL    HW177543   2.087   8.022   3.737 -0.7030  1.3397 -0.5012
21828SOL    HW277544   1.974   7.910   3.701 -0.2986  0.6080  0.4986
21829SOL     OW77545   1.017   3.978   8.521 -0.3476  0.8845 -0.0271
21829SOL    HW177546   0.984   3.991   8.614  1.6147  1.7006  0.5864
21829SOL    HW277547   1.026   3.881   8.501 -1.5578  0.6925  0.3379
21830SOL     OW77548   5.415   0.606   4.420 -0.3466 -0.5980  0.0962
21830SOL    HW177549   5.508   0.624   4.451 -0.0558 -0.0661 -1.0956
21830SOL    HW277550   5.398   0.507   4.421  0.4967 -0.7482 -0.5028
21831SOL     OW77551   9.744   7.296   1.574  0.1461  0.3431  0.2891
21831SOL    HW177552   9.656   7.259   1.543  0.6797  0.8781 -1.9854
21831SOL    HW277553   9.751   7.392   1.544  2.4444 -0.3606 -1.5723
21832SOL     OW77554   5.157   6.240   1.560 -0.0505  0.4916 -0.0803
21832SOL    HW177555   5.221   6.225   1.635 -0.0350  0.1809 -0.1560
21832SOL    HW277556   5.194   6.200   1.476 -0.0533  0.8681 -0.2622
21833SOL     OW77557   5.533   8.180   2.842  0.3544 -0.3636 -0.2400
21833SOL    HW177558   5.618   8.230   2.857  0.0731 -0.5259  2.0756
21833SOL    HW277559   5.553   8.092   2.799  1.0177  0.9337 -2.6583
21834SOL     OW77560   9.002   0.967   2.299 -0.4050  0.7775 -0.7936
21834SOL    HW177561   9.091   0.922   2.300 -0.4725  0.6413  0.2080
21834SOL    HW277562   8.931   0.900   2.278 -0.7888 -0.2046  3.1482
21835SOL     OW77563   7.313   1.761   1.129  0.2080  0.8796 -0.5498
21835SOL    HW177564   7.347   1.770   1.222  2.4061 -1.2915 -1.0564
21835SOL    HW277565   7.368   1.818   1.068 -0.0011  0.8683 -0.7493
21836SOL     OW77566   9.989   7.577   3.335  0.4383 -0.4453  0.3737
21836SOL    HW177567  10.003   7.496   3.391 -0.8397 -1.0743 -0.2094
21836SOL    HW277568   9.963   7.550   3.242  3.7477  0.5411 -0.9330
21837SOL     OW77569   2.336   9.962   2.387 -0.0202  0.0358  0.2572
21837SOL    HW177570   2.332   9.979   2.289 -0.6116  1.1283  0.4649
21837SOL    HW277571   2.278   9.883   2.410 -2.5867  1.8284  0.1669
21838SOL     OW77572   8.740   7.904   5.814  0.0232  0.5518 -0.0859
21838SOL    HW177573   8.654   7.862   5.845  0.4708 -0.3219 -0.0248
21838SOL    HW277574   8.815   7.840   5.826  0.0946 -0.1466 -3.6999
21839SOL     OW77575   7.912   3.304   0.667  0.2380  0.1576  0.5558
21839SOL    HW177576   7.865   3.391   0.648 -1.5977 -1.0220 -0.3930
21839SOL    HW277577   7.937   3.301   0.764 -1.8441  0.7544  1.1483
21840SOL     OW77578   6.152   9.502   1.845  0.4202  0.2298 -0.5834
21840SOL    HW177579   6.212   9.430   1.880  0.4923  1.4500  1.9253
21840SOL    HW277580   6.077   9.461   1.793 -0.4240 -1.7965  2.1081
21841SOL     OW77581   9.875   5.906   8.268 -0.0576  0.4087 -0.7799
21841SOL    HW177582   9.925   5.962   8.202 -0.4148  0.5760 -0.9121
21841SOL    HW277583   9.904   5.811   8.259  2.5709  0.9567  1.3597
21842SOL     OW77584   0.143   0.124   1.828 -0.1492  0.0311  0.3250
21842SOL    HW177585   0.152   0.217   1.863 -0.3430  0.1487  0.0658
21842SOL    HW277586   0.118   0.062   1.902  0.7645  0.0533  0.6470
21843SOL     OW77587   5.036   1.301   1.211 -0.0679  0.1707  0.1109
21843SOL    HW177588   4.962   1.317   1.276  0.7548  0.3022  1.0399
21843SOL    HW277589   5.103   1.374   1.218 -1.0000  1.2960 -2.4065
21844SOL     OW77590   5.161   6.840   2.930 -0.1409  0.0524  0.3709
21844SOL    HW177591   5.214   6.755   2.926  1.3540  0.9425  0.7100
21844SOL    HW277592   5.087   6.829   2.996  0.0181 -0.9986  0.3923
21845SOL     OW77593   2.452   1.400   1.211  0.5840 -0.2401 -0.2010
21845SOL    HW177594   2.484   1.358   1.296 -2.1184  1.3956  1.6928
21845SOL    HW277595   2.400   1.333   1.158  1.6956 -1.0666 -0.2639
21846SOL     OW77596   2.603   8.602   1.776 -0.5915 -0.2407 -0.3646
21846SOL    HW177597   2.624   8.631   1.869 -1.3391  1.6096 -0.7568
21846SOL    HW277598   2.565   8.678   1.725 -2.9129 -2.0069 -1.3521
21847SOL     OW77599   1.647   5.804   2.324 -0.1810  0.3014 -0.3506
21847SOL    HW177600   1.641   5.710   2.289  3.2967  0.7378 -2.3046
21847SOL    HW277601   1.742   5.826   2.345 -0.9522  3.3985  0.1456
21848SOL     OW77602   2.314   4.484   4.237  0.6151 -0.3215  0.0872
21848SOL    HW177603   2.219   4.513   4.222  0.2710 -1.8693 -0.8648
21848SOL    HW277604   2.331   4.476   4.335 -0.6192 -1.1695  0.2556
21849SOL     OW77605   8.272   9.542   8.161 -0.4863  0.3791 -0.4988
21849SOL    HW177606   8.260   9.603   8.083  0.4800  1.1292 -0.0802
21849SOL    HW277607   8.189   9.542   8.217 -1.0918  0.0280 -1.3858
21850SOL     OW77608   7.427   2.922   2.488 -0.0576  0.3201  0.2275
21850SOL    HW177609   7.514   2.876   2.472  0.1183  0.1226  1.7091
21850SOL    HW277610   7.434   3.017   2.458  0.1169 -0.1418 -1.2444
21851SOL     OW77611   4.124   9.124   4.076  0.3184 -0.4537  0.2761
21851SOL    HW177612   4.205   9.075   4.042 -0.3550  0.8714 -3.5187
21851SOL    HW277613   4.151   9.212   4.113  0.8357 -0.8986  0.9571
21852SOL     OW77614   9.675   4.498   9.748  0.1374 -0.1264 -0.1452
21852SOL    HW177615   9.632   4.500   9.838  0.5302 -0.9411  0.0660
21852SOL    HW277616   9.745   4.426   9.746  2.4696  2.0978 -0.0348
21853SOL     OW77617   5.185   1.075   6.802  0.0585 -0.0724  0.4035
21853SOL    HW177618   5.215   1.146   6.866  0.1194  0.4494 -0.2009
21853SOL    HW277619   5.173   0.989   6.852  1.0285  0.0903  0.9497
21854SOL     OW77620   9.663   5.413   6.560 -0.5144  0.4438  0.5182
21854SOL    HW177621   9.676   5.324   6.516 -2.1054  0.2829  0.3334
21854SOL    HW277622   9.654   5.401   6.659 -0.9547  0.3626  0.4710
21855SOL     OW77623   9.344   9.106   5.775  0.0840 -0.4110  0.1566
21855SOL    HW177624   9.437   9.123   5.744 -0.3622  0.6589 -0.6178
21855SOL    HW277625   9.279   9.144   5.709 -0.9098 -1.3165  0.5896
21856SOL     OW77626   7.668   7.603   4.421  0.1242  0.1157 -0.2463
21856SOL    HW177627   7.760   7.605   4.460  0.0280 -0.7937  0.0462
21856SOL    HW277628   7.614   7.679   4.457  0.4736  0.1075  0.2904
21857SOL     OW77629   5.746   7.948   3.567  0.1478  0.1488  0.1361
21857SOL    HW177630   5.727   7.951   3.469  0.7733 -0.5124 -0.0137
21857SOL    HW277631   5.757   7.853   3.596 -2.0363  0.2200  1.2572
21858SOL     OW77632   4.291   9.214   3.381  0.7758  0.3985  0.0719
21858SOL    HW177633   4.268   9.165   3.465 -1.0764  1.8759  0.4515
21858SOL    HW277634   4.224   9.191   3.310  1.9869 -0.3732 -0.8495
21859SOL     OW77635   8.105   1.269   3.105  0.6282 -0.1039 -0.1928
21859SOL    HW177636   8.148   1.319   3.029  0.8316  0.8963  0.5660
21859SOL    HW277637   8.167   1.268   3.183 -0.3551  0.5577  0.6078
21860SOL     OW77638   5.537   2.678   1.654  0.5750 -0.0241  0.3648
21860SOL    HW177639   5.635   2.670   1.676  1.2378  1.1275 -1.9798
21860SOL    HW277640   5.483   2.638   1.728  2.8098 -0.4718  1.8153
21861SOL     OW77641   9.390   5.955   5.574  0.0639  0.1267  0.4918
21861SOL    HW177642   9.362   5.859   5.567 -0.5888  0.1751  2.1528
21861SOL    HW277643   9.486   5.959   5.604  0.3371 -0.0035 -0.3483
21862SOL     OW77644   2.983   2.193   9.415 -0.1257 -0.2531 -0.3558
21862SOL    HW177645   3.022   2.116   9.465  0.5553  0.3811  0.0882
21862SOL    HW277646   2.946   2.160   9.328  1.1465 -0.9068 -0.6619
21863SOL     OW77647   9.212   7.318   3.636  0.0805  0.2743 -0.3920
21863SOL    HW177648   9.148   7.389   3.607 -0.3696 -0.3227 -0.8827
21863SOL    HW277649   9.289   7.360   3.684 -1.1010  0.9367  0.9847
21864SOL     OW77650   6.736   1.338   0.977  0.3825  0.0537  0.2348
21864SOL    HW177651   6.687   1.425   0.979  1.4959  0.6940 -0.0635
21864SOL    HW277652   6.734   1.301   0.884  0.1980 -0.0711  0.2888
21865SOL     OW77653   8.909   4.921   4.267 -0.0235  0.2089  0.0392
21865SOL    HW177654   8.885   5.016   4.248  3.4177  1.1804  0.3183
21865SOL    HW277655   8.946   4.914   4.359 -0.7417 -1.5127  0.2082
21866SOL     OW77656   1.088   9.386   1.201 -0.1092  0.4439 -0.0299
21866SOL    HW177657   1.014   9.382   1.269  0.9554 -2.0542  1.0283
21866SOL    HW277658   1.127   9.478   1.200 -1.9083  1.2507  0.8049
21867SOL     OW77659   8.649   9.434   7.783  0.2297  0.6865 -0.3415
21867SOL    HW177660   8.696   9.347   7.768 -0.8379 -0.2714  1.5928
21867SOL    HW277661   8.560   9.416   7.827 -0.3855  2.6959 -0.7063
21868SOL     OW77662   0.249   3.530   3.726 -0.4361 -0.2565 -0.5333
21868SOL    HW177663   0.303   3.546   3.809 -0.0892  1.3733 -1.0554
21868SOL    HW277664   0.290   3.580   3.649 -1.2629 -1.0308 -1.4986
21869SOL     OW77665   7.792   8.695   1.120  0.3366 -0.6664  0.3489
21869SOL    HW177666   7.781   8.760   1.195  1.8530 -0.1701  0.1585
21869SOL    HW277667   7.814   8.744   1.036  2.0085 -1.4479  0.3128
21870SOL     OW77668   1.888   4.836   7.353  0.3645 -0.1232  0.1176
21870SOL    HW177669   1.974   4.886   7.363  1.6547 -2.2617  0.1090
21870SOL    HW277670   1.894   4.750   7.404 -2.2392  0.2559  1.1150
21871SOL     OW77671   0.895   8.837   9.064 -0.1587 -0.9357 -0.3701
21871SOL    HW177672   0.927   8.857   9.156  3.1442  1.3822 -1.9080
21871SOL    HW277673   0.970   8.798   9.010 -0.6844  1.8670 -3.2780
21872SOL     OW77674   1.432   5.559   9.583  0.5696  0.6241  0.1038
21872SOL    HW177675   1.406   5.592   9.492 -0.6101  0.7504  0.4733
21872SOL    HW277676   1.400   5.465   9.594 -0.2167  0.9539  0.7529
21873SOL     OW77677   2.416   9.768   7.885 -0.2610 -0.4917  0.1775
21873SOL    HW177678   2.488   9.761   7.816  0.1587  0.1598  0.5538
21873SOL    HW277679   2.402   9.678   7.926  1.2889 -0.3560  1.0605
21874SOL     OW77680   7.381   5.883   5.177  0.5460 -0.1388  0.4175
21874SOL    HW177681   7.348   5.971   5.144  0.6249  0.1438  1.1006
21874SOL    HW277682   7.346   5.866   5.269 -0.0446 -1.1393  0.0120
21875SOL     OW77683   9.287   3.510   4.138 -0.2808  0.2453 -0.2795
21875SOL    HW177684   9.349   3.530   4.062 -0.8790  0.1022 -0.8110
21875SOL    HW277685   9.336   3.457   4.207  0.2517  0.3200 -0.5924
21876SOL     OW77686   6.508   9.568   6.590 -0.1357  0.4144 -0.0972
21876SOL    HW177687   6.493   9.603   6.497 -1.5088  0.1460  0.0128
21876SOL    HW277688   6.598   9.598   6.622 -0.3282  1.9276 -0.8771
21877SOL     OW77689   2.012   9.417   8.255 -0.3001  0.3001 -0.2123
21877SOL    HW177690   2.043   9.322   8.261 -0.3949  0.3596  1.3764
21877SOL    HW277691   1.927   9.428   8.307 -1.0287  0.9648 -1.5054
21878SOL     OW77692   7.102   1.232   5.706  0.1919  0.4480  0.2912
21878SOL    HW177693   7.110   1.154   5.767 -0.1267  1.3528  1.5207
21878SOL    HW277694   7.148   1.311   5.747 -0.8039  1.3033 -0.2125
21879SOL     OW77695   1.675   0.068   8.568  0.3522 -0.1826  1.0520
21879SOL    HW177696   1.703  -0.026   8.588  3.1795  0.8833  2.3991
21879SOL    HW277697   1.676   0.122   8.652  1.5833  1.7133 -0.1335
21880SOL     OW77698   3.113   2.617   4.340 -0.6945  0.0875 -0.0610
21880SOL    HW177699   3.175   2.573   4.405 -1.4093  0.7320  1.0534
21880SOL    HW277700   3.035   2.656   4.388 -0.7994  1.3203 -1.2122
21881SOL     OW77701   9.989   4.475   7.835 -0.0006  0.5841 -0.2815
21881SOL    HW177702   9.896   4.492   7.805 -0.0871 -0.3281 -0.5307
21881SOL    HW277703  10.051   4.477   7.757 -0.1506 -1.2302 -0.4710
21882SOL     OW77704   9.520   8.458   8.247 -0.3454 -0.0479 -0.4013
21882SOL    HW177705   9.598   8.514   8.220 -1.0921 -0.5240 -3.7760
21882SOL    HW277706   9.539   8.362   8.228 -0.5176 -0.5402  1.8261
21883SOL     OW77707   1.474   3.861   8.573  0.3360 -0.3054 -0.1563
21883SOL    HW177708   1.402   3.895   8.512  0.6039 -1.4604 -1.1534
21883SOL    HW277709   1.527   3.938   8.609 -0.5908  0.4687 -0.4215
21884SOL     OW77710   2.841   3.151   8.228 -0.6126 -0.0861 -0.1090
21884SOL    HW177711   2.862   3.101   8.144 -0.6787 -1.7998  0.8700
21884SOL    HW277712   2.856   3.249   8.214  0.2206 -0.4544 -1.8377
21885SOL     OW77713   6.533   4.403   8.659 -0.1396  0.3671  0.3162
21885SOL    HW177714   6.554   4.445   8.748  0.5950 -0.1878  0.4138
21885SOL    HW277715   6.469   4.328   8.672 -0.1459  0.3787  0.3548
21886SOL     OW77716   1.273   1.764   3.163  0.1209  0.2109  0.2914
21886SOL    HW177717   1.301   1.778   3.258  1.2772  0.8969 -0.1384
21886SOL    HW277718   1.352   1.774   3.103 -1.0498  2.2938 -0.9806
21887SOL     OW77719   9.800   0.021   4.772  0.3811 -0.2289  0.3419
21887SOL    HW177720   9.792   0.118   4.794 -1.3581 -0.0274 -1.0822
21887SOL    HW277721   9.800  -0.032   4.857 -1.0276  0.8700  1.0596
21888SOL     OW77722   9.585   6.702   8.452  0.0643  0.3333 -0.4179
21888SOL    HW177723   9.555   6.613   8.487 -0.6991  0.3866 -0.9350
21888SOL    HW277724   9.610   6.693   8.356  1.4445  0.3553 -0.0811
21889SOL     OW77725   3.498   5.018   4.969  0.5993  0.3607 -0.1908
21889SOL    HW177726   3.470   4.976   5.055  0.4707  2.0666  0.6287
21889SOL    HW277727   3.598   5.013   4.961  0.5774 -0.1602 -0.1319
21890SOL     OW77728   2.382   6.148   1.734  0.0293  0.3170  0.2295
21890SOL    HW177729   2.380   6.194   1.645 -0.1035  0.3925  0.2718
21890SOL    HW277730   2.477   6.140   1.765  0.1071 -0.0639 -0.1012
21891SOL     OW77731   7.224   3.423   4.127  0.1543  0.3158  0.0297
21891SOL    HW177732   7.315   3.389   4.149  0.4147  1.9790  1.6293
21891SOL    HW277733   7.159   3.390   4.196 -0.1168  0.6283 -0.0780
21892SOL     OW77734   0.682   7.978   9.880  0.1562 -0.5189  0.1634
21892SOL    HW177735   0.708   7.965   9.976  1.0927 -0.5976 -0.0995
21892SOL    HW277736   0.643   8.069   9.868 -0.6525 -0.7784  0.7625
21893SOL     OW77737   1.428   1.720   0.069 -0.7399 -0.0940 -0.2597
21893SOL    HW177738   1.438   1.641   0.130 -2.5754 -0.0855  0.0974
21893SOL    HW277739   1.369   1.788   0.113  0.8392  1.4972 -0.5604
21894SOL     OW77740   8.975   4.679   3.082 -0.1871  0.7733  0.2018
21894SOL    HW177741   8.907   4.607   3.068  0.2648 -0.0698  2.2121
21894SOL    HW277742   9.006   4.714   2.993 -1.0780 -0.8763 -0.7737
21895SOL     OW77743   8.735   5.146   1.671  0.0852 -0.1919  0.1527
21895SOL    HW177744   8.740   5.199   1.586 -1.4459 -2.2457 -1.2752
21895SOL    HW277745   8.665   5.185   1.731 -0.2331  0.0883 -0.3991
21896SOL     OW77746   7.759   7.227   1.770 -0.3923 -0.1923  0.0510
21896SOL    HW177747   7.731   7.171   1.692  0.1738 -0.6461  0.1677
21896SOL    HW277748   7.680   7.273   1.809 -0.8489 -0.8482 -0.0999
21897SOL     OW77749   5.661   1.908   0.813 -0.2452 -0.0357  0.1731
21897SOL    HW177750   5.689   1.921   0.908 -1.4923  0.9732  0.4131
21897SOL    HW277751   5.640   1.811   0.798 -0.1687 -0.1778  0.9581
21898SOL     OW77752   8.610   2.258   6.979  0.0770 -0.1393 -0.3564
21898SOL    HW177753   8.654   2.187   6.926  0.2163 -0.6382  0.4137
21898SOL    HW277754   8.667   2.282   7.058  0.3025  1.2262 -0.9140
21899SOL     OW77755   2.809   9.210   4.070  0.3505  0.5106 -0.3889
21899SOL    HW177756   2.723   9.223   4.118 -0.5902  0.6005 -2.0983
21899SOL    HW277757   2.823   9.284   4.004  2.0607  0.8635  0.3288
21900SOL     OW77758   0.174   9.674   1.973 -0.3984  0.1529  0.4479
21900SOL    HW177759   0.243   9.746   1.981  0.6195 -0.7221 -0.2066
21900SOL    HW277760   0.169   9.624   2.060  0.2633 -0.1819  0.3019
21901SOL     OW77761   1.661   3.450   4.045  1.3058  0.0392  0.0889
21901SOL    HW177762   1.707   3.365   4.018  0.8387  0.1855 -1.1863
21901SOL    HW277763   1.700   3.483   4.131 -0.7313 -3.2930  2.4735
21902SOL     OW77764   1.977   2.347   3.094 -0.0874  0.3113  0.1595
21902SOL    HW177765   2.033   2.264   3.086  0.1022  0.5781 -1.5380
21902SOL    HW277766   2.035   2.428   3.085 -0.5052  0.6064  0.0780
21903SOL     OW77767   9.085   9.933   0.040  0.1700  0.4801 -0.3065
21903SOL    HW177768   9.091   9.897   0.133  2.1718  3.0723  0.6590
21903SOL    HW277769   9.081   9.858  -0.026  0.6734 -1.4085  1.7710
21904SOL     OW77770   1.222   9.488   1.991  0.0892  0.3005 -0.0273
21904SOL    HW177771   1.143   9.459   1.938 -0.8425  0.3508  1.3052
21904SOL    HW277772   1.192   9.552   2.062  1.1481 -0.6513  1.2823
21905SOL     OW77773   1.677   0.751   8.901 -0.4615 -0.3717 -0.4610
21905SOL    HW177774   1.762   0.717   8.942  0.2077 -0.9388 -2.2745
21905SOL    HW277775   1.699   0.826   8.838 -1.4863  0.5718  0.2951
21906SOL     OW77776   5.537   6.464   0.498 -0.3071 -0.0959  0.0154
21906SOL    HW177777   5.540   6.558   0.532  0.9838 -0.4759  1.0094
21906SOL    HW277778   5.503   6.464   0.404  0.9057  1.5052 -0.4583
21907SOL     OW77779   1.905   9.492   4.463 -0.4937 -0.0534 -0.3367
21907SOL    HW177780   1.855   9.554   4.524  1.0592  0.0028  0.9207
21907SOL    HW277781   2.003   9.497   4.484 -0.2457 -2.1799 -0.9182
21908SOL     OW77782   3.842   6.241   8.705 -0.4127  0.8510  0.1546
21908SOL    HW177783   3.814   6.281   8.792  0.5763 -0.3140  1.0225
21908SOL    HW277784   3.925   6.187   8.718 -0.5494  0.2289 -1.4097
21909SOL     OW77785   5.266   2.513   9.625  0.2294 -0.3934 -0.5903
21909SOL    HW177786   5.334   2.493   9.696 -0.9892 -2.9247 -0.0935
21909SOL    HW277787   5.183   2.549   9.668  0.4469  0.5969 -0.9912
21910SOL     OW77788   3.232   3.429   9.646  0.0696  0.0234  0.1034
21910SOL    HW177789   3.137   3.459   9.657 -0.2131 -0.7227 -0.2439
21910SOL    HW277790   3.247   3.402   9.551  0.7548  0.5510  0.0584
21911SOL     OW77791   3.448   6.747   5.342  0.2503  0.2729  0.2421
21911SOL    HW177792   3.483   6.826   5.393  2.2303  1.0539 -2.2481
21911SOL    HW277793   3.371   6.776   5.285  0.9452  0.3974 -0.6348
21912SOL     OW77794   7.807   7.391   5.667  0.5819  0.6793 -0.3786
21912SOL    HW177795   7.892   7.416   5.714  0.1318  0.2001  0.6995
21912SOL    HW277796   7.734   7.379   5.733  0.3883 -1.9106 -0.9828
21913SOL     OW77797   3.363   3.497   4.724  0.0356  0.7118 -0.3305
21913SOL    HW177798   3.373   3.518   4.626  0.4805  1.0923 -0.2058
21913SOL    HW277799   3.352   3.582   4.775 -0.7381  0.4775 -0.1048
21914SOL     OW77800   9.787   2.113   8.058  0.9795  0.2648 -0.1491
21914SOL    HW177801   9.723   2.082   7.989  1.1363 -0.4153  0.0069
21914SOL    HW277802   9.860   2.166   8.015  2.2689 -1.9586 -0.8227
21915SOL     OW77803   4.055   6.636   9.605  0.2958 -0.6889  0.2675
21915SOL    HW177804   4.109   6.597   9.681  0.2206 -1.7403 -0.2115
21915SOL    HW277805   4.113   6.698   9.552  0.6580 -0.7738  0.5596
21916SOL     OW77806   6.659   8.170   7.471  0.5851  0.3158 -0.2460
21916SOL    HW177807   6.569   8.213   7.478  0.9143  0.8117  1.1146
21916SOL    HW277808   6.650   8.082   7.423 -0.4556  0.8237 -0.9961
21917SOL     OW77809   9.172   4.760   6.323 -0.2745 -0.0135 -0.0952
21917SOL    HW177810   9.157   4.850   6.363  2.0596  0.0969  0.6568
21917SOL    HW277811   9.223   4.770   6.238  0.9588 -0.6618  0.5510
21918SOL     OW77812   8.526   3.547   8.975 -0.3865  0.2327  0.2248
21918SOL    HW177813   8.560   3.604   9.050 -0.0823 -1.3577  1.3165
21918SOL    HW277814   8.549   3.590   8.888  0.4318  1.4335  1.0078
21919SOL     OW77815   9.505   7.234   5.954  0.1030  0.3507  0.0587
21919SOL    HW177816   9.605   7.238   5.951  0.3439 -1.1983  3.6089
21919SOL    HW277817   9.474   7.235   6.049 -3.2490 -0.0106 -0.9542
21920SOL     OW77818   9.449   2.355   2.423 -0.4314  0.0733 -0.3589
21920SOL    HW177819   9.513   2.429   2.399  0.2888 -0.5870 -0.5078
21920SOL    HW277820   9.434   2.297   2.343 -1.1874  0.1936 -0.3073
21921SOL     OW77821   9.376   1.939   8.918 -0.2147  0.6870  0.3751
21921SOL    HW177822   9.321   1.894   8.847 -0.4619  0.2837  0.8167
21921SOL    HW277823   9.332   1.926   9.007  1.1463 -0.5718  0.8925
21922SOL     OW77824   6.586   0.006   1.493  0.1850 -0.4957 -0.0495
21922SOL    HW177825   6.633   0.040   1.412  1.7788 -0.6888  0.7833
21922SOL    HW277826   6.597  -0.093   1.499  3.2595 -0.0951  2.3431
21923SOL     OW77827   6.264   9.009   5.793  0.1319 -0.0920  0.5885
21923SOL    HW177828   6.232   9.097   5.828  0.9468 -0.2832  1.8593
21923SOL    HW277829   6.297   8.954   5.869  0.6395 -1.0722 -0.3399
21924SOL     OW77830   6.928   2.440   2.495  0.0892 -0.5970  0.7576
21924SOL    HW177831   6.903   2.527   2.537  0.6741  0.7252 -1.5278
21924SOL    HW277832   6.990   2.390   2.555 -0.6899  0.3233  2.3347
21925SOL     OW77833   3.114   8.656   3.329 -0.1517 -0.0987  0.1716
21925SOL    HW177834   3.154   8.653   3.421 -0.6743  1.3716  0.4517
21925SOL    HW277835   3.144   8.740   3.282  0.3459 -0.9744 -1.1097
21926SOL     OW77836   5.732   0.686   2.523 -0.2622 -0.4167 -0.2705
21926SOL    HW177837   5.659   0.627   2.556 -0.6941 -0.6036 -1.5433
21926SOL    HW277838   5.798   0.632   2.472 -0.0963  0.0296 -0.5291
21927SOL     OW77839   3.887   5.054   9.175  0.6266  0.5001 -0.0004
21927SOL    HW177840   3.889   4.961   9.210 -0.5415  0.7737  0.8271
21927SOL    HW277841   3.980   5.092   9.176  0.4905  0.9372  4.0885
21928SOL     OW77842   2.162   6.517   1.109 -0.1239  0.6291  0.2702
21928SOL    HW177843   2.111   6.433   1.128  0.9736 -0.0973  0.0630
21928SOL    HW277844   2.200   6.513   1.017 -2.7564  2.7778 -0.9640
21929SOL     OW77845   5.711   1.802   5.719 -0.2708 -0.2275 -0.1462
21929SOL    HW177846   5.626   1.800   5.773  0.3455 -1.4649  0.7849
21929SOL    HW277847   5.722   1.716   5.670  1.0495 -0.5376  0.6723
21930SOL     OW77848   0.023   2.806   3.669  0.2902 -0.3778  0.4135
21930SOL    HW177849  -0.002   2.725   3.618 -1.1755 -0.6152  1.4944
21930SOL    HW277850   0.077   2.867   3.611 -3.2204  0.4128 -2.1791
21931SOL     OW77851   7.703   4.488   0.012 -0.0901  0.1137 -0.4343
21931SOL    HW177852   7.608   4.484  -0.016  0.0618  0.3731 -1.0025
21931SOL    HW277853   7.761   4.454  -0.063  0.4246  2.1735 -1.0187
21932SOL     OW77854   1.724   8.193   9.499 -0.1034 -0.0789 -0.1832
21932SOL    HW177855   1.730   8.104   9.453  0.0662 -0.3393  0.3389
21932SOL    HW277856   1.737   8.266   9.432  0.1596 -0.4587 -0.5507
21933SOL     OW77857   4.516   9.399   9.770 -0.1007 -0.2694 -0.3108
21933SOL    HW177858   4.490   9.396   9.866 -0.9653  0.3909 -0.5186
21933SOL    HW277859   4.556   9.488   9.749  1.9546 -1.1236 -0.1006
21934SOL     OW77860   7.302   0.570   0.474  0.4982  0.6857 -0.2150
21934SOL    HW177861   7.206   0.574   0.449  0.2149 -0.5375  0.6595
21934SOL    HW277862   7.333   0.662   0.500 -0.5967  0.9634  0.1367
21935SOL     OW77863   1.817   4.668   7.726  0.0636 -0.0658 -0.2902
21935SOL    HW177864   1.896   4.609   7.744 -0.1977  0.1871  1.8788
21935SOL    HW277865   1.840   4.763   7.750 -1.5261 -0.3105  2.4079
21936SOL     OW77866   1.931   0.508   6.749  0.9027 -0.1304  0.3240
21936SOL    HW177867   1.843   0.524   6.795  0.4929 -1.0342 -0.1253
21936SOL    HW277868   1.981   0.436   6.797  0.8394 -0.4934 -0.1502
21937SOL     OW77869   3.303   9.574   6.468 -0.2789 -0.0277 -0.8585
21937SOL    HW177870   3.368   9.504   6.497  1.4966  1.8154 -0.2742
21937SOL    HW277871   3.250   9.605   6.547 -0.0774  0.2890 -0.8479
21938SOL     OW77872   3.465   0.705   6.719  0.4179 -0.0949 -0.6166
21938SOL    HW177873   3.447   0.662   6.808 -0.0516 -0.1617 -0.7442
21938SOL    HW277874   3.538   0.773   6.730 -0.0121  0.2890 -0.0629
21939SOL     OW77875   4.987   4.797   7.532 -0.1688  0.3000 -0.6452
21939SOL    HW177876   5.036   4.752   7.457  0.0807 -0.9233  0.2439
21939SOL    HW277877   4.930   4.870   7.495 -0.3238 -0.5240 -2.0811
21940SOL     OW77878   5.604   7.807   6.188  0.1386  0.0250  0.5025
21940SOL    HW177879   5.689   7.765   6.218  0.5315  0.2797 -0.2298
21940SOL    HW277880   5.544   7.736   6.149 -0.1662 -0.2233  1.4223
21941SOL     OW77881   8.177   1.691   2.927 -0.0846 -0.0146  0.2129
21941SOL    HW177882   8.271   1.711   2.954  0.0086 -1.5314  1.1138
21941SOL    HW277883   8.147   1.756   2.857  2.0786 -0.2987 -1.0217
21942SOL     OW77884   8.497   1.691   4.492 -0.1262 -0.8093 -0.4362
21942SOL    HW177885   8.549   1.637   4.426 -0.7424 -0.3132 -1.3251
21942SOL    HW277886   8.521   1.788   4.482 -0.1705 -0.7380  0.1178
21943SOL     OW77887   0.159   4.591   3.634  0.2411 -0.1660  0.0504
21943SOL    HW177888   0.130   4.620   3.543 -1.1855  0.3442  0.6492
21943SOL    HW277889   0.219   4.511   3.626  0.9302  0.4925 -1.3815
21944SOL     OW77890   7.699   0.491   4.017  0.1724  0.1660  0.6336
21944SOL    HW177891   7.658   0.577   4.047 -0.1790  0.6082 -1.0870
21944SOL    HW277892   7.660   0.464   3.929  1.8907 -0.5979  0.0915
21945SOL     OW77893   2.738   0.917   8.624  0.3671  0.2249  0.2169
21945SOL    HW177894   2.708   0.923   8.528  2.5357  0.6448 -0.4618
21945SOL    HW277895   2.810   0.985   8.640 -0.2376  0.4013  2.2565
21946SOL     OW77896   7.153   6.295   3.098  0.0766  0.1851 -1.2064
21946SOL    HW177897   7.195   6.269   3.011  0.1794 -1.1908 -0.7555
21946SOL    HW277898   7.200   6.248   3.173 -1.0175  0.1352 -0.5400
21947SOL     OW77899   6.141   3.138   0.504  0.2357  0.4026  0.6266
21947SOL    HW177900   6.231   3.140   0.459  1.0777 -1.5295  2.1591
21947SOL    HW277901   6.103   3.231   0.506  1.8767  1.1301 -0.6675
21948SOL     OW77902   2.568   6.701   6.521  0.3401  0.0477  0.4201
21948SOL    HW177903   2.567   6.799   6.500 -0.0478  0.0930  0.6527
21948SOL    HW277904   2.475   6.669   6.537  0.1847 -0.8820 -2.0848
21949SOL     OW77905   5.811   2.590   5.272  0.3779 -0.0148  1.0362
21949SOL    HW177906   5.827   2.558   5.366 -0.6885 -0.5542  1.0482
21949SOL    HW277907   5.848   2.524   5.207  0.3985 -0.0406  1.0744
21950SOL     OW77908   1.278   2.799   5.453  0.2555  0.3788 -0.2725
21950SOL    HW177909   1.198   2.858   5.468 -1.7004 -1.8573 -1.5357
21950SOL    HW277910   1.322   2.824   5.366  0.2662  0.8847 -0.1223
21951SOL     OW77911   5.479   5.991   1.662 -0.1533 -0.1957 -0.5424
21951SOL    HW177912   5.508   5.967   1.754 -0.8278  0.5867 -0.1190
21951SOL    HW277913   5.547   6.052   1.620 -0.6840  0.8210  0.0706
21952SOL     OW77914   3.652   0.500   8.090 -0.1672  0.1271 -0.0433
21952SOL    HW177915   3.564   0.471   8.051  0.1938  0.0824 -0.8374
21952SOL    HW277916   3.717   0.518   8.016  1.4637 -2.8954  0.5741
21953SOL     OW77917   7.387   6.342   2.648  0.1010  0.2264 -0.1985
21953SOL    HW177918   7.377   6.429   2.599  2.2561  0.7761  0.2712
21953SOL    HW277919   7.481   6.309   2.639 -0.5808 -1.8630 -0.0069
21954SOL     OW77920   0.776   2.956   0.737  0.1048  0.2043  0.5635
21954SOL    HW177921   0.708   2.995   0.675  1.0727  1.3710  0.2263
21954SOL    HW277922   0.806   2.867   0.702 -0.0238  0.4464 -0.1632
21955SOL     OW77923   7.340   2.093   1.500  0.0739 -0.0712  0.1346
21955SOL    HW177924   7.306   2.044   1.580 -1.6042  2.3152  0.9355
21955SOL    HW277925   7.307   2.048   1.417 -1.2303 -0.4703  0.8540
21956SOL     OW77926   3.218   5.337   1.047 -0.4196  0.3420 -0.2842
21956SOL    HW177927   3.183   5.252   1.005  1.8071 -0.6302 -0.2201
21956SOL    HW277928   3.196   5.414   0.987  1.0675 -0.8000 -2.3948
21957SOL     OW77929   2.584   7.245   6.204  0.0767 -0.0029 -0.2245
21957SOL    HW177930   2.519   7.241   6.280 -0.3813 -1.3972 -0.6777
21957SOL    HW277931   2.539   7.219   6.119  0.6629  1.2681 -0.9502
21958SOL     OW77932   9.210   6.741   3.569  0.4401 -0.0147  0.5343
21958SOL    HW177933   9.266   6.665   3.537 -0.4043 -0.3276 -0.2297
21958SOL    HW277934   9.253   6.827   3.541  0.9296 -0.2248  0.6215
21959SOL     OW77935   2.977   3.032   8.020 -0.0629 -0.2416 -0.1451
21959SOL    HW177936   3.040   3.083   7.961 -1.7239  1.6886 -0.3244
21959SOL    HW277937   2.967   2.939   7.986  1.1518  0.0211 -1.2690
21960SOL     OW77938   8.784   4.284   1.682 -0.1469  0.1233  0.3045
21960SOL    HW177939   8.731   4.263   1.765 -0.1904  1.3450  0.5914
21960SOL    HW277940   8.813   4.199   1.639 -1.2577 -0.5400  0.8482
21961SOL     OW77941   3.352   3.283   0.223  0.0870  0.0526  0.2068
21961SOL    HW177942   3.321   3.195   0.257  1.3157 -0.9270 -1.1527
21961SOL    HW277943   3.445   3.275   0.186  0.2691  1.9309  0.1729
21962SOL     OW77944   8.891   7.985   6.916  0.1387 -0.4298  0.1447
21962SOL    HW177945   8.988   8.007   6.920 -0.0434  0.2242  0.9252
21962SOL    HW277946   8.849   8.033   6.839 -0.2833  2.0964  1.8992
21963SOL     OW77947   2.900   4.565   9.577 -0.2190 -0.2080 -0.1513
21963SOL    HW177948   2.852   4.489   9.533  0.6130 -0.2447 -1.0349
21963SOL    HW277949   2.998   4.558   9.557 -0.2347  1.5867 -1.0333
21964SOL     OW77950   6.326   7.312   3.423  0.2671 -0.7209 -0.0576
21964SOL    HW177951   6.271   7.229   3.436 -0.2924  0.0272  2.6648
21964SOL    HW277952   6.268   7.384   3.385  0.0544 -0.7409  0.2253
21965SOL     OW77953   0.757   9.719   7.125  0.2108  0.4672  0.2837
21965SOL    HW177954   0.775   9.742   7.029  1.0171 -1.2285  0.0226
21965SOL    HW277955   0.682   9.654   7.130 -0.0841  0.8448  0.8421
21966SOL     OW77956   0.304   6.184   1.177  0.1162  0.1619  0.8215
21966SOL    HW177957   0.303   6.212   1.273 -1.3998 -0.5618  1.0302
21966SOL    HW277958   0.216   6.207   1.134 -1.2830 -4.3215  1.0588
21967SOL     OW77959   5.288   7.651   4.178 -0.6866  0.2999  0.6944
21967SOL    HW177960   5.208   7.621   4.229 -0.3889 -1.8753 -0.0566
21967SOL    HW277961   5.301   7.591   4.098  0.0348  2.3634 -0.7884
21968SOL     OW77962   8.925   3.305   0.108 -0.1649  0.4300  0.4481
21968SOL    HW177963   8.986   3.239   0.064 -1.2179 -1.4919  1.8423
21968SOL    HW277964   8.975   3.389   0.126  0.9906  0.3341 -2.0515
21969SOL     OW77965   9.584   9.419   3.943  0.7692  0.4063  0.3962
21969SOL    HW177966   9.557   9.340   3.997 -0.4736  0.3250 -0.3390
21969SOL    HW277967   9.504   9.476   3.925  1.9935  3.0513  2.8625
21970SOL     OW77968   3.726   8.526   3.862 -0.1397  0.2672  0.6006
21970SOL    HW177969   3.678   8.606   3.899 -0.7297 -0.0868  0.6185
21970SOL    HW277970   3.677   8.443   3.890 -0.0510 -0.0520 -0.1888
21971SOL     OW77971   2.796   1.257   1.004 -0.4005 -0.2560 -0.4874
21971SOL    HW177972   2.714   1.262   0.947 -0.1039 -0.5068 -0.9386
21971SOL    HW277973   2.798   1.169   1.052 -0.0111 -0.5651 -1.0644
21972SOL     OW77974   3.786   6.966   3.875 -0.2573 -0.1921  0.3109
21972SOL    HW177975   3.752   6.960   3.968 -0.9225  0.5305  0.1165
21972SOL    HW277976   3.826   6.878   3.848 -0.7698 -0.6360  0.9983
21973SOL     OW77977   7.127   2.278   5.274  0.1863 -0.0908 -0.3146
21973SOL    HW177978   7.053   2.215   5.250 -0.6515  0.2750  1.2365
21973SOL    HW277979   7.100   2.371   5.253 -0.2812  0.1633  1.3622
21974SOL     OW77980   3.839   0.678   1.624  0.1132 -0.3836 -0.0825
21974SOL    HW177981   3.865   0.588   1.660  0.7864 -0.8409 -1.6892
21974SOL    HW277982   3.921   0.735   1.616 -0.1639  0.0161 -0.0835
21975SOL     OW77983   5.867   1.859   5.936  0.1011 -0.0323  0.2759
21975SOL    HW177984   5.949   1.803   5.947  0.3210 -0.0272 -1.2386
21975SOL    HW277985   5.811   1.822   5.862 -0.2877  1.1098 -0.0109
21976SOL     OW77986   3.680   6.080   2.310 -0.4724  0.2517 -0.1243
21976SOL    HW177987   3.741   6.144   2.357 -1.6653  0.5087  1.1177
21976SOL    HW277988   3.693   5.988   2.347 -0.2892  0.1657 -0.4009
21977SOL     OW77989   6.020   4.863   9.455  0.1314  0.1986 -0.6317
21977SOL    HW177990   6.062   4.944   9.495 -1.9459  0.4283  1.1772
21977SOL    HW277991   6.089   4.792   9.443  1.1532  0.7163  1.8776
21978SOL     OW77992   0.314   5.396   4.236 -0.0018 -0.1257 -0.5050
21978SOL    HW177993   0.237   5.359   4.288  0.2129  2.6272  1.9284
21978SOL    HW277994   0.377   5.322   4.212 -0.7998 -1.6708  1.9988
21979SOL     OW77995   1.556   1.969   3.364  0.0703  0.1697  0.1373
21979SOL    HW177996   1.503   1.978   3.448  1.6951 -1.7612  1.3979
21979SOL    HW277997   1.534   2.045   3.303 -2.8240  0.3637  1.3434
21980SOL     OW77998   8.551   1.476   4.342 -0.3342  0.3507  0.4304
21980SOL    HW177999   8.507   1.516   4.262 -0.6580 -0.1399  0.3571
21980SOL    HW278000   8.644   1.449   4.319 -0.3676  0.3702  0.2663
21981SOL     OW78001   3.325   9.671   3.902 -0.4253  0.7662 -0.1237
21981SOL    HW178002   3.425   9.680   3.892 -0.4988  1.3199 -0.3826
21981SOL    HW278003   3.302   9.664   3.999 -0.0273 -0.6658 -0.1324
21982SOL     OW78004   0.043   5.573   3.500 -0.2461 -0.3602 -0.4068
21982SOL    HW178005   0.066   5.654   3.554 -1.9039 -0.9925  1.3179
21982SOL    HW278006   0.002   5.602   3.413  0.6048  0.6424 -0.4981
21983SOL     OW78007   7.324   6.865   2.252 -0.2702  0.2251 -0.1933
21983SOL    HW178008   7.399   6.806   2.223 -1.2853 -1.1580 -0.0554
21983SOL    HW278009   7.353   6.921   2.330  1.2020  1.0755 -1.3251
21984SOL     OW78010   3.157   6.766   0.473  0.0046  0.3811  0.6482
21984SOL    HW178011   3.075   6.728   0.430 -0.8426  1.3642  1.3696
21984SOL    HW278012   3.177   6.855   0.433  1.3596 -0.3167 -0.2751
21985SOL     OW78013   3.836   4.651   2.521 -0.0233 -0.2290 -0.1541
21985SOL    HW178014   3.759   4.703   2.559 -0.5885 -0.6390 -0.7100
21985SOL    HW278015   3.895   4.619   2.595 -0.3665  0.1279  0.2772
21986SOL     OW78016   3.617   5.012   4.200  0.8391 -0.8250 -0.2677
21986SOL    HW178017   3.699   4.994   4.254  1.9147 -0.7101 -1.8278
21986SOL    HW278018   3.597   5.110   4.200  0.1789 -0.9564  0.8466
21987SOL     OW78019   9.090   5.223   9.627 -0.1246  0.0714 -0.1886
21987SOL    HW178020   9.136   5.242   9.540 -0.4375 -0.2489 -0.4232
21987SOL    HW278021   9.030   5.300   9.651  0.5113  0.4789  0.1069
21988SOL     OW78022   4.305   3.845   6.761  0.8825 -0.1359 -0.0138
21988SOL    HW178023   4.287   3.763   6.814  1.4997  0.1093  0.5739
21988SOL    HW278024   4.256   3.840   6.674 -0.3220 -0.4276  0.6720
21989SOL     OW78025   7.825   4.633   3.737 -0.4430  0.5739  0.3748
21989SOL    HW178026   7.760   4.596   3.803 -0.0748  1.6785  1.3853
21989SOL    HW278027   7.788   4.719   3.700  0.9351  1.8598  1.8708
21990SOL     OW78028   1.097   3.572   5.322  0.1541  0.4079  0.3722
21990SOL    HW178029   1.180   3.561   5.267  0.5393 -0.4017  1.1084
21990SOL    HW278030   1.076   3.670   5.331  1.7854  0.6944  1.3145
21991SOL     OW78031   9.181   1.321   2.894  0.3301  0.1539 -0.2796
21991SOL    HW178032   9.168   1.237   2.946 -0.5119  0.4355 -0.0254
21991SOL    HW278033   9.126   1.317   2.810 -0.8284  1.0335  0.4232
21992SOL     OW78034   8.645   8.401   0.385  0.1213 -0.1488 -0.0658
21992SOL    HW178035   8.660   8.444   0.295 -0.5670  3.2035  1.3652
21992SOL    HW278036   8.734   8.383   0.428  0.4253 -0.8270 -0.9481
21993SOL     OW78037   7.243   3.449   2.988  0.2429 -0.1242  0.5990
21993SOL    HW178038   7.156   3.494   2.964  0.2122 -0.5408 -0.0635
21993SOL    HW278039   7.234   3.351   2.974  1.8071  0.1263 -2.4595
21994SOL     OW78040   0.745   1.415   5.411  0.7060 -0.4233 -0.3598
21994SOL    HW178041   0.663   1.360   5.423  0.5298 -0.2220 -0.6410
21994SOL    HW278042   0.802   1.408   5.493  0.4584 -0.6444 -0.2062
21995SOL     OW78043   3.982   0.147   7.412  0.1399  0.4836 -0.1958
21995SOL    HW178044   3.996   0.126   7.315 -0.0624 -0.4139 -0.0330
21995SOL    HW278045   3.900   0.100   7.445  1.3089 -0.8468  0.9050
21996SOL     OW78046   9.649   1.153   0.321 -0.2915 -0.3154  0.1444
21996SOL    HW178047   9.637   1.221   0.393 -2.8576 -1.7271  1.1331
21996SOL    HW278048   9.680   1.067   0.361 -0.5624 -0.7649 -0.5892
21997SOL     OW78049   4.280   4.654   6.126  0.2176  0.9401 -0.5162
21997SOL    HW178050   4.250   4.650   6.031  1.3415  1.3713 -0.9067
21997SOL    HW278051   4.307   4.563   6.156 -2.5743  0.3213  0.2309
21998SOL     OW78052   9.713   6.664   1.376  0.1364 -0.2077 -0.2196
21998SOL    HW178053   9.686   6.615   1.459  0.3905 -1.8594 -1.0920
21998SOL    HW278054   9.647   6.646   1.303 -0.2474  1.4759 -0.3128
21999SOL     OW78055   2.035   9.732   3.929  0.1440 -0.0780 -0.1584
21999SOL    HW178056   2.011   9.656   3.989 -0.0290  0.2201  0.1508
21999SOL    HW278057   2.033   9.818   3.981  1.2651  0.0224 -0.2754
22000SOL     OW78058   3.016   8.027   2.084  0.1239 -0.1557 -0.1025
22000SOL    HW178059   3.010   7.940   2.034  0.2817 -0.0598 -0.2919
22000SOL    HW278060   3.112   8.046   2.107  0.2412  0.5522 -1.1206
22001SOL     OW78061   0.996   9.298   9.404 -0.2404 -0.1309 -0.3691
22001SOL    HW178062   0.912   9.257   9.368  0.0643  0.0148 -1.2670
22001SOL    HW278063   0.976   9.342   9.492 -0.9338 -0.7429 -0.2131
22002SOL     OW78064   8.646   2.293   1.411  0.0844  0.1816 -0.1455
22002SOL    HW178065   8.660   2.213   1.352  1.2298 -0.4201  0.9282
22002SOL    HW278066   8.734   2.325   1.445 -0.4359  1.4696  0.0242
22003SOL     OW78067   3.699   9.878   9.908  0.5363 -0.6472 -0.8114
22003SOL    HW178068   3.768   9.929   9.959 -0.1664 -1.4233  1.0004
22003SOL    HW278069   3.671   9.798   9.962 -2.0147 -0.1525 -1.3291
22004SOL     OW78070   1.624   4.873   7.582  0.9723 -0.2654 -0.3674
22004SOL    HW178071   1.715   4.832   7.582  0.2605 -1.8782  0.1871
22004SOL    HW278072   1.565   4.824   7.646 -0.3496  0.6478 -0.8623
22005SOL     OW78073   2.921   1.680   8.492 -0.0231 -0.1304 -0.0483
22005SOL    HW178074   2.839   1.649   8.443 -0.2773 -0.1014  0.3532
22005SOL    HW278075   2.930   1.779   8.484 -0.3064 -0.0711  0.3219
22006SOL     OW78076   2.890   0.586   9.400  0.5484  0.1250  0.1447
22006SOL    HW178077   2.970   0.527   9.390  0.4801 -0.1759  1.2964
22006SOL    HW278078   2.919   0.682   9.403  0.8358  0.0327  0.2704
22007SOL     OW78079   6.771   9.163   5.435 -0.3156  0.4431  0.5101
22007SOL    HW178080   6.734   9.199   5.521 -1.2591  0.6577  0.0143
22007SOL    HW278081   6.699   9.112   5.386  0.4570 -0.4285  0.2616
22008SOL     OW78082   8.892   6.402   7.844  0.0226  0.4615 -0.5204
22008SOL    HW178083   8.937   6.313   7.837  0.3961  0.3457  2.7862
22008SOL    HW278084   8.930   6.454   7.920 -4.3599  0.9568  1.5196
22009SOL     OW78085   1.446   0.333   4.307  0.3671 -0.1892  0.5520
22009SOL    HW178086   1.500   0.395   4.364  0.4225  0.7094 -0.4659
22009SOL    HW278087   1.504   0.258   4.275  0.9939  0.6710 -0.3859
22010SOL     OW78088   0.487   5.597   5.739 -0.5010 -0.0098  0.1781
22010SOL    HW178089   0.566   5.656   5.721 -0.2676  0.5022  2.7103
22010SOL    HW278090   0.516   5.517   5.791 -1.2555 -1.1462 -1.0816
22011SOL     OW78091   0.823   5.705   7.305 -0.1776  0.1518 -0.3152
22011SOL    HW178092   0.729   5.733   7.287  0.2162  1.6946 -0.0802
22011SOL    HW278093   0.875   5.784   7.337  0.7012 -1.1335  1.5181
22012SOL     OW78094   1.112   3.017   7.196  0.2536 -0.2254 -0.4402
22012SOL    HW178095   1.074   2.934   7.236  0.7967 -0.0220  0.4948
22012SOL    HW278096   1.103   3.012   7.096  1.7338 -2.1363 -0.5170
22013SOL     OW78097   6.164   8.260   3.297 -0.0025 -0.0439 -0.5732
22013SOL    HW178098   6.259   8.289   3.286  0.2146  0.5380  2.3682
22013SOL    HW278099   6.152   8.217   3.387 -2.9380  1.7358 -0.0403
22014SOL     OW78100   8.429   5.634   7.084  0.0844 -0.0772  1.0341
22014SOL    HW178101   8.454   5.616   6.988 -0.5473  0.0700  0.8383
22014SOL    HW278102   8.460   5.725   7.110  0.0181 -0.0124  0.8854
22015SOL     OW78103   2.195   1.675   7.271  0.3084  0.2623  0.0445
22015SOL    HW178104   2.236   1.619   7.199  1.2411 -0.2177  0.9403
22015SOL    HW278105   2.241   1.657   7.358 -1.2277  0.3479  0.9053
22016SOL     OW78106   4.344   3.386   0.307  0.0460 -0.5966  0.1417
22016SOL    HW178107   4.433   3.424   0.335 -0.3465  0.5634 -0.1367
22016SOL    HW278108   4.308   3.328   0.380  0.3788  0.0807  0.8493
22017SOL     OW78109   8.411   0.697   5.901 -0.2873 -0.0498 -0.1495
22017SOL    HW178110   8.329   0.753   5.914 -0.0306  0.8203 -2.1029
22017SOL    HW278111   8.484   0.732   5.959 -0.3018  1.3280 -0.9240
22018SOL     OW78112   5.314   3.310   1.238  0.0532 -0.1843  0.4989
22018SOL    HW178113   5.296   3.394   1.288  0.9091 -0.3417  1.0750
22018SOL    HW278114   5.275   3.232   1.289  0.5648 -0.2994  0.7112
22019SOL     OW78115   8.190   0.863   0.300 -0.1354  0.3206 -0.3423
22019SOL    HW178116   8.166   0.856   0.397 -1.4730  1.5545 -0.5834
22019SOL    HW278117   8.289   0.849   0.290  0.0927  0.6670  1.2556
22020SOL     OW78118   2.050   7.132   4.983 -0.6715  0.0256  0.2141
22020SOL    HW178119   2.005   7.047   5.008 -0.0447 -0.5627 -0.6033
22020SOL    HW278120   1.998   7.178   4.911 -1.0726  0.3939  0.7382
22021SOL     OW78121   8.810   5.564   8.057 -0.0264 -0.8597 -0.5649
22021SOL    HW178122   8.851   5.505   7.988  1.2230 -1.1737  0.4419
22021SOL    HW278123   8.753   5.509   8.119 -0.0227 -0.7896 -0.5002
22022SOL     OW78124   8.420   3.572   5.442  0.0038 -0.5536 -0.4183
22022SOL    HW178125   8.324   3.567   5.414 -0.8951  2.3556  1.9870
22022SOL    HW278126   8.431   3.531   5.532  0.9494 -0.4519 -0.4793
22023SOL     OW78127   9.190   9.033   6.263  0.3683  0.3335  0.6223
22023SOL    HW178128   9.279   9.075   6.246  0.1128  0.1513 -1.3262
22023SOL    HW278129   9.165   9.044   6.359  2.4951  0.3675  1.1926
22024SOL     OW78130   3.405   4.370   5.715 -0.3170 -0.0470 -0.1222
22024SOL    HW178131   3.425   4.465   5.692 -0.8037  0.0668 -0.0699
22024SOL    HW278132   3.378   4.364   5.811 -0.1779 -0.2563 -0.0956
22025SOL     OW78133   8.818   7.761   9.301  0.6637 -0.1484  0.1636
22025SOL    HW178134   8.766   7.805   9.375  0.9064  1.6600 -0.7066
22025SOL    HW278135   8.844   7.830   9.233  0.4300 -1.7944 -1.6346
22026SOL     OW78136   2.644   3.451   9.264 -0.5058 -0.3159 -0.2349
22026SOL    HW178137   2.743   3.439   9.271 -0.4137  0.3076 -0.4612
22026SOL    HW278138   2.622   3.506   9.184 -0.9878  0.1337  0.1965
22027SOL     OW78139   7.698   3.851   8.616  0.1657 -0.4423 -0.1890
22027SOL    HW178140   7.719   3.795   8.696 -0.2097  1.6073  1.3854
22027SOL    HW278141   7.781   3.898   8.586 -0.6286  2.4305  1.9165
22028SOL     OW78142   7.881   0.298   5.137  0.5902  0.3048  0.2932
22028SOL    HW178143   7.804   0.251   5.092  0.7611 -1.1295  1.4421
22028SOL    HW278144   7.945   0.331   5.069 -0.1656 -0.0772 -0.6100
22029SOL     OW78145   6.991   8.027   7.177  0.1697 -0.2201  0.6262
22029SOL    HW178146   6.934   8.087   7.121  2.3873  1.0179 -0.3433
22029SOL    HW278147   7.033   7.957   7.120  0.0678 -0.7903  1.2471
22030SOL     OW78148   0.687   8.377   4.356 -0.4743 -0.4628  0.0215
22030SOL    HW178149   0.781   8.407   4.341 -0.6886  0.2953  0.1747
22030SOL    HW278150   0.684   8.313   4.433 -0.3006  0.6854  0.9772
22031SOL     OW78151   2.087   0.318   3.414  0.1631 -0.1264  0.3395
22031SOL    HW178152   2.061   0.271   3.498  1.4264  0.3988  1.0286
22031SOL    HW278153   2.177   0.360   3.425  0.0632  0.4884 -1.0579
22032SOL     OW78154   6.376   9.018   4.121 -0.3553 -0.0114 -0.4395
22032SOL    HW178155   6.336   9.027   4.030  0.7311 -0.1569 -0.9381
22032SOL    HW278156   6.318   8.959   4.178 -2.0175  1.5500 -0.4390
22033SOL     OW78157   2.725   2.203   8.007  0.0087 -0.7613 -0.4227
22033SOL    HW178158   2.644   2.239   7.962  1.2900  0.8532 -1.5106
22033SOL    HW278159   2.733   2.243   8.099 -0.5866 -1.1643 -0.1948
22034SOL     OW78160   4.080   3.293   5.085 -0.0682 -0.0369  0.4939
22034SOL    HW178161   4.137   3.238   5.145  0.5108  1.6519  1.5171
22034SOL    HW278162   3.984   3.269   5.098  0.0415  0.4155  2.2357
22035SOL     OW78163   1.072   4.706   3.056 -0.4327 -0.5084  0.4770
22035SOL    HW178164   1.010   4.717   3.134  2.1077  0.3295  2.4459
22035SOL    HW278165   1.120   4.618   3.064  1.6342  0.6516  1.2390
22036SOL     OW78166   6.435   7.701   5.340 -0.2911  0.4368  0.1794
22036SOL    HW178167   6.383   7.616   5.348 -0.7014  0.5226 -1.3139
22036SOL    HW278168   6.440   7.746   5.429 -1.1849 -0.4948  0.7139
22037SOL     OW78169   3.283   7.830   2.327  0.2278  0.0435  0.5083
22037SOL    HW178170   3.343   7.910   2.321 -0.7460  0.8145  0.9350
22037SOL    HW278171   3.332   7.755   2.371  1.5586 -0.0046 -1.0089
22038SOL     OW78172   4.878   8.102   5.796  0.1265  0.5665  0.1224
22038SOL    HW178173   4.926   8.181   5.834  0.9777 -0.4836  1.2533
22038SOL    HW278174   4.779   8.116   5.804  0.2684  1.4063  0.5163
22039SOL     OW78175   2.632   0.505   7.179 -0.1616  0.2363 -0.7395
22039SOL    HW178176   2.715   0.480   7.129  0.3080  0.2389  0.0275
22039SOL    HW278177   2.650   0.500   7.277 -0.3700  2.5556 -0.5652
22040SOL     OW78178   1.564   0.241   2.695 -0.5759 -0.2135 -0.1932
22040SOL    HW178179   1.600   0.269   2.784 -0.2752 -0.5608 -0.2042
22040SOL    HW278180   1.468   0.217   2.704 -0.6261  0.0384 -0.0239
22041SOL     OW78181   3.533   7.268   2.145 -0.0743  0.2915  0.7051
22041SOL    HW178182   3.619   7.316   2.161  0.8895 -0.9888 -0.4915
22041SOL    HW278183   3.545   7.171   2.165 -0.8080 -0.1449 -0.8724
22042SOL     OW78184   6.291   4.546   1.818 -0.0158 -0.2424 -0.2317
22042SOL    HW178185   6.252   4.629   1.858 -0.9499 -0.2195 -1.1395
22042SOL    HW278186   6.382   4.565   1.782 -0.4378  0.5272 -0.9039
22043SOL     OW78187   4.319   7.554   3.836  0.5872 -0.1168 -0.1941
22043SOL    HW178188   4.383   7.557   3.913  2.1845 -1.9199 -1.4031
22043SOL    HW278189   4.288   7.461   3.823 -2.8346  0.8245  0.7427
22044SOL     OW78190   1.521   5.604   8.949 -0.0433 -0.0610 -0.4351
22044SOL    HW178191   1.616   5.624   8.972 -0.2647  1.3726 -0.7618
22044SOL    HW278192   1.515   5.565   8.857  0.0928  1.1488 -0.9609
22045SOL     OW78193   3.515   5.470   8.381  0.4329  0.5295  0.2937
22045SOL    HW178194   3.577   5.461   8.302 -1.8918 -0.3857 -1.4981
22045SOL    HW278195   3.454   5.548   8.366 -0.6617 -0.2321  0.7306
22046SOL     OW78196   4.161   2.971   2.107 -0.0744  0.2473 -0.3096
22046SOL    HW178197   4.148   3.069   2.088 -1.0376  0.2060  0.1382
22046SOL    HW278198   4.074   2.924   2.100  0.5312 -0.7576 -1.4672
22047SOL     OW78199   4.263   1.563   6.941  0.3596 -0.1169  0.0112
22047SOL    HW178200   4.217   1.474   6.936  1.2054 -0.6274  1.1701
22047SOL    HW278201   4.313   1.579   6.856  0.3192 -0.8079 -0.1510
22048SOL     OW78202   0.727   4.368   9.090 -0.0360 -0.0963  0.1610
22048SOL    HW178203   0.783   4.293   9.057  1.4782 -0.2917  2.9808
22048SOL    HW278204   0.638   4.333   9.119  0.2237 -0.6063  0.3481
22049SOL     OW78205   5.719   0.533   7.043 -0.6426 -0.9067 -0.0684
22049SOL    HW178206   5.749   0.501   7.133 -2.0399  0.8483  1.0485
22049SOL    HW278207   5.622   0.556   7.046 -0.3058  0.8193 -1.5506
22050SOL     OW78208   5.539   3.145   8.858 -0.2615  0.0467 -0.5355
22050SOL    HW178209   5.487   3.184   8.934 -0.7596  0.5712 -1.1341
22050SOL    HW278210   5.535   3.208   8.780 -2.2247 -1.7764 -1.9781
22051SOL     OW78211   0.204   6.490   8.247  0.2288  0.2242  0.2046
22051SOL    HW178212   0.188   6.469   8.150  1.3348  0.1486  0.0230
22051SOL    HW278213   0.197   6.588   8.262 -1.8666  0.0507  0.4352
22052SOL     OW78214   7.784   7.587   3.752 -0.0117 -0.2117  0.8073
22052SOL    HW178215   7.882   7.602   3.767 -0.0403  1.8522 -0.7518
22052SOL    HW278216   7.734   7.672   3.770 -1.2657 -0.6752 -0.3769
22053SOL     OW78217   0.264   7.303   8.383  0.1787  0.4000 -0.3796
22053SOL    HW178218   0.344   7.362   8.386  0.3145  0.3133 -1.8680
22053SOL    HW278219   0.292   7.211   8.356 -0.3420  0.2343 -0.3509
22054SOL     OW78220   2.170   0.380   5.399 -0.6234 -0.5579 -0.3346
22054SOL    HW178221   2.130   0.347   5.314 -1.2419  1.9098 -1.0382
22054SOL    HW278222   2.248   0.323   5.424 -1.4667 -2.3255 -1.6354
22055SOL     OW78223   4.971   1.111   4.212  0.0066 -0.0958 -0.1912
22055SOL    HW178224   5.047   1.048   4.226  0.1668  0.2637  0.5669
22055SOL    HW278225   4.991   1.171   4.134  0.0695 -0.6545 -0.6019
22056SOL     OW78226   0.901   7.114   4.898  0.2246 -0.2519  0.1623
22056SOL    HW178227   0.996   7.137   4.879  0.5148  0.4768  2.3438
22056SOL    HW278228   0.895   7.066   4.985 -1.4396 -0.0922  0.1527
22057SOL     OW78229   2.739   8.360   0.312  0.4503 -0.1809 -0.0741
22057SOL    HW178230   2.777   8.353   0.404  0.4278 -3.8155 -0.2483
22057SOL    HW278231   2.811   8.343   0.245 -0.3736 -2.0903 -0.5368
22058SOL     OW78232   3.147   0.151   5.520 -0.0785 -0.3896  0.6086
22058SOL    HW178233   3.124   0.222   5.587  0.1446 -1.3441  1.7174
22058SOL    HW278234   3.075   0.147   5.451 -1.5341 -0.9723  2.1082
22059SOL     OW78235   2.550   7.442   0.424  0.4491  0.4931  0.1050
22059SOL    HW178236   2.498   7.388   0.490  0.9319 -1.3752 -1.0105
22059SOL    HW278237   2.620   7.495   0.472  2.9025 -3.2466  0.8523
22060SOL     OW78238   1.431   2.901   3.911  0.2618 -0.0610  0.3371
22060SOL    HW178239   1.498   2.859   3.849 -0.0799 -0.9177  0.5421
22060SOL    HW278240   1.362   2.949   3.857  0.4526 -0.0667  0.0865
22061SOL     OW78241   7.311   8.315   6.120 -0.1046 -0.5663  0.0333
22061SOL    HW178242   7.378   8.258   6.167 -1.0153 -0.6105  1.3004
22061SOL    HW278243   7.263   8.261   6.052 -0.8869 -1.3128  1.1514
22062SOL     OW78244   7.341   0.861   4.401 -0.0553  0.2890  0.0327
22062SOL    HW178245   7.249   0.845   4.365 -0.8748  0.4899  1.9334
22062SOL    HW278246   7.400   0.897   4.330 -1.1856 -0.7812 -1.4767
22063SOL     OW78247   7.389   1.424   9.888 -0.0722 -0.1134 -0.2453
22063SOL    HW178248   7.386   1.324   9.876 -3.1585 -0.2104  0.9390
22063SOL    HW278249   7.446   1.446   9.967 -0.6153 -1.0565  0.4274
22064SOL     OW78250   9.895   6.330   4.114 -0.4150  0.6265 -0.2943
22064SOL    HW178251   9.991   6.305   4.119 -1.0333 -1.7558  0.0012
22064SOL    HW278252   9.867   6.373   4.199 -0.2120 -0.8801  0.5412
22065SOL     OW78253   3.940   9.910   3.535 -0.5680  0.1219 -0.3267
22065SOL    HW178254   3.957   9.860   3.620  1.5155 -0.5815 -1.1261
22065SOL    HW278255   3.915   9.846   3.462 -1.2767  0.6116 -0.5240
22066SOL     OW78256   1.238   1.839   0.219 -0.3607 -0.3294  0.2857
22066SOL    HW178257   1.246   1.922   0.274  1.6886 -0.9154  0.9096
22066SOL    HW278258   1.181   1.773   0.268 -0.9965  0.2438  0.3340
22067SOL     OW78259   9.529   4.429   1.199 -0.0618  0.1817  0.0955
22067SOL    HW178260   9.495   4.517   1.167 -2.6922 -0.3440  1.3182
22067SOL    HW278261   9.452   4.366   1.211  1.4911 -1.4534  1.7495
22068SOL     OW78262   9.822   4.572   4.698  0.9534 -0.3537 -0.0032
22068SOL    HW178263   9.829   4.644   4.767 -0.8927  0.0492 -0.2113
22068SOL    HW278264   9.791   4.487   4.741  0.6230 -0.3299 -0.1929
22069SOL     OW78265   9.885   0.039   6.749  0.0824  0.1676  0.7485
22069SOL    HW178266   9.801  -0.014   6.756  0.5544 -0.7535 -0.5217
22069SOL    HW278267   9.934   0.015   6.665  1.1648  1.3562  1.0109
22070SOL     OW78268   4.480   6.250   7.463  0.1951  0.2076 -0.1385
22070SOL    HW178269   4.425   6.306   7.401  1.6453  2.1782  0.3048
22070SOL    HW278270   4.452   6.265   7.557  0.4315  0.0139 -0.0345
22071SOL     OW78271   7.581   1.450   3.484 -0.1622  0.6164  0.0265
22071SOL    HW178272   7.633   1.534   3.465 -0.1105  0.1772 -1.7835
22071SOL    HW278273   7.485   1.474   3.500  0.1011  1.1572  0.8626
22072SOL     OW78274   2.184   5.447   0.702  0.1711 -0.4012  0.1412
22072SOL    HW178275   2.143   5.420   0.789 -2.0906  1.4258 -0.3045
22072SOL    HW278276   2.151   5.387   0.630  0.0790 -0.3628  0.1512
22073SOL     OW78277   8.014   9.923   6.891 -0.4057 -0.2362  0.7454
22073SOL    HW178278   8.011   9.872   6.977 -0.4047 -0.7965  0.4208
22073SOL    HW278279   7.961   9.873   6.822 -0.4179  0.2182  0.4288
22074SOL     OW78280   7.879   9.515   7.101  0.1101 -0.0247 -0.3669
22074SOL    HW178281   7.936   9.485   7.178  1.3847  1.6285 -0.6417
22074SOL    HW278282   7.796   9.460   7.098  0.7295 -1.0893  1.3048
22075SOL     OW78283   0.760   9.755   3.240 -0.0728 -0.2810 -0.0682
22075SOL    HW178284   0.787   9.771   3.335 -0.6571  1.2480 -0.1452
22075SOL    HW278285   0.660   9.753   3.234 -0.0316 -0.8680 -0.5784
22076SOL     OW78286   2.967   9.795   7.930 -0.4823 -0.2976 -0.2960
22076SOL    HW178287   3.009   9.704   7.930  2.3482  0.8581  3.9582
22076SOL    HW278288   2.874   9.788   7.966 -0.3347 -1.5402 -0.1167
22077SOL     OW78289   1.291   5.683   2.191 -0.2334 -0.3022  0.3541
22077SOL    HW178290   1.331   5.614   2.250  2.1640  0.7163  0.0016
22077SOL    HW278291   1.269   5.642   2.102  1.0685 -0.6482  0.1821
22078SOL     OW78292   1.973   4.970   1.750  0.1382 -0.5097  0.4551
22078SOL    HW178293   1.905   4.904   1.781  0.9660 -1.6619 -0.1364
22078SOL    HW278294   1.962   5.056   1.800 -1.7725 -0.6680  0.3087
22079SOL     OW78295   0.644   3.750   4.038  0.3405 -0.0312  0.2116
22079SOL    HW178296   0.675   3.838   4.073  1.9179 -0.7588  0.7092
22079SOL    HW278297   0.712   3.713   3.975 -1.6239  0.3975 -2.2541
22080SOL     OW78298   4.614   0.095   3.430  0.1200 -0.0958  0.3202
22080SOL    HW178299   4.671   0.013   3.424 -1.2773 -1.0154 -1.0059
22080SOL    HW278300   4.628   0.140   3.518 -0.5645 -2.8894  1.9280
22081SOL     OW78301   6.893   5.038   1.168  0.0781  0.5539  0.4099
22081SOL    HW178302   6.824   5.056   1.238 -0.0518  0.6394  0.2604
22081SOL    HW278303   6.905   5.120   1.111  0.0900  0.4415  0.2515
22082SOL     OW78304   3.665   4.721   1.997 -0.0673  0.3000 -0.0308
22082SOL    HW178305   3.684   4.794   2.062 -2.8042  0.8974  0.1487
22082SOL    HW278306   3.614   4.648   2.042  2.8291 -1.8756 -0.1516
22083SOL     OW78307   7.511   8.753   6.286 -0.2155 -0.3679  0.5453
22083SOL    HW178308   7.557   8.688   6.226  2.4127  0.7928  1.2386
22083SOL    HW278309   7.493   8.710   6.375  1.7841 -0.1126  1.1016
22084SOL     OW78310   7.076   9.717   1.548  0.2676 -0.3720  0.3899
22084SOL    HW178311   7.086   9.805   1.502  0.3522 -0.3599  0.4356
22084SOL    HW278312   7.126   9.718   1.634  1.4632 -0.9511 -0.2776
22085SOL     OW78313   7.970   5.224   1.943 -0.2156 -0.1134  0.2033
22085SOL    HW178314   7.945   5.134   1.908 -1.9223  0.4791 -0.1410
22085SOL    HW278315   8.070   5.231   1.948 -0.0673 -2.0419  0.3129
22086SOL     OW78316   3.223   9.432   1.463 -0.4387 -0.3986  0.2500
22086SOL    HW178317   3.281   9.462   1.387 -0.9849  1.1361  0.4155
22086SOL    HW278318   3.128   9.457   1.444 -0.7504 -1.0823  0.8993
22087SOL     OW78319   1.846   4.167   8.178 -0.4414  0.1598 -0.4939
22087SOL    HW178320   1.886   4.258   8.189  0.9979 -0.5246  0.0092
22087SOL    HW278321   1.810   4.136   8.266 -1.3207  0.4187 -0.7592
22088SOL     OW78322   3.202   5.248   3.862  0.1385  0.6950  0.1548
22088SOL    HW178323   3.190   5.344   3.835 -0.6902  0.4379 -0.4094
22088SOL    HW278324   3.253   5.244   3.948 -1.2257  1.7198  1.0225
22089SOL     OW78325   1.811   2.752   6.694  0.3373 -0.2631  0.5057
22089SOL    HW178326   1.712   2.739   6.699  0.2813 -0.0010  0.1072
22089SOL    HW278327   1.831   2.848   6.677  0.6136 -0.5288 -0.7542
22090SOL     OW78328   1.902   1.270   2.985 -0.4322  0.0037  0.2213
22090SOL    HW178329   1.831   1.251   2.917 -1.8695 -0.7623  1.8667
22090SOL    HW278330   1.910   1.191   3.046  1.3596  0.3796  0.4774
22091SOL     OW78331   1.891   0.497   1.901  0.1211  0.1005 -0.3669
22091SOL    HW178332   1.927   0.405   1.883  0.3142 -0.0807  0.8841
22091SOL    HW278333   1.791   0.494   1.904  0.0970  0.1011 -1.2249
22092SOL     OW78334   3.520   7.907   5.454  0.5696  0.0699 -0.3765
22092SOL    HW178335   3.543   8.005   5.453  0.6111  0.0593 -0.5611
22092SOL    HW278336   3.493   7.879   5.362 -1.0517  0.2889  0.0114
22093SOL     OW78337   3.982   8.997   4.402  0.3397 -0.4000 -0.2887
22093SOL    HW178338   3.965   8.956   4.313  0.2388 -2.7909  0.7922
22093SOL    HW278339   4.080   9.017   4.412  0.4223 -0.5899 -0.7290
22094SOL     OW78340   7.989   8.298   5.373  0.3677  0.2835  0.5210
22094SOL    HW178341   8.002   8.317   5.275 -0.7110 -1.2994  0.0484
22094SOL    HW278342   7.891   8.295   5.393  0.5461 -1.5042  1.2154
22095SOL     OW78343   8.641   5.880   8.241 -0.5121 -0.2726  0.6026
22095SOL    HW178344   8.625   5.881   8.340 -1.6759 -0.8072  0.4291
22095SOL    HW278345   8.633   5.973   8.205 -3.2957 -0.4816  0.5375
22096SOL     OW78346   4.489   5.175   8.799 -0.4476 -0.1324 -0.0799
22096SOL    HW178347   4.475   5.097   8.860 -0.6738  1.9646  2.6516
22096SOL    HW278348   4.405   5.193   8.748 -0.6687 -1.1224 -0.0719
22097SOL     OW78349   5.905   2.863   5.067 -0.3292 -0.3020  0.2205
22097SOL    HW178350   5.830   2.849   5.002 -0.2593  1.8010 -0.3615
22097SOL    HW278351   5.871   2.852   5.160 -0.2321 -4.2113 -0.1557
22098SOL     OW78352   5.068   1.580   1.101  0.3705 -0.5294  0.0786
22098SOL    HW178353   5.066   1.501   1.040 -1.2202  0.0616 -0.6592
22098SOL    HW278354   5.094   1.661   1.049 -2.1500  0.1919 -0.0907
22099SOL     OW78355   0.654   0.669   1.256 -0.1940 -0.7121  0.4112
22099SOL    HW178356   0.671   0.762   1.290 -3.1796  0.2216 -0.4941
22099SOL    HW278357   0.696   0.658   1.166  0.2895 -0.2757  0.5830
22100SOL     OW78358   6.411   1.848   6.275 -0.4880  0.3574 -0.0166
22100SOL    HW178359   6.443   1.935   6.313  0.4674 -0.0962  0.2160
22100SOL    HW278360   6.378   1.862   6.182 -0.2232  0.9426 -0.0222
22101SOL     OW78361   2.237   8.380   8.020  0.3618 -0.4095  0.1502
22101SOL    HW178362   2.153   8.361   7.970  1.0810  1.6119 -1.9445
22101SOL    HW278363   2.238   8.476   8.049  1.7801 -0.4896  0.4347
22102SOL     OW78364   0.508   6.067   7.602  0.4494 -0.2573  0.5442
22102SOL    HW178365   0.534   6.111   7.687  0.4815 -0.2716  0.5416
22102SOL    HW278366   0.437   5.998   7.619 -0.1633  0.3394  0.4387
22103SOL     OW78367   1.418   3.461   7.305  0.1688  0.3054  0.0982
22103SOL    HW178368   1.469   3.440   7.222 -0.4915  1.3370 -0.5821
22103SOL    HW278369   1.396   3.376   7.353  1.6883 -0.2107 -0.0868
22104SOL     OW78370   8.929   1.530   0.758  0.1325  0.3045 -0.0967
22104SOL    HW178371   8.933   1.590   0.678 -2.4482  0.7247  0.0473
22104SOL    HW278372   9.010   1.545   0.815 -0.6471  3.9971  0.1776
22105SOL     OW78373   9.568   4.456   9.981  0.2025  0.0291 -0.0277
22105SOL    HW178374   9.468   4.460   9.978  0.2155 -0.3217 -1.0050
22105SOL    HW278375   9.597   4.381  10.040 -0.1187 -0.3404 -0.3360
22106SOL     OW78376   9.586   9.850   1.138  0.0778  0.8654  0.1520
22106SOL    HW178377   9.684   9.869   1.144 -0.0837  1.3687  1.3461
22106SOL    HW278378   9.564   9.774   1.200 -0.3978  1.1988  0.3911
22107SOL     OW78379   5.027   3.191   9.294  0.2993 -0.5575 -0.4582
22107SOL    HW178380   4.976   3.138   9.362 -0.2245 -0.4678 -0.7733
22107SOL    HW278381   4.962   3.233   9.229  0.5494  2.0119  0.8760
22108SOL     OW78382   9.223   1.346   1.849  0.9288 -0.0629  0.1339
22108SOL    HW178383   9.154   1.411   1.819  1.3953 -0.5672 -2.1267
22108SOL    HW278384   9.305   1.395   1.878 -0.9892  0.6690  4.8185
22109SOL     OW78385   1.039   2.810   8.874  0.9938  0.3133 -0.0205
22109SOL    HW178386   0.992   2.871   8.810  1.7859 -0.4334 -1.3192
22109SOL    HW278387   1.127   2.851   8.899  0.9380  0.3274  0.1575
22110SOL     OW78388   3.049   2.386   8.864 -0.2457  0.2839  0.6926
22110SOL    HW178389   3.064   2.388   8.765 -0.8563  0.1422  0.5983
22110SOL    HW278390   2.951   2.392   8.884 -0.0869  0.9229  1.3070
22111SOL     OW78391   3.084   2.815   7.029  0.2356 -0.5776 -0.0106
22111SOL    HW178392   3.028   2.846   6.952 -0.8363 -0.3872  0.8244
22111SOL    HW278393   3.128   2.893   7.073  1.2385 -0.7367 -0.7201
22112SOL     OW78394   9.973   6.919   8.171 -0.2894  0.3522  0.9655
22112SOL    HW178395   9.978   6.854   8.247 -2.0146  0.7685  1.4427
22112SOL    HW278396   9.958   7.011   8.206 -1.3671  0.5135  0.1071
22113SOL     OW78397   4.556   6.255   1.605 -0.2604  0.3349 -0.3756
22113SOL    HW178398   4.511   6.188   1.545  0.6986 -0.9886  0.3409
22113SOL    HW278399   4.624   6.208   1.661  1.7498  2.2321 -1.1596
22114SOL     OW78400   8.008   0.163   5.597  0.5003  0.8437  0.5650
22114SOL    HW178401   7.973   0.231   5.533  1.9250  0.0953 -1.0529
22114SOL    HW278402   8.107   0.155   5.585  0.9002  1.1520  3.3225
22115SOL     OW78403   4.059   9.582   7.649  0.3466  0.3009 -0.1521
22115SOL    HW178404   4.046   9.679   7.668 -1.1075 -0.3406  2.3816
22115SOL    HW278405   4.098   9.571   7.557 -0.8935  3.1855 -1.0969
22116SOL     OW78406   8.365   9.956   8.165  0.4839 -0.2666  0.4260
22116SOL    HW178407   8.277   9.928   8.126 -0.1824  1.3278  0.7497
22116SOL    HW278408   8.407  10.026   8.108  1.3364 -0.6994  0.5129
22117SOL     OW78409   5.742   0.324   6.833 -0.1293 -0.5577 -0.3786
22117SOL    HW178410   5.830   0.327   6.786  0.0830  2.8818  0.1234
22117SOL    HW278411   5.728   0.409   6.884 -3.1069 -1.6489  0.7607
22118SOL     OW78412   0.960   1.819   0.364 -0.3118 -0.1619  0.5415
22118SOL    HW178413   1.002   1.910   0.365 -0.7337  0.0390  2.8784
22118SOL    HW278414   0.861   1.829   0.363 -0.3454 -0.6093 -0.5198
22119SOL     OW78415   8.099   3.027   4.468 -0.1661  0.6569 -0.3101
22119SOL    HW178416   8.105   3.064   4.561  1.5196 -1.0380  0.2738
22119SOL    HW278417   8.189   3.031   4.425 -0.6203  0.0171 -1.3313
22120SOL     OW78418   0.649   1.855   0.223  0.1397  0.5650 -0.0318
22120SOL    HW178419   0.713   1.925   0.189  0.6005 -0.1437 -0.6482
22120SOL    HW278420   0.567   1.854   0.165  0.3046  0.3365 -0.2667
22121SOL     OW78421   8.219   4.194   5.598  0.7511 -0.3592  0.1947
22121SOL    HW178422   8.172   4.217   5.513 -2.7505  2.4045  2.7376
22121SOL    HW278423   8.162   4.133   5.653  0.3115  2.4288  3.0004
22122SOL     OW78424   2.080   2.534   4.093  0.1428 -0.0482 -0.2512
22122SOL    HW178425   2.168   2.539   4.046 -0.1635  0.3139 -0.7882
22122SOL    HW278426   2.067   2.441   4.128  0.4124 -0.3063 -0.8145
22123SOL     OW78427   0.463   4.908   9.681  0.6765  0.2524 -0.1429
22123SOL    HW178428   0.455   5.002   9.715 -1.0800  2.0165 -5.0181
22123SOL    HW278429   0.558   4.891   9.653  0.5251  1.4359 -1.4413
22124SOL     OW78430   7.885   2.592   2.539 -0.0232  0.1025  0.6034
22124SOL    HW178431   7.947   2.600   2.462 -1.5597 -0.6765 -0.7491
22124SOL    HW278432   7.937   2.576   2.623  1.4617 -3.3905 -0.8994
22125SOL     OW78433   2.665   5.111   8.471  0.6851  0.4536  0.0130
22125SOL    HW178434   2.652   5.194   8.526 -0.5661  0.8378 -0.8351
22125SOL    HW278435   2.737   5.055   8.512  0.7472  1.4067  1.2466
22126SOL     OW78436   2.627   3.213   0.665  0.2294 -0.1967 -0.1804
22126SOL    HW178437   2.721   3.180   0.658  0.0053 -0.6510 -1.1752
22126SOL    HW278438   2.607   3.273   0.587  0.7016  2.5010  1.7219
22127SOL     OW78439   0.590   8.952   0.102 -0.0484  0.3118  0.0481
22127SOL    HW178440   0.673   8.903   0.129 -1.1973 -2.4949 -1.3153
22127SOL    HW278441   0.533   8.968   0.183  0.1024 -1.0792  0.4302
22128SOL     OW78442   7.786   2.075   5.150 -0.0876 -0.2424 -0.7327
22128SOL    HW178443   7.713   2.118   5.096  1.4093  1.5853 -1.3543
22128SOL    HW278444   7.783   2.111   5.243 -1.6754 -2.2208  0.0144
22129SOL     OW78445   4.233   3.305   4.813  0.2008  0.2561  0.6589
22129SOL    HW178446   4.181   3.228   4.774  0.2810  0.0446  0.9685
22129SOL    HW278447   4.186   3.339   4.895  0.2381  0.4483  0.6010
22130SOL     OW78448   3.520   7.304   7.787  0.3871  0.3160  0.8159
22130SOL    HW178449   3.516   7.251   7.872  0.4370  0.4387  0.8961
22130SOL    HW278450   3.528   7.402   7.810  1.5350  0.2644  0.6720
22131SOL     OW78451   6.706   8.724   6.835 -0.0946 -0.0993 -0.1674
22131SOL    HW178452   6.727   8.761   6.745  1.9249 -0.3270  0.1868
22131SOL    HW278453   6.734   8.628   6.839 -0.6217 -0.2275  0.5488
22132SOL     OW78454   9.982   2.391   8.153  0.3069 -0.4267 -0.0578
22132SOL    HW178455   9.959   2.487   8.142  0.3743 -0.5473 -1.4448
22132SOL    HW278456   9.990   2.349   8.062  3.7760 -0.9265  0.4306
22133SOL     OW78457   4.734   4.317   7.146  0.1171  0.3581 -0.4968
22133SOL    HW178458   4.695   4.369   7.070 -0.3609  0.4564 -0.1878
22133SOL    HW278459   4.661   4.269   7.195  0.0672  2.2787  1.4220
22134SOL     OW78460   9.327   6.197   0.412 -0.3159 -0.7260 -0.4376
22134SOL    HW178461   9.349   6.244   0.498 -1.1922 -1.5489  0.2485
22134SOL    HW278462   9.297   6.265   0.344  1.7399  0.1012 -0.5737
22135SOL     OW78463   5.224   2.407   0.344 -0.4621  0.3711 -0.2951
22135SOL    HW178464   5.220   2.400   0.444  0.7409  0.2029 -0.2452
22135SOL    HW278465   5.203   2.500   0.316  0.7090  0.8070  0.2324
22136SOL     OW78466   9.147   8.759   8.391 -0.1481 -0.2830 -0.9290
22136SOL    HW178467   9.191   8.670   8.385  0.4550  0.0687 -1.7473
22136SOL    HW278468   9.155   8.794   8.485  1.7030 -0.0215 -1.1646
22137SOL     OW78469   0.854   3.627   8.734  1.0155  0.3009 -0.4674
22137SOL    HW178470   0.951   3.648   8.728  1.4334 -1.1341  1.0552
22137SOL    HW278471   0.829   3.608   8.829 -0.9185  1.3953 -0.7255
22138SOL     OW78472   2.097   4.459   7.105 -0.2396 -0.7072  0.4668
22138SOL    HW178473   2.043   4.406   7.170 -1.9901  0.8582  0.3328
22138SOL    HW278474   2.153   4.397   7.050 -1.7608 -2.3630  0.7434
22139SOL     OW78475   2.902   1.058   2.558 -0.3705 -0.0507  0.1937
22139SOL    HW178476   2.917   1.013   2.470  2.0297 -0.8596  0.9877
22139SOL    HW278477   2.900   1.157   2.544 -0.3077 -0.1833 -0.8183
22140SOL     OW78478   1.420   8.724   6.681  0.2806  0.0094 -0.3487
22140SOL    HW178479   1.511   8.727   6.641  0.2424  2.3363 -0.3647
22140SOL    HW278480   1.400   8.632   6.715  2.8865 -0.3411  0.2755
22141SOL     OW78481   1.959   5.271   8.426 -0.3898 -0.2388 -0.3137
22141SOL    HW178482   1.988   5.344   8.364 -0.8187  0.9264  0.8506
22141SOL    HW278483   1.935   5.310   8.515 -1.9354 -1.6422 -0.1076
22142SOL     OW78484   2.351   8.453   4.112  0.5762  0.2138  0.9708
22142SOL    HW178485   2.410   8.534   4.118  2.4500 -1.1674  1.4500
22142SOL    HW278486   2.394   8.377   4.160 -1.4821 -0.9025  1.0822
22143SOL     OW78487   7.892   1.509   7.719  0.4389  0.3814 -0.6455
22143SOL    HW178488   7.985   1.520   7.684 -0.0598 -0.9107 -2.4838
22143SOL    HW278489   7.889   1.537   7.815  2.1861  2.6612 -1.2093
22144SOL     OW78490   5.954   0.763   2.639 -0.0805  0.2917 -0.1540
22144SOL    HW178491   5.860   0.743   2.610 -0.6959  1.2389  1.1622
22144SOL    HW278492   5.993   0.833   2.579 -0.3189  0.1199 -0.5117
22145SOL     OW78493   7.369   2.011  10.010 -0.0288  0.2890 -0.4498
22145SOL    HW178494   7.414   2.100  10.000 -0.3935  0.6135  0.7283
22145SOL    HW278495   7.314   1.993   9.929 -1.0428  1.7646 -0.1136
22146SOL     OW78496   2.313   9.734   1.126  0.1534 -0.2758  0.1896
22146SOL    HW178497   2.352   9.644   1.141  0.6175 -0.0037  0.6356
22146SOL    HW278498   2.353   9.776   1.045  0.2424 -0.3043  0.2192
22147SOL     OW78499   1.313   8.393   9.243  0.3076 -0.1774 -0.0455
22147SOL    HW178500   1.290   8.489   9.257 -0.3122 -0.2546 -0.5054
22147SOL    HW278501   1.286   8.340   9.323 -1.8581 -0.3917 -0.8923
22148SOL     OW78502   2.451   9.319   5.618 -0.0197 -0.7376  0.9079
22148SOL    HW178503   2.411   9.227   5.617  1.4654 -1.4105  1.4459
22148SOL    HW278504   2.464   9.349   5.712 -0.7868  0.1502  0.7272
22149SOL     OW78505   3.103   1.993   9.583  0.6907 -0.0011 -0.5779
22149SOL    HW178506   3.067   2.038   9.664  0.6135 -1.0752 -0.0134
22149SOL    HW278507   3.165   1.920   9.610 -0.9604 -1.7549 -1.4238
22150SOL     OW78508   9.618   8.144   0.887  0.7102 -0.0643 -0.1482
22150SOL    HW178509   9.603   8.076   0.958 -0.4929  0.2911 -0.0573
22150SOL    HW278510   9.716   8.163   0.880  0.9709 -1.1505  0.4213
22151SOL     OW78511   0.265   4.220   7.616  0.3460 -0.3168  0.0649
22151SOL    HW178512   0.264   4.132   7.569 -2.7524 -0.0710 -0.4584
22151SOL    HW278513   0.276   4.205   7.715  2.0401 -1.1310 -0.2365
22152SOL     OW78514   7.500   3.861   1.905  0.4089  0.6548 -0.1480
22152SOL    HW178515   7.459   3.774   1.933  0.0756  1.6861  2.7580
22152SOL    HW278516   7.592   3.845   1.869 -0.3150 -1.0675 -1.2646
22153SOL     OW78517   0.080   9.885   9.322 -0.2817 -0.1762 -0.3070
22153SOL    HW178518   0.004   9.915   9.265 -1.8679  0.8615  2.3045
22153SOL    HW278519   0.158   9.945   9.307 -0.1489 -0.8248 -2.4689
22154SOL     OW78520   3.272   8.925   8.791 -0.2131  0.1911  0.0649
22154SOL    HW178521   3.200   8.991   8.769 -0.2398  0.3726  0.6810
22154SOL    HW278522   3.325   8.959   8.869  0.2433 -0.1661 -0.0870
22155SOL     OW78523   5.340   3.753   7.399  0.3394 -0.4391 -0.0104
22155SOL    HW178524   5.298   3.673   7.356 -0.7256  0.2530 -0.2831
22155SOL    HW278525   5.276   3.830   7.394  0.0511 -0.4121  3.0589
22156SOL     OW78526   8.902   3.056   8.502  0.2568  0.2936 -0.2887
22156SOL    HW178527   8.944   3.041   8.591  1.5710  0.8397 -0.8058
22156SOL    HW278528   8.964   3.026   8.430 -0.6800  0.1086 -1.0363
22157SOL     OW78529   1.873   8.041   8.183 -0.5227  0.0663  0.3179
22157SOL    HW178530   1.969   8.014   8.174 -0.9161 -0.7591 -1.6047
22157SOL    HW278531   1.863   8.136   8.155 -0.6454 -0.5783 -1.9612
22158SOL     OW78532   9.857   8.377   4.549 -0.0603  0.0042 -0.3682
22158SOL    HW178533   9.857   8.426   4.636  2.1278 -0.8139  0.1253
22158SOL    HW278534   9.806   8.292   4.559 -1.6676  0.9305 -0.5111
22159SOL     OW78535   4.571   7.903   2.045 -0.0987  0.4223  0.7563
22159SOL    HW178536   4.577   7.955   2.130  0.1102  1.5125  0.0885
22159SOL    HW278537   4.519   7.955   1.977 -0.8284 -0.7210  0.4197
22160SOL     OW78538   7.546   5.923   0.439 -0.5165  0.7991 -0.0500
22160SOL    HW178539   7.642   5.939   0.463 -0.1612 -0.5403 -0.5245
22160SOL    HW278540   7.494   6.007   0.453  0.3010  0.9775  2.2396
22161SOL     OW78541   1.891   1.011   0.704 -0.1768  0.4201  0.7265
22161SOL    HW178542   1.903   0.922   0.661 -1.8086  0.8545 -0.6416
22161SOL    HW278543   1.905   1.002   0.803  1.1944 -1.0333  0.4307
22162SOL     OW78544   1.975   3.787   6.977  0.0148 -0.4514 -0.6899
22162SOL    HW178545   1.926   3.802   6.891 -1.6570 -0.0628  0.3102
22162SOL    HW278546   2.043   3.715   6.964 -0.4826 -0.6651 -2.2431
22163SOL     OW78547   4.629   8.553   4.835 -0.7127  0.4867 -0.3888
22163SOL    HW178548   4.672   8.593   4.754 -1.5094 -0.1270 -1.1138
22163SOL    HW278549   4.698   8.506   4.889  0.0137  1.7527 -0.1755
22164SOL     OW78550   0.683   6.197   2.583  0.1180 -0.1735  0.5973
22164SOL    HW178551   0.726   6.245   2.659 -0.7532  0.2851  0.8063
22164SOL    HW278552   0.596   6.241   2.561  0.7805  0.2688 -1.2604
22165SOL     OW78553   4.312   6.294   1.396  0.2760 -0.1881  0.8736
22165SOL    HW178554   4.309   6.256   1.489 -0.7956 -0.9441  0.5374
22165SOL    HW278555   4.224   6.336   1.374  0.4060 -0.3259  0.0667
22166SOL     OW78556   4.689   4.063   0.914 -0.2327  0.2027 -0.8469
22166SOL    HW178557   4.684   4.158   0.886  0.4155  0.0791 -1.4050
22166SOL    HW278558   4.762   4.052   0.983  2.8165 -0.6223 -4.0343
22167SOL     OW78559   9.124   0.103   4.110  0.7688 -0.1890 -0.2111
22167SOL    HW178560   9.176   0.038   4.167  0.2826 -0.2941  0.1205
22167SOL    HW278561   9.029   0.105   4.141  0.6594  0.2804 -0.5747
22168SOL     OW78562   3.169   7.922   5.460 -0.0069  0.3565  0.1872
22168SOL    HW178563   3.202   7.983   5.533  1.5811  0.5167 -0.6339
22168SOL    HW278564   3.157   7.974   5.376 -1.0832  0.0191  0.1326
22169SOL     OW78565   1.325   8.813   6.016 -0.7852  0.0693  0.3584
22169SOL    HW178566   1.329   8.713   6.023 -0.4576  0.1764  1.7209
22169SOL    HW278567   1.234   8.845   6.040 -1.5526 -0.0511 -2.2005
22170SOL     OW78568   9.905   1.618   9.613  0.0726  0.4778  0.3636
22170SOL    HW178569   9.829   1.558   9.586 -0.4691  0.9820  0.7470
22170SOL    HW278570   9.891   1.650   9.707  0.0702  1.6329 -0.0143
22171SOL     OW78571   2.493   8.355   4.491  0.1683 -0.1975  0.4447
22171SOL    HW178572   2.450   8.291   4.427  1.4759 -0.8079  0.1716
22171SOL    HW278573   2.547   8.304   4.558 -0.6977  0.4737  1.6845
22172SOL     OW78574   8.201   0.190   3.772  0.2066  0.6555  0.3039
22172SOL    HW178575   8.185   0.171   3.676  0.8404  2.2214 -0.1273
22172SOL    HW278576   8.116   0.177   3.823  0.0547 -0.9473 -0.3151
22173SOL     OW78577   1.848   2.614   2.214  0.1379  0.1935 -0.4307
22173SOL    HW178578   1.837   2.679   2.139 -0.0007 -0.2216 -0.7677
22173SOL    HW278579   1.900   2.657   2.287 -1.1501  1.1691 -0.0604
22174SOL     OW78580   6.025   6.094   0.175  0.1265  0.1191  0.9117
22174SOL    HW178581   6.044   5.996   0.176 -1.3020 -0.2194 -1.4224
22174SOL    HW278582   6.108   6.144   0.201  0.6868 -1.7035  2.7408
22175SOL     OW78583   0.580   1.515   8.953  0.5984  0.1660 -1.0001
22175SOL    HW178584   0.630   1.435   8.984  0.4364 -0.0766 -1.3676
22175SOL    HW278585   0.638   1.570   8.893  0.5396  0.0639 -1.1494
22176SOL     OW78586   1.247   2.455   1.665  0.2281  0.1476  0.1586
22176SOL    HW178587   1.162   2.508   1.666  1.4146  2.1334 -1.3024
22176SOL    HW278588   1.246   2.390   1.741 -1.5990  1.7264  1.5471
22177SOL     OW78589   3.529   8.386   4.133  0.2873 -0.0520  0.3269
22177SOL    HW178590   3.486   8.339   4.056 -2.0730  0.0804  1.5397
22177SOL    HW278591   3.499   8.481   4.135  1.3328  0.2781  0.6784
22178SOL     OW78592   0.811   3.264   0.096 -0.1254  0.0027  0.4559
22178SOL    HW178593   0.776   3.354   0.124 -0.9621 -0.2072  0.1113
22178SOL    HW278594   0.823   3.207   0.177  1.5535  0.8197  0.7907
22179SOL     OW78595   0.626   3.532   8.599 -0.4391  0.2854  0.4184
22179SOL    HW178596   0.701   3.575   8.648  0.5965 -0.9944 -0.0240
22179SOL    HW278597   0.612   3.439   8.633 -1.7834  0.4848  0.4576
22180SOL     OW78598   0.680   6.740   4.862  0.0750  0.3051 -0.4977
22180SOL    HW178599   0.624   6.724   4.943  2.7623 -2.7786  0.8815
22180SOL    HW278600   0.701   6.838   4.855  0.8080  0.4796  3.2612
22181SOL     OW78601   6.921   9.454   1.828  0.2308 -0.2983 -0.7490
22181SOL    HW178602   6.962   9.460   1.738  1.1240  0.3811 -0.3022
22181SOL    HW278603   6.988   9.416   1.893  0.2374  1.0082  0.0226
22182SOL     OW78604   3.493   2.508   7.443 -0.6927  0.0828  0.0876
22182SOL    HW178605   3.559   2.583   7.451 -0.4335 -0.1066 -0.2677
22182SOL    HW278606   3.401   2.543   7.457 -0.6527  0.6394 -1.0177
22183SOL     OW78607   7.390   8.390   5.219 -0.3085  0.4511  0.0064
22183SOL    HW178608   7.326   8.316   5.238 -0.3179  0.1828 -1.0231
22183SOL    HW278609   7.470   8.353   5.171 -0.3704  1.1156 -0.6243
22184SOL     OW78610   9.367   4.960   2.389  0.1020  0.3257  0.3042
22184SOL    HW178611   9.280   4.926   2.352  0.9763 -0.6519 -0.9166
22184SOL    HW278612   9.399   4.897   2.459  0.3420  0.1312  0.0188
22185SOL     OW78613   9.445   5.438   3.964 -0.2052 -0.1445 -0.1329
22185SOL    HW178614   9.434   5.517   3.903 -0.4011 -0.0767 -0.0101
22185SOL    HW278615   9.445   5.469   4.059  0.0012 -0.2628 -0.0942
22186SOL     OW78616   1.942   0.472   4.067 -0.1965  0.4201  0.1683
22186SOL    HW178617   1.955   0.540   4.140  0.0214  1.2316 -0.6109
22186SOL    HW278618   1.911   0.386   4.107 -3.3878  1.8288  0.9281
22187SOL     OW78619   8.423   5.519   4.261  0.1896  0.0644 -0.0048
22187SOL    HW178620   8.461   5.450   4.321 -0.7100  0.9551  1.6259
22187SOL    HW278621   8.497   5.578   4.227  0.8121 -1.0076 -0.5418
22188SOL     OW78622   6.735   2.588  10.014  0.3002  0.3868 -0.1599
22188SOL    HW178623   6.651   2.639   9.996 -0.5041 -0.2026  1.7540
22188SOL    HW278624   6.786   2.633  10.088  0.7808 -0.2319 -0.1083
22189SOL     OW78625   9.926   1.212   9.317 -0.0904 -0.3690 -0.0395
22189SOL    HW178626   9.959   1.120   9.336  1.3035 -0.4523 -2.6349
22189SOL    HW278627   9.969   1.277   9.379  0.9764 -1.1369  0.0276
22190SOL     OW78628   5.085   0.138   4.569  0.4124 -0.2754  0.4489
22190SOL    HW178629   5.173   0.144   4.522  0.7195  0.4639  1.1065
22190SOL    HW278630   5.094   0.176   4.661 -0.3253 -1.1812  0.9102
22191SOL     OW78631   1.691   7.107   4.943  0.4253 -0.4184  0.1093
22191SOL    HW178632   1.598   7.094   4.978  0.2217  1.6183  0.3472
22191SOL    HW278633   1.756   7.058   5.002 -0.2099  0.6601  1.7327
22192SOL     OW78634   7.375   5.957   2.912 -0.3837 -0.4533 -0.6217
22192SOL    HW178635   7.305   5.908   2.860 -0.8962 -1.1911  0.7330
22192SOL    HW278636   7.444   5.892   2.944 -1.0565 -0.3014  1.1712
22193SOL     OW78637   5.169   0.559   4.689 -0.4107  0.0334 -0.0392
22193SOL    HW178638   5.188   0.648   4.647  2.0798 -1.3653 -2.0552
22193SOL    HW278639   5.255   0.508   4.698 -1.6648 -1.7578  2.0521
22194SOL     OW78640   5.194   9.484   4.330 -0.0382 -0.0513  0.1480
22194SOL    HW178641   5.216   9.581   4.338 -1.7695  0.2811  1.1338
22194SOL    HW278642   5.258   9.440   4.267  0.5386  1.8057 -0.5838
22195SOL     OW78643   8.498   6.379   0.819  0.1034 -0.0574 -0.0089
22195SOL    HW178644   8.527   6.448   0.752  0.2075 -0.0245  0.0694
22195SOL    HW278645   8.460   6.300   0.772  0.9695 -0.4011 -0.1448
22196SOL     OW78646   6.753   8.237   5.764 -0.2841 -0.4737  0.1325
22196SOL    HW178647   6.816   8.295   5.817 -1.4767 -0.8247  1.9632
22196SOL    HW278648   6.791   8.145   5.757  0.4261 -0.1278 -0.6209
22197SOL     OW78649   4.979   9.401   8.102  0.1783 -0.3502 -0.1292
22197SOL    HW178650   4.894   9.357   8.132 -0.2613 -0.5466 -1.5924
22197SOL    HW278651   4.957   9.469   8.032  1.3723 -1.4027 -1.5530
22198SOL     OW78652   2.022   8.538   3.685 -0.4598  0.4644 -0.1761
22198SOL    HW178653   2.021   8.625   3.636 -0.6142 -0.3385 -1.6014
22198SOL    HW278654   2.063   8.552   3.776 -1.4645  2.2380  0.0382
22199SOL     OW78655   5.696   8.828   6.037 -0.0554  0.2881  0.2746
22199SOL    HW178656   5.635   8.770   6.090  1.4182 -1.0698  0.5272
22199SOL    HW278657   5.644   8.873   5.964 -1.4651 -0.3179  0.8830
22200SOL     OW78658   4.063   3.782   6.965 -0.0418  0.5875 -0.1028
22200SOL    HW178659   4.048   3.737   6.877 -0.8270  0.1010  0.2641
22200SOL    HW278660   4.160   3.783   6.987  0.1316  0.5154 -0.8722
22201SOL     OW78661   9.273   1.615   7.761  0.0368  0.1550  0.0871
22201SOL    HW178662   9.302   1.685   7.696  1.9165 -0.5274  0.1360
22201SOL    HW278663   9.269   1.526   7.715  0.6200 -0.1982  0.6954
22202SOL     OW78664   4.457   9.005   6.208  0.6073  0.1321 -0.2581
22202SOL    HW178665   4.443   9.031   6.304  0.1734  0.4097 -0.3943
22202SOL    HW278666   4.530   8.937   6.202  3.0792  2.6341 -0.0374
22203SOL     OW78667   2.241   2.254   3.948  0.2346 -0.2097 -0.3041
22203SOL    HW178668   2.294   2.338   3.959 -0.3313  0.0944  0.1302
22203SOL    HW278669   2.168   2.270   3.882 -1.3297  0.3542  1.5127
22204SOL     OW78670   5.487   1.400   9.952 -0.4464  0.5545 -0.1782
22204SOL    HW178671   5.473   1.430   9.857 -1.2898  0.6527 -0.0294
22204SOL    HW278672   5.419   1.330   9.974  0.0008  0.2494  0.2312
22205SOL     OW78673   1.929   6.208   6.804 -0.1366  0.0025  0.1694
22205SOL    HW178674   1.968   6.222   6.713 -1.2399  2.0454 -0.0195
22205SOL    HW278675   2.003   6.197   6.871  0.7513  1.7079 -0.4956
22206SOL     OW78676   8.947   1.431   0.227  0.0408  0.3564  0.1121
22206SOL    HW178677   8.868   1.491   0.210 -1.4032 -1.5106  0.1341
22206SOL    HW278678   8.962   1.373   0.148  1.3106  0.5979  0.1753
22207SOL     OW78679   0.719   8.800   7.618 -0.0329  0.4044  0.0072
22207SOL    HW178680   0.738   8.714   7.666 -0.8210 -0.0825 -0.5466
22207SOL    HW278681   0.681   8.780   7.528 -0.5030  1.3415 -0.0014
22208SOL     OW78682   4.661   9.266   8.506 -0.1040  0.1006 -0.5837
22208SOL    HW178683   4.677   9.237   8.601  2.3812 -1.7400 -1.4965
22208SOL    HW278684   4.692   9.194   8.444 -1.1430  1.5377 -2.8225
22209SOL     OW78685   9.211   7.510   2.642 -0.3194 -0.2981 -0.7399
22209SOL    HW178686   9.307   7.533   2.658 -0.5194 -0.0000  0.0811
22209SOL    HW278687   9.192   7.509   2.544 -0.0762  2.1931 -0.8489
22210SOL     OW78688   1.210   4.152   8.484  0.0713 -0.2238  0.7681
22210SOL    HW178689   1.236   4.151   8.388 -0.6410  0.4227  0.5590
22210SOL    HW278690   1.125   4.101   8.496 -1.0590  1.5755  0.6709
22211SOL     OW78691   4.953   2.483   5.458  0.6545  0.3667  0.7153
22211SOL    HW178692   4.969   2.434   5.544 -2.1971  0.1364  1.1639
22211SOL    HW278693   4.919   2.575   5.478 -1.1328 -0.0846 -0.1175
22212SOL     OW78694   3.178   1.937   5.347 -0.3263  0.4129 -0.7128
22212SOL    HW178695   3.191   2.028   5.386 -0.7919  0.9447 -1.7684
22212SOL    HW278696   3.113   1.942   5.271 -1.5024 -1.0582  0.1750
22213SOL     OW78697   5.822   8.915   7.280  0.1142  0.1647 -0.2179
22213SOL    HW178698   5.809   8.892   7.376 -1.0730  0.2977 -0.3426
22213SOL    HW278699   5.835   8.831   7.227 -0.4034  0.0232 -0.1176
22214SOL     OW78700   4.746   6.986   1.262 -0.3761  0.0260  1.3738
22214SOL    HW178701   4.830   7.015   1.307 -0.1790 -0.5190  1.3625
22214SOL    HW278702   4.674   6.972   1.331 -0.6771  1.2040  1.3159
22215SOL     OW78703   7.003   8.681   1.759  0.4624 -0.8901 -0.0697
22215SOL    HW178704   7.077   8.674   1.826  0.0668 -1.3395  0.3233
22215SOL    HW278705   7.042   8.704   1.670  1.0438 -0.7875  0.2029
22216SOL     OW78706   6.554   6.964   5.131 -0.0514  0.1410 -0.2301
22216SOL    HW178707   6.494   7.041   5.108  0.0370  0.3686  0.2728
22216SOL    HW278708   6.558   6.954   5.231  0.3759 -0.1665 -0.2763
22217SOL     OW78709   8.613   3.321   7.547 -0.2988  0.4240  0.1665
22217SOL    HW178710   8.705   3.325   7.586 -1.1439  1.6045  2.1444
22217SOL    HW278711   8.607   3.385   7.470  0.0381  1.7655  1.2211
22218SOL     OW78712   3.603   3.217   4.244  0.2879  0.5104  0.3185
22218SOL    HW178713   3.544   3.284   4.200  1.5980  1.2933 -0.2741
22218SOL    HW278714   3.641   3.256   4.328  0.0818  0.0641  0.6206
22219SOL     OW78715   0.290   4.293   1.065  0.1139  0.1118  0.5726
22219SOL    HW178716   0.275   4.194   1.063 -2.3656  0.4599  0.8906
22219SOL    HW278717   0.363   4.314   1.130  0.0064 -1.4169  1.2156
22220SOL     OW78718   3.120   5.753   8.248  0.5049  0.2361  0.2932
22220SOL    HW178719   3.191   5.727   8.314  2.6684  1.6525 -1.4111
22220SOL    HW278720   3.109   5.680   8.181  1.7853  0.8610 -0.6002
22221SOL     OW78721   0.453   0.207   7.489 -0.0529  0.5143  0.5095
22221SOL    HW178722   0.358   0.177   7.496  0.2692 -1.0576 -1.3376
22221SOL    HW278723   0.513   0.128   7.497  1.0597  1.3869  0.7804
22222SOL     OW78724   9.957   5.119   9.781  0.2125 -0.1004 -0.7467
22222SOL    HW178725   9.864   5.099   9.812  0.9300  0.1223  1.7003
22222SOL    HW278726   9.975   5.217   9.791 -0.4426  0.4714 -4.5965
22223SOL     OW78727   0.818   9.992   0.903  0.2936  0.4771  0.2616
22223SOL    HW178728   0.874  10.012   0.823 -1.6009 -0.1016 -1.2442
22223SOL    HW278729   0.858  10.036   0.984  0.7123  3.4393 -1.4938
22224SOL     OW78730   7.858   4.441   9.848  0.2054  0.0217 -0.5635
22224SOL    HW178731   7.936   4.450   9.910  0.4483 -3.7370 -0.1929
22224SOL    HW278732   7.890   4.442   9.753  0.6021 -0.5098 -0.4378
22225SOL     OW78733   8.487   5.366   7.870 -0.5199 -0.2330  0.8410
22225SOL    HW178734   8.434   5.330   7.793 -0.0155  1.0544 -0.1124
22225SOL    HW278735   8.471   5.464   7.879  0.5378 -0.1123  1.4826
22226SOL     OW78736   2.427   7.868   5.324 -0.0170 -0.4698 -0.5229
22226SOL    HW178737   2.499   7.799   5.321  0.1199 -0.3299 -0.4759
22226SOL    HW278738   2.400   7.893   5.231 -0.3113 -0.8409 -0.5366
22227SOL     OW78739   7.521   4.681   1.369 -0.0401  0.1337 -0.3351
22227SOL    HW178740   7.559   4.636   1.450 -0.7236  0.0575 -0.0473
22227SOL    HW278741   7.592   4.732   1.322 -0.0049  1.6096  1.2779
22228SOL     OW78742   1.128   8.333   5.515  0.8490 -0.0372  0.3594
22228SOL    HW178743   1.151   8.248   5.467 -2.0036 -0.3110 -0.6435
22228SOL    HW278744   1.196   8.351   5.585  2.3333 -2.3597 -0.4165
22229SOL     OW78745   3.436   1.745   1.438  0.4067  0.1419  0.0970
22229SOL    HW178746   3.497   1.704   1.370  0.1951 -1.3079  0.7555
22229SOL    HW278747   3.473   1.834   1.466  1.0350  0.2842 -1.1373
22230SOL     OW78748   1.070   8.993   4.072  0.1134  0.0080  0.1860
22230SOL    HW178749   1.159   8.949   4.060  0.2762  0.1325  0.8998
22230SOL    HW278750   1.016   8.984   3.988  1.5656  1.6630 -0.9309
22231SOL     OW78751   4.856   5.728   1.748 -0.4249  0.0552 -0.2963
22231SOL    HW178752   4.804   5.788   1.809 -1.2981 -0.5467 -0.4361
22231SOL    HW278753   4.839   5.755   1.653 -0.6122 -0.2407 -0.3481
22232SOL     OW78754   0.126   0.418   5.723  0.3308  0.5158 -0.1272
22232SOL    HW178755   0.220   0.383   5.728  0.0810  0.0983  2.3934
22232SOL    HW278756   0.062   0.341   5.718  0.0573  0.7818 -0.8816
22233SOL     OW78757   7.876   0.171   7.373  0.2017 -0.3436 -0.5460
22233SOL    HW178758   7.794   0.166   7.430  0.0514  0.3014 -0.7058
22233SOL    HW278759   7.919   0.081   7.368 -0.2302 -0.5737 -0.0670
22234SOL     OW78760   1.450   0.792   0.617  0.6534 -0.0446  0.0547
22234SOL    HW178761   1.541   0.751   0.626 -0.3211 -2.0787  0.8131
22234SOL    HW278762   1.403   0.788   0.705 -0.5994 -0.0546 -0.6110
22235SOL     OW78763   7.600   7.749   8.807 -0.4067  0.3492  0.1921
22235SOL    HW178764   7.679   7.706   8.763 -0.4639 -0.1650  0.5800
22235SOL    HW278765   7.556   7.812   8.743 -0.1475  0.0431 -0.2918
22236SOL     OW78766   6.101   3.949   0.036  0.0165 -0.4435  0.0906
22236SOL    HW178767   6.008   3.913   0.047 -0.5249  0.6549 -0.8385
22236SOL    HW278768   6.105   4.008  -0.044  0.8177  1.8062  1.7404
22237SOL     OW78769   4.518   1.550   9.097 -0.4254 -0.0689  0.5823
22237SOL    HW178770   4.434   1.582   9.141  0.1058  1.1860  0.7093
22237SOL    HW278771   4.503   1.459   9.059 -1.7669  0.0453  0.8070
22238SOL     OW78772   7.678   9.524   1.884  0.1826 -0.1684 -0.3994
22238SOL    HW178773   7.774   9.505   1.868  0.0453 -0.9226 -0.3354
22238SOL    HW278774   7.622   9.472   1.819 -0.4064 -3.6699  2.7266
22239SOL     OW78775   7.502   3.387   0.313 -0.1989  0.2651 -0.2422
22239SOL    HW178776   7.545   3.422   0.397 -0.9111  0.7448 -0.0773
22239SOL    HW278777   7.481   3.463   0.252 -1.0688  0.0603 -0.1996
22240SOL     OW78778   8.406   3.209   6.888 -0.1972  0.1675  0.1337
22240SOL    HW178779   8.376   3.289   6.941 -1.5681 -0.9413  1.0572
22240SOL    HW278780   8.423   3.133   6.951  0.6191 -0.4148 -0.7920
22241SOL     OW78781   3.510   6.997   0.159  0.0634  0.4583 -0.2883
22241SOL    HW178782   3.474   6.953   0.241 -0.5882  0.3429 -0.6345
22241SOL    HW278783   3.509   6.932   0.083 -1.7796  1.3259 -1.0377
22242SOL     OW78784   2.406   2.975   6.590 -0.1328 -0.0136 -0.2493
22242SOL    HW178785   2.425   2.973   6.492 -1.2488 -3.5493 -0.4545
22242SOL    HW278786   2.318   2.931   6.607 -0.2740  1.1897  2.3040
22243SOL     OW78787   1.151   3.385   9.988  0.3677 -0.1884  0.1710
22243SOL    HW178788   1.250   3.372   9.989  0.4917  0.4966 -1.4749
22243SOL    HW278789   1.118   3.402  10.081  1.8813  0.2878  0.6236
22244SOL     OW78790   5.379   8.740   7.238  0.2446 -0.3380  0.0496
22244SOL    HW178791   5.354   8.837   7.241  1.3759 -0.0183 -0.4724
22244SOL    HW278792   5.467   8.727   7.284  0.2275 -1.0695 -0.1223
22245SOL     OW78793   7.409   6.557   2.457 -0.4498  0.0924  0.1794
22245SOL    HW178794   7.313   6.585   2.465 -0.8253 -1.2981  0.8940
22245SOL    HW278795   7.422   6.506   2.372 -0.1794  0.9015 -0.2638
22246SOL     OW78796   3.619   0.670   9.714 -0.9023  0.3065 -0.2709
22246SOL    HW178797   3.719   0.662   9.720 -0.9297 -0.9290 -1.1634
22246SOL    HW278798   3.583   0.710   9.799  0.2163 -0.6117  0.6478
22247SOL     OW78799   8.831   2.032   5.947 -0.3012  0.6486  0.1271
22247SOL    HW178800   8.819   2.131   5.956 -1.9986  0.3944  0.9008
22247SOL    HW278801   8.911   2.003   6.000 -0.3672  1.4818  0.6901
22248SOL     OW78802   1.102   4.595   5.794  0.1225 -0.0435 -0.5404
22248SOL    HW178803   1.054   4.547   5.869 -0.5711 -1.4978 -1.8860
22248SOL    HW278804   1.129   4.686   5.825 -0.3950 -0.5240  1.4019
22249SOL     OW78805   6.377   9.128   7.578 -0.1644  0.3412 -0.1157
22249SOL    HW178806   6.277   9.131   7.581 -0.1396 -0.1049  1.1728
22249SOL    HW278807   6.412   9.084   7.660  1.0990  0.4724 -0.5730
22250SOL     OW78808   4.181   5.974   0.788 -0.4390  0.1318  0.2876
22250SOL    HW178809   4.267   5.997   0.833 -0.2806 -1.2231  0.7024
22250SOL    HW278810   4.105   6.021   0.833  0.0511  1.1915  0.0311
22251SOL     OW78811   1.895   2.220   0.831  0.0408 -0.0900 -0.6026
22251SOL    HW178812   1.970   2.276   0.797 -0.5620  1.3632  0.4018
22251SOL    HW278813   1.926   2.166   0.909 -0.0337  0.7644  0.0248
22252SOL     OW78814   1.883   7.231   4.793  0.3537  0.1275 -0.5755
22252SOL    HW178815   1.854   7.323   4.767 -0.5824  0.7337  2.3992
22252SOL    HW278816   1.803   7.178   4.819  1.2753 -0.1894  1.6921
22253SOL     OW78817   0.650   0.218   8.320 -0.0481  0.0847  0.4816
22253SOL    HW178818   0.577   0.247   8.258  1.7493  1.4731 -1.0254
22253SOL    HW278819   0.696   0.138   8.282 -0.1109 -0.1662  0.9300
22254SOL     OW78820   6.237   9.337   6.272 -0.2715 -0.0480  0.1159
22254SOL    HW178821   6.233   9.415   6.210 -2.1095  0.8686  1.3447
22254SOL    HW278822   6.170   9.268   6.243  0.0951 -0.3743  0.0523
22255SOL     OW78823   9.165   6.970   2.134 -0.0652  0.1294  0.7068
22255SOL    HW178824   9.066   6.966   2.148 -0.0607 -0.1369  0.6667
22255SOL    HW278825   9.210   6.909   2.200  0.1078  0.6579  1.0742
22256SOL     OW78826   8.625   6.118   1.782 -0.6217  0.0872  0.2134
22256SOL    HW178827   8.605   6.213   1.808 -1.2054 -0.4325  1.6733
22256SOL    HW278828   8.679   6.074   1.854  2.5348  0.2682 -1.8911
22257SOL     OW78829   0.572   5.178   3.556 -0.1620  0.3089 -0.5993
22257SOL    HW178830   0.485   5.226   3.547  0.0956  0.5956 -1.6935
22257SOL    HW278831   0.636   5.232   3.609 -0.2917  0.6060 -0.7464
22258SOL     OW78832   9.266   3.250   1.111 -0.1715  0.0189 -0.6612
22258SOL    HW178833   9.206   3.326   1.136  2.0302  1.9305 -0.9911
22258SOL    HW278834   9.337   3.283   1.049  2.8398 -1.5438  1.8111
22259SOL     OW78835   3.867   3.366   1.982  0.1255 -0.3993 -0.4614
22259SOL    HW178836   3.943   3.397   2.040 -0.1298 -3.7410  1.8344
22259SOL    HW278837   3.904   3.323   1.900  0.6648 -0.1653 -0.3457
22260SOL     OW78838   0.470   9.544   4.545  0.4134  0.1206  0.0550
22260SOL    HW178839   0.565   9.521   4.522  0.0490 -2.5025  1.0572
22260SOL    HW278840   0.410   9.468   4.520 -1.1589  0.8792  1.4401
22261SOL     OW78841   1.793   5.944   6.464 -0.8528 -0.1571  0.2131
22261SOL    HW178842   1.870   5.981   6.414  0.0565 -1.2850  0.7563
22261SOL    HW278843   1.817   5.932   6.560 -1.5695 -0.8649  0.3155
22262SOL     OW78844   7.522   2.640   0.439 -0.3199  0.5818  0.1273
22262SOL    HW178845   7.431   2.605   0.418 -0.5270 -0.1615  2.1075
22262SOL    HW278846   7.582   2.628   0.360 -1.7626  0.4710 -0.9585
22263SOL     OW78847   4.277   6.727   4.215 -0.2208 -0.1136  0.5619
22263SOL    HW178848   4.305   6.685   4.128 -0.9793  2.2391 -0.8383
22263SOL    HW278849   4.358   6.743   4.271  0.7305  1.9465 -1.3486
22264SOL     OW78850   4.477   4.095   5.634  0.0027  0.1825 -0.4106
22264SOL    HW178851   4.451   4.002   5.657  1.8043 -0.4265 -0.7399
22264SOL    HW278852   4.461   4.155   5.713  1.0294 -0.8628  0.6141
22265SOL     OW78853   3.047   1.819   6.838  0.1451 -0.3077 -0.4725
22265SOL    HW178854   3.057   1.838   6.740 -1.5603 -0.9532 -0.7877
22265SOL    HW278855   2.994   1.891   6.882 -1.0619 -1.1787 -0.4796
22266SOL     OW78856   1.713   4.472   4.812 -0.1268 -0.4683 -0.0064
22266SOL    HW178857   1.717   4.476   4.912  2.2724  0.4348 -0.0952
22266SOL    HW278858   1.788   4.416   4.777  1.1745  2.0614 -1.4149
22267SOL     OW78859   3.034   5.774   7.414  0.2222 -0.2851  1.1761
22267SOL    HW178860   3.010   5.691   7.464  0.8676 -1.1865  0.0105
22267SOL    HW278861   3.056   5.751   7.319 -0.5757  1.3408  0.5607
22268SOL     OW78862   9.401   6.308   7.172 -0.1954 -0.0545  0.0733
22268SOL    HW178863   9.348   6.332   7.254 -0.4026 -0.0105 -0.0734
22268SOL    HW278864   9.392   6.381   7.105  0.2203  0.0511  0.1267
22269SOL     OW78865   3.219   7.942   7.041 -0.1858  0.1160 -0.0023
22269SOL    HW178866   3.226   7.878   6.966 -0.1913 -0.7709  0.7446
22269SOL    HW278867   3.306   7.990   7.053 -0.0632 -0.0278 -0.3137
22270SOL     OW78868   2.923   1.877   7.514  0.0741  0.2845  0.3378
22270SOL    HW178869   2.939   1.946   7.585 -1.0075  0.0997  0.7739
22270SOL    HW278870   2.867   1.917   7.442  1.5087  0.5914 -0.6202
22271SOL     OW78871   3.652   7.484   9.880  0.5236  0.4725  0.2176
22271SOL    HW178872   3.557   7.481   9.911  0.9406  0.6763  1.5851
22271SOL    HW278873   3.681   7.392   9.855  0.1566  0.2940  0.4373
22272SOL     OW78874   6.852   4.396   7.658 -0.0847 -0.2507  0.5459
22272SOL    HW178875   6.844   4.301   7.688 -0.3380 -0.3140  0.2727
22272SOL    HW278876   6.774   4.448   7.691 -1.3616 -0.7424 -1.6187
22273SOL     OW78877   8.877   9.980   2.701  0.1507 -0.1045 -0.4069
22273SOL    HW178878   8.790   9.974   2.750  0.3870 -0.7295 -0.0632
22273SOL    HW278879   8.866  10.037   2.620 -0.0565  1.6389  0.8107
22274SOL     OW78880   8.640   2.118   3.999 -0.0009  0.6392  0.6404
22274SOL    HW178881   8.610   2.212   4.014  2.1215  1.3279  0.7694
22274SOL    HW278882   8.657   2.103   3.901  1.6187  1.0191  0.8542
22275SOL     OW78883   0.640   8.874   2.119  0.1251  0.2535  0.6365
22275SOL    HW178884   0.541   8.866   2.107  0.5660 -0.8106 -2.6901
22275SOL    HW278885   0.674   8.794   2.167 -0.4495  0.0536  0.7186
22276SOL     OW78886   7.794   4.907   7.423  0.2209  0.0331  0.2186
22276SOL    HW178887   7.775   4.939   7.516 -2.2189  0.5102 -0.4319
22276SOL    HW278888   7.713   4.918   7.366  1.4729 -0.9287 -1.8041
22277SOL     OW78889   1.860   1.858   4.419  0.1329 -0.2493  0.4775
22277SOL    HW178890   1.760   1.862   4.412  0.0573 -0.4076  1.4767
22277SOL    HW278891   1.888   1.764   4.439  0.3860  0.1197  1.8609
22278SOL     OW78892   9.196   0.183   2.044  0.3919 -0.3629  0.5934
22278SOL    HW178893   9.101   0.156   2.063 -0.2895  1.3707 -0.2156
22278SOL    HW278894   9.249   0.103   2.017 -1.8537 -0.7702 -2.8658
22279SOL     OW78895   7.480   0.799   7.285  0.3138 -0.3944 -0.0349
22279SOL    HW178896   7.566   0.807   7.336 -1.1466  1.0217  2.3193
22279SOL    HW278897   7.460   0.887   7.242 -0.2053 -0.5764 -0.1585
22280SOL     OW78898   4.460   4.147   3.913  0.3933 -0.0627 -0.4871
22280SOL    HW178899   4.550   4.105   3.915 -0.2655 -1.6014 -2.0858
22280SOL    HW278900   4.423   4.152   4.006  1.4681 -0.8220 -0.0138
22281SOL     OW78901   7.324   1.215   5.917 -0.4861 -0.1117  0.0046
22281SOL    HW178902   7.372   1.144   5.864  1.2683  2.2928 -1.7305
22281SOL    HW278903   7.251   1.172   5.970  1.4649 -3.4491  0.1883
22282SOL     OW78904   2.799   7.371   7.618  0.2139 -0.5156  0.5760
22282SOL    HW178905   2.761   7.366   7.711  0.1891 -0.8424  0.5492
22282SOL    HW278906   2.764   7.453   7.573 -0.2911 -0.6936  0.6316
22283SOL     OW78907   8.628   8.497   1.920  0.1947  0.0322  0.0262
22283SOL    HW178908   8.715   8.544   1.906  0.9061 -1.5260 -0.9116
22283SOL    HW278909   8.568   8.514   1.841  0.1534  0.0087  0.0526
22284SOL     OW78910   5.634   5.652   0.558 -0.2142 -0.4698 -0.0629
22284SOL    HW178911   5.616   5.749   0.546 -0.1962 -0.5536 -0.7867
22284SOL    HW278912   5.717   5.627   0.508 -1.0637 -1.1667 -1.1615
22285SOL     OW78913   3.480   1.610   8.267  0.1840 -0.2695 -0.0536
22285SOL    HW178914   3.401   1.670   8.277  3.0456  3.6638  0.3318
22285SOL    HW278915   3.536   1.615   8.350  2.0803 -1.0509 -1.2445
22286SOL     OW78916   4.601   0.384   8.467  0.1239  0.1130 -0.2193
22286SOL    HW178917   4.675   0.319   8.449  0.2582  0.0203  0.6518
22286SOL    HW278918   4.624   0.473   8.430 -0.1701 -0.3974 -1.6522
22287SOL     OW78919   2.960   0.362   7.284  0.2472  0.5893  0.6244
22287SOL    HW178920   2.872   0.317   7.266  0.2906  0.8472 -0.2716
22287SOL    HW278921   3.030   0.293   7.300 -0.2578  0.3907  2.0324
22288SOL     OW78922   1.325   7.139   3.892  0.3804  0.2408  0.1352
22288SOL    HW178923   1.367   7.050   3.906  0.8915  0.0955 -2.0992
22288SOL    HW278924   1.226   7.132   3.906  0.5088 -0.4932  0.7127
22289SOL     OW78925   0.703   6.540   5.300 -0.3996  0.2955 -0.3524
22289SOL    HW178926   0.692   6.443   5.279  0.9426  0.1241 -0.3133
22289SOL    HW278927   0.635   6.593   5.250 -1.4459 -0.7044 -0.0036
22290SOL     OW78928   3.131   9.741   5.349  0.9348 -0.2705  0.5019
22290SOL    HW178929   3.225   9.763   5.378  0.7493  1.4838 -0.1566
22290SOL    HW278930   3.067   9.803   5.394  0.2864 -0.1182 -0.6117
22291SOL     OW78931   3.156   8.832   7.709  0.2498  0.1758  0.4359
22291SOL    HW178932   3.131   8.843   7.805 -0.3354  0.0654  0.2997
22291SOL    HW278933   3.142   8.919   7.661  0.4848  0.2156  0.4391
22292SOL     OW78934   5.774   1.297   1.622  0.7312 -0.1770  0.2000
22292SOL    HW178935   5.789   1.288   1.524 -0.7416  0.2339 -0.0727
22292SOL    HW278936   5.741   1.209   1.659  0.4320 -0.0791  0.1667
22293SOL     OW78937   2.171   5.183   7.236  0.4161 -0.6015  0.9677
22293SOL    HW178938   2.114   5.265   7.238  1.8082  0.3621  2.3824
22293SOL    HW278939   2.185   5.155   7.141 -2.1989 -0.7327  0.5832
22294SOL     OW78940   9.110   5.652   9.263  0.4550 -0.2626 -0.1556
22294SOL    HW178941   9.052   5.636   9.183  1.2619 -1.0669 -0.5965
22294SOL    HW278942   9.080   5.594   9.339  0.2436 -0.1651 -0.1673
22295SOL     OW78943   9.256   3.055   4.441 -0.2726  0.4772 -0.4428
22295SOL    HW178944   9.254   2.967   4.488 -1.5722  0.1386 -1.0848
22295SOL    HW278945   9.167   3.100   4.450  0.7401  2.2600  0.8458
22296SOL     OW78946   4.514   1.790  10.051 -0.4304 -0.1489  0.1687
22296SOL    HW178947   4.568   1.758   9.974  0.5841 -2.1082  1.6530
22296SOL    HW278948   4.564   1.862  10.099 -0.4981  0.1859 -0.2639
22297SOL     OW78949   8.232   3.815   3.800 -0.1794  0.0818  0.1574
22297SOL    HW178950   8.193   3.908   3.800 -3.1132 -1.0802  0.3359
22297SOL    HW278951   8.237   3.782   3.706  0.3172  0.2095  0.1403
22298SOL     OW78952   3.751   1.900   7.408 -0.0129  0.2170 -0.1000
22298SOL    HW178953   3.676   1.882   7.471  0.2547  0.7936  0.3902
22298SOL    HW278954   3.782   1.814   7.368 -1.9798  0.1568 -1.5310
22299SOL     OW78955   4.301   2.966   2.373  0.4824  0.5241  0.2049
22299SOL    HW178956   4.275   3.058   2.400  1.5664  0.5492  1.1950
22299SOL    HW278957   4.289   2.955   2.274  2.1507  2.3417 -0.2376
22300SOL     OW78958   8.782   5.042   2.030 -0.1353 -0.1610 -0.4331
22300SOL    HW178959   8.762   4.971   2.097  0.4585  0.1111  0.0312
22300SOL    HW278960   8.802   4.999   1.942  0.7950 -0.6040 -0.0125
22301SOL     OW78961   9.186   8.682   7.555 -0.3785 -0.1459  0.2046
22301SOL    HW178962   9.211   8.614   7.624 -0.2992 -0.3920 -0.0699
22301SOL    HW278963   9.199   8.644   7.464 -1.4581 -0.1575  0.0527
22302SOL     OW78964   7.376   6.075   3.619  0.4116 -0.2329  0.1370
22302SOL    HW178965   7.374   6.116   3.710  1.8896  0.8902 -0.3251
22302SOL    HW278966   7.291   6.025   3.603 -0.5741  0.9875  1.4793
22303SOL     OW78967   6.995   1.321   0.754  0.1440 -0.0960 -0.5335
22303SOL    HW178968   7.056   1.357   0.824  0.2975 -0.9766 -0.2064
22303SOL    HW278969   7.032   1.342   0.663  0.0965  0.7780 -0.3593
22304SOL     OW78970   9.173   8.863   2.926 -0.3450 -0.8657 -0.2630
22304SOL    HW178971   9.164   8.768   2.958 -0.8861 -1.2560 -1.5480
22304SOL    HW278972   9.157   8.867   2.827 -1.5833  0.7725 -0.0097
22305SOL     OW78973   0.746   0.593   7.471 -0.1626 -0.1267 -0.3453
22305SOL    HW178974   0.692   0.624   7.549 -0.8021 -1.9361 -0.0297
22305SOL    HW278975   0.838   0.630   7.476  0.4751 -2.0105  2.4847
22306SOL     OW78976   4.643   8.212   6.574  0.1430  0.0124  0.1042
22306SOL    HW178977   4.574   8.282   6.558  0.9476  1.1327  1.3924
22306SOL    HW278978   4.616   8.128   6.528 -1.7222  0.6382 -0.0087
22307SOL     OW78979   6.226   5.492   9.494  0.2660 -0.1280  0.2544
22307SOL    HW178980   6.209   5.453   9.404 -2.8122 -1.9943  1.5360
22307SOL    HW278981   6.165   5.571   9.508  0.7896  0.2067  0.6654
22308SOL     OW78982   6.569   2.048  10.059 -0.1958 -0.4808 -0.1619
22308SOL    HW178983   6.608   1.977  10.117  1.7277 -0.4534 -1.3718
22308SOL    HW278984   6.605   2.137  10.087 -0.9634 -0.2167 -0.0026
22309SOL     OW78985   5.629   3.998   7.687 -0.3755 -0.2380  0.0034
22309SOL    HW178986   5.722   4.034   7.695 -0.0546 -0.7593 -1.1850
22309SOL    HW278987   5.566   4.073   7.665 -0.1762  0.0642  0.4764
22310SOL     OW78988   4.735   4.527   2.663 -0.0009 -0.1764  0.0414
22310SOL    HW178989   4.681   4.538   2.747  0.8790 -1.3067  0.7728
22310SOL    HW278990   4.723   4.433   2.629  1.8133 -0.5666  0.4409
22311SOL     OW78991   8.000   2.368   2.988  0.0891  0.1387 -0.3630
22311SOL    HW178992   7.924   2.308   2.962 -2.2277  2.7739  0.1130
22311SOL    HW278993   7.999   2.382   3.087 -1.4299  3.5431 -0.8123
22312SOL     OW78994   9.717   6.111   4.052  0.4308 -0.0945 -0.3419
22312SOL    HW178995   9.654   6.097   4.128  1.9281 -0.9029  0.7682
22312SOL    HW278996   9.789   6.174   4.079  0.4519  0.3671 -1.4207
22313SOL     OW78997   1.585   6.751   9.643  0.0512 -0.1843  0.5463
22313SOL    HW178998   1.582   6.851   9.652  0.1079 -0.1015 -0.2804
22313SOL    HW278999   1.496   6.713   9.668 -1.1041  0.3800 -2.4837
22314SOL     OW79000   4.412   5.423   9.462  0.1592 -0.2611 -0.0180
22314SOL    HW179001   4.349   5.474   9.403 -0.6814 -0.3404  0.8073
22314SOL    HW279002   4.484   5.485   9.494  1.1705 -0.4318 -1.8758
22315SOL     OW79003   2.466   5.737   0.218  0.2101  0.7283  0.1401
22315SOL    HW179004   2.434   5.826   0.250 -2.0587 -0.2352  0.6487
22315SOL    HW279005   2.495   5.682   0.296  2.1983  1.2250 -0.2293
22316SOL     OW79006   6.563   8.314   3.103 -0.0727 -0.4653 -0.0726
22316SOL    HW179007   6.513   8.334   3.187 -0.0152  0.3620 -0.2312
22316SOL    HW279008   6.529   8.229   3.062 -1.5698  0.2736 -0.3676
22317SOL     OW79009   0.191   1.877   0.519 -0.2439  0.1390  0.0541
22317SOL    HW179010   0.146   1.954   0.564  1.6673  0.6210  1.1983
22317SOL    HW279011   0.267   1.911   0.464 -0.4788 -0.7790 -0.8493
22318SOL     OW79012   5.389   4.225   8.771  0.0043 -0.6292 -0.1175
22318SOL    HW179013   5.379   4.297   8.703  0.2597 -0.9390 -0.4848
22318SOL    HW279014   5.381   4.264   8.863 -0.8170 -0.2943 -0.3354
22319SOL     OW79015   1.420   4.361   9.171 -0.7799  0.0420 -0.1723
22319SOL    HW179016   1.394   4.404   9.258  0.1921 -0.0638  0.1877
22319SOL    HW279017   1.417   4.262   9.181  1.4241  0.0057  0.4281
22320SOL     OW79018   4.576   2.832   9.357  0.0884 -0.0960  0.7834
22320SOL    HW179019   4.583   2.910   9.294 -0.3379  0.0189  0.8777
22320SOL    HW279020   4.481   2.821   9.386  0.1198 -0.7691  0.6279
22321SOL     OW79021   5.953   1.404   4.708  0.0024 -0.0483  0.1769
22321SOL    HW179022   5.901   1.483   4.741  2.3241  2.2386 -1.4575
22321SOL    HW279023   5.971   1.414   4.610  1.9031 -1.7035  0.3235
22322SOL     OW79024   0.254   3.519   1.765  0.4964  0.3180 -0.4531
22322SOL    HW179025   0.280   3.462   1.687  1.5836 -0.9167  0.7795
22322SOL    HW279026   0.252   3.615   1.737  0.1677 -0.1685 -2.1659
22323SOL     OW79027   3.547   8.600   3.277 -0.1582 -0.2502 -0.0641
22323SOL    HW179028   3.545   8.508   3.238  2.0162 -0.4085  0.1255
22323SOL    HW279029   3.526   8.596   3.375  0.0073 -0.5522 -0.0420
22324SOL     OW79030   8.380   6.613   1.394  0.5258  0.0391 -0.9424
22324SOL    HW179031   8.390   6.588   1.491  0.4877  0.6959 -0.7712
22324SOL    HW279032   8.450   6.565   1.341  1.3465  0.6490 -0.4256
22325SOL     OW79033   1.861   3.716   9.737  0.2097  0.4446 -1.0624
22325SOL    HW179034   1.942   3.737   9.792  0.9259 -0.6828 -1.6437
22325SOL    HW279035   1.789   3.782   9.756  0.8403  0.7416  0.3750
22326SOL     OW79036   2.901   4.715   3.889  0.2343 -0.0207 -0.1977
22326SOL    HW179037   2.815   4.721   3.941  0.5217  0.0767  0.2719
22326SOL    HW279038   2.958   4.794   3.911  1.3541 -1.1838  1.1357
22327SOL     OW79039   1.743   7.130   5.862 -0.0915 -0.1664  0.4230
22327SOL    HW179040   1.731   7.033   5.842  1.3202 -0.8790  2.9087
22327SOL    HW279041   1.811   7.169   5.801  0.3852 -1.0828  0.3629
22328SOL     OW79042   6.751   5.967   1.148 -0.5117 -0.0260  0.0150
22328SOL    HW179043   6.777   6.018   1.229  1.4063 -0.6847 -0.1563
22328SOL    HW279044   6.756   6.027   1.068  1.1923 -0.3082 -0.1096
22329SOL     OW79045   1.052   1.571   1.999  0.2315  0.2459 -0.9614
22329SOL    HW179046   1.070   1.631   1.921  0.4058 -3.2493 -3.7492
22329SOL    HW279047   0.953   1.557   2.008  0.0231  2.8152  1.2307
22330SOL     OW79048   1.523   2.892   0.847  0.0901  0.5694  0.4558
22330SOL    HW179049   1.513   2.844   0.934  0.0299  2.7644  1.7075
22330SOL    HW279050   1.497   2.988   0.859 -1.1832  0.6345 -2.2977
22331SOL     OW79051   1.704   6.593   3.916 -0.2255 -0.4156  0.1011
22331SOL    HW179052   1.791   6.557   3.950  0.4374  0.1591 -0.9643
22331SOL    HW279053   1.664   6.654   3.984  1.8916  2.0466 -0.7745
22332SOL     OW79054   9.483   0.980   8.398 -0.0603  0.3131 -0.0414
22332SOL    HW179055   9.524   0.964   8.308  0.2270  0.6838  0.0215
22332SOL    HW279056   9.406   1.042   8.389 -0.1584  0.1872 -0.0619
22333SOL     OW79057   2.456   4.224   6.734  0.5263  0.1278  0.4402
22333SOL    HW179058   2.499   4.285   6.667 -0.5702  0.5611  0.1154
22333SOL    HW279059   2.518   4.210   6.811  1.4200  0.3900 -0.2234
22334SOL     OW79060   3.951   8.060   0.904 -0.4507  0.1939  0.7134
22334SOL    HW179061   3.958   8.047   0.805  1.0399  1.0416  0.7028
22334SOL    HW279062   3.999   8.143   0.931 -1.6204  0.4607  2.0399
22335SOL     OW79063   9.867   4.211   5.432 -0.1203  0.3446 -0.3009
22335SOL    HW179064   9.864   4.244   5.338 -3.0145 -1.1555 -0.8088
22335SOL    HW279065   9.794   4.254   5.485 -0.1806 -0.7865  0.5535
22336SOL     OW79066   9.066   4.280   2.917  0.4949 -0.4165 -0.2257
22336SOL    HW179067   9.132   4.273   2.992 -0.2550 -1.8536  0.3180
22336SOL    HW279068   9.103   4.234   2.836  0.8062  0.1213 -0.3940
22337SOL     OW79069   8.323   0.994   8.789 -0.3467  0.1513  0.1579
22337SOL    HW179070   8.249   1.061   8.781 -2.2326 -1.8748  0.0631
22337SOL    HW279071   8.299   0.912   8.736  2.3811 -0.2105 -0.5807
22338SOL     OW79072   8.080   6.638   8.388 -0.1729  0.7266  0.5120
22338SOL    HW179073   8.065   6.598   8.478 -0.0511 -0.1641  0.1426
22338SOL    HW279074   7.992   6.654   8.343 -0.1813 -0.8064 -0.0571
22339SOL     OW79075   4.829   0.415   7.117  0.5103 -0.4363 -0.0336
22339SOL    HW179076   4.893   0.412   7.194 -0.2171 -0.5140  0.5786
22339SOL    HW279077   4.851   0.493   7.058  1.6835 -0.9512 -0.2925
22340SOL     OW79078   2.521   9.028   6.002  0.7760  0.1753 -0.6294
22340SOL    HW179079   2.497   9.125   5.994  0.7741  0.5345  2.8086
22340SOL    HW279080   2.621   9.019   6.008  0.7218  0.0973  0.2321
22341SOL     OW79081   6.033   8.035   4.127 -0.3402 -0.3681 -0.3861
22341SOL    HW179082   5.986   7.981   4.058 -1.6710 -0.6744  0.7506
22341SOL    HW279083   5.996   8.015   4.218  1.2041  0.2243  0.4082
22342SOL     OW79084   8.452   0.111   0.291 -0.0636 -0.4177 -0.1708
22342SOL    HW179085   8.363   0.066   0.283 -0.5506  0.3628  0.7952
22342SOL    HW279086   8.516   0.069   0.227 -0.6359 -2.1711  0.3895
22343SOL     OW79087   8.196   2.794   3.337  0.3546 -0.0733  0.1786
22343SOL    HW179088   8.182   2.700   3.306  1.9507  0.4012 -2.0655
22343SOL    HW279089   8.123   2.819   3.401 -0.3867 -2.6435  0.3773
22344SOL     OW79090   3.987   6.724   4.046 -0.1770  0.2739  0.0316
22344SOL    HW179091   3.973   6.682   3.957  0.0318 -0.0933  0.1704
22344SOL    HW279092   4.066   6.786   4.042  1.2095 -1.4214  0.5244
22345SOL     OW79093   4.281   4.914   6.857 -0.5043 -0.1560  0.0431
22345SOL    HW179094   4.310   4.976   6.784 -1.2797  0.9265  0.6611
22345SOL    HW279095   4.190   4.878   6.836  0.3139 -1.8331 -0.7797
22346SOL     OW79096   1.835   7.070   7.488  0.0271  0.2453  0.1634
22346SOL    HW179097   1.778   7.095   7.566  0.7739 -1.2462  1.2121
22346SOL    HW279098   1.788   7.002   7.432 -0.2755  0.9024 -0.3878
22347SOL     OW79099   2.638   2.329   9.341 -0.1628  0.7287 -0.1373
22347SOL    HW179100   2.674   2.302   9.430  0.3349  1.8215  0.0021
22347SOL    HW279101   2.648   2.428   9.329  2.2955  0.2665 -2.5173
22348SOL     OW79102   8.608   8.451   5.081  0.0052 -0.3780 -0.1227
22348SOL    HW179103   8.652   8.491   5.001  0.6272  0.7228  0.7540
22348SOL    HW279104   8.547   8.377   5.052  0.7344 -0.4423 -1.5383
22349SOL     OW79105   6.742   3.077   2.343  0.9701  0.2373  0.1360
22349SOL    HW179106   6.822   3.040   2.296  0.5408  0.2662 -0.6245
22349SOL    HW279107   6.665   3.082   2.279 -0.2750 -1.8738  1.4188
22350SOL     OW79108   6.882   7.362   2.361  0.6982  1.1373 -0.0608
22350SOL    HW179109   6.908   7.266   2.350  0.6946  1.1386 -0.0810
22350SOL    HW279110   6.783   7.370   2.359  0.7303  1.3651 -1.9922
22351SOL     OW79111   3.846   4.317   7.870  0.6601  0.1006 -0.0096
22351SOL    HW179112   3.796   4.341   7.786 -0.1251 -0.6567  0.2409
22351SOL    HW279113   3.944   4.322   7.852  0.4996  0.8040 -0.7340
22352SOL     OW79114   9.399   3.295   9.230  0.3063 -0.6911  0.2487
22352SOL    HW179115   9.414   3.339   9.319  0.3053  0.6960 -0.4286
22352SOL    HW279116   9.485   3.259   9.196  0.9658  1.7022 -0.7056
22353SOL     OW79117   2.101   8.555   6.712  0.3502 -0.2558  0.3053
22353SOL    HW179118   2.104   8.639   6.658 -0.0907 -1.2015 -1.2448
22353SOL    HW279119   2.192   8.515   6.716  0.4851  0.1022  0.6990
22354SOL     OW79120   9.328   2.571   7.165  0.3327 -0.2767  0.5350
22354SOL    HW179121   9.267   2.601   7.238 -0.2346  1.0961 -0.4761
22354SOL    HW279122   9.415   2.620   7.172 -0.1175  0.6573 -0.3446
22355SOL     OW79123   3.815   6.707   3.507  0.0323 -0.4471  0.8178
22355SOL    HW179124   3.733   6.652   3.493  0.1442 -1.2617  3.1494
22355SOL    HW279125   3.808   6.791   3.453 -1.8725 -0.9680  0.1971
22356SOL     OW79126   2.955   1.187   6.905  0.0209  0.2244 -0.0236
22356SOL    HW179127   2.917   1.109   6.855  0.9316 -0.1596 -0.1403
22356SOL    HW279128   2.895   1.211   6.980 -0.7703  0.0464 -0.5931
22357SOL     OW79129   3.283   0.536   8.227 -0.7895 -0.1488 -0.3055
22357SOL    HW179130   3.195   0.563   8.266 -0.1784  0.0127  0.9884
22357SOL    HW279131   3.343   0.502   8.300  0.3400  0.0679 -1.1214
22358SOL     OW79132   9.083   6.682   2.021  0.2409 -0.0529 -0.0071
22358SOL    HW179133   9.159   6.710   1.963 -1.0781  1.1000 -1.2467
22358SOL    HW279134   9.114   6.671   2.115  1.6106  1.9402 -0.1901
22359SOL     OW79135   7.112   5.202   1.804  0.0198 -0.5316  0.6624
22359SOL    HW179136   7.029   5.154   1.832 -1.8939  1.8546 -0.7275
22359SOL    HW279137   7.127   5.189   1.706  1.1584 -0.7506  0.8601
22360SOL     OW79138   5.315   8.744   3.351 -0.0424  0.2274 -0.4330
22360SOL    HW179139   5.318   8.652   3.389  1.3558  0.0589 -0.9406
22360SOL    HW279140   5.221   8.765   3.323 -0.4343 -0.9001  0.0041
22361SOL     OW79141   2.742   9.835   5.954  0.0429  0.3299 -0.6402
22361SOL    HW179142   2.803   9.879   5.888 -0.1007 -0.3885 -1.2607
22361SOL    HW279143   2.794   9.810   6.036 -0.0534  2.4335  0.0998
22362SOL     OW79144   4.227   6.201   1.645 -0.2806 -0.3357 -0.2746
22362SOL    HW179145   4.243   6.230   1.739  0.8300 -2.3987  0.2188
22362SOL    HW279146   4.208   6.103   1.644  1.2611 -0.6439 -2.3391
22363SOL     OW79147   3.783   1.197   6.567 -0.1347 -0.6103 -0.3083
22363SOL    HW179148   3.855   1.267   6.568 -1.6491  1.0155 -1.0574
22363SOL    HW279149   3.801   1.131   6.494  0.8624 -0.4866 -0.1713
22364SOL     OW79150   2.607   9.440   3.516 -0.4538 -0.1387  0.1734
22364SOL    HW179151   2.624   9.348   3.481  1.5468 -0.1501  1.0722
22364SOL    HW279152   2.549   9.435   3.598  1.7634 -0.8830  1.7666
22365SOL     OW79153   2.593   2.960   9.067  0.0236 -0.1862  0.1508
22365SOL    HW179154   2.622   3.028   9.134 -0.9679 -0.2289  0.6371
22365SOL    HW279155   2.609   2.868   9.104  1.8091 -0.2460 -0.6967
22366SOL     OW79156   2.236   8.811   5.319 -0.5002  0.1069 -0.4302
22366SOL    HW179157   2.325   8.791   5.277 -0.6781 -0.6672 -0.4424
22366SOL    HW279158   2.168   8.748   5.283 -0.5212 -1.0243  1.5193
22367SOL     OW79159   6.776   5.935   6.796 -0.1406  0.3450  0.2472
22367SOL    HW179160   6.811   5.996   6.725 -1.7614  1.3231  0.2554
22367SOL    HW279161   6.789   5.978   6.886 -0.1433  0.1143  0.3584
22368SOL     OW79162   4.677   9.253   5.866  0.0605 -0.6660  0.3961
22368SOL    HW179163   4.596   9.244   5.923  0.6122 -1.2335  1.1020
22368SOL    HW279164   4.745   9.186   5.894  0.6903 -0.3462 -0.3393
22369SOL     OW79165   1.997   3.769   5.498 -0.1653  0.2719 -0.1410
22369SOL    HW179166   2.045   3.802   5.579  0.6770 -0.2647 -0.4171
22369SOL    HW279167   1.908   3.732   5.525  0.8072 -1.4422  0.7627
22370SOL     OW79168   1.154   0.407   9.656 -0.2360  0.1010 -0.7486
22370SOL    HW179169   1.141   0.503   9.681 -1.6726 -0.1706 -0.4220
22370SOL    HW279170   1.248   0.393   9.626  0.3634  1.3356  0.4986
22371SOL     OW79171   4.012   7.364   5.366  0.5152  0.3872 -0.0626
22371SOL    HW179172   3.942   7.406   5.424 -0.7493 -0.0269 -1.2762
22371SOL    HW279173   4.083   7.432   5.346  0.8843  0.5934  1.7936
22372SOL     OW79174   4.255   5.687   4.391  0.0853  0.1547 -0.0990
22372SOL    HW179175   4.309   5.613   4.433 -0.9104 -0.5841 -0.0938
22372SOL    HW279176   4.158   5.667   4.403 -0.2162  2.7855  2.2389
22373SOL     OW79177   0.137   1.601   9.447  0.2650  0.7451  0.4865
22373SOL    HW179178   0.064   1.657   9.485  0.5318 -0.2145  2.4887
22373SOL    HW279179   0.202   1.577   9.519 -0.6666 -3.4157  0.0591
22374SOL     OW79180   0.237   5.653   0.535  0.2736 -0.3229  0.2527
22374SOL    HW179181   0.147   5.614   0.556  0.7732 -0.4028  2.3758
22374SOL    HW279182   0.309   5.598   0.577  1.2649  0.2419 -0.6717
22375SOL     OW79183   2.401   9.166   7.613 -0.6057 -0.1011 -0.0580
22375SOL    HW179184   2.492   9.128   7.594 -0.6924 -0.6648  0.6478
22375SOL    HW279185   2.410   9.257   7.653 -0.3665  0.0922 -0.5497
22376SOL     OW79186   3.745   2.232   2.301  0.3519  0.0621 -0.1002
22376SOL    HW179187   3.700   2.287   2.230  0.5723 -0.8500 -0.9625
22376SOL    HW279188   3.761   2.288   2.382 -4.4800 -0.1302  1.1550
22377SOL     OW79189   7.088   4.271   0.460  0.1461 -0.1007  0.7688
22377SOL    HW179190   7.029   4.346   0.489 -0.0852 -0.2571  0.7101
22377SOL    HW279191   7.031   4.193   0.432  0.3681 -0.0119  0.0655
22378SOL     OW79192   8.486   1.507   1.829 -0.3029  0.0763 -0.1693
22378SOL    HW179193   8.468   1.438   1.759 -0.4285 -0.2149  0.1472
22378SOL    HW279194   8.578   1.544   1.817  0.1339 -0.8487  0.2432
22379SOL     OW79195   3.948   6.513   2.437 -0.4682 -0.7082  0.0029
22379SOL    HW179196   4.045   6.535   2.428 -0.6827 -0.5710 -2.3221
22379SOL    HW279197   3.895   6.574   2.378 -1.9414 -0.9652  1.0523
22380SOL     OW79198   8.067   7.249   6.188 -0.3908  0.2342  0.4193
22380SOL    HW179199   8.033   7.276   6.099  3.1356 -0.1731 -1.1355
22380SOL    HW279200   8.099   7.329   6.238  1.1410  0.0488 -0.2500
22381SOL     OW79201   8.484   3.108   9.765  0.2933  0.2866 -0.2482
22381SOL    HW179202   8.577   3.073   9.781 -0.2371 -1.2999 -0.5173
22381SOL    HW279203   8.459   3.170   9.838  0.8754 -0.7355  0.8400
22382SOL     OW79204   8.034   9.371   7.297  0.7394  0.2519 -0.2443
22382SOL    HW179205   8.123   9.394   7.337  0.2617 -0.3889  1.2315
22382SOL    HW279206   7.963   9.423   7.344  0.1423 -0.6799 -0.1022
22383SOL     OW79207   5.062   0.537   9.401 -0.6455 -0.1673  0.1916
22383SOL    HW179208   5.050   0.470   9.328  1.0614 -1.2732  0.8909
22383SOL    HW279209   5.101   0.621   9.364 -0.5951 -0.4171 -0.3209
22384SOL     OW79210   8.160   2.323   1.467 -0.2562 -0.0453 -0.1357
22384SOL    HW179211   8.068   2.360   1.483 -1.0456 -2.4829  1.2395
22384SOL    HW279212   8.213   2.330   1.552 -0.2700 -1.5912  0.0157
22385SOL     OW79213   7.025   8.654   8.131 -0.5743  0.4295 -0.3505
22385SOL    HW179214   6.991   8.584   8.194  1.7225  1.0688  1.6607
22385SOL    HW279215   7.038   8.740   8.180  1.2822  0.9515 -1.6917
22386SOL     OW79216   2.823   7.070   2.528 -0.0158 -0.1091  0.1897
22386SOL    HW179217   2.820   7.141   2.458  1.1546 -0.7459 -0.5162
22386SOL    HW279218   2.908   7.019   2.521 -0.8185 -1.5574  0.7220
22387SOL     OW79219   9.938   3.968   6.686  0.6192 -0.2950  0.4960
22387SOL    HW179220   9.891   3.929   6.606 -0.7160  0.4269  0.9212
22387SOL    HW279221  10.035   3.978   6.665  0.7694 -2.6243 -0.0863
22388SOL     OW79222   7.239   0.771   7.673 -0.0736  0.6776 -0.3968
22388SOL    HW179223   7.230   0.694   7.609 -0.1236  1.2343 -1.0681
22388SOL    HW279224   7.169   0.840   7.651  1.3842  1.9238 -1.2324
22389SOL     OW79225   4.159   8.067   7.916  0.6210 -0.2927  0.0914
22389SOL    HW179226   4.176   8.151   7.968 -1.9299 -0.3890  1.1284
22389SOL    HW279227   4.228   7.998   7.941  0.2533  0.1252  2.3561
22390SOL     OW79228   8.103   9.925   4.278  0.7222 -0.4724  0.1714
22390SOL    HW179229   8.024   9.949   4.222  0.5011 -3.6027 -0.9662
22390SOL    HW279230   8.168  10.001   4.278 -0.0011  0.2306 -3.0305
22391SOL     OW79231   1.277   2.303   2.969 -0.3069 -0.2236  0.3622
22391SOL    HW179232   1.202   2.337   3.027 -1.1213 -0.4836 -0.5190
22391SOL    HW279233   1.280   2.203   2.975  1.2090 -0.1190  1.8832
22392SOL     OW79234   4.181   3.630   3.156  0.9035 -0.5330  0.0452
22392SOL    HW179235   4.108   3.674   3.104  0.8216  0.7432  1.1993
22392SOL    HW279236   4.143   3.589   3.239  1.1713 -1.7641 -0.4296
22393SOL     OW79237   4.819   4.039   8.362 -0.3898 -0.5439  0.1846
22393SOL    HW179238   4.774   4.128   8.351  1.0261  0.4580  2.2429
22393SOL    HW279239   4.768   3.984   8.428 -0.5073 -0.7474 -0.0735
22394SOL     OW79240   6.395   7.171   3.972  0.6052  0.0823 -0.7314
22394SOL    HW179241   6.337   7.125   4.040  1.3819 -0.8190 -0.6708
22394SOL    HW279242   6.457   7.105   3.931  2.6319  1.3215  0.2861
22395SOL     OW79243   5.817   0.089   5.341 -0.6916  0.1851  0.4894
22395SOL    HW179244   5.803   0.095   5.242 -0.3865  1.4616  0.5145
22395SOL    HW279245   5.756   0.153   5.387 -1.1145 -0.6956  1.1591
22396SOL     OW79246   4.835   0.685   3.423 -0.4457 -0.1360 -0.1808
22396SOL    HW179247   4.766   0.667   3.494  0.0949 -0.9294  0.1548
22396SOL    HW279248   4.926   0.690   3.465 -0.4632  2.6860 -0.3707
22397SOL     OW79249   8.812   7.917   1.241  0.0079  0.0880  0.2314
22397SOL    HW179250   8.744   7.876   1.180  0.4265  1.1319 -0.9549
22397SOL    HW279251   8.899   7.927   1.192  0.5677  0.2167  1.2500
22398SOL     OW79252   1.700   6.355   2.473 -0.1335  0.4130 -0.2158
22398SOL    HW179253   1.656   6.325   2.388  1.0362  0.1341 -0.7287
22398SOL    HW279254   1.652   6.313   2.551  0.0560 -0.9914 -0.8313
22399SOL     OW79255   9.937   2.480   5.674 -0.2130  0.1075  0.2056
22399SOL    HW179256  10.006   2.437   5.732  1.0090 -0.3345 -1.5561
22399SOL    HW279257   9.882   2.542   5.730  1.2486  0.0626  1.7529
22400SOL     OW79258   3.948   2.568   1.896 -0.2539  0.2342  0.0022
22400SOL    HW179259   3.979   2.544   1.987  0.4686  2.1128  0.2796
22400SOL    HW279260   3.850   2.551   1.888 -0.2324 -0.3604  0.9704
22401SOL     OW79261   9.620   4.982   7.124  0.0045 -0.2054 -0.4096
22401SOL    HW179262   9.542   4.921   7.137  0.6742 -1.0319 -0.2657
22401SOL    HW279263   9.660   5.005   7.212  0.0349  0.0708 -0.4962
22402SOL     OW79264   1.083   6.759   8.034  0.4029  0.3305 -0.0008
22402SOL    HW179265   1.130   6.780   7.948  2.3195  0.1460  0.9776
22402SOL    HW279266   1.126   6.810   8.109 -1.8784  1.2536  0.7126
22403SOL     OW79267   0.121   6.139   5.509 -0.0314  0.5883 -0.4954
22403SOL    HW179268   0.166   6.080   5.441  0.1793 -0.7022  0.7514
22403SOL    HW279269   0.139   6.104   5.601 -3.2081  0.3341  0.0615
22404SOL     OW79270   9.478   2.616   4.212  0.1767 -0.4999 -0.1975
22404SOL    HW179271   9.466   2.520   4.239 -1.0446 -0.7643 -1.5865
22404SOL    HW279272   9.394   2.666   4.228  0.8767  0.3976  0.7048
22405SOL     OW79273   9.633   1.806   4.702 -0.0760  0.7973  0.2027
22405SOL    HW179274   9.731   1.822   4.691  0.2316  0.3601  2.1195
22405SOL    HW279275   9.582   1.884   4.666  0.9858  1.2361 -0.3816
22406SOL     OW79276   1.025   6.243   3.744 -0.4665 -0.5885 -0.7202
22406SOL    HW179277   0.966   6.238   3.663 -0.7489 -0.3769 -0.5250
22406SOL    HW279278   1.023   6.156   3.792  0.1859 -0.9215 -1.2845
22407SOL     OW79279   8.246   1.855   5.386  0.1771 -0.0555  1.2447
22407SOL    HW179280   8.255   1.769   5.335  0.9903  0.5174  0.4169
22407SOL    HW279281   8.149   1.876   5.399 -0.0479  0.2557 -0.8460
22408SOL     OW79282   7.646   1.327   5.628 -0.6077  0.0424  0.0480
22408SOL    HW179283   7.691   1.290   5.709  0.0006  1.9873  0.6303
22408SOL    HW279284   7.603   1.414   5.651 -1.6087 -0.0622 -1.3920
22409SOL     OW79285   5.004   5.456   1.046 -0.5366 -0.4019  0.0432
22409SOL    HW179286   4.964   5.431   1.134 -1.6012 -0.5351 -0.4566
22409SOL    HW279287   4.932   5.454   0.976  0.3984 -0.8039 -0.9160
22410SOL     OW79288   1.080   1.316   2.654 -0.8318  0.2726 -0.2004
22410SOL    HW179289   1.082   1.403   2.605 -0.9326  0.9518  0.9713
22410SOL    HW279290   1.036   1.329   2.743 -0.1147 -0.8002  0.3248
22411SOL     OW79291   3.243   1.669   3.092 -0.0156  0.5947  0.2040
22411SOL    HW179292   3.199   1.733   3.028  1.7946  1.2744 -0.3938
22411SOL    HW279293   3.262   1.583   3.044  0.5442  0.7942  0.0600
22412SOL     OW79294   1.613   7.241   6.814 -0.0489  0.4604  0.2598
22412SOL    HW179295   1.579   7.251   6.721 -2.7527  1.6678  1.3276
22412SOL    HW279296   1.587   7.151   6.849 -0.1747  0.5078  0.2904
22413SOL     OW79297   1.061   8.190   4.517  0.1938  0.1649 -0.0487
22413SOL    HW179298   0.990   8.120   4.504  0.5049  0.0326 -1.0832
22413SOL    HW279299   1.077   8.204   4.614 -1.8530  0.7921  0.2102
22414SOL     OW79300   8.239   9.223   5.461  0.0426 -0.0494 -0.0578
22414SOL    HW179301   8.277   9.246   5.371  1.3728  0.4495  0.6155
22414SOL    HW279302   8.159   9.164   5.450 -1.1956  1.8788 -1.6679
22415SOL     OW79303   6.874   0.890   7.402  0.4122 -0.3494  0.0822
22415SOL    HW179304   6.780   0.913   7.427  0.9824  0.5861  1.4340
22415SOL    HW279305   6.895   0.930   7.313 -0.4862 -0.6073 -0.2518
22416SOL     OW79306   1.600   8.697   0.078  0.0109 -0.3273  0.2813
22416SOL    HW179307   1.691   8.660   0.097  0.0604 -0.6129 -0.4785
22416SOL    HW279308   1.530   8.633   0.110  0.0906 -0.6571 -0.1947
22417SOL     OW79309   2.763   1.964   7.241  0.5649  0.5075  0.3535
22417SOL    HW179310   2.785   2.002   7.151 -0.2149 -0.2765 -0.1710
22417SOL    HW279311   2.789   1.868   7.244  0.8721  0.6098  1.0777
22418SOL     OW79312   1.270   4.881   3.137  0.4485  0.2689  0.3306
22418SOL    HW179313   1.299   4.946   3.067  0.3341  0.1883  0.2094
22418SOL    HW279314   1.196   4.824   3.102  1.6506 -1.0289 -0.1264
22419SOL     OW79315   2.676   8.850   7.423  0.2366 -0.4257  0.3815
22419SOL    HW179316   2.721   8.802   7.348 -1.9259 -0.8268 -0.6750
22419SOL    HW279317   2.633   8.785   7.484 -2.6233  0.1105 -1.0035
22420SOL     OW79318   8.368   8.375   6.827  0.3776 -1.0320  0.2937
22420SOL    HW179319   8.362   8.279   6.851 -2.5996 -0.6768  1.0885
22420SOL    HW279320   8.381   8.384   6.728 -1.2771 -2.2029 -0.0407
22421SOL     OW79321   7.149   7.002   5.974 -0.1611  0.3756 -0.1274
22421SOL    HW179322   7.115   6.919   5.930 -0.8532  0.0612  0.9974
22421SOL    HW279323   7.221   6.978   6.039 -0.0906  0.6909 -0.0897
22422SOL     OW79324   9.501   0.358   6.522 -0.0061 -0.1485 -0.2480
22422SOL    HW179325   9.443   0.437   6.541  1.1465  0.9407 -1.2600
22422SOL    HW279326   9.510   0.345   6.423  1.8631 -0.0337 -0.1021
22423SOL     OW79327   7.481   3.467   9.324 -0.1241  0.7445  0.7316
22423SOL    HW179328   7.385   3.480   9.300 -0.1708 -0.6927  0.1147
22423SOL    HW279329   7.488   3.412   9.408  0.1766 -0.3443  0.0039
22424SOL     OW79330   5.418   2.708   1.423 -0.1879  0.7917  0.1385
22424SOL    HW179331   5.475   2.690   1.503  1.0246  0.2926 -0.8136
22424SOL    HW279332   5.326   2.733   1.452 -0.8620 -3.1135  1.6224
22425SOL     OW79333   1.034   9.815   9.021  0.0756  0.4816  0.3658
22425SOL    HW179334   1.038   9.741   9.089  0.0635  0.2145  0.0790
22425SOL    HW279335   1.041   9.903   9.067  0.2500  0.2943  0.6988
22426SOL     OW79336   8.643   4.352   2.695  0.2711 -0.1283 -0.2887
22426SOL    HW179337   8.547   4.345   2.723  0.2382 -0.2249 -0.4247
22426SOL    HW279338   8.700   4.299   2.757  0.2946  0.3355  0.0834
22427SOL     OW79339   2.049   4.278   6.412 -0.4295  0.4786  0.0931
22427SOL    HW179340   2.015   4.292   6.505  1.8017 -2.3938  1.4057
22427SOL    HW279341   2.121   4.344   6.392 -0.6131  0.8205  0.5571
22428SOL     OW79342   8.360   2.620   2.549  0.4167  0.1933  0.3857
22428SOL    HW179343   8.370   2.704   2.603 -0.7994 -1.0808  2.6225
22428SOL    HW279344   8.447   2.570   2.549  1.5415  2.0339 -2.0311
22429SOL     OW79345   8.060   1.341   2.650  0.2306  0.2573 -0.0850
22429SOL    HW179346   7.987   1.299   2.595  0.1139  0.0871  0.1929
22429SOL    HW279347   8.142   1.351   2.595 -0.4268  1.7596 -0.8223
22430SOL     OW79348   0.660   6.777   7.878  0.0614 -0.0162  0.5761
22430SOL    HW179349   0.685   6.730   7.794 -2.4466  0.1319 -0.3089
22430SOL    HW279350   0.690   6.872   7.873  0.4255 -0.1523  0.1012
22431SOL     OW79351   4.145   4.106   8.908 -0.5432  0.5260  0.9855
22431SOL    HW179352   4.068   4.150   8.862 -1.3705 -0.7834  1.0852
22431SOL    HW279353   4.230   4.151   8.882 -1.3048  1.6857  0.5049
22432SOL     OW79354   2.335   8.036   7.261 -0.3562  0.8072  0.5005
22432SOL    HW179355   2.367   7.974   7.333 -0.8300 -0.2524 -0.1771
22432SOL    HW279356   2.235   8.038   7.260 -0.3794 -0.0837 -0.8395
22433SOL     OW79357   8.720   0.255   2.995  0.0429 -0.1326  0.0099
22433SOL    HW179358   8.638   0.308   2.971 -0.6404 -1.8082 -1.4919
22433SOL    HW279359   8.802   0.304   2.964 -0.5343  0.3973 -0.7134
22434SOL     OW79360   5.630   7.782   7.155  0.4851  0.0302  0.2027
22434SOL    HW179361   5.632   7.795   7.254 -1.5838 -0.2258  0.3020
22434SOL    HW279362   5.537   7.799   7.121  1.0183 -0.5418 -1.6029
22435SOL     OW79363   9.729   2.219   1.471 -0.2383  0.5399 -0.4324
22435SOL    HW179364   9.796   2.222   1.545 -0.2567 -0.3574 -0.3779
22435SOL    HW279365   9.654   2.158   1.496  0.7326 -1.3476 -2.0002
22436SOL     OW79366   5.722   1.585   1.642 -0.2797 -0.1973  0.4502
22436SOL    HW179367   5.748   1.599   1.738 -0.6852  1.1435  0.3672
22436SOL    HW279368   5.737   1.489   1.618  1.6361 -0.1302  1.2938
22437SOL     OW79369   6.803   9.785   1.172  0.1671  0.5990  0.3751
22437SOL    HW179370   6.868   9.851   1.210  1.4607  0.3555 -1.3730
22437SOL    HW279371   6.851   9.700   1.151 -0.4629  0.8157 -2.0269
22438SOL     OW79372   1.638   6.996   1.495  0.0959 -0.3864  0.0763
22438SOL    HW179373   1.602   6.982   1.403 -0.6136  0.9739  0.1367
22438SOL    HW279374   1.645   6.908   1.541 -2.8200 -0.7490 -0.0668
22439SOL     OW79375   2.464   3.372   7.021 -1.0449 -0.1845  0.5805
22439SOL    HW179376   2.487   3.429   6.942 -0.4475  0.1740  1.0146
22439SOL    HW279377   2.538   3.306   7.037 -0.8154  0.2489  1.3103
22440SOL     OW79378   9.778   2.216   2.730  0.1327 -0.1225 -0.1229
22440SOL    HW179379   9.775   2.252   2.823 -1.3403  1.2120 -0.6528
22440SOL    HW279380   9.872   2.211   2.699  0.5222  0.9913  0.8424
22441SOL     OW79381   8.826   7.984   3.249 -0.3315 -0.0043  0.4663
22441SOL    HW179382   8.795   8.051   3.182 -0.9728  0.1166  0.8818
22441SOL    HW279383   8.898   7.927   3.209  0.5034  1.1835  0.2325
22442SOL     OW79384   1.965   4.843   9.544 -0.4463 -0.8180  0.1103
22442SOL    HW179385   1.996   4.854   9.450  0.6061  1.1818  0.6411
22442SOL    HW279386   1.936   4.932   9.580 -0.1852 -1.4248  1.8807
22443SOL     OW79387   1.218   4.078   6.075 -0.1511 -0.8003  0.0364
22443SOL    HW179388   1.270   4.024   6.140 -1.4596 -1.4709  0.5346
22443SOL    HW279389   1.140   4.025   6.042 -1.4784  0.7888  0.5728
22444SOL     OW79390   9.417   1.381   2.140 -0.2393 -0.0416  0.1451
22444SOL    HW179391   9.447   1.434   2.219  1.4841 -1.6477  0.5860
22444SOL    HW279392   9.384   1.292   2.170  0.1243 -0.5421 -0.9065
22445SOL     OW79393   2.696   6.572   2.997  0.0102 -0.2608  0.3577
22445SOL    HW179394   2.633   6.635   2.952  1.2120  2.0027  1.7549
22445SOL    HW279395   2.658   6.480   2.994 -1.8342  0.5163 -1.6450
22446SOL     OW79396   6.958   1.429   9.537 -0.7937  0.3642  0.3411
22446SOL    HW179397   6.917   1.520   9.532  1.8282  1.5254 -1.4458
22446SOL    HW279398   6.931   1.375   9.458  0.9712  1.1218 -0.8250
22447SOL     OW79399   8.226   5.833   0.275 -0.3976 -0.4760 -0.1282
22447SOL    HW179400   8.239   5.799   0.182  0.1100  1.2028 -0.6940
22447SOL    HW279401   8.266   5.769   0.340 -1.6638 -2.1670 -1.0005
22448SOL     OW79402   1.307   5.097   3.302  0.3628  0.0439  0.0916
22448SOL    HW179403   1.299   5.086   3.401  0.8416 -1.8665 -0.0584
22448SOL    HW279404   1.273   5.015   3.256 -0.1894  1.0517 -1.3526
22449SOL     OW79405   6.798   0.354   3.162  0.5851  0.3902 -0.5947
22449SOL    HW179406   6.780   0.260   3.134 -0.0928  0.0651  0.9001
22449SOL    HW279407   6.722   0.412   3.132 -0.9308 -0.2379  1.9348
22450SOL     OW79408   1.153   8.166   0.702 -0.1709  0.4867  0.1773
22450SOL    HW179409   1.123   8.167   0.797  1.0607  1.1115  0.5720
22450SOL    HW279410   1.186   8.257   0.677 -0.5331  0.3389 -0.8662
22451SOL     OW79411   3.550   1.744   7.929  0.2375 -0.2359 -0.1698
22451SOL    HW179412   3.544   1.655   7.974 -0.5530  0.0821  0.3635
22451SOL    HW279413   3.571   1.815   7.997 -1.0364  0.2565 -0.2716
22452SOL     OW79414   0.020   1.350   5.917 -0.2748 -0.0548 -1.3067
22452SOL    HW179415  -0.046   1.348   5.992 -0.1140  1.7223 -1.1065
22452SOL    HW279416  -0.022   1.390   5.836  0.2015 -0.0000 -1.5282
22453SOL     OW79417   8.605   4.742   3.307 -0.2566 -0.8211  0.0791
22453SOL    HW179418   8.573   4.760   3.213 -0.7767 -0.6433  0.2850
22453SOL    HW279419   8.701   4.767   3.315 -0.4557  0.0482 -0.1669
22454SOL     OW79420   6.663   6.867   4.466  0.0321 -0.0790 -0.6504
22454SOL    HW179421   6.709   6.874   4.378  0.0197 -1.0315 -0.7348
22454SOL    HW279422   6.725   6.824   4.533  0.0348  0.6126 -0.1954
22455SOL     OW79423   9.278   6.890   3.838 -0.3100  0.9312 -0.2254
22455SOL    HW179424   9.251   6.849   3.752  2.9626  1.4652 -1.5933
22455SOL    HW279425   9.301   6.818   3.904 -1.8988  0.5441 -0.0619
22456SOL     OW79426   8.112   0.719   7.384  0.5789  0.7592 -0.3535
22456SOL    HW179427   8.135   0.816   7.396 -0.0831  1.1338 -1.9426
22456SOL    HW279428   8.068   0.706   7.295 -1.3992 -0.6418  0.7765
22457SOL     OW79429   9.809   4.098   7.459 -0.4488  0.3708 -0.3475
22457SOL    HW179430   9.717   4.065   7.440 -0.3036 -0.9677  1.1320
22457SOL    HW279431   9.871   4.020   7.470  0.2299  1.1580  1.6533
22458SOL     OW79432   9.045   7.489   4.431  0.2003  0.6158 -0.1574
22458SOL    HW179433   9.103   7.568   4.412 -2.1361  2.2249 -0.9032
22458SOL    HW279434   8.949   7.516   4.422 -0.6471 -2.2874 -0.2268
22459SOL     OW79435   0.792   2.421   0.093 -0.6075  0.3090  0.0300
22459SOL    HW179436   0.740   2.398   0.175  0.3351  0.6344  0.7364
22459SOL    HW279437   0.849   2.343   0.066 -0.1074  0.5671  0.3253
22460SOL     OW79438   3.110   5.448   8.932 -0.3071 -0.5318  0.0821
22460SOL    HW179439   3.171   5.419   9.006  0.4049  0.3158 -0.1583
22460SOL    HW279440   3.074   5.539   8.953  1.4561  0.5776 -1.5216
22461SOL     OW79441   8.198   3.107   3.925  0.1721  0.2829  0.3747
22461SOL    HW179442   8.199   3.133   3.829 -1.3074  0.8582  0.4918
22461SOL    HW279443   8.239   3.017   3.936  0.0603  0.0795 -0.8357
22462SOL     OW79444   1.277   6.220   3.458  0.4371 -0.0114  0.2820
22462SOL    HW179445   1.298   6.285   3.530  1.1756  1.6607 -1.3839
22462SOL    HW279446   1.318   6.131   3.479  0.1068  0.2732  2.1839
22463SOL     OW79447   4.069   7.685   4.301 -0.2107 -0.0835 -0.4246
22463SOL    HW179448   4.009   7.612   4.269 -1.8658  1.1494 -0.1661
22463SOL    HW279449   4.028   7.774   4.281  0.7381  0.7591  1.2451
22464SOL     OW79450   3.998   6.398  10.051 -0.1103 -0.5713 -0.2248
22464SOL    HW179451   3.921   6.456  10.027 -0.2053 -0.4759  0.3210
22464SOL    HW279452   4.015   6.402  10.149 -0.7041 -2.1819 -0.0388
22465SOL     OW79453   9.583   5.298   5.114  0.4037  0.3613  0.0641
22465SOL    HW179454   9.538   5.339   5.193 -2.0007  2.1753 -2.1503
22465SOL    HW279455   9.651   5.232   5.145 -0.3251  1.1641  3.6219
22466SOL     OW79456   7.855   2.153   3.508  0.3748  0.1768 -0.5075
22466SOL    HW179457   7.927   2.142   3.439  0.6885 -1.0368  0.0014
22466SOL    HW279458   7.897   2.183   3.594  0.2712 -0.4260 -0.2423
22467SOL     OW79459   7.370   6.034   9.442 -0.5812  0.3089  0.4208
22467SOL    HW179460   7.409   6.010   9.530 -1.4205  2.5173  1.4311
22467SOL    HW279461   7.444   6.056   9.378 -0.0212  0.0119  0.9527
22468SOL     OW79462   8.908   5.959   0.814 -0.1959 -0.0555 -0.2866
22468SOL    HW179463   8.995   5.965   0.863 -0.1988  2.5464 -0.5175
22468SOL    HW279464   8.832   5.967   0.878 -0.2335  0.0669 -0.3464
22469SOL     OW79465   9.268   9.448   0.398 -0.3188 -0.3853  0.1374
22469SOL    HW179466   9.298   9.491   0.484 -0.8073 -1.3217  0.7805
22469SOL    HW279467   9.169   9.463   0.387 -0.0142  0.9178 -0.9562
22470SOL     OW79468   6.259   1.756   4.569 -0.1334 -0.4571  0.0559
22470SOL    HW179469   6.185   1.788   4.628  1.1199  0.2056  1.3135
22470SOL    HW279470   6.327   1.829   4.559  1.1726 -1.6306  0.2961
22471SOL     OW79471   2.786   7.458   4.440 -0.1151 -0.0347  0.2756
22471SOL    HW179472   2.884   7.462   4.418  0.0055 -1.5436  0.4640
22471SOL    HW279473   2.745   7.548   4.425  1.6422  1.0725  1.8636
22472SOL     OW79474   4.005   0.114   4.649  0.2484 -0.0436 -0.0202
22472SOL    HW179475   3.950   0.073   4.576 -0.6854  0.6917  0.2686
22472SOL    HW279476   4.065   0.044   4.688 -0.8205 -0.9714 -0.0176
22473SOL     OW79477   9.460   5.334   1.568  0.3471  0.0068 -0.3899
22473SOL    HW179478   9.434   5.288   1.652  0.2624  0.3781 -0.2119
22473SOL    HW279479   9.395   5.408   1.548  3.2036  3.3396  1.9756
22474SOL     OW79480   0.737   4.180   6.813  0.1621  0.0007 -0.0700
22474SOL    HW179481   0.796   4.260   6.800 -0.1997  0.4631  1.0844
22474SOL    HW279482   0.794   4.100   6.833  0.4601  0.2175 -0.0465
22475SOL     OW79483   9.867   7.058   1.117  0.1774 -0.4094 -0.0358
22475SOL    HW179484   9.865   6.979   1.179 -0.4606  0.1630  0.7015
22475SOL    HW279485   9.930   7.041   1.042 -0.2021 -1.7593 -0.0680
22476SOL     OW79486   0.413   4.684   2.992 -0.1454  0.3505 -0.2801
22476SOL    HW179487   0.410   4.684   2.892  1.7451  3.9384 -0.4365
22476SOL    HW279488   0.347   4.752   3.027 -0.7527 -0.8319  0.9178
22477SOL     OW79489   2.342   8.200   1.652 -0.1829  0.3200 -0.1382
22477SOL    HW179490   2.308   8.133   1.717 -0.8282  1.0682  0.3125
22477SOL    HW279491   2.425   8.243   1.687 -0.5707  0.7740  0.2321
22478SOL     OW79492   0.289   5.214   7.791  0.0021 -0.1508  0.0773
22478SOL    HW179493   0.344   5.296   7.775 -0.5203  0.3185  0.6484
22478SOL    HW279494   0.290   5.193   7.889 -0.4036 -0.4486  0.0165
22479SOL     OW79495   3.452   3.864   7.927  0.2970 -0.0091 -0.3146
22479SOL    HW179496   3.489   3.947   7.969 -2.0930  0.3649  1.1864
22479SOL    HW279497   3.353   3.860   7.944  0.6076 -4.0097  1.1305
22480SOL     OW79498   7.174   4.364   7.291 -0.3682 -0.2144  0.2450
22480SOL    HW179499   7.144   4.402   7.378 -2.5002 -0.8269 -0.1937
22480SOL    HW279500   7.102   4.374   7.223  1.5522  0.9567 -1.6938
22481SOL     OW79501   8.560   6.021   3.431  0.0055 -0.1983  0.0040
22481SOL    HW179502   8.490   6.092   3.420 -0.2089 -0.1829  1.3373
22481SOL    HW279503   8.545   5.949   3.362 -0.5452  0.4292 -0.5428
22482SOL     OW79504   4.395   5.888   3.407 -0.8405  0.3737 -0.5403
22482SOL    HW179505   4.416   5.797   3.443  2.9097  1.1475 -0.6232
22482SOL    HW279506   4.366   5.947   3.482  0.1580  0.0780  0.0836
22483SOL     OW79507   0.271   8.776   9.662  0.6870 -0.0562  0.3444
22483SOL    HW179508   0.178   8.774   9.626  0.5495  0.2912  0.6803
22483SOL    HW279509   0.290   8.692   9.713  0.6656 -0.2678 -0.0013
22484SOL     OW79510   5.988   6.382   9.221 -0.6902 -0.1967 -0.0710
22484SOL    HW179511   5.914   6.449   9.231 -0.5460 -0.2784  1.5814
22484SOL    HW279512   5.968   6.301   9.275 -0.4256 -1.1288 -1.3592
22485SOL     OW79513   2.251   6.528   9.831 -0.4274 -0.1900  0.3873
22485SOL    HW179514   2.161   6.541   9.791 -0.2010 -0.8528 -0.3435
22485SOL    HW279515   2.315   6.593   9.791 -0.3520 -0.4059  0.1545
22486SOL     OW79516   8.213   5.723   4.068 -0.6990  0.0338 -0.1959
22486SOL    HW179517   8.302   5.736   4.112 -1.1025  0.3540  0.5329
22486SOL    HW279518   8.225   5.670   3.984 -0.1155 -1.8842  1.0600
22487SOL     OW79519   3.182   2.140   4.547 -0.2780  0.7583 -0.9019
22487SOL    HW179520   3.152   2.200   4.620  0.6725  0.5852 -0.3645
22487SOL    HW279521   3.200   2.049   4.583 -0.4035  0.5096 -1.4602
22488SOL     OW79522   8.006   4.774   9.723  0.0864  0.0318 -0.1272
22488SOL    HW179523   7.930   4.813   9.671  0.5338  1.4288  0.2473
22488SOL    HW279524   7.993   4.792   9.821  0.5108 -0.4168  0.0174
22489SOL     OW79525   1.127   1.083   8.381 -0.3121  0.3096 -0.1769
22489SOL    HW179526   1.158   1.141   8.457  0.7044  0.0431 -0.3852
22489SOL    HW279527   1.206   1.043   8.335 -0.9109  0.8261 -1.6709
22490SOL     OW79528   1.376   8.219   0.202  0.5027 -0.1013  0.0152
22490SOL    HW179529   1.295   8.172   0.167  0.1897 -0.1680  0.8142
22490SOL    HW279530   1.382   8.205   0.301  0.3445  1.6483  0.2812
22491SOL     OW79531   6.359   0.033   7.948 -0.1803  0.2518 -0.2372
22491SOL    HW179532   6.337   0.075   8.036 -1.5815 -1.5708  0.3165
22491SOL    HW279533   6.297   0.070   7.878 -1.3538 -0.7942  0.2301
22492SOL     OW79534   8.876   0.153   9.559 -0.0545  0.5587  0.2062
22492SOL    HW179535   8.834   0.241   9.583 -0.1241  0.5460  0.1289
22492SOL    HW279536   8.937   0.125   9.633 -0.8525  0.1475  0.7170
22493SOL     OW79537   2.378   8.542   1.199 -0.4934 -0.8397 -0.0240
22493SOL    HW179538   2.342   8.605   1.268 -0.3467 -0.4560 -0.2939
22493SOL    HW279539   2.478   8.543   1.202 -0.4921 -1.8433  0.6714
22494SOL     OW79540   1.395   2.232   4.068  0.1176  0.5038 -0.5331
22494SOL    HW179541   1.466   2.164   4.052  0.1783  0.5974 -0.6583
22494SOL    HW279542   1.434   2.313   4.111 -0.1232  0.0735  0.5069
22495SOL     OW79543   1.692   3.598   2.044  0.5190 -0.2582  0.2853
22495SOL    HW179544   1.650   3.545   2.117  1.5600 -1.8938 -0.2872
22495SOL    HW279545   1.661   3.566   1.955 -0.4279  1.4609 -0.0249
22496SOL     OW79546   6.139   0.956   0.716 -0.1731  0.2318 -0.0002
22496SOL    HW179547   6.176   0.873   0.759  0.5869  1.0447  0.9202
22496SOL    HW279548   6.214   1.011   0.679 -0.5926  1.0550  0.3636
22497SOL     OW79549   3.777   2.443   9.455  0.4250 -0.3944 -0.3170
22497SOL    HW179550   3.857   2.408   9.504  1.2407  2.1336  0.2503
22497SOL    HW279551   3.708   2.472   9.521  0.7960  1.3676 -0.6945
22498SOL     OW79552   5.013   6.369   1.199 -0.0770  0.1756  0.2813
22498SOL    HW179553   4.919   6.368   1.232  0.4276  3.2539  1.9658
22498SOL    HW279554   5.073   6.327   1.268  0.0960  0.2648  0.1845
22499SOL     OW79555   8.759   2.904   4.152  0.2763  0.2058  0.2385
22499SOL    HW179556   8.679   2.880   4.207 -0.3556 -2.9078 -1.9116
22499SOL    HW279557   8.833   2.839   4.168  0.2928 -0.4025 -2.0461
22500SOL     OW79558   1.279   9.982   1.217  0.3282 -0.3579  0.1373
22500SOL    HW179559   1.359   9.946   1.169 -0.6416 -0.0294 -1.7623
22500SOL    HW279560   1.289  10.081   1.228  0.0663 -0.2832 -0.3075
22501SOL     OW79561   0.995   7.045   6.619  0.4553  0.0605  0.5909
22501SOL    HW179562   0.916   7.008   6.668 -0.3327  1.0923  0.1276
22501SOL    HW279563   1.070   6.979   6.622 -1.1827 -1.9878 -0.9538
22502SOL     OW79564   2.589   7.245   7.764  0.0205  0.3354  0.0828
22502SOL    HW179565   2.610   7.235   7.667  0.0423  0.5556  0.0668
22502SOL    HW279566   2.552   7.158   7.799  1.8770 -0.3842  0.3410
22503SOL     OW79567   5.256   1.488   0.006 -0.5184 -0.1426 -0.5824
22503SOL    HW179568   5.285   1.392   0.001  1.3091  0.4068 -0.8215
22503SOL    HW279569   5.280   1.525   0.096 -2.4758 -0.2828  0.0210
22504SOL     OW79570   5.384   2.372   5.817 -0.4310 -0.1473 -0.3582
22504SOL    HW179571   5.475   2.333   5.805 -0.5432 -0.2511 -0.8831
22504SOL    HW279572   5.386   2.469   5.793 -0.4901 -0.1825 -0.5049
22505SOL     OW79573   4.866   6.363   9.855 -0.2136 -0.2658 -0.2756
22505SOL    HW179574   4.868   6.423   9.775 -2.2095 -0.3223 -0.3783
22505SOL    HW279575   4.928   6.286   9.841  1.8003  1.3476 -0.4602
22506SOL     OW79576   5.583   2.815   0.686  0.0306 -0.2546  0.0582
22506SOL    HW179577   5.586   2.731   0.632  0.8429  0.7154 -1.4851
22506SOL    HW279578   5.491   2.830   0.721 -0.9758 -0.0313 -2.5745
22507SOL     OW79579   9.172   5.843   7.016  0.1755  0.1415 -0.3237
22507SOL    HW179580   9.185   5.888   6.928  0.0653  1.2873  0.2359
22507SOL    HW279581   9.075   5.849   7.042  0.0119 -1.1158 -0.6116
22508SOL     OW79582   9.848   5.802   0.337  0.3012  0.4151 -0.0918
22508SOL    HW179583   9.880   5.816   0.243  0.2051  0.1755 -0.1606
22508SOL    HW279584   9.906   5.852   0.400  1.6233 -1.0691 -0.0983
22509SOL     OW79585   1.264   1.293   2.334  0.1785 -0.0676  0.2124
22509SOL    HW179586   1.203   1.236   2.389  2.6873 -2.5749  0.5341
22509SOL    HW279587   1.226   1.304   2.242 -2.2776  1.1416  1.3249
22510SOL     OW79588   0.578   1.877   1.135 -0.2100 -0.0628  0.5560
22510SOL    HW179589   0.676   1.892   1.148 -0.1220 -0.6961  0.6545
22510SOL    HW279590   0.536   1.960   1.098  0.5421 -0.1252 -0.4374
22511SOL     OW79591   6.587   4.764   1.986  0.5158 -0.3323  0.3304
22511SOL    HW179592   6.677   4.787   1.950  0.8015 -1.2411  0.4577
22511SOL    HW279593   6.590   4.763   2.086  1.3353 -3.9724  0.3623
22512SOL     OW79594   0.491   8.134   2.868 -0.5816  0.0221  0.6973
22512SOL    HW179595   0.392   8.121   2.872 -0.7978  1.2482 -0.4013
22512SOL    HW279596   0.521   8.187   2.948 -0.9528  0.4857  0.5306
22513SOL     OW79597   7.694   5.595   3.830 -0.0259  0.1866  0.1155
22513SOL    HW179598   7.713   5.543   3.746 -2.5172 -0.6872  0.0251
22513SOL    HW279599   7.758   5.672   3.837 -0.1004  0.6220 -2.9142
22514SOL     OW79600   5.298   9.015   7.297 -0.3322 -0.7331  0.0024
22514SOL    HW179601   5.199   9.022   7.305 -0.4768 -0.7854 -1.6411
22514SOL    HW279602   5.337   8.991   7.386 -1.7236 -0.0711  0.8082
22515SOL     OW79603   1.721   9.671   2.664  0.1367  0.6087  0.4134
22515SOL    HW179604   1.648   9.724   2.620  0.3418 -0.5365 -1.3299
22515SOL    HW279605   1.682   9.614   2.736 -0.5645  0.6930  0.1007
22516SOL     OW79606   7.424   8.535   7.167 -0.0329 -0.8216  0.4665
22516SOL    HW179607   7.338   8.586   7.162  0.2080 -0.4126  0.4879
22516SOL    HW279608   7.414   8.447   7.120  0.6798  0.8204 -2.9070
22517SOL     OW79609   1.392   1.588   9.364  0.0036 -0.1207  0.3487
22517SOL    HW179610   1.434   1.657   9.423  1.7444 -1.6227  0.8868
22517SOL    HW279611   1.441   1.584   9.277 -0.9162  0.2122 -0.2035
22518SOL     OW79612   2.708   2.652   1.358 -0.1014 -0.0721  0.0809
22518SOL    HW179613   2.709   2.677   1.455  1.9032 -0.6371  0.2277
22518SOL    HW279614   2.623   2.604   1.337 -0.6591  0.2582  1.5086
22519SOL     OW79615   8.248   3.822   3.511 -0.3698 -0.3340  0.5479
22519SOL    HW179616   8.221   3.918   3.507  0.1122 -0.2501 -1.2154
22519SOL    HW279617   8.308   3.801   3.434 -0.2505 -1.9935  1.0625
22520SOL     OW79618   6.629   9.268   7.688 -0.1768 -0.4567  0.5503
22520SOL    HW179619   6.565   9.303   7.619  0.0429  0.9098  1.0209
22520SOL    HW279620   6.586   9.193   7.738 -0.2165 -1.6958 -1.2798
22521SOL     OW79621   0.008   4.655   6.687  0.2639  0.7911  0.4778
22521SOL    HW179622  -0.089   4.640   6.704  0.4914  1.1213  2.0870
22521SOL    HW279623   0.022   4.676   6.590 -1.3105  1.1462  0.3259
22522SOL     OW79624   6.340   5.951   0.448  0.3118  0.1054 -0.4993
22522SOL    HW179625   6.353   5.977   0.353  0.0543 -1.1107 -0.8681
22522SOL    HW279626   6.418   5.982   0.502  0.5756  0.5674 -1.1451
22523SOL     OW79627   6.911   3.300   8.581  0.0927 -0.3195 -0.3442
22523SOL    HW179628   6.922   3.380   8.639  0.5441  0.2708 -1.2365
22523SOL    HW279629   6.983   3.234   8.600 -1.7737 -1.6955  2.2543
22524SOL     OW79630   0.811   7.125   5.700  0.1326  0.4581  0.0853
22524SOL    HW179631   0.868   7.057   5.746  0.3838 -0.5628 -1.6682
22524SOL    HW279632   0.738   7.155   5.762 -0.4563 -2.0084  0.6609
22525SOL     OW79633   4.661   7.558   4.922  0.3941  0.6763 -0.1526
22525SOL    HW179634   4.743   7.611   4.904  0.7016  0.4776  0.6385
22525SOL    HW279635   4.627   7.579   5.013  0.3454 -0.2468  0.0475
22526SOL     OW79636   2.687   7.961   8.671 -0.0025 -0.0607 -0.0123
22526SOL    HW179637   2.613   8.010   8.625 -1.6725 -1.1756  1.4116
22526SOL    HW279638   2.749   8.026   8.713 -1.5262  0.8726  0.8472
22527SOL     OW79639   9.873   4.293   0.610  0.3521  0.0405 -0.1362
22527SOL    HW179640   9.916   4.383   0.598 -0.8845  0.6557  0.0343
22527SOL    HW279641   9.938   4.222   0.582  1.3515  0.9798 -0.2446
22528SOL     OW79642   2.559   9.248   8.353 -0.6398 -0.2654 -0.2587
22528SOL    HW179643   2.467   9.282   8.376 -0.1372  1.2013 -0.3471
22528SOL    HW279644   2.625   9.290   8.415  0.1740  0.0287 -1.3166
22529SOL     OW79645   1.163   7.311   0.444  0.0961 -0.2863  0.2510
22529SOL    HW179646   1.257   7.342   0.451  0.2149  0.0208 -2.2297
22529SOL    HW279647   1.160   7.222   0.399 -0.7067 -1.0238  1.7150
22530SOL     OW79648   9.085   5.458   2.666  0.5787  0.7526 -0.5710
22530SOL    HW179649   9.139   5.380   2.634 -1.1155 -0.7578  0.1810
22530SOL    HW279650   9.111   5.480   2.760  3.2569  3.1200 -1.8075
22531SOL     OW79651   8.106   5.115   9.759 -0.4964 -0.6933  0.1149
22531SOL    HW179652   8.172   5.133   9.686  1.9469  1.3701  2.7440
22531SOL    HW279653   8.106   5.018   9.781 -0.8468 -1.2514 -2.1724
22532SOL     OW79654   4.215   9.149   8.467  0.2730 -0.3267  0.0626
22532SOL    HW179655   4.235   9.131   8.371  0.1347 -0.4348  0.0553
22532SOL    HW279656   4.126   9.193   8.475  0.7274  0.6315  0.0542
22533SOL     OW79657   5.171   7.329   1.734 -0.0135 -0.0948 -0.0970
22533SOL    HW179658   5.076   7.312   1.709  0.0229  0.6951 -0.7512
22533SOL    HW279659   5.229   7.324   1.653  0.4354 -0.0481  0.2171
22534SOL     OW79660   3.706   1.826   1.217  0.3213  0.2513  0.4194
22534SOL    HW179661   3.702   1.899   1.148  1.1988  1.0939  1.2628
22534SOL    HW279662   3.758   1.749   1.180  1.5530  1.0524  0.4496
22535SOL     OW79663   3.088   7.146   5.948 -0.4719 -1.0091 -0.2238
22535SOL    HW179664   3.040   7.185   5.870  2.6835 -0.2473 -1.8604
22535SOL    HW279665   3.110   7.218   6.014  1.6136 -0.6888 -1.2331
22536SOL     OW79666   0.415   2.934   1.457  0.3056  0.8271  0.3802
22536SOL    HW179667   0.453   2.967   1.543  1.4319  2.9127 -0.8577
22536SOL    HW279668   0.483   2.876   1.411 -0.0653  0.1961  0.6314
22537SOL     OW79669   9.481   0.560   7.352  0.5190  0.3042 -0.2275
22537SOL    HW179670   9.559   0.499   7.366  0.9245  0.3713 -2.0681
22537SOL    HW279671   9.397   0.516   7.383  0.6736 -1.5676 -2.3720
22538SOL     OW79672   1.504   7.092   5.513  0.2294  0.0655  0.0126
22538SOL    HW179673   1.499   7.073   5.610 -0.2531  0.3618  0.0464
22538SOL    HW279674   1.438   7.163   5.489  0.3058 -0.0454 -0.5406
22539SOL     OW79675   9.950   4.689   7.284 -0.2972  0.1979  0.1018
22539SOL    HW179676   9.868   4.687   7.226 -0.2235  1.2125 -0.0473
22539SOL    HW279677   9.929   4.648   7.373 -1.1529  0.9793  0.2743
22540SOL     OW79678   0.867   8.936   0.434  0.5253  0.0797  0.1033
22540SOL    HW179679   0.782   8.934   0.487  0.3253 -3.0569 -0.2569
22540SOL    HW279680   0.849   8.901   0.342  2.1851 -0.4623 -0.0217
22541SOL     OW79681   7.258   1.917   2.606 -0.1022  0.4058  0.2447
22541SOL    HW179682   7.170   1.964   2.597 -0.6044 -0.3986  0.8050
22541SOL    HW279683   7.273   1.858   2.527 -0.1094  0.4886  0.1825
22542SOL     OW79684   0.310   7.958   6.086 -0.3274 -1.1821 -0.0773
22542SOL    HW179685   0.401   7.980   6.050 -1.1969  1.3692 -0.8414
22542SOL    HW279686   0.285   7.865   6.059  0.8421 -0.8756 -2.3707
22543SOL     OW79687   4.410   4.672   8.442 -0.6507 -0.0307 -0.4695
22543SOL    HW179688   4.477   4.627   8.500 -1.8904 -0.2575  0.7936
22543SOL    HW279689   4.457   4.713   8.363  0.9955  0.0624  0.5403
22544SOL     OW79690   1.244   5.594   1.551 -0.0712 -0.0596  0.9468
22544SOL    HW179691   1.229   5.635   1.641 -2.4829 -0.2845  0.6836
22544SOL    HW279692   1.159   5.555   1.518  0.9531 -0.5843 -1.1539
22545SOL     OW79693   9.084   8.576   8.698  0.2671  0.6825 -0.1862
22545SOL    HW179694   9.005   8.542   8.749  0.4642  1.4444  0.6331
22545SOL    HW279695   9.135   8.498   8.661 -0.1060  0.1383  0.4332
22546SOL     OW79696   1.229   8.780   9.497  0.6002  0.4534  0.4149
22546SOL    HW179697   1.174   8.832   9.562 -0.3343  1.0163 -0.8070
22546SOL    HW279698   1.264   8.697   9.541 -1.2366  0.0865  1.1995
22547SOL     OW79699   2.755   4.974   3.451 -0.5109  0.1263 -0.2607
22547SOL    HW179700   2.823   4.905   3.476 -0.1550 -0.2745 -2.2296
22547SOL    HW279701   2.670   4.929   3.425  0.2859  0.2417 -3.3316
22548SOL     OW79702   7.597   6.372   0.105  0.0908 -0.1251 -0.2693
22548SOL    HW179703   7.669   6.411   0.163 -0.1563 -1.6833  1.1228
22548SOL    HW279704   7.509   6.379   0.152 -0.4653  0.5473 -1.3924
22549SOL     OW79705   6.343   2.745   0.326  0.2528 -0.4554 -0.1703
22549SOL    HW179706   6.407   2.681   0.284  0.4781  0.3390 -1.0458
22549SOL    HW279707   6.390   2.832   0.345  0.4924 -1.2065  2.8768
22550SOL     OW79708   2.079   1.368   6.530 -0.1881 -0.5736  0.3645
22550SOL    HW179709   2.051   1.303   6.459  1.1098  0.0614 -0.7568
22550SOL    HW279710   2.069   1.461   6.496  0.1644 -0.2548  1.1302
22551SOL     OW79711   0.665   4.963   6.616  0.2207  0.1207  0.1244
22551SOL    HW179712   0.689   5.060   6.626  0.0632  0.2603 -0.7848
22551SOL    HW279713   0.743   4.906   6.641 -0.1390  0.4369  2.0433
22552SOL     OW79714   7.992   6.994   3.526 -0.2651 -0.4466 -0.2934
22552SOL    HW179715   8.046   6.990   3.442 -0.2271 -1.1623 -0.2349
22552SOL    HW279716   8.045   6.957   3.602 -0.2002  0.4597  0.0988
22553SOL     OW79717   9.902   3.955   8.880  0.0653 -0.1345 -0.3329
22553SOL    HW179718   9.915   3.859   8.856 -1.4976 -0.7813  1.3117
22553SOL    HW279719   9.850   4.000   8.808  0.0932 -0.7217 -0.7262
22554SOL     OW79720   0.302   3.278   8.436 -0.2283  0.5113  0.6468
22554SOL    HW179721   0.355   3.249   8.516 -1.0298 -0.7244  0.7377
22554SOL    HW279722   0.230   3.211   8.418  0.2561  0.5424 -1.4181
22555SOL     OW79723   4.198   2.982   8.126 -0.6182 -0.1989  0.0882
22555SOL    HW179724   4.196   3.056   8.059  0.7446  0.6719  0.9899
22555SOL    HW279725   4.198   2.894   8.078 -2.3966  0.3606 -0.9833
22556SOL     OW79726   9.385   5.277   2.037 -0.1135  0.5354 -0.3908
22556SOL    HW179727   9.376   5.244   1.943 -0.2532 -1.4957  0.3226
22556SOL    HW279728   9.480   5.300   2.056  0.0987 -0.0999 -0.6846
22557SOL     OW79729   8.951   9.010   6.808  0.2635 -0.0586 -0.3571
22557SOL    HW179730   8.871   8.951   6.796  0.0221  0.3309 -0.7071
22557SOL    HW279731   8.922   9.096   6.851  0.7621 -0.5567  1.0035
22558SOL     OW79732   4.781   0.209   1.803  0.2169 -0.0615  0.0707
22558SOL    HW179733   4.834   0.234   1.722 -0.7995  1.4129 -0.1679
22558SOL    HW279734   4.722   0.132   1.781 -1.5774  1.6240 -1.2549
22559SOL     OW79735   9.724   6.342   1.778  0.8488  0.1437 -0.0623
22559SOL    HW179736   9.766   6.340   1.869  0.9757  1.7042 -0.0775
22559SOL    HW279737   9.685   6.252   1.757  2.4897 -0.7790  0.7496
22560SOL     OW79738   4.276   0.700   9.518 -0.6553 -0.0680  0.2755
22560SOL    HW179739   4.326   0.613   9.516  0.9384  0.8285 -0.5637
22560SOL    HW279740   4.202   0.697   9.451 -0.2010 -0.5699 -0.2166
22561SOL     OW79741   0.345   4.991   0.694 -0.6655 -0.3069  0.9435
22561SOL    HW179742   0.297   4.984   0.607  0.9899 -1.3461  0.0743
22561SOL    HW279743   0.419   4.923   0.696 -0.4140  0.0070  2.9789
22562SOL     OW79744   2.675   0.345   2.356  0.5350 -0.2197  0.5325
22562SOL    HW179745   2.650   0.279   2.286  0.4588  0.9128 -0.5208
22562SOL    HW279746   2.616   0.426   2.349  0.4016 -0.1585  2.0112
22563SOL     OW79747   5.285   2.271   4.887  0.0778  0.0528 -0.0201
22563SOL    HW179748   5.372   2.241   4.848  1.3464  0.0428  2.7075
22563SOL    HW279749   5.302   2.329   4.966 -2.4163 -1.8317  1.9952
22564SOL     OW79750   3.501   5.154   3.757 -0.1585 -0.1762  0.2144
22564SOL    HW179751   3.424   5.216   3.747  1.4245  2.0570  1.4681
22564SOL    HW279752   3.526   5.116   3.668 -1.0019  1.1836 -0.6030
22565SOL     OW79753   6.234   8.047   6.796 -0.1383  0.1131 -0.0969
22565SOL    HW179754   6.200   7.972   6.852  2.5945 -1.0326  0.0985
22565SOL    HW279755   6.233   8.132   6.848  1.1083 -0.6867  1.2608
22566SOL     OW79756   9.567   4.554   7.966 -0.3918  0.2543 -0.5168
22566SOL    HW179757   9.619   4.501   8.032 -1.5886  0.2963  0.4770
22566SOL    HW279758   9.541   4.642   8.006 -0.2903  0.6854 -1.3822
22567SOL     OW79759   3.850   5.611   3.112  0.1638  0.4795  1.0395
22567SOL    HW179760   3.935   5.568   3.141 -0.4342 -0.4910  1.3815
22567SOL    HW279761   3.775   5.545   3.119 -0.7851  1.6006  1.6465
22568SOL     OW79762   4.617   0.634   6.636 -0.5437  0.3043  0.5571
22568SOL    HW179763   4.608   0.731   6.612  1.3047  0.9194  2.2095
22568SOL    HW279764   4.700   0.597   6.593 -1.1571 -0.5087  0.0670
22569SOL     OW79765   9.182   9.056   0.983 -0.1846  0.1554  0.4082
22569SOL    HW179766   9.115   9.129   0.972  0.4871  0.9950  1.6456
22569SOL    HW279767   9.170   9.013   1.072  0.8106  0.2171  0.5777
22570SOL     OW79768   1.331   8.544   9.603 -0.8817 -0.0651  0.3473
22570SOL    HW179769   1.265   8.537   9.679 -1.2548 -0.2939  0.0032
22570SOL    HW279770   1.423   8.524   9.637 -1.2152 -1.3900  0.4854
22571SOL     OW79771   4.861   2.333   0.310 -0.5546  0.0343  0.6478
22571SOL    HW179772   4.778   2.382   0.337 -1.7477 -2.1898  1.0609
22571SOL    HW279773   4.911   2.306   0.392 -0.0116  0.3382  0.4187
22572SOL     OW79774   9.197   5.120   4.293 -0.3818 -0.5389 -0.7565
22572SOL    HW179775   9.234   5.030   4.315 -1.3647 -1.0591 -1.1836
22572SOL    HW279776   9.155   5.118   4.203 -4.3776 -0.9003  0.9940
22573SOL     OW79777   0.819   7.587   0.249 -0.1169  0.4574  0.0112
22573SOL    HW179778   0.735   7.549   0.211  0.6722  0.1925 -1.4973
22573SOL    HW279779   0.798   7.670   0.300 -0.9451  2.0069 -2.7740
22574SOL     OW79780   8.926   0.315   3.689 -0.2547  0.0184  0.0920
22574SOL    HW179781   8.974   0.239   3.645 -0.1537 -0.2992  0.7541
22574SOL    HW279782   8.988   0.393   3.697 -0.1488 -0.0609  0.0436
22575SOL     OW79783   0.282   3.624   3.438  0.5732  0.1403 -0.4072
22575SOL    HW179784   0.219   3.547   3.428  1.1612 -0.3965 -0.0233
22575SOL    HW279785   0.238   3.708   3.406 -0.7014 -0.0468  0.8425
22576SOL     OW79786   4.345   3.180   9.684 -0.0771  0.5025 -0.0617
22576SOL    HW179787   4.440   3.162   9.710 -0.2375 -2.9120 -1.5689
22576SOL    HW279788   4.329   3.149   9.591 -3.2649 -1.2902  0.9805
22577SOL     OW79789   9.194   1.280   6.970  0.0409  0.1537 -0.4386
22577SOL    HW179790   9.175   1.369   7.011 -1.9679  0.1093 -1.1939
22577SOL    HW279791   9.107   1.237   6.943  0.8046 -2.7631  1.4517
22578SOL     OW79792   5.445   7.693   6.561  0.4857  0.4702  0.7863
22578SOL    HW179793   5.538   7.725   6.576  0.5245  1.0542 -0.6279
22578SOL    HW279794   5.447   7.600   6.526  0.6061  0.9522 -0.5210
22579SOL     OW79795   7.034   8.500   5.461 -0.2969  0.1040  0.6539
22579SOL    HW179796   6.969   8.484   5.535 -0.3839 -0.2732  0.4948
22579SOL    HW279797   7.038   8.420   5.402 -2.0251  1.2945 -1.1176
22580SOL     OW79798   6.869   9.644   5.665 -0.1577  0.5620  0.6765
22580SOL    HW179799   6.910   9.567   5.714 -0.8653  0.9551  1.9016
22580SOL    HW279800   6.879   9.630   5.566 -0.7120 -1.3410  0.8763
22581SOL     OW79801   6.363   8.641   6.315 -0.2409  0.0728  0.2355
22581SOL    HW179802   6.269   8.667   6.292  0.8465  0.9079 -3.4439
22581SOL    HW279803   6.372   8.541   6.312 -0.7404  0.0517 -0.3975
22582SOL     OW79804   3.350   1.142   7.162 -0.1160  0.7100 -0.5425
22582SOL    HW179805   3.428   1.191   7.201 -1.0049  3.1117 -1.7180
22582SOL    HW279806   3.282   1.125   7.233  0.3500  0.8540 -0.0582
22583SOL     OW79807   8.652   6.157   1.277  0.7255 -0.1842 -0.8232
22583SOL    HW179808   8.594   6.173   1.198 -0.7555  2.4776  0.7444
22583SOL    HW279809   8.602   6.102   1.344  2.6909 -4.1985 -2.4903
22584SOL     OW79810   1.518   8.108   9.182 -0.6113 -0.1679  0.5267
22584SOL    HW179811   1.452   8.172   9.143  0.0378 -0.7340 -1.5595
22584SOL    HW279812   1.610   8.142   9.169 -0.3246 -0.9226  0.5438
22585SOL     OW79813   7.636   0.086   5.290  0.7029 -0.7556 -0.1007
22585SOL    HW179814   7.721   0.081   5.341  0.7289 -1.0494 -0.1729
22585SOL    HW279815   7.652   0.061   5.194  0.8014  0.5416 -0.4333
22586SOL     OW79816   1.255   7.125   9.888 -0.2016 -0.2983  0.0813
22586SOL    HW179817   1.254   7.218   9.851  0.2105  0.2663  1.4317
22586SOL    HW279818   1.162   7.089   9.889 -0.2925 -0.0964 -0.9318
22587SOL     OW79819   5.621   0.271   4.738  0.1505  0.9417 -0.1598
22587SOL    HW179820   5.716   0.285   4.710  1.2578 -0.2276  2.7642
22587SOL    HW279821   5.607   0.174   4.759 -1.0732  1.4597  1.5072
22588SOL     OW79822   0.892   0.179   9.377 -0.1218 -0.6338  0.2998
22588SOL    HW179823   0.869   0.273   9.351 -0.7612 -0.6148  0.9089
22588SOL    HW279824   0.808   0.125   9.384 -0.0680 -0.4575  3.0010
22589SOL     OW79825   4.483   1.199   4.072  0.2649 -0.4187 -0.5038
22589SOL    HW179826   4.529   1.110   4.077 -2.1626 -1.6754  0.4243
22589SOL    HW279827   4.392   1.191   4.113  0.4086  2.7622  0.5364
22590SOL     OW79828   2.464   0.190   3.688  0.3072  0.6446  0.2451
22590SOL    HW179829   2.391   0.251   3.718 -1.0704 -0.2438 -1.2262
22590SOL    HW279830   2.462   0.106   3.743 -0.9160 -0.1190 -0.9374
22591SOL     OW79831   2.893   5.595   4.722 -0.2691 -0.0793  0.4433
22591SOL    HW179832   2.873   5.560   4.631 -1.0085 -0.5766  0.7908
22591SOL    HW279833   2.938   5.684   4.715  0.4700 -0.5097 -0.4221
22592SOL     OW79834   2.675   6.528   9.827  0.3299 -0.3127  0.1964
22592SOL    HW179835   2.738   6.514   9.750 -0.3539  2.7240 -0.9717
22592SOL    HW279836   2.713   6.597   9.889 -0.4160 -0.7616  1.1709
22593SOL     OW79837   0.483   1.710   5.520 -0.4340 -0.3102  0.4130
22593SOL    HW179838   0.563   1.760   5.486 -0.6298  0.2175  0.7293
22593SOL    HW279839   0.415   1.775   5.553 -0.7386 -0.7859  0.7168
22594SOL     OW79840   1.679   1.241   7.639  0.0920  0.4285  0.3022
22594SOL    HW179841   1.770   1.230   7.599  0.6267  0.1445  1.5718
22594SOL    HW279842   1.648   1.153   7.676 -0.2569  0.7587  0.8011
22595SOL     OW79843   2.127   3.798   5.722  0.4600  0.5655  0.2261
22595SOL    HW179844   2.205   3.778   5.664  0.8881 -0.2351  1.0685
22595SOL    HW279845   2.150   3.872   5.785  0.5521  0.3120  0.4924
22596SOL     OW79846   3.126   8.192   3.304  0.0279 -0.2882  0.0805
22596SOL    HW179847   3.097   8.285   3.280 -0.5738 -1.4361 -4.0290
22596SOL    HW279848   3.045   8.137   3.326  0.2720 -0.2034  1.2262
22597SOL     OW79849   8.987   3.606   6.030  0.2150 -0.0800  0.6635
22597SOL    HW179850   8.928   3.631   5.953 -0.3893 -1.1666  0.7713
22597SOL    HW279851   8.943   3.632   6.116  0.0288 -0.6225  0.7315
22598SOL     OW79852   7.998   8.674   3.132  0.2516 -0.0897  0.3053
22598SOL    HW179853   8.001   8.596   3.194 -2.4678  0.6248  1.3840
22598SOL    HW279854   8.051   8.750   3.171  1.4757 -0.7887  0.0482
22599SOL     OW79855   1.549   2.286   5.683  0.3769  0.5357 -0.1245
22599SOL    HW179856   1.518   2.205   5.634  1.4534  1.3202 -2.1997
22599SOL    HW279857   1.624   2.261   5.744  2.0670  0.2461 -2.2312
22600SOL     OW79858   9.033   4.764   2.839  0.3169 -0.0004 -0.0708
22600SOL    HW179859   9.104   4.825   2.806  0.3807 -0.1407 -0.1927
22600SOL    HW279860   9.047   4.672   2.801  0.0179 -0.0062 -0.1669
22601SOL     OW79861   3.663   5.234   7.748  0.5440  0.3603 -0.1208
22601SOL    HW179862   3.694   5.172   7.677 -0.9957  1.9421 -2.2564
22601SOL    HW279863   3.687   5.328   7.723  0.0736  0.9370  1.5119
22602SOL     OW79864   1.308   6.828   0.885 -0.1622  0.2916  0.5811
22602SOL    HW179865   1.287   6.888   0.962 -0.3360  1.6674 -0.5329
22602SOL    HW279866   1.273   6.868   0.800  2.5060  0.1881 -0.6208
22603SOL     OW79867   4.423   4.835   5.661  0.1775  0.1902 -0.3664
22603SOL    HW179868   4.337   4.853   5.709  1.0024  0.2765  1.1177
22603SOL    HW279869   4.421   4.879   5.572 -1.4685 -0.1208 -0.5078
22604SOL     OW79870   8.145   6.726   1.749  0.1134 -0.5631  0.4782
22604SOL    HW179871   8.197   6.744   1.666 -0.8917 -0.2294 -0.0959
22604SOL    HW279872   8.082   6.802   1.765  1.0487 -0.1157  2.1378
22605SOL     OW79873   5.436   2.875   9.663 -0.4881 -0.0747  0.0384
22605SOL    HW179874   5.507   2.942   9.686  0.3620 -1.0764  0.3723
22605SOL    HW279875   5.442   2.853   9.565 -0.8721  0.4459 -0.1071
22606SOL     OW79876   7.205   5.290   0.150  0.5199 -0.3116 -0.0916
22606SOL    HW179877   7.173   5.377   0.114  1.8644  0.0551 -0.4482
22606SOL    HW279878   7.134   5.221   0.141 -0.5866  0.7723  0.2814
22607SOL     OW79879   2.695   9.495   1.712  0.2198 -0.3873 -0.7491
22607SOL    HW179880   2.760   9.449   1.771  1.0802  0.0470 -1.3486
22607SOL    HW279881   2.605   9.452   1.722  0.0589  0.4802  1.7842
22608SOL     OW79882   6.074   9.727   1.342 -0.5503  0.4940 -0.4262
22608SOL    HW179883   6.011   9.656   1.310  1.4722 -1.4654 -0.1121
22608SOL    HW279884   6.061   9.741   1.441  0.4438 -0.8667 -0.1021
22609SOL     OW79885   7.451   0.568   9.291  0.1098  0.3195 -0.2253
22609SOL    HW179886   7.518   0.642   9.293 -0.4652  0.8620 -0.6748
22609SOL    HW279887   7.396   0.571   9.375  1.0514 -0.5132  0.4292
22610SOL     OW79888   2.167   2.359   1.113 -0.2751  0.4429  0.4292
22610SOL    HW179889   2.186   2.267   1.146 -0.1231  0.9311  1.7345
22610SOL    HW279890   2.217   2.374   1.027 -1.6437 -1.2487 -0.6889
22611SOL     OW79891   5.820   5.147   7.938 -0.4581 -0.5850  0.1640
22611SOL    HW179892   5.774   5.234   7.920  0.5580  0.0520  0.6079
22611SOL    HW279893   5.917   5.163   7.957 -0.4636 -1.7093  1.2417
22612SOL     OW79894   8.380   4.547   0.876 -0.6404 -0.2971  0.3806
22612SOL    HW179895   8.447   4.600   0.824  1.9992 -2.6247  1.2345
22612SOL    HW279896   8.371   4.586   0.968 -0.6502  0.1950  0.1699
22613SOL     OW79897   9.357   1.134   0.413  0.0826  0.8368 -0.2068
22613SOL    HW179898   9.346   1.071   0.491 -2.1161  1.5545  0.0910
22613SOL    HW279899   9.453   1.158   0.403  1.0150 -2.7462 -0.4532
22614SOL     OW79900   1.718   8.430   6.987  0.0521 -0.2381 -0.8846
22614SOL    HW179901   1.683   8.338   7.003 -0.0184  0.1029  1.0313
22614SOL    HW279902   1.647   8.497   7.008  0.9850  0.3435  0.5076
22615SOL     OW79903   0.725   4.697   5.735 -1.0124  0.5538  0.1868
22615SOL    HW179904   0.714   4.682   5.637 -3.0730  2.9933 -0.0276
22615SOL    HW279905   0.635   4.696   5.779 -0.1173 -0.3720  2.0270
22616SOL     OW79906   2.152   6.627   0.083 -0.2719  1.0160  0.3966
22616SOL    HW179907   2.129   6.698   0.016 -1.6304  0.1821 -0.0321
22616SOL    HW279908   2.206   6.556   0.039 -0.7970  0.6852  0.2784
22617SOL     OW79909   9.932   2.665   9.538 -0.2068  0.5828 -0.3291
22617SOL    HW179910   9.875   2.595   9.493 -0.5543  0.5798  0.1131
22617SOL    HW279911   9.945   2.641   9.634 -0.7913  1.4085 -0.0343
22618SOL     OW79912   1.198   9.368   5.832  0.3952 -0.4788  0.1821
22618SOL    HW179913   1.124   9.405   5.888 -1.3763 -1.2126 -1.6308
22618SOL    HW279914   1.216   9.273   5.859  0.2836 -0.4887  0.2207
22619SOL     OW79915   0.784   6.048   8.049  0.0087  0.1275  0.5989
22619SOL    HW179916   0.789   5.997   8.135 -2.9447 -2.0788 -0.4750
22619SOL    HW279917   0.787   5.984   7.972  1.5758  2.0017 -0.9535
22620SOL     OW79918   3.257   2.615   7.490  0.5246  0.0391  0.2043
22620SOL    HW179919   3.163   2.603   7.457  0.3099  0.8747  0.4986
22620SOL    HW279920   3.256   2.632   7.588  1.1090 -1.6057  0.5139
22621SOL     OW79921   0.752   5.253   9.444 -0.1604  0.3016  0.6001
22621SOL    HW179922   0.796   5.220   9.528 -0.0430 -0.7204  0.1423
22621SOL    HW279923   0.814   5.316   9.396 -0.2830  1.0003  1.3444
22622SOL     OW79924   1.491   3.095   8.688 -0.2577  0.5121 -0.2899
22622SOL    HW179925   1.530   3.117   8.599 -1.0170  2.3043 -0.1927
22622SOL    HW279926   1.552   3.130   8.760  0.1937 -0.6486 -0.0872
22623SOL     OW79927   9.630   9.524   2.753  0.0507 -0.6735  0.2770
22623SOL    HW179928   9.577   9.444   2.725 -1.7423  0.6106 -0.0659
22623SOL    HW279929   9.606   9.547   2.848  2.5480 -2.1151  1.3200
22624SOL     OW79930   6.780   9.556   3.136 -0.1514  0.1113 -0.0080
22624SOL    HW179931   6.833   9.483   3.178 -0.8920 -1.3938 -1.6180
22624SOL    HW279932   6.697   9.572   3.190 -1.5910 -2.4905 -1.3766
22625SOL     OW79933   8.432   2.815   3.222 -0.2978  0.3795 -0.0580
22625SOL    HW179934   8.412   2.767   3.136 -0.1024  1.9926 -1.0126
22625SOL    HW279935   8.346   2.833   3.271 -0.6354  1.6850 -1.1222
22626SOL     OW79936   2.272   1.041   5.510 -0.1644 -0.1455 -0.0402
22626SOL    HW179937   2.258   1.025   5.607  1.6161  0.5578  0.3429
22626SOL    HW279938   2.197   1.097   5.474 -0.0962  0.7544  1.2190
22627SOL     OW79939   8.977   5.157   8.898  0.0090  0.3640  0.3612
22627SOL    HW179940   8.959   5.070   8.945 -1.3912 -0.3275 -1.3687
22627SOL    HW279941   9.067   5.192   8.925  0.5106 -1.5294  1.2294
22628SOL     OW79942   1.721   8.642   2.453 -0.4506  0.1020 -0.3923
22628SOL    HW179943   1.771   8.648   2.366 -0.0806  1.3976 -0.1075
22628SOL    HW279944   1.623   8.644   2.434 -0.5083 -4.9743 -1.1270
22629SOL     OW79945   3.494   3.740   3.464 -0.1833  0.1564  0.7281
22629SOL    HW179946   3.552   3.673   3.510 -1.3208  0.4827  2.7299
22629SOL    HW279947   3.422   3.693   3.413  0.0568 -0.1929  0.7159
22630SOL     OW79948   0.427   5.596   9.265 -0.4832  0.2093 -0.2603
22630SOL    HW179949   0.426   5.669   9.334  1.0827 -0.0526  0.0599
22630SOL    HW279950   0.459   5.633   9.178  1.1143 -0.2677  0.1158
22631SOL     OW79951   1.157   8.511   0.323  0.0316 -0.1229 -0.3031
22631SOL    HW179952   1.178   8.478   0.415  1.0006 -0.1357 -0.5307
22631SOL    HW279953   1.062   8.542   0.320  0.3597  1.0487  1.0491
22632SOL     OW79954   0.691   9.398   1.906  0.4493 -0.0158 -0.4137
22632SOL    HW179955   0.655   9.320   1.855  3.0326  0.8533 -3.7579
22632SOL    HW279956   0.634   9.478   1.888 -0.4134 -0.4015  0.5536
22633SOL     OW79957   6.766   0.726   3.011  0.1500 -0.4290 -0.0000
22633SOL    HW179958   6.700   0.659   3.048 -1.4660  0.9757 -0.2653
22633SOL    HW279959   6.764   0.723   2.911 -0.7852  0.8076 -0.0303
22634SOL     OW79960   6.586   3.874   1.437 -0.0092  0.1201 -0.0467
22634SOL    HW179961   6.537   3.823   1.367 -1.9842  0.2323  1.2363
22634SOL    HW279962   6.532   3.877   1.521  1.4645  1.6495  0.8834
22635SOL     OW79963   3.809   0.300   2.532 -0.1682 -0.3654  0.6356
22635SOL    HW179964   3.806   0.263   2.625 -2.3692 -0.0561  0.7147
22635SOL    HW279965   3.767   0.234   2.470 -1.9801  0.9696  0.4177
22636SOL     OW79966   6.086   1.596   6.681  0.0016  0.2777 -0.8361
22636SOL    HW179967   6.148   1.637   6.614 -1.7063  0.0756 -2.5905
22636SOL    HW279968   6.018   1.540   6.634  0.3690 -2.0456  1.2967
22637SOL     OW79969   2.911   4.218   9.221 -0.7748  0.1055 -0.2731
22637SOL    HW179970   2.968   4.169   9.155  0.2205  1.9864 -0.8453
22637SOL    HW279971   2.928   4.184   9.313  0.7287  0.1252 -0.5372
22638SOL     OW79972   4.481   5.034   1.538  0.1269  0.2401  0.1055
22638SOL    HW179973   4.522   5.109   1.486  0.7392 -0.0304  0.1974
22638SOL    HW279974   4.533   4.950   1.524 -1.0894 -0.4004 -0.7200
22639SOL     OW79975   3.087   2.557   5.253  0.3752 -0.4843 -0.1439
22639SOL    HW179976   3.057   2.528   5.162 -2.5244 -0.3118  0.7154
22639SOL    HW279977   3.017   2.615   5.294  2.3165  0.6662  1.6177
22640SOL     OW79978   2.250   2.744   0.249  0.0889  0.1352 -0.0910
22640SOL    HW179979   2.236   2.677   0.321  1.3145  0.3030  0.3161
22640SOL    HW279980   2.268   2.834   0.290  2.5272 -0.1107 -0.5587
22641SOL     OW79981   4.982   4.516   8.196 -0.0999 -0.3689 -0.5184
22641SOL    HW179982   5.029   4.487   8.113  1.0511 -2.4203  0.8122
22641SOL    HW279983   4.887   4.487   8.193  0.0786 -0.9177 -0.8801
22642SOL     OW79984   7.652   0.023   2.645  0.3208 -0.2565 -0.2736
22642SOL    HW179985   7.557  -0.006   2.644  0.0384  0.6561 -0.7860
22642SOL    HW279986   7.657   0.121   2.628  1.1190  0.4139  3.3648
22643SOL     OW79987   6.950   7.256   3.784  0.6240 -0.4689 -0.1787
22643SOL    HW179988   6.858   7.273   3.747  0.7601  0.2586 -0.1842
22643SOL    HW279989   7.013   7.238   3.709  0.8601  0.8207 -0.3040
22644SOL     OW79990   9.478   3.704   7.368  0.3480  0.5045  0.0550
22644SOL    HW179991   9.506   3.610   7.351  0.3423  0.5851 -0.3958
22644SOL    HW279992   9.441   3.712   7.461 -0.6638 -0.1582 -0.2878
22645SOL     OW79993   2.531   3.089   0.980  0.3897 -0.3926  0.4735
22645SOL    HW179994   2.496   3.092   0.886 -1.7651  3.1672  1.2777
22645SOL    HW279995   2.629   3.074   0.978  0.3172 -0.8781 -2.3180
22646SOL     OW79996   2.794   6.387   1.835  0.1137 -0.0650  0.3427
22646SOL    HW179997   2.798   6.368   1.737 -1.3554 -1.3237  0.5014
22646SOL    HW279998   2.712   6.344   1.873  1.2122 -0.4615  2.3020
22647SOL     OW79999   9.750   0.938   0.432 -0.0419  0.0419 -0.0855
22647SOL    HW180000   9.722   0.857   0.381 -1.1423  0.4007 -0.0561
22647SOL    HW280001   9.843   0.924   0.467  0.1081 -0.8518 -0.8092
22648SOL     OW80002   2.163   7.685   0.841  0.7238  0.5084 -0.9355
22648SOL    HW180003   2.242   7.681   0.780 -0.4994 -1.8755 -2.4517
22648SOL    HW280004   2.079   7.693   0.786 -0.3886 -1.5259  0.3964
22649SOL     OW80005   7.948   7.996   1.754  0.3192  0.1931 -0.1430
22649SOL    HW180006   7.893   7.921   1.717 -1.1923  1.1785  0.0821
22649SOL    HW280007   7.982   7.972   1.845 -0.4482 -0.0789  0.0723
22650SOL     OW80008   3.232   1.007   0.168 -0.2425 -1.1153  0.0462
22650SOL    HW180009   3.258   0.915   0.199  3.7343 -0.4663 -1.1414
22650SOL    HW280010   3.254   1.074   0.238 -1.6905 -0.8514  0.2713
22651SOL     OW80011   5.457   9.394   8.729 -0.1879 -0.2720  0.1927
22651SOL    HW180012   5.446   9.295   8.738 -1.0082 -0.0315  2.1914
22651SOL    HW280013   5.452   9.420   8.633 -0.7833 -2.0815 -0.2805
22652SOL     OW80014   8.234   5.790   7.954 -0.3923  0.2181 -0.2711
22652SOL    HW180015   8.311   5.765   8.013  0.1545  3.2427  0.4056
22652SOL    HW280016   8.157   5.730   7.972  0.4722 -0.2583  2.0261
22653SOL     OW80017   4.628   9.838   0.129  0.5584  0.6859 -0.1887
22653SOL    HW180018   4.661   9.779   0.055  1.3516 -0.0402  0.7258
22653SOL    HW280019   4.657   9.801   0.217 -0.2875  1.5942  0.4937
22654SOL     OW80020   4.290   9.246   0.862  0.1970  0.1262 -0.1829
22654SOL    HW180021   4.199   9.277   0.835  0.1032 -0.0721 -0.0997
22654SOL    HW280022   4.285   9.150   0.890  0.6173 -0.1775 -1.1309
22655SOL     OW80023   6.933   1.731   1.043  0.1107  0.7032 -0.2357
22655SOL    HW180024   6.982   1.688   0.967 -0.2255 -0.1888  0.0473
22655SOL    HW280025   6.974   1.702   1.129 -0.2003  0.8593 -0.0343
22656SOL     OW80026   0.375   6.280   2.060  0.8447 -0.1935  0.0366
22656SOL    HW180027   0.341   6.225   2.136  0.4755  1.1237  0.8329
22656SOL    HW280028   0.332   6.250   1.975  0.7742 -1.2378  0.4326
22657SOL     OW80029   6.410   5.204   8.709 -0.1598  0.0020  0.8322
22657SOL    HW180030   6.331   5.225   8.767  0.0786  1.6740  0.5742
22657SOL    HW280031   6.465   5.132   8.752 -1.8802 -1.2903  0.9430
22658SOL     OW80032   8.518   9.713   7.963  0.1293  0.2262  0.4916
22658SOL    HW180033   8.590   9.646   7.947  0.1931  0.4945 -0.3736
22658SOL    HW280034   8.544   9.801   7.923 -1.0575  0.1006 -0.5798
22659SOL     OW80035   8.669   8.202   8.722 -0.1200 -0.2996  0.0843
22659SOL    HW180036   8.733   8.244   8.657  0.8650 -0.8246  0.7042
22659SOL    HW280037   8.608   8.272   8.758  1.3846  0.5901  0.9682
22660SOL     OW80038   9.548   3.441   7.489  0.2362 -0.3382  0.3809
22660SOL    HW180039   9.489   3.370   7.528 -0.1639  0.6976  1.7119
22660SOL    HW280040   9.626   3.398   7.444 -0.5851 -1.6593  0.1923
22661SOL     OW80041   7.504   0.260   4.910  0.5453  0.4591 -0.1060
22661SOL    HW180042   7.455   0.241   4.995  0.2231  0.0163 -0.3902
22661SOL    HW280043   7.464   0.340   4.865  0.5557  0.5405  0.0270
22662SOL     OW80044   6.171   0.280   7.532 -0.3914 -0.1436  0.1893
22662SOL    HW180045   6.214   0.319   7.451 -0.3183  2.1938  1.3277
22662SOL    HW280046   6.072   0.276   7.518 -0.2781 -0.8221 -0.4535
22663SOL     OW80047   9.558   1.311   7.288 -0.7163 -0.1481  0.2568
22663SOL    HW180048   9.484   1.262   7.333 -0.6259 -1.4549 -1.0033
22663SOL    HW280049   9.532   1.331   7.193 -0.9869  2.7501  0.8815
22664SOL     OW80050   4.909   3.608   5.845  0.4399  0.1255  0.2462
22664SOL    HW180051   4.823   3.634   5.799  0.0536  0.0028  0.8928
22664SOL    HW280052   4.952   3.690   5.882  0.8353  0.2469 -0.4702
22665SOL     OW80053   0.423   1.338   4.024 -0.8183 -0.6699 -0.1636
22665SOL    HW180054   0.434   1.302   4.116 -0.5583 -1.1059 -0.3610
22665SOL    HW280055   0.464   1.274   3.958  1.2711  0.8543 -0.3875
22666SOL     OW80056   2.165   6.693   3.462 -0.6177 -0.9780 -0.5805
22666SOL    HW180057   2.169   6.793   3.471 -0.9963 -0.8520 -1.6780
22666SOL    HW280058   2.110   6.655   3.536 -1.5055 -0.2448 -0.8477
22667SOL     OW80059   9.844   8.853   0.836  0.1643  0.1299 -0.2161
22667SOL    HW180060   9.909   8.903   0.779  0.9536  2.0514  2.2733
22667SOL    HW280061   9.758   8.903   0.841  0.3965  0.4285  0.9585
22668SOL     OW80062   4.366   0.164   0.215  0.0399  0.2102  0.0352
22668SOL    HW180063   4.440   0.180   0.150 -0.2823  0.3476 -0.3003
22668SOL    HW280064   4.375   0.072   0.254  1.5792  1.0136  1.5629
22669SOL     OW80065   0.527   7.950   4.248  0.0721  0.2827 -0.0588
22669SOL    HW180066   0.477   7.894   4.182  0.3571 -0.4909  0.3705
22669SOL    HW280067   0.508   8.047   4.231  0.6676  0.1292 -1.6987
22670SOL     OW80068   6.832   9.197   3.815  0.3795  0.0886 -0.5445
22670SOL    HW180069   6.841   9.124   3.883  1.1383  2.1729  1.6696
22670SOL    HW280070   6.736   9.204   3.787 -0.2314  0.2270  1.4986
22671SOL     OW80071   5.099   0.245   6.032  0.1910 -0.1211  0.3855
22671SOL    HW180072   5.133   0.204   5.948 -3.3840 -0.7764 -0.8125
22671SOL    HW280073   5.052   0.176   6.086 -1.9559  1.3873  0.4999
22672SOL     OW80074   2.434   1.002   8.323  0.1960 -0.2829  0.1241
22672SOL    HW180075   2.383   1.088   8.327  0.7986  0.0879 -0.1291
22672SOL    HW280076   2.381   0.930   8.368  0.0130  0.3869  0.9902
22673SOL     OW80077   5.357   9.971   6.241 -0.0240  0.1231 -0.0933
22673SOL    HW180078   5.434   9.973   6.304 -0.9513 -0.1438  1.0621
22673SOL    HW280079   5.310  10.059   6.242 -0.8586 -0.3177  0.6386
22674SOL     OW80080   6.489   9.788   2.890 -0.0293 -0.2458 -0.1863
22674SOL    HW180081   6.437   9.847   2.952 -0.0263  0.2628 -0.6646
22674SOL    HW280082   6.509   9.838   2.806 -1.3633 -1.4526 -1.2264
22675SOL     OW80083   9.991   3.203   4.849 -0.3270 -0.1057 -0.0258
22675SOL    HW180084   9.926   3.127   4.854  0.3457 -0.7617 -1.0789
22675SOL    HW280085   9.966   3.264   4.774  0.8002 -0.8836 -1.0629
22676SOL     OW80086   4.886   5.972   8.798  0.0054  0.1526  0.1674
22676SOL    HW180087   4.906   5.914   8.719 -2.4781  0.3380 -0.6309
22676SOL    HW280088   4.825   5.922   8.860  0.6021  0.6412  1.1538
22677SOL     OW80089   3.470   5.112   0.216 -0.0847 -0.0366 -0.2879
22677SOL    HW180090   3.371   5.108   0.224  0.0014 -3.1464 -0.0300
22677SOL    HW280091   3.510   5.110   0.308  0.2053  2.9030 -0.3272
22678SOL     OW80092   2.987   9.783   6.607  0.0230 -0.1757 -0.4433
22678SOL    HW180093   2.964   9.857   6.543 -0.5586  0.1252  0.1086
22678SOL    HW280094   2.905   9.728   6.625  0.3328 -0.6425 -0.4403
22679SOL     OW80095   5.711   3.540   1.015  0.2654 -0.0506  0.2278
22679SOL    HW180096   5.755   3.550   1.105  0.9331  1.9346 -0.2795
22679SOL    HW280097   5.625   3.590   1.015 -0.6976 -1.6795  0.3550
22680SOL     OW80098   1.451   3.700  10.040 -0.2759 -0.0786 -0.3890
22680SOL    HW180099   1.431   3.636   9.966  0.4156  1.9145 -2.3213
22680SOL    HW280100   1.549   3.697  10.060 -0.5147 -0.9153  0.7918
22681SOL     OW80101   8.983   1.822   9.743 -0.0876  0.6669  0.3219
22681SOL    HW180102   8.960   1.913   9.709 -1.1423 -0.2857 -1.5998
22681SOL    HW280103   9.079   1.802   9.722  0.1184  1.2723  0.6562
22682SOL     OW80104   8.195   8.824   2.272  0.0259  0.0824  0.0242
22682SOL    HW180105   8.283   8.794   2.309 -0.4083 -1.0289  0.1825
22682SOL    HW280106   8.178   8.777   2.185 -0.5521  0.0434  0.1564
22683SOL     OW80107   7.990   5.917   2.557  0.2585  0.0247  0.3240
22683SOL    HW180108   8.056   5.893   2.629  0.0786  2.0793  1.2113
22683SOL    HW280109   8.039   5.931   2.471  0.4974 -2.2991  0.0447
22684SOL     OW80110   4.128   3.984   2.170  0.2851  0.2547  0.6727
22684SOL    HW180111   4.066   3.930   2.113  0.6633 -0.5048  0.9812
22684SOL    HW280112   4.087   3.996   2.261 -0.8078  2.3667 -0.0567
22685SOL     OW80113   9.288   3.542   0.363  0.0357  0.3155  0.5447
22685SOL    HW180114   9.279   3.468   0.296  0.8122 -0.3772  1.1901
22685SOL    HW280115   9.310   3.627   0.315 -0.8275  0.1238 -0.2003
22686SOL     OW80116   2.471   0.425   0.213  0.4504 -0.1573 -0.1531
22686SOL    HW180117   2.546   0.491   0.216  0.9973 -0.7300 -0.9847
22686SOL    HW280118   2.499   0.341   0.259  0.4500 -0.4918 -0.7518
22687SOL     OW80119   6.319   2.484   0.928  0.6555  0.9214  0.3967
22687SOL    HW180120   6.230   2.518   0.897  1.3767  1.2609 -1.3699
22687SOL    HW280121   6.377   2.560   0.956  1.5323  1.0092 -1.5797
22688SOL     OW80122   2.038   7.341   1.747 -0.3888  0.4776 -0.0713
22688SOL    HW180123   2.002   7.295   1.665  0.0526  1.6519 -0.9419
22688SOL    HW280124   1.989   7.427   1.760  0.6697  1.0848 -0.0607
22689SOL     OW80125   0.086   2.543   0.460 -0.0729 -0.2584  0.1791
22689SOL    HW180126   0.016   2.485   0.502 -1.3268  1.1598  0.0965
22689SOL    HW280127   0.084   2.531   0.361  0.9352 -1.4592  0.2995
22690SOL     OW80128   5.982   7.967   4.391  0.2567 -0.3301  0.2026
22690SOL    HW180129   5.972   7.892   4.325 -0.8603 -0.8614  0.9618
22690SOL    HW280130   6.026   7.932   4.474 -2.8683 -0.8824  1.7219
22691SOL     OW80131   4.784   9.153   2.456 -0.3730  0.4078 -0.1642
22691SOL    HW180132   4.841   9.219   2.406 -0.9762  1.0128 -0.0510
22691SOL    HW280133   4.708   9.201   2.499 -0.1197 -0.1883  0.9494
22692SOL     OW80134   4.639   2.428   4.849 -0.0312 -0.1293 -0.7759
22692SOL    HW180135   4.548   2.414   4.888  0.3566 -0.4170  0.0393
22692SOL    HW280136   4.647   2.380   4.762 -0.1679 -1.3285 -0.1252
22693SOL     OW80137   4.994   3.132   0.320 -0.1401  0.4259 -0.2024
22693SOL    HW180138   5.066   3.064   0.304  0.4268  0.9951 -0.0836
22693SOL    HW280139   4.904   3.089   0.306  0.2469  0.0509 -1.6608
22694SOL     OW80140   5.712   8.737   4.879  0.1373  0.0966 -0.3635
22694SOL    HW180141   5.743   8.779   4.794 -2.7128  1.4736 -0.7819
22694SOL    HW280142   5.788   8.687   4.921  2.7698  2.9635 -1.4918
22695SOL     OW80143   5.856   2.832   8.907 -0.6216  0.1715  0.0744
22695SOL    HW180144   5.829   2.778   8.987 -2.8319 -0.0802 -0.7743
22695SOL    HW280145   5.944   2.800   8.873 -0.8940 -1.4847  0.8662
22696SOL     OW80146   1.853   2.836   2.039 -0.3035  0.0853 -0.0686
22696SOL    HW180147   1.952   2.844   2.035 -0.1211 -1.8228  0.1769
22696SOL    HW280148   1.821   2.868   2.129  0.3378 -1.4014  0.7126
22697SOL     OW80149   9.481   8.778   1.160 -0.1055  0.3055  1.1878
22697SOL    HW180150   9.467   8.791   1.258  3.3026 -0.4278  1.8451
22697SOL    HW280151   9.515   8.686   1.143  0.1474  0.7083 -0.5947
22698SOL     OW80152   6.007   2.759   2.284  0.6821 -0.4806  0.4131
22698SOL    HW180153   5.914   2.789   2.306  0.3805 -1.6426  0.7362
22698SOL    HW280154   6.010   2.726   2.190  0.8310 -0.2085  0.3210
22699SOL     OW80155   8.649   6.068   9.423  0.0543 -0.1014 -0.2722
22699SOL    HW180156   8.653   5.995   9.354 -0.2709  0.4250 -0.8474
22699SOL    HW280157   8.742   6.091   9.451  0.1924 -0.2655 -0.5867
22700SOL     OW80158   1.317   5.735   6.234 -0.3694 -0.0243 -1.2051
22700SOL    HW180159   1.284   5.826   6.208 -0.2193  0.8122  1.3443
22700SOL    HW280160   1.390   5.706   6.172  0.6210  2.2581 -1.1271
22701SOL     OW80161   6.136   2.978   1.139  0.2396  0.2974 -0.1142
22701SOL    HW180162   6.064   2.918   1.174 -0.2288  1.5605  1.1396
22701SOL    HW280163   6.108   3.013   1.049  0.3642 -1.0560 -0.6987
22702SOL     OW80164   0.898   4.115   9.714  0.8765 -0.0370  0.3918
22702SOL    HW180165   0.974   4.050   9.718  1.3832  0.2831 -2.7271
22702SOL    HW280166   0.887   4.148   9.620 -2.4438  0.7476  0.9864
22703SOL     OW80167   8.409   7.970   5.972  0.3455 -0.0558  0.2069
22703SOL    HW180168   8.437   7.875   5.960  0.7601  0.0476  0.3223
22703SOL    HW280169   8.368   8.005   5.888 -0.7411 -0.6439  0.4834
22704SOL     OW80170   4.163   9.730   2.483 -0.0956  0.1216 -0.2401
22704SOL    HW180171   4.176   9.829   2.477  1.5285 -0.1262 -1.1823
22704SOL    HW280172   4.187   9.699   2.575  1.8614  0.2860 -0.6632
22705SOL     OW80173   9.588   7.392   3.581 -0.1779 -0.2935 -0.0879
22705SOL    HW180174   9.643   7.475   3.570  0.8259 -0.9351 -0.0329
22705SOL    HW280175   9.507   7.412   3.636  0.4833  0.4647  0.6242
22706SOL     OW80176   6.116   2.799   0.066  0.1510 -0.4324  0.0446
22706SOL    HW180177   6.021   2.798   0.035 -0.0019  0.6558  0.4710
22706SOL    HW280178   6.164   2.719   0.028 -0.9087 -0.9591 -0.2147
22707SOL     OW80179   0.897   7.679   7.059  0.0250  0.5271 -0.1407
22707SOL    HW180180   0.941   7.678   6.970  0.3228 -1.3220  0.0175
22707SOL    HW280181   0.815   7.622   7.057  0.9484 -0.8629  1.2202
22708SOL     OW80182   2.060   3.608   7.373 -0.1278  0.3596  0.4902
22708SOL    HW180183   2.039   3.680   7.307 -0.2014 -0.3505 -0.2750
22708SOL    HW280184   1.975   3.562   7.400  0.3588 -2.8683 -3.0174
22709SOL     OW80185   9.314   7.267   2.581  0.2968  0.2204 -0.1729
22709SOL    HW180186   9.364   7.245   2.665 -1.0399  0.6108  0.7248
22709SOL    HW280187   9.274   7.358   2.589 -1.7850 -0.6673 -0.3051
22710SOL     OW80188   7.628   7.179   8.563 -0.2955  0.0347 -0.1779
22710SOL    HW180189   7.620   7.099   8.621  1.4117  0.0786  0.1456
22710SOL    HW280190   7.585   7.258   8.608 -0.1617 -0.2391  0.4340
22711SOL     OW80191   6.939   9.331   3.234 -0.0722  0.1338 -0.2848
22711SOL    HW180192   6.999   9.299   3.161  2.4725 -1.0912  2.2661
22711SOL    HW280193   6.884   9.255   3.268  0.1745  0.2489  0.3866
22712SOL     OW80194   2.830   6.589   9.273  0.1215 -0.0225 -0.7406
22712SOL    HW180195   2.804   6.678   9.310  0.9657  0.2269 -0.7445
22712SOL    HW280196   2.901   6.601   9.205 -0.1077 -0.6596 -1.0937
22713SOL     OW80197   8.146   6.475   6.877  0.2090 -0.0658 -0.0133
22713SOL    HW180198   8.102   6.414   6.943  0.7931 -0.4401  0.0263
22713SOL    HW280199   8.083   6.550   6.856 -1.1701 -1.5349 -1.2979
22714SOL     OW80200   2.247   3.442   8.347 -0.1690 -0.0504 -0.1208
22714SOL    HW180201   2.338   3.443   8.304  0.8048 -1.6427  1.8645
22714SOL    HW280202   2.253   3.398   8.436 -2.8686  0.0893  0.1449
22715SOL     OW80203   8.994   2.223   1.253 -0.5462 -0.3089  0.5106
22715SOL    HW180204   9.039   2.288   1.191 -0.5053 -1.0514 -0.2484
22715SOL    HW280205   8.900   2.207   1.223 -0.5770 -0.5493  0.7327
22716SOL     OW80206   1.727   4.298   4.337  0.1080 -0.0163 -0.2528
22716SOL    HW180207   1.716   4.198   4.329  0.1962  0.1068 -2.1804
22716SOL    HW280208   1.824   4.320   4.346  0.2542  0.0181 -1.8956
22717SOL     OW80209   5.822   9.942   7.433 -0.4975 -0.5536 -0.3552
22717SOL    HW180210   5.794  10.038   7.430  1.0308 -0.1029 -0.9133
22717SOL    HW280211   5.773   9.895   7.507  0.3053  1.1831  1.3423
22718SOL     OW80212   3.323   9.469   8.642  0.6842 -0.1379 -0.4246
22718SOL    HW180213   3.285   9.387   8.598  0.9317  0.5763 -2.0009
22718SOL    HW280214   3.398   9.443   8.702  0.8067 -1.0569 -0.9705
22719SOL     OW80215   3.380   3.646   9.639 -0.1208  0.4152 -0.0881
22719SOL    HW180216   3.334   3.560   9.663  0.3164  0.1941 -0.0415
22719SOL    HW280217   3.479   3.633   9.642 -0.0500  0.4072 -1.9475
22720SOL     OW80218   4.347   6.793   2.494  0.2456 -0.0301 -0.1276
22720SOL    HW180219   4.335   6.765   2.589  0.0073 -0.7781 -0.3702
22720SOL    HW280220   4.444   6.804   2.474  0.2205  1.3679  0.5480
22721SOL     OW80221   0.488   2.398   4.130 -0.4522 -0.0558 -0.1978
22721SOL    HW180222   0.407   2.350   4.097 -1.0573  0.0493  1.0937
22721SOL    HW280223   0.568   2.340   4.118 -0.9237 -0.7144 -0.2408
22722SOL     OW80224   4.412   9.607   6.717 -0.0631 -0.1171  0.1566
22722SOL    HW180225   4.501   9.612   6.762  0.0785 -1.3712  0.0443
22722SOL    HW280226   4.344   9.571   6.780 -0.0131 -1.2158 -0.3957
22723SOL     OW80227   0.029   0.428   4.224  0.6773  0.6125 -0.0650
22723SOL    HW180228   0.126   0.440   4.243  0.2969  1.9698  1.0353
22723SOL    HW280229   0.003   0.484   4.145  1.0145 -0.6124 -1.0627
22724SOL     OW80230   3.531   5.433   7.301 -0.2509 -0.0607 -0.0111
22724SOL    HW180231   3.487   5.345   7.283  0.2803 -0.5012  0.8663
22724SOL    HW280232   3.502   5.467   7.390  1.0393 -0.2633  0.4906
22725SOL     OW80233   4.584  10.003   1.747  0.0563 -0.1648  0.0410
22725SOL    HW180234   4.497   9.979   1.789  1.1117 -0.9523  1.8290
22725SOL    HW280235   4.597   9.948   1.664 -0.8466 -0.5035  0.1188
22726SOL     OW80236   5.529   5.458   0.716  0.6228  0.0501  0.1876
22726SOL    HW180237   5.563   5.525   0.650 -0.4396  0.0649 -0.3547
22726SOL    HW280238   5.539   5.366   0.678 -0.9939  0.1286 -0.4636
22727SOL     OW80239   0.342   9.013   8.630 -0.5511 -0.4905 -0.2448
22727SOL    HW180240   0.408   8.940   8.649  1.0750  0.8321 -0.7108
22727SOL    HW280241   0.306   9.048   8.716 -0.2044 -0.8133  0.0360
22728SOL     OW80242   3.767   1.486   7.799  0.9463  0.0792  0.1657
22728SOL    HW180243   3.786   1.485   7.701  1.3455 -0.1510  0.2409
22728SOL    HW280244   3.672   1.461   7.815  1.2702 -1.3998 -0.0838
22729SOL     OW80245   7.791   7.063   6.341  0.0002 -0.9301 -0.0086
22729SOL    HW180246   7.708   7.028   6.383  0.1870 -0.2412  0.9530
22729SOL    HW280247   7.862   7.073   6.410  0.1928  0.5693 -0.4007
22730SOL     OW80248   9.177   8.881   5.793 -0.0622  0.3975 -0.4209
22730SOL    HW180249   9.209   8.971   5.823 -0.4794  0.0823  1.0038
22730SOL    HW280250   9.242   8.811   5.824  0.1955  0.2004 -1.4161
22731SOL     OW80251   1.220   1.607   8.723  0.5362  0.9255  0.7276
22731SOL    HW180252   1.249   1.514   8.702  0.9261  1.3710 -0.7375
22731SOL    HW280253   1.131   1.605   8.769  0.0411 -0.1117 -0.2555
22732SOL     OW80254   2.695   9.375   8.805  0.3283  0.1800 -0.1424
22732SOL    HW180255   2.632   9.339   8.873 -1.1342  0.3822 -1.3513
22732SOL    HW280256   2.754   9.444   8.846 -0.2653  0.0122  0.9965
22733SOL     OW80257   6.207   4.770   7.897  0.0534 -0.7967 -0.1436
22733SOL    HW180258   6.120   4.730   7.927 -1.2251  0.2090 -2.3946
22733SOL    HW280259   6.276   4.699   7.891 -1.8578 -2.5158 -2.8741
22734SOL     OW80260   8.487   6.937   8.265 -0.3283 -0.4264  0.0504
22734SOL    HW180261   8.505   6.947   8.167  0.4962  0.4329  0.2893
22734SOL    HW280262   8.410   6.875   8.278 -1.7271  0.9986 -1.2180
22735SOL     OW80263   8.382   0.896   9.235  0.2091  0.8977  0.0766
22735SOL    HW180264   8.345   0.972   9.289 -1.0860 -0.3857  1.0118
22735SOL    HW280265   8.410   0.931   9.145 -1.0781  2.3458  0.2054
22736SOL     OW80266   5.031   0.308   9.207  0.3974 -0.2239 -0.3802
22736SOL    HW180267   5.061   0.298   9.112  0.5346  0.6828 -0.4384
22736SOL    HW280268   4.934   0.287   9.214 -0.3719  2.7687 -1.3097
22737SOL     OW80269   2.182   6.061   1.103  0.3980 -0.0779 -0.3537
22737SOL    HW180270   2.269   6.016   1.123 -0.2893 -1.1092  0.3155
22737SOL    HW280271   2.168   6.062   1.004  0.4988 -1.2050 -0.3908
22738SOL     OW80272   9.707   0.105  10.037 -0.0435 -0.0709 -0.3077
22738SOL    HW180273   9.642   0.176  10.009 -0.2148  0.3415  1.0896
22738SOL    HW280274   9.658   0.020  10.053 -0.3433  0.3734  1.2481
22739SOL     OW80275   6.577   9.162   4.642  0.3590 -0.1720 -0.2919
22739SOL    HW180276   6.562   9.068   4.611 -1.2658  0.3995 -1.3128
22739SOL    HW280277   6.490   9.211   4.642  1.6020  2.1106 -2.3793
22740SOL     OW80278   8.316   3.052   4.281  0.3172 -0.0668 -0.1382
22740SOL    HW180279   8.362   3.137   4.256  0.0459 -0.3872 -1.7325
22740SOL    HW280280   8.293   3.000   4.199 -1.8387 -0.4803  0.7060
22741SOL     OW80281   8.212   6.928   0.420  0.3171 -0.1973  0.0970
22741SOL    HW180282   8.258   6.871   0.352 -0.6322 -1.3670  0.4103
22741SOL    HW280283   8.259   7.016   0.428  0.6213 -0.1664 -1.8510
22742SOL     OW80284   2.818   4.050   2.821 -0.6143  0.1828 -0.0491
22742SOL    HW180285   2.852   4.079   2.731 -0.3020 -1.2492 -0.3997
22742SOL    HW280286   2.727   4.089   2.836  0.0429  1.8504 -0.2414
22743SOL     OW80287   3.973   5.232   3.294 -0.0229  0.3140 -0.4185
22743SOL    HW180288   3.934   5.188   3.213  0.0539 -0.0596 -0.2545
22743SOL    HW280289   3.904   5.235   3.366 -0.2902  1.2120 -0.7042
22744SOL     OW80290   8.325   3.620   2.873 -0.2414  0.3197  0.3828
22744SOL    HW180291   8.332   3.601   2.970  1.5342 -0.2195  0.1670
22744SOL    HW280292   8.408   3.588   2.826 -0.1440  2.4478 -0.9945
22745SOL     OW80293   4.758   1.847   9.400 -0.1167 -0.0318 -0.5749
22745SOL    HW180294   4.788   1.848   9.305  2.4259 -0.8748  0.1845
22745SOL    HW280295   4.767   1.939   9.439 -0.3596  0.1319 -0.9011
22746SOL     OW80296   7.519   0.791   9.810 -0.0335  0.0435 -0.0095
22746SOL    HW180297   7.449   0.821   9.874 -1.0038  2.2661 -2.0472
22746SOL    HW280298   7.605   0.837   9.829 -0.2745  0.5659 -0.1837
22747SOL     OW80299   2.449   5.034   9.046  0.0162 -0.7671 -0.2335
22747SOL    HW180300   2.520   5.103   9.050 -0.8612  0.1602 -0.5154
22747SOL    HW280301   2.471   4.960   9.110  0.7867 -0.0754  0.3145
22748SOL     OW80302   5.977   6.045   9.814 -0.2840 -0.5826 -0.8152
22748SOL    HW180303   5.885   6.020   9.785 -0.5121 -0.4436 -0.2205
22748SOL    HW280304   5.972   6.099   9.898  0.4116 -1.7633  0.0067
22749SOL     OW80305   9.710   6.715   4.419  0.3463  0.5674  0.5698
22749SOL    HW180306   9.662   6.642   4.371  0.5746  0.2460  0.8303
22749SOL    HW280307   9.779   6.755   4.358 -0.5306  1.3202  0.0456
22750SOL     OW80308   4.505   8.908   8.229  0.1367 -0.5505 -0.2945
22750SOL    HW180309   4.439   8.849   8.277 -2.2703  0.8663 -1.7831
22750SOL    HW280310   4.546   8.856   8.154  0.2821 -1.2744  0.2771
22751SOL     OW80311   7.895   2.306   3.748 -0.0802  0.3654 -0.2184
22751SOL    HW180312   7.880   2.249   3.828  1.0469  0.3472 -0.0036
22751SOL    HW280313   7.817   2.367   3.734  0.1866  1.1278  1.5314
22752SOL     OW80314   2.739   3.086   9.958  0.0378 -0.1536 -0.5096
22752SOL    HW180315   2.738   3.165   9.897  2.4859  1.4421  1.4694
22752SOL    HW280316   2.773   3.112  10.048  0.5274 -3.3629  0.3168
22753SOL     OW80317   9.543   6.088   0.906 -0.0569  0.7181 -0.9028
22753SOL    HW180318   9.577   6.107   0.997  1.4201  1.7962 -1.6640
22753SOL    HW280319   9.549   5.990   0.888  2.2691  0.8258 -0.8554
22754SOL     OW80320   6.722   4.228   8.403  0.1288 -0.1467  0.3001
22754SOL    HW180321   6.696   4.325   8.404 -1.5136 -0.5767  0.3273
22754SOL    HW280322   6.811   4.218   8.447  1.6465  1.7012 -2.2122
22755SOL     OW80323   1.780   4.853   4.847 -0.3442 -0.0252  0.2733
22755SOL    HW180324   1.842   4.799   4.905 -0.8338 -0.5261  0.3360
22755SOL    HW280325   1.832   4.897   4.775 -0.3131 -2.9597 -1.5675
22756SOL     OW80326   2.537   8.234  10.061  0.0246 -0.3803  0.1794
22756SOL    HW180327   2.530   8.304  10.133 -1.2093 -1.0948  0.7698
22756SOL    HW280328   2.446   8.209  10.030  0.5606  0.3135 -2.0642
22757SOL     OW80329   3.063   5.786   8.835 -0.3785  0.4220 -0.2416
22757SOL    HW180330   3.041   5.883   8.849  0.0375  0.6162 -0.9425
22757SOL    HW280331   3.073   5.742   8.924 -3.2466  0.3984  0.0981
22758SOL     OW80332   2.933   1.548   0.154 -0.2045  0.2146 -0.4776
22758SOL    HW180333   2.877   1.629   0.166 -0.8032 -0.2263 -0.2601
22758SOL    HW280334   2.931   1.493   0.238 -1.1000 -0.8271 -1.1585
22759SOL     OW80335   4.158   0.751   3.726 -0.6691 -0.0265  0.0049
22759SOL    HW180336   4.226   0.762   3.655  0.8986  0.1420  1.4974
22759SOL    HW280337   4.141   0.654   3.742 -0.3718 -0.0778  0.0093
22760SOL     OW80338   0.159   0.494   3.617 -0.0169  0.2655  0.1837
22760SOL    HW180339   0.251   0.534   3.611  0.2957 -0.5069 -0.2244
22760SOL    HW280340   0.153   0.415   3.556 -0.8955  0.1956  0.3547
22761SOL     OW80341   3.224   4.719   1.930  0.1678  0.4252  0.5446
22761SOL    HW180342   3.253   4.796   1.986  0.2483  1.4986 -0.9413
22761SOL    HW280343   3.291   4.645   1.937  0.3527  0.6844  1.5672
22762SOL     OW80344   4.321   4.709   0.268 -0.5181  0.2354 -0.1776
22762SOL    HW180345   4.327   4.796   0.317 -0.3884 -0.3525  0.8713
22762SOL    HW280346   4.411   4.666   0.266 -0.9027 -0.6535  0.7815
22763SOL     OW80347   7.349   0.241   3.222  0.3886 -0.2356  0.3201
22763SOL    HW180348   7.317   0.332   3.196  2.1904  0.0247 -1.0829
22763SOL    HW280349   7.415   0.209   3.154  2.7495 -0.9175  2.8610
22764SOL     OW80350   7.392   0.523   4.814  0.8327 -0.4557 -0.2725
22764SOL    HW180351   7.293   0.517   4.831  0.6746  1.1181 -0.5957
22764SOL    HW280352   7.410   0.597   4.750  2.5081  1.2673  2.1261
22765SOL     OW80353   3.051   0.140   6.755 -0.5715 -0.3437 -0.3258
22765SOL    HW180354   3.116   0.089   6.698 -0.6787 -1.6328  0.7011
22765SOL    HW280355   2.958   0.115   6.730 -0.6023 -1.9124  1.3132
22766SOL     OW80356   7.657   8.264   3.953  0.0959  0.2599 -0.6515
22766SOL    HW180357   7.586   8.327   3.983 -0.1854 -0.0535 -0.6480
22766SOL    HW280358   7.661   8.263   3.853 -1.6843 -1.6337 -0.7582
22767SOL     OW80359   7.523   8.515   8.637  0.0960  0.0089 -0.4159
22767SOL    HW180360   7.591   8.452   8.675 -1.9762 -0.4718  2.7399
22767SOL    HW280361   7.438   8.464   8.621 -1.2210  1.6987  1.0116
22768SOL     OW80362   3.809   8.241   7.382  0.0389  0.3094 -0.6429
22768SOL    HW180363   3.790   8.166   7.318  0.1180  0.0468 -0.3618
22768SOL    HW280364   3.726   8.261   7.435  0.4247 -0.6075  0.3440
22769SOL     OW80365   2.346   6.435  10.083  0.0900  0.0964  0.4477
22769SOL    HW180366   2.446   6.430  10.088 -0.0094 -2.7891  0.5067
22769SOL    HW280367   2.318   6.459   9.990  0.7997 -2.6531 -0.5175
22770SOL     OW80368   9.270   3.065   8.173 -0.6044 -0.1963  0.3548
22770SOL    HW180369   9.324   2.987   8.141  0.0361  0.5345 -0.4019
22770SOL    HW280370   9.326   3.148   8.168 -1.8017  0.5800 -0.4495
22771SOL     OW80371   1.408   7.244   0.304  0.5348 -0.7548 -0.0232
22771SOL    HW180372   1.362   7.192   0.232  1.1674  0.8481 -1.6291
22771SOL    HW280373   1.482   7.299   0.264 -0.9592  2.4202  1.3907
22772SOL     OW80374   2.520   2.544   8.289  0.1748  0.1492  0.3946
22772SOL    HW180375   2.616   2.524   8.306  0.7609  1.9948 -0.6032
22772SOL    HW280376   2.503   2.642   8.301 -1.7776 -0.2754  1.3993
22773SOL     OW80377   5.765   9.276   5.559  0.2814 -0.0585 -0.1419
22773SOL    HW180378   5.694   9.338   5.592  1.9591  1.6190  0.4011
22773SOL    HW280379   5.785   9.296   5.463  2.3304  1.7279  0.6283
22774SOL     OW80380   8.004   0.978   0.593  0.1254 -0.2897 -0.0769
22774SOL    HW180381   7.908   0.973   0.566  0.3281  0.1062 -0.9049
22774SOL    HW280382   8.035   0.889   0.624 -0.8744 -0.1274  1.4998
22775SOL     OW80383   2.124   2.645   0.913  0.1911 -0.0184  0.8097
22775SOL    HW180384   2.072   2.639   0.828  0.2377  1.6735  0.6362
22775SOL    HW280385   2.085   2.582   0.980 -1.6435  0.6730  0.4471
22776SOL     OW80386   8.279   6.642   4.486 -0.1486  0.1674  0.0996
22776SOL    HW180387   8.345   6.696   4.434  1.3640 -1.0942  0.6674
22776SOL    HW280388   8.260   6.557   4.438 -0.1145 -0.1944  0.7198
22777SOL     OW80389   2.171   1.850   0.058 -0.4419  0.0258 -0.0670
22777SOL    HW180390   2.267   1.869   0.080 -0.2149  0.8406 -1.6809
22777SOL    HW280391   2.126   1.809   0.138  0.6093  1.9037  1.5276
22778SOL     OW80392   9.282   8.034   5.285 -0.0104 -0.1045  0.1852
22778SOL    HW180393   9.265   8.032   5.187  1.0746  0.5770 -0.0295
22778SOL    HW280394   9.266   7.943   5.324 -3.4695  0.3431 -0.0730
22779SOL     OW80395   8.094   9.079   2.177  0.0546 -0.2557 -0.4599
22779SOL    HW180396   8.137   9.011   2.236  0.3039  0.9607  0.7858
22779SOL    HW280397   8.053   9.033   2.098  1.7268 -1.6616 -0.5472
22780SOL     OW80398   3.597   6.625   1.167  0.4591 -0.8144 -0.0321
22780SOL    HW180399   3.560   6.717   1.160  1.4186 -0.4825 -0.8106
22780SOL    HW280400   3.658   6.619   1.247 -1.0683 -1.2949  1.1104
22781SOL     OW80401   8.213   9.604   5.142  0.4966 -0.3174  0.1785
22781SOL    HW180402   8.172   9.586   5.231 -1.5812 -1.4557 -0.9660
22781SOL    HW280403   8.191   9.698   5.114 -1.1943 -0.8295 -0.3066
22782SOL     OW80404   2.744   2.212   2.114 -1.1057 -0.2337 -0.5419
22782SOL    HW180405   2.758   2.262   2.028 -2.0092 -2.1499 -1.8524
22782SOL    HW280406   2.689   2.267   2.176  1.3408  2.0799 -0.2982
22783SOL     OW80407   5.705   3.624   2.227  0.1358 -1.1565  0.3099
22783SOL    HW180408   5.799   3.592   2.215 -0.2819 -2.2052 -0.2526
22783SOL    HW280409   5.647   3.586   2.154 -0.5994 -0.0077  0.2793
22784SOL     OW80410   7.858   6.796   7.041 -0.3175  0.6107 -0.3207
22784SOL    HW180411   7.922   6.813   7.116  0.4434 -0.3024 -0.7614
22784SOL    HW280412   7.824   6.884   7.006 -0.8002  1.0320  1.1889
22785SOL     OW80413   5.619   8.642   6.817  0.2136 -0.0282 -0.3135
22785SOL    HW180414   5.597   8.545   6.833  0.6403 -0.3412 -1.5969
22785SOL    HW280415   5.715   8.658   6.839 -0.2553  0.4704  1.4520
22786SOL     OW80416   3.116   8.458   1.796  0.1585 -0.4894 -0.7485
22786SOL    HW180417   3.115   8.390   1.722  1.3950 -2.2745  0.8344
22786SOL    HW280418   3.071   8.420   1.877 -0.3771  1.1171 -0.2708
22787SOL     OW80419   4.264   2.588   5.714  0.0080 -0.3772 -0.4215
22787SOL    HW180420   4.279   2.563   5.618  1.4411 -2.2817  0.2647
22787SOL    HW280421   4.300   2.516   5.773 -2.5293 -0.1089  1.5317
22788SOL     OW80422   2.886   3.176   0.623  0.1672  0.2948  0.1083
22788SOL    HW180423   2.921   3.268   0.640  1.1268  0.0964 -0.7629
22788SOL    HW280424   2.943   3.110   0.671 -0.7135  0.1685  0.9984
22789SOL     OW80425   1.022   8.267   0.197 -0.6467 -0.0312  0.2143
22789SOL    HW180426   1.091   8.325   0.241 -1.5621  0.3364  1.1907
22789SOL    HW280427   1.067   8.193   0.148  0.4742  0.5932  0.2891
22790SOL     OW80428   8.548   3.051   6.314  0.0561  0.6263 -0.4549
22790SOL    HW180429   8.468   2.997   6.290  0.1381  0.2518  0.1264
22790SOL    HW280430   8.539   3.143   6.275  0.6503 -0.2734 -2.7903
22791SOL     OW80431   8.380   3.079   8.425 -0.0466 -0.0544  0.0698
22791SOL    HW180432   8.281   3.068   8.419 -0.0716  0.5100 -0.6608
22791SOL    HW280433   8.423   2.989   8.429 -0.6906 -0.2856  2.4794
22792SOL     OW80434   3.171   7.121   9.602 -0.5813 -0.3273  0.8160
22792SOL    HW180435   3.103   7.087   9.537 -0.6299 -1.1371  1.2802
22792SOL    HW280436   3.127   7.140   9.689 -0.1332 -1.3565  1.2773
22793SOL     OW80437   3.546   5.841   2.965  0.0827  0.0624  0.8291
22793SOL    HW180438   3.645   5.835   2.959  0.1014 -0.7353  1.8611
22793SOL    HW280439   3.521   5.901   3.041 -0.2348 -1.1970  1.7227
22794SOL     OW80440   4.910   9.288   0.921  0.1014 -0.1368  0.0955
22794SOL    HW180441   4.883   9.258   0.829 -1.2704  1.6392 -0.1009
22794SOL    HW280442   4.834   9.337   0.964  1.5823  1.2023  1.2304
22795SOL     OW80443   7.915   7.949   5.540 -0.3938  0.2770  0.1268
22795SOL    HW180444   7.847   8.021   5.555  0.0068  0.5442  0.6363
22795SOL    HW280445   8.005   7.990   5.526 -0.2609 -0.0994 -0.1311
22796SOL     OW80446   2.859   4.714   8.467 -0.1348  0.1926  0.1680
22796SOL    HW180447   2.909   4.709   8.381  0.8000  0.9142  0.6576
22796SOL    HW280448   2.770   4.670   8.457  0.0123  0.1851 -1.1322
22797SOL     OW80449   0.755   6.865   9.581 -0.0549 -0.5168  0.3836
22797SOL    HW180450   0.854   6.848   9.577 -0.3277 -1.7888 -3.0872
22797SOL    HW280451   0.738   6.963   9.589  1.5192 -0.1641 -0.3510
22798SOL     OW80452   2.143   1.910   4.080  0.0140  0.1927 -0.3388
22798SOL    HW180453   2.139   1.874   4.173  0.3440  0.5705 -0.1743
22798SOL    HW280454   2.217   1.977   4.074 -1.1447  1.4916 -0.4125
22799SOL     OW80455   3.675   2.485   4.702  0.5336  0.3165 -0.2164
22799SOL    HW180456   3.743   2.424   4.742  1.4212  0.5323 -1.4067
22799SOL    HW280457   3.653   2.557   4.768  1.8578  0.5651 -0.0412
22800SOL     OW80458   4.347   4.559   9.592  0.2426  0.6278  0.2589
22800SOL    HW180459   4.422   4.574   9.658  0.5787  0.1777 -0.0212
22800SOL    HW280460   4.260   4.556   9.641  0.6390 -1.3356  0.8935
22801SOL     OW80461   4.192   6.804   5.134 -0.6292 -0.2985 -0.0839
22801SOL    HW180462   4.147   6.802   5.223  0.3967 -1.6695  0.4252
22801SOL    HW280463   4.285   6.768   5.143 -0.0946  0.6775 -1.4800
22802SOL     OW80464   5.765   8.937   1.691 -0.1523  0.5656 -0.4006
22802SOL    HW180465   5.685   8.915   1.746  0.5974 -0.9362  0.1281
22802SOL    HW280466   5.745   9.014   1.630 -1.9090  0.3226 -0.1321
22803SOL     OW80467   3.732   9.387   7.179  0.0506 -0.8399  0.1514
22803SOL    HW180468   3.792   9.459   7.212  0.2233 -0.3573 -1.2109
22803SOL    HW280469   3.750   9.303   7.230  0.0880 -0.0223  1.5053
22804SOL     OW80470   3.904   3.414   0.073 -0.7113 -0.1132  0.1261
22804SOL    HW180471   3.962   3.495   0.069 -0.2759 -0.4368 -0.2215
22804SOL    HW280472   3.895   3.383   0.168  0.0950 -0.3533  0.1273
22805SOL     OW80473   6.918   7.487   4.947 -0.3662 -0.2004  0.5640
22805SOL    HW180474   6.851   7.558   4.929 -0.4835 -0.3837  0.2729
22805SOL    HW280475   6.917   7.420   4.873 -0.2088 -0.4701  0.8015
22806SOL     OW80476   3.381   1.829   2.398  0.5775  0.0218 -0.1097
22806SOL    HW180477   3.446   1.855   2.470 -0.9589  0.1021  1.2839
22806SOL    HW280478   3.346   1.737   2.416 -1.4849  0.9095  0.4795
22807SOL     OW80479   8.825   5.352   2.704 -0.3537  0.4459 -0.0470
22807SOL    HW180480   8.770   5.378   2.783  0.1515  2.1941 -0.2612
22807SOL    HW280481   8.921   5.341   2.732 -0.3639 -0.0535 -0.1989
22808SOL     OW80482   7.098   6.801   6.627 -0.0875 -0.0101 -1.0165
22808SOL    HW180483   7.059   6.749   6.703  1.7036 -0.3703 -0.3242
22808SOL    HW280484   7.067   6.896   6.632 -0.3807 -0.1509 -0.1183
22809SOL     OW80485   5.677   5.175   7.624 -0.7009  0.1137  0.3623
22809SOL    HW180486   5.584   5.145   7.644 -1.0465  1.8259  1.3444
22809SOL    HW280487   5.735   5.159   7.705 -0.4587  0.3887  0.2418
22810SOL     OW80488   7.280   5.111   0.970 -0.3131  0.4924  0.0443
22810SOL    HW180489   7.212   5.046   0.936 -0.0795 -0.7999  1.9735
22810SOL    HW280490   7.353   5.121   0.903 -1.2089  0.1002 -1.0101
22811SOL     OW80491   1.668   6.663   3.671 -0.0615 -0.5175  0.1045
22811SOL    HW180492   1.672   6.615   3.759 -0.2831 -1.8701 -0.6165
22811SOL    HW280493   1.642   6.759   3.687  1.2842 -0.3797  1.6365
22812SOL     OW80494   5.672   4.001   8.466 -0.1750 -0.0809 -0.7348
22812SOL    HW180495   5.659   3.921   8.408  0.6682 -1.2770  0.6979
22812SOL    HW280496   5.762   4.042   8.448 -0.1254 -0.1466 -0.6360
22813SOL     OW80497   6.856   0.962   7.964 -0.2473  0.0138  0.3329
22813SOL    HW180498   6.868   0.886   8.028 -0.2924 -0.8337 -0.6471
22813SOL    HW280499   6.940   1.016   7.961  0.1220 -0.5500  0.3428
22814SOL     OW80500   5.381   7.440   4.698  0.2416 -0.0878  0.5709
22814SOL    HW180501   5.448   7.436   4.772  0.6396 -2.3278  0.1174
22814SOL    HW280502   5.299   7.390   4.725  0.7814 -1.8044 -0.8710
22815SOL     OW80503   8.969   5.616   4.074 -0.6490 -0.2100  0.0580
22815SOL    HW180504   8.884   5.572   4.046  0.1866 -1.3445 -0.7396
22815SOL    HW280505   8.957   5.715   4.071 -1.5822 -0.3440 -1.1774
22816SOL     OW80506   7.543   7.339   1.856 -0.5194 -0.7466 -0.2081
22816SOL    HW180507   7.470   7.332   1.788 -0.9075  1.8954 -0.0904
22816SOL    HW280508   7.507   7.313   1.946 -1.5563  1.3494 -0.0007
22817SOL     OW80509   4.212   6.578   2.396  0.3325 -0.5861  0.0118
22817SOL    HW180510   4.263   6.655   2.436 -0.9738 -0.0176  0.6180
22817SOL    HW280511   4.217   6.583   2.296  2.1222 -1.0003  0.0536
22818SOL     OW80512   7.900   7.755   5.737 -0.1751 -0.5141 -0.2467
22818SOL    HW180513   7.898   7.824   5.665 -0.2276 -1.5615 -1.2679
22818SOL    HW280514   7.930   7.797   5.823 -0.4793  0.8245 -0.7831
22819SOL     OW80515   1.096   8.630   6.286  0.2080  0.4523  0.2889
22819SOL    HW180516   1.098   8.567   6.363 -1.5383 -0.4542 -0.3947
22819SOL    HW280517   1.167   8.604   6.220 -0.2981 -0.6013  0.1586
22820SOL     OW80518   7.526   0.560   2.987  0.1351  0.2850 -0.2091
22820SOL    HW180519   7.440   0.603   2.960 -0.6743 -1.0709  0.1693
22820SOL    HW280520   7.510   0.463   3.008  1.2880  0.5796  2.1985
22821SOL     OW80521   2.649   4.308   6.342 -0.0551 -0.1134 -0.3433
22821SOL    HW180522   2.627   4.383   6.279 -2.0870  0.6481  1.2198
22821SOL    HW280523   2.680   4.345   6.429  1.5674 -1.1560 -0.4460
22822SOL     OW80524   3.294   4.323   1.557 -0.2032 -0.1196  0.8560
22822SOL    HW180525   3.341   4.238   1.582  1.8943  0.8928  0.4435
22822SOL    HW280526   3.195   4.308   1.559  0.1262 -2.4055  1.3615
22823SOL     OW80527   9.966   5.088   7.534  0.2098  0.1610 -0.3396
22823SOL    HW180528  10.031   5.156   7.567  0.2265 -0.3555  0.6939
22823SOL    HW280529   9.926   5.039   7.611 -1.4717  0.5162 -0.9528
22824SOL     OW80530   9.642   6.897   7.278 -0.0859 -0.2851  0.0941
22824SOL    HW180531   9.693   6.897   7.364  1.1536 -0.0606 -0.6242
22824SOL    HW280532   9.546   6.917   7.296  0.2237  0.0860  1.3895
22825SOL     OW80533   8.421   9.626   8.375 -0.0237 -0.8834 -0.0756
22825SOL    HW180534   8.351   9.675   8.426  0.0628 -1.2807  0.4335
22825SOL    HW280535   8.387   9.604   8.283 -0.7921 -1.6115  0.3764
22826SOL     OW80536   3.099   2.415   5.576 -0.0185 -0.0771 -0.1877
22826SOL    HW180537   3.141   2.399   5.665 -1.0423 -0.9556  0.1447
22826SOL    HW280538   3.125   2.506   5.543 -1.9388  1.4550  2.3461
22827SOL     OW80539   6.871   5.051   6.762  0.0440  0.2433 -0.0398
22827SOL    HW180540   6.799   5.006   6.816  0.1850  0.4769  0.3391
22827SOL    HW280541   6.853   5.035   6.664  1.4570 -2.7856  0.1319
22828SOL     OW80542   3.407   7.489   1.977 -0.8932  0.3373  0.0229
22828SOL    HW180543   3.450   7.409   2.018 -0.4693  0.1720 -0.7299
22828SOL    HW280544   3.388   7.471   1.881 -1.1620  0.9979 -0.0538
22829SOL     OW80545   0.872   3.703   3.457 -0.1649 -0.6718 -0.4357
22829SOL    HW180546   0.896   3.647   3.537  1.8144 -0.4270 -0.8398
22829SOL    HW280547   0.808   3.775   3.485  2.0506  0.6626  1.3628
22830SOL     OW80548   1.941   9.961   2.289 -0.1038 -0.1869  0.4441
22830SOL    HW180549   1.949   9.932   2.194 -0.8849  0.0562  0.3038
22830SOL    HW280550   1.915   9.882   2.346  0.5883 -0.3797  0.4910
22831SOL     OW80551   5.853   3.551   1.273  0.5895  0.8448 -0.8317
22831SOL    HW180552   5.853   3.467   1.328  0.0520 -0.6443 -3.0458
22831SOL    HW280553   5.930   3.609   1.301 -0.6513  0.9574  2.6421
22832SOL     OW80554   3.767   3.813   2.852  0.0193  0.0082  0.0304
22832SOL    HW180555   3.731   3.904   2.871 -0.3411 -0.3453  1.0740
22832SOL    HW280556   3.699   3.744   2.878  1.1911 -0.6399  1.4498
22833SOL     OW80557   4.084   0.881   6.495  0.1116  0.1237 -0.1725
22833SOL    HW180558   4.091   0.981   6.504 -1.4805  0.3836 -1.7474
22833SOL    HW280559   3.996   0.851   6.531  0.6591 -0.7642  0.4553
22834SOL     OW80560   9.870   5.198   1.125  0.3453  0.5605  0.0390
22834SOL    HW180561   9.901   5.106   1.150  0.7354  0.9020  0.8376
22834SOL    HW280562   9.848   5.200   1.027 -1.7230 -0.9285  0.4458
22835SOL     OW80563   1.450   9.594   2.659 -0.5874  0.4393  0.0509
22835SOL    HW180564   1.476   9.617   2.752 -0.6476 -0.1339  0.2065
22835SOL    HW280565   1.503   9.515   2.627 -0.3602  0.8083 -0.4958
22836SOL     OW80566   5.472   2.827   1.114  0.0978 -0.1996 -0.5952
22836SOL    HW180567   5.564   2.791   1.102  0.6479  1.0865 -0.3829
22836SOL    HW280568   5.441   2.808   1.207  0.9961  1.1942  0.0088
22837SOL     OW80569   8.291   2.021   7.030  0.3929 -0.1985 -0.4406
22837SOL    HW180570   8.314   1.993   6.936  0.6097 -0.3286 -0.3495
22837SOL    HW280571   8.291   2.121   7.035  1.6368 -0.1939 -0.2778
22838SOL     OW80572   2.290   1.966   3.352 -0.1311 -0.3640 -0.1674
22838SOL    HW180573   2.299   1.969   3.452  1.1734  0.3961 -0.2952
22838SOL    HW280574   2.340   1.887   3.316  1.1606  0.5378 -0.3843
22839SOL     OW80575   1.485   6.395   0.462 -0.7243 -0.2203  0.4893
22839SOL    HW180576   1.551   6.334   0.419  0.2696  1.6326 -0.6630
22839SOL    HW280577   1.394   6.352   0.461 -0.3149 -1.1010 -1.5382
22840SOL     OW80578   8.129   2.153   0.879 -0.8202  0.0354  1.0852
22840SOL    HW180579   8.049   2.178   0.934 -0.7185  0.8357  0.8674
22840SOL    HW280580   8.153   2.228   0.818 -0.0248 -0.2829  0.9973
22841SOL     OW80581   2.101   1.628   1.886  0.5260  0.1873  0.4784
22841SOL    HW180582   2.033   1.574   1.936  0.0955  1.0029  0.7854
22841SOL    HW280583   2.063   1.655   1.798  1.9864 -2.8707 -1.1298
22842SOL     OW80584   0.927   3.531   2.837  0.0656 -0.3822  0.3501
22842SOL    HW180585   0.904   3.626   2.817  0.8141 -0.2413  0.1350
22842SOL    HW280586   0.888   3.505   2.925  0.1699  0.2429  0.5872
22843SOL     OW80587   3.412   0.140   5.432 -0.0993  0.8136 -0.8103
22843SOL    HW180588   3.451   0.053   5.463  1.0089  1.9389  1.0686
22843SOL    HW280589   3.316   0.145   5.457  0.6656  1.5105  2.1815
22844SOL     OW80590   8.570   6.275   3.132 -0.4566  0.4880 -0.4229
22844SOL    HW180591   8.640   6.208   3.109 -1.4172 -0.1662 -1.5048
22844SOL    HW280592   8.516   6.242   3.209 -0.6752  0.2076 -0.6980
22845SOL     OW80593   8.484   5.930   6.247 -0.4668  0.3435 -0.3179
22845SOL    HW180594   8.515   6.020   6.278  2.2608 -0.3902 -0.7982
22845SOL    HW280595   8.451   5.936   6.153 -0.1563  0.8195 -0.3963
22846SOL     OW80596   2.665   3.620   1.280  0.3931 -0.0899 -0.1402
22846SOL    HW180597   2.675   3.703   1.336  0.0591  0.2751 -0.6147
22846SOL    HW280598   2.570   3.591   1.280  0.6764 -1.0486  0.8260
22847SOL     OW80599   2.195   6.804   4.967 -0.0960 -0.3516  0.3574
22847SOL    HW180600   2.238   6.890   4.995 -0.4958 -0.4168  1.1857
22847SOL    HW280601   2.154   6.815   4.877 -1.7679  0.9045  1.2336
22848SOL     OW80602   3.829   9.803   4.002  0.6571 -0.1551  0.6303
22848SOL    HW180603   3.748   9.768   3.957  1.2902 -0.8460  0.0101
22848SOL    HW280604   3.853   9.744   4.080  0.1496  0.4600  1.2578
22849SOL     OW80605   9.483   0.019   4.456 -0.4791  0.7055  0.6083
22849SOL    HW180606   9.580   0.044   4.455 -0.5369  0.9142 -0.2328
22849SOL    HW280607   9.468  -0.053   4.524  0.7913 -1.4148 -1.3102
22850SOL     OW80608   8.566   1.051   6.683 -0.1033 -0.1890  0.1476
22850SOL    HW180609   8.474   1.052   6.644 -0.5165 -1.9901  1.0261
22850SOL    HW280610   8.633   1.057   6.610 -0.8992  2.5521 -0.4228
22851SOL     OW80611   4.277   9.003   5.561  0.1945 -0.7473 -0.4522
22851SOL    HW180612   4.277   8.933   5.490  0.0372 -1.6009  0.3819
22851SOL    HW280613   4.202   8.986   5.625 -0.1551  0.4730 -0.5196
22852SOL     OW80614   0.618   3.326   7.312  0.4710  0.1598  0.2722
22852SOL    HW180615   0.542   3.379   7.275  0.1882 -0.4075  0.0230
22852SOL    HW280616   0.687   3.312   7.241 -0.1634 -1.0979 -0.1086
22853SOL     OW80617   7.963   2.257   0.353  0.2633 -0.3919 -0.3891
22853SOL    HW180618   7.880   2.218   0.313  0.4456 -2.4469  1.1700
22853SOL    HW280619   7.964   2.239   0.451  1.6077  1.3745 -0.0524
22854SOL     OW80620   7.814   7.319   6.861  0.1568 -0.2299 -0.5096
22854SOL    HW180621   7.866   7.381   6.801  0.8939  1.0276  1.3776
22854SOL    HW280622   7.789   7.367   6.945 -0.9544 -1.9333  0.1605
22855SOL     OW80623   6.432   8.147   3.520  0.1951  0.2538 -0.8150
22855SOL    HW180624   6.518   8.158   3.571  0.3314  0.4104 -1.0774
22855SOL    HW280625   6.355   8.173   3.578  0.3564  0.5260 -0.7216
22856SOL     OW80626   5.463   8.247   7.273  0.1572 -0.1547 -0.0284
22856SOL    HW180627   5.426   8.189   7.200 -0.6855  1.6800 -1.0827
22856SOL    HW280628   5.390   8.268   7.338  0.8046 -1.4323  1.1198
22857SOL     OW80629   9.300   6.674   4.515 -0.2467 -0.3335 -0.0496
22857SOL    HW180630   9.225   6.740   4.509 -0.3211 -0.3647  0.4679
22857SOL    HW280631   9.360   6.700   4.592 -0.0110 -0.5978 -0.1457
22858SOL     OW80632   3.516   4.814   0.386 -0.3673  0.5388 -0.3526
22858SOL    HW180633   3.492   4.878   0.459  0.5997 -0.3234  0.7379
22858SOL    HW280634   3.596   4.849   0.336  0.3070  0.0808  0.3945
22859SOL     OW80635   0.794   3.658   4.473 -0.2485 -0.5764 -0.1460
22859SOL    HW180636   0.871   3.659   4.408 -0.9057 -0.0631 -0.9229
22859SOL    HW280637   0.824   3.618   4.559  0.8452 -0.5620 -0.5123
22860SOL     OW80638   6.472   3.873   2.836  0.2733 -0.0155  0.3483
22860SOL    HW180639   6.380   3.835   2.823  0.7823 -0.9045 -0.8047
22860SOL    HW280640   6.537   3.798   2.847  0.8493  0.6121  1.2881
22861SOL     OW80641   6.560   4.540   8.928 -0.4722  0.2680  0.4263
22861SOL    HW180642   6.478   4.529   8.983 -0.8975 -0.4283 -0.3563
22861SOL    HW280643   6.635   4.571   8.987 -1.5457  1.9517  0.9565
22862SOL     OW80644   4.640   9.074   9.124  0.3006  0.1181 -0.2949
22862SOL    HW180645   4.713   9.114   9.068  0.1368  2.2825  0.9972
22862SOL    HW280646   4.552   9.085   9.076  0.5987 -1.1421 -1.1629
22863SOL     OW80647   0.012   3.459   6.768  0.1741  0.7458  0.6492
22863SOL    HW180648   0.080   3.532   6.760  0.3647  0.8407  2.7950
22863SOL    HW280649  -0.062   3.475   6.703  0.8399  2.1671  0.2283
22864SOL     OW80650   0.333   6.454   2.617 -0.1619  0.1857 -0.2490
22864SOL    HW180651   0.392   6.395   2.562  0.4727 -0.1450  0.7723
22864SOL    HW280652   0.270   6.503   2.557 -0.2219 -0.9983 -1.1649
22865SOL     OW80653   4.707   2.784   2.044  0.0743  0.5611  0.3779
22865SOL    HW180654   4.647   2.751   1.970  0.1622 -0.7609  0.8801
22865SOL    HW280655   4.717   2.713   2.113  0.4438  1.5926  1.4030
22866SOL     OW80656   2.719   8.402   8.668  0.4162  0.0822 -0.0905
22866SOL    HW180657   2.735   8.304   8.674  2.3502  0.4826  3.0531
22866SOL    HW280658   2.773   8.441   8.594  0.8307 -1.0130 -0.3623
22867SOL     OW80659   0.647   5.905   3.951  0.1362 -0.2086  0.4272
22867SOL    HW180660   0.652   5.865   3.860 -2.6346  1.1122 -0.3451
22867SOL    HW280661   0.678   5.839   4.019  0.3510 -1.8719 -1.2659
22868SOL     OW80662   4.863   5.018   7.413 -0.0222 -0.1733  0.1447
22868SOL    HW180663   4.839   5.037   7.318  0.7223 -0.1053 -0.0317
22868SOL    HW280664   4.875   5.104   7.463  1.9466 -0.1855 -0.2993
22869SOL     OW80665   4.595   8.648   2.709  0.0355  0.1412  0.0436
22869SOL    HW180666   4.686   8.652   2.750  0.9804 -0.4621 -1.9348
22869SOL    HW280667   4.548   8.736   2.722  1.7424  1.1969 -0.8030
22870SOL     OW80668   3.023   2.934   9.769 -0.1446  0.0953 -0.4104
22870SOL    HW180669   3.084   2.888   9.834 -0.3516  0.3336 -0.0440
22870SOL    HW280670   2.929   2.902   9.783 -0.5925  1.9351  1.0787
22871SOL     OW80671   1.504   1.440   3.624 -0.2663  0.2140 -0.4701
22871SOL    HW180672   1.487   1.427   3.526  0.3566  2.1517 -0.8625
22871SOL    HW280673   1.520   1.352   3.667  1.0026 -0.5481 -2.4401
22872SOL     OW80674   3.259   6.031   5.774 -0.3196  0.0780  0.0150
22872SOL    HW180675   3.203   6.099   5.821 -1.5903 -0.0906 -1.2219
22872SOL    HW280676   3.306   6.074   5.697 -1.9157 -0.6294 -1.3834
22873SOL     OW80677   0.571   2.318   6.622  0.1679  0.1436  0.5228
22873SOL    HW180678   0.561   2.306   6.721  3.4137 -0.0394  0.9096
22873SOL    HW280679   0.664   2.292   6.596 -0.4580  0.8336 -2.4918
22874SOL     OW80680   1.092   2.115   9.849 -0.1500  0.1880  0.2034
22874SOL    HW180681   1.191   2.131   9.847  0.1901 -1.8691  0.1096
22874SOL    HW280682   1.061   2.091   9.757 -0.8939  1.6710  0.0574
22875SOL     OW80683   9.524   9.885   7.959  0.5959  0.1293 -0.3150
22875SOL    HW180684   9.429   9.876   7.988  0.6929 -0.8100 -0.2855
22875SOL    HW280685   9.573   9.945   8.022  0.4580 -0.7766  0.6626
22876SOL     OW80686   2.731   0.961   2.065  0.7232  0.2057  0.6124
22876SOL    HW180687   2.802   0.976   1.996  1.7828  1.4238  1.9351
22876SOL    HW280688   2.662   1.032   2.057  0.3563 -0.1966  0.2011
22877SOL     OW80689   4.278   8.226   0.129 -0.4085 -0.5747  0.9811
22877SOL    HW180690   4.256   8.131   0.152 -0.7859 -0.6654  0.2610
22877SOL    HW280691   4.207   8.286   0.164 -2.0568 -0.8969 -1.6324
22878SOL     OW80692   0.204   3.405   9.585  0.5763  0.1847 -0.3772
22878SOL    HW180693   0.240   3.326   9.536 -0.0076  0.1218 -0.6996
22878SOL    HW280694   0.128   3.376   9.643  0.5658  0.4545 -0.2577
22879SOL     OW80695   5.313   0.002   6.561 -0.1592  0.7574  0.0684
22879SOL    HW180696   5.394   0.043   6.518  0.7589 -1.4486 -0.3919
22879SOL    HW280697   5.342  -0.056   6.637 -1.2431 -0.5074 -0.4523
22880SOL     OW80698   3.580   3.843   7.172  0.1157  0.5584  0.2756
22880SOL    HW180699   3.570   3.767   7.235 -0.5778  1.3765  1.1545
22880SOL    HW280700   3.528   3.825   7.089  0.3409 -0.1348  0.2848
22881SOL     OW80701   3.990   1.676   7.710  0.4812  0.0412  0.2352
22881SOL    HW180702   4.067   1.650   7.768  2.3335 -0.0572 -2.2244
22881SOL    HW280703   3.976   1.606   7.640 -1.3587  0.4569  0.1557
22882SOL     OW80704   8.022   7.702   6.076  0.0849 -0.0812 -0.2563
22882SOL    HW180705   8.000   7.761   6.153  0.8640  1.1469 -0.9627
22882SOL    HW280706   8.115   7.666   6.086  0.1673  0.0384 -0.6047
22883SOL     OW80707   3.715   8.838   6.036 -0.0299 -0.5512 -0.2304
22883SOL    HW180708   3.627   8.790   6.043 -0.1922 -0.1831  0.3186
22883SOL    HW280709   3.698   8.936   6.025  0.3116 -0.4717 -0.0652
22884SOL     OW80710   9.611   0.342   1.467  0.4556  0.4395  1.1189
22884SOL    HW180711   9.512   0.335   1.453  0.6291  1.0391 -0.5945
22884SOL    HW280712   9.630   0.395   1.549 -0.6427  1.7896  0.5093
22885SOL     OW80713   9.629   2.470   0.559 -0.3060 -0.3840 -0.1300
22885SOL    HW180714   9.569   2.433   0.630  0.2174 -1.3323 -0.1741
22885SOL    HW280715   9.573   2.510   0.486 -0.8472  0.5501  0.7762
22886SOL     OW80716   4.513   1.077   3.739  0.4831 -0.0128  0.1700
22886SOL    HW180717   4.471   1.128   3.814 -1.3709 -0.5984 -0.4491
22886SOL    HW280718   4.532   0.983   3.769  0.0516 -0.1490  0.0264
22887SOL     OW80719   7.260   9.871   7.587  0.1101  0.1420  0.5614
22887SOL    HW180720   7.263   9.784   7.537  1.2888  0.0479  0.7883
22887SOL    HW280721   7.196   9.863   7.663  0.0933 -0.4680  0.4843
22888SOL     OW80722   9.945   3.920   4.780  0.4058 -0.0638  0.2790
22888SOL    HW180723   9.986   4.008   4.756  1.9151 -0.7156  0.4010
22888SOL    HW280724  10.015   3.848   4.773 -0.6742 -1.1649  0.7033
22889SOL     OW80725   8.627   4.571   1.148 -0.7720 -0.0059  0.4120
22889SOL    HW180726   8.671   4.557   1.059 -2.9145  0.5476 -0.7594
22889SOL    HW280727   8.616   4.669   1.164 -0.3878 -0.1083  1.2884
22890SOL     OW80728   6.789   5.237   2.677 -0.1813  0.1053 -0.2642
22890SOL    HW180729   6.790   5.312   2.611 -0.4334  0.8450  0.5521
22890SOL    HW280730   6.702   5.189   2.672 -0.0025 -0.1575 -0.8197
22891SOL     OW80731   9.658   7.136   3.520  0.4924  0.1661  0.2109
22891SOL    HW180732   9.684   7.096   3.608 -2.3036  1.5399  1.6904
22891SOL    HW280733   9.613   7.224   3.535 -0.3623  0.2386 -2.5799
22892SOL     OW80734   1.589   9.935   2.574 -0.0705  0.4006  0.1918
22892SOL    HW180735   1.529   9.942   2.653  1.0941 -0.6362  1.1922
22892SOL    HW280736   1.625  10.026   2.551 -0.3605  0.6959  0.8914
22893SOL     OW80737   2.125   0.647   3.792 -0.9690  0.2792 -0.1007
22893SOL    HW180738   2.037   0.607   3.767 -0.8260  1.1451 -2.1349
22893SOL    HW280739   2.131   0.740   3.757  1.5779 -0.5024 -1.9801
22894SOL     OW80740   1.228   2.130   1.164  0.4602  0.6291  0.1422
22894SOL    HW180741   1.266   2.073   1.237  1.0165  0.1661 -0.4987
22894SOL    HW280742   1.145   2.175   1.196  0.3359 -0.0971  0.8469
22895SOL     OW80743   7.528   4.496   5.433 -0.5299  0.0008  0.0616
22895SOL    HW180744   7.584   4.543   5.364 -0.2477  0.2676  0.4727
22895SOL    HW280745   7.554   4.399   5.436 -0.0145  0.1431  0.3194
22896SOL     OW80746   5.264   7.755   5.073 -0.8409  0.8599 -0.3595
22896SOL    HW180747   5.258   7.855   5.078 -0.8746  0.7648  2.0229
22896SOL    HW280748   5.172   7.716   5.071 -0.8763  0.9223 -3.8937
22897SOL     OW80749   7.078   2.554   3.565  0.3212  0.0030  0.5294
22897SOL    HW180750   7.076   2.654   3.574  0.1216  0.0995 -0.5001
22897SOL    HW280751   7.000   2.524   3.511 -0.2162 -0.8216  1.7663
22898SOL     OW80752   9.212   3.200   3.146 -0.1642  0.0012  0.2348
22898SOL    HW180753   9.310   3.203   3.126 -0.6599 -0.3035 -2.4042
22898SOL    HW280754   9.198   3.167   3.240  2.2092 -1.5840  0.0655
22899SOL     OW80755   7.997   9.907   9.842 -0.3098  0.3215  0.5479
22899SOL    HW180756   8.003   9.896   9.941  4.2214  0.5409  0.3871
22899SOL    HW280757   7.935   9.983   9.821 -0.5652  0.8969  3.2351
22900SOL     OW80758   7.556   1.856   8.071 -0.1429  0.0655  0.3546
22900SOL    HW180759   7.598   1.943   8.098 -0.2897 -0.0333  0.9161
22900SOL    HW280760   7.606   1.780   8.114  0.5367 -0.1734 -0.8578
22901SOL     OW80761   1.204   9.581   1.453 -0.2220  0.7038 -0.2983
22901SOL    HW180762   1.126   9.520   1.439 -1.1472  1.7994 -0.0567
22901SOL    HW280763   1.204   9.613   1.548  0.0004  1.4125 -0.5344
22902SOL     OW80764   7.441   4.032   2.683  0.0055 -0.0328  0.0968
22902SOL    HW180765   7.403   3.959   2.740 -2.6201  0.6747 -0.6865
22902SOL    HW280766   7.434   4.119   2.732  0.0326  0.2069 -0.3219
22903SOL     OW80767   7.593   7.556   6.815  0.4103 -0.6840 -0.1242
22903SOL    HW180768   7.505   7.509   6.810  0.6800 -1.1897 -0.0842
22903SOL    HW280769   7.646   7.520   6.892  1.0128 -0.9934 -0.6764
22904SOL     OW80770   3.730   7.018   4.560  0.2428  0.2489 -0.0176
22904SOL    HW180771   3.633   7.039   4.572  0.2668 -0.5128  1.7700
22904SOL    HW280772   3.747   6.993   4.465 -0.8716  2.5409 -0.8546
22905SOL     OW80773   3.820   6.602  10.066 -0.0761 -0.7968  0.3323
22905SOL    HW180774   3.785   6.629  10.156 -0.3947  0.1183 -0.0638
22905SOL    HW280775   3.829   6.683  10.008  0.1124 -1.3870 -0.4690
22906SOL     OW80776   7.589   6.454   7.829 -0.1434 -0.6432 -0.5238
22906SOL    HW180777   7.668   6.501   7.867 -0.0407 -1.7205  0.6247
22906SOL    HW280778   7.602   6.440   7.730 -0.9619  3.2967 -1.3036
22907SOL     OW80779   7.833   2.246   5.378  0.5767  0.1660  0.0056
22907SOL    HW180780   7.897   2.268   5.452  0.5546  1.0397 -0.2303
22907SOL    HW280781   7.867   2.285   5.292  0.8591 -1.2768 -0.5452
22908SOL     OW80782   8.885   2.876   3.737  0.4486 -0.0810  0.0042
22908SOL    HW180783   8.804   2.870   3.679  1.2539 -0.7013 -1.0861
22908SOL    HW280784   8.928   2.965   3.724  0.5299 -0.1535 -0.2381
22909SOL     OW80785   0.551   6.058   4.487  0.1123  0.5318  0.2190
22909SOL    HW180786   0.487   5.996   4.533  0.1894 -0.2496 -0.7295
22909SOL    HW280787   0.547   6.043   4.388  1.5547  0.6962  0.1326
22910SOL     OW80788   9.327   4.865   1.309  0.2754  0.2233 -0.0854
22910SOL    HW180789   9.290   4.952   1.278  0.5662 -0.2344 -1.7268
22910SOL    HW280790   9.304   4.793   1.244  2.5530 -0.3908 -0.2601
22911SOL     OW80791   0.875   8.732   6.661  0.3264  0.6448 -0.2122
22911SOL    HW180792   0.899   8.704   6.754 -0.6829  0.3072 -0.0404
22911SOL    HW280793   0.841   8.826   6.662  0.7229  0.7888 -0.3032
22912SOL     OW80794   2.373   4.066   4.881 -0.0425 -0.5706  0.6634
22912SOL    HW180795   2.426   4.120   4.947  0.3398 -0.6415  0.4172
22912SOL    HW280796   2.310   4.006   4.930 -0.1394 -0.2355  0.9506
22913SOL     OW80797   8.914   7.453   7.525  0.2816  0.2233  0.2251
22913SOL    HW180798   8.854   7.473   7.447  0.4871 -0.7817 -0.1957
22913SOL    HW280799   9.004   7.427   7.492  0.6600  0.7265  0.8351
22914SOL     OW80800   6.694   5.695   7.636  0.4416 -0.2818  0.3127
22914SOL    HW180801   6.604   5.710   7.596 -0.0919  1.5135  2.1603
22914SOL    HW280802   6.762   5.690   7.562 -0.8376  0.6298 -0.9535
22915SOL     OW80803   7.560   5.288   3.660 -0.2240 -0.2253 -0.0020
22915SOL    HW180804   7.647   5.338   3.663 -0.6240  0.5828 -1.4961
22915SOL    HW280805   7.484   5.351   3.674 -0.5763 -0.9490  1.4162
22916SOL     OW80806   8.264   7.782   6.628  0.0646  0.1088  0.1016
22916SOL    HW180807   8.237   7.858   6.568  0.1015 -1.7531 -2.3424
22916SOL    HW280808   8.213   7.700   6.603 -0.6279 -0.5079  3.3086
22917SOL     OW80809   8.343   8.858   7.068 -0.1976 -0.1903 -0.1225
22917SOL    HW180810   8.247   8.851   7.041 -0.7025  1.9183  0.9897
22917SOL    HW280811   8.392   8.775   7.041 -2.0553 -0.7748 -1.8086
22918SOL     OW80812   3.468   9.898   5.823  0.1325 -0.2370  0.1839
22918SOL    HW180813   3.465   9.835   5.901 -0.3419 -0.3579  0.0638
22918SOL    HW280814   3.541   9.965   5.838 -0.3540  0.1140  1.0195
22919SOL     OW80815   4.398   5.229   2.682  0.6601 -0.2691 -0.2842
22919SOL    HW180816   4.373   5.314   2.635 -0.0693 -0.2141  0.1948
22919SOL    HW280817   4.325   5.203   2.745  1.6294 -0.3391  0.8225
22920SOL     OW80818   7.643   8.549   3.361  0.1953 -0.3266 -0.5068
22920SOL    HW180819   7.581   8.586   3.430  1.4621  1.1964 -0.1431
22920SOL    HW280820   7.716   8.498   3.407  0.9381  0.5346 -0.7061
22921SOL     OW80821   9.428   4.802   3.216 -0.9593  0.0356 -0.5744
22921SOL    HW180822   9.419   4.722   3.276 -0.0722  1.0535  0.9583
22921SOL    HW280823   9.386   4.881   3.260 -0.6875  0.6988 -1.4952
22922SOL     OW80824   3.465   4.657   1.362  0.4101  0.3953  0.9996
22922SOL    HW180825   3.516   4.638   1.278 -1.0480  1.2093 -0.1134
22922SOL    HW280826   3.423   4.748   1.355 -0.6684 -0.0027  2.1230
22923SOL     OW80827   5.341   8.089   1.708  0.1447  0.0570  0.0220
22923SOL    HW180828   5.319   8.164   1.770  0.0859 -0.0588  0.1425
22923SOL    HW280829   5.270   8.081   1.638  1.5390  1.8926 -1.6737
22924SOL     OW80830   4.786   0.502   3.881  0.1450  0.6508 -0.0574
22924SOL    HW180831   4.775   0.413   3.925 -0.2453  0.3200 -0.8100
22924SOL    HW280832   4.811   0.570   3.949 -0.6900  0.1909  0.7234
22925SOL     OW80833   0.081   6.965   7.361 -0.4929 -0.4006  0.0114
22925SOL    HW180834   0.012   6.965   7.289 -0.2998 -0.6076 -0.1735
22925SOL    HW280835   0.049   7.021   7.438  0.6105  2.3912 -1.5065
22926SOL     OW80836   2.196   2.723   8.141 -0.0938  0.2779 -0.1613
22926SOL    HW180837   2.104   2.753   8.115 -0.8018 -1.3107  0.4533
22926SOL    HW280838   2.245   2.693   8.060 -0.0906  1.1593 -0.4961
22927SOL     OW80839   6.647   1.565   6.043 -0.1725 -0.1357  0.6341
22927SOL    HW180840   6.741   1.600   6.032  0.0410 -0.4633  1.3766
22927SOL    HW280841   6.586   1.614   5.981  0.2766  0.9631  1.0372
22928SOL     OW80842   9.694   7.148   7.953 -0.1392  0.6777  0.5828
22928SOL    HW180843   9.596   7.164   7.966 -0.3727 -0.5880  0.4852
22928SOL    HW280844   9.712   7.134   7.856 -0.1917 -1.0814  0.8090
22929SOL     OW80845   8.358   2.700   4.248 -0.0898 -0.2997  0.0039
22929SOL    HW180846   8.320   2.714   4.340  1.0134 -2.2686  0.7682
22929SOL    HW280847   8.358   2.603   4.226 -0.4436  0.1642 -2.1481
22930SOL     OW80848   5.900   9.105   5.721  0.6984 -0.0344 -0.6528
22930SOL    HW180849   5.925   9.019   5.676 -2.3674 -2.0190  1.1725
22930SOL    HW280850   5.855   9.166   5.656 -0.6127 -1.4595 -1.1099
22931SOL     OW80851   7.959   5.738   0.885  0.0355 -0.5356  0.2570
22931SOL    HW180852   7.881   5.696   0.931 -1.4809 -0.0739 -1.8493
22931SOL    HW280853   7.976   5.691   0.798  0.0187  1.4550 -0.8504
22932SOL     OW80854   1.773   3.204   4.080 -0.0744  0.2371 -0.3739
22932SOL    HW180855   1.761   3.195   4.179 -1.6508  1.2063 -0.4595
22932SOL    HW280856   1.869   3.223   4.060  0.1496  0.6474  1.0209
22933SOL     OW80857   2.935   3.778   6.227  0.5967 -0.0835 -0.5439
22933SOL    HW180858   2.869   3.800   6.156  0.2848 -1.0224 -0.5518
22933SOL    HW280859   2.987   3.860   6.251 -0.2142  0.5453 -0.9018
22934SOL     OW80860   5.145   7.330   4.721 -0.5257  0.5599  0.3293
22934SOL    HW180861   5.086   7.280   4.658 -2.3113  0.3482  2.0985
22934SOL    HW280862   5.095   7.350   4.805  2.0502  0.0200  2.0779
22935SOL     OW80863   7.785   6.351   6.866 -0.2273 -0.0838  1.5358
22935SOL    HW180864   7.718   6.317   6.931 -0.8005  1.7055  1.9236
22935SOL    HW280865   7.744   6.423   6.810 -0.7481 -3.7346 -3.0881
22936SOL     OW80866   7.938   6.830   6.504  0.6369 -0.2361 -0.4950
22936SOL    HW180867   8.007   6.901   6.515  0.5738 -0.3010  0.3284
22936SOL    HW280868   7.952   6.783   6.417  0.3663  1.1174 -1.2899
22937SOL     OW80869   3.990   0.482   2.519 -0.0751  0.4082 -0.4568
22937SOL    HW180870   3.912   0.419   2.522  0.0379  0.3038  0.3309
22937SOL    HW280871   3.964   0.564   2.468 -0.3222 -0.1408 -1.2133
22938SOL     OW80872   3.962   9.328   0.100  0.1080  0.3381  0.2643
22938SOL    HW180873   4.004   9.380   0.174  0.2562  0.1735  0.2965
22938SOL    HW280874   3.886   9.274   0.137 -0.2410  0.7647  0.1756
22939SOL     OW80875   7.109   6.221   7.485  0.1192 -0.1520  0.0929
22939SOL    HW180876   7.177   6.167   7.436 -0.4585 -0.0282 -0.8569
22939SOL    HW280877   7.151   6.305   7.519  0.4806 -0.1482 -0.3633
22940SOL     OW80878   7.299   7.581   4.941  0.3037 -0.0210 -0.2721
22940SOL    HW180879   7.333   7.652   5.003  0.5999 -0.4287  0.0340
22940SOL    HW280880   7.302   7.492   4.987 -1.4438 -0.0273 -0.1354
22941SOL     OW80881   4.693   8.146   6.237  0.1271  0.1794  0.0687
22941SOL    HW180882   4.650   8.094   6.311 -0.6434 -0.4937 -0.8325
22941SOL    HW280883   4.780   8.104   6.214 -0.4871 -0.7253 -0.6487
22942SOL     OW80884   6.989   3.292   4.264  0.0408  0.0446  0.1838
22942SOL    HW180885   7.031   3.235   4.334 -1.4795 -0.6386  0.5654
22942SOL    HW280886   6.897   3.318   4.293 -0.7398 -0.5379 -1.6995
22943SOL     OW80887   8.139   9.764   9.670  0.0264  0.0195  0.3134
22943SOL    HW180888   8.132   9.801   9.577  1.5107  2.6694  1.2093
22943SOL    HW280889   8.091   9.825   9.733  0.3951 -0.9350  1.5265
22944SOL     OW80890   6.363   3.695   1.283 -0.2024  0.2666  0.0601
22944SOL    HW180891   6.430   3.646   1.340 -0.4946 -0.2577 -0.0491
22944SOL    HW280892   6.282   3.638   1.270 -0.4735  0.7138 -0.2090
22945SOL     OW80893   8.234   9.417   4.681 -0.0425 -0.4068 -0.4982
22945SOL    HW180894   8.136   9.405   4.695 -0.0975  0.0771 -0.4340
22945SOL    HW280895   8.260   9.383   4.591  0.0565 -2.2284  0.2102
22946SOL     OW80896   7.132   9.880   4.490  0.1241  0.6358  0.1714
22946SOL    HW180897   7.202   9.808   4.493  1.1528  1.4623 -2.6529
22946SOL    HW280898   7.041   9.837   4.486  0.5403 -0.4597  1.9639
22947SOL     OW80899   4.215   4.752   3.159 -1.0582 -0.1202 -0.0047
22947SOL    HW180900   4.177   4.825   3.216  0.2709  0.2187  0.4571
22947SOL    HW280901   4.235   4.788   3.067 -0.0752  0.1935  0.3286
22948SOL     OW80902   5.668   0.287   5.499 -0.0775  0.7913  0.0099
22948SOL    HW180903   5.702   0.363   5.444 -0.1968  0.0239 -1.1471
22948SOL    HW280904   5.573   0.304   5.524 -0.8500 -0.0167 -2.2172
22949SOL     OW80905   0.412   6.460   0.564 -0.8523  0.2570 -0.4323
22949SOL    HW180906   0.316   6.442   0.543 -1.1721  1.1580  0.2291
22949SOL    HW280907   0.436   6.414   0.650 -1.0037  0.9612 -0.0098
22950SOL     OW80908   6.396   3.150   9.763 -0.1239 -0.0079 -0.0724
22950SOL    HW180909   6.486   3.129   9.802 -0.3880  0.0520  0.5923
22950SOL    HW280910   6.388   3.249   9.751 -0.3172  0.0386  0.4202
22951SOL     OW80911   9.967   9.994   8.007 -0.4264 -0.1042 -0.4546
22951SOL    HW180912   9.966   9.898   8.036 -2.7024 -0.5749 -1.9450
22951SOL    HW280913  10.058  10.017   7.974 -0.0500 -2.0002 -0.8325
22952SOL     OW80914   6.118   5.424   8.672 -0.0814 -0.1964  0.1084
22952SOL    HW180915   6.019   5.430   8.668 -0.0182  4.0282  2.3050
22952SOL    HW280916   6.154   5.401   8.581 -2.8972  1.3157 -1.4310
22953SOL     OW80917   6.425   8.419   4.369 -0.2331 -0.2058  0.0187
22953SOL    HW180918   6.447   8.362   4.290  1.7950  0.5859 -0.0243
22953SOL    HW280919   6.335   8.460   4.357 -0.8909 -1.8612 -0.8387
22954SOL     OW80920   8.862   9.842   8.152  0.1094  0.2745 -0.2441
22954SOL    HW180921   8.958   9.818   8.170  0.1697 -0.1930 -1.1883
22954SOL    HW280922   8.802   9.784   8.208  0.4179  1.8988  1.8286
22955SOL     OW80923   9.027   5.373   5.529 -0.1702  0.1048  0.1795
22955SOL    HW180924   8.978   5.323   5.457  0.6453 -1.0287  0.4023
22955SOL    HW280925   8.965   5.388   5.607 -0.5469 -0.1822 -0.0620
22956SOL     OW80926   3.022   3.288   3.250 -0.0463 -0.2285  0.3435
22956SOL    HW180927   3.109   3.273   3.202 -0.0099 -0.6303  0.5391
22956SOL    HW280928   3.006   3.387   3.259 -1.0462 -0.1047 -2.3113
22957SOL     OW80929   6.624   3.233   8.650 -0.5201  0.3171 -0.3400
22957SOL    HW180930   6.552   3.268   8.590 -1.5319 -1.8456 -0.4670
22957SOL    HW280931   6.711   3.276   8.627 -1.2104  0.7646 -2.2412
22958SOL     OW80932   7.046   7.727   1.985 -0.0389  0.0658  0.0052
22958SOL    HW180933   7.115   7.724   2.058 -0.2255  1.9949  0.2691
22958SOL    HW280934   6.955   7.737   2.025 -0.3811 -1.2859 -0.4033
22959SOL     OW80935   2.874   0.843   3.806  0.1834 -0.5539 -0.7871
22959SOL    HW180936   2.814   0.776   3.848 -3.1609  0.2003 -4.1119
22959SOL    HW280937   2.917   0.899   3.877 -0.7360 -3.0069  1.7938
22960SOL     OW80938   2.665   2.999   2.616  0.4676 -0.4284  0.2721
22960SOL    HW180939   2.705   3.081   2.658  1.7004 -2.0567  2.3554
22960SOL    HW280940   2.572   2.987   2.651 -0.3334  0.9795 -1.3091
22961SOL     OW80941   7.337   5.277   9.242 -0.5723 -0.1626  0.1537
22961SOL    HW180942   7.290   5.228   9.315 -1.8545  0.3898 -0.2864
22961SOL    HW280943   7.315   5.375   9.248  1.7038  0.3567  0.8432
22962SOL     OW80944   0.529   6.139   0.238 -0.1978 -0.1301 -0.3846
22962SOL    HW180945   0.517   6.156   0.336  0.4047 -1.7322 -0.0120
22962SOL    HW280946   0.550   6.225   0.192 -1.5117  0.8133  0.7298
22963SOL     OW80947   2.107   7.493   9.198 -0.0402  0.2898 -0.0111
22963SOL    HW180948   2.059   7.540   9.125 -0.9536 -0.4545  0.0943
22963SOL    HW280949   2.175   7.554   9.239  0.4766  0.7110 -1.4720
22964SOL     OW80950   9.994   7.533   3.870 -0.3661 -0.4269  0.1074
22964SOL    HW180951  10.014   7.467   3.797 -1.2865  0.0629 -0.6052
22964SOL    HW280952   9.975   7.623   3.829  0.0671  0.0870  1.0146
22965SOL     OW80953   3.482   1.146   6.431 -0.0335 -0.2657  0.1045
22965SOL    HW180954   3.564   1.203   6.426 -1.1459  1.4505  1.0369
22965SOL    HW280955   3.466   1.102   6.342  0.9590  0.7046 -0.5526
22966SOL     OW80956   2.693   3.357   6.324 -0.7866 -0.2407  0.7365
22966SOL    HW180957   2.668   3.434   6.384 -0.3154  0.3777  0.1479
22966SOL    HW280958   2.686   3.386   6.229  0.3629 -0.6247  0.5309
22967SOL     OW80959   1.512   3.704   3.777 -0.1688 -0.3622 -0.5573
22967SOL    HW180960   1.606   3.705   3.811 -0.2567  0.6058 -0.3168
22967SOL    HW280961   1.511   3.667   3.684  0.6847  1.1869 -1.2031
22968SOL     OW80962   4.043   1.396   6.190  0.6139  0.2453  0.5195
22968SOL    HW180963   3.993   1.349   6.263 -1.0445  0.1471 -0.6443
22968SOL    HW280964   4.018   1.356   6.102  1.1823  1.5869 -0.2597
22969SOL     OW80965   2.335   5.357   3.776 -0.2410 -0.0018 -0.1328
22969SOL    HW180966   2.399   5.281   3.783  0.0254  0.2322 -0.0231
22969SOL    HW280967   2.302   5.365   3.682  2.8446  2.2792 -1.1009
22970SOL     OW80968   8.011   0.853   2.022  0.2782  0.6598  0.0623
22970SOL    HW180969   8.093   0.851   2.080  0.4058  1.6567 -0.0690
22970SOL    HW280970   7.929   0.848   2.078  0.4212  0.4590  0.2516
22971SOL     OW80971   7.102   3.706   2.802  0.0083  0.2303 -0.1250
22971SOL    HW180972   7.105   3.695   2.703 -1.4268 -1.7509  0.0311
22971SOL    HW280973   7.046   3.634   2.842  1.0919  0.6355  2.1946
22972SOL     OW80974   4.136   0.421   5.730  0.8867 -0.1582 -0.1469
22972SOL    HW180975   4.088   0.496   5.685 -0.4187 -0.1993  1.1257
22972SOL    HW280976   4.161   0.448   5.823  3.2970 -0.1781 -0.7614
22973SOL     OW80977   3.635   2.926   5.714  0.8595  0.0965  0.8589
22973SOL    HW180978   3.672   3.006   5.668  0.8910 -0.1791  0.4033
22973SOL    HW280979   3.703   2.889   5.777  1.7675 -1.0195 -0.7274
22974SOL     OW80980   7.841   9.698   3.591  0.1214  0.1101  0.2626
22974SOL    HW180981   7.790   9.715   3.507  1.8344 -1.2588 -1.0712
22974SOL    HW280982   7.777   9.695   3.668 -1.3572  2.3446 -0.8133
22975SOL     OW80983   8.335   9.633   9.425 -0.2502  0.0152 -0.1176
22975SOL    HW180984   8.308   9.590   9.510 -2.6148 -0.3463 -1.0150
22975SOL    HW280985   8.305   9.728   9.425  0.3634  0.2086 -0.2592
22976SOL     OW80986   8.042   9.063   9.567  0.1684  0.0642  0.4171
22976SOL    HW180987   7.983   9.132   9.526  0.9874 -0.2796 -1.4386
22976SOL    HW280988   8.131   9.104   9.588  0.2247 -0.1021  0.4994
22977SOL     OW80989   7.006   1.181   8.881  0.1496 -0.1781  0.1289
22977SOL    HW180990   6.912   1.205   8.908 -0.4337 -0.8530 -1.2842
22977SOL    HW280991   7.005   1.095   8.830  1.6095 -0.4529  0.5436
22978SOL     OW80992   2.750   6.084   1.347  0.4700 -0.7396 -0.1997
22978SOL    HW180993   2.836   6.117   1.386  0.8607 -1.6403 -0.3072
22978SOL    HW280994   2.768   6.011   1.281 -0.3684 -0.9149 -0.2416
22979SOL     OW80995   8.166   8.158   1.460 -0.2680  0.0080  0.1193
22979SOL    HW180996   8.084   8.148   1.516 -0.0584  0.3141  0.4859
22979SOL    HW280997   8.246   8.167   1.519  0.2353 -1.8647 -0.2438
22980SOL     OW80998   4.287   6.843   3.563 -0.0897 -0.2564  0.4784
22980SOL    HW180999   4.248   6.771   3.622 -1.4296  0.1718  0.1306
22980SOL    HW281000   4.271   6.820   3.467 -0.7957  0.6598  0.3749
22981SOL     OW81001   0.363   1.482   3.684  0.1128  0.2057 -0.1442
22981SOL    HW181002   0.281   1.443   3.725 -0.0643 -0.4364 -1.0784
22981SOL    HW281003   0.348   1.495   3.586  0.9497  0.5601 -0.2317
22982SOL     OW81004   9.596   4.182   1.061  0.4851  0.2699 -0.0577
22982SOL    HW181005   9.571   4.270   1.103  1.3033 -0.2967  1.6646
22982SOL    HW281006   9.659   4.133   1.122  0.6632 -1.1589 -1.3756
22983SOL     OW81007   5.356   0.734   7.822 -0.8652  0.1197 -0.1349
22983SOL    HW181008   5.412   0.722   7.904 -0.6301 -1.6669 -0.5249
22983SOL    HW281009   5.309   0.648   7.801 -2.8677  1.2615 -0.4676
22984SOL     OW81010   3.935   0.560   4.016  0.1558 -0.1829  0.4643
22984SOL    HW181011   4.013   0.536   3.958 -0.8114 -0.4291 -0.7662
22984SOL    HW281012   3.946   0.653   4.051  0.3550  0.2685 -0.7831
22985SOL     OW81013   7.715   0.916   0.569  0.2218 -0.0162 -0.4522
22985SOL    HW181014   7.633   0.886   0.619  0.0056  0.8681 -0.2726
22985SOL    HW281015   7.690   0.940   0.476  0.0732  1.3239 -0.0759
22986SOL     OW81016   1.747   1.350   8.631  0.2104  0.5274  0.4237
22986SOL    HW181017   1.823   1.330   8.569 -1.0012  1.1120 -1.2781
22986SOL    HW281018   1.736   1.274   8.694  1.1828 -0.2865 -0.3554
22987SOL     OW81019   7.442   5.168   0.747 -0.3248  0.0798 -0.5202
22987SOL    HW181020   7.408   5.089   0.697  0.7620 -1.3763  0.9641
22987SOL    HW281021   7.535   5.188   0.719  0.1700 -0.5352  0.6215
22988SOL     OW81022   1.263   7.219   9.023 -0.0106 -0.6690 -0.1270
22988SOL    HW181023   1.340   7.159   9.045 -0.3216 -1.3371 -0.8414
22988SOL    HW281024   1.288   7.280   8.948  0.3716  0.2373  0.7317
22989SOL     OW81025   9.897   6.366   9.384 -0.2990 -0.0521 -0.3601
22989SOL    HW181026   9.858   6.438   9.442  1.4269 -0.1115  0.8961
22989SOL    HW281027   9.828   6.338   9.317 -1.4734  1.7889  0.0120
22990SOL     OW81028   9.352   2.696   6.143 -0.3094 -0.1569  0.0171
22990SOL    HW181029   9.252   2.690   6.136 -0.2812 -0.0472 -0.4786
22990SOL    HW281030   9.382   2.647   6.225 -0.7512 -0.3895  0.0431
22991SOL     OW81031   2.369   8.330   2.852 -0.2362 -0.6779  0.2005
22991SOL    HW181032   2.370   8.428   2.831  0.7658 -0.6811  0.1948
22991SOL    HW281033   2.307   8.283   2.789 -0.5111 -0.0839  0.0244
22992SOL     OW81034   8.086   9.419   2.918  0.0264  0.1261 -0.1896
22992SOL    HW181035   8.004   9.363   2.929 -1.4066  1.5989 -2.8888
22992SOL    HW281036   8.150   9.372   2.857  0.4627 -0.2486  0.5499
22993SOL     OW81037   0.506   6.684   4.632 -0.1455  0.3553  0.8635
22993SOL    HW181038   0.536   6.594   4.603 -0.1008 -0.1364  2.3684
22993SOL    HW281039   0.570   6.720   4.700 -2.0608 -0.0337  2.9224
22994SOL     OW81040   8.072   6.961   7.364  0.6215  0.2356 -0.8319
22994SOL    HW181041   8.117   6.978   7.276  0.7586  1.3013 -0.5540
22994SOL    HW281042   7.995   6.899   7.350  0.7869  0.2153 -1.6721
22995SOL     OW81043   4.786   4.669   0.048 -0.2622 -0.1247  0.2123
22995SOL    HW181044   4.854   4.596   0.038 -0.6289 -0.6285  1.2867
22995SOL    HW281045   4.809   4.725   0.128 -0.3616  0.5224 -0.2114
22996SOL     OW81046   2.501   1.099   4.789  0.1747  0.0662  0.2894
22996SOL    HW181047   2.458   1.097   4.879  0.4213 -1.0189  0.3941
22996SOL    HW281048   2.581   1.159   4.792  0.3591 -0.2051  0.8739
22997SOL     OW81049   9.607   7.493   8.368 -0.2545  0.1085 -0.2907
22997SOL    HW181050   9.613   7.400   8.402 -1.2986 -1.0007 -3.0249
22997SOL    HW281051   9.564   7.551   8.438  0.8694 -1.3139  1.6178
22998SOL     OW81052   4.381   1.642   0.176  0.4874  0.3429  0.6159
22998SOL    HW181053   4.309   1.710   0.188  0.8803  0.8923 -0.1363
22998SOL    HW281054   4.450   1.677   0.114 -0.2248 -1.4500 -1.2472
22999SOL     OW81055   7.579   4.248   2.293 -0.3959  0.3738 -0.1367
22999SOL    HW181056   7.534   4.175   2.345 -1.3045  0.6262 -0.5694
22999SOL    HW281057   7.573   4.334   2.344 -0.3678  0.4034 -0.1829
23000SOL     OW81058   6.067   5.783   9.783  0.0326 -0.0536 -0.2515
23000SOL    HW181059   6.031   5.871   9.814  0.7325 -0.8106  2.8338
23000SOL    HW281060   6.165   5.792   9.762 -0.1985  0.2023 -1.2486
23001SOL     OW81061   3.195   4.559   8.340  0.8025  0.4971  0.2880
23001SOL    HW181062   3.265   4.531   8.273 -0.0534 -1.2370  0.0798
23001SOL    HW281063   3.164   4.651   8.319  1.8416  0.6556 -0.6224
23002SOL     OW81064   9.019   9.314   2.639  0.6575 -0.3607 -0.6740
23002SOL    HW181065   9.026   9.318   2.739  0.5348  2.1264 -0.7191
23002SOL    HW281066   8.929   9.279   2.613  1.3013 -2.6442  0.0582
23003SOL     OW81067   9.003   5.446   8.417 -0.1197 -0.0219 -0.1689
23003SOL    HW181068   9.010   5.533   8.466 -1.7992 -0.0228  0.1244
23003SOL    HW281069   9.019   5.370   8.481 -0.1103  0.0358 -0.1016
23004SOL     OW81070   2.156   4.573   8.538 -0.2526  0.1850 -0.0307
23004SOL    HW181071   2.169   4.672   8.544  2.4135 -0.1728  0.5621
23004SOL    HW281072   2.092   4.544   8.610  0.8138  1.1739  1.3556
23005SOL     OW81073   6.272   8.531   7.318  0.3953 -0.0038  0.1492
23005SOL    HW181074   6.186   8.516   7.269 -0.4132  0.2334  1.4865
23005SOL    HW281075   6.348   8.492   7.264 -0.4947  0.0754 -1.1860
23006SOL     OW81076   0.954   6.376   3.125  0.3970 -0.2907  0.7928
23006SOL    HW181077   0.879   6.346   3.065 -0.6495 -0.5225  2.1761
23006SOL    HW281078   0.996   6.296   3.167  0.3941 -0.0651  1.2226
23007SOL     OW81079   0.123   7.835   9.179 -0.0651 -0.4934 -0.3868
23007SOL    HW181080   0.166   7.829   9.268  0.6539 -0.6320 -0.7417
23007SOL    HW281081   0.116   7.743   9.139 -1.2169 -0.5505 -0.0879
23008SOL     OW81082   9.921   1.375   8.874 -0.3950  0.0531 -0.2460
23008SOL    HW181083   9.971   1.338   8.795 -0.3256  0.5197 -0.4222
23008SOL    HW281084   9.945   1.322   8.956 -0.9058 -0.8057 -0.6386
23009SOL     OW81085   1.250   4.035   7.543  0.0916 -0.1097  0.2918
23009SOL    HW181086   1.188   3.961   7.566  2.4836 -1.9825  0.9469
23009SOL    HW281087   1.310   4.006   7.468 -0.4136  1.9987 -0.9713
23010SOL     OW81088   3.963   1.580   1.603 -0.1032 -0.2003  0.1549
23010SOL    HW181089   4.038   1.570   1.539  0.6612 -1.9216  1.2719
23010SOL    HW281090   3.998   1.612   1.691 -0.4330 -2.2708  1.0811
23011SOL     OW81091   4.029   2.793   9.000  0.4629  0.3653 -0.0379
23011SOL    HW181092   4.089   2.791   9.081  0.6225  0.5659 -0.1498
23011SOL    HW281093   4.083   2.770   8.919  0.5098  1.0779 -0.2141
23012SOL     OW81094   9.010   1.969   1.533  0.0075  0.2751 -0.2401
23012SOL    HW181095   8.926   1.991   1.484  0.3844 -1.5127 -1.7355
23012SOL    HW281096   9.089   2.001   1.481  0.3432  0.3581  0.3056
23013SOL     OW81097   2.730   6.910   3.383 -0.0695 -0.4049  0.2144
23013SOL    HW181098   2.649   6.888   3.329 -0.6079  0.9234  0.4639
23013SOL    HW281099   2.704   6.968   3.460  1.2260  0.6890 -0.1533
23014SOL     OW81100   0.958   6.711   9.803 -0.5611  0.1723  0.0676
23014SOL    HW181101   1.000   6.719   9.894 -0.3216 -1.1105  0.0891
23014SOL    HW281102   0.893   6.635   9.804 -1.3866  0.8763 -0.5267
23015SOL     OW81103   1.983   5.435   1.842 -0.0080  0.0436  0.6159
23015SOL    HW181104   2.030   5.399   1.761  0.3729 -0.0518  0.8768
23015SOL    HW281105   1.907   5.493   1.813  0.9691  1.1314  0.1727
23016SOL     OW81106   8.430   0.124   7.585  0.0284 -0.5644  0.0246
23016SOL    HW181107   8.497   0.197   7.593 -0.5270 -0.0635  0.1281
23016SOL    HW281108   8.429   0.089   7.491  0.9662 -1.0934  0.2018
23017SOL     OW81109   1.374   6.774   5.456  0.6164  0.2119 -0.4811
23017SOL    HW181110   1.416   6.787   5.366  1.0987 -0.8746 -0.4201
23017SOL    HW281111   1.387   6.856   5.511 -1.1925  1.5611 -2.0033
23018SOL     OW81112   0.305   8.747   9.175  0.5117 -0.3610 -0.2179
23018SOL    HW181113   0.335   8.702   9.091 -0.9010 -1.6386 -0.0716
23018SOL    HW281114   0.353   8.834   9.186  1.7715 -0.8718 -1.5860
23019SOL     OW81115   1.637   2.993   9.837  0.2112  0.3441  0.2868
23019SOL    HW181116   1.543   3.025   9.840 -0.0909 -0.4656 -0.4208
23019SOL    HW281117   1.676   3.011   9.746  0.2454 -0.6815  0.0905
23020SOL     OW81118   1.762   8.848   8.209 -0.4147  0.0549  0.2786
23020SOL    HW181119   1.847   8.823   8.255  0.1370 -0.6709 -1.0958
23020SOL    HW281120   1.703   8.767   8.203 -0.0409 -0.1088 -1.2085
23021SOL     OW81121   3.053   0.852   6.005  0.3448 -0.8877 -0.3527
23021SOL    HW181122   3.088   0.759   6.002  0.6161 -0.9003  1.9940
23021SOL    HW281123   3.116   0.909   6.058 -0.4977  0.3150 -0.6301
23022SOL     OW81124   4.971   5.302   2.036 -0.5756  0.4062 -0.0509
23022SOL    HW181125   4.926   5.320   2.124 -2.2036 -0.2047 -0.7410
23022SOL    HW281126   4.970   5.204   2.017  0.8171  0.4149 -0.2127
23023SOL     OW81127   0.321   3.831   4.482 -0.2725 -0.2576 -0.0029
23023SOL    HW181128   0.394   3.764   4.465 -1.1739 -1.5230  0.9779
23023SOL    HW281129   0.251   3.823   4.411  0.1603  0.4196 -0.5089
23024SOL     OW81130   1.215   8.531   8.879 -0.6888 -0.2208  0.0289
23024SOL    HW181131   1.156   8.474   8.823 -0.7437 -1.6641  1.5180
23024SOL    HW281132   1.167   8.557   8.963  0.0832  0.2435  0.3332
23025SOL     OW81133   0.725   2.226   1.285  0.2113  0.5427  0.0496
23025SOL    HW181134   0.678   2.183   1.362 -0.2398 -0.5569 -0.8333
23025SOL    HW281135   0.810   2.267   1.318  0.7755 -1.2294  0.8715
23026SOL     OW81136   2.083   3.108   2.146  0.3179  0.8461 -0.0270
23026SOL    HW181137   2.170   3.124   2.193  0.5323 -0.1269 -0.0799
23026SOL    HW281138   2.088   3.022   2.095 -0.5148  1.0242 -0.4207
23027SOL     OW81139   6.606   0.497   3.047  0.2008 -0.2386 -0.7500
23027SOL    HW181140   6.626   0.472   2.952 -0.5549 -2.1339 -0.4458
23027SOL    HW281141   6.551   0.424   3.090  0.5189  0.5873  1.1294
23028SOL     OW81142   9.853   8.076   6.226  0.4189  0.5364 -0.7645
23028SOL    HW181143   9.788   8.149   6.246 -0.7729 -0.3011 -1.5265
23028SOL    HW281144   9.914   8.105   6.152  0.9497  1.3305 -0.0278
23029SOL     OW81145   7.051   2.613   8.680  0.5068 -0.0914 -0.1523
23029SOL    HW181146   7.100   2.588   8.597 -0.8144  0.9379 -1.2688
23029SOL    HW281147   6.954   2.594   8.669  0.1721  0.9841  0.7636
23030SOL     OW81148   6.884   8.370   6.160  0.0332 -0.3229  0.9179
23030SOL    HW181149   6.918   8.375   6.067  1.4712  3.6546  1.5565
23030SOL    HW281150   6.802   8.428   6.169 -0.8679 -1.6937  1.8482
23031SOL     OW81151   7.838   2.099   1.660  0.2272  0.5098  0.1097
23031SOL    HW181152   7.874   2.049   1.581  1.4103  0.0577  0.9076
23031SOL    HW281153   7.758   2.152   1.633 -0.1172 -0.6068 -1.1025
23032SOL     OW81154   2.624   9.318   8.002  0.0360 -0.1742 -0.8088
23032SOL    HW181155   2.597   9.397   7.946 -2.9282  0.7774  1.8165
23032SOL    HW281156   2.619   9.343   8.099  3.1344 -2.3871 -0.0025
23033SOL     OW81157   9.304   4.322   6.717  0.3926  0.3177 -0.2601
23033SOL    HW181158   9.328   4.240   6.770 -1.7915  0.0566  0.3588
23033SOL    HW281159   9.378   4.342   6.653  0.7177 -2.4886 -0.8370
23034SOL     OW81160   4.942   1.811   7.056  0.5618  0.3972 -0.0972
23034SOL    HW181161   4.901   1.901   7.072 -1.3924 -0.2474 -1.2625
23034SOL    HW281162   4.958   1.766   7.143 -0.8455  0.8424  0.4033
23035SOL     OW81163   1.833   1.748  10.025  0.2788  0.8674  0.0585
23035SOL    HW181164   1.847   1.825  10.087  2.0204  0.9834 -0.4556
23035SOL    HW281165   1.912   1.739   9.964  0.7432 -2.1075  1.0044
23036SOL     OW81166   4.219   4.661   7.947 -0.3941 -0.0356  0.7653
23036SOL    HW181167   4.172   4.658   8.036 -2.1933 -1.2660 -0.1878
23036SOL    HW281168   4.318   4.660   7.962 -0.6530  0.9160  2.7810
23037SOL     OW81169   8.192   9.831   6.094 -0.2884 -0.0721 -0.0210
23037SOL    HW181170   8.188   9.804   5.998  0.8097 -2.5093  0.5874
23037SOL    HW281171   8.217   9.928   6.100  1.7706 -0.4225 -2.1427
23038SOL     OW81172   1.426   6.624   5.952 -0.7351 -0.3065  0.0029
23038SOL    HW181173   1.524   6.630   5.931 -0.9003  0.7811 -0.5032
23038SOL    HW281174   1.411   6.641   6.049 -0.3761 -0.9916  0.1814
23039SOL     OW81175   7.940   4.330   7.945 -0.0614  0.0800  0.3191
23039SOL    HW181176   7.869   4.396   7.920 -0.3187 -0.5643 -0.7212
23039SOL    HW281177   7.897   4.251   7.989  0.0157 -0.2220 -0.1341
23040SOL     OW81178   1.127   6.718   1.780  0.6105 -0.3160 -0.1832
23040SOL    HW181179   1.125   6.636   1.837  0.4971  0.4117  0.8676
23040SOL    HW281180   1.046   6.720   1.722 -0.5492  0.2049  1.4233
23041SOL     OW81181   7.056   7.039   2.591 -0.3583 -0.8753  0.6289
23041SOL    HW181182   7.042   6.984   2.510  2.2053 -1.1965  0.3364
23041SOL    HW281183   7.038   6.984   2.673  0.1438 -1.5358  0.3042
23042SOL     OW81184   2.270   0.458   1.020  0.1152 -0.2256 -0.1013
23042SOL    HW181185   2.254   0.383   0.955 -1.2705  0.4142 -0.5319
23042SOL    HW281186   2.326   0.425   1.096 -0.7718 -1.8070 -0.1055
23043SOL     OW81187   3.333   1.653   4.407  0.5850  0.4919  0.4685
23043SOL    HW181188   3.295   1.735   4.449 -2.7487 -1.1537  0.8107
23043SOL    HW281189   3.352   1.584   4.477  2.9755  0.7764  0.1433
23044SOL     OW81190   4.000   6.024   7.375 -0.6525  0.4604  0.5186
23044SOL    HW181191   3.953   6.077   7.304  1.8764  2.1079 -0.0020
23044SOL    HW281192   4.091   6.061   7.388 -0.0389 -1.6953  2.5942
23045SOL     OW81193   1.604   8.207   0.763  0.1520 -0.8502 -0.1013
23045SOL    HW181194   1.507   8.228   0.751  0.5553  1.0268 -0.1490
23045SOL    HW281195   1.616   8.150   0.844 -1.0768 -1.8882 -0.6253
23046SOL     OW81196   0.010   7.088   8.565 -0.5574  0.1414  0.6127
23046SOL    HW181197   0.004   7.159   8.495  0.5709  0.1093  0.4765
23046SOL    HW281198  -0.063   7.102   8.633 -1.7493  0.0866 -0.6307
23047SOL     OW81199   0.975   0.715   3.261 -0.0813 -0.1231  0.3998
23047SOL    HW181200   1.050   0.649   3.254  0.3937  0.4424  0.0999
23047SOL    HW281201   1.008   0.806   3.236 -1.0948 -0.0343 -0.6742
23048SOL     OW81202   1.585   3.358   2.530 -0.5418 -0.8557 -0.4808
23048SOL    HW181203   1.662   3.420   2.516  0.3936 -0.9496  3.5795
23048SOL    HW281204   1.601   3.273   2.481  0.5257  0.2023 -2.0169
23049SOL     OW81205   4.185   0.496   8.388 -0.0399 -0.0293 -0.2589
23049SOL    HW181206   4.129   0.577   8.369  2.0248  1.4842 -0.0161
23049SOL    HW281207   4.126   0.416   8.392 -1.8999  1.1901 -2.2382
23050SOL     OW81208   1.868   9.389   5.212  0.1541  0.9764  0.2694
23050SOL    HW181209   1.820   9.453   5.273 -0.5544  0.5244  0.1983
23050SOL    HW281210   1.931   9.333   5.266 -1.7013 -0.5988  0.9049
23051SOL     OW81211   8.749   5.272   0.564 -0.1136 -0.0626 -0.1491
23051SOL    HW181212   8.665   5.304   0.520 -0.2565  0.1369  0.2704
23051SOL    HW281213   8.826   5.283   0.501  0.2433  3.2393  0.7853
23052SOL     OW81214   6.366   5.214   0.586  0.1840  0.4132 -0.5618
23052SOL    HW181215   6.325   5.304   0.570  0.9156  0.4354 -2.5495
23052SOL    HW281216   6.295   5.150   0.614 -0.5706  1.3063 -0.3889
23053SOL     OW81217   1.624   3.886   5.522  0.2173 -0.1994  0.0509
23053SOL    HW181218   1.555   3.892   5.595 -3.7796  0.1905 -3.5741
23053SOL    HW281219   1.649   3.790   5.508 -1.2048 -0.5741 -0.0001
23054SOL     OW81220   2.881   5.182   7.073 -0.6362 -0.4342  0.2231
23054SOL    HW181221   2.910   5.092   7.042 -0.9734 -0.2677 -0.5748
23054SOL    HW281222   2.911   5.252   7.008  0.9254  0.1967  1.5874
23055SOL     OW81223   3.573   8.896   0.156  0.0055  0.2556 -0.0164
23055SOL    HW181224   3.519   8.914   0.239  0.1464  0.0606  0.1196
23055SOL    HW281225   3.516   8.846   0.090 -0.8633  2.4871 -1.0036
23056SOL     OW81226   4.208   9.869   4.512  0.0722  0.2898 -0.0304
23056SOL    HW181227   4.224   9.890   4.608  1.5783  0.2537 -0.2698
23056SOL    HW281228   4.282   9.811   4.477  0.9139  2.4124 -1.8908
23057SOL     OW81229   0.197   5.755   5.169  0.2132  0.3090 -0.0357
23057SOL    HW181230   0.149   5.787   5.250  2.4445 -0.0185  1.4855
23057SOL    HW281231   0.241   5.832   5.123  0.7234  0.2348  0.3127
23058SOL     OW81232   3.414   2.398   4.684  0.5941  0.2519 -0.0591
23058SOL    HW181233   3.514   2.399   4.684  0.6015 -0.2190 -0.7422
23058SOL    HW281234   3.380   2.394   4.590 -0.0686  0.1075  0.1804
23059SOL     OW81235   9.135   3.403   3.946 -0.4761 -0.5692 -0.0251
23059SOL    HW181236   9.194   3.437   4.019  0.7594 -1.0571 -0.7787
23059SOL    HW281237   9.041   3.433   3.962  0.0909  0.7937  0.8282
23060SOL     OW81238   2.519   1.125   1.742  0.2082  0.1315 -0.5291
23060SOL    HW181239   2.583   1.106   1.817 -0.3321 -0.8279 -0.3005
23060SOL    HW281240   2.433   1.158   1.780 -0.1091 -0.4754 -0.7224
23061SOL     OW81241   2.030   1.605   6.413 -0.2234  0.0532  0.6594
23061SOL    HW181242   2.006   1.629   6.319 -0.6141 -1.3915  0.3823
23061SOL    HW281243   1.946   1.600   6.468  0.1316  2.6091  1.5230
23062SOL     OW81244   0.182   4.308   8.303 -0.0549  0.1424  0.1700
23062SOL    HW181245   0.190   4.319   8.204 -0.5365 -0.3418  0.0732
23062SOL    HW281246   0.190   4.397   8.348  1.8544  0.1582 -0.1834
23063SOL     OW81247   6.103   1.189   0.465  0.4975  0.1533  0.0941
23063SOL    HW181248   6.201   1.185   0.443  0.1726 -0.6529 -1.2907
23063SOL    HW281249   6.089   1.244   0.547  2.0442  0.9067 -0.1289
23064SOL     OW81250   0.594   6.934   6.345  0.2387 -0.0593  0.3067
23064SOL    HW181251   0.612   6.837   6.362 -0.3521 -0.3310 -0.6089
23064SOL    HW281252   0.664   6.970   6.284 -1.1190 -0.6163 -1.6224
23065SOL     OW81253   9.490   4.809   3.989 -0.0508 -0.3778 -0.3896
23065SOL    HW181254   9.413   4.834   3.931  1.3000 -0.0472 -2.0712
23065SOL    HW281255   9.520   4.889   4.041 -1.4224 -0.7366  0.9879
23066SOL     OW81256   3.120   5.078   0.499  0.2929  0.1705  0.4733
23066SOL    HW181257   3.091   5.095   0.594 -1.3774  0.1345 -0.0078
23066SOL    HW281258   3.088   4.987   0.471  1.1204  0.0276 -0.0028
23067SOL     OW81259   2.096   3.780   2.013  0.3204 -0.7520 -0.6730
23067SOL    HW181260   2.190   3.753   2.033  0.2934 -1.9988 -2.1738
23067SOL    HW281261   2.033   3.712   2.049  0.0209 -0.2908 -0.3182
23068SOL     OW81262   1.356   9.773   5.699  0.2305 -0.5799  0.1143
23068SOL    HW181263   1.382   9.676   5.700 -0.0969 -0.6666  0.4673
23068SOL    HW281264   1.365   9.810   5.792 -1.1128 -0.6645  0.2857
23069SOL     OW81265   4.079   9.612   2.876  0.3858 -0.1899 -0.2388
23069SOL    HW181266   4.140   9.540   2.844 -0.4690 -0.9323 -0.2208
23069SOL    HW281267   4.004   9.624   2.812  0.5045  0.6822 -0.2340
23070SOL     OW81268   7.487   4.071   1.702 -0.4056 -0.1082  0.2218
23070SOL    HW181269   7.459   4.002   1.768  1.6220 -1.0839  0.0816
23070SOL    HW281270   7.574   4.111   1.729 -0.5389  0.9131 -0.7996
23071SOL     OW81271   7.876   8.510   9.015  0.1257 -0.6947  0.3848
23071SOL    HW181272   7.862   8.608   9.032  0.4405 -0.6233  0.2455
23071SOL    HW281273   7.962   8.497   8.966 -1.0007 -0.8715 -1.5853
23072SOL     OW81274   9.340   3.678   0.006  0.3309  0.1871  0.2145
23072SOL    HW181275   9.330   3.758   0.066  1.5222  0.4158  0.1260
23072SOL    HW281276   9.434   3.673  -0.027 -0.1526 -0.3006 -1.1291
23073SOL     OW81277   1.191   5.975   6.168  0.0137  0.5079 -0.3038
23073SOL    HW181278   1.186   6.040   6.244 -0.0292  1.4362 -1.0918
23073SOL    HW281279   1.106   5.977   6.116  0.2418  0.2611 -0.6887
23074SOL     OW81280   2.526   3.942   3.028 -0.6747  0.0700  0.3671
23074SOL    HW181281   2.598   3.947   3.096  0.2094  1.7287 -0.6523
23074SOL    HW281282   2.489   3.850   3.025  0.2562 -0.3768  2.0686
23075SOL     OW81283   4.306   8.584   3.511 -0.0395  0.1388 -0.2118
23075SOL    HW181284   4.368   8.506   3.507  0.8900  0.9444 -1.8943
23075SOL    HW281285   4.319   8.632   3.598 -0.0782 -1.1287  0.5016
23076SOL     OW81286   9.493   1.921   7.839  0.6929  0.0163  0.7377
23076SOL    HW181287   9.535   1.953   7.755  0.8902 -0.1016  0.7923
23076SOL    HW281288   9.539   1.838   7.870 -0.0259 -0.5173  0.4166
23077SOL     OW81289   5.217   9.754   6.359  0.7144 -0.1748 -0.3388
23077SOL    HW181290   5.265   9.693   6.421  1.7088  1.1440  0.2112
23077SOL    HW281291   5.275   9.833   6.338 -0.4820  0.5029 -1.1500
23078SOL     OW81292   2.107   8.773   4.769 -0.4660  0.2680 -0.2061
23078SOL    HW181293   2.136   8.696   4.712 -1.1756 -1.2882  1.5050
23078SOL    HW281294   2.008   8.785   4.760 -0.6437 -0.2654  1.0509
23079SOL     OW81295   7.981   8.000   5.192  0.0573 -0.0392 -0.6122
23079SOL    HW181296   8.029   8.022   5.276 -3.4723 -3.4029  2.4890
23079SOL    HW281297   8.021   7.918   5.151  1.1221  1.0126 -1.7305
23080SOL     OW81298   8.855   6.007   6.788 -0.4779  0.3017  0.2372
23080SOL    HW181299   8.920   5.930   6.782 -1.9904 -0.7732 -4.1706
23080SOL    HW281300   8.906   6.093   6.790  1.1865 -0.5982 -1.3932
23081SOL     OW81301   1.352   8.114   8.695 -0.7763 -0.1065 -0.2277
23081SOL    HW181302   1.359   8.040   8.628 -0.4918 -0.0616 -0.2481
23081SOL    HW281303   1.290   8.086   8.769 -0.1925 -0.5997  0.0774
23082SOL     OW81304   8.908   5.256   6.593  0.5890  0.2688 -0.4666
23082SOL    HW181305   9.001   5.222   6.606  0.0056 -0.7668  1.0997
23082SOL    HW281306   8.860   5.194   6.530  0.8469  0.6347 -1.0341
23083SOL     OW81307   6.291   2.296   9.393  0.6497 -0.2066 -0.1282
23083SOL    HW181308   6.300   2.379   9.448  0.8660  0.8360 -1.7069
23083SOL    HW281309   6.208   2.302   9.336  1.3713 -0.4821 -1.2304
23084SOL     OW81310   1.501   4.614   3.999  0.1581  0.0190  0.1196
23084SOL    HW181311   1.461   4.608   4.090 -0.2852 -0.4251 -0.1027
23084SOL    HW281312   1.560   4.534   3.982  0.8322  0.4712  0.2967
23085SOL     OW81313   9.978   7.741   4.490 -0.1332 -0.0869 -0.2682
23085SOL    HW181314   9.955   7.722   4.395  1.9743 -0.3815 -0.7432
23085SOL    HW281315  10.049   7.678   4.521 -0.5068  0.2601  1.3942
23086SOL     OW81316   9.536   7.168   9.328  0.5870 -0.3444 -0.0332
23086SOL    HW181317   9.525   7.069   9.318  0.2485 -0.0982 -2.2576
23086SOL    HW281318   9.617   7.188   9.383  0.3314 -1.8510  0.9118
23087SOL     OW81319   7.206   8.205   4.064 -0.0649  0.8168  0.0392
23087SOL    HW181320   7.142   8.160   4.002 -0.4116  0.3356  0.7385
23087SOL    HW281321   7.299   8.183   4.037 -0.2019  0.9642 -0.5699
23088SOL     OW81322   1.388   7.748   5.257 -0.4978  0.1163  0.3020
23088SOL    HW181323   1.345   7.721   5.171 -0.6142 -0.0606  0.4161
23088SOL    HW281324   1.385   7.848   5.267 -0.3124  0.1518  0.0109
23089SOL     OW81325   7.673   2.862   3.533  0.8562  0.6146 -0.0528
23089SOL    HW181326   7.647   2.767   3.519  0.2756  0.7935 -0.2070
23089SOL    HW281327   7.671   2.884   3.631  0.2670  0.6685 -0.0735
23090SOL     OW81328   3.452   3.745   4.867 -0.0919 -0.1200  0.3612
23090SOL    HW181329   3.408   3.708   4.949 -2.2949 -1.1056 -1.2188
23090SOL    HW281330   3.412   3.834   4.846  1.0275  0.4930  0.7832
23091SOL     OW81331   0.467   9.821   3.127  0.4608 -0.0029 -0.1615
23091SOL    HW181332   0.499   9.813   3.033  0.3990  1.9046 -0.3695
23091SOL    HW281333   0.509   9.901   3.170 -1.9993  1.0683  0.3749
23092SOL     OW81334   8.358   6.880   8.617  0.1538 -0.1976  0.0717
23092SOL    HW181335   8.349   6.980   8.615 -0.8339 -0.2417  1.7609
23092SOL    HW281336   8.412   6.853   8.697  0.7462 -1.0002 -0.5898
23093SOL     OW81337   4.724   9.495   2.842 -0.1409 -0.7840 -0.2249
23093SOL    HW181338   4.635   9.527   2.811  0.5170  0.0543 -1.2476
23093SOL    HW281339   4.715   9.457   2.935 -1.6736 -1.3048 -0.5704
23094SOL     OW81340   9.508   7.785   9.091  0.4293 -0.0645 -0.1226
23094SOL    HW181341   9.478   7.879   9.078 -1.1454 -0.4679  0.5218
23094SOL    HW281342   9.608   7.782   9.096  0.4652  1.6080  0.1997
23095SOL     OW81343   2.077   2.034   8.687  0.1515 -0.1076 -0.0563
23095SOL    HW181344   2.171   2.061   8.704 -0.2128  0.8793  0.4070
23095SOL    HW281345   2.024   2.041   8.771 -0.2871 -0.8910 -0.2565
23096SOL     OW81346   6.963   3.824   8.282 -0.2349 -0.5297  0.2073
23096SOL    HW181347   7.054   3.789   8.260  0.5548  0.9116  1.0305
23096SOL    HW281348   6.952   3.915   8.241 -1.5865 -1.0155 -0.5004
23097SOL     OW81349   3.092   1.699   7.788  0.0327  0.2914 -0.1231
23097SOL    HW181350   3.174   1.691   7.732  0.9428 -0.4471  1.2959
23097SOL    HW281351   3.020   1.639   7.751  0.2710  0.6176 -1.1130
23098SOL     OW81352   6.543   0.532   2.408 -0.1684 -0.2264  0.6405
23098SOL    HW181353   6.483   0.587   2.351  0.8544 -1.3854 -1.5935
23098SOL    HW281354   6.491   0.496   2.486 -1.7606  0.7473  0.0487
23099SOL     OW81355   7.609   9.477   8.439  0.6438 -0.3247 -0.2283
23099SOL    HW181356   7.644   9.429   8.358 -0.2480  0.9794 -1.4023
23099SOL    HW281357   7.524   9.525   8.416  1.4847  1.8025  0.8940
23100SOL     OW81358   0.597   1.315   6.325  0.0623 -0.2941 -0.0095
23100SOL    HW181359   0.576   1.230   6.373  3.8566 -2.4012 -1.8739
23100SOL    HW281360   0.577   1.305   6.228  0.9897  0.7699 -0.3298
23101SOL     OW81361   7.849   8.842   1.575  0.7674  0.3239  0.1313
23101SOL    HW181362   7.822   8.746   1.585  2.0161  0.0258  0.7821
23101SOL    HW281363   7.783   8.901   1.621  1.2023 -0.3922  1.6946
23102SOL     OW81364   1.583   2.089   2.514  0.3331  0.1797  0.2195
23102SOL    HW181365   1.517   2.027   2.558 -2.1158  3.5997  1.5932
23102SOL    HW281366   1.670   2.084   2.563 -0.7877  0.1112  2.2890
23103SOL     OW81367   7.281   3.973   8.433  0.8585  0.6065 -0.0485
23103SOL    HW181368   7.256   3.880   8.457  1.0945  1.1102  2.2543
23103SOL    HW281369   7.371   3.995   8.472  1.8964  1.0416 -2.5555
23104SOL     OW81370   1.979   6.854   4.424 -0.1491  0.0530  0.0151
23104SOL    HW181371   1.892   6.809   4.446  0.0128 -0.0068  0.5267
23104SOL    HW281372   2.022   6.807   4.346 -1.2648  0.9585 -1.1771
23105SOL     OW81373   4.957   1.588   0.177  0.5994 -0.5399 -0.0347
23105SOL    HW181374   5.047   1.618   0.209 -0.0037  1.1349  0.1375
23105SOL    HW281375   4.966   1.500   0.130  2.2091 -0.7404  0.6054
23106SOL     OW81376   9.127   9.588   6.644 -0.2880 -0.1497 -0.4438
23106SOL    HW181377   9.089   9.652   6.577 -0.1328  0.0128 -0.3756
23106SOL    HW281378   9.098   9.495   6.621  1.3952 -0.3399 -1.8980
23107SOL     OW81379   6.547   2.462   1.176  0.3977 -0.0557  0.7422
23107SOL    HW181380   6.619   2.489   1.240 -0.1150  1.3093  0.7529
23107SOL    HW281381   6.503   2.543   1.138  0.2709 -0.8468 -0.8808
23108SOL     OW81382   3.858   6.277   9.718 -0.3156 -0.8975  0.5467
23108SOL    HW181383   3.815   6.365   9.740 -0.1099 -0.0859 -2.0310
23108SOL    HW281384   3.791   6.204   9.729 -2.1661  0.2351 -2.3559
23109SOL     OW81385   8.090   3.617   4.030 -0.1360  0.1925 -0.3020
23109SOL    HW181386   8.125   3.525   4.047 -2.5529 -0.7000  0.0283
23109SOL    HW281387   8.153   3.665   3.968 -0.1028 -2.5549 -2.5520
23110SOL     OW81388   9.817   0.523   2.462 -0.0902  0.9820 -0.3339
23110SOL    HW181389   9.827   0.511   2.363 -1.5940 -0.6552 -0.3342
23110SOL    HW281390   9.905   0.509   2.506 -0.1609 -2.4750 -1.1261
23111SOL     OW81391   9.800   0.769   3.949 -0.1371  0.0513 -0.7986
23111SOL    HW181392   9.869   0.699   3.966 -1.1794 -1.3252 -2.0035
23111SOL    HW281393   9.738   0.737   3.877 -1.6942  1.4706 -0.1238
23112SOL     OW81394   7.674   4.235   2.585 -0.1328  0.1536  0.0416
23112SOL    HW181395   7.667   4.250   2.684 -1.9252 -0.1282 -0.0345
23112SOL    HW281396   7.685   4.138   2.566  0.1679  0.2034 -0.0385
23113SOL     OW81397   4.556   5.915   8.967  0.1692 -0.4709  0.5187
23113SOL    HW181398   4.498   5.940   8.889  1.0839 -2.2151 -0.7520
23113SOL    HW281399   4.501   5.869   9.037 -0.7148  1.3662  1.0553
23114SOL     OW81400   1.972   8.902   4.333  0.5477  0.3674 -0.4818
23114SOL    HW181401   2.069   8.893   4.353  0.5823  0.2520 -0.6995
23114SOL    HW281402   1.960   8.954   4.248  0.5082 -1.7162 -1.8014
23115SOL     OW81403   2.656   3.670   5.549 -0.2713  0.3386 -0.1726
23115SOL    HW181404   2.708   3.616   5.482  0.9671 -0.4817  1.4276
23115SOL    HW281405   2.688   3.764   5.549  0.8508 -0.0381  0.4146
23116SOL     OW81406   9.358   6.697   4.009  0.2151  0.4414 -0.3519
23116SOL    HW181407   9.340   6.754   4.089 -1.4911  0.2752 -0.5852
23116SOL    HW281408   9.455   6.676   4.003  0.3919  0.6787  1.5278
23117SOL     OW81409   4.958   8.180   2.767  0.0340  0.6965  0.0992
23117SOL    HW181410   4.863   8.189   2.797  0.0130 -0.2204  0.3436
23117SOL    HW281411   4.961   8.180   2.667 -0.3545 -0.3526  0.0743
23118SOL     OW81412   7.789   1.495   3.042 -0.1372 -0.0746 -0.2872
23118SOL    HW181413   7.765   1.409   3.087 -1.5498  1.2155  1.5306
23118SOL    HW281414   7.870   1.534   3.085  0.5803 -0.5575 -1.1975
23119SOL     OW81415   8.919   7.032   5.296 -0.2299 -0.0499 -0.2726
23119SOL    HW181416   8.846   7.033   5.227  0.6015 -1.3011 -1.2045
23119SOL    HW281417   8.967   6.945   5.291  0.3047  0.1316  1.4351
23120SOL     OW81418   1.052   1.811   1.115 -0.1061 -0.4293  0.1155
23120SOL    HW181419   0.961   1.847   1.136  0.3451  0.5044  0.4931
23120SOL    HW281420   1.098   1.872   1.050  0.6018 -0.3884  0.6393
23121SOL     OW81421   8.556   7.786   8.057 -0.2898 -0.2099  0.1112
23121SOL    HW181422   8.626   7.771   7.987 -0.0234  1.8156 -0.0873
23121SOL    HW281423   8.482   7.720   8.045  0.5713 -0.9889 -0.9978
23122SOL     OW81424   7.817   5.885   1.408  0.0407  0.0554 -0.0508
23122SOL    HW181425   7.791   5.841   1.321  0.8420 -0.6188  0.0447
23122SOL    HW281426   7.734   5.914   1.456 -0.5000 -1.0882 -0.2641
23123SOL     OW81427   0.625   2.766   3.608 -0.2822 -0.2197 -0.2254
23123SOL    HW181428   0.682   2.698   3.653 -0.8595 -0.5482  0.0164
23123SOL    HW281429   0.535   2.769   3.653 -0.6260 -0.0630 -0.9165
23124SOL     OW81430   0.260   6.996   2.512 -0.2036 -0.0215 -0.6427
23124SOL    HW181431   0.322   6.928   2.472 -0.5573 -0.4535 -0.4625
23124SOL    HW281432   0.307   7.084   2.521  0.1160 -0.1223 -1.3006
23125SOL     OW81433   2.546   2.967   8.612  0.1716 -0.1478  0.1815
23125SOL    HW181434   2.565   2.902   8.538  1.3506  0.7454 -0.3036
23125SOL    HW281435   2.464   3.020   8.590  1.1781  0.9292 -1.0459
23126SOL     OW81436   8.806   3.835   5.851 -0.0757 -0.7169 -0.3145
23126SOL    HW181437   8.862   3.763   5.808  0.2274 -0.0227 -1.0924
23126SOL    HW281438   8.857   3.874   5.927 -0.4198 -1.6265  0.3867
23127SOL     OW81439   8.023   9.423   6.092 -0.0330  0.2453 -0.6508
23127SOL    HW181440   7.976   9.511   6.103 -0.8593 -0.2247 -0.3913
23127SOL    HW281441   8.111   9.438   6.046 -0.8079  1.0310 -1.9196
23128SOL     OW81442   4.005   7.864   2.268 -0.1032 -0.4053  0.2106
23128SOL    HW181443   4.085   7.809   2.243 -0.6203 -0.9231 -0.3074
23128SOL    HW281444   3.970   7.834   2.356 -0.2650 -0.7707  0.0201
23129SOL     OW81445   9.957   8.494   0.022 -0.3230 -0.8346 -0.5845
23129SOL    HW181446   9.964   8.594   0.025  0.0091 -0.8853  0.5327
23129SOL    HW281447  10.021   8.459  -0.046 -0.4591 -0.2970 -1.0057
23130SOL     OW81448   5.701   8.304   4.640 -0.0150 -0.0836 -0.2075
23130SOL    HW181449   5.664   8.240   4.707  0.3591 -1.3353 -1.1672
23130SOL    HW281450   5.798   8.282   4.623 -0.4376 -0.5965 -2.0739
23131SOL     OW81451   7.558   7.368   7.542 -0.3158  0.1344  0.0980
23131SOL    HW181452   7.609   7.401   7.622  1.9659 -0.5365 -1.0242
23131SOL    HW281453   7.514   7.446   7.497  0.0574  0.8036  0.8715
23132SOL     OW81454   1.711   1.914   8.595  0.0043  0.0968 -0.1157
23132SOL    HW181455   1.724   1.995   8.538  4.0267  0.1364  0.6928
23132SOL    HW281456   1.753   1.835   8.551 -0.0721 -0.6235  1.0743
23133SOL     OW81457   0.170   9.126   2.462 -0.0222 -0.0357  0.3226
23133SOL    HW181458   0.125   9.192   2.401 -0.0673 -1.2549 -0.9921
23133SOL    HW281459   0.255   9.095   2.419  1.1078  0.7940  1.9251
23134SOL     OW81460   5.752   1.721   5.137  0.0257  0.0367 -0.1672
23134SOL    HW181461   5.816   1.718   5.213 -0.5357  2.2910  0.4101
23134SOL    HW281462   5.658   1.719   5.172 -0.2544 -2.0565 -0.9526
23135SOL     OW81463   2.915   4.987   9.768 -0.5087  0.3124  1.1863
23135SOL    HW181464   2.932   5.064   9.706  1.2138 -0.4235  0.6912
23135SOL    HW281465   2.876   4.911   9.717 -0.8183  0.3419  1.3785
23136SOL     OW81466   1.937   5.148   0.245  0.0055  0.1570 -0.3595
23136SOL    HW181467   1.993   5.139   0.163  1.3085  2.0118  0.2907
23136SOL    HW281468   1.877   5.228   0.236  1.8669  1.8341  1.4159
23137SOL     OW81469   2.226   9.875   0.108  0.2735  0.0269 -0.6300
23137SOL    HW181470   2.277   9.813   0.048 -0.5606 -2.4492  1.1463
23137SOL    HW281471   2.131   9.880   0.079 -0.1771 -1.3318  0.5846
23138SOL     OW81472   2.300   9.657  10.027 -0.1884 -0.3880  0.1176
23138SOL    HW181473   2.228   9.592  10.050  0.6105 -1.4285 -0.2885
23138SOL    HW281474   2.375   9.610   9.982  0.3959  0.8248 -0.2109
23139SOL     OW81475   0.471   5.418   9.752  0.7605 -0.2112 -0.3182
23139SOL    HW181476   0.468   5.454   9.845  0.2788 -2.0853  0.4143
23139SOL    HW281477   0.403   5.464   9.695  0.2941  0.1672  0.5498
23140SOL     OW81478   9.086   1.270   0.065  0.3320  0.1013 -0.2477
23140SOL    HW181479   9.101   1.179   0.102 -0.4858 -0.2677 -0.8149
23140SOL    HW281480   9.168   1.302   0.020  0.2678 -0.8053 -1.0128
23141SOL     OW81481   3.423   7.600   5.729  0.5746  0.9314  0.3857
23141SOL    HW181482   3.501   7.644   5.774  0.9943  1.9861 -1.3255
23141SOL    HW281483   3.453   7.512   5.690  0.7414  0.9910  0.3762
23142SOL     OW81484   8.583   9.482   5.376  0.2437  0.0634  0.3524
23142SOL    HW181485   8.550   9.499   5.283  1.4127 -0.3470 -0.1417
23142SOL    HW281486   8.677   9.448   5.373 -0.0154 -0.8061  1.6365
23143SOL     OW81487   5.738   9.315   7.615 -0.6535  0.3535  0.0932
23143SOL    HW181488   5.687   9.401   7.626  0.0763  1.0315 -1.7009
23143SOL    HW281489   5.804   9.325   7.541 -0.8680 -1.9127 -0.4213
23144SOL     OW81490   6.926   2.171   2.294  0.4094  0.3126 -0.5493
23144SOL    HW181491   6.999   2.175   2.363  0.6847 -1.8228 -0.6795
23144SOL    HW281492   6.966   2.179   2.203  0.4425 -0.2698 -0.5922
23145SOL     OW81493   7.920   6.449   1.717 -0.6048  0.1660 -0.7734
23145SOL    HW181494   7.901   6.522   1.651 -0.0988  1.5085  0.5476
23145SOL    HW281495   8.018   6.429   1.718 -0.6003  0.2130 -0.3473
23146SOL     OW81496   5.041   6.164   8.492 -0.0761  0.1108  0.2507
23146SOL    HW181497   5.069   6.243   8.546  0.2299 -0.2905  0.6779
23146SOL    HW281498   5.084   6.082   8.528  2.9367  0.2795 -2.7217
23147SOL     OW81499   8.458   9.983   9.500  0.3951 -0.6222 -0.1816
23147SOL    HW181500   8.479  10.081   9.496 -0.0102 -0.4805  1.2070
23147SOL    HW281501   8.367   9.967   9.460 -0.3039 -0.2014  1.2279
23148SOL     OW81502   7.802   5.933   0.550  0.2769 -0.3952  0.9060
23148SOL    HW181503   7.852   5.869   0.608  1.3763 -1.4197 -1.1006
23148SOL    HW281504   7.866   5.983   0.492 -0.8894 -0.7831 -0.7865
23149SOL     OW81505   8.355   4.572   0.137  0.1847 -0.3259 -0.0088
23149SOL    HW181506   8.257   4.574   0.160  0.6985  1.3507  2.2027
23149SOL    HW281507   8.405   4.523   0.208  1.1400  0.0835 -0.3891
23150SOL     OW81508   1.540   2.326   2.381  0.7573  0.2421 -0.0396
23150SOL    HW181509   1.555   2.232   2.412  0.6184  0.7492  1.6518
23150SOL    HW281510   1.582   2.339   2.292  0.7915 -1.4214 -0.2878
23151SOL     OW81511   8.166   4.070   7.909 -0.1741 -0.2850  0.0311
23151SOL    HW181512   8.140   4.117   7.824 -1.0643 -1.0135 -0.1044
23151SOL    HW281513   8.240   4.120   7.953  0.6821 -0.1931 -1.4675
23152SOL     OW81514   4.279   7.253   3.771 -0.1075 -0.2926 -0.3894
23152SOL    HW181515   4.336   7.233   3.691 -0.8099  0.4128 -1.0707
23152SOL    HW281516   4.188   7.282   3.741 -0.6638 -0.9042  0.6853
23153SOL     OW81517   6.187   3.411   9.758  0.2688  0.0394  0.3409
23153SOL    HW181518   6.126   3.356   9.702 -0.5447  0.3263  0.9419
23153SOL    HW281519   6.243   3.470   9.699 -0.0425 -0.2067 -0.2032
23154SOL     OW81520   9.862   1.677   3.906 -0.7317  0.4397 -0.4598
23154SOL    HW181521   9.849   1.582   3.876 -1.5117  0.1293  0.8057
23154SOL    HW281522   9.945   1.714   3.864 -0.1887 -0.9299 -0.6467
23155SOL     OW81523   2.729   9.870   8.822 -0.1886  0.2383 -0.6759
23155SOL    HW181524   2.633   9.879   8.849 -0.9429  0.1154 -3.1649
23155SOL    HW281525   2.762   9.958   8.788  0.7687  0.4321  0.7635
23156SOL     OW81526   9.434   0.546   6.130  0.1047  0.4015  0.1726
23156SOL    HW181527   9.377   0.614   6.176  0.3827  0.1919  0.8276
23156SOL    HW281528   9.516   0.591   6.095 -0.8858  0.8868 -1.5890
23157SOL     OW81529   0.159   7.979   8.339 -0.3659 -0.6750  0.1221
23157SOL    HW181530   0.135   8.053   8.402 -2.6915 -0.5145 -0.8766
23157SOL    HW281531   0.176   7.895   8.391 -2.0948 -0.5045  1.0036
23158SOL     OW81532   6.416   9.047   3.377  0.3490 -0.1480 -0.2429
23158SOL    HW181533   6.501   9.062   3.327  0.5593  0.9210  0.4199
23158SOL    HW281534   6.414   9.105   3.458 -0.5677 -0.9117  0.2905
23159SOL     OW81535   4.555   4.790   7.696 -0.2438 -0.3965 -0.7860
23159SOL    HW181536   4.654   4.793   7.709 -0.4716  0.7892  0.7753
23159SOL    HW281537   4.534   4.802   7.598  1.1595 -1.3407 -1.2242
23160SOL     OW81538   9.554   1.057   1.625 -0.8646  0.2732  0.5162
23160SOL    HW181539   9.547   0.971   1.677  0.9426  0.1140  0.5377
23160SOL    HW281540   9.599   1.126   1.681 -0.5870  0.6592 -0.1797
23161SOL     OW81541   2.247   8.002   9.154 -0.1132  0.3829 -0.2924
23161SOL    HW181542   2.207   8.093   9.157 -1.3926 -0.1686  0.3701
23161SOL    HW281543   2.322   7.996   9.220 -1.2889  0.4158  1.0871
23162SOL     OW81544   0.697   4.036   0.359  0.4357  0.1988  0.4024
23162SOL    HW181545   0.626   3.969   0.340  2.8712 -2.7144  1.3045
23162SOL    HW281546   0.725   4.080   0.273 -0.5262 -0.5730 -0.3218
23163SOL     OW81547   4.763   7.812   4.884  0.3677 -0.5741  0.1921
23163SOL    HW181548   4.741   7.910   4.877  1.4744 -0.2028  1.5058
23163SOL    HW281549   4.854   7.796   4.845  0.4193 -0.9719  0.4689
23164SOL     OW81550   2.266   4.002   0.887  0.0134 -0.6212  0.2946
23164SOL    HW181551   2.184   3.949   0.908 -0.7063  0.7778  1.1438
23164SOL    HW281552   2.254   4.049   0.800 -0.2369 -0.1737  0.5628
23165SOL     OW81553   4.064   5.958   3.313 -0.4242 -0.1994 -0.3723
23165SOL    HW181554   3.977   5.974   3.357 -0.2041  4.2879 -1.3762
23165SOL    HW281555   4.139   5.978   3.376 -0.1357  0.5908 -0.9472
23166SOL     OW81556   9.877   3.140   0.774  0.0792  0.2269 -0.3137
23166SOL    HW181557   9.902   3.117   0.868 -1.2196  0.0455 -0.0079
23166SOL    HW281558   9.834   3.060   0.731  0.7880  0.2670 -1.1034
23167SOL     OW81559   1.375   1.306   4.226 -0.3180  0.4365 -0.2799
23167SOL    HW181560   1.387   1.406   4.221 -0.3840  0.3714 -1.9817
23167SOL    HW281561   1.369   1.269   4.134 -0.8993 -1.0865  0.3623
23168SOL     OW81562   3.523   1.557   5.360  0.2225  0.0648  0.2997
23168SOL    HW181563   3.449   1.616   5.392  0.9538  1.7008 -0.9561
23168SOL    HW281564   3.581   1.608   5.297 -0.0891 -2.4798 -2.1743
23169SOL     OW81565   1.663   9.418   1.203 -0.3030  0.0392  0.2776
23169SOL    HW181566   1.729   9.394   1.132 -0.6916  1.4192 -0.5454
23169SOL    HW281567   1.666   9.516   1.220 -1.0482 -0.1103  1.3405
23170SOL     OW81568   2.807   5.932   7.408  0.2955  0.1157 -0.5485
23170SOL    HW181569   2.738   5.871   7.367  0.9912 -1.0558  0.0015
23170SOL    HW281570   2.895   5.886   7.409  1.0187  1.4749 -0.8970
23171SOL     OW81571   8.574   9.421   5.768 -0.3092  0.5277  1.3263
23171SOL    HW181572   8.493   9.366   5.748  0.1822  0.3683 -0.3172
23171SOL    HW281573   8.657   9.368   5.749  0.1678  1.7930 -0.2007
23172SOL     OW81574   2.907   8.365   7.205 -0.5202 -0.3005  0.1595
23172SOL    HW181575   2.984   8.326   7.155 -2.8145 -0.2436 -3.6502
23172SOL    HW281576   2.842   8.293   7.227  0.5257 -0.3498  3.3748
23173SOL     OW81577   2.124   0.598   3.056 -0.5793  0.4566  0.2371
23173SOL    HW181578   2.180   0.585   2.975 -1.2110  0.1422 -0.1500
23173SOL    HW281579   2.075   0.514   3.077  0.9900 -0.0612  2.0213
23174SOL     OW81580   6.504   5.421   7.790  0.3135 -0.3088 -0.1750
23174SOL    HW181581   6.432   5.412   7.722  0.6419  1.5503 -0.7843
23174SOL    HW281582   6.568   5.345   7.781 -0.2609 -0.6721 -1.2038
23175SOL     OW81583   4.101   3.841   9.708  0.7654  1.2154 -0.1594
23175SOL    HW181584   4.011   3.884   9.709 -0.0529 -0.3808  3.2049
23175SOL    HW281585   4.164   3.893   9.765  0.6867 -0.1364  1.1949
23176SOL     OW81586   3.588   8.276   7.842 -0.1565  0.2612  0.2305
23176SOL    HW181587   3.611   8.241   7.751  1.8567  1.1689  0.3445
23176SOL    HW281588   3.644   8.357   7.861 -1.4660  0.8175  1.7731
23177SOL     OW81589   4.026   8.580   1.009  0.2412  0.2371 -0.4028
23177SOL    HW181590   4.023   8.669   1.054  0.1623 -0.3611  0.7936
23177SOL    HW281591   4.036   8.593   0.910 -0.0351  1.5726 -0.2668
23178SOL     OW81592   1.481   7.306   0.576 -0.4057 -0.4541 -0.2761
23178SOL    HW181593   1.487   7.276   0.481  0.6962 -0.2289 -0.2791
23178SOL    HW281594   1.441   7.232   0.631  1.9828 -1.8401 -0.3361
23179SOL     OW81595   3.979   7.646   0.340  0.0276 -0.3044  0.4301
23179SOL    HW181596   3.925   7.600   0.411  1.3778 -2.1997  0.2678
23179SOL    HW281597   3.958   7.606   0.251  0.3824  0.1624  0.1350
23180SOL     OW81598   3.412   0.931   8.543  0.4073  0.4595  0.2039
23180SOL    HW181599   3.322   0.911   8.505  1.1686  1.2186 -2.0738
23180SOL    HW281600   3.417   1.029   8.563  0.5036  0.2988  0.9805
23181SOL     OW81601   0.792   6.838   6.648  0.2287  0.6187 -0.0054
23181SOL    HW181602   0.719   6.907   6.648  0.1100  0.4943 -0.8679
23181SOL    HW281603   0.753   6.748   6.665  0.2944  0.6687  0.4141
23182SOL     OW81604   1.551   5.890   2.069 -0.0070  0.0205  0.2739
23182SOL    HW181605   1.609   5.886   2.151  1.0113  3.0635 -0.2046
23182SOL    HW281606   1.456   5.902   2.096 -0.0052 -1.6653  1.0453
23183SOL     OW81607   0.042   2.667   3.437  0.4268 -0.3024 -0.2687
23183SOL    HW181608   0.126   2.672   3.383  0.3447  2.2989 -0.1934
23183SOL    HW281609  -0.037   2.654   3.376  0.5699  0.3014 -0.5789
23184SOL     OW81610   2.885   9.401   9.948 -1.1419  0.1090 -0.3574
23184SOL    HW181611   2.967   9.440   9.905  0.9786  0.5406  3.7968
23184SOL    HW281612   2.868   9.310   9.911  0.3607  0.5881 -2.3215
23185SOL     OW81613   1.939   5.109   3.330 -0.2047  0.1303 -0.2913
23185SOL    HW181614   1.927   5.012   3.310  2.2428 -0.2469 -0.0655
23185SOL    HW281615   2.021   5.122   3.385  0.7330  2.5712 -2.1913
23186SOL     OW81616   3.184   1.452   4.109  0.0393  0.3367 -0.3550
23186SOL    HW181617   3.266   1.395   4.111  0.7099  1.2803 -0.5582
23186SOL    HW281618   3.152   1.467   4.203 -0.2784 -0.5516 -0.3134
23187SOL     OW81619   7.052   4.464   7.888  0.3041  0.3420 -0.1253
23187SOL    HW181620   7.035   4.560   7.910 -1.7349  0.2662 -1.2064
23187SOL    HW281621   7.014   4.406   7.960  0.2791  0.3011 -0.1722
23188SOL     OW81622   4.455   1.627   7.467  0.1253 -0.2008  0.0202
23188SOL    HW181623   4.376   1.654   7.522 -0.2732  2.3072 -1.6980
23188SOL    HW281624   4.425   1.565   7.394 -0.2306  0.5500 -0.4778
23189SOL     OW81625   9.227   1.299   7.760  0.0563 -0.6484 -0.5739
23189SOL    HW181626   9.130   1.289   7.782  0.1277  0.3987  0.2646
23189SOL    HW281627   9.238   1.320   7.663 -0.5966 -0.2209 -0.5529
23190SOL     OW81628   6.363   2.046   9.369 -0.1813  0.1193  1.0282
23190SOL    HW181629   6.341   2.142   9.387  0.8888  0.1944  2.0288
23190SOL    HW281630   6.336   1.991   9.448  1.3316 -0.0594  1.4434
23191SOL     OW81631   1.908   6.863   2.741 -0.1950  0.3347 -0.3503
23191SOL    HW181632   1.816   6.852   2.780 -0.2653  0.2780 -0.5302
23191SOL    HW281633   1.976   6.831   2.807 -0.2914  0.5625 -0.1378
23192SOL     OW81634   7.831   0.376   2.760 -0.0290 -0.4679 -0.0056
23192SOL    HW181635   7.748   0.338   2.719  0.5361 -0.8639 -0.7895
23192SOL    HW281636   7.908   0.363   2.698  1.2020 -2.6245  1.9187
23193SOL     OW81637   6.351   8.880   6.009 -0.7205 -0.2734 -0.2747
23193SOL    HW181638   6.450   8.868   6.016 -1.0143 -3.0403 -0.2664
23193SOL    HW281639   6.318   8.929   6.090  0.3859 -1.3249  0.8428
23194SOL     OW81640   8.729   7.227   9.925 -0.6843  0.2213 -0.0878
23194SOL    HW181641   8.788   7.205   9.848 -0.1411  0.8068  0.1564
23194SOL    HW281642   8.755   7.316   9.963 -0.0438 -0.6628  1.6239
23195SOL     OW81643   2.075   2.381   0.219  0.0209  0.0194 -0.2436
23195SOL    HW181644   2.155   2.365   0.161 -0.5776 -0.4726 -0.9370
23195SOL    HW281645   1.994   2.395   0.162 -0.4710  0.0949  0.4590
23196SOL     OW81646   2.649   9.110   7.501  0.3240 -0.2820  0.2106
23196SOL    HW181647   2.709   9.106   7.580  1.3852  2.4601 -0.3798
23196SOL    HW281648   2.645   9.021   7.456  2.6931 -0.8974  1.1825
23197SOL     OW81649   7.397   1.407   4.350 -0.0893 -0.1798  0.0931
23197SOL    HW181650   7.474   1.456   4.309  0.9424 -1.0076  0.9997
23197SOL    HW281651   7.312   1.456   4.330  0.6242  0.5419 -1.2409
23198SOL     OW81652   6.003   0.381   1.228 -0.2498 -0.1959  0.1547
23198SOL    HW181653   6.005   0.441   1.308 -0.0199  0.8677 -0.6347
23198SOL    HW281654   5.932   0.311   1.240  0.2065 -0.4368  1.5529
23199SOL     OW81655   4.704   2.806   7.400 -0.2323 -0.5639 -0.1000
23199SOL    HW181656   4.711   2.707   7.382 -2.3538 -0.4470 -1.6684
23199SOL    HW281657   4.614   2.827   7.438 -0.7631  1.1150 -2.2166
23200SOL     OW81658   1.821   7.316   1.226 -0.5950  0.1271 -0.3858
23200SOL    HW181659   1.756   7.278   1.160 -0.8748 -0.8362  0.4176
23200SOL    HW281660   1.900   7.353   1.178 -0.6655 -0.8171 -1.2548
23201SOL     OW81661   0.457   4.655   8.617 -0.1290 -0.0213  0.4881
23201SOL    HW181662   0.500   4.690   8.533 -1.5150 -0.8383 -0.5824
23201SOL    HW281663   0.521   4.594   8.664  0.8658  0.8856  0.3323
23202SOL     OW81664   1.953   6.522   5.867  0.0934 -0.0186 -0.1683
23202SOL    HW181665   2.043   6.480   5.875  0.2044  0.2437 -0.0446
23202SOL    HW281666   1.959   6.619   5.891 -0.2167  0.0046 -0.1833
23203SOL     OW81667   9.980   3.297   0.208 -0.1489  0.6724 -0.3193
23203SOL    HW181668  10.025   3.225   0.261  0.0347 -0.0741 -1.4549
23203SOL    HW281669  10.029   3.384   0.221 -0.7288  0.7317  1.5281
23204SOL     OW81670   9.881   6.511   3.143 -0.3333 -0.0946 -0.4836
23204SOL    HW181671   9.803   6.549   3.193 -0.6238  0.3885 -1.3033
23204SOL    HW281672   9.855   6.424   3.101 -0.3967  0.0250 -0.6871
23205SOL     OW81673   1.983   6.350   6.153 -0.2566 -0.3344 -0.1245
23205SOL    HW181674   2.002   6.317   6.061  0.8064 -1.3993  0.4631
23205SOL    HW281675   2.002   6.448   6.158  1.2757 -0.5888 -0.6249
23206SOL     OW81676   0.548   5.588   1.304 -0.1525 -0.0789  0.4240
23206SOL    HW181677   0.503   5.558   1.388 -0.4836  1.6052  0.8617
23206SOL    HW281678   0.616   5.520   1.277 -1.2159 -1.4478  1.1165
23207SOL     OW81679   2.915   1.622   8.784  0.0369 -0.0786  0.2189
23207SOL    HW181680   2.945   1.641   8.691 -0.2601  0.3242  0.2026
23207SOL    HW281681   2.828   1.669   8.802 -0.4228 -0.9757  0.3682
23208SOL     OW81682   9.018   5.798   8.870 -0.2591 -0.0933  0.1151
23208SOL    HW181683   8.950   5.844   8.814  0.2045 -1.1528 -1.3267
23208SOL    HW281684   8.973   5.745   8.942 -0.9589 -0.7479 -0.7983
23209SOL     OW81685   3.659   8.083   8.053 -0.1114 -0.0100 -0.0921
23209SOL    HW181686   3.746   8.071   8.006 -0.6992 -0.0267 -1.2034
23209SOL    HW281687   3.621   8.174   8.031 -0.6791 -0.2544 -0.1513
23210SOL     OW81688   3.166   4.682   1.443 -0.1189  0.1314  0.4879
23210SOL    HW181689   3.121   4.612   1.387  0.4446 -1.3411  1.8497
23210SOL    HW281690   3.206   4.752   1.383 -0.8644 -0.5841 -0.8730
23211SOL     OW81691   4.334   7.614   3.544 -0.1491 -0.6492 -0.5713
23211SOL    HW181692   4.390   7.541   3.505 -1.9235 -1.0537 -2.4383
23211SOL    HW281693   4.335   7.607   3.644  1.7013 -1.6958 -0.6321
23212SOL     OW81694   4.644   2.360   5.648  0.0947  0.5634 -0.7776
23212SOL    HW181695   4.635   2.451   5.609 -0.8010  0.7091 -0.2457
23212SOL    HW281696   4.612   2.361   5.743  2.8728  0.3646  0.1946
23213SOL     OW81697   6.515   4.899   1.132 -0.0784  0.5062 -0.3897
23213SOL    HW181698   6.428   4.922   1.089 -0.0922 -2.1436 -1.8402
23213SOL    HW281699   6.581   4.972   1.114 -1.5179  1.7829 -0.6164
23214SOL     OW81700   7.907   9.586   4.971  0.5695  0.4640 -0.3029
23214SOL    HW181701   7.841   9.515   4.998  1.4918 -0.9405 -1.7277
23214SOL    HW281702   7.941   9.632   5.054 -1.3634  0.4746  0.5209
23215SOL     OW81703   6.039   0.183   1.847 -0.0090 -0.4210 -0.2888
23215SOL    HW181704   6.106   0.241   1.892  1.7102 -2.9440  0.5249
23215SOL    HW281705   6.074   0.089   1.842 -3.5038 -1.8521  0.2685
23216SOL     OW81706   5.785   0.086   5.653  0.7317 -0.1921 -0.5036
23216SOL    HW181707   5.732   0.147   5.595  0.0125 -0.8503 -0.5481
23216SOL    HW281708   5.827   0.139   5.728 -0.5618  0.2253 -0.0632
23217SOL     OW81709   5.974   4.802   8.052  0.3569  0.0575  0.1349
23217SOL    HW181710   5.952   4.898   8.036  2.6592  0.3040 -1.8666
23217SOL    HW281711   5.907   4.744   8.005  0.3085  0.7017 -0.5998
23218SOL     OW81712   0.909   0.714   1.642  0.4536  0.3145  0.0266
23218SOL    HW181713   0.860   0.662   1.572 -1.4309 -0.3281  1.8005
23218SOL    HW281714   0.846   0.740   1.715  2.4177  0.9089  1.5498
23219SOL     OW81715   9.830   2.590   9.206 -0.0777  0.0310 -0.5580
23219SOL    HW181716   9.893   2.512   9.203  0.3534  0.2366  1.7926
23219SOL    HW281717   9.878   2.673   9.179  0.4238  0.0359  0.3285
23220SOL     OW81718   7.574   4.784   2.101 -0.2067  0.2671  0.0936
23220SOL    HW181719   7.605   4.770   2.194 -0.5388 -0.3126  0.1212
23220SOL    HW281720   7.534   4.875   2.092  2.2373  1.3587 -0.1584
23221SOL     OW81721   2.482   5.196   9.992 -0.3678 -0.7190 -0.5361
23221SOL    HW181722   2.458   5.107  10.031 -0.4068 -0.3724  0.2336
23221SOL    HW281723   2.469   5.194   9.892  1.4356 -2.1671 -0.7718
23222SOL     OW81724   2.567   3.183   1.573  0.2663 -0.5801  0.1433
23222SOL    HW181725   2.634   3.219   1.637  0.2024  0.5217 -0.3883
23222SOL    HW281726   2.538   3.256   1.510 -2.0635 -0.7807  0.9185
23223SOL     OW81727   7.087   3.202   9.929  0.2576 -0.3693 -0.1092
23223SOL    HW181728   7.029   3.189  10.010  0.2686  0.5672  0.0602
23223SOL    HW281729   7.147   3.280   9.944  0.1345 -0.0789 -1.0945
23224SOL     OW81730   8.482   5.679   8.948 -0.2938  0.0007  0.4809
23224SOL    HW181731   8.449   5.619   8.875  2.1716  2.0950 -2.4876
23224SOL    HW281732   8.537   5.626   9.012 -0.5538 -1.4653 -0.4801
23225SOL     OW81733   1.589   6.587   7.291  0.2386 -0.4141  0.2513
23225SOL    HW181734   1.611   6.506   7.238  1.1609  0.0144 -0.0365
23225SOL    HW281735   1.626   6.578   7.384  0.0662 -0.4505  0.3177
23226SOL     OW81736   9.338   1.948   3.537  0.0747  0.0971 -0.6194
23226SOL    HW181737   9.375   1.880   3.473 -0.4805  0.1202 -0.9657
23226SOL    HW281738   9.248   1.919   3.568 -1.2933  1.9397 -2.7685
23227SOL     OW81739   3.472   3.090   1.213 -0.6231  0.8157  0.1557
23227SOL    HW181740   3.517   3.004   1.235 -1.2741  0.0791 -1.3328
23227SOL    HW281741   3.373   3.075   1.203 -0.5610  1.4217 -1.5888
23228SOL     OW81742   9.662   4.624   1.785 -0.1286  0.4773 -0.2969
23228SOL    HW181743   9.681   4.721   1.800  1.0650  0.4820 -1.7241
23228SOL    HW281744   9.749   4.575   1.771 -0.7113 -0.8173  0.5679
23229SOL     OW81745   0.949   3.843   4.016 -0.3162 -0.2615 -0.5021
23229SOL    HW181746   0.889   3.903   4.070  1.4456  1.5604 -0.5304
23229SOL    HW281747   1.036   3.831   4.064  0.1017 -1.1805 -1.4695
23230SOL     OW81748   7.172   3.487   0.743 -1.1235  0.3889 -0.4429
23230SOL    HW181749   7.256   3.447   0.779 -2.4956 -2.7005 -0.5300
23230SOL    HW281750   7.167   3.584   0.769  2.0800  0.4289  0.1494
23231SOL     OW81751   3.956   4.243   7.148  0.1178  0.4452 -0.3975
23231SOL    HW181752   3.891   4.244   7.224  1.5480 -1.5016  0.9000
23231SOL    HW281753   3.925   4.177   7.079  0.8139 -0.6782  0.3438
23232SOL     OW81754   2.774   2.578   1.005 -0.2933  0.0606 -0.7804
23232SOL    HW181755   2.828   2.583   1.089  1.3642 -1.1914 -1.7362
23232SOL    HW281756   2.770   2.482   0.974 -2.7182  0.1858 -0.9607
23233SOL     OW81757   4.303   7.003   1.470  0.0187 -0.4063 -0.7104
23233SOL    HW181758   4.244   6.966   1.398 -0.0175 -0.9459 -0.4110
23233SOL    HW281759   4.266   7.090   1.503  0.0812 -0.1182 -1.3976
23234SOL     OW81760   9.982   4.529   0.583  0.0227 -0.1871  0.0768
23234SOL    HW181761   9.966   4.584   0.665  0.3660 -1.0070  0.6873
23234SOL    HW281762   9.926   4.566   0.508 -0.4957  0.3968  0.7382
23235SOL     OW81763   9.560   2.480   9.681  0.0523 -0.5106 -0.0382
23235SOL    HW181764   9.617   2.495   9.762  0.7752  1.5124 -0.8825
23235SOL    HW281765   9.619   2.463   9.602 -0.5933 -0.6658 -0.4922
23236SOL     OW81766   8.344   7.867   7.775 -0.4161 -0.1669 -0.1631
23236SOL    HW181767   8.282   7.945   7.785 -0.2461 -0.2055  1.2494
23236SOL    HW281768   8.345   7.813   7.859  1.4775 -0.2125 -0.1828
23237SOL     OW81769   4.873   8.872   5.432 -0.2988 -0.1812 -0.4811
23237SOL    HW181770   4.830   8.784   5.451  0.6297  0.0056  2.9246
23237SOL    HW281771   4.968   8.871   5.466 -0.1664  1.9909 -0.7107
23238SOL     OW81772   7.217   4.001   1.678 -0.4637 -0.0873  0.0659
23238SOL    HW181773   7.308   4.041   1.666 -1.1810  1.4894 -0.2819
23238SOL    HW281774   7.198   3.937   1.604 -0.3401  0.9308 -0.8553
23239SOL     OW81775   3.963   3.665   4.457  0.0312  0.0636 -0.7343
23239SOL    HW181776   3.973   3.606   4.537 -3.5369 -1.0191 -0.9694
23239SOL    HW281777   4.013   3.627   4.380 -0.2289 -1.3452 -0.2128
23240SOL     OW81778   3.230   7.110   6.323  0.2342  0.4123 -0.2285
23240SOL    HW181779   3.190   7.166   6.251 -0.1364  1.6089  0.8953
23240SOL    HW281780   3.201   7.015   6.310 -0.3401  0.7254 -1.2945
23241SOL     OW81781   1.906   5.912   7.938  0.5757  0.0622 -0.0544
23241SOL    HW181782   1.964   5.987   7.969 -0.0494  0.8710 -0.8060
23241SOL    HW281783   1.877   5.928   7.844  1.5032 -1.7834 -0.6877
23242SOL     OW81784   8.293   5.972   3.717  0.0809 -0.0904 -0.2589
23242SOL    HW181785   8.380   6.018   3.735 -0.5280  0.4345  1.4848
23242SOL    HW281786   8.244   5.960   3.803 -0.4291 -2.7148 -0.8744
23243SOL     OW81787   5.618   4.927   0.945 -0.4827 -0.3729  0.0588
23243SOL    HW181788   5.667   4.956   1.027  2.5908  0.7859 -2.0899
23243SOL    HW281789   5.621   5.000   0.877 -2.1099 -1.6999 -1.4747
23244SOL     OW81790   9.415   6.029   7.660 -0.4232 -0.3325 -0.2664
23244SOL    HW181791   9.447   6.043   7.566 -1.2871  1.1240 -0.3548
23244SOL    HW281792   9.492   5.998   7.717  0.7710  1.3803 -0.8716
23245SOL     OW81793   9.200   7.449   5.936 -0.2265 -0.0950 -0.9808
23245SOL    HW181794   9.246   7.536   5.950  2.5070 -1.8161  1.4276
23245SOL    HW281795   9.241   7.402   5.857  1.3110 -1.0436  0.3515
23246SOL     OW81796   1.677   1.487   4.364 -0.2325 -0.6786 -0.3268
23246SOL    HW181797   1.584   1.522   4.358 -0.2539 -0.8761 -1.2004
23246SOL    HW281798   1.728   1.539   4.433 -0.6467  0.1979 -0.6826
23247SOL     OW81799   0.222   1.953   8.571 -0.5530 -0.5863  0.4528
23247SOL    HW181800   0.138   1.983   8.525 -1.0039  1.2603  2.3656
23247SOL    HW281801   0.209   1.958   8.670  1.4563 -1.3586  0.7836
23248SOL     OW81802   0.601   6.453   4.587 -0.1080  0.4037  0.1179
23248SOL    HW181803   0.527   6.388   4.604 -0.8028  1.5344  1.5604
23248SOL    HW281804   0.688   6.404   4.583 -0.8159 -0.8236 -0.6529
23249SOL     OW81805   8.724   7.513   5.281 -0.6404  0.0104 -0.1068
23249SOL    HW181806   8.764   7.589   5.230  0.9582 -0.4693  0.4260
23249SOL    HW281807   8.779   7.495   5.363 -1.1417 -1.5877 -0.1160
23250SOL     OW81808   9.164   8.637   9.363 -0.3282 -0.3247  0.1520
23250SOL    HW181809   9.229   8.595   9.299 -2.2456 -0.7959 -1.5197
23250SOL    HW281810   9.162   8.584   9.448  0.3123 -1.2000 -0.3723
23251SOL     OW81811   6.246   3.711   0.782 -0.1732  0.0012 -0.2954
23251SOL    HW181812   6.260   3.760   0.867  2.5664 -0.1912 -0.5638
23251SOL    HW281813   6.149   3.711   0.758 -0.7824  1.3268  2.0297
23252SOL     OW81814   1.756   8.878   7.833 -0.2699  0.1251 -0.5946
23252SOL    HW181815   1.746   8.932   7.916 -2.4019 -1.6157  0.3280
23252SOL    HW281816   1.792   8.936   7.760 -0.8598  2.3441  0.8218
23253SOL     OW81817   2.550   6.635   2.067 -0.2344  0.2090 -0.3547
23253SOL    HW181818   2.520   6.702   2.135  1.7129 -1.0556  1.8205
23253SOL    HW281819   2.492   6.554   2.072 -2.0925  1.3154 -2.4551
23254SOL     OW81820   3.744   6.977   6.425  0.4717 -0.0589 -0.1706
23254SOL    HW181821   3.689   6.902   6.389  0.1280  1.2040 -2.3791
23254SOL    HW281822   3.689   7.061   6.426  1.5411  0.6503  0.0568
23255SOL     OW81823   2.851   9.560   8.583 -0.4295 -0.4663  0.2189
23255SOL    HW181824   2.901   9.627   8.528 -0.8679 -1.0459 -0.9046
23255SOL    HW281825   2.861   9.582   8.680  1.0460  0.0827 -0.0510
23256SOL     OW81826   7.837   1.520   9.328  0.2782  0.4727  0.5648
23256SOL    HW181827   7.827   1.612   9.291  0.3816  0.4212  0.4106
23256SOL    HW281828   7.860   1.525   9.425 -0.6879  0.6063  0.7987
23257SOL     OW81829   2.380   4.798   7.859 -0.5561 -0.0298 -0.4283
23257SOL    HW181830   2.355   4.887   7.821  0.7676 -0.2312 -1.8172
23257SOL    HW281831   2.409   4.810   7.954 -0.7515  0.9539 -0.4825
23258SOL     OW81832   0.656   6.179   3.771  0.2654  0.1161 -0.0429
23258SOL    HW181833   0.572   6.125   3.775 -0.0021  0.5653  0.4113
23258SOL    HW281834   0.709   6.165   3.855  0.0757  0.7501  0.1831
23259SOL     OW81835   8.826   1.159   0.089 -0.0027  0.4675  0.6843
23259SOL    HW181836   8.907   1.206   0.055 -2.0033  3.8430  0.3836
23259SOL    HW281837   8.808   1.187   0.183 -0.0404 -1.3641  1.2450
23260SOL     OW81838   7.912   4.043   4.257  0.7070 -0.1565 -0.3512
23260SOL    HW181839   7.843   4.071   4.190  1.2441  0.6066 -0.5959
23260SOL    HW281840   7.994   4.013   4.210  1.7386  2.0633 -0.0352
23261SOL     OW81841   6.546   4.961   7.955 -0.1509  0.6683  0.3701
23261SOL    HW181842   6.460   5.012   7.954 -0.8745 -0.5320 -0.8307
23261SOL    HW281843   6.561   4.921   7.864  1.9231  1.2752  0.4221
23262SOL     OW81844   4.929   3.514   1.718  0.0350 -0.5492 -0.0522
23262SOL    HW181845   4.841   3.515   1.671  0.6352 -1.6704 -1.2578
23262SOL    HW281846   4.927   3.446   1.791  0.1100 -1.0610 -0.5220
23263SOL     OW81847   3.843   1.725   7.118 -0.3897 -0.3496 -0.4335
23263SOL    HW181848   3.934   1.727   7.077  0.0414  1.3467  0.5941
23263SOL    HW281849   3.787   1.798   7.080 -0.0236  1.1713  1.8515
23264SOL     OW81850   0.596   0.398   5.719 -0.4015  0.1950  0.3930
23264SOL    HW181851   0.501   0.370   5.733 -0.6767  0.1706 -1.3797
23264SOL    HW281852   0.652   0.318   5.700 -0.7757  0.5798 -2.4678
23265SOL     OW81853   8.251   9.699   3.681  0.0869  0.1578  0.3930
23265SOL    HW181854   8.307   9.673   3.602  0.2938  0.1531  0.5421
23265SOL    HW281855   8.185   9.769   3.653 -1.0373 -1.1235 -0.2088
23266SOL     OW81856   4.566   4.475   8.571  0.4431 -0.6728 -0.1877
23266SOL    HW181857   4.631   4.480   8.647  1.9194 -0.7336 -1.4048
23266SOL    HW281858   4.474   4.463   8.606  0.9422  0.6312  1.6457
23267SOL     OW81859   7.444   5.539   0.970 -0.6232  0.4329  0.4297
23267SOL    HW181860   7.463   5.600   1.048  2.0195  0.3004 -0.0732
23267SOL    HW281861   7.426   5.447   1.004  0.3817  0.4050  0.9033
23268SOL     OW81862   6.497   2.459   5.275 -0.0600 -0.1349 -0.6660
23268SOL    HW181863   6.484   2.535   5.211  3.0330  0.9637 -0.0411
23268SOL    HW281864   6.550   2.387   5.230 -0.1749 -0.5246 -0.1805
23269SOL     OW81865   2.096   8.159   7.470  0.3104 -0.3227  0.5441
23269SOL    HW181866   1.998   8.177   7.470 -0.1833 -2.7995  2.5582
23269SOL    HW281867   2.126   8.137   7.377 -1.0769  0.1514 -0.0328
23270SOL     OW81868   2.795   5.489   4.475 -0.3218 -0.1125  0.0074
23270SOL    HW181869   2.706   5.510   4.435  0.2495 -0.5722 -1.5286
23270SOL    HW281870   2.867   5.532   4.421  0.5517 -1.9321 -0.3262
23271SOL     OW81871   8.108   8.432   8.551 -0.3357 -0.0355  0.1212
23271SOL    HW181872   8.044   8.507   8.563 -0.2298  0.3107 -1.4409
23271SOL    HW281873   8.201   8.468   8.544 -0.0059 -0.4966  1.8176
23272SOL     OW81874   7.800   9.002   2.214 -0.6122  0.4933 -0.2351
23272SOL    HW181875   7.725   8.968   2.270  0.6814 -1.3508  0.4371
23272SOL    HW281876   7.880   9.020   2.271  0.2145  0.1450 -1.2469
23273SOL     OW81877   7.833   5.957   8.774 -0.1248 -0.1405  0.4217
23273SOL    HW181878   7.903   6.018   8.810  0.2084 -0.9806  1.2152
23273SOL    HW281879   7.858   5.927   8.682 -0.2326  0.8189  0.0773
23274SOL     OW81880   3.224   0.012   3.847 -0.2627 -0.2201 -0.3508
23274SOL    HW181881   3.162  -0.033   3.912 -0.4420  0.6102  0.0561
23274SOL    HW281882   3.170   0.058   3.777 -0.1734  1.9305  0.9498
23275SOL     OW81883   4.206   1.938   6.356 -0.2345  0.0773 -0.1096
23275SOL    HW181884   4.173   1.984   6.438 -1.3497 -0.8109 -0.0529
23275SOL    HW281885   4.222   1.841   6.376 -0.2844 -0.0929 -0.8668
23276SOL     OW81886   7.873   1.457   5.837  0.0372  0.1890 -0.1900
23276SOL    HW181887   7.817   1.448   5.920  1.0943  0.1390  0.5339
23276SOL    HW281888   7.963   1.416   5.853  0.5517  0.9461 -1.0736
23277SOL     OW81889   3.147   7.665   4.087  0.0746 -0.0496 -0.1826
23277SOL    HW181890   3.050   7.680   4.108 -0.4551  0.1486 -2.6014
23277SOL    HW281891   3.179   7.738   4.026  1.0828 -1.4771 -1.3860
23278SOL     OW81892   8.715   9.087   8.074  0.4183  0.6825 -0.2369
23278SOL    HW181893   8.631   9.044   8.043  0.4157  0.9076 -0.5362
23278SOL    HW281894   8.716   9.090   8.174  0.2614  0.3005 -0.2240
23279SOL     OW81895   7.800   6.955   8.272  0.5545  0.4826 -0.1295
23279SOL    HW181896   7.707   6.935   8.303  0.8767  0.2166  0.6763
23279SOL    HW281897   7.799   7.037   8.215 -0.1855  0.4245 -0.2054
23280SOL     OW81898   4.847   0.697   5.326 -0.0853 -0.2864 -0.5333
23280SOL    HW181899   4.780   0.768   5.306  1.0194  0.4083 -1.8677
23280SOL    HW281900   4.902   0.679   5.244  0.1885 -2.1024  0.0269
23281SOL     OW81901   8.136   9.135   6.886 -0.4694  0.4364  0.2501
23281SOL    HW181902   8.114   9.224   6.925 -0.7979  1.5795 -2.4583
23281SOL    HW281903   8.235   9.128   6.872 -0.3796  0.1235  1.0127
23282SOL     OW81904   3.299   1.903   7.881 -0.6917 -0.2395 -0.0414
23282SOL    HW181905   3.225   1.838   7.862 -0.2422 -0.7662  0.0061
23282SOL    HW281906   3.387   1.857   7.872 -0.4081 -0.1419  1.8591
23283SOL     OW81907   8.231   9.386   8.643 -1.2332 -0.1155  0.3816
23283SOL    HW181908   8.242   9.481   8.612 -0.5584 -0.1725  0.4287
23283SOL    HW281909   8.253   9.381   8.740 -0.4540 -0.4669  0.1910
23284SOL     OW81910   8.269   0.439   5.113 -0.5904 -0.2355  0.4297
23284SOL    HW181911   8.340   0.374   5.086  0.7768  1.3474  0.0902
23284SOL    HW281912   8.201   0.446   5.040 -0.9306 -1.4967  0.6047
23285SOL     OW81913   1.922   4.318   7.234  0.1964  0.2475  0.3080
23285SOL    HW181914   1.858   4.393   7.246 -0.0383 -0.2728  2.4255
23285SOL    HW281915   1.884   4.234   7.273  1.6724 -0.3220  0.5656
23286SOL     OW81916   2.161   7.188   6.168 -0.8719  0.8891  0.1907
23286SOL    HW181917   2.061   7.191   6.173 -0.8973 -0.1751  0.2796
23286SOL    HW281918   2.194   7.265   6.113 -1.8404  0.2334 -1.3160
23287SOL     OW81919   4.171   2.175   5.727  0.3329 -0.2146  0.1095
23287SOL    HW181920   4.232   2.096   5.727  1.9674  1.0030 -1.6533
23287SOL    HW281921   4.111   2.171   5.648 -1.7435 -1.2385  1.6667
23288SOL     OW81922   3.260   9.134   2.852  0.3023 -0.3561  0.2914
23288SOL    HW181923   3.249   9.227   2.887  0.2031 -0.7857  1.4515
23288SOL    HW281924   3.358   9.111   2.850  0.3347 -0.1854 -0.1118
23289SOL     OW81925   7.142   0.492   7.567 -0.2470  0.4168 -0.6134
23289SOL    HW181926   7.072   0.484   7.639  1.6705 -1.2976  1.1230
23289SOL    HW281927   7.169   0.401   7.536  2.4696  0.9724  0.0182
23290SOL     OW81928   6.288   3.343   8.194 -0.2960  0.2274 -0.3794
23290SOL    HW181929   6.200   3.369   8.236 -0.3665 -1.5999  0.6354
23290SOL    HW281930   6.320   3.418   8.136 -3.2060  0.4134 -1.8510
23291SOL     OW81931   9.352   6.170   1.670 -0.1993  0.1046 -0.0264
23291SOL    HW181932   9.441   6.148   1.710 -0.3938  1.8511  1.4232
23291SOL    HW281933   9.308   6.086   1.638  1.2872 -0.9579  0.6725
23292SOL     OW81934   9.436   8.587   6.695 -0.1358 -0.0504  0.3362
23292SOL    HW181935   9.435   8.508   6.634  0.6900 -0.6429  1.0929
23292SOL    HW281936   9.471   8.667   6.645 -0.2061 -0.3450 -0.1890
23293SOL     OW81937   3.296   9.762   8.056 -0.0640  0.4345 -0.8052
23293SOL    HW181938   3.251   9.851   8.049 -0.0239  0.4279 -1.2068
23293SOL    HW281939   3.235   9.691   8.021 -0.3820  0.2083  0.2099
23294SOL     OW81940   7.785   7.533   5.439 -0.5246 -0.0445 -0.2547
23294SOL    HW181941   7.788   7.493   5.531 -0.6877  0.6926  0.0782
23294SOL    HW281942   7.693   7.569   5.422 -0.7813 -1.0784 -1.0980
23295SOL     OW81943   0.892   2.267   6.438 -0.1020 -0.0090 -0.5458
23295SOL    HW181944   0.805   2.234   6.402 -0.3082 -0.4251  0.3222
23295SOL    HW281945   0.905   2.232   6.531  0.5504  0.8192 -0.3164
23296SOL     OW81946   5.549   7.924   2.710  0.0211 -0.4242  0.3727
23296SOL    HW181947   5.478   7.879   2.657  0.0448 -2.6932  2.1808
23296SOL    HW281948   5.634   7.872   2.704 -0.0312 -0.8614  2.7452
23297SOL     OW81949   7.995   4.160   6.866 -0.6714 -0.1394 -0.1327
23297SOL    HW181950   7.978   4.214   6.785 -1.6708 -0.8102 -0.3795
23297SOL    HW281951   8.080   4.108   6.855 -1.3681 -1.0709 -1.2093
23298SOL     OW81952   4.544   1.872   5.587 -0.4895 -0.4549  0.4533
23298SOL    HW181953   4.589   1.783   5.594  0.0836 -0.2338 -0.3195
23298SOL    HW281954   4.613   1.944   5.582 -0.8779 -0.1710 -1.5080
23299SOL     OW81955   7.762   6.567   7.140  0.4353  0.1702  0.2343
23299SOL    HW181956   7.781   6.654   7.094 -0.0470  0.4844  0.6322
23299SOL    HW281957   7.848   6.518   7.153  0.8211  0.9910  0.8135
23300SOL     OW81958   7.200   3.171   3.588  0.4581  0.1751  0.0835
23300SOL    HW181959   7.180   3.233   3.664  1.2959 -0.0462  0.4852
23300SOL    HW281960   7.257   3.217   3.521  1.0824 -0.1529  0.3825
23301SOL     OW81961   0.983   8.302   3.791  0.4199  0.5063 -0.2766
23301SOL    HW181962   0.971   8.203   3.797 -0.1166  0.5627 -0.3670
23301SOL    HW281963   1.080   8.324   3.791  0.5610 -0.0834 -1.2227
23302SOL     OW81964   1.595   8.733   8.986  0.2421 -0.3842 -0.1351
23302SOL    HW181965   1.548   8.680   9.056 -1.0619  2.5523  1.2609
23302SOL    HW281966   1.538   8.739   8.904  0.4249 -1.1549 -0.3255
23303SOL     OW81967   6.807   0.527   2.364  0.9642 -0.1825  0.6597
23303SOL    HW181968   6.708   0.530   2.375  0.9450  1.3278  0.2501
23303SOL    HW281969   6.830   0.474   2.282  0.5252 -0.9951  1.0614
23304SOL     OW81970   0.659   0.091   2.970  0.1427 -0.5450  0.1016
23304SOL    HW181971   0.743   0.052   2.933  0.8379  0.8430  0.1701
23304SOL    HW281972   0.593   0.106   2.897  0.6988  0.1765 -0.2585
23305SOL     OW81973   6.098   0.068   5.367  0.2459 -0.1567 -0.1781
23305SOL    HW181974   6.109   0.063   5.268  2.3615 -1.7938  0.0917
23305SOL    HW281975   6.005   0.043   5.392  0.3015 -1.9314 -1.6310
23306SOL     OW81976   9.409   7.614   3.304 -0.5592 -0.2360 -0.2322
23306SOL    HW181977   9.391   7.706   3.269 -0.7716 -0.0352  0.3940
23306SOL    HW281978   9.375   7.607   3.398  1.0157 -0.3953  0.3501
23307SOL     OW81979   7.766   5.649   4.857  0.6541 -0.9984  0.4636
23307SOL    HW181980   7.735   5.732   4.810  2.0824 -0.4213  0.4839
23307SOL    HW281981   7.782   5.577   4.791  0.9495 -0.7433  0.2532
23308SOL     OW81982   7.733   0.506   3.518  0.0812  0.4149  0.8847
23308SOL    HW181983   7.794   0.579   3.547  1.2738 -0.5435  0.8399
23308SOL    HW281984   7.745   0.490   3.420 -1.9590  1.8032  0.3818
23309SOL     OW81985   6.522   6.169   0.020 -0.2927 -0.1479 -0.5054
23309SOL    HW181986   6.603   6.138  -0.030 -0.1368  0.2116 -0.4837
23309SOL    HW281987   6.458   6.212  -0.043 -2.5010 -4.3648 -1.2610
23310SOL     OW81988   7.536   5.738   8.376 -0.0976 -0.0552 -0.1526
23310SOL    HW181989   7.470   5.674   8.338 -0.2204 -0.0130 -0.0141
23310SOL    HW281990   7.495   5.786   8.454 -0.3781  0.9606 -0.9131
23311SOL     OW81991   8.985   5.281   9.977  0.4203  0.3005  0.2577
23311SOL    HW181992   9.013   5.315  10.067  0.1887 -2.7245  1.5208
23311SOL    HW281993   8.898   5.323   9.951  0.4613  1.1629  1.4673
23312SOL     OW81994   1.428   3.312   6.919  0.5036  0.2217 -0.0179
23312SOL    HW181995   1.488   3.307   6.839  0.1433  0.8946 -0.3395
23312SOL    HW281996   1.482   3.301   7.002  1.1108  0.9877 -0.2978
23313SOL     OW81997   1.868   0.953   7.576  0.3908 -0.1537  0.5060
23313SOL    HW181998   1.772   0.951   7.602  0.2859  0.0813  0.1431
23313SOL    HW281999   1.897   1.048   7.563  1.3762 -0.0509  3.2272
23314SOL     OW82000   0.503   4.220   7.413 -0.1661  0.7673  0.2726
23314SOL    HW182001   0.434   4.277   7.458 -0.2956 -0.1405  1.2482
23314SOL    HW282002   0.463   4.175   7.333 -0.6024  0.5413  0.6168
23315SOL     OW82003   1.923   7.255   0.354 -0.2320  0.4566 -0.0939
23315SOL    HW182004   1.862   7.185   0.317  0.2646  0.9712 -1.9434
23315SOL    HW282005   2.012   7.215   0.375 -0.2238  0.3569 -0.3246
23316SOL     OW82006   3.524   5.091   8.415 -0.4040 -0.3389 -0.2513
23316SOL    HW182007   3.523   5.151   8.495  1.5421 -0.4025 -0.1495
23316SOL    HW282008   3.474   5.007   8.436 -1.9605  0.6451  0.0735
23317SOL     OW82009   6.263   7.485   5.050 -0.4155 -0.1697  0.8794
23317SOL    HW182010   6.310   7.447   5.130 -0.1972 -1.2263  0.2451
23317SOL    HW282011   6.164   7.483   5.066 -0.3194  0.8474  1.6671
23318SOL     OW82012   3.084   7.871   1.251  0.0965  0.3740 -0.1187
23318SOL    HW182013   3.152   7.807   1.289  0.1506  0.5127  0.0224
23318SOL    HW282014   3.068   7.945   1.317 -1.3732 -0.5017  0.5359
23319SOL     OW82015   9.929   0.217   7.201  0.1857 -0.2046 -0.3842
23319SOL    HW182016   9.950   0.134   7.252 -1.6233  0.6410  1.8111
23319SOL    HW282017   9.883   0.193   7.115  2.6818 -1.5970 -1.4213
23320SOL     OW82018   5.242   1.572   4.717 -0.0253 -0.0873  0.2239
23320SOL    HW182019   5.183   1.493   4.703 -0.2005  0.0038  0.4493
23320SOL    HW282020   5.207   1.650   4.666  1.8346 -0.9602 -2.5103
23321SOL     OW82021   8.341   4.153   0.830  0.0979  0.0183 -0.3950
23321SOL    HW182022   8.413   4.212   0.867  0.1447  0.3293 -0.9684
23321SOL    HW282023   8.286   4.117   0.905  0.7954 -0.1498  0.0418
23322SOL     OW82024   3.593   8.656   4.335 -0.4960 -0.4661  0.0813
23322SOL    HW182025   3.521   8.662   4.266  0.2609  1.5390 -0.5641
23322SOL    HW282026   3.678   8.626   4.292 -0.2631 -0.1498  0.3190
23323SOL     OW82027   3.082   6.376   0.102 -0.1021 -0.0482 -0.2661
23323SOL    HW182028   3.163   6.434   0.110  0.5391 -0.8618 -0.9178
23323SOL    HW282029   3.106   6.281   0.123 -1.3343  0.0340  1.6684
23324SOL     OW82030   5.574   5.619   1.959  0.1255 -0.4583 -0.2792
23324SOL    HW182031   5.611   5.576   1.877 -0.6032  0.6379 -1.1957
23324SOL    HW282032   5.477   5.640   1.945  0.1068  0.1625  0.6845
23325SOL     OW82033   2.195   7.044   4.068  0.7669 -0.9096  0.4148
23325SOL    HW182034   2.139   7.126   4.055  0.7156 -1.0858 -0.5436
23325SOL    HW282035   2.207   7.026   4.166 -0.3190 -0.5114  0.6253
23326SOL     OW82036   4.106   1.239   0.540 -0.3546  0.6203 -0.2279
23326SOL    HW182037   4.103   1.296   0.623  0.2811  1.1426 -0.5549
23326SOL    HW282038   4.202   1.226   0.513 -0.3699 -1.9461  0.7601
23327SOL     OW82039   2.303   3.391   6.446 -0.5146 -0.4468  0.1783
23327SOL    HW182040   2.252   3.472   6.418  0.6224  0.1136 -0.3203
23327SOL    HW282041   2.286   3.317   6.381  0.5914  0.2548 -0.9433
23328SOL     OW82042   1.131   8.647   1.640  0.4815  0.1591 -0.9089
23328SOL    HW182043   1.079   8.641   1.555 -0.2243  1.2221 -0.5462
23328SOL    HW282044   1.229   8.645   1.619  0.3107  0.6769 -1.7548
23329SOL     OW82045   1.433   1.108   5.911 -0.3684  0.0730  0.1485
23329SOL    HW182046   1.406   1.204   5.913  0.0126  0.1646  1.2246
23329SOL    HW282047   1.531   1.102   5.888 -0.4153 -0.0600 -0.0139
23330SOL     OW82048   5.355   4.450   7.790  0.1260  0.4746 -0.7484
23330SOL    HW182049   5.261   4.479   7.775  0.3952  1.0114 -1.4566
23330SOL    HW282050   5.356   4.362   7.837 -0.6938  2.3798  2.9977
23331SOL     OW82051   1.704   5.556   2.226 -0.2794 -0.5756  0.1110
23331SOL    HW182052   1.794   5.517   2.245  0.5864  0.6449 -1.3616
23331SOL    HW282053   1.691   5.562   2.127 -1.8803 -0.4868  0.3122
23332SOL     OW82054   4.908   3.971   7.813 -0.0538 -0.0235 -0.0895
23332SOL    HW182055   4.872   3.961   7.721 -0.1757 -0.2455 -0.0194
23332SOL    HW282056   4.839   3.941   7.879  0.6441 -1.4415  0.0028
23333SOL     OW82057   4.032   7.372   3.725  0.1220 -0.5199 -0.3590
23333SOL    HW182058   4.039   7.435   3.648 -2.5458  0.5305  0.1771
23333SOL    HW282059   3.987   7.418   3.802 -0.1799 -2.5149  0.7025
23334SOL     OW82060   2.024   4.244   9.613  0.3554 -0.0192  0.4073
23334SOL    HW182061   2.118   4.231   9.581  0.2478 -1.6583  0.7015
23334SOL    HW282062   2.021   4.316   9.682  1.7191 -1.3114  1.8353
23335SOL     OW82063   2.998   6.929   7.199 -0.3622  0.4367 -0.2256
23335SOL    HW182064   3.021   6.904   7.105  1.8340 -3.5421  1.2224
23335SOL    HW282065   2.926   6.868   7.233 -0.5317  1.2670  0.9472
23336SOL     OW82066   5.583   7.440   2.911 -0.5552 -0.0005 -0.0961
23336SOL    HW182067   5.669   7.428   2.961 -1.6805  0.8448  2.0916
23336SOL    HW282068   5.596   7.505   2.837  0.9173 -0.5975 -0.3828
23337SOL     OW82069   4.687   0.901   6.595 -0.0676 -0.3060  0.1227
23337SOL    HW182070   4.688   1.001   6.593  2.3881 -0.2820  0.2791
23337SOL    HW282071   4.760   0.868   6.655 -0.0581 -2.2046 -0.8690
23338SOL     OW82072   2.252   4.147   7.771 -0.5140 -0.1011  0.1929
23338SOL    HW182073   2.317   4.071   7.769  0.6741  0.9389 -2.2842
23338SOL    HW282074   2.167   4.116   7.813  0.4590 -2.3640  0.6061
23339SOL     OW82075   1.793   0.198   7.192  0.7849  0.0404  0.0211
23339SOL    HW182076   1.851   0.275   7.164  0.4297  0.4125  0.3131
23339SOL    HW282077   1.766   0.147   7.111 -1.3353  1.8963 -0.4828
23340SOL     OW82078   4.897   1.371   5.658  0.3157  0.7185 -0.2155
23340SOL    HW182079   4.870   1.286   5.612  0.1003  2.5579 -3.6885
23340SOL    HW282080   4.821   1.404   5.714  1.2516 -2.5892  3.1647
23341SOL     OW82081   8.681   7.284   3.870  0.1197 -0.1573  0.2582
23341SOL    HW182082   8.670   7.188   3.842  1.4680 -0.2108 -0.1182
23341SOL    HW282083   8.770   7.295   3.914 -0.2832  0.8077  0.8393
23342SOL     OW82084   2.247   6.319   0.228  0.1677 -0.0185  0.5420
23342SOL    HW182085   2.276   6.357   0.140 -2.9769 -0.6237 -0.8516
23342SOL    HW282086   2.320   6.261   0.265  0.7191 -1.6487 -2.8550
23343SOL     OW82087   8.122   2.400   0.183  0.4740  0.3912 -0.3185
23343SOL    HW182088   8.191   2.435   0.247 -0.4163  2.3904 -0.4217
23343SOL    HW282089   8.053   2.349   0.234  2.1780 -1.9122 -0.2532
23344SOL     OW82090   2.094   7.498   8.924 -0.3756 -0.0702  0.6526
23344SOL    HW182091   2.174   7.550   8.897 -0.7218  0.4284  0.5884
23344SOL    HW282092   2.039   7.477   8.844 -0.2364 -0.5387  0.6769
23345SOL     OW82093   5.415   5.789   9.369  0.1499  0.2418  0.3201
23345SOL    HW182094   5.334   5.746   9.330  0.2767 -2.7074  3.1570
23345SOL    HW282095   5.481   5.807   9.296 -1.6685 -0.4120 -1.5256
23346SOL     OW82096   7.386   1.198   0.337  0.1589  0.3187  0.4703
23346SOL    HW182097   7.383   1.101   0.360  1.3587  0.5697  1.7407
23346SOL    HW282098   7.390   1.253   0.420  1.1740  1.3904 -0.2549
23347SOL     OW82099   0.986   4.983   3.300  0.0814  0.0708 -0.3885
23347SOL    HW182100   1.069   4.939   3.335  1.4650  2.4987 -0.5250
23347SOL    HW282101   0.956   5.054   3.364 -0.6048  0.7152 -1.4047
23348SOL     OW82102   7.944   5.431   1.312  0.2113 -0.5182  0.0647
23348SOL    HW182103   7.933   5.348   1.257 -0.5502  0.5949 -1.4958
23348SOL    HW282104   7.876   5.432   1.384 -1.1072 -0.3005 -1.1571
23349SOL     OW82105   2.357   9.968   9.817  0.2925  0.4588  0.2942
23349SOL    HW182106   2.345  10.067   9.810 -0.4820  0.4428  1.2675
23349SOL    HW282107   2.267   9.924   9.816  0.5924 -0.1662  0.7967
23350SOL     OW82108   3.753   9.442   1.240  0.0454 -0.3825 -0.4257
23350SOL    HW182109   3.715   9.449   1.148 -0.7890 -1.9962 -0.2380
23350SOL    HW282110   3.768   9.345   1.262  1.0957  0.0428  0.7878
23351SOL     OW82111   1.086   4.757   9.435  0.2535 -0.2252  0.1942
23351SOL    HW182112   1.042   4.764   9.524  0.2953 -0.4284  0.2312
23351SOL    HW282113   1.026   4.794   9.364  0.1311 -0.2631  0.2787
23352SOL     OW82114   6.969   0.552   3.090 -0.1476 -0.6258  0.5540
23352SOL    HW182115   6.906   0.613   3.042  0.5718 -1.2416 -1.2292
23352SOL    HW282116   6.918   0.481   3.138 -0.9316  0.6930  1.6830
23353SOL     OW82117   3.914   9.752   4.441 -0.3796 -0.2571  0.9658
23353SOL    HW182118   3.913   9.698   4.357 -2.3093  1.4029 -0.1246
23353SOL    HW282119   3.996   9.809   4.444  0.0536 -0.8612  0.5750
23354SOL     OW82120   6.098   3.039   2.549 -0.2360  0.0348  0.1446
23354SOL    HW182121   6.119   3.000   2.459 -0.3173  0.3121  0.0058
23354SOL    HW282122   6.015   3.095   2.544 -0.4001 -0.1761  0.4551
23355SOL     OW82123   7.265   7.238   2.352 -0.0212 -0.5654 -0.3913
23355SOL    HW182124   7.205   7.218   2.274 -0.0722  2.5097 -1.1979
23355SOL    HW282125   7.210   7.239   2.436 -0.9990  1.3923 -1.0193
23356SOL     OW82126   9.332   9.430   1.690  0.4008  0.1733 -0.0410
23356SOL    HW182127   9.249   9.475   1.725  0.0942 -2.5138  2.9175
23356SOL    HW282128   9.410   9.492   1.700 -0.4528  1.0355  1.5368
23357SOL     OW82129   8.528   0.486   8.437  0.5091 -0.0110  0.4366
23357SOL    HW182130   8.605   0.529   8.483 -0.5551  0.9682  1.3342
23357SOL    HW282131   8.468   0.443   8.505  0.1740 -0.6222 -0.2375
23358SOL     OW82132   1.014   2.644   2.400  0.0278 -0.0270  0.3508
23358SOL    HW182133   1.045   2.653   2.306 -0.8207 -0.1254  0.0619
23358SOL    HW282134   1.078   2.585   2.451 -0.2616 -1.1084 -0.5180
23359SOL     OW82135   6.334   1.424   6.053  0.1095  0.0735 -0.1193
23359SOL    HW182136   6.431   1.445   6.070 -0.7859  3.2218  1.4993
23359SOL    HW282137   6.298   1.488   5.986 -1.1725 -0.2335  0.2702
23360SOL     OW82138   3.110   2.737   3.165 -0.4537 -0.4625  0.2991
23360SOL    HW182139   3.108   2.646   3.124 -0.7998  0.8943 -2.8240
23360SOL    HW282140   3.017   2.774   3.167 -0.0024  0.7463 -0.6669
23361SOL     OW82141   4.319   2.537   5.435 -0.4539 -0.3317 -0.4851
23361SOL    HW182142   4.228   2.539   5.395 -0.7267  0.0646  0.1498
23361SOL    HW282143   4.366   2.453   5.407 -0.3625  0.2871 -2.2321
23362SOL     OW82144   9.422   4.079   0.781 -0.7514 -0.0849  0.1925
23362SOL    HW182145   9.520   4.099   0.792 -0.8377  0.3905  0.1264
23362SOL    HW282146   9.410   3.984   0.753 -0.2981 -0.1216  0.1206
23363SOL     OW82147   4.631   3.942   1.915  0.3792  0.2782 -0.1774
23363SOL    HW182148   4.580   4.027   1.898  1.3988  0.8889 -0.2317
23363SOL    HW282149   4.591   3.867   1.863 -0.6133  0.7019 -0.0249
23364SOL     OW82150   4.121   4.570   8.193 -0.1177 -0.6088  0.3690
23364SOL    HW182151   4.066   4.588   8.274  0.1023 -0.7407  0.5484
23364SOL    HW282152   4.202   4.517   8.219 -0.2790 -1.0443 -0.0101
23365SOL     OW82153   2.504   1.591   6.762  0.1948  0.5447  0.0482
23365SOL    HW182154   2.562   1.575   6.682  0.8803 -1.5704  0.9371
23365SOL    HW282155   2.560   1.593   6.845 -0.7050  0.9715  0.6613
23366SOL     OW82156   9.647   4.855   1.975 -0.1882 -0.0098 -0.1057
23366SOL    HW182157   9.596   4.920   2.031  1.9465  1.1194  0.6150
23366SOL    HW282158   9.694   4.789   2.034 -0.8634 -1.0895 -0.7535
23367SOL     OW82159   0.722   1.679   8.793 -0.5893  0.1320  0.5136
23367SOL    HW182160   0.793   1.632   8.740  0.1767  3.2154 -1.3041
23367SOL    HW282161   0.643   1.695   8.734 -0.3761  2.1608  0.7677
23368SOL     OW82162   6.038   5.137  10.020  0.4424  0.0584 -0.5592
23368SOL    HW182163   5.980   5.146  10.101  1.5004 -1.3434  0.3664
23368SOL    HW282164   6.039   5.042   9.990  1.9795  0.1306 -0.7691
23369SOL     OW82165   8.704   2.384   0.269 -0.3185 -0.2411  0.0388
23369SOL    HW182166   8.772   2.453   0.291 -0.4623  0.4247 -1.5259
23369SOL    HW282167   8.645   2.368   0.348 -0.4020  1.5543  0.3479
23370SOL     OW82168   6.186   9.918   7.049 -0.2020  0.1510  0.2282
23370SOL    HW182169   6.146   9.911   6.958 -3.1405 -0.1731  1.5013
23370SOL    HW282170   6.238  10.004   7.056 -1.8380  1.2667 -1.0229
23371SOL     OW82171   2.296   7.908   0.119  0.1434 -0.0655  0.2359
23371SOL    HW182172   2.245   7.827   0.145  1.4980 -0.9290  0.2213
23371SOL    HW282173   2.364   7.930   0.189 -1.3218  2.0560  1.0676
23372SOL     OW82174   0.690   0.713   0.993  0.4231 -0.3425  0.3439
23372SOL    HW182175   0.770   0.772   1.004  0.6763 -0.8030  1.0640
23372SOL    HW282176   0.681   0.686   0.897  1.5363 -0.8391  0.3648
23373SOL     OW82177   6.955   2.189   5.495  0.2761  0.5209 -0.0663
23373SOL    HW182178   7.016   2.255   5.453 -0.1110  1.3921  0.7178
23373SOL    HW282179   6.973   2.184   5.594 -1.5497  1.5164  0.3419
23374SOL     OW82180   4.133   9.349   7.775 -0.5406 -0.9223 -0.6482
23374SOL    HW182181   4.104   9.443   7.756  0.3232 -0.4554  0.3126
23374SOL    HW282182   4.060   9.301   7.823 -1.0496 -0.7978 -1.2941
23375SOL     OW82183   7.770   2.338   1.914 -0.9568  0.2131  0.2660
23375SOL    HW182184   7.861   2.333   1.873 -0.8652  0.0055  0.4862
23375SOL    HW282185   7.704   2.290   1.856 -0.9554  0.5089  0.0226
23376SOL     OW82186   2.334   5.991   0.289  0.0423 -0.0610  0.6916
23376SOL    HW182187   2.250   6.028   0.328 -0.2416  1.6154 -1.3979
23376SOL    HW282188   2.413   6.041   0.325 -0.0586  0.1266  0.6511
23377SOL     OW82189   4.888   1.029   9.955 -0.2289 -0.1450 -0.0295
23377SOL    HW182190   4.852   1.121   9.940 -0.9683 -0.3684  0.3453
23377SOL    HW282191   4.828   0.963   9.910  0.2560 -0.4482 -0.2272
23378SOL     OW82192   0.647   1.011   3.324 -0.1214 -0.0927 -0.0221
23378SOL    HW182193   0.666   0.966   3.237  0.4265 -0.2751  0.1948
23378SOL    HW282194   0.674   0.952   3.400 -0.7336  0.0064  0.2756
23379SOL     OW82195   0.225   4.855   6.506 -0.8380  0.4051 -0.1292
23379SOL    HW182196   0.200   4.902   6.591  1.7493  0.3022  0.7311
23379SOL    HW282197   0.272   4.919   6.445 -1.1355  0.0288 -0.7605
23380SOL     OW82198   9.635   4.043   9.070 -0.6483 -0.1677 -0.3934
23380SOL    HW182199   9.673   4.051   8.978 -0.8466 -0.2979 -0.4881
23380SOL    HW282200   9.539   4.071   9.069 -0.3046  1.0733  0.0332
23381SOL     OW82201   9.435   2.545   2.061  0.7026 -0.1630  0.1573
23381SOL    HW182202   9.449   2.447   2.048  0.8031 -0.1997  0.5575
23381SOL    HW282203   9.337   2.564   2.067  0.6787 -0.2238 -0.0386
23382SOL     OW82204   0.835   8.151   0.394  0.1186  0.0737  0.0113
23382SOL    HW182205   0.748   8.121   0.354 -0.9672  0.0465  2.3325
23382SOL    HW282206   0.886   8.203   0.326 -0.8610 -1.5198 -2.0061
23383SOL     OW82207   5.105   8.076   1.561 -0.3734 -0.3024  0.2413
23383SOL    HW182208   5.033   8.144   1.574  0.0816  1.3046 -4.6477
23383SOL    HW282209   5.078   8.012   1.490  1.6225 -1.7703  0.7580
23384SOL     OW82210   2.082   6.325   1.866  0.7069 -0.0293  0.0385
23384SOL    HW182211   2.038   6.331   1.955  0.6417 -0.5138  0.0448
23384SOL    HW282212   2.175   6.360   1.871  0.7682 -0.2370  0.3470
23385SOL     OW82213   2.203   7.274   8.318 -0.6457  0.0696 -0.3731
23385SOL    HW182214   2.204   7.177   8.341  0.5556  0.3954  1.0178
23385SOL    HW282215   2.109   7.307   8.313 -1.0027 -0.6732  1.2818
23386SOL     OW82216   7.652   6.265   6.175  0.0960  0.2025  0.4036
23386SOL    HW182217   7.679   6.169   6.179  0.4297  0.3267  1.4125
23386SOL    HW282218   7.665   6.300   6.082 -2.2181 -1.3406 -0.5310
23387SOL     OW82219   7.869   2.318   1.116 -0.4601  0.4249  0.0105
23387SOL    HW182220   7.961   2.355   1.106 -0.5569  0.1147 -2.2964
23387SOL    HW282221   7.802   2.391   1.104 -0.5552  0.4058  0.4020
23388SOL     OW82222   0.517   2.788   3.013  0.1161  0.2712  0.3996
23388SOL    HW182223   0.535   2.854   2.939 -0.6305  1.1821  1.0294
23388SOL    HW282224   0.538   2.831   3.101 -1.3176 -0.0078  0.8719
23389SOL     OW82225   9.431   0.851   7.344  0.0045 -0.0796  0.2941
23389SOL    HW182226   9.398   0.887   7.431 -2.9577 -0.8719 -0.4229
23389SOL    HW282227   9.440   0.751   7.351 -2.4266 -0.4162 -0.9246
23390SOL     OW82228   6.783   0.704   6.572  0.0921  0.3735 -0.3118
23390SOL    HW182229   6.791   0.612   6.610 -2.3243 -0.1388 -0.9344
23390SOL    HW282230   6.691   0.739   6.588  0.2076  1.6774 -2.2890
23391SOL     OW82231   2.220   9.019   9.229  0.6357  0.2633 -0.3661
23391SOL    HW182232   2.264   8.986   9.312  1.3269  1.0526 -0.4136
23391SOL    HW282233   2.189   8.942   9.174 -0.3551 -0.2671  0.9014
23392SOL     OW82234   0.341   5.473   5.533  0.0552 -0.4067 -0.2665
23392SOL    HW182235   0.401   5.412   5.481 -0.0405  0.0989 -0.9791
23392SOL    HW282236   0.392   5.517   5.606  0.6958  0.4716 -1.2345
23393SOL     OW82237   3.509   4.087   4.534  0.3020 -0.2631 -0.2041
23393SOL    HW182238   3.541   4.005   4.582 -1.8111 -0.8358  0.2706
23393SOL    HW282239   3.525   4.077   4.436  0.9088 -0.8321 -0.0539
23394SOL     OW82240   9.818   5.655   2.352 -0.9175 -0.2935 -0.3780
23394SOL    HW182241   9.728   5.631   2.316 -1.8310  0.7612  1.1421
23394SOL    HW282242   9.843   5.747   2.323 -0.8485 -0.1428  0.1482
23395SOL     OW82243   2.533   6.654   0.985  0.0663  0.0962  0.4429
23395SOL    HW182244   2.550   6.598   1.066  0.4911  1.8903  1.6413
23395SOL    HW282245   2.436   6.651   0.961 -0.0456 -0.5014  0.9739
23396SOL     OW82246   2.653   6.628   8.438 -0.5123  0.0297 -0.0278
23396SOL    HW182247   2.727   6.689   8.465 -0.5911  0.2790 -0.3688
23396SOL    HW282248   2.682   6.572   8.360 -0.7528  0.2828 -0.3025
23397SOL     OW82249   8.114   5.160   2.198  0.5438 -0.2811 -0.0338
23397SOL    HW182250   8.119   5.234   2.265 -0.0808 -1.5241  1.4250
23397SOL    HW282251   8.018   5.144   2.173  0.8542  0.8725 -2.0365
23398SOL     OW82252   2.638   9.265   5.366  0.3625  0.4639 -0.5261
23398SOL    HW182253   2.692   9.189   5.401  0.8058 -0.0576 -2.2726
23398SOL    HW282254   2.575   9.297   5.437  1.5875 -0.1947  0.8812
23399SOL     OW82255   2.326   7.310   9.810 -0.5773 -0.4602  0.1318
23399SOL    HW182256   2.391   7.384   9.829 -0.4247 -0.9902  1.7816
23399SOL    HW282257   2.244   7.347   9.768 -0.6589  0.7087  1.3010
23400SOL     OW82258   8.739   8.306   4.401 -0.3679 -0.7220  0.0764
23400SOL    HW182259   8.797   8.257   4.337 -0.4231 -0.9007  0.1630
23400SOL    HW282260   8.645   8.273   4.393 -0.4747 -0.3693 -0.1294
23401SOL     OW82261   1.004   4.928   0.404 -0.1375  0.3657  0.0753
23401SOL    HW182262   0.998   4.841   0.354  0.2454  1.1423 -1.3483
23401SOL    HW282263   0.989   5.004   0.341  1.8556  1.4427  0.8538
23402SOL     OW82264   4.658   9.845   2.095  0.5091 -0.2375  0.3685
23402SOL    HW182265   4.672   9.781   2.020  0.7927 -0.2742  0.4508
23402SOL    HW282266   4.633   9.935   2.058  0.6238 -0.2633  0.2308
23403SOL     OW82267   0.087   8.430   5.059  0.1357  0.8966 -0.1439
23403SOL    HW182268   0.181   8.456   5.078  0.8923 -1.5773 -0.3074
23403SOL    HW282269   0.085   8.339   5.017 -2.4497 -0.1140  2.0105
23404SOL     OW82270   0.389   6.865   8.783 -0.0015 -0.2658 -0.5283
23404SOL    HW182271   0.344   6.908   8.705 -0.6494 -1.6258 -0.9193
23404SOL    HW282272   0.324   6.857   8.859  0.4900  0.6181 -0.0030
23405SOL     OW82273   2.603   8.746   5.306 -0.0628  0.0731 -0.1466
23405SOL    HW182274   2.621   8.816   5.237  0.6069  0.3741  0.3242
23405SOL    HW282275   2.612   8.787   5.397  1.7958 -0.9718  0.1596
23406SOL     OW82276   2.148   1.384   5.931  0.4307  0.3953 -0.2421
23406SOL    HW182277   2.050   1.363   5.936  0.2581  1.1664 -0.3116
23406SOL    HW282278   2.190   1.332   5.857  0.0137  0.2947 -0.4089
23407SOL     OW82279   5.645   9.886   2.196 -0.3568 -0.4489  0.3850
23407SOL    HW182280   5.720   9.949   2.217 -0.0766 -1.4392  2.5674
23407SOL    HW282281   5.682   9.802   2.156 -0.5146 -0.1174 -0.4642
23408SOL     OW82282   0.671   9.662   2.113 -0.2079  0.5784  0.0581
23408SOL    HW182283   0.660   9.760   2.131  0.0728  0.4965  0.6568
23408SOL    HW282284   0.633   9.641   2.023 -0.1025  1.2745 -0.1547
23409SOL     OW82285   3.726   8.766   8.035 -0.5390 -0.8589 -0.1095
23409SOL    HW182286   3.645   8.795   8.086 -1.1000  0.1434 -1.5447
23409SOL    HW282287   3.698   8.715   7.954  0.3028 -1.3690 -0.0823
23410SOL     OW82288   9.669   6.761   6.685  0.6326 -0.3317 -0.1992
23410SOL    HW182289   9.759   6.722   6.702  0.5662 -0.4927 -0.2205
23410SOL    HW282290   9.601   6.714   6.741  0.3769 -1.0120 -1.0667
23411SOL     OW82291   9.084   8.649   3.423 -0.2236 -0.1421  0.2297
23411SOL    HW182292   9.165   8.634   3.365  0.4618  0.7208  0.9579
23411SOL    HW282293   9.113   8.679   3.513 -1.3714  0.2057  0.4850
23412SOL     OW82294   7.009   0.396   8.635 -0.8469  0.4813  0.5898
23412SOL    HW182295   6.956   0.392   8.550 -1.1967 -0.1921  0.8355
23412SOL    HW282296   7.106   0.382   8.615 -0.7404  1.8127  0.1252
23413SOL     OW82297   8.052   1.132   1.064 -0.1788  0.0149 -0.7304
23413SOL    HW182298   8.046   1.054   1.002  1.4575 -0.7422  0.0247
23413SOL    HW282299   7.998   1.208   1.027  1.3944 -0.1312 -3.5359
23414SOL     OW82300   4.346   3.113   9.425 -0.1215 -0.1528  0.2296
23414SOL    HW182301   4.338   3.014   9.412  1.4988 -0.1357 -1.0084
23414SOL    HW282302   4.403   3.151   9.352  0.1806  1.5358  1.3458
23415SOL     OW82303   6.500   2.055   4.232  0.2721 -0.5632  0.3476
23415SOL    HW182304   6.409   2.082   4.262  0.9687 -0.0543  2.0751
23415SOL    HW282305   6.524   2.105   4.148 -1.4371 -1.4965 -0.7112
23416SOL     OW82306   2.291   7.286   3.072  0.0177 -0.0472 -0.2658
23416SOL    HW182307   2.386   7.278   3.042  0.5093  1.9832  0.6460
23416SOL    HW282308   2.264   7.202   3.120  1.3629 -0.6194 -0.4859
23417SOL     OW82309   4.815   9.720   3.672  0.1726  0.1100  0.0774
23417SOL    HW182310   4.784   9.633   3.710 -0.4390 -0.7997 -2.3752
23417SOL    HW282311   4.784   9.795   3.730  0.2044 -1.2564  1.9142
23418SOL     OW82312   7.951   6.712   7.358 -0.0060 -0.3098 -0.5124
23418SOL    HW182313   7.980   6.736   7.451 -0.5583 -0.8417 -0.2031
23418SOL    HW282314   8.031   6.684   7.305 -0.0435 -2.7085  0.6213
23419SOL     OW82315   0.024   8.535   4.043 -0.0322 -0.1747 -0.0988
23419SOL    HW182316   0.004   8.544   4.140 -0.5256 -0.7444 -0.1420
23419SOL    HW282317  -0.030   8.601   3.991 -0.3672 -0.4030 -0.0475
23420SOL     OW82318   7.381   1.516   8.930 -0.0777  0.1763 -0.4137
23420SOL    HW182319   7.434   1.559   9.004  1.0670 -1.8889 -0.0129
23420SOL    HW282320   7.347   1.428   8.961 -2.1365  0.6179 -1.3628
23421SOL     OW82321   2.258   1.694   2.777  0.2711  0.3948  0.4198
23421SOL    HW182322   2.290   1.683   2.683  1.3061  0.4286  0.7635
23421SOL    HW282323   2.215   1.608   2.808  0.0571  0.3397 -0.0289
23422SOL     OW82324   4.561   3.604   8.068 -0.2277 -1.0756  0.3100
23422SOL    HW182325   4.492   3.536   8.042 -1.4358  0.1672  0.1866
23422SOL    HW282326   4.647   3.583   8.022 -0.3298 -3.0219  0.9692
23423SOL     OW82327   0.928   9.444   9.642 -0.6873 -0.2398  0.8022
23423SOL    HW182328   1.001   9.501   9.680  0.2535 -0.8819 -0.0240
23423SOL    HW282329   0.854   9.436   9.709  0.4936 -0.4978  2.0956
23424SOL     OW82330   9.983   4.142   3.779  0.0635  0.3916  0.2634
23424SOL    HW182331   9.941   4.141   3.688 -0.8715 -1.0940  0.6870
23424SOL    HW282332  10.019   4.051   3.800  1.9877  1.2004  0.6187
23425SOL     OW82333   3.175   0.314   0.063 -0.4493 -0.3526  0.0285
23425SOL    HW182334   3.222   0.233   0.098 -0.9310 -0.2949  0.8221
23425SOL    HW282335   3.177   0.386   0.133  1.0850  0.7719 -1.1340
23426SOL     OW82336   9.897   4.400   9.074 -0.4363  0.2103 -0.0798
23426SOL    HW182337   9.897   4.389   8.975  0.6544  0.1273 -0.0738
23426SOL    HW282338   9.972   4.460   9.101 -1.3158  1.0219  0.6170
23427SOL     OW82339   2.184   6.267   9.851  0.1484 -0.0270 -0.2150
23427SOL    HW182340   2.214   6.360   9.830 -1.0278  0.8943  1.9876
23427SOL    HW282341   2.091   6.270   9.890  0.4628 -2.0267  0.7635
23428SOL     OW82342   3.510   5.099   5.935  0.1494 -0.0863  0.2987
23428SOL    HW182343   3.445   5.073   6.007 -1.2566 -0.4595 -1.0965
23428SOL    HW282344   3.486   5.190   5.901  0.6994  0.0074  0.1684
23429SOL     OW82345   1.044   3.560   5.813 -0.2875 -0.1738 -0.6594
23429SOL    HW182346   0.954   3.572   5.771  0.2118 -1.0738 -2.0201
23429SOL    HW282347   1.087   3.650   5.824 -1.5329  0.3041  0.4395
23430SOL     OW82348   4.602   2.264   1.218 -0.0354  0.1558  0.2799
23430SOL    HW182349   4.596   2.331   1.292 -1.2842  0.3715  0.0037
23430SOL    HW282350   4.540   2.187   1.237  2.2836 -1.5252  1.1850
23431SOL     OW82351   8.870   3.831   1.072  0.2825  0.2658 -0.4298
23431SOL    HW182352   8.823   3.841   0.984 -2.8524  0.4246  1.1843
23431SOL    HW282353   8.828   3.756   1.124  1.9957  0.2638  0.9993
23432SOL     OW82354   6.282   2.728   9.763 -0.0732 -0.3847  0.1064
23432SOL    HW182355   6.375   2.741   9.798 -0.1860 -1.5453  0.8815
23432SOL    HW282356   6.226   2.685   9.834 -1.1078 -0.0474 -0.4929
23433SOL     OW82357   5.166   3.397   8.287  0.3409  0.5672 -0.1439
23433SOL    HW182358   5.168   3.368   8.383 -1.3310  1.0424  0.0569
23433SOL    HW282359   5.246   3.453   8.267 -0.3331  2.1914  1.5589
23434SOL     OW82360   7.911   5.585   0.655  0.3427 -0.1628  0.1085
23434SOL    HW182361   7.818   5.557   0.633  0.4321 -0.3914  0.0201
23434SOL    HW282362   7.973   5.507   0.647  0.3397 -0.3246  1.4479
23435SOL     OW82363   9.377   4.337   1.589 -0.2448 -0.4337  0.2411
23435SOL    HW182364   9.293   4.378   1.555  0.9529 -0.9426 -3.5956
23435SOL    HW282365   9.456   4.385   1.550  1.1789 -3.0480 -0.2588
23436SOL     OW82366   2.569   3.041   3.517  0.6257  0.1921  1.0067
23436SOL    HW182367   2.523   3.068   3.432  1.2648 -0.4248  0.4671
23436SOL    HW282368   2.648   3.101   3.532  0.9431 -0.1646  0.7793
23437SOL     OW82369   3.701   1.307   4.004  0.0009  0.1542 -0.4208
23437SOL    HW182370   3.722   1.362   3.923 -0.7289  0.1171 -0.6395
23437SOL    HW282371   3.667   1.218   3.975  2.9943 -1.1594 -0.0842
23438SOL     OW82372   8.724   9.949   7.920 -0.1583 -0.0910 -0.2469
23438SOL    HW182373   8.796  10.018   7.909  2.8420 -3.3320 -2.0878
23438SOL    HW282374   8.744   9.892   7.999  0.0794 -1.8741 -1.5664
23439SOL     OW82375   8.930   2.672   7.064  0.3531  0.6725  0.4213
23439SOL    HW182376   8.875   2.686   6.982  1.9789  0.0762 -0.7905
23439SOL    HW282377   8.911   2.582   7.102  1.3944 -0.0523 -0.7281
23440SOL     OW82378   8.103   7.486   4.784 -0.2002 -0.6315  0.2296
23440SOL    HW182379   8.006   7.510   4.791 -0.4433 -1.6196  0.4413
23440SOL    HW282380   8.132   7.492   4.689 -0.3415  0.1296  0.2292
23441SOL     OW82381   6.429   9.529   3.952  0.3013 -0.0606  0.1894
23441SOL    HW182382   6.435   9.605   3.887  0.0487  0.1680  0.4283
23441SOL    HW282383   6.481   9.552   4.035 -0.8286  0.4046  0.7904
23442SOL     OW82384   6.956   1.101   8.275  0.2083  0.3132  0.1109
23442SOL    HW182385   7.022   1.153   8.220  0.4022  1.9942  1.8967
23442SOL    HW282386   6.866   1.106   8.233  0.7739 -0.2294 -1.2041
23443SOL     OW82387   6.481   1.907   4.475 -0.0461  0.0047 -0.1896
23443SOL    HW182388   6.572   1.867   4.489 -0.8213 -1.8312 -0.2574
23443SOL    HW282389   6.477   1.948   4.384  1.0407  1.0155  0.2021
23444SOL     OW82390   1.890   9.607   0.340  0.6550  0.7567 -0.3441
23444SOL    HW182391   1.824   9.676   0.372  0.0698 -0.2242  0.5974
23444SOL    HW282392   1.843   9.538   0.286  0.9308  0.1292  0.2073
23445SOL     OW82393   7.527   1.971   1.169  0.0066  0.1521  0.1931
23445SOL    HW182394   7.574   2.040   1.223  0.4883  0.9851 -1.2503
23445SOL    HW282395   7.465   2.017   1.105 -2.8553 -0.9117  2.1067
23446SOL     OW82396   9.367   9.903   3.221  0.0882 -0.1535 -0.5658
23446SOL    HW182397   9.426   9.938   3.294  0.7859 -0.6117 -0.9042
23446SOL    HW282398   9.422   9.882   3.141 -0.4794 -0.9785 -0.7480
23447SOL     OW82399   9.899   4.343   8.804  0.0184  0.8119 -0.2612
23447SOL    HW182400   9.893   4.436   8.768 -0.0318  0.4060 -1.3357
23447SOL    HW282401   9.994   4.311   8.797  0.0002  0.7163 -0.0704
23448SOL     OW82402   2.099   6.046   3.630 -0.1312 -0.3455  0.3719
23448SOL    HW182403   2.075   6.134   3.672  1.6219 -0.3134  1.3539
23448SOL    HW282404   2.196   6.028   3.644 -0.2375 -1.9128 -0.8200
23449SOL     OW82405   8.251   5.804  10.079  0.1406 -0.0162 -0.0820
23449SOL    HW182406   8.274   5.902  10.085  0.4304 -0.1209  0.5269
23449SOL    HW282407   8.240   5.779   9.983 -0.1946  0.6748 -0.2312
23450SOL     OW82408   5.706   1.324   4.439  0.2730 -0.4583 -0.5256
23450SOL    HW182409   5.670   1.366   4.523  0.2995 -1.2843 -0.0996
23450SOL    HW282410   5.678   1.380   4.360  1.9718  1.4535  0.1820
23451SOL     OW82411   8.119   4.683   7.229  0.0653  0.2164 -0.6394
23451SOL    HW182412   8.048   4.646   7.170 -0.6545  1.5517 -0.6400
23451SOL    HW282413   8.111   4.783   7.232 -0.4270  0.1403  2.3077
23452SOL     OW82414   9.922   7.370   7.946  0.3792  0.1571 -0.1289
23452SOL    HW182415   9.863   7.382   8.027  0.4098 -0.4083 -0.0225
23452SOL    HW282416   9.864   7.356   7.865  0.3580  0.1749 -0.1175
23453SOL     OW82417   9.657   6.993   3.293 -0.0037  0.1193  0.9926
23453SOL    HW182418   9.614   6.907   3.321  0.3064 -0.5584 -0.5815
23453SOL    HW282419   9.653   7.058   3.369  0.4705 -1.5405  2.4602
23454SOL     OW82420   7.390   1.276   0.082  0.5000 -0.8553  0.6425
23454SOL    HW182421   7.467   1.339   0.094 -2.0500  2.3798  0.5886
23454SOL    HW282422   7.366   1.236   0.170 -0.9758  2.1026  1.6506
23455SOL     OW82423   0.177   1.385   7.282  0.6172 -0.2961 -0.4975
23455SOL    HW182424   0.236   1.465   7.268 -0.2969  0.5927  0.7351
23455SOL    HW282425   0.207   1.311   7.221  0.7308  1.3658 -2.5146
23456SOL     OW82426   8.390   8.320   2.328  0.1489  0.0693  0.2140
23456SOL    HW182427   8.462   8.386   2.309 -1.6984  2.5007  1.4958
23456SOL    HW282428   8.354   8.285   2.241 -0.0534  2.0961 -0.5511
23457SOL     OW82429   2.094   8.080   8.550  0.9567  0.0056 -0.2202
23457SOL    HW182430   2.090   8.108   8.646  1.2260 -0.7768  0.0272
23457SOL    HW282431   2.091   8.160   8.491 -1.1858  0.3952  0.3945
23458SOL     OW82432   3.515   8.713   5.758  0.1712 -0.1702  0.3227
23458SOL    HW182433   3.496   8.722   5.856  0.7805  0.0672  0.4195
23458SOL    HW282434   3.613   8.698   5.744  0.0017 -0.7622 -0.2163
23459SOL     OW82435   7.524   5.704   4.359 -0.3761 -0.0208  0.2518
23459SOL    HW182436   7.608   5.724   4.309 -0.1320 -1.4401  0.0773
23459SOL    HW282437   7.448   5.754   4.317  0.6240  2.5306  1.3899
23460SOL     OW82438   2.495   5.975   2.155  0.6499  0.1692 -0.6232
23460SOL    HW182439   2.538   5.885   2.162  1.7380  0.6744 -0.6244
23460SOL    HW282440   2.407   5.967   2.109 -0.5473 -1.3048  1.8009
23461SOL     OW82441   1.016   7.065   8.227 -0.1393 -0.1123 -0.5246
23461SOL    HW182442   0.963   6.994   8.273  0.7756 -0.0650  0.6517
23461SOL    HW282443   1.113   7.052   8.248  0.2335  0.3144 -1.9250
23462SOL     OW82444   7.603   0.464   3.763 -0.0411  0.8021  0.0628
23462SOL    HW182445   7.668   0.461   3.687  0.1056  2.2086  0.1351
23462SOL    HW282446   7.511   0.450   3.728  0.1038  0.6616 -0.2651
23463SOL     OW82447   7.385   7.839   2.585 -0.0497  0.1259 -0.0778
23463SOL    HW182448   7.448   7.908   2.621 -0.2406  0.2596 -0.0025
23463SOL    HW282449   7.391   7.838   2.485 -0.4214  0.6079 -0.1077
23464SOL     OW82450   8.596   4.772   3.887  0.2049 -0.0909  0.4720
23464SOL    HW182451   8.582   4.677   3.914 -0.6579 -0.2189 -0.4180
23464SOL    HW282452   8.694   4.790   3.878  0.3835 -0.8134  0.9082
23465SOL     OW82453   0.663   6.727   4.335  0.1859 -0.0280 -0.3509
23465SOL    HW182454   0.721   6.646   4.343  0.5868  0.2375 -0.5985
23465SOL    HW282455   0.583   6.705   4.279  0.2854 -0.2601 -0.4018
23466SOL     OW82456   8.648   5.625   1.643  0.0648  0.4861  0.0339
23466SOL    HW182457   8.628   5.527   1.643  2.8962 -0.1260  0.2018
23466SOL    HW282458   8.573   5.675   1.599 -0.7441 -1.8844 -1.3301
23467SOL     OW82459   5.867   2.881   9.997  0.3562 -0.0202  0.4608
23467SOL    HW182460   5.824   2.791   9.999 -0.6891  0.4736  0.5742
23467SOL    HW282461   5.921   2.890   9.913  0.1105 -0.5832  0.2393
23468SOL     OW82462   9.000   4.665   6.913  0.7541  0.0435  0.6665
23468SOL    HW182463   8.911   4.697   6.882  0.7043 -0.5926  0.1305
23468SOL    HW282464   9.036   4.728   6.982  0.8278  1.4864 -0.6349
23469SOL     OW82465   6.328   5.143   9.742 -0.2731 -0.7648  0.1979
23469SOL    HW182466   6.408   5.112   9.691  0.3467  1.1675 -0.0480
23469SOL    HW282467   6.354   5.164   9.836 -0.2800  0.8080 -0.1457
23470SOL     OW82468   5.124   9.778   6.908  0.1782 -0.4438  0.1395
23470SOL    HW182469   5.051   9.838   6.942 -0.1595 -0.6934 -0.1440
23470SOL    HW282470   5.091   9.727   6.828  1.5503  1.5160 -1.7486
23471SOL     OW82471   5.091   6.068   7.947 -0.2002  0.0625 -0.3481
23471SOL    HW182472   5.109   6.084   8.044 -0.1504  0.7654 -0.4687
23471SOL    HW282473   5.020   5.998   7.937 -1.1459  0.9194  0.2262
23472SOL     OW82474   6.767   2.267   4.904 -0.2365  0.6588 -0.7144
23472SOL    HW182475   6.835   2.334   4.873 -0.2254  1.2559  0.5618
23472SOL    HW282476   6.757   2.195   4.835  2.3078  0.1093 -0.5720
23473SOL     OW82477   9.478   3.400   1.508 -0.0319  0.1018 -0.5968
23473SOL    HW182478   9.450   3.307   1.484  1.0861 -0.0700 -1.2885
23473SOL    HW282479   9.538   3.398   1.587 -1.6724  0.4414  0.6880
23474SOL     OW82480   9.168   1.055   4.788 -0.7100 -0.2345 -0.1156
23474SOL    HW182481   9.206   1.135   4.741 -0.8622  0.4571  0.9214
23474SOL    HW282482   9.129   0.992   4.721 -1.9302  1.2624 -0.8262
23475SOL     OW82483   6.352   1.174   8.745  0.4803  0.0555  0.5513
23475SOL    HW182484   6.311   1.215   8.664  0.3875 -1.7984 -0.3584
23475SOL    HW282485   6.294   1.100   8.779  1.0919  0.0481  1.6072
23476SOL     OW82486   2.618   6.192   9.801  0.3196  0.9204 -0.1236
23476SOL    HW182487   2.537   6.154   9.846  0.6784  1.4881  1.0204
23476SOL    HW282488   2.590   6.265   9.739 -0.1761  0.1459 -0.8206
23477SOL     OW82489   7.250   8.734   3.275  0.4008  0.0180  0.1014
23477SOL    HW182490   7.344   8.735   3.242  0.0276  1.6572 -1.0020
23477SOL    HW282491   7.188   8.750   3.198 -0.6692  0.8364  1.1119
23478SOL     OW82492   1.283   4.564   0.331 -0.6347 -0.1110  0.4176
23478SOL    HW182493   1.321   4.581   0.423 -1.1761 -0.8025  0.7688
23478SOL    HW282494   1.205   4.502   0.338 -1.3234  0.6531 -0.3969
23479SOL     OW82495   8.540   9.208   4.215  0.0726 -0.3346 -0.0584
23479SOL    HW182496   8.449   9.166   4.216 -0.5449  0.9681  1.5000
23479SOL    HW282497   8.574   9.218   4.309  1.1846  0.5121 -0.5344
23480SOL     OW82498   4.840   2.545   8.382 -0.2043 -0.5868  0.0857
23480SOL    HW182499   4.746   2.542   8.348 -0.4752  0.5422  0.6992
23480SOL    HW282500   4.900   2.501   8.316 -1.1882 -1.4818 -0.2280
23481SOL     OW82501   6.481   3.017   0.470 -0.4103 -0.0567 -0.4022
23481SOL    HW182502   6.422   2.985   0.544 -0.9260 -0.8893 -1.1665
23481SOL    HW282503   6.576   3.022   0.502 -0.5694 -0.7934  0.1976
23482SOL     OW82504   2.773   1.858   5.406  0.0790  0.4473 -0.3341
23482SOL    HW182505   2.857   1.872   5.459  0.7255 -2.6937 -0.4140
23482SOL    HW282506   2.786   1.890   5.313  2.4036 -2.9550 -1.2706
23483SOL     OW82507   5.762   9.555   2.904  0.1391  0.4768  0.5136
23483SOL    HW182508   5.702   9.635   2.912  3.6935  3.2419  0.5640
23483SOL    HW282509   5.801   9.550   2.812  1.9289  0.2920  1.2596
23484SOL     OW82510   1.706   2.838   3.305 -0.0851 -0.3981 -0.3294
23484SOL    HW182511   1.797   2.867   3.333 -0.0218 -0.1374 -0.8144
23484SOL    HW282512   1.683   2.752   3.352 -0.3267  0.4813  1.2096
23485SOL     OW82513   8.984   8.713  10.053  0.1059 -0.1664  0.2327
23485SOL    HW182514   8.974   8.679  10.146  1.0563  0.9777  0.7775
23485SOL    HW282515   8.901   8.694  10.001 -0.3123 -1.0916  1.2222
23486SOL     OW82516   6.385   9.276   3.062  0.0577 -0.4060 -0.7846
23486SOL    HW182517   6.390   9.375   3.069 -0.3934 -0.4065 -0.4151
23486SOL    HW282518   6.290   9.246   3.074  0.4458 -1.0163  1.0202
23487SOL     OW82519   2.785   7.741   3.280 -0.3411  0.4591  0.0457
23487SOL    HW182520   2.870   7.783   3.248  0.0364  0.0612  0.5137
23487SOL    HW282521   2.784   7.645   3.253  0.2595 -0.0368  1.7552
23488SOL     OW82522   5.345   0.977   8.746 -0.2340  0.0206  0.0905
23488SOL    HW182523   5.252   0.974   8.784  0.2532  0.6706  1.3511
23488SOL    HW282524   5.410   0.945   8.815  0.6560  1.1514 -0.2206
23489SOL     OW82525   2.084   4.252   2.322 -0.1415 -0.0641 -0.4855
23489SOL    HW182526   2.044   4.334   2.281 -1.1024 -0.2302  0.1151
23489SOL    HW282527   2.108   4.188   2.249 -2.6162 -0.7085 -0.7631
23490SOL     OW82528   8.841   1.355   3.652  0.1870 -0.0212 -0.0627
23490SOL    HW182529   8.803   1.357   3.560  0.7997 -2.0949 -0.3957
23490SOL    HW282530   8.905   1.431   3.664  0.4209  0.0082 -1.4991
23491SOL     OW82531   9.596   7.667   9.485  0.6526 -0.1231  0.1916
23491SOL    HW182532   9.648   7.647   9.402  2.3579 -0.2145  1.2646
23491SOL    HW282533   9.562   7.582   9.524  1.8634 -0.3031  0.8709
23492SOL     OW82534   7.595   3.212   3.625  0.2099  0.0674  0.3717
23492SOL    HW182535   7.514   3.218   3.568  0.2595 -0.8048  0.2012
23492SOL    HW282536   7.671   3.175   3.571  0.7750  1.0904  0.4694
23493SOL     OW82537   7.968   8.548   8.057  0.2609  0.1632 -0.0814
23493SOL    HW182538   8.039   8.513   7.996  0.3116 -0.1371  0.1464
23493SOL    HW282539   7.951   8.644   8.037 -0.8177 -0.3273 -1.6381
23494SOL     OW82540   5.679   2.064   9.317  0.0750 -0.2022 -0.2568
23494SOL    HW182541   5.629   1.992   9.366  0.7074  0.3839  1.2877
23494SOL    HW282542   5.713   2.028   9.230 -0.8145 -1.3549 -0.1457
23495SOL     OW82543   2.295   6.824   5.406 -0.6261  0.1763 -0.3113
23495SOL    HW182544   2.266   6.910   5.365  0.2835 -0.1475 -1.6493
23495SOL    HW282545   2.393   6.826   5.424 -0.9965  0.2985  1.8489
23496SOL     OW82546   8.372   5.759   3.546  0.3635  0.1563 -0.0582
23496SOL    HW182547   8.466   5.735   3.568  0.1925 -1.4157 -0.9665
23496SOL    HW282548   8.345   5.840   3.598  1.1198 -1.3461  2.7723
23497SOL     OW82549   6.279   1.868   1.074  0.5279 -0.6943  0.5668
23497SOL    HW182550   6.360   1.893   1.021  0.4892 -0.2786  0.6998
23497SOL    HW282551   6.268   1.768   1.074  0.3072 -0.6760 -0.5318
23498SOL     OW82552   2.298   4.350   0.413 -0.5261 -0.0097  0.2737
23498SOL    HW182553   2.391   4.315   0.428 -1.7160 -2.9836  1.0159
23498SOL    HW282554   2.282   4.428   0.473  1.6253  0.8302 -0.1841
23499SOL     OW82555   0.822   3.529   0.604 -0.8545 -0.1175  0.2839
23499SOL    HW182556   0.845   3.548   0.700 -2.4171 -2.5019  1.1815
23499SOL    HW282557   0.890   3.467   0.565 -2.3799 -2.3350  1.0927
23500SOL     OW82558   3.836   0.578   7.923  0.2333  0.0293  0.1072
23500SOL    HW182559   3.777   0.565   7.843 -1.0721  2.4105  0.6432
23500SOL    HW282560   3.896   0.657   7.907  0.9314 -0.3209  0.9501
23501SOL     OW82561   8.400   7.804   4.587  0.3365 -0.9329 -0.0139
23501SOL    HW182562   8.420   7.896   4.620 -1.6680 -0.4292 -0.1851
23501SOL    HW282563   8.361   7.749   4.662 -0.0794 -1.1271 -0.3746
23502SOL     OW82564   8.011   8.062   8.239 -0.0536 -0.2921  0.0971
23502SOL    HW182565   8.028   7.985   8.300 -0.7818 -0.1749  0.4524
23502SOL    HW282566   7.971   8.029   8.153  0.2360 -0.3773 -0.0048
23503SOL     OW82567   7.310   0.627   3.363  0.0260 -0.2811  0.1374
23503SOL    HW182568   7.318   0.665   3.454 -0.1342  1.7839 -0.6872
23503SOL    HW282569   7.393   0.645   3.311  0.8685 -3.0371  0.4057
23504SOL     OW82570   8.005   4.471   9.623 -0.4130 -0.4251  0.1604
23504SOL    HW182571   8.063   4.397   9.589  0.2777 -0.1851  0.8053
23504SOL    HW282572   8.062   4.549   9.650 -1.2205  1.1111 -2.2793
23505SOL     OW82573   8.437   5.414   1.599  0.0926 -0.4343 -0.4827
23505SOL    HW182574   8.390   5.471   1.666  1.0172  0.9784 -0.9898
23505SOL    HW282575   8.430   5.456   1.509  2.4474 -0.0718 -0.5388
23506SOL     OW82576   7.966   5.394   7.439 -0.6652 -0.0508  1.1506
23506SOL    HW182577   7.984   5.320   7.374 -2.0403 -0.9588  1.7880
23506SOL    HW282578   8.052   5.422   7.481  0.0121 -0.5794  0.1429
23507SOL     OW82579   9.769   7.898   8.994  0.5332 -0.3346 -0.0729
23507SOL    HW182580   9.715   7.925   8.914  2.5725 -0.0464 -1.3861
23507SOL    HW282581   9.794   7.801   8.985  2.0750  0.0998 -0.5724
23508SOL     OW82582   6.119   9.163   1.504  0.7952  0.4573 -0.1570
23508SOL    HW182583   6.137   9.081   1.558 -1.5606  0.5094  0.7430
23508SOL    HW282584   6.176   9.238   1.538  1.4376 -0.2484  0.3555
23509SOL     OW82585   0.380   3.859   9.029 -0.1830 -0.1338 -0.4636
23509SOL    HW182586   0.285   3.831   9.013  0.0231 -1.3551  0.3985
23509SOL    HW282587   0.442   3.789   8.995  0.4438  0.9831 -1.6593
23510SOL     OW82588   9.721   8.949   7.487 -0.5891 -0.6239  0.9885
23510SOL    HW182589   9.731   9.034   7.539  1.0101 -0.0810 -0.1708
23510SOL    HW282590   9.811   8.918   7.456 -1.3490 -1.8360 -0.0352
23511SOL     OW82591   6.710   2.989   4.390  0.2741 -0.3198 -0.3075
23511SOL    HW182592   6.698   3.011   4.293 -0.9732  1.0344  0.1553
23511SOL    HW282593   6.626   2.949   4.426  1.1417 -2.0261 -0.0707
23512SOL     OW82594   3.070   6.154   4.111  0.2432  0.2628 -0.5590
23512SOL    HW182595   3.040   6.060   4.094 -0.5486  0.4099  0.0051
23512SOL    HW282596   3.018   6.216   4.052  0.3085  0.4053 -0.4659
23513SOL     OW82597   8.990   2.344   9.112  0.0138  0.2588 -0.0102
23513SOL    HW182598   9.029   2.381   9.028 -0.9398  1.4056  0.0368
23513SOL    HW282599   8.922   2.408   9.148 -1.9348 -1.7169 -0.1103
23514SOL     OW82600   9.547   7.845   7.990 -0.4746  0.4683 -0.4807
23514SOL    HW182601   9.463   7.859   7.939 -1.1604 -0.1305  0.4699
23514SOL    HW282602   9.533   7.775   8.060  0.8932  0.1492 -0.5100
23515SOL     OW82603   4.204   9.845   3.239 -0.2369  0.0624 -0.3385
23515SOL    HW182604   4.279   9.907   3.258 -0.4311  0.4443 -0.8099
23515SOL    HW282605   4.153   9.828   3.324  0.8050 -0.7795  0.1366
23516SOL     OW82606   0.258   6.697   0.948 -0.5003  0.1471 -0.1183
23516SOL    HW182607   0.346   6.708   0.902  0.3210 -2.5947  0.7348
23516SOL    HW282608   0.188   6.670   0.881 -0.4291  1.0419 -0.5657
23517SOL     OW82609   8.870   9.869   1.813 -0.1474  0.1698 -0.0661
23517SOL    HW182610   8.925   9.906   1.739  0.4565 -2.2483 -0.8565
23517SOL    HW282611   8.778   9.848   1.779  0.0945 -0.8322 -0.1327
23518SOL     OW82612   2.521   2.218   9.107  0.8865  0.1519  0.2542
23518SOL    HW182613   2.574   2.270   9.174 -0.8420  0.9878  1.0266
23518SOL    HW282614   2.518   2.122   9.135  1.1579  0.2858  0.7534
23519SOL     OW82615   4.127   4.839   2.203  0.1171  0.2316  0.2702
23519SOL    HW182616   4.173   4.832   2.292  0.2820 -2.7647  0.0075
23519SOL    HW282617   4.060   4.765   2.194  0.5196  0.1384 -2.3221
23520SOL     OW82618   7.193   4.243   2.413  0.3823 -0.1414  0.2611
23520SOL    HW182619   7.127   4.289   2.354 -0.0551 -0.5213  0.4544
23520SOL    HW282620   7.183   4.276   2.507 -0.5513 -1.2804  0.5769
23521SOL     OW82621   2.263   9.621   9.622  0.6483  0.7836  0.3059
23521SOL    HW182622   2.279   9.538   9.568  0.9265  1.0390 -0.0081
23521SOL    HW282623   2.287   9.701   9.567 -2.7946  1.2760 -0.5988
23522SOL     OW82624   1.716   7.970   4.403 -0.5197  0.3737 -0.0043
23522SOL    HW182625   1.798   8.024   4.423  0.1525  0.2084 -2.1568
23522SOL    HW282626   1.688   7.985   4.309 -0.6804 -2.5066 -0.4853
23523SOL     OW82627   8.446   8.649   1.006 -0.0669 -0.3286  0.4572
23523SOL    HW182628   8.525   8.590   0.989 -0.5148 -1.2125  1.3476
23523SOL    HW282629   8.365   8.606   0.966 -0.1283  0.4633 -0.2597
23524SOL     OW82630   7.301   3.311   7.506  0.2050 -0.1825 -0.3741
23524SOL    HW182631   7.251   3.390   7.540  0.5050  0.6037 -1.7075
23524SOL    HW282632   7.273   3.229   7.556 -2.8558  0.1279 -1.4802
23525SOL     OW82633   3.227   2.421   1.503 -0.0438  0.0314 -0.1959
23525SOL    HW182634   3.230   2.380   1.594  1.3747  0.7758  0.1088
23525SOL    HW282635   3.295   2.377   1.445  1.5020  1.9372  0.1391
23526SOL     OW82636   3.460   8.497   5.448 -0.0027  0.4781  0.3294
23526SOL    HW182637   3.493   8.512   5.541 -2.8783  2.7712  1.0375
23526SOL    HW282638   3.455   8.584   5.400 -2.5970 -0.1145 -0.5531
23527SOL     OW82639   4.917   7.867   5.945 -0.1481 -0.4537 -0.3323
23527SOL    HW182640   4.924   7.944   5.882 -0.8881  0.2900  0.4885
23527SOL    HW282641   4.943   7.783   5.898 -1.2158  0.0140 -1.7982
23528SOL     OW82642   8.451   2.403   1.568  0.3399  0.2419 -0.0915
23528SOL    HW182643   8.435   2.499   1.545  0.1732  0.4660  0.9275
23528SOL    HW282644   8.495   2.357   1.491  0.7005  1.2092 -0.4727
23529SOL     OW82645   4.774   8.577   8.155  0.0824 -0.4214  0.3579
23529SOL    HW182646   4.852   8.536   8.202  1.8113  1.5840 -0.6803
23529SOL    HW282647   4.745   8.660   8.203 -1.2290 -0.9987  0.5773
23530SOL     OW82648   7.368   6.323   0.287  0.4277 -0.2559 -0.0344
23530SOL    HW182649   7.412   6.385   0.353 -1.2179  0.2836  0.5651
23530SOL    HW282650   7.294   6.273   0.332  1.8913 -2.8896 -0.4400
23531SOL     OW82651   3.792   9.327   8.326 -0.0842 -0.8691 -0.7592
23531SOL    HW182652   3.849   9.287   8.254  1.8517  2.0770 -0.9295
23531SOL    HW282653   3.831   9.305   8.415  0.8483  0.4101 -0.8434
23532SOL     OW82654   2.334   1.576   8.419  0.8107  0.1069  0.6566
23532SOL    HW182655   2.291   1.635   8.350 -1.1919 -2.6851 -0.6095
23532SOL    HW282656   2.427   1.554   8.391  0.0447 -0.9204 -1.1645
23533SOL     OW82657   5.013   5.052   9.747  0.1624  0.3680 -0.0011
23533SOL    HW182658   4.945   5.006   9.689  0.1549 -2.2676  1.9883
23533SOL    HW282659   5.020   5.003   9.834  2.0191  2.7418  1.2248
23534SOL     OW82660   0.732   3.746   8.085 -0.3044  0.1883  0.2255
23534SOL    HW182661   0.637   3.739   8.115 -0.6713  2.0558 -0.4177
23534SOL    HW282662   0.764   3.657   8.054 -1.9933 -0.3616  0.0183
23535SOL     OW82663   0.458   3.086   0.835  0.6556 -0.2507  0.5595
23535SOL    HW182664   0.482   3.086   0.737  0.7326 -0.7770  0.5768
23535SOL    HW282665   0.370   3.042   0.847  0.6576 -0.2068  0.7338
23536SOL     OW82666   7.831   8.161   4.448 -0.5440 -0.5182  0.2894
23536SOL    HW182667   7.806   8.086   4.386  0.4642 -0.6840  0.0797
23536SOL    HW282668   7.820   8.248   4.401 -0.4301 -0.6069  0.0986
23537SOL     OW82669   9.645   4.259   5.602 -0.2537 -0.6541 -0.0626
23537SOL    HW182670   9.584   4.186   5.569  2.0531 -2.9798  0.6196
23537SOL    HW282671   9.682   4.233   5.691  2.9049 -0.0297 -1.1431
23538SOL     OW82672   8.580   5.260   1.837  0.6639 -0.3747  0.4634
23538SOL    HW182673   8.574   5.286   1.933  3.5252  0.3525  0.4991
23538SOL    HW282674   8.506   5.304   1.786 -0.4406 -0.1818  2.1908
23539SOL     OW82675   7.650   6.592   7.378 -0.2059 -0.1928  0.2506
23539SOL    HW182676   7.675   6.676   7.427 -1.4249  1.1750 -1.4196
23539SOL    HW282677   7.706   6.584   7.296 -0.7439 -0.5256 -0.0842
23540SOL     OW82678   6.841   5.786   0.122  0.2605  0.1300 -0.2808
23540SOL    HW182679   6.884   5.821   0.039  3.3895  1.6744  1.9154
23540SOL    HW282680   6.742   5.779   0.107  0.7828 -0.2392 -4.2912
23541SOL     OW82681   3.743   7.279   3.563  1.3503  0.3107  0.3797
23541SOL    HW182682   3.819   7.217   3.543  0.6632  0.1258 -1.8484
23541SOL    HW282683   3.682   7.237   3.629  1.0420 -1.3000 -0.8951
23542SOL     OW82684   6.349   2.828   0.719  0.0172  0.1024  0.4695
23542SOL    HW182685   6.261   2.875   0.730 -0.1393 -0.1671  0.3819
23542SOL    HW282686   6.334   2.741   0.672  0.5134  0.7168 -0.8536
23543SOL     OW82687   4.114   0.860   2.510  0.6314  0.6190 -0.3243
23543SOL    HW182688   4.192   0.852   2.448  1.5680 -0.6301  0.9809
23543SOL    HW282689   4.146   0.880   2.602 -0.4137 -1.7213  0.5977
23544SOL     OW82690   2.700   5.276   6.239  0.3047  0.3959  0.4493
23544SOL    HW182691   2.700   5.287   6.339  0.0178 -0.6223  0.5659
23544SOL    HW282692   2.607   5.255   6.209  0.6039 -0.3949  0.0851
23545SOL     OW82693   1.303   7.673   7.392 -0.2034 -0.5299 -0.1845
23545SOL    HW182694   1.221   7.645   7.442  1.3807 -2.6054  1.3462
23545SOL    HW282695   1.325   7.768   7.416 -1.9865 -0.0263 -0.4321
23546SOL     OW82696   8.485   4.218   9.314  0.3923 -0.0838 -0.3512
23546SOL    HW182697   8.453   4.306   9.346 -1.1674 -1.9192  3.4032
23546SOL    HW282698   8.423   4.183   9.243 -0.7085  0.4577  0.3404
23547SOL     OW82699   7.340   1.730   4.759 -0.9726  0.3033 -0.2040
23547SOL    HW182700   7.324   1.822   4.794  1.1537  1.5677 -2.4021
23547SOL    HW282701   7.268   1.706   4.693 -0.3105  1.2894 -1.2958
23548SOL     OW82702   2.281   3.286   3.595 -0.7525  0.3728 -0.1311
23548SOL    HW182703   2.271   3.361   3.660  1.6547  0.2172  0.4714
23548SOL    HW282704   2.287   3.323   3.502 -0.0325  0.8964  0.1216
23549SOL     OW82705   1.376   4.474   6.996  0.4442 -0.1371  0.1224
23549SOL    HW182706   1.462   4.433   7.028  0.6600 -0.4444 -0.8456
23549SOL    HW282707   1.305   4.404   6.995  0.5332 -0.2215 -0.4346
23550SOL     OW82708   7.606   2.419   5.383 -0.1984  0.2030 -0.2633
23550SOL    HW182709   7.687   2.363   5.399  1.3851  2.3824 -0.3923
23550SOL    HW282710   7.584   2.470   5.466 -0.8412  0.3889 -0.5440
23551SOL     OW82711   7.706   9.200   1.882  0.3502  0.7283 -0.1121
23551SOL    HW182712   7.740   9.129   1.943  0.4915  1.5177  0.7485
23551SOL    HW282713   7.611   9.221   1.905  0.2852  0.7620 -0.4110
23552SOL     OW82714   0.910   2.748   4.236  0.0742  0.5185  0.5731
23552SOL    HW182715   0.814   2.726   4.223  0.1151  0.8135 -0.2435
23552SOL    HW282716   0.924   2.785   4.328 -0.5347  0.1886  0.8002
23553SOL     OW82717   8.367   1.581   0.301 -0.2628 -0.1019 -0.7198
23553SOL    HW182718   8.369   1.491   0.257 -1.0915  0.1087 -1.2036
23553SOL    HW282719   8.345   1.570   0.398 -1.9818 -0.3057 -1.1211
23554SOL     OW82720   8.479   6.947   7.981  0.0915 -0.1462  0.2160
23554SOL    HW182721   8.443   6.900   7.900  0.6227  0.7302 -0.5438
23554SOL    HW282722   8.462   7.045   7.972  2.1091  0.2249  0.1253
23555SOL     OW82723   3.948   5.802   8.522  0.3342 -0.1191 -0.3076
23555SOL    HW182724   4.037   5.846   8.537  0.5343 -0.5772 -0.1587
23555SOL    HW282725   3.962   5.708   8.493 -0.1274 -0.9628  2.1550
23556SOL     OW82726   3.529   9.838   9.129  0.0472  0.4854  0.3692
23556SOL    HW182727   3.479   9.905   9.184  0.7167  1.0626  0.2864
23556SOL    HW282728   3.557   9.880   9.043 -1.0197 -0.4224 -0.4337
23557SOL     OW82729   7.982   6.201   0.182 -0.4406  0.1685  0.0251
23557SOL    HW182730   7.919   6.133   0.144  1.4220 -1.1254 -0.8519
23557SOL    HW282731   8.021   6.255   0.107 -0.6474  1.0755  0.5706
23558SOL     OW82732   2.989   6.250   8.438  0.3147 -0.5163 -0.1888
23558SOL    HW182733   2.971   6.178   8.504  0.3895  0.8519  1.3628
23558SOL    HW282734   3.065   6.224   8.379  0.0601 -1.8758  0.0784
23559SOL     OW82735   3.170   8.867   4.300 -0.2266  0.1945 -1.1727
23559SOL    HW182736   3.144   8.772   4.318 -1.7768  0.9767  0.9415
23559SOL    HW282737   3.259   8.886   4.341  0.1166 -0.3453 -1.6590
23560SOL     OW82738   4.868   8.955   3.527 -0.1432 -0.0953 -0.4381
23560SOL    HW182739   4.817   8.953   3.613  0.4920  0.5303 -0.0352
23560SOL    HW282740   4.806   8.975   3.452 -0.3627  1.4996  0.1545
23561SOL     OW82741   3.254   0.668   5.640  0.0755 -0.1268 -0.2818
23561SOL    HW182742   3.347   0.677   5.604  0.1414  0.0817 -0.0578
23561SOL    HW282743   3.196   0.628   5.570  0.1016  0.7140 -0.7966
23562SOL     OW82744   3.559   2.415   0.017 -0.3878 -0.2597 -0.3404
23562SOL    HW182745   3.639   2.406   0.077  0.0933  0.5564 -0.8438
23562SOL    HW282746   3.588   2.404  -0.078 -0.4827  2.1765 -0.6848
23563SOL     OW82747   8.129   3.267   5.613  0.2790  0.4503 -0.1289
23563SOL    HW182748   8.215   3.250   5.565  0.1896  1.4309 -0.6505
23563SOL    HW282749   8.111   3.366   5.614 -1.2488  0.1873 -0.7433
23564SOL     OW82750   3.412   0.542   0.920  0.0497 -0.4042  0.4076
23564SOL    HW182751   3.415   0.642   0.932 -1.7111 -0.3856  0.8042
23564SOL    HW282752   3.368   0.500   1.000 -2.1165 -1.2078 -1.1551
23565SOL     OW82753   9.441   4.777   1.554  0.5070 -0.0316  0.1438
23565SOL    HW182754   9.464   4.681   1.566  0.8030  0.0188 -0.0184
23565SOL    HW282755   9.417   4.794   1.458  1.5819  0.2906 -0.0807
23566SOL     OW82756   9.790   6.604   9.572 -0.0669 -0.3847  0.2199
23566SOL    HW182757   9.866   6.642   9.520  1.0291 -0.3193  1.8442
23566SOL    HW282758   9.800   6.627   9.669 -1.1627 -1.9434  0.7308
23567SOL     OW82759   7.432   2.219   9.285  0.1228  0.2378 -0.2430
23567SOL    HW182760   7.491   2.207   9.205  0.8821  0.5329  0.2731
23567SOL    HW282761   7.484   2.203   9.368 -0.7011 -0.1965  0.2026
23568SOL     OW82762   1.763   3.895   4.865 -0.3544 -0.4089 -0.1376
23568SOL    HW182763   1.794   3.987   4.846  0.0324 -0.5023  0.0366
23568SOL    HW282764   1.803   3.863   4.951 -2.4681  0.2015  1.1028
23569SOL     OW82765   5.079   9.029   3.210  0.4387  0.1994  0.3376
23569SOL    HW182766   5.111   9.109   3.158 -0.3913  0.8280  0.7838
23569SOL    HW282767   4.980   9.020   3.198  0.7077 -1.5505 -0.7885
23570SOL     OW82768   2.774   0.373   3.891  0.0553  0.0345 -0.0637
23570SOL    HW182769   2.763   0.329   3.802 -0.9433  1.4349 -0.6454
23570SOL    HW282770   2.702   0.441   3.905 -0.0170 -0.4162  1.9723
23571SOL     OW82771   9.529   4.071   2.058 -0.0845 -0.3741  0.3094
23571SOL    HW182772   9.436   4.104   2.043 -0.0201 -0.1892  0.3105
23571SOL    HW282773   9.526   3.981   2.102 -0.2620 -0.1025  0.8665
23572SOL     OW82774   6.970   1.999   1.068  0.3119 -0.5949 -0.3735
23572SOL    HW182775   6.891   2.022   1.123 -1.2069 -1.2641 -2.2109
23572SOL    HW282776   6.975   1.900   1.055 -1.1931 -0.3185 -3.9160
23573SOL     OW82777   0.022   9.867   5.685 -0.1275  0.3220 -0.1695
23573SOL    HW182778  -0.043   9.909   5.623 -1.1584 -1.6782 -0.4942
23573SOL    HW282779   0.023   9.768   5.671  0.7978  0.0002  1.8834
23574SOL     OW82780   7.567   4.517   7.482  0.4118  1.0422 -0.0708
23574SOL    HW182781   7.499   4.547   7.549  1.0872  0.9035  0.7003
23574SOL    HW282782   7.532   4.529   7.390 -0.3496  1.7185  0.3014
23575SOL     OW82783   1.830   2.961   1.251 -0.0251  0.1214 -0.2757
23575SOL    HW182784   1.755   3.001   1.199 -0.0620  0.4160  0.0096
23575SOL    HW282785   1.887   3.033   1.289 -1.7567 -0.0124  2.7317
23576SOL     OW82786   9.013   6.357   9.673 -0.3630 -0.1055 -0.2496
23576SOL    HW182787   9.082   6.425   9.646 -0.9053  0.2204 -0.8526
23576SOL    HW282788   9.026   6.274   9.620 -0.9603  0.2645 -0.9805
23577SOL     OW82789   9.257   0.856   1.606  0.3685 -0.8056  0.3253
23577SOL    HW182790   9.311   0.863   1.690  2.7466  1.2811 -1.3186
23577SOL    HW282791   9.188   0.928   1.605 -1.0579 -2.1056  1.3878
23578SOL     OW82792   1.505   4.625   2.684 -0.4536 -0.0323  0.2908
23578SOL    HW182793   1.538   4.561   2.615 -0.5041  0.0601  0.1808
23578SOL    HW282794   1.451   4.697   2.640 -0.3034  0.1483  0.3990
23579SOL     OW82795   9.564   1.639   8.911 -0.0029  0.4622  0.4476
23579SOL    HW182796   9.504   1.599   8.981 -2.0615 -0.2570 -1.6820
23579SOL    HW282797   9.536   1.733   8.894 -0.5062  0.1411 -0.5126
23580SOL     OW82798   0.316   6.518   2.177  0.1105  0.4109  0.3121
23580SOL    HW182799   0.343   6.596   2.121  1.6088  0.3029  0.8707
23580SOL    HW282800   0.362   6.436   2.144 -0.3844  0.0196  0.5935
23581SOL     OW82801   0.053   7.575   0.809 -0.0940 -0.3617 -0.2201
23581SOL    HW182802   0.068   7.551   0.905  0.7302 -2.5777 -0.8829
23581SOL    HW282803  -0.033   7.534   0.777 -0.3218  0.2972 -0.4767
23582SOL     OW82804   0.549   0.815   7.751  0.4413  0.2500 -0.2444
23582SOL    HW182805   0.483   0.864   7.807  0.1559 -0.8440  0.4024
23582SOL    HW282806   0.506   0.733   7.712  1.4972 -0.6755  0.4856
23583SOL     OW82807   2.063   5.318   0.968  0.3491  0.3626  0.2422
23583SOL    HW182808   1.979   5.334   0.915  0.5386 -0.9680 -0.4787
23583SOL    HW282809   2.047   5.341   1.064 -1.0115 -0.3992  0.2130
23584SOL     OW82810   8.267   1.531   4.440  0.5437 -0.0853 -0.2113
23584SOL    HW182811   8.330   1.605   4.465  0.8981 -0.6107  0.4649
23584SOL    HW282812   8.315   1.464   4.384  0.5863 -0.4660  0.2715
23585SOL     OW82813   0.710   3.001   3.521 -0.6663  0.5544 -0.7266
23585SOL    HW182814   0.667   2.922   3.564 -0.5141  0.5907 -0.5089
23585SOL    HW282815   0.744   3.063   3.591 -3.3309  2.2244 -0.8313
23586SOL     OW82816   2.395   0.146   6.439  0.1714 -0.1402 -0.0085
23586SOL    HW182817   2.446   0.212   6.494  0.7860 -1.9749  1.7177
23586SOL    HW282818   2.458   0.074   6.408 -0.8874 -1.0495 -0.0577
23587SOL     OW82819   2.985   3.539   9.658 -0.2250  0.5340  0.4402
23587SOL    HW182820   3.011   3.634   9.640  0.1912  0.0701 -1.5365
23587SOL    HW282821   2.886   3.529   9.652 -0.0379  0.1884 -2.8533
23588SOL     OW82822   3.065   2.522   2.501  0.1931  0.6544 -0.0281
23588SOL    HW182823   2.972   2.558   2.497 -0.6822 -1.6320 -1.7106
23588SOL    HW282824   3.061   2.422   2.514  2.4232  0.6444  0.6812
23589SOL     OW82825   3.867   5.430   9.180  0.2031  0.1968 -0.2104
23589SOL    HW182826   3.808   5.393   9.108 -2.3286 -0.4575  2.1008
23589SOL    HW282827   3.823   5.509   9.222  2.6732  1.9460 -0.8334
23590SOL     OW82828   2.385   8.920   9.675 -0.6419  0.2591 -0.2143
23590SOL    HW182829   2.356   8.827   9.700 -0.0809 -0.7896 -3.2280
23590SOL    HW282830   2.449   8.954   9.743 -0.4743 -1.7723  0.6903
23591SOL     OW82831   4.127   9.683   8.390  0.3535 -0.4335 -0.0054
23591SOL    HW182832   4.068   9.743   8.444 -0.4225 -2.1943  1.1533
23591SOL    HW282833   4.078   9.598   8.370  1.4616 -0.7340 -1.5400
23592SOL     OW82834   9.132   9.450   6.195  0.8162  0.0808 -0.4078
23592SOL    HW182835   9.064   9.523   6.191  0.8647  0.1165 -0.6116
23592SOL    HW282836   9.093   9.366   6.159  0.3666 -0.3040  0.9591
23593SOL     OW82837   4.074   2.141   7.904  0.2089 -0.0957 -0.1873
23593SOL    HW182838   3.997   2.105   7.957  0.5861 -0.5784  0.0390
23593SOL    HW282839   4.040   2.198   7.830 -0.2705  1.9025  1.5182
23594SOL     OW82840   0.847   1.819   6.075 -0.2090  0.3732 -0.2981
23594SOL    HW182841   0.848   1.854   6.169 -1.1515 -1.3938  0.3847
23594SOL    HW282842   0.775   1.864   6.023  0.7073  1.7951 -0.3573
23595SOL     OW82843   0.216   1.062   2.959  0.4403  0.0718 -0.3712
23595SOL    HW182844   0.312   1.069   2.986 -0.3885  0.3374  2.7918
23595SOL    HW282845   0.168   1.002   3.023 -1.6771  0.6005 -1.4128
23596SOL     OW82846   8.983   6.682   3.667 -0.6402 -0.8238 -0.6188
23596SOL    HW182847   9.055   6.707   3.602 -1.4264 -0.4270 -1.3441
23596SOL    HW282848   9.025   6.651   3.753  0.4014 -1.1672 -1.2395
23597SOL     OW82849   4.412   2.863   7.937  0.2856  0.1332 -0.8429
23597SOL    HW182850   4.461   2.874   8.023 -0.2288  0.9290 -0.6467
23597SOL    HW282851   4.359   2.778   7.940 -0.2379  0.4807 -0.1196
23598SOL     OW82852   2.266   3.146   0.844 -0.0460  0.6767  0.4870
23598SOL    HW182853   2.230   3.178   0.931 -0.0617  2.7052 -0.2509
23598SOL    HW282854   2.238   3.050   0.830 -1.4731  0.8590  1.9138
23599SOL     OW82855   6.204   9.047   7.172  0.4576  0.2433 -0.5716
23599SOL    HW182856   6.285   9.046   7.113  2.0457 -0.8393  1.5552
23599SOL    HW282857   6.174   8.954   7.189  0.3763  0.4985  0.7672
23600SOL     OW82858   8.632   9.979   6.133  0.3198 -0.5432 -0.8922
23600SOL    HW182859   8.630  10.046   6.058  0.7300  0.0026 -0.4223
23600SOL    HW282860   8.577  10.013   6.209 -0.7865 -1.4827 -1.2572
23601SOL     OW82861   0.164   2.330   1.436  0.0081  0.8286  0.0472
23601SOL    HW182862   0.133   2.420   1.405  0.1661  0.0833 -2.3524
23601SOL    HW282863   0.119   2.307   1.523 -0.7612  2.7946  0.1805
23602SOL     OW82864   1.419   0.751   7.877  0.1009  0.7088 -0.2042
23602SOL    HW182865   1.505   0.708   7.905 -0.8768 -0.7261  0.6767
23602SOL    HW282866   1.425   0.850   7.891  1.1148  0.4693  1.1864
23603SOL     OW82867   0.442   0.628   8.104 -0.1554 -0.3957  0.3871
23603SOL    HW182868   0.524   0.652   8.052 -0.9009 -0.0192 -0.6215
23603SOL    HW282869   0.377   0.703   8.102 -0.8579 -0.9876  0.5351
23604SOL     OW82870   8.384   5.914   7.109 -0.3850 -0.6667  0.3656
23604SOL    HW182871   8.439   5.963   7.041 -0.5253 -1.2324 -0.1585
23604SOL    HW282872   8.362   5.976   7.184 -0.7042  0.1270 -0.3710
23605SOL     OW82873   9.792   1.228   6.377 -0.3824 -0.2559  0.3836
23605SOL    HW182874   9.720   1.173   6.335  1.9054 -1.4991 -1.9857
23605SOL    HW282875   9.815   1.190   6.466  0.7379 -2.8067 -0.9593
23606SOL     OW82876   2.791   6.145   3.112  0.8768 -1.0166 -0.2354
23606SOL    HW182877   2.781   6.140   3.211 -0.4502 -1.7917 -0.3962
23606SOL    HW282878   2.795   6.053   3.074  0.1980 -0.7383 -1.0053
23607SOL     OW82879   2.119   5.511   3.268 -0.0408 -0.8723 -0.4213
23607SOL    HW182880   2.213   5.533   3.242  0.5749 -0.9363  1.6382
23607SOL    HW282881   2.056   5.578   3.228  0.8960 -0.6715 -1.5859
23608SOL     OW82882   4.212   0.763   4.863  0.0546  0.0317 -0.7341
23608SOL    HW182883   4.186   0.769   4.959  1.0530  1.3370 -0.5376
23608SOL    HW282884   4.223   0.855   4.825 -0.7472 -0.4707 -2.2100
23609SOL     OW82885   0.719   4.501   5.238  0.1825 -0.4439 -0.3008
23609SOL    HW182886   0.634   4.451   5.256  1.1740 -3.2921 -2.9945
23609SOL    HW282887   0.785   4.439   5.197  2.5998  2.4246 -0.8794
23610SOL     OW82888   2.730   5.450   2.445 -0.0000 -0.3228  0.0208
23610SOL    HW182889   2.725   5.379   2.374 -1.2504  0.4261 -0.6608
23610SOL    HW282890   2.746   5.407   2.534  3.3115 -1.1606 -0.8968
23611SOL     OW82891   4.684   0.562   9.876 -0.1720  0.1117 -0.3054
23611SOL    HW182892   4.679   0.661   9.875 -1.4893  0.0518 -2.5740
23611SOL    HW282893   4.684   0.527   9.782  2.0505 -1.9599  0.4009
23612SOL     OW82894   1.732   5.731   9.867  0.3959 -1.0673 -0.4916
23612SOL    HW182895   1.822   5.690   9.852  1.6431  0.8085  1.6317
23612SOL    HW282896   1.697   5.704   9.956  0.3182  0.7607  0.0622
23613SOL     OW82897   2.528   7.758   6.754 -0.1127 -0.2207  0.0518
23613SOL    HW182898   2.573   7.672   6.779 -1.2934 -0.8378  0.0892
23613SOL    HW282899   2.518   7.815   6.836 -0.2741 -0.5053  0.2339
23614SOL     OW82900   7.670   6.750   6.613  0.1702  0.0696  0.3656
23614SOL    HW182901   7.766   6.779   6.607  0.3415 -0.4157  0.6609
23614SOL    HW282902   7.611   6.830   6.618  0.5464  0.3762 -0.0149
23615SOL     OW82903   3.253   5.257   5.608 -0.1800  0.5219 -0.5012
23615SOL    HW182904   3.218   5.351   5.607 -1.3605  0.0873 -1.0589
23615SOL    HW282905   3.179   5.194   5.628  0.7078 -0.2667  0.3442
23616SOL     OW82906   8.698   1.542   0.132 -0.1654  0.2948  0.0916
23616SOL    HW182907   8.643   1.624   0.146 -0.8541 -0.1526  0.0703
23616SOL    HW282908   8.637   1.462   0.126  0.6399 -0.6037  2.9893
23617SOL     OW82909   7.503   9.425   1.704  0.2665  0.1689 -0.1312
23617SOL    HW182910   7.490   9.505   1.645 -0.4178 -0.1914 -0.4714
23617SOL    HW282911   7.415   9.382   1.722  0.0443  1.9660  3.5546
23618SOL     OW82912   8.612   3.299   1.722  0.2942  0.0979  0.5108
23618SOL    HW182913   8.567   3.339   1.802  0.4452 -0.3666  0.8324
23618SOL    HW282914   8.588   3.201   1.717 -1.2003  0.5194 -1.0446
23619SOL     OW82915   7.990   6.880   1.479  0.5073 -0.1955  0.4869
23619SOL    HW182916   8.072   6.894   1.424  1.6803 -1.7863  1.7831
23619SOL    HW282917   7.999   6.927   1.567 -0.0602 -0.1856  0.5445
23620SOL     OW82918   5.118   2.120   7.863  0.5361  0.0286 -0.1079
23620SOL    HW182919   5.106   2.214   7.895 -0.9287 -0.2218  0.0932
23620SOL    HW282920   5.048   2.098   7.795  0.4766 -1.1194  0.3091
23621SOL     OW82921   1.904   2.964   5.402 -0.3066  0.5502 -0.2631
23621SOL    HW182922   1.995   2.997   5.375  0.4775  0.2528  1.9192
23621SOL    HW282923   1.875   3.009   5.486 -1.7756 -0.0523 -0.4239
23622SOL     OW82924   6.595   5.734   9.142  0.2462  0.0569 -0.6278
23622SOL    HW182925   6.676   5.681   9.170  0.3281  1.6408  2.3183
23622SOL    HW282926   6.613   5.777   9.053  2.0111 -0.8791 -0.7555
23623SOL     OW82927   1.117   5.474   0.449  0.0095  0.1958 -0.3538
23623SOL    HW182928   1.103   5.563   0.406 -0.8382  0.3671  0.2703
23623SOL    HW282929   1.040   5.454   0.510  0.6840 -0.5161  0.2678
23624SOL     OW82930   2.325   1.113   1.337  0.1543  0.2300 -0.0441
23624SOL    HW182931   2.251   1.180   1.343  0.1823  0.2813 -0.2730
23624SOL    HW282932   2.409   1.155   1.371  0.2107  0.3711 -0.3493
23625SOL     OW82933   9.884   9.257   2.920  0.1546  0.1443 -0.7697
23625SOL    HW182934   9.932   9.339   2.887 -0.8657  1.0581 -0.0365
23625SOL    HW282935   9.856   9.271   3.015 -1.4182 -0.4279 -1.1336
23626SOL     OW82936   8.314   4.768   3.327  0.5060  0.1983  0.1922
23626SOL    HW182937   8.413   4.760   3.341  0.4010 -1.3123  0.0904
23626SOL    HW282938   8.291   4.740   3.234 -0.0462  0.2963  0.2969
23627SOL     OW82939   3.895   4.247   1.390 -0.9737 -0.1117  0.6053
23627SOL    HW182940   3.926   4.339   1.369 -0.6862 -0.2565  0.3867
23627SOL    HW282941   3.800   4.235   1.359 -1.4074  0.4729  1.6785
23628SOL     OW82942   3.579   2.674   8.480 -0.8298  0.3887 -0.0449
23628SOL    HW182943   3.645   2.718   8.541 -0.4341 -1.0723  0.6011
23628SOL    HW282944   3.512   2.742   8.450  0.6650  1.7708 -0.3105
23629SOL     OW82945   8.588   3.138   1.349  0.1439 -0.5050 -0.0803
23629SOL    HW182946   8.526   3.157   1.425 -0.1997 -0.4512 -0.3749
23629SOL    HW282947   8.543   3.078   1.283  0.4507 -0.5679 -0.2350
23630SOL     OW82948   0.537   5.763   7.790  0.0479 -0.0640 -0.3906
23630SOL    HW182949   0.607   5.825   7.827 -0.7617  1.3417 -1.1671
23630SOL    HW282950   0.575   5.713   7.712  1.4705 -2.3655  1.7128
23631SOL     OW82951   9.551   6.530   0.640  0.4104 -0.1799 -0.1052
23631SOL    HW182952   9.637   6.503   0.596  0.1308 -0.8838 -0.2227
23631SOL    HW282953   9.557   6.626   0.667  0.8948  0.0283 -0.9241
23632SOL     OW82954   2.501   2.673   9.180  0.3702  0.1318  0.2967
23632SOL    HW182955   2.428   2.672   9.112  0.1271 -1.5403  0.5572
23632SOL    HW282956   2.462   2.687   9.271  0.8875  4.7237 -0.0415
23633SOL     OW82957   1.066   0.952   9.225 -0.0496 -0.4736  0.4061
23633SOL    HW182958   1.043   0.894   9.303 -0.5491  0.1440  0.7266
23633SOL    HW282959   1.105   0.896   9.152  1.3922 -0.8959  1.4915
23634SOL     OW82960   8.446   7.557   1.075  0.7830  0.0084 -0.0979
23634SOL    HW182961   8.364   7.513   1.039  0.4012 -2.4158  3.4710
23634SOL    HW282962   8.524   7.538   1.015 -0.9214  1.1100 -2.7347
23635SOL     OW82963   9.100   0.902   6.060  0.0674 -0.2242  0.2774
23635SOL    HW182964   9.196   0.887   6.083  0.4511 -0.0417 -1.1721
23635SOL    HW282965   9.088   0.894   5.961 -1.6772 -1.6877  0.5963
23636SOL     OW82966   2.789   6.090   9.984 -0.0727  0.5746 -0.2685
23636SOL    HW182967   2.743   6.001   9.978  2.0704 -0.5685 -0.5442
23636SOL    HW282968   2.752   6.152   9.915 -0.7144 -0.5417 -0.9400
23637SOL     OW82969   0.094   6.155   3.194 -0.2497 -0.4137  0.2501
23637SOL    HW182970   0.171   6.123   3.139  0.2877  1.1990  0.0207
23637SOL    HW282971   0.109   6.251   3.219 -1.0559 -0.7802  2.2158
23638SOL     OW82972   8.297   5.673   0.476  0.1028 -0.1398 -0.1893
23638SOL    HW182973   8.251   5.602   0.422  0.5514 -1.0608  0.6213
23638SOL    HW282974   8.380   5.635   0.516  1.3808  1.4083 -1.3460
23639SOL     OW82975   3.767   4.679   4.814  0.1398 -0.0089 -0.0463
23639SOL    HW182976   3.693   4.624   4.775  1.4885 -0.8572 -1.4538
23639SOL    HW282977   3.854   4.634   4.798  1.1379  1.8594  0.0159
23640SOL     OW82978   8.786   9.478   6.241  0.0042 -0.0794  0.4033
23640SOL    HW182979   8.842   9.541   6.188 -1.1854  0.5904 -0.0651
23640SOL    HW282980   8.760   9.520   6.328 -0.9158  0.1372  0.0253
23641SOL     OW82981   7.224   8.559   4.141 -0.6551 -0.4176  0.1620
23641SOL    HW182982   7.133   8.584   4.106 -0.9092  0.6128  1.5054
23641SOL    HW282983   7.235   8.596   4.233  0.5037 -1.9562  0.6573
23642SOL     OW82984   8.816   0.685   9.017 -0.0199 -0.3265  0.1109
23642SOL    HW182985   8.900   0.643   8.984  0.1685 -0.2011  0.4264
23642SOL    HW282986   8.838   0.766   9.071 -0.3696  0.0284 -0.2774
23643SOL     OW82987   0.833   9.222   7.970  0.0355 -0.2779 -0.0585
23643SOL    HW182988   0.824   9.162   7.890 -0.4587  0.3839 -0.5039
23643SOL    HW282989   0.770   9.192   8.041  0.7829 -1.1305  0.2568
23644SOL     OW82990   6.709   0.661   7.063  0.6153 -0.3521 -0.4171
23644SOL    HW182991   6.622   0.694   7.026  0.3719  0.8406  1.1535
23644SOL    HW282992   6.785   0.699   7.009  0.2892  1.7985  0.5935
23645SOL     OW82993   8.338   6.888   7.516  0.6580  1.3401  0.2284
23645SOL    HW182994   8.395   6.880   7.434  0.0585  1.3251 -0.1822
23645SOL    HW282995   8.245   6.913   7.490  0.1187 -0.0704  0.7979
23646SOL     OW82996   1.470   7.573   0.680  0.6867  0.4749 -0.0608
23646SOL    HW182997   1.481   7.493   0.621 -0.7326 -0.7080  1.2541
23646SOL    HW282998   1.547   7.635   0.665  0.1232  0.4265 -3.4667
23647SOL     OW82999   7.719   5.724   6.709  0.0875  0.3511 -0.3415
23647SOL    HW183000   7.622   5.743   6.698 -0.1658 -1.8197 -2.2161
23647SOL    HW283001   7.769   5.810   6.721 -2.2269  1.3776  2.4455
23648SOL     OW83002   3.784   8.889   1.752 -0.3093  0.3842 -0.0924
23648SOL    HW183003   3.874   8.887   1.794 -0.2587  1.7825 -0.1062
23648SOL    HW283004   3.777   8.817   1.683  1.0967  0.8621 -0.7309
23649SOL     OW83005   1.365   9.236   2.647 -0.0527  0.3229 -0.0282
23649SOL    HW183006   1.428   9.301   2.604  0.8542 -0.5486 -0.0610
23649SOL    HW283007   1.418   9.164   2.692 -1.0071  0.6746  1.7144
23650SOL     OW83008   1.225   6.060   3.948 -0.2841  0.0488 -0.5957
23650SOL    HW183009   1.131   6.028   3.965 -0.4211  0.5190 -0.4639
23650SOL    HW283010   1.243   6.140   4.004  0.0874  0.1584 -0.8755
23651SOL     OW83011   3.039   0.528   8.381  0.1372  0.2295  0.1991
23651SOL    HW183012   3.054   0.477   8.466 -0.1611  0.4559  0.3904
23651SOL    HW283013   3.007   0.620   8.404  3.5921  1.5754 -0.0091
23652SOL     OW83014   5.023   9.198   1.478  0.5051  0.0885 -0.1029
23652SOL    HW183015   5.021   9.273   1.411  1.6036  2.0614  1.9805
23652SOL    HW283016   4.929   9.174   1.504  0.1538  2.1588  0.6707
23653SOL     OW83017   7.043   5.133   2.771 -0.2095  0.1364 -0.3013
23653SOL    HW183018   6.964   5.196   2.770 -1.0134 -0.8772 -0.8825
23653SOL    HW283019   7.126   5.186   2.787 -1.0937  1.1303  1.2277
23654SOL     OW83020   3.904   8.762   6.848 -0.0834  0.1562 -0.3436
23654SOL    HW183021   3.946   8.696   6.786 -0.8123 -1.2754  0.6673
23654SOL    HW283022   3.968   8.785   6.921 -0.1302 -0.0735 -0.2290
23655SOL     OW83023   2.505   5.765   2.709  0.2723  0.5533  0.2871
23655SOL    HW183024   2.514   5.721   2.620 -1.3497 -2.1326  1.3831
23655SOL    HW283025   2.568   5.721   2.774  0.6698  1.7633  0.7265
23656SOL     OW83026   0.124   6.298   9.518 -0.5748  0.3781  0.5588
23656SOL    HW183027   0.058   6.340   9.456 -0.7514 -0.8610 -0.0989
23656SOL    HW283028   0.157   6.212   9.479  1.4137  0.9591  0.8939
23657SOL     OW83029   3.150   0.183   7.007  0.3271 -0.1397  0.7313
23657SOL    HW183030   3.202   0.266   7.030 -0.2934  0.2107  0.9005
23657SOL    HW283031   3.114   0.191   6.914 -2.0330  1.0038  1.6992
23658SOL     OW83032   9.639   4.479   4.236  0.3123  0.3662  0.4952
23658SOL    HW183033   9.547   4.513   4.216  0.8738  2.1094  0.8104
23658SOL    HW283034   9.633   4.409   4.308 -0.9663 -1.0316 -0.9368
23659SOL     OW83035   3.526   1.944   9.086 -0.4245 -0.1238  0.1051
23659SOL    HW183036   3.438   1.918   9.125 -1.0347  0.5879 -0.7547
23659SOL    HW283037   3.514   2.027   9.031  0.5168 -0.7984 -1.1359
23660SOL     OW83038   7.478   8.352   2.014 -0.0793 -0.5476 -0.0264
23660SOL    HW183039   7.463   8.302   1.929 -1.8635  1.1208 -0.7399
23660SOL    HW283040   7.398   8.342   2.073  0.1378  0.2613  0.4180
23661SOL     OW83041   0.685   7.928   8.018 -0.5397 -0.2781  0.3295
23661SOL    HW183042   0.602   7.971   8.054 -0.1919 -0.0990  0.9086
23661SOL    HW283043   0.765   7.962   8.067 -0.1128 -0.3901 -0.2851
23662SOL     OW83044   3.719   4.884   0.196  0.6618 -0.2693  0.6645
23662SOL    HW183045   3.783   4.823   0.149  2.6262  1.3455  1.1596
23662SOL    HW283046   3.770   4.961   0.235 -1.4902  0.5525  1.8922
23663SOL     OW83047   9.268   3.194   3.623  0.7634  0.6990 -0.0911
23663SOL    HW183048   9.268   3.189   3.723  1.6256  0.0989 -0.1189
23663SOL    HW283049   9.313   3.279   3.595  0.0655  1.1179  0.0351
23664SOL     OW83050   1.375   3.931   9.891  0.7593 -0.0342 -0.1082
23664SOL    HW183051   1.357   3.848   9.944  0.9493 -0.5552 -0.8555
23664SOL    HW283052   1.452   3.916   9.830  2.0174  1.3107  1.1092
23665SOL     OW83053   7.600   8.571   6.101  0.0685  0.0138  0.5748
23665SOL    HW183054   7.585   8.525   6.013 -1.4060  1.0843  0.2276
23665SOL    HW283055   7.695   8.602   6.108  0.5773 -1.4107  0.0106
23666SOL     OW83056   2.754   7.215   4.190 -0.5834  0.3482  0.4134
23666SOL    HW183057   2.657   7.240   4.195 -0.4820  0.9004 -0.3097
23666SOL    HW283058   2.809   7.285   4.236 -0.2835  1.5811 -1.7805
23667SOL     OW83059   8.221   8.012   0.709  0.3262  0.3037  0.0936
23667SOL    HW183060   8.283   8.074   0.660 -2.9803  2.8746 -1.0368
23667SOL    HW283061   8.177   7.950   0.644  1.9787 -1.8101  0.9469
23668SOL     OW83062   9.812   1.668   5.274 -0.4557  0.2500 -0.1933
23668SOL    HW183063   9.869   1.746   5.299 -1.2245  1.0367 -0.8347
23668SOL    HW283064   9.784   1.677   5.178 -1.2889 -0.3475 -0.0106
23669SOL     OW83065   9.260   3.017   2.757  0.4955 -0.3065 -0.5213
23669SOL    HW183066   9.183   3.004   2.820  1.5546  0.5084  0.9771
23669SOL    HW283067   9.230   3.070   2.678 -0.6234 -0.5446 -0.2716
23670SOL     OW83068   9.989   2.258   2.511  0.3421  0.2337 -0.0197
23670SOL    HW183069  10.047   2.280   2.590  1.0941 -0.9881 -0.2186
23670SOL    HW283070  10.046   2.246   2.430 -0.4505  1.7217 -0.8239
23671SOL     OW83071   7.336   0.886  10.001  0.1478 -0.1070 -0.2914
23671SOL    HW183072   7.243   0.854   9.983 -0.4059  1.2843  0.0275
23671SOL    HW283073   7.351   0.889  10.100  0.5849 -0.4808 -0.3480
23672SOL     OW83074   5.847   1.653   1.886  0.1516  0.3008  0.7706
23672SOL    HW183075   5.904   1.734   1.900  1.2789 -0.3743  0.1257
23672SOL    HW283076   5.869   1.584   1.954  0.5286 -0.1926  0.1478
23673SOL     OW83077   5.080   8.019   6.397 -0.2408  0.3789  0.0941
23673SOL    HW183078   5.018   8.023   6.476 -1.1725 -0.3602 -0.5962
23673SOL    HW283079   5.156   7.958   6.418  2.0793  3.7676  2.1992
23674SOL     OW83080   3.814   4.383   3.308  0.4403 -0.1510 -0.0545
23674SOL    HW183081   3.824   4.440   3.389 -0.1796  0.1642 -0.2008
23674SOL    HW283082   3.771   4.296   3.333 -0.7887  0.3949 -0.2292
23675SOL     OW83083   4.374   7.118   3.504  0.0151  0.6307  0.2561
23675SOL    HW183084   4.333   7.145   3.417  1.6535  0.4286 -0.5916
23675SOL    HW283085   4.343   7.026   3.528  0.2169  0.3514 -0.5398
23676SOL     OW83086   8.077   8.219   3.079  0.2806  0.1984  0.0434
23676SOL    HW183087   8.123   8.135   3.052  0.1630  0.0126  0.4123
23676SOL    HW283088   8.087   8.288   3.007 -0.1782 -0.3426 -0.5345
23677SOL     OW83089   2.209   2.117   0.531 -0.0035  0.2960 -0.0444
23677SOL    HW183090   2.156   2.193   0.570  0.6275  0.5831  0.2702
23677SOL    HW283091   2.171   2.030   0.562  0.3088  0.5197  0.9778
23678SOL     OW83092   6.064   4.742   8.824  0.2014 -0.0113  0.3299
23678SOL    HW183093   6.039   4.761   8.729 -0.7888  0.6181  0.6988
23678SOL    HW283094   6.084   4.828   8.871  0.1890 -0.2728  0.8167
23679SOL     OW83095   6.476   5.919   9.356 -0.3885  0.1820  0.0150
23679SOL    HW183096   6.467   5.860   9.275  0.7104  1.6233 -1.1710
23679SOL    HW283097   6.421   6.002   9.344  0.7277  0.9549  0.2364
23680SOL     OW83098   1.700   2.086   1.647 -0.1477 -0.4916 -0.0334
23680SOL    HW183099   1.786   2.035   1.641 -1.5766 -2.7226 -3.0059
23680SOL    HW283100   1.702   2.162   1.582 -0.8993 -1.3843 -1.1302
23681SOL     OW83101   2.405   5.759   9.531  0.0714  0.6238 -1.0388
23681SOL    HW183102   2.490   5.746   9.581  0.0842 -0.8228 -1.4201
23681SOL    HW283103   2.339   5.805   9.589 -0.0790 -1.4544  0.4906
23682SOL     OW83104   7.281   9.676   4.826  0.2474 -0.4257 -0.0355
23682SOL    HW183105   7.271   9.673   4.727 -0.0446 -2.5790  0.0457
23682SOL    HW283106   7.347   9.748   4.851 -1.3157  1.6151 -1.6257
23683SOL     OW83107   2.332   5.388   6.368  0.8100 -0.4984 -0.0628
23683SOL    HW183108   2.398   5.435   6.425 -1.0593  0.3915  1.4264
23683SOL    HW283109   2.291   5.312   6.419 -0.2649 -0.2218 -0.4896
23684SOL     OW83110   8.602   9.074   6.750 -0.2166 -0.0367 -0.2533
23684SOL    HW183111   8.509   9.051   6.723  0.9560 -2.1523 -2.5905
23684SOL    HW283112   8.642   8.999   6.803  1.1058 -0.3183 -1.6222
23685SOL     OW83113   1.884   8.954   9.272 -0.4934 -0.3438  0.0622
23685SOL    HW183114   1.943   9.032   9.250  0.3280 -0.9114  0.2243
23685SOL    HW283115   1.789   8.985   9.279  0.0242  0.9429  1.7522
23686SOL     OW83116   6.600   0.494   3.499 -0.7365  0.0883 -0.4132
23686SOL    HW183117   6.617   0.561   3.572 -0.1908 -0.5475  0.0486
23686SOL    HW283118   6.559   0.540   3.420  1.9966  1.4478 -1.1045
23687SOL     OW83119   2.886   3.808   4.790 -0.7766  0.5136 -0.2569
23687SOL    HW183120   2.873   3.754   4.707 -0.2446 -1.2787  0.8057
23687SOL    HW283121   2.924   3.898   4.766 -1.1051  0.2051 -1.9823
23688SOL     OW83122   8.026   0.134   3.519 -0.2095  0.2322  0.6132
23688SOL    HW183123   8.015   0.103   3.424 -0.0134 -1.2477  1.0597
23688SOL    HW283124   7.942   0.177   3.550 -1.1425 -1.5237  0.5747
23689SOL     OW83125   2.135   4.251   9.170 -0.1599  0.5873 -0.7468
23689SOL    HW183126   2.156   4.339   9.129 -0.1721  0.1812 -1.6359
23689SOL    HW283127   2.044   4.253   9.210  0.1156  1.1933 -0.1327
23690SOL     OW83128   7.773   8.562   5.313 -1.0830 -0.3061 -0.1228
23690SOL    HW183129   7.757   8.545   5.216 -0.2791  1.0646 -0.5040
23690SOL    HW283130   7.688   8.546   5.364 -2.2265  1.5349 -1.4012
23691SOL     OW83131   8.905   3.259   5.722  0.1259 -0.3886  0.1511
23691SOL    HW183132   8.901   3.345   5.671 -1.7080 -0.4833  0.0852
23691SOL    HW283133   8.855   3.189   5.672 -0.0881 -0.9678  1.1608
23692SOL     OW83134   8.736   6.277   5.250  0.4875  0.4368  0.4460
23692SOL    HW183135   8.706   6.352   5.308 -0.2140 -0.2270  0.9519
23692SOL    HW283136   8.836   6.278   5.242  0.3261  3.1145 -1.8603
23693SOL     OW83137   1.889   8.206   1.608 -0.3203  0.3540 -0.1974
23693SOL    HW183138   1.805   8.203   1.661  0.6431 -1.7664  1.3107
23693SOL    HW283139   1.930   8.297   1.614 -1.1327  0.6249  1.2570
23694SOL     OW83140   9.487   7.769   1.656  0.8123 -0.6245 -0.5374
23694SOL    HW183141   9.427   7.849   1.645  1.7382  0.2491  0.5415
23694SOL    HW283142   9.582   7.799   1.658  1.1239 -1.6262  0.8992
23695SOL     OW83143   0.750   8.028   3.602  0.8894  0.4215 -0.1903
23695SOL    HW183144   0.830   8.006   3.658 -1.2567 -2.2224  2.0084
23695SOL    HW283145   0.711   8.115   3.632  1.8211  0.7743  0.0246
23696SOL     OW83146   4.431   9.245   5.370  0.0183  0.6250 -0.1299
23696SOL    HW183147   4.392   9.335   5.391  1.0928  0.8768  0.8213
23696SOL    HW283148   4.470   9.205   5.452  0.7772 -0.1110 -0.8371
23697SOL     OW83149   4.521   0.426   4.403 -0.2801 -0.1324  0.3927
23697SOL    HW183150   4.486   0.392   4.491  1.1020 -0.2042  0.9193
23697SOL    HW283151   4.525   0.351   4.337  0.3139 -0.4396  0.7788
23698SOL     OW83152   4.994   0.008   1.255  0.5198 -0.3257  0.6131
23698SOL    HW183153   4.907  -0.039   1.270  0.3000  0.1032  0.6807
23698SOL    HW283154   5.050  -0.045   1.192 -1.0573  0.9509 -1.9301
23699SOL     OW83155   3.035   6.116   7.333  0.6555 -0.0777  0.0264
23699SOL    HW183156   3.020   6.156   7.243 -0.8912 -0.1775  0.2213
23699SOL    HW283157   2.981   6.032   7.342  0.8104 -0.0796  1.0421
23700SOL     OW83158   4.139   0.356   4.658 -0.3664  0.4959 -0.5986
23700SOL    HW183159   4.141   0.383   4.754  1.4048  1.1760 -0.8007
23700SOL    HW283160   4.077   0.279   4.646  1.0353 -1.0271  1.4959
23701SOL     OW83161   2.754   1.419   9.132 -0.0634 -0.0460  0.1028
23701SOL    HW183162   2.849   1.427   9.164 -0.4901 -0.2336  1.4710
23701SOL    HW283163   2.752   1.382   9.040  1.0735 -2.6703  1.0983
23702SOL     OW83164   8.017   7.657   7.863 -0.2285 -0.4751 -0.1857
23702SOL    HW183165   7.991   7.562   7.851  1.7148 -0.9390 -0.8953
23702SOL    HW283166   7.972   7.695   7.944 -0.7525 -2.0847  0.2795
23703SOL     OW83167   2.595   8.518   3.499  0.1796 -0.1697 -0.6282
23703SOL    HW183168   2.629   8.465   3.421 -1.1372 -1.8631 -0.0874
23703SOL    HW283169   2.497   8.502   3.510  0.4747 -0.4694  1.7788
23704SOL     OW83170   2.496   7.769   6.314  0.0462 -0.3983  0.9170
23704SOL    HW183171   2.527   7.774   6.219  1.6337  2.6114  1.5375
23704SOL    HW283172   2.558   7.712   6.367  0.7973  0.2764  0.7631
23705SOL     OW83173   8.954   5.905   7.767 -0.7176  0.1755 -0.2242
23705SOL    HW183174   8.895   5.829   7.740 -1.3368 -0.4138  2.5836
23705SOL    HW283175   9.049   5.883   7.744 -0.8369 -1.6849  0.9286
23706SOL     OW83176   0.269   6.780   6.659  0.2840  0.2500  0.7388
23706SOL    HW183177   0.273   6.880   6.665 -0.0813  0.3792 -1.0102
23706SOL    HW283178   0.198   6.753   6.594 -0.1564 -1.1845  1.7825
23707SOL     OW83179   6.971   4.446   8.802 -0.0326 -0.2791  0.0958
23707SOL    HW183180   7.061   4.403   8.808  0.0264 -0.4538 -1.7410
23707SOL    HW283181   6.900   4.375   8.811  0.0512 -0.5540 -1.2832
23708SOL     OW83182   4.697   6.815   9.899 -0.3494 -0.8907  0.9762
23708SOL    HW183183   4.627   6.770   9.843 -0.9669 -0.5801  1.4857
23708SOL    HW283184   4.787   6.801   9.858 -0.9319  0.4395 -0.8254
23709SOL     OW83185   2.036   5.076   8.704 -0.1446 -0.6898  0.8393
23709SOL    HW183186   2.084   5.037   8.782  2.6039 -1.4074 -1.1368
23709SOL    HW283187   2.098   5.083   8.626 -1.2165  5.4338  0.3447
23710SOL     OW83188   5.063   6.391   8.627  0.1381 -0.1602 -0.0502
23710SOL    HW183189   4.998   6.467   8.621  0.5402  0.1979  0.1248
23710SOL    HW283190   5.096   6.383   8.721  1.2285  0.3945 -0.3814
23711SOL     OW83191   6.139   8.828   1.954 -0.1973 -0.6189 -0.3520
23711SOL    HW183192   6.157   8.738   1.913  2.3886  0.6445 -2.1091
23711SOL    HW283193   6.041   8.843   1.958 -0.6386 -2.9796 -1.2255
23712SOL     OW83194   6.091   8.573   4.811  0.0813 -0.4822 -0.8775
23712SOL    HW183195   6.036   8.558   4.729 -0.2834  0.6823 -0.8489
23712SOL    HW283196   6.144   8.657   4.802 -0.3506 -0.0643  0.2796
23713SOL     OW83197   1.188   9.964   3.680  0.4159  0.4654  0.1218
23713SOL    HW183198   1.223   9.908   3.755 -1.9243  0.0783  0.9549
23713SOL    HW283199   1.108   9.920   3.639 -1.0530  2.8279  0.3517
23714SOL     OW83200   3.295   8.603   3.013  0.1873 -0.6005  0.2547
23714SOL    HW183201   3.207   8.616   2.969  0.3340 -1.6552 -0.3642
23714SOL    HW283202   3.342   8.525   2.972  1.0014 -0.6297  1.2161
23715SOL     OW83203   4.382   3.009   4.747  0.1488 -0.0964 -0.1779
23715SOL    HW183204   4.458   2.946   4.729 -1.9430 -3.2498  1.5646
23715SOL    HW283205   4.390   3.044   4.841 -2.3983 -3.2558  1.2944
23716SOL     OW83206   7.677   3.959   2.475 -0.6105 -0.1852  0.1626
23716SOL    HW183207   7.698   3.929   2.382 -0.2887  2.1146 -0.5270
23716SOL    HW283208   7.583   3.994   2.479 -0.6992 -0.4729  0.7757
23717SOL     OW83209   2.459   1.505   8.758  0.5752  0.7543  0.3012
23717SOL    HW183210   2.436   1.587   8.706 -2.0554 -0.3228 -0.3047
23717SOL    HW283211   2.428   1.515   8.852  0.3187  0.4777  0.2466
23718SOL     OW83212   3.345   1.068   5.919  0.2749 -0.1984  0.2494
23718SOL    HW183213   3.304   1.028   6.000  2.5238  0.0457  1.5342
23718SOL    HW283214   3.330   1.167   5.919 -1.9609 -0.5031 -0.9834
23719SOL     OW83215   7.520   7.889   6.845  0.2056 -0.3767 -0.3492
23719SOL    HW183216   7.543   7.792   6.832  0.7990 -0.2564 -0.2120
23719SOL    HW283217   7.558   7.942   6.770  0.2389 -0.1951 -0.2028
23720SOL     OW83218   0.372   1.486   8.623 -0.2542  0.4274  0.1296
23720SOL    HW183219   0.341   1.504   8.717  1.1163  1.6303  0.3619
23720SOL    HW283220   0.349   1.564   8.565 -1.7548 -0.6214 -0.7186
23721SOL     OW83221   2.528   1.665   1.170  0.0136 -0.2330 -0.4787
23721SOL    HW183222   2.485   1.575   1.165  0.3818 -0.3991 -0.6969
23721SOL    HW283223   2.591   1.668   1.248 -0.6909  0.1412  0.0784
23722SOL     OW83224   1.366   2.125   9.834 -0.0605  0.6645 -0.0148
23722SOL    HW183225   1.424   2.150   9.911 -1.6292  0.5975  1.2110
23722SOL    HW283226   1.402   2.042   9.791 -0.2101 -0.3837  1.8155
23723SOL     OW83227   0.697   3.401   3.854 -0.4387 -0.1083  0.5659
23723SOL    HW183228   0.736   3.491   3.871  1.6286 -1.2603  2.0968
23723SOL    HW283229   0.624   3.383   3.919 -1.1305  0.5871  0.0033
23724SOL     OW83230   2.465   0.047   7.496 -0.4511  0.3000 -0.1404
23724SOL    HW183231   2.373   0.087   7.500 -0.3964  0.4852 -0.7369
23724SOL    HW283232   2.472  -0.012   7.416  0.2153  0.9536 -0.5686
23725SOL     OW83233   9.376   2.320   3.547 -0.1356 -0.6505  0.4390
23725SOL    HW183234   9.334   2.397   3.595 -1.4033 -0.7940 -0.4194
23725SOL    HW283235   9.433   2.353   3.473 -1.0864 -0.5425 -0.2524
23726SOL     OW83236   0.983   0.196   9.621  0.7671 -0.3216  0.0623
23726SOL    HW183237   1.038   0.279   9.634  1.1994 -0.7696  1.1694
23726SOL    HW283238   0.935   0.201   9.533  0.0494  1.5175  0.5460
23727SOL     OW83239   2.595   2.770   0.192 -0.5813 -0.2888  0.2181
23727SOL    HW183240   2.591   2.671   0.181 -1.4667 -0.1504 -0.7092
23727SOL    HW283241   2.574   2.815   0.105  0.2314  0.7097  0.5227
23728SOL     OW83242   0.298   4.126   5.223 -0.2694 -0.0581  0.0617
23728SOL    HW183243   0.360   4.052   5.246 -0.3026  0.4892  1.9838
23728SOL    HW283244   0.235   4.143   5.299 -0.2702  1.9256 -0.3465
23729SOL     OW83245   3.002   4.146   7.629 -0.4615 -0.0907  0.3613
23729SOL    HW183246   3.048   4.217   7.683  1.2378  0.6975 -2.0059
23729SOL    HW283247   3.070   4.078   7.600 -0.8477  0.7045 -2.5950
23730SOL     OW83248   2.346   0.078   8.655  0.7386 -0.7555 -0.3575
23730SOL    HW183249   2.336   0.017   8.734  0.5414  0.6022  0.7002
23730SOL    HW283250   2.259   0.123   8.637  0.5649 -1.6823 -1.8994
23731SOL     OW83251   6.050   7.614   5.662  0.0871 -0.1863 -0.0986
23731SOL    HW183252   5.968   7.570   5.624  0.8657 -1.8910  0.1352
23731SOL    HW283253   6.131   7.579   5.614  0.9099 -0.7898  1.7094
23732SOL     OW83254   8.231   6.878   5.919  0.6490  0.0586 -0.1104
23732SOL    HW183255   8.149   6.905   5.969  0.4859  2.7076 -1.7352
23732SOL    HW283256   8.280   6.808   5.971 -2.4866 -1.4227  1.0004
23733SOL     OW83257   8.523   7.863   4.181  0.5593  0.2769 -0.3148
23733SOL    HW183258   8.475   7.810   4.111  0.0378 -0.3846  0.5369
23733SOL    HW283259   8.612   7.893   4.145 -0.0077  0.5533 -1.5043
23734SOL     OW83260   9.735   4.684   7.091 -0.3962  0.2185  0.1647
23734SOL    HW183261   9.765   4.755   7.028 -0.5675  0.0024 -0.1665
23734SOL    HW283262   9.637   4.693   7.108 -0.7330 -0.8460 -1.0794
23735SOL     OW83263   2.882   8.010   2.620 -0.0811 -0.2096 -0.2741
23735SOL    HW183264   2.962   7.981   2.569  1.2880  2.0525  0.5048
23735SOL    HW283265   2.884   8.110   2.632 -1.8152 -0.3726  1.7640
23736SOL     OW83266   3.414   3.645   9.998 -0.5361  0.5142  0.1550
23736SOL    HW183267   3.360   3.687   9.925  0.9408  1.6916 -0.2772
23736SOL    HW283268   3.453   3.559   9.965  2.2183  2.2789 -1.3355
23737SOL     OW83269   3.522   0.340   5.593  0.2599  0.2185  0.3934
23737SOL    HW183270   3.484   0.270   5.533  1.0071 -0.6443  0.9165
23737SOL    HW283271   3.457   0.362   5.665  0.5469 -0.9091  1.0049
23738SOL     OW83272   8.282   4.393   8.883 -0.3304  0.2767 -0.5903
23738SOL    HW183273   8.268   4.412   8.786  0.5561  3.5702 -0.1151
23738SOL    HW283274   8.379   4.372   8.899 -0.6282 -1.0997 -0.5182
23739SOL     OW83275   3.950   2.183   6.068  0.1533  0.2378 -0.5597
23739SOL    HW183276   3.952   2.251   5.995 -1.0450  0.5200 -0.3456
23739SOL    HW283277   4.043   2.151   6.087  0.3867 -0.3399 -2.6563
23740SOL     OW83278   0.670   0.434   8.883  0.3135  0.2871  0.6103
23740SOL    HW183279   0.626   0.348   8.909 -0.3121  0.5146  0.3254
23740SOL    HW283280   0.769   0.426   8.893  0.1876 -0.1179  1.6221
23741SOL     OW83281   3.447   7.550   6.774 -0.5476 -0.2450 -0.5085
23741SOL    HW183282   3.475   7.602   6.693 -0.4925 -0.2244 -0.4766
23741SOL    HW283283   3.367   7.495   6.752 -0.9469  0.2844 -0.3800
23742SOL     OW83284   5.060   2.192   6.945 -0.1321  0.1518 -0.0817
23742SOL    HW183285   5.060   2.268   6.880  0.9129  0.8248  0.6783
23742SOL    HW283286   5.110   2.219   7.027 -0.7302 -0.9715  0.6707
23743SOL     OW83287   5.004   3.799   8.122  0.7023  0.3956 -0.0670
23743SOL    HW183288   5.099   3.771   8.112  0.2822 -2.0808  2.3140
23743SOL    HW283289   4.999   3.894   8.153  2.3714  0.4474  0.0533
23744SOL     OW83290   9.823   8.338   0.509  0.0309 -0.4357 -0.4699
23744SOL    HW183291   9.856   8.432   0.501  1.9149 -1.1097 -0.9949
23744SOL    HW283292   9.825   8.309   0.605  0.1764 -0.1815 -0.3959
23745SOL     OW83293   8.886   4.355   7.554  0.0558  0.1832 -0.4019
23745SOL    HW183294   8.936   4.337   7.469  0.8484 -1.0485  0.3120
23745SOL    HW283295   8.920   4.439   7.596  0.1897  0.3826 -0.9036
23746SOL     OW83296   1.627   6.890   7.377  0.7084 -0.0501 -0.2789
23746SOL    HW183297   1.530   6.906   7.394 -0.0103 -3.1524 -1.2321
23746SOL    HW283298   1.638   6.820   7.307  3.6295 -2.1814  2.1763
23747SOL     OW83299   2.939   9.463   9.405  0.4288  0.1295 -0.2483
23747SOL    HW183300   2.931   9.563   9.405  0.6355  0.1623  1.5636
23747SOL    HW283301   2.971   9.432   9.315 -3.1493  1.3546 -2.0397
23748SOL     OW83302   3.086   8.924   3.848 -0.8956  0.1784  0.0151
23748SOL    HW183303   3.009   8.909   3.910  0.5739 -1.1630  1.5953
23748SOL    HW283304   3.110   9.021   3.847 -1.4713  0.3330  0.8949
23749SOL     OW83305   8.440   2.841   2.333 -0.0935  0.6384  0.0829
23749SOL    HW183306   8.468   2.749   2.308  0.2179 -0.2726  3.4413
23749SOL    HW283307   8.365   2.871   2.274 -1.1205 -2.3186 -0.2135
23750SOL     OW83308   0.531   5.429   0.162  0.5872  0.0545  0.0206
23750SOL    HW183309   0.621   5.419   0.204  0.6355 -0.7233 -0.2528
23750SOL    HW283310   0.470   5.479   0.224  1.0653  0.1510  0.4148
23751SOL     OW83311   5.967   0.857   2.090  0.1223 -0.1774 -0.2869
23751SOL    HW183312   6.018   0.828   2.009 -1.5274 -2.6612 -0.4853
23751SOL    HW283313   5.871   0.832   2.080 -0.6145  1.8369  1.3403
23752SOL     OW83314   6.708   1.678   0.291 -0.2174 -0.2118 -0.6315
23752SOL    HW183315   6.637   1.608   0.290 -0.0503 -0.3859 -0.1953
23752SOL    HW283316   6.740   1.694   0.198  1.5776 -2.5789 -0.4817
23753SOL     OW83317   1.545   8.260   8.229 -0.1492 -0.0950 -0.4090
23753SOL    HW183318   1.480   8.294   8.161 -1.0694  0.9574  0.9756
23753SOL    HW283319   1.507   8.271   8.320  2.2525  1.1220  0.4922
23754SOL     OW83320   8.642   7.738   0.716 -0.5726  0.6965 -0.1340
23754SOL    HW183321   8.601   7.811   0.771  0.0532  0.8272  0.1651
23754SOL    HW283322   8.609   7.745   0.622 -1.9759  0.2140  0.3127
23755SOL     OW83323   7.393   7.625   3.988 -0.2474 -0.1784  0.1360
23755SOL    HW183324   7.423   7.587   3.900 -0.7467 -0.7450  0.2022
23755SOL    HW283325   7.443   7.580   4.062  0.5479  0.6680  0.1198
23756SOL     OW83326   9.703   9.543   0.352  0.0781 -0.3486 -0.4314
23756SOL    HW183327   9.702   9.494   0.265 -1.5987 -1.6842  0.3262
23756SOL    HW283328   9.623   9.602   0.358  0.7435  0.5472 -0.2203
23757SOL     OW83329   9.974   0.930   8.242 -0.1358 -0.6182 -0.6012
23757SOL    HW183330   9.878   0.934   8.269  0.1150 -0.5724  0.3019
23757SOL    HW283331  10.007   1.022   8.224  0.4409 -0.3681  1.6182
23758SOL     OW83332   7.401   1.562   7.624  0.1366 -0.2950  0.1671
23758SOL    HW183333   7.423   1.544   7.719  0.7543 -1.5995 -0.2144
23758SOL    HW283334   7.316   1.514   7.600  0.6368 -0.9802 -0.2644
23759SOL     OW83335   1.078   6.925   8.556 -0.1041  0.6008  0.7220
23759SOL    HW183336   0.979   6.928   8.570 -0.2502  1.8284 -0.5063
23759SOL    HW283337   1.115   7.018   8.561  0.7646  0.3173 -0.3464
23760SOL     OW83338   8.566   9.686   5.764  0.2819 -0.4119 -1.0289
23760SOL    HW183339   8.611   9.717   5.848  2.9455 -0.8614 -2.2459
23760SOL    HW283340   8.549   9.587   5.770 -1.3813 -0.1018 -0.2296
23761SOL     OW83341   6.611   1.427   2.542  0.6378 -0.4259 -0.1995
23761SOL    HW183342   6.539   1.467   2.598  0.4930  0.1560 -0.8015
23761SOL    HW283343   6.646   1.344   2.587  0.4268 -0.0455  0.6786
23762SOL     OW83344   2.812   2.143   0.559 -0.0390  0.0549  0.0611
23762SOL    HW183345   2.819   2.225   0.503  1.6528  0.0266  0.2055
23762SOL    HW283346   2.903   2.113   0.586 -0.7839 -0.4291  2.1305
23763SOL     OW83347   1.373   4.235   0.792 -0.0672 -0.1668 -0.3109
23763SOL    HW183348   1.329   4.145   0.791  0.8846 -0.6525  0.4896
23763SOL    HW283349   1.422   4.246   0.879  0.7418  0.6781 -0.8793
23764SOL     OW83350   3.494   5.246   6.541  0.1038  0.1780 -0.5322
23764SOL    HW183351   3.489   5.264   6.639  0.5460 -1.7990 -0.1351
23764SOL    HW283352   3.415   5.192   6.513  0.5435 -0.1885 -1.0712
23765SOL     OW83353   4.418   0.691   2.514  0.7798  1.0524  0.3452
23765SOL    HW183354   4.387   0.774   2.468 -1.4602  1.1918  1.9728
23765SOL    HW283355   4.373   0.612   2.474  2.2144  0.7057 -0.6025
23766SOL     OW83356   7.428   1.771   4.360 -0.5331  0.5484 -0.0223
23766SOL    HW183357   7.437   1.868   4.384  0.4087  0.5595 -0.4120
23766SOL    HW283358   7.378   1.724   4.432 -3.5771  1.8941 -1.1707
23767SOL     OW83359   1.169   6.672   3.222 -0.0008  0.1240  0.3861
23767SOL    HW183360   1.265   6.671   3.192 -0.6305  0.2017 -1.7266
23767SOL    HW283361   1.165   6.663   3.321  2.1443 -1.1679  0.3907
23768SOL     OW83362   3.603   7.041   3.665 -0.1030  0.0588  0.4064
23768SOL    HW183363   3.508   7.055   3.691 -0.4635 -1.4537 -0.0513
23768SOL    HW283364   3.658   7.026   3.747 -0.7957 -2.1698  0.4760
23769SOL     OW83365   5.086   2.663   0.308  0.4086  0.4468 -0.0941
23769SOL    HW183366   5.022   2.714   0.364 -1.9387 -2.2730 -0.1853
23769SOL    HW283367   5.053   2.658   0.214  0.1680 -1.8668  0.0809
23770SOL     OW83368   9.366   3.585   8.115 -0.8348 -0.6510  0.0069
23770SOL    HW183369   9.345   3.629   8.202 -0.1876  1.1670 -0.7427
23770SOL    HW283370   9.327   3.638   8.040  2.0730  0.0675 -1.0810
23771SOL     OW83371   9.623   5.359   6.106  0.4731 -0.2414 -0.1442
23771SOL    HW183372   9.689   5.302   6.154 -0.0379 -0.1714  0.6432
23771SOL    HW283373   9.671   5.415   6.037  0.8586 -2.2513 -1.5420
23772SOL     OW83374   4.077   0.733   9.700  0.6289 -0.0440 -0.0857
23772SOL    HW183375   4.053   0.829   9.687  2.2991  0.7280  2.0906
23772SOL    HW283376   4.145   0.706   9.633  0.4953  0.4321 -0.4139
23773SOL     OW83377   0.943   4.689   7.747  0.4853 -0.3685 -0.4545
23773SOL    HW183378   0.893   4.657   7.667 -1.6031 -1.4208  1.2272
23773SOL    HW283379   0.942   4.618   7.818  0.6363  1.2740  1.2394
23774SOL     OW83380   0.008   7.786   0.133 -0.1420  0.1693  0.6594
23774SOL    HW183381   0.021   7.724   0.055 -2.1284 -1.1808  1.3296
23774SOL    HW283382   0.037   7.740   0.217  0.5203  1.0149  0.8906
23775SOL     OW83383   4.217   6.599   1.373  0.0702 -0.0635 -0.9785
23775SOL    HW183384   4.313   6.576   1.359  0.7767  1.6788  0.8728
23775SOL    HW283385   4.187   6.566   1.462 -1.1619 -0.8389 -1.6525
23776SOL     OW83386   8.132   7.561   2.259  0.0600  0.3430  0.4989
23776SOL    HW183387   8.158   7.488   2.322 -2.2631 -0.9804 -0.0362
23776SOL    HW283388   8.191   7.556   2.178 -1.7802 -2.6655 -0.7337
23777SOL     OW83389   0.290   4.179   7.882 -0.2101  0.0948  0.3046
23777SOL    HW183390   0.377   4.218   7.913 -0.0160  0.1289 -0.2785
23777SOL    HW283391   0.218   4.201   7.948  0.5502 -1.3579  1.6641
23778SOL     OW83392   4.161   5.450   1.784  0.9070 -0.3213  0.1957
23778SOL    HW183393   4.210   5.466   1.870 -0.7979 -0.3341  1.1878
23778SOL    HW283394   4.193   5.365   1.743  1.5885 -0.4213  0.9180
23779SOL     OW83395   1.020   2.042   6.937 -0.0789 -0.0682 -0.5481
23779SOL    HW183396   1.000   2.019   7.033  0.8440 -1.2998 -0.6407
23779SOL    HW283397   1.091   2.112   6.934 -1.4447  1.3733 -0.3115
23780SOL     OW83398   3.991   4.991   6.770 -0.7727  0.2293 -0.1146
23780SOL    HW183399   3.902   4.945   6.779 -0.8472  0.0152 -1.8528
23780SOL    HW283400   3.976   5.089   6.753 -0.6368  0.5976  1.8250
23781SOL     OW83401   3.549   3.062   2.289  0.0365  0.1738  0.1702
23781SOL    HW183402   3.564   3.105   2.200 -1.0808  2.4477  1.0513
23781SOL    HW283403   3.534   2.964   2.276 -2.1444  0.7737 -2.3617
23782SOL     OW83404   4.344   4.444   8.293  0.2078  0.0513  0.3692
23782SOL    HW183405   4.416   4.385   8.330  0.9122  0.9331  0.4106
23782SOL    HW283406   4.342   4.530   8.343 -1.0004 -0.0366  0.4816
23783SOL     OW83407   7.844   3.715   7.643 -0.0201  0.6960  0.3055
23783SOL    HW183408   7.805   3.734   7.733 -1.6160 -0.2984 -0.1575
23783SOL    HW283409   7.782   3.750   7.572  0.8116  0.7110 -0.4201
23784SOL     OW83410   1.422   3.040   7.771  0.0007  0.2208  0.1584
23784SOL    HW183411   1.405   3.137   7.786  0.6132  0.5830 -1.3795
23784SOL    HW283412   1.381   3.012   7.684  0.5125 -0.6973  0.2069
23785SOL     OW83413   2.576   0.774   0.071  0.0963 -0.4252 -0.2403
23785SOL    HW183414   2.501   0.820   0.117 -0.0116 -1.1310  0.2964
23785SOL    HW283415   2.591   0.684   0.113  0.7431 -0.5981 -0.8322
23786SOL     OW83416   7.721   9.294   8.221 -0.3171 -0.4181 -0.2074
23786SOL    HW183417   7.674   9.206   8.207  0.6268 -0.9867  0.1785
23786SOL    HW283418   7.775   9.315   8.140 -1.4752  0.3920 -0.7772
23787SOL     OW83419   7.837   1.013   1.846 -0.5068 -0.2780  0.4299
23787SOL    HW183420   7.913   0.973   1.898 -1.6011  0.1135  2.3874
23787SOL    HW283421   7.772   0.940   1.822 -1.2528 -0.0869  1.8225
23788SOL     OW83422   3.242   0.135   3.366  0.5589 -0.3736 -0.7392
23788SOL    HW183423   3.233   0.057   3.304 -1.1844 -1.0901  0.3828
23788SOL    HW283424   3.217   0.107   3.458  1.0152  1.2473 -0.1060
23789SOL     OW83425   3.799   5.560   5.115 -0.4373  0.2025 -0.0099
23789SOL    HW183426   3.722   5.516   5.069 -0.2292  2.2509 -2.4264
23789SOL    HW283427   3.770   5.648   5.152  0.6298  0.8425 -0.6594
23790SOL     OW83428   8.785   9.353   2.303  0.2986 -0.3675 -0.1742
23790SOL    HW183429   8.726   9.356   2.222 -0.0878 -1.4415  0.0605
23790SOL    HW283430   8.815   9.446   2.326 -1.6285  0.2394 -0.0523
23791SOL     OW83431   3.188   2.306   9.962 -0.0409  0.0206 -0.2939
23791SOL    HW183432   3.107   2.357   9.991  0.8968  0.1882  2.1295
23791SOL    HW283433   3.250   2.294  10.040  1.6454 -1.2843 -1.7894
23792SOL     OW83434   3.847   2.286   4.777 -0.0056 -0.3201 -0.5888
23792SOL    HW183435   3.817   2.194   4.754  0.5495 -0.6086 -0.1655
23792SOL    HW283436   3.919   2.315   4.714 -1.2911  0.4469 -1.7252
23793SOL     OW83437   2.606   3.956   4.788 -0.2067 -0.3630 -0.0145
23793SOL    HW183438   2.533   4.019   4.812 -0.3395 -1.1805  1.8129
23793SOL    HW283439   2.691   4.006   4.776 -0.3793  0.2088  1.1076
23794SOL     OW83440   7.110   6.662   4.732 -0.2784 -0.1552  0.4824
23794SOL    HW183441   7.168   6.684   4.811 -2.6790  0.3656  2.1497
23794SOL    HW283442   7.163   6.672   4.648  1.4328  2.4650  1.8205
23795SOL     OW83443   1.328   6.493   0.237 -0.0006 -0.1567  0.0433
23795SOL    HW183444   1.300   6.423   0.303  2.0871  0.0767  1.2248
23795SOL    HW283445   1.247   6.541   0.203 -1.2286 -1.2484  1.3510
23796SOL     OW83446   8.455   3.586   8.034  0.0656  0.2189 -0.0757
23796SOL    HW183447   8.415   3.518   8.096 -2.5504  1.1224 -0.6949
23796SOL    HW283448   8.500   3.540   7.958 -0.2209 -0.8513  0.3936
23797SOL     OW83449   2.206   1.782   2.133 -0.2852  0.2601 -0.0175
23797SOL    HW183450   2.291   1.737   2.161 -0.7429 -0.7347 -0.2235
23797SOL    HW283451   2.176   1.747   2.045 -0.2002  1.5875 -0.5886
23798SOL     OW83452   6.738   1.783   4.031 -0.2619  0.1025 -0.4689
23798SOL    HW183453   6.663   1.847   4.043  0.3907  0.8242 -0.1480
23798SOL    HW283454   6.702   1.691   4.021 -1.2267  0.5610 -1.2726
23799SOL     OW83455   3.850   5.186   4.298  0.1683 -0.6014 -0.2143
23799SOL    HW183456   3.928   5.123   4.296 -0.0284 -0.8231 -1.0217
23799SOL    HW283457   3.866   5.261   4.234  0.4260  0.2086  0.7847
23800SOL     OW83458   9.972   6.782   5.131  0.2174 -0.5075  0.1908
23800SOL    HW183459   9.907   6.842   5.085 -1.0132 -0.9538  1.3230
23800SOL    HW283460   9.985   6.812   5.225  1.8313 -0.2994 -0.0807
23801SOL     OW83461   3.411   4.408   1.308  0.2115 -0.0238 -0.2007
23801SOL    HW183462   3.425   4.504   1.331  0.4566 -0.3632  1.0695
23801SOL    HW283463   3.357   4.364   1.379  1.0981 -1.1078 -0.1859
23802SOL     OW83464   7.871   2.541   9.146  0.2321  0.4838  0.0506
23802SOL    HW183465   7.942   2.595   9.102  0.5677  0.5177  0.6279
23802SOL    HW283466   7.886   2.444   9.129 -2.2264  0.6733 -3.8007
23803SOL     OW83467   7.471   6.446   6.305 -0.1612  0.0089 -0.4419
23803SOL    HW183468   7.544   6.384   6.277  0.6972  1.3130 -1.1623
23803SOL    HW283469   7.435   6.494   6.225 -2.2763 -1.0803 -0.1892
23804SOL     OW83470   3.660   9.027   5.670  0.9933 -0.0072 -0.0376
23804SOL    HW183471   3.583   8.985   5.623  2.2360 -0.0455 -2.0648
23804SOL    HW283472   3.722   8.955   5.703  0.7638  0.0703  0.5739
23805SOL     OW83473   5.372   1.563   4.959  0.6544  0.5219 -0.3144
23805SOL    HW183474   5.314   1.577   4.878 -0.3323  1.3844  0.5360
23805SOL    HW283475   5.410   1.470   4.956 -2.1168 -0.6789 -0.0427
23806SOL     OW83476   1.255   3.825   8.798 -0.3052  0.1773 -0.3130
23806SOL    HW183477   1.258   3.892   8.872  0.4664  0.2679 -0.4162
23806SOL    HW283478   1.343   3.826   8.750 -0.3360 -0.8252 -0.3906
23807SOL     OW83479   1.183   6.848   4.809  0.0622 -0.2035  0.3327
23807SOL    HW183480   1.177   6.875   4.713 -2.4423  0.5984  0.6852
23807SOL    HW283481   1.201   6.928   4.865  1.1963 -0.6229  0.5759
23808SOL     OW83482   7.527   8.296   1.478 -0.0807 -0.4127  0.2898
23808SOL    HW183483   7.545   8.390   1.450 -1.7047 -0.3193 -0.4947
23808SOL    HW283484   7.601   8.237   1.446  0.7806  0.5341  0.5005
23809SOL     OW83485   0.374   1.458   3.410 -0.2636 -0.0186 -0.5656
23809SOL    HW183486   0.362   1.498   3.319 -0.6321 -0.8177 -0.8751
23809SOL    HW283487   0.470   1.435   3.425 -0.3889 -1.0463 -1.2577
23810SOL     OW83488   8.400   5.317   0.888 -0.5088  0.9175 -0.1707
23810SOL    HW183489   8.427   5.405   0.928 -2.2972  2.2265 -1.6923
23810SOL    HW283490   8.319   5.283   0.935  0.5535 -0.2506  0.8307
23811SOL     OW83491   3.468   6.766   2.077  0.1645  0.1143 -0.0174
23811SOL    HW183492   3.487   6.677   2.117  1.5754  0.8541  0.9995
23811SOL    HW283493   3.526   6.780   1.996  1.5429  0.9945  1.1083
23812SOL     OW83494   8.031   8.439   5.796  0.1672  0.7009  0.4222
23812SOL    HW183495   7.939   8.434   5.757  0.1884  1.1592  0.3054
23812SOL    HW283496   8.056   8.535   5.809  1.5390  0.6626 -1.7299
23813SOL     OW83497   1.447   0.353   6.214 -1.1059  0.2430  0.2531
23813SOL    HW183498   1.407   0.265   6.240 -0.7024  0.0888  0.3486
23813SOL    HW283499   1.457   0.410   6.295 -0.1357 -0.1206  0.3857
23814SOL     OW83500   2.359   3.892   1.522 -0.5720  0.0074 -0.0330
23814SOL    HW183501   2.287   3.876   1.589 -0.1568  0.0112  0.4113
23814SOL    HW283502   2.344   3.980   1.477 -0.8361  0.0130  0.0671
23815SOL     OW83503   3.507   9.754   4.222  0.2095 -0.0172 -0.3288
23815SOL    HW183504   3.432   9.748   4.288  1.5965  0.2076  1.2919
23815SOL    HW283505   3.524   9.664   4.184  0.0730 -0.3473  0.3763
23816SOL     OW83506   3.621   5.851   5.148 -0.0210 -0.4759 -0.3220
23816SOL    HW183507   3.682   5.859   5.227 -2.1673  1.4515  1.2124
23816SOL    HW283508   3.651   5.914   5.077  1.3123 -1.4643 -0.6481
23817SOL     OW83509   9.586   8.711   9.632  0.2737  0.3866  0.3213
23817SOL    HW183510   9.542   8.627   9.599  1.4876  0.3638 -1.3019
23817SOL    HW283511   9.667   8.687   9.684 -0.8585  0.4764  2.1568
23818SOL     OW83512   9.025   2.962   7.776  1.0250 -0.5489  0.1571
23818SOL    HW183513   8.991   2.987   7.685  1.9993 -0.7104 -0.2598
23818SOL    HW283514   9.093   3.029   7.805 -0.0371  0.0853  1.2266
23819SOL     OW83515   1.270   6.360   9.829 -0.0886  0.1511 -0.1453
23819SOL    HW183516   1.210   6.391   9.756 -0.5803 -1.7570 -0.5865
23819SOL    HW283517   1.340   6.299   9.792  1.1379  1.0853  0.6102
23820SOL     OW83518   9.524   9.070   2.836  0.1188  0.1009  0.2031
23820SOL    HW183519   9.474   9.061   2.923  0.8866  2.0788  0.8702
23820SOL    HW283520   9.535   9.167   2.814  2.6101 -0.3384 -0.5629
23821SOL     OW83521   8.187   5.095   9.360  0.2107 -0.6629 -0.0079
23821SOL    HW183522   8.243   5.098   9.277 -0.0144  0.2049 -0.1373
23821SOL    HW283523   8.101   5.048   9.341  0.4145 -1.0034 -0.1024
23822SOL     OW83524   0.866   2.028   5.250 -0.3596  0.4587 -0.5026
23822SOL    HW183525   0.948   1.994   5.297  0.0946  0.1230 -1.5285
23822SOL    HW283526   0.841   1.964   5.177 -1.1310  0.9261 -0.6484
23823SOL     OW83527   1.855   5.021   6.860  0.1130 -0.8817  0.5514
23823SOL    HW183528   1.951   5.007   6.885  0.6899  1.2405 -0.4226
23823SOL    HW283529   1.796   4.984   6.932  1.6637 -0.9819  1.7814
23824SOL     OW83530   8.987   2.306   9.909  0.3700  0.5965  0.2788
23824SOL    HW183531   8.998   2.244   9.831 -0.5434  0.4689  0.2468
23824SOL    HW283532   8.946   2.392   9.879  0.2887  0.6596  0.5653
23825SOL     OW83533   1.564   7.800   3.550  0.0058 -0.4102  0.4303
23825SOL    HW183534   1.568   7.754   3.638 -0.5326 -0.8053  0.2563
23825SOL    HW283535   1.627   7.755   3.486 -2.3459 -2.5990 -0.4886
23826SOL     OW83536   9.020   7.375   0.846 -0.4441 -0.1065 -0.6217
23826SOL    HW183537   8.983   7.458   0.805  2.4051  1.8435  0.6027
23826SOL    HW283538   8.983   7.363   0.938  0.8729  1.0939  0.0809
23827SOL     OW83539   0.154   5.011   6.738  0.4494 -0.3444  0.0157
23827SOL    HW183540   0.057   5.034   6.741  0.9510  1.9155  0.2268
23827SOL    HW283541   0.187   4.991   6.830  0.3848 -0.2055  0.0691
23828SOL     OW83542   9.712   7.516   0.506 -0.2226  0.6351 -0.0650
23828SOL    HW183543   9.727   7.602   0.555 -0.8077  0.5069  0.3489
23828SOL    HW283544   9.626   7.523   0.454 -0.8529 -0.1010  0.8678
23829SOL     OW83545   3.055   8.566   4.049 -0.1248  0.2873  0.1080
23829SOL    HW183546   2.962   8.599   4.035  0.4674  1.6084 -0.8273
23829SOL    HW283547   3.089   8.525   3.964  0.7381  1.3580 -0.0808
23830SOL     OW83548   0.889   3.123   4.249 -0.1344 -0.5449 -1.1447
23830SOL    HW183549   0.913   3.220   4.251  0.4334 -0.7004  0.1305
23830SOL    HW283550   0.794   3.113   4.219 -0.5236  0.4707 -0.3062
23831SOL     OW83551   7.961   0.389   9.872  0.8451  0.1834  0.4430
23831SOL    HW183552   7.933   0.441   9.791  1.2927 -0.8436 -0.3995
23831SOL    HW283553   7.905   0.415   9.950 -1.8959 -1.1871 -0.9730
23832SOL     OW83554   3.183   1.310   4.693 -0.0421 -0.3649  0.0153
23832SOL    HW183555   3.183   1.264   4.782 -1.0291  0.8657  0.6489
23832SOL    HW283556   3.147   1.247   4.624  0.1410 -1.1050  0.5791
23833SOL     OW83557   9.636   0.563   7.755  0.0129 -0.2148  0.6226
23833SOL    HW183558   9.678   0.493   7.698  2.2450  1.4100  0.2026
23833SOL    HW283559   9.559   0.524   7.806 -0.1937 -2.3769 -1.3043
23834SOL     OW83560   8.291   5.899   9.572  0.6988 -0.2836  0.1605
23834SOL    HW183561   8.233   5.928   9.495  0.2327 -2.4346 -0.3254
23834SOL    HW283562   8.365   5.841   9.539 -0.2837 -2.3371  1.4720
23835SOL     OW83563   3.022   0.686   1.121 -0.2264 -0.6540 -0.4018
23835SOL    HW183564   3.039   0.776   1.160  0.8671 -0.8876 -0.3152
23835SOL    HW283565   3.026   0.691   1.021 -0.6988 -0.5064 -0.4140
23836SOL     OW83566   3.116   9.751   8.945 -0.5141  0.2271 -0.5409
23836SOL    HW183567   3.086   9.842   8.971 -1.5794  0.4603 -2.4913
23836SOL    HW283568   3.077   9.684   9.008 -0.4545  1.0434  0.3688
23837SOL     OW83569   4.052   9.375   1.216  0.3480  0.0173  0.2504
23837SOL    HW183570   4.082   9.330   1.299  0.2138  1.5352  1.1372
23837SOL    HW283571   3.956   9.405   1.226  0.2171 -0.1014 -0.5708
23838SOL     OW83572   2.461   3.840   6.246  0.3683 -0.0247 -0.5564
23838SOL    HW183573   2.361   3.842   6.237  0.4741 -1.0192 -2.1702
23838SOL    HW283574   2.494   3.931   6.270 -0.8711  0.5005 -0.8009
23839SOL     OW83575   4.947   5.944   2.397  0.1186  0.4128 -0.4112
23839SOL    HW183576   5.007   5.910   2.469  0.6237  1.6924 -0.2225
23839SOL    HW283577   4.852   5.922   2.419  0.1855  1.5904  1.0905
23840SOL     OW83578   3.216   0.880   7.770 -0.2592  0.4130  0.3680
23840SOL    HW183579   3.309   0.910   7.750  0.2667 -1.1488  0.3565
23840SOL    HW283580   3.194   0.901   7.865  0.7146 -0.6372  0.8432
23841SOL     OW83581   8.236   7.136   5.201  0.5590  0.3032  0.5084
23841SOL    HW183582   8.150   7.167   5.162 -0.0688 -2.0006 -0.0270
23841SOL    HW283583   8.223   7.115   5.298  0.3217 -0.7851  0.2415
23842SOL     OW83584   7.282   8.761   7.853  0.2094  0.5576 -0.3155
23842SOL    HW183585   7.352   8.822   7.890  0.4754  0.4064 -0.5641
23842SOL    HW283586   7.303   8.741   7.757 -0.7504  1.3715 -0.7091
23843SOL     OW83587   6.114   4.043   2.235  0.0703  0.2125 -0.0555
23843SOL    HW183588   6.017   4.016   2.235  0.2249 -0.3664 -1.4230
23843SOL    HW283589   6.171   3.962   2.247  0.4382  0.3383 -0.9448
23844SOL     OW83590   9.570   3.778   6.236  0.0689  0.0969  0.3535
23844SOL    HW183591   9.651   3.766   6.294 -0.1527  0.2106  0.6821
23844SOL    HW283592   9.507   3.702   6.251  0.5636 -0.5178 -0.6323
23845SOL     OW83593   5.011   8.970   1.182 -0.3565 -0.0165 -0.0407
23845SOL    HW183594   4.976   8.883   1.215  0.4053  0.0512  0.9595
23845SOL    HW283595   4.955   9.045   1.219 -0.6447 -0.0461 -0.4161
23846SOL     OW83596   6.656   1.742   1.060 -0.1229  0.0739  0.1476
23846SOL    HW183597   6.624   1.836   1.053  1.2917  0.6113  0.6818
23846SOL    HW283598   6.755   1.741   1.079  0.3923 -1.5429 -2.3593
23847SOL     OW83599   9.292   9.598   5.050  0.0589  0.0621  0.2646
23847SOL    HW183600   9.320   9.505   5.075  0.9474 -0.1909 -1.6094
23847SOL    HW283601   9.209   9.594   4.994  0.8784  0.2763 -0.9988
23848SOL     OW83602   0.788   9.363   1.207 -0.5117  0.2163 -0.0922
23848SOL    HW183603   0.710   9.425   1.193  0.0627  0.7941 -0.7468
23848SOL    HW283604   0.841   9.356   1.123  2.0868  2.5170  1.2365
23849SOL     OW83605   2.859   9.936   4.356  0.0292 -0.1606  0.6672
23849SOL    HW183606   2.802  10.005   4.312  0.3131 -1.5282 -1.9144
23849SOL    HW283607   2.953   9.970   4.364 -0.0402  0.1181  0.2961
23850SOL     OW83608   2.365   3.476   3.378 -0.2616 -0.5429  0.4800
23850SOL    HW183609   2.384   3.541   3.451 -0.0775 -1.2928  1.1054
23850SOL    HW283610   2.304   3.518   3.310  1.2675  0.8869 -0.0335
23851SOL     OW83611   3.268   1.696   5.468 -0.6137 -0.0377  0.2141
23851SOL    HW183612   3.278   1.686   5.567 -2.1229  1.2197  0.5226
23851SOL    HW283613   3.253   1.793   5.446 -1.6447 -0.4758 -1.1012
23852SOL     OW83614   1.237   3.431   7.541  0.4021  0.0518  0.2219
23852SOL    HW183615   1.219   3.377   7.458  3.0740 -0.9717  0.2349
23852SOL    HW283616   1.268   3.522   7.515 -0.6417  0.3825  0.1321
23853SOL     OW83617   6.268   9.040   3.865 -0.1960 -0.4487 -0.3647
23853SOL    HW183618   6.239   9.122   3.815  1.3299 -0.0338 -0.5930
23853SOL    HW283619   6.330   8.987   3.808  0.3780 -0.7493  0.5405
23854SOL     OW83620   0.546   2.807   3.344  0.6026  0.7102  0.2275
23854SOL    HW183621   0.512   2.895   3.309  1.7645  1.7489  1.6484
23854SOL    HW283622   0.588   2.821   3.434 -0.2184 -1.5172  0.9821
23855SOL     OW83623   3.103   8.268   4.836  0.1868 -0.4158 -0.2579
23855SOL    HW183624   3.180   8.332   4.824 -0.8064  1.0334  0.9241
23855SOL    HW283625   3.123   8.206   4.912  0.2813 -0.1902 -0.0980
23856SOL     OW83626   6.499   4.202   0.055 -0.2091 -0.6259 -0.3404
23856SOL    HW183627   6.459   4.238   0.139  0.5889  0.2148 -0.3041
23856SOL    HW283628   6.444   4.230  -0.023  0.0659  0.1643 -0.2553
23857SOL     OW83629   8.838   6.928   4.411 -0.3983 -0.1596 -0.1184
23857SOL    HW183630   8.809   6.837   4.381  0.4230  0.1407 -1.8677
23857SOL    HW283631   8.839   6.990   4.333  4.3066  0.0332 -0.0336
23858SOL     OW83632   3.717   8.003   9.252 -0.0809  0.0218 -0.2368
23858SOL    HW183633   3.751   7.918   9.212  0.6705 -0.6733  1.7921
23858SOL    HW283634   3.643   7.982   9.316  0.8765  0.7666  1.1440
23859SOL     OW83635   8.909   8.236   3.674  0.3222  0.0822 -0.2277
23859SOL    HW183636   8.936   8.157   3.729 -0.1344 -0.0611 -0.2032
23859SOL    HW283637   8.979   8.255   3.605  1.0302  0.4236  0.5728
23860SOL     OW83638   9.816   3.815   0.686  1.0105 -0.0782 -0.2356
23860SOL    HW183639   9.839   3.912   0.678 -0.1541  0.3204  1.0417
23860SOL    HW283640   9.718   3.802   0.667  0.5286 -0.5776  2.4308
23861SOL     OW83641   2.936   7.426   0.256 -0.2015  0.0861  0.0339
23861SOL    HW183642   2.876   7.504   0.279 -1.7072 -1.2017  0.5624
23861SOL    HW283643   2.897   7.342   0.294  1.5763 -0.8955 -0.2670
23862SOL     OW83644   3.799   6.287   1.174 -0.1291 -0.5481 -0.0869
23862SOL    HW183645   3.821   6.363   1.113  2.6419  0.4931  2.1271
23862SOL    HW283646   3.749   6.321   1.253  1.8224 -0.8941  1.3091
23863SOL     OW83647   0.408   1.607   2.874  0.2082  0.2313 -0.6492
23863SOL    HW183648   0.353   1.686   2.901 -0.3387 -0.1652 -0.5970
23863SOL    HW283649   0.394   1.589   2.777 -0.7319 -0.6245 -0.3752
23864SOL     OW83650   5.448   1.104   0.165  0.4265  0.0567  0.1670
23864SOL    HW183651   5.393   1.027   0.197  1.0223 -0.5313 -0.2158
23864SOL    HW283652   5.532   1.110   0.218  0.8324 -0.1499 -0.4544
23865SOL     OW83653   0.168   3.177   7.889  0.1424  0.6405 -0.1364
23865SOL    HW183654   0.080   3.158   7.845  1.2319 -1.9752 -1.2928
23865SOL    HW283655   0.209   3.258   7.848 -0.8460  0.7276 -0.9700
23866SOL     OW83656   6.993   4.748   9.283  0.1476 -0.0656 -0.0657
23866SOL    HW183657   7.025   4.821   9.223  0.3400 -0.7779 -0.8333
23866SOL    HW283658   7.003   4.660   9.237  0.5064 -0.6408  1.1017
23867SOL     OW83659   3.145   2.698   2.740 -0.5434 -0.4469  0.4494
23867SOL    HW183660   3.172   2.789   2.710  1.7271 -0.9630  0.8697
23867SOL    HW283661   3.135   2.638   2.660  0.1261 -0.3989  0.3305
23868SOL     OW83662   2.635   4.213   3.123 -0.3829 -0.4010 -0.1750
23868SOL    HW183663   2.646   4.262   3.036 -0.9237  3.3839  1.7791
23868SOL    HW283664   2.540   4.183   3.133 -0.5845  0.1496 -0.4180
23869SOL     OW83665   8.376   4.296   2.812  0.4619 -0.1930  0.0367
23869SOL    HW183666   8.285   4.333   2.832 -0.4162 -0.6521 -2.9105
23869SOL    HW283667   8.370   4.230   2.737  3.2982  0.0700 -0.4950
23870SOL     OW83668   3.560   1.502   1.923 -0.0284 -0.5117  0.1493
23870SOL    HW183669   3.643   1.449   1.938 -0.3557 -0.5374  1.9148
23870SOL    HW283670   3.539   1.504   1.825  1.3032 -1.6217 -0.1688
23871SOL     OW83671   9.518   6.156   6.744  0.1162 -0.0329  0.0255
23871SOL    HW183672   9.557   6.083   6.688  0.1059 -0.3428  0.4211
23871SOL    HW283673   9.525   6.132   6.841  0.3996  0.6368  0.1727
23872SOL     OW83674   9.510   2.625   0.370 -0.1623  0.3130 -0.7871
23872SOL    HW183675   9.419   2.641   0.333  0.5331  2.1680 -1.7756
23872SOL    HW283676   9.575   2.688   0.327  1.4166 -0.3379  0.5773
23873SOL     OW83677   5.064   2.212   0.919  0.2495 -0.0302 -0.3978
23873SOL    HW183678   4.986   2.151   0.903 -0.8075  0.8784  1.1377
23873SOL    HW283679   5.128   2.169   0.982 -1.3390  1.0825  2.0478
23874SOL     OW83680   0.211   8.352   7.357  0.2806 -0.5175 -0.0866
23874SOL    HW183681   0.201   8.253   7.344  1.8066 -0.8644  1.2882
23874SOL    HW283682   0.244   8.393   7.272 -2.0100 -0.9124 -1.2135
23875SOL     OW83683   7.757   6.658   0.492  0.1903  0.1345 -0.3701
23875SOL    HW183684   7.811   6.742   0.486  0.8103 -0.1076  1.4009
23875SOL    HW283685   7.789   6.593   0.423  1.6258  0.3111  0.1057
23876SOL     OW83686   0.276   7.514   6.399  0.1772 -0.2802 -0.4563
23876SOL    HW183687   0.286   7.613   6.406  1.0650 -0.4115  0.3379
23876SOL    HW283688   0.313   7.482   6.312  0.9882 -0.0366 -0.2075
23877SOL     OW83689   8.310   3.405   9.038 -0.4825  0.0618 -0.3160
23877SOL    HW183690   8.386   3.470   9.035  0.4969 -1.1170 -1.7793
23877SOL    HW283691   8.276   3.389   8.945 -2.2087  0.1954  0.2712
23878SOL     OW83692   8.945   2.776   1.796  0.3562  0.4280 -0.4136
23878SOL    HW183693   8.898   2.703   1.746  2.2080 -0.0767 -1.4740
23878SOL    HW283694   8.952   2.751   1.893 -0.2980 -0.1338 -0.5122
23879SOL     OW83695   9.311   4.802   1.970 -0.1425  0.5600 -0.6322
23879SOL    HW183696   9.376   4.727   1.964  0.7211  1.4511 -2.8747
23879SOL    HW283697   9.352   4.877   2.022 -1.6181 -1.0617  3.0695
23880SOL     OW83698   4.314   4.073   1.753 -0.9827  0.5125 -0.6482
23880SOL    HW183699   4.340   4.107   1.844 -1.4020  1.8528 -1.0208
23880SOL    HW283700   4.358   4.128   1.683  1.2377 -1.9753 -1.3005
23881SOL     OW83701   1.646   5.077   4.489 -0.6087 -0.6575  0.5086
23881SOL    HW183702   1.664   5.174   4.469  2.1405 -0.9716  1.3357
23881SOL    HW283703   1.715   5.021   4.445 -1.6047 -2.1994  0.8855
23882SOL     OW83704   7.160   1.402   0.107 -0.5300  0.7853  0.0447
23882SOL    HW183705   7.254   1.367   0.106 -0.8321 -0.0380 -1.1033
23882SOL    HW283706   7.096   1.327   0.122 -1.0714  1.1577 -0.3676
23883SOL     OW83707   2.160   3.582   6.959 -0.0646 -0.1980 -0.3598
23883SOL    HW183708   2.160   3.547   6.866  0.4196 -1.2500  0.0283
23883SOL    HW283709   2.251   3.617   6.981  0.1882 -1.1631  0.1597
23884SOL     OW83710   1.917   7.860   2.919 -0.4525 -0.6849  0.2006
23884SOL    HW183711   1.847   7.900   2.979  0.1191 -0.9619  1.0611
23884SOL    HW283712   1.991   7.823   2.974 -0.2526 -1.5868 -0.6577
23885SOL     OW83713   5.624   0.624   4.914 -0.0606  0.4385 -0.5204
23885SOL    HW183714   5.544   0.594   4.966  0.0832  1.3247  0.2352
23885SOL    HW283715   5.632   0.724   4.920  1.0303  0.3703 -0.7040
23886SOL     OW83716   1.959   4.614   5.609  0.0357 -0.0486 -0.1644
23886SOL    HW183717   1.897   4.585   5.536  0.1838  0.9668 -0.7022
23886SOL    HW283718   1.950   4.552   5.687  0.9900 -2.0702 -1.6112
23887SOL     OW83719   8.883   5.714   3.552 -0.1188 -0.3726 -0.2135
23887SOL    HW183720   8.786   5.727   3.536 -0.0707  0.0829 -0.1365
23887SOL    HW283721   8.912   5.766   3.633  0.1489 -0.6583 -0.1209
23888SOL     OW83722   1.444   0.196   5.525  0.3168 -0.0514 -0.0039
23888SOL    HW183723   1.347   0.175   5.512 -0.0644  1.6947 -0.1270
23888SOL    HW283724   1.483   0.227   5.438  0.5828  0.8072  0.4221
23889SOL     OW83725   8.050  -0.003   5.825 -0.3192 -0.9885 -0.0266
23889SOL    HW183726   7.957  -0.004   5.862 -0.7953  0.8103 -1.0941
23889SOL    HW283727   8.053   0.054   5.743  1.9410 -0.1606  0.5844
23890SOL     OW83728   9.772   8.055   1.446  0.0560 -0.0407 -0.1129
23890SOL    HW183729   9.676   8.077   1.429  0.2527  0.6576 -0.3582
23890SOL    HW283730   9.780   7.997   1.527 -0.2213  4.0135  2.9843
23891SOL     OW83731   7.284   8.374   8.575  0.1599 -0.8431 -0.4617
23891SOL    HW183732   7.336   8.351   8.493 -2.7094 -0.0930 -2.5679
23891SOL    HW283733   7.194   8.331   8.571 -1.3764  2.1539  0.5123
23892SOL     OW83734   1.469   8.071   9.571  0.3259  0.5794 -0.2483
23892SOL    HW183735   1.554   8.124   9.563  0.3188  0.2646 -2.7188
23892SOL    HW283736   1.395   8.130   9.603  1.2892  1.0452  1.1353
23893SOL     OW83737   0.840   5.875   1.925  0.5616  0.1537 -0.1811
23893SOL    HW183738   0.831   5.917   2.015 -2.4343  0.0630 -0.3737
23893SOL    HW283739   0.774   5.800   1.917  2.1870 -1.1514 -1.7484
23894SOL     OW83740   8.825   7.573   8.016  0.0013 -0.5794  0.3846
23894SOL    HW183741   8.842   7.491   7.963  1.8572 -0.7557  1.2152
23894SOL    HW283742   8.912   7.618   8.038 -0.8547  0.5499  1.5897
23895SOL     OW83743   1.834   8.664   7.692  0.4633  0.1798  0.0797
23895SOL    HW183744   1.825   8.745   7.750 -1.1022 -1.3803  2.0757
23895SOL    HW283745   1.795   8.682   7.602 -1.2300  1.1597  0.9970
23896SOL     OW83746   0.789   6.105   8.541 -0.1917  0.1178 -0.2383
23896SOL    HW183747   0.741   6.036   8.595 -0.0805 -0.3219 -0.6890
23896SOL    HW283748   0.861   6.060   8.488 -0.2741  0.5481 -0.7150
23897SOL     OW83749   5.407   0.961   3.716  0.6321  0.2543  0.1553
23897SOL    HW183750   5.367   0.891   3.658  1.8651  0.6744 -1.2172
23897SOL    HW283751   5.507   0.959   3.706  0.6963  1.9191  0.4364
23898SOL     OW83752   0.256   2.157   5.048  0.3091 -0.6352  0.0799
23898SOL    HW183753   0.336   2.171   5.106  0.2786 -1.8710  0.4297
23898SOL    HW283754   0.176   2.203   5.088  0.3353 -1.3063  0.9077
23899SOL     OW83755   9.934   1.185   0.622 -0.5573  0.2321  0.7048
23899SOL    HW183756   9.855   1.149   0.572 -0.9637  1.6501  0.2945
23899SOL    HW283757   9.959   1.274   0.584  2.1436 -0.8223 -0.0974
23900SOL     OW83758   1.128   5.743   1.303  0.6369  0.3361  0.4216
23900SOL    HW183759   1.039   5.787   1.288  0.8872  0.5361 -0.5081
23900SOL    HW283760   1.119   5.673   1.374 -0.4114 -0.0943 -0.1251
23901SOL     OW83761   4.260   1.382   0.220  0.4528 -0.0716  0.0664
23901SOL    HW183762   4.305   1.471   0.212  0.1991 -0.1162 -2.2163
23901SOL    HW283763   4.161   1.394   0.209  0.2983 -0.4847  0.9906
23902SOL     OW83764   9.005   4.356   1.854 -0.6030 -0.0137  0.0378
23902SOL    HW183765   8.984   4.430   1.918  0.8586  0.5691 -0.1450
23902SOL    HW283766   8.931   4.348   1.787 -2.5456 -1.1732  2.2554
23903SOL     OW83767   2.065   9.574   8.583 -0.0939  0.1551  0.1335
23903SOL    HW183768   2.133   9.631   8.628 -0.6748  0.5863  0.4821
23903SOL    HW283769   2.110   9.507   8.525  0.6315  0.2858  0.5401
23904SOL     OW83770   4.807   0.681   0.869  0.6248  0.0478 -0.0429
23904SOL    HW183771   4.882   0.661   0.805  1.4940  0.0466  0.9581
23904SOL    HW283772   4.741   0.741   0.825  0.8214 -0.5642 -1.2051
23905SOL     OW83773   0.345   4.959   7.477 -0.3596 -0.2614 -0.2453
23905SOL    HW183774   0.258   4.913   7.463 -2.3516  2.4361  2.5744
23905SOL    HW283775   0.393   4.918   7.555 -1.5316  1.4957  1.4414
23906SOL     OW83776   6.907   8.852   3.582  0.1311 -0.2026 -0.0860
23906SOL    HW183777   6.955   8.939   3.570 -0.8189  0.6504  1.9389
23906SOL    HW283778   6.903   8.803   3.495  0.1351  2.0814 -1.4089
23907SOL     OW83779   2.377   8.827   3.247  0.1406  0.0494 -0.8512
23907SOL    HW183780   2.468   8.854   3.281 -0.9663  3.0861 -0.1625
23907SOL    HW283781   2.356   8.878   3.164 -1.3140 -0.0173 -0.5328
23908SOL     OW83782   9.636   2.382   8.065 -0.2001  0.3504 -0.4722
23908SOL    HW183783   9.668   2.328   8.143  1.3397  1.0967 -0.5668
23908SOL    HW283784   9.610   2.321   7.990  1.5598 -0.2932 -0.5872
23909SOL     OW83785   1.417   3.931   8.280  0.4596  0.3779 -0.2419
23909SOL    HW183786   1.450   4.025   8.265  0.1766  0.1954 -2.1412
23909SOL    HW283787   1.474   3.868   8.228 -1.2656 -0.1971 -1.4703
23910SOL     OW83788   4.819   8.469   2.645  0.6529 -0.5978  0.1870
23910SOL    HW183789   4.842   8.474   2.548  0.1400  3.4729  0.2090
23910SOL    HW283790   4.722   8.491   2.658  1.0762  0.3737  1.7629
23911SOL     OW83791   1.945   9.954   5.433 -0.2836 -0.6580  0.2633
23911SOL    HW183792   1.878  10.002   5.377 -0.5798 -1.4862 -0.0950
23911SOL    HW283793   1.920   9.858   5.440 -0.0155 -0.6437  1.4787
23912SOL     OW83794   2.005   7.732   9.523 -0.4630  0.2960  0.1546
23912SOL    HW183795   1.988   7.821   9.564 -1.2937  0.2050  0.0160
23912SOL    HW283796   2.103   7.715   9.518 -0.3253  0.9054  0.8212
23913SOL     OW83797   5.773   5.054   8.197  0.3421  0.2026 -0.9314
23913SOL    HW183798   5.765   5.149   8.227 -1.3120 -0.0820 -0.4256
23913SOL    HW283799   5.754   5.049   8.099  2.3771  0.6608 -1.3577
23914SOL     OW83800   9.791   7.456   8.188 -0.4185  0.3188 -0.3754
23914SOL    HW183801   9.856   7.531   8.191  0.6566 -0.6282  0.4067
23914SOL    HW283802   9.714   7.477   8.249 -1.0479  1.5948 -1.5795
23915SOL     OW83803   9.641   8.966   5.926 -0.6821 -0.5841  0.2067
23915SOL    HW183804   9.547   8.957   5.958 -1.2318 -2.0332 -1.7273
23915SOL    HW283805   9.683   8.875   5.920  1.5651  0.1847  3.0495
23916SOL     OW83806   6.397   5.846   8.331  0.5686 -0.3505 -0.3490
23916SOL    HW183807   6.487   5.873   8.297  0.1447  2.4428  0.5893
23916SOL    HW283808   6.407   5.801   8.420  1.0889 -0.5269 -0.4970
23917SOL     OW83809   0.864   8.067   1.748 -0.3176 -0.5364  0.7328
23917SOL    HW183810   0.809   7.993   1.709 -0.6183  0.3545 -0.5443
23917SOL    HW283811   0.902   8.123   1.675 -0.8716  1.1581  1.7083
23918SOL     OW83812   9.182   6.841   8.821  0.1894 -0.1623 -0.1334
23918SOL    HW183813   9.139   6.752   8.828 -1.2291  0.4809 -0.5665
23918SOL    HW283814   9.151   6.888   8.739 -1.1966  1.8375  1.4674
23919SOL     OW83815   0.354   7.001   7.321 -0.0245  0.1265  0.3757
23919SOL    HW183816   0.347   7.101   7.322  0.7067  0.2420 -2.6766
23919SOL    HW283817   0.262   6.962   7.331 -0.4261  1.1176  0.6404
23920SOL     OW83818   1.248   4.012   8.994  0.8082  0.2710  0.2705
23920SOL    HW183819   1.236   4.102   8.953  2.4064 -0.0745 -1.0107
23920SOL    HW283820   1.326   4.014   9.056  2.1620 -0.7117 -1.3417
23921SOL     OW83821   4.039   8.440   0.544 -0.0246  0.6868 -0.5841
23921SOL    HW183822   4.047   8.341   0.530 -3.0287  0.2774  0.1349
23921SOL    HW283823   4.078   8.488   0.466  0.1297 -1.1158 -1.6430
23922SOL     OW83824   0.482   9.503   0.539 -0.1241 -0.2599  0.1244
23922SOL    HW183825   0.556   9.437   0.556 -1.0185 -1.4417 -0.4610
23922SOL    HW283826   0.520   9.587   0.500  1.3658  0.6555  3.4290
23923SOL     OW83827   2.035   3.557   9.622 -0.2570 -0.6761 -0.1908
23923SOL    HW183828   1.995   3.562   9.531 -0.3033 -1.0406 -0.1909
23923SOL    HW283829   1.982   3.614   9.685  0.0019 -0.1168 -0.4712
23924SOL     OW83830   6.910   5.665   0.866 -0.3992 -0.6880  0.2924
23924SOL    HW183831   6.952   5.713   0.943 -1.8865  0.9851  0.0912
23924SOL    HW283832   6.982   5.631   0.805  0.7134  2.5003 -0.2832
23925SOL     OW83833   1.423   6.937   5.755  0.9296  0.2559 -0.7910
23925SOL    HW183834   1.368   6.856   5.733 -1.5225  1.3327  1.1061
23925SOL    HW283835   1.510   6.908   5.795 -0.2945 -1.4677  0.7115
23926SOL     OW83836   0.581   0.670   7.248 -0.0538  0.3567 -0.4998
23926SOL    HW183837   0.486   0.657   7.278 -0.0753  0.3260 -0.5808
23926SOL    HW283838   0.641   0.671   7.327  0.1798 -2.0967 -0.6332
23927SOL     OW83839   1.348   8.115   5.473  0.5295 -0.4383 -0.3315
23927SOL    HW183840   1.361   8.089   5.377  2.5258  1.7180 -0.6951
23927SOL    HW283841   1.387   8.206   5.488 -0.5276 -0.3929  2.3416
23928SOL     OW83842   8.142   1.006   5.783  0.3301 -0.0339  0.2302
23928SOL    HW183843   8.042   1.001   5.783  0.2652  1.2051 -1.2373
23928SOL    HW283844   8.178   0.941   5.716  0.3938  1.4444 -1.1908
23929SOL     OW83845   4.200   0.988   3.855  0.1048  0.4928  0.1474
23929SOL    HW183846   4.242   0.967   3.943  1.5054 -0.1925 -0.6634
23929SOL    HW283847   4.193   0.904   3.801  1.6056  1.3236 -1.3858
23930SOL     OW83848   1.548   2.672   9.133 -0.4246  0.3454 -0.1182
23930SOL    HW183849   1.471   2.665   9.070  0.1383  0.0176 -0.7716
23930SOL    HW283850   1.633   2.655   9.084  0.1953  2.1711  0.2907
23931SOL     OW83851   9.696   3.579   0.560 -0.4655 -0.3071  0.0791
23931SOL    HW183852   9.760   3.639   0.511 -0.6203  0.7000  1.0899
23931SOL    HW283853   9.664   3.507   0.499  0.8800 -0.2338 -0.7206
23932SOL     OW83854   8.670   2.941   2.248  0.8822  0.3036  0.1332
23932SOL    HW183855   8.571   2.929   2.256  0.4987  1.5939 -2.1275
23932SOL    HW283856   8.695   3.034   2.278  1.3586  0.1105  0.3404
23933SOL     OW83857   5.522   1.793   7.021  0.1908 -0.9291  0.9253
23933SOL    HW183858   5.427   1.822   7.027  0.7852  0.7975  2.0429
23933SOL    HW283859   5.567   1.806   7.109  1.9160 -0.1507 -0.0543
23934SOL     OW83860   2.892   7.632   9.500  0.2629 -0.5218  0.0822
23934SOL    HW183861   2.903   7.660   9.405  0.3657  1.9766  0.7880
23934SOL    HW283862   2.980   7.599   9.536  0.3649 -0.8980 -0.5145
23935SOL     OW83863   9.150   9.338   7.246  0.0802 -0.4902 -0.2897
23935SOL    HW183864   9.128   9.343   7.343  0.8951 -0.3313 -0.1036
23935SOL    HW283865   9.249   9.330   7.235  0.1328  1.1083 -1.1488
23936SOL     OW83866   0.748   9.907   8.534  0.4373 -0.4252 -0.4755
23936SOL    HW183867   0.768   9.838   8.465 -0.5491 -3.4270  2.0857
23936SOL    HW283868   0.665   9.881   8.584  1.4875  1.2413  2.2622
23937SOL     OW83869   3.579   6.086   1.609  0.0257 -0.0744  0.3522
23937SOL    HW183870   3.534   6.090   1.698 -0.3322  0.3471  0.1533
23937SOL    HW283871   3.527   6.028   1.547  2.3378 -3.6130  1.5846
23938SOL     OW83872   8.387   1.528   3.620 -0.3365  0.2270  0.0914
23938SOL    HW183873   8.435   1.450   3.580  1.4185  1.0266  0.5799
23938SOL    HW283874   8.334   1.575   3.549 -2.0857 -1.8787 -0.0370
23939SOL     OW83875   6.595   3.325   9.110  0.2062  0.0661  0.3233
23939SOL    HW183876   6.616   3.375   9.194  0.6181 -0.2014  0.3772
23939SOL    HW283877   6.513   3.269   9.124 -0.3426  0.8370  0.2182
23940SOL     OW83878   9.976   3.775   3.989  0.1978  1.0559  0.4972
23940SOL    HW183879   9.966   3.676   3.994 -1.4431  1.0841 -1.3482
23940SOL    HW283880   9.917   3.819   4.057 -0.2695  0.8062  0.2519
23941SOL     OW83881   7.938   0.805   9.607 -0.1792  0.0142 -0.2472
23941SOL    HW183882   7.860   0.865   9.588 -1.0256 -1.2247 -0.7580
23941SOL    HW283883   7.991   0.792   9.523  0.7375  1.0446  0.1517
23942SOL     OW83884   2.341   1.205   4.184  0.1573 -0.3378 -0.6172
23942SOL    HW183885   2.271   1.252   4.238 -1.8589  0.0354 -3.5094
23942SOL    HW283886   2.430   1.247   4.203 -1.0925  2.3923 -0.5088
23943SOL     OW83887   5.955   8.753   6.059 -0.0069  0.4950  0.1229
23943SOL    HW183888   5.870   8.804   6.045 -0.5290 -0.4975 -0.4220
23943SOL    HW283889   6.003   8.744   5.971  0.6836  1.0662  0.4309
23944SOL     OW83890   0.909   0.436   0.273  0.2560 -0.1301  0.4020
23944SOL    HW183891   0.957   0.504   0.329 -2.1391 -0.4811  3.0005
23944SOL    HW283892   0.947   0.436   0.181  1.5844  3.3912  0.8675
23945SOL     OW83893   0.622   3.509   1.364 -0.2525  0.0290 -0.2412
23945SOL    HW183894   0.559   3.578   1.398  0.8730  0.8175  0.2879
23945SOL    HW283895   0.589   3.418   1.389 -1.0889  0.4431  0.1675
23946SOL     OW83896   3.235   9.616   9.493 -0.0621  0.1402 -0.3057
23946SOL    HW183897   3.206   9.681   9.422 -1.2853  1.8703  1.7061
23946SOL    HW283898   3.320   9.649   9.535  1.0953 -1.2953 -1.4688
23947SOL     OW83899   0.531   2.982   8.943  0.1004  0.1328  0.1961
23947SOL    HW183900   0.621   3.027   8.948 -0.0931  0.7455 -1.3965
23947SOL    HW283901   0.475   3.012   9.020  0.5564  1.3659  0.0645
23948SOL     OW83902   9.935   3.656   3.501 -0.2438  0.0634 -0.1383
23948SOL    HW183903   9.992   3.585   3.459 -0.1821  0.0064  0.0400
23948SOL    HW283904   9.854   3.671   3.446  0.2538  0.5994 -0.7338
23949SOL     OW83905   5.184   0.647   8.835  0.2305 -0.2673  0.0020
23949SOL    HW183906   5.282   0.652   8.817 -0.1712  2.2765 -1.6803
23949SOL    HW283907   5.158   0.719   8.900 -0.2721 -2.0782  1.8915
23950SOL     OW83908   5.835   0.575   4.720 -0.3081  0.6474 -0.4160
23950SOL    HW183909   5.877   0.664   4.707 -0.3782  0.8656  0.7853
23950SOL    HW283910   5.765   0.580   4.792  1.8047 -1.0043  1.8537
23951SOL     OW83911   4.863   8.473   2.967  0.0033 -0.4800 -0.1989
23951SOL    HW183912   4.956   8.449   2.995 -0.4596 -0.7918  1.0588
23951SOL    HW283913   4.857   8.471   2.867  1.5462  0.2860 -0.3232
23952SOL     OW83914   0.984   9.158   0.197  0.0483  0.5389  0.0887
23952SOL    HW183915   0.919   9.205   0.257 -1.5841 -1.3390 -0.1237
23952SOL    HW283916   1.036   9.092   0.250 -0.7150 -0.4385 -0.3641
23953SOL     OW83917   0.401   6.790   2.366  0.5226 -0.3704 -0.7185
23953SOL    HW183918   0.323   6.740   2.402  0.1726  1.4606  1.2302
23953SOL    HW283919   0.446   6.737   2.295 -1.4643 -2.1901 -0.6493
23954SOL     OW83920   1.078   7.463   7.258 -0.2004 -0.5410 -0.4325
23954SOL    HW183921   1.101   7.535   7.192 -1.4864 -0.1956 -0.5195
23954SOL    HW283922   1.085   7.500   7.351  0.2101 -0.6232 -0.4276
23955SOL     OW83923   1.006   5.400   3.078 -0.1320  0.1243  0.3935
23955SOL    HW183924   1.090   5.348   3.094  0.3064  0.8955  0.5829
23955SOL    HW283925   0.928   5.337   3.081  0.5099 -0.7389 -0.6683
23956SOL     OW83926   1.041   1.986   9.635 -0.1708  0.6154  0.6984
23956SOL    HW183927   0.953   1.961   9.594  0.3561 -0.8553  0.4499
23956SOL    HW283928   1.115   1.946   9.581  0.5532 -0.5743  2.5381
23957SOL     OW83929   4.323   3.762   9.021  0.4367 -0.4484  0.0048
23957SOL    HW183930   4.239   3.741   9.071 -0.0845 -2.3816 -1.6041
23957SOL    HW283931   4.300   3.795   8.929  1.4255 -0.5224 -0.2783
23958SOL     OW83932   4.811   1.308   9.412  0.7726 -0.2542  0.7078
23958SOL    HW183933   4.761   1.394   9.404  1.1517 -0.1033 -0.0748
23958SOL    HW283934   4.770   1.252   9.484 -0.2040  0.0791  0.4145
23959SOL     OW83935   0.872   0.461   9.854  0.0760 -0.2203 -0.6685
23959SOL    HW183936   0.804   0.503   9.793  2.0123 -0.8644 -3.3875
23959SOL    HW283937   0.859   0.361   9.855 -1.2787 -0.0581  1.7172
23960SOL     OW83938   4.532   3.992   8.216  0.1233  0.0522  1.1384
23960SOL    HW183939   4.446   4.030   8.251 -0.0658 -0.1792  0.9251
23960SOL    HW283940   4.544   3.899   8.250 -0.7857 -0.7140 -0.5749
23961SOL     OW83941   6.315   7.619   4.812 -0.0093 -0.0702  0.0058
23961SOL    HW183942   6.401   7.667   4.827  0.2250 -0.5738  0.3075
23961SOL    HW283943   6.289   7.571   4.896  0.0853 -0.9784 -0.4704
23962SOL     OW83944   1.134   8.331   6.243 -0.4957  0.1778 -0.5130
23962SOL    HW183945   1.108   8.288   6.330 -1.1526  1.3545 -0.1281
23962SOL    HW283946   1.100   8.275   6.167 -0.1110 -0.7390 -0.0241
23963SOL     OW83947   9.954   0.546   0.922 -0.0588  0.1893  0.0983
23963SOL    HW183948   9.958   0.546   0.822 -1.5703 -0.8592  0.0184
23963SOL    HW283949  10.003   0.467   0.958 -0.3216  0.0414  0.1349
23964SOL     OW83950   3.315   5.643   9.995 -0.0600 -0.0183  0.2565
23964SOL    HW183951   3.351   5.719   9.941 -2.7496  1.9936  1.1984
23964SOL    HW283952   3.378   5.621  10.069  0.4050  1.7592  0.3917
23965SOL     OW83953   2.469   2.863   2.238  0.5342 -0.8318  0.3551
23965SOL    HW183954   2.478   2.943   2.178  2.0227  0.2953  2.0340
23965SOL    HW283955   2.382   2.868   2.287  0.2877 -0.6406 -0.0958
23966SOL     OW83956   2.838   6.813   8.998  0.1752 -0.5904  0.1422
23966SOL    HW183957   2.910   6.879   9.020 -0.2792 -0.1721  0.3866
23966SOL    HW283958   2.855   6.774   8.908 -0.5781  1.2827 -0.8378
23967SOL     OW83959   9.249   2.295   7.566  0.3957 -0.3799  1.1581
23967SOL    HW183960   9.280   2.207   7.530 -0.0337  0.5070 -1.4862
23967SOL    HW283961   9.329   2.348   7.595  0.7973 -0.8979  1.0206
23968SOL     OW83962   3.370   8.993   7.440  0.1271  0.1435 -0.4453
23968SOL    HW183963   3.452   9.025   7.392  0.1634 -0.0712 -0.5326
23968SOL    HW283964   3.355   8.896   7.418  1.3156 -0.5452  1.5875
23969SOL     OW83965   6.740   5.946   9.386 -0.1676  0.1476  0.6982
23969SOL    HW183966   6.642   5.934   9.369  0.1329 -1.1485 -0.2510
23969SOL    HW283967   6.788   5.949   9.298  0.7005  0.2783  1.1741
23970SOL     OW83968   4.327   1.564   7.212  0.5918  0.4314  0.2897
23970SOL    HW183969   4.314   1.657   7.248  1.9015  0.1307  1.5836
23970SOL    HW283970   4.299   1.562   7.116  0.6072  2.1834  0.2236
23971SOL     OW83971   2.565   0.342   6.561  0.2780 -0.2189 -0.0451
23971SOL    HW183972   2.525   0.383   6.643  3.1976  1.4485  0.6324
23971SOL    HW283973   2.640   0.281   6.588  0.3755 -0.7379 -1.4313
23972SOL     OW83974   7.395   4.027   9.632 -0.2693  0.0163 -0.0059
23972SOL    HW183975   7.310   4.022   9.579 -0.9381 -1.2948  1.1645
23972SOL    HW283976   7.406   4.120   9.669 -0.9157  0.3345 -0.5987
23973SOL     OW83977   3.633   8.689   7.764  0.2963 -0.1140 -0.3106
23973SOL    HW183978   3.640   8.766   7.701 -0.1267 -0.5030 -0.8354
23973SOL    HW283979   3.539   8.656   7.767  0.0121  0.8260  1.6387
23974SOL     OW83980   9.269   3.612   5.666  0.3057 -0.5847  0.7579
23974SOL    HW183981   9.320   3.694   5.690 -0.0470 -0.7474  2.0862
23974SOL    HW283982   9.311   3.533   5.711  0.4716 -1.1021 -0.2847
23975SOL     OW83983   3.040   9.533   0.656 -0.3541  0.6287  0.6260
23975SOL    HW183984   3.006   9.617   0.699 -1.1652  1.4266 -1.5220
23975SOL    HW283985   2.964   9.485   0.612  0.4414 -0.2584  0.2157
23976SOL     OW83986   1.286   2.122   7.250  0.1815  0.7747 -0.1677
23976SOL    HW183987   1.195   2.091   7.223  0.2758 -0.5465  1.0382
23976SOL    HW283988   1.355   2.066   7.203  0.3656  0.6215  0.2907
23977SOL     OW83989   7.031   2.741   9.147  0.1277  0.1350  0.8239
23977SOL    HW183990   7.066   2.663   9.095  1.2766  0.1151  1.5922
23977SOL    HW283991   6.938   2.762   9.119 -0.2475 -1.6122  0.7176
23978SOL     OW83992   7.644   5.861   4.727 -0.3426 -0.8213  0.2789
23978SOL    HW183993   7.652   5.938   4.790  1.3615 -1.5963  1.0264
23978SOL    HW283994   7.549   5.829   4.725 -1.2491  1.7681 -0.6395
23979SOL     OW83995   2.949   5.884   4.754 -0.8089  0.3712 -0.7285
23979SOL    HW183996   2.932   5.927   4.665 -0.7650  1.1939 -0.3446
23979SOL    HW283997   2.863   5.872   4.802 -0.7435  0.7249 -0.5208
23980SOL     OW83998   0.603   9.110   2.452  0.2493 -0.0801  0.0639
23980SOL    HW183999   0.699   9.090   2.433  0.2632 -1.4935  1.5657
23980SOL    HW284000   0.592   9.133   2.548 -0.6661  1.7515 -0.4555
23981SOL     OW84001   1.202   5.972   9.559 -0.6301  0.2332 -0.2818
23981SOL    HW184002   1.211   5.935   9.651 -0.6991  0.8672 -0.0182
23981SOL    HW284003   1.194   5.897   9.493  0.7425 -0.2580  0.0837
23982SOL     OW84004   6.959   2.177   9.927 -0.2739  0.4969 -0.1783
23982SOL    HW184005   7.027   2.228   9.980 -1.2478  0.4881  1.1141
23982SOL    HW284006   6.872   2.227   9.928 -0.8014 -0.4106 -0.2235
23983SOL     OW84007   2.203   4.693   9.617  0.0609  0.4843  0.3826
23983SOL    HW184008   2.173   4.755   9.544  0.0030  1.4851  1.2426
23983SOL    HW284009   2.138   4.618   9.626  0.4819 -0.0702 -1.1180
23984SOL     OW84010   2.052   1.380   4.910  0.6365  0.0078  0.2032
23984SOL    HW184011   2.125   1.391   4.842 -0.2234  0.3721 -0.6835
23984SOL    HW284012   2.061   1.450   4.981  1.2062 -0.0142  0.1546
23985SOL     OW84013   1.618   0.646   3.120  0.0888 -0.3314 -0.6233
23985SOL    HW184014   1.553   0.688   3.184  1.1048  0.0551  0.1703
23985SOL    HW284015   1.691   0.711   3.100  0.4399 -0.9012 -1.2162
23986SOL     OW84016   6.388   2.845   2.841 -0.6509 -0.1759  0.5985
23986SOL    HW184017   6.415   2.826   2.747  0.0366  2.0038  0.3232
23986SOL    HW284018   6.454   2.803   2.904 -0.8946 -1.2975  0.1203
23987SOL     OW84019   3.487   1.349   9.399  0.4487  0.1026 -0.2527
23987SOL    HW184020   3.503   1.425   9.336 -0.0123 -0.0894 -0.6032
23987SOL    HW284021   3.416   1.289   9.361  0.0548  0.0747  0.5310
23988SOL     OW84022   2.766   8.904   1.840  0.3346 -0.0940  0.3867
23988SOL    HW184023   2.793   8.999   1.854  2.1823 -0.5413  0.0274
23988SOL    HW284024   2.848   8.846   1.837 -0.5188 -1.2761 -2.4232
23989SOL     OW84025   7.733   0.916   3.491 -0.4792 -0.6048  0.6192
23989SOL    HW184026   7.651   0.907   3.435  0.5962  0.2170 -1.1035
23989SOL    HW284027   7.721   0.992   3.556  0.1424  1.6511 -1.8357
23990SOL     OW84028   7.453   3.990   4.073  0.7360 -0.3854 -0.2989
23990SOL    HW184029   7.512   3.954   4.145 -0.5709 -0.5124  0.7268
23990SOL    HW284030   7.397   3.916   4.035  1.5484 -0.3603 -1.6022
23991SOL     OW84031   1.562   5.041   8.657 -0.2949  0.2293  0.1223
23991SOL    HW184032   1.553   5.140   8.658  1.0168  0.4131  4.5061
23991SOL    HW284033   1.654   5.016   8.627  0.2559  0.4792  1.5797
23992SOL     OW84034   0.610   7.749   7.827 -0.6110  0.5291 -0.5165
23992SOL    HW184035   0.599   7.654   7.857 -0.6077  1.0554  1.1919
23992SOL    HW284036   0.633   7.806   7.905  0.7813  1.7158 -1.7698
23993SOL     OW84037   6.239   0.954   4.178 -0.2977  0.1067  0.4994
23993SOL    HW184038   6.295   0.888   4.228  0.0359  0.0574  0.0610
23993SOL    HW284039   6.285   0.981   4.094 -0.3791  1.0063  0.7358
23994SOL     OW84040   9.222   6.314   9.849  0.7046 -0.4004 -0.6887
23994SOL    HW184041   9.264   6.378   9.784  0.0962 -0.2137 -0.9069
23994SOL    HW284042   9.131   6.290   9.817  1.6107 -2.8098 -1.5435
23995SOL     OW84043   5.364   0.226   2.712  0.2652  0.0768  0.6638
23995SOL    HW184044   5.360   0.318   2.749  0.4134  0.9349 -1.3518
23995SOL    HW284045   5.287   0.172   2.746 -0.5849  1.3651  0.8160
23996SOL     OW84046   2.273   1.043   2.878  0.6575 -0.2748  0.4133
23996SOL    HW184047   2.244   1.042   2.973 -0.1966 -1.8990  0.1566
23996SOL    HW284048   2.368   1.013   2.871  0.9710  0.6192  0.8226
23997SOL     OW84049   6.806   8.478   6.854  0.5444 -0.1731  0.0610
23997SOL    HW184050   6.820   8.384   6.824 -1.0679 -1.2589  2.5410
23997SOL    HW284051   6.883   8.507   6.912 -0.3633 -1.0130  1.7059
23998SOL     OW84052   9.172   0.768   5.626 -0.0593  0.5450  0.4625
23998SOL    HW184053   9.256   0.714   5.624 -1.2294 -1.3172  1.0841
23998SOL    HW284054   9.139   0.781   5.532 -0.9457 -1.7210  0.4269
23999SOL     OW84055   6.569   0.006   4.268  0.5683 -0.6290 -0.8243
23999SOL    HW184056   6.564   0.092   4.217  0.8229 -0.3990 -0.4702
23999SOL    HW284057   6.477  -0.027   4.286  0.4713 -0.5191 -1.1163
24000SOL     OW84058   8.035   9.189   3.252 -0.2140 -0.0246 -0.4512
24000SOL    HW184059   8.103   9.263   3.250 -0.2835  0.0122 -1.6068
24000SOL    HW284060   8.082   9.101   3.253 -0.1321  0.0156  0.8615
24001SOL     OW84061   4.933   0.043   5.117  0.1256 -0.3003  0.8266
24001SOL    HW184062   4.996  -0.010   5.173  0.6479 -0.0191  0.5023
24001SOL    HW284063   4.973   0.131   5.096  0.6560 -1.0690 -1.4483
24002SOL     OW84064   0.462   2.224  10.051 -0.0759 -0.1638 -0.0314
24002SOL    HW184065   0.535   2.267   9.998 -0.7404  0.2180 -0.6460
24002SOL    HW284066   0.396   2.182   9.989 -0.1867 -0.8346  0.5302
24003SOL     OW84067   7.366   9.934   6.336 -0.2137  0.0819 -0.1756
24003SOL    HW184068   7.360   9.947   6.237  0.1712  2.2827  0.0795
24003SOL    HW284069   7.442   9.987   6.373 -1.5263  0.8146  1.5648
24004SOL     OW84070   6.108   3.310  10.011  0.4054 -0.2794  0.5635
24004SOL    HW184071   6.142   3.352   9.926  0.0118  0.2306  0.6515
24004SOL    HW284072   6.008   3.317  10.013  0.3382 -1.2308  0.5824
24005SOL     OW84073   8.831   7.815   2.150  0.9039  0.4143 -1.1285
24005SOL    HW184074   8.843   7.734   2.207 -2.3320  0.1370 -0.7567
24005SOL    HW284075   8.899   7.883   2.175  1.3009 -0.7516  1.1576
24006SOL     OW84076   0.567   6.339   9.977  0.2107 -0.4518  0.4082
24006SOL    HW184077   0.573   6.420   9.918  2.0537 -0.5719  0.3997
24006SOL    HW284078   0.643   6.341  10.043  0.0422 -1.9864  0.6541
24007SOL     OW84079   6.517   9.911   8.555 -0.4975  0.6289  0.2717
24007SOL    HW184080   6.486   9.907   8.650 -1.7196  0.3458 -0.1328
24007SOL    HW284081   6.441   9.938   8.496 -0.2698 -1.0907 -0.8601
24008SOL     OW84082   3.503   8.496   1.784  0.1715  0.5672 -0.1732
24008SOL    HW184083   3.450   8.508   1.868 -1.1454 -0.8560 -0.7751
24008SOL    HW284084   3.442   8.490   1.706  1.2343 -0.7813 -0.9250
24009SOL     OW84085   1.931   4.420   3.540 -1.2054  0.2850 -0.5059
24009SOL    HW184086   2.012   4.479   3.543 -1.4415  0.5590  0.8841
24009SOL    HW284087   1.959   4.326   3.521 -0.5338  0.3550  0.1041
24010SOL     OW84088   9.181   3.808   0.270  0.5790  0.3899  0.6478
24010SOL    HW184089   9.127   3.843   0.193  0.7346  0.5583  0.6127
24010SOL    HW284090   9.129   3.818   0.355  0.3042 -0.0402  0.5273
24011SOL     OW84091   8.788   2.557   9.150  0.2692  0.1897 -0.0719
24011SOL    HW184092   8.793   2.656   9.153  2.5886  0.0845 -0.1919
24011SOL    HW284093   8.750   2.528   9.061  4.2817  0.8433 -2.0832
24012SOL     OW84094   0.607   2.099   7.917  0.3909  0.7581 -0.1419
24012SOL    HW184095   0.643   2.192   7.909 -0.9738  1.1851 -1.4020
24012SOL    HW284096   0.548   2.093   7.998 -0.4732  1.3275 -0.7167
24013SOL     OW84097   8.654   6.657   9.147 -0.0059  0.4874  0.1059
24013SOL    HW184098   8.635   6.639   9.244 -1.4286  2.3554  0.2114
24013SOL    HW284099   8.735   6.715   9.139  0.8716 -0.7303  0.1017
24014SOL     OW84100   8.522   5.926   9.830  0.0249  0.0892 -0.4760
24014SOL    HW184101   8.505   5.859   9.902 -0.7777  0.4388 -0.3442
24014SOL    HW284102   8.442   5.985   9.819 -0.8129 -1.4588 -3.2483
24015SOL     OW84103   7.871   9.994   5.437 -0.2430  0.3954 -0.1196
24015SOL    HW184104   7.911  10.061   5.499 -0.6945  1.5320 -1.0133
24015SOL    HW284105   7.901   9.902   5.461  0.8684  0.9845  0.7594
24016SOL     OW84106   0.207   9.336   6.914 -0.5361 -0.4202  0.2761
24016SOL    HW184107   0.303   9.309   6.923  0.4179  1.9739 -1.9504
24016SOL    HW284108   0.158   9.268   6.860  0.4345 -0.5948 -0.4067
24017SOL     OW84109   3.643   2.031   6.667  0.6117 -0.5205 -0.3680
24017SOL    HW184110   3.594   2.108   6.708  0.1815 -1.2177  0.4607
24017SOL    HW284111   3.733   2.022   6.709  0.7164 -0.3852 -0.5621
24018SOL     OW84112   2.540   0.583   3.031 -0.0984 -0.4469  0.6343
24018SOL    HW184113   2.515   0.493   2.996  0.2976 -0.2349 -0.2161
24018SOL    HW284114   2.631   0.608   2.997 -0.5195  0.5850  0.2462
24019SOL     OW84115   5.819   4.739   2.783 -0.2596 -0.1110  0.8280
24019SOL    HW184116   5.854   4.740   2.877 -0.1058 -1.4886  0.7841
24019SOL    HW284117   5.894   4.755   2.719 -0.1594 -0.4051  0.8723
24020SOL     OW84118   8.978   1.144   8.566  0.7528  1.0106 -0.1820
24020SOL    HW184119   8.926   1.141   8.652 -0.3842  0.0832 -0.8867
24020SOL    HW284120   9.025   1.057   8.552  1.1973  1.2736 -0.3537
24021SOL     OW84121   8.419   3.125   5.487 -0.4625 -0.3747 -0.0362
24021SOL    HW184122   8.442   3.151   5.581 -0.2443 -2.5780  0.5631
24021SOL    HW284123   8.482   3.168   5.423 -0.0473  0.4329  0.9122
24022SOL     OW84124   3.739   0.534   4.495  0.8047 -0.6559  0.1407
24022SOL    HW184125   3.829   0.497   4.472  0.8244 -0.0934 -0.6709
24022SOL    HW284126   3.676   0.519   4.419  0.6007  0.2751  0.1257
24023SOL     OW84127   8.684   0.273   1.845 -0.0634 -1.0577  0.4872
24023SOL    HW184128   8.745   0.352   1.835 -0.2750 -0.7313  1.6570
24023SOL    HW284129   8.638   0.255   1.759  1.5307 -1.1716 -0.3520
24024SOL     OW84130   8.906   9.078   0.942 -0.4923 -0.4476 -0.1708
24024SOL    HW184131   8.918   9.129   0.857 -0.9970 -0.4874 -0.2634
24024SOL    HW284132   8.911   8.980   0.923  0.1752 -0.4471 -0.0363
24025SOL     OW84133   6.203   8.962   1.723  0.1874  0.4588  0.0694
24025SOL    HW184134   6.189   8.891   1.792 -0.0512  1.1898  0.7714
24025SOL    HW284135   6.300   8.971   1.703  0.1096 -1.1236 -1.1401
24026SOL     OW84136   8.689   1.340   8.166 -1.0844 -0.5226  0.2095
24026SOL    HW184137   8.777   1.335   8.119 -0.3413  0.7371  1.4171
24026SOL    HW284138   8.615   1.341   8.099 -0.0663  1.1789 -0.9450
24027SOL     OW84139   1.040   7.636   9.825  1.0652  0.1058 -0.0458
24027SOL    HW184140   1.089   7.660   9.742  0.7461 -0.2623 -0.3464
24027SOL    HW284141   1.084   7.678   9.905  1.5860  0.1528 -0.3631
24028SOL     OW84142   7.692   8.303   1.754  0.2885  0.0802 -0.1296
24028SOL    HW184143   7.717   8.263   1.842  1.2166  2.2356  0.6315
24028SOL    HW284144   7.765   8.286   1.687 -0.2713 -1.2803 -0.4039
24029SOL     OW84145   5.710   1.780   6.816 -0.4309  0.3938 -0.1125
24029SOL    HW184146   5.627   1.804   6.865 -1.5080  1.7152 -2.5468
24029SOL    HW284147   5.746   1.860   6.768  2.3626 -0.0957  1.0104
24030SOL     OW84148   4.040   8.103   6.677 -0.4189 -0.3103  0.2135
24030SOL    HW184149   3.998   8.055   6.755  1.2406 -1.3147  0.4998
24030SOL    HW284150   4.031   8.046   6.595  0.7512 -0.7270  0.3677
24031SOL     OW84151   4.464   2.826   7.513  0.4926  0.3081 -0.1561
24031SOL    HW184152   4.445   2.898   7.580 -0.9934 -0.1110 -0.1233
24031SOL    HW284153   4.490   2.742   7.561 -0.0687  0.1525 -0.1291
24032SOL     OW84154   6.625   7.681   5.799 -0.4823 -0.0293  0.4032
24032SOL    HW184155   6.717   7.644   5.813 -0.1339  0.7446  0.1495
24032SOL    HW284156   6.619   7.772   5.840 -1.0560  0.0377  0.1764
24033SOL     OW84157   9.134   5.259   2.404  0.0496 -0.1967  0.1505
24033SOL    HW184158   9.114   5.219   2.493  0.4465 -0.3252  0.1856
24033SOL    HW284159   9.105   5.196   2.332  2.6130 -1.5336  0.2267
24034SOL     OW84160   2.930   3.541   3.270  0.0789  0.1944 -0.2664
24034SOL    HW184161   2.960   3.633   3.293 -0.6175  0.0639  1.1903
24034SOL    HW284162   2.875   3.544   3.186 -0.9448  1.2732  0.4294
24035SOL     OW84163   7.271   5.939   0.752  0.1437  0.5356 -0.0528
24035SOL    HW184164   7.173   5.956   0.747 -0.1828 -0.9933  0.7799
24035SOL    HW284165   7.299   5.926   0.847  0.7145 -1.3472 -0.4412
24036SOL     OW84166   0.745   6.273   5.095 -0.6989 -0.5300 -0.1412
24036SOL    HW184167   0.829   6.238   5.052 -1.7302 -0.3570 -2.3836
24036SOL    HW284168   0.690   6.320   5.026 -2.7968 -0.8970  1.2452
24037SOL     OW84169   0.620   9.879   8.899  0.5121  0.2973  0.0244
24037SOL    HW184170   0.605   9.825   8.817  1.8727 -0.4492  0.2597
24037SOL    HW284171   0.636   9.818   8.977  0.4439  1.0179  0.6083
24038SOL     OW84172   0.987   1.225   4.544 -0.7403  0.1635  0.7255
24038SOL    HW184173   0.932   1.308   4.533 -0.2761  0.3954  0.1339
24038SOL    HW284174   0.941   1.148   4.500 -0.1008  0.5677 -0.6656
24039SOL     OW84175   7.007   1.780   9.243 -0.0818 -0.2837 -0.2923
24039SOL    HW184176   6.943   1.807   9.171  0.5626  0.0198 -0.7570
24039SOL    HW284177   7.100   1.803   9.215  0.6707 -4.0914 -1.3103
24040SOL     OW84178   1.165   4.731   2.718  0.4691  0.4930 -0.0768
24040SOL    HW184179   1.118   4.816   2.742  0.2178  0.3490 -0.0552
24040SOL    HW284180   1.102   4.672   2.667  0.6602  0.3410 -0.1386
24041SOL     OW84181   1.020   5.309   7.602  0.7335  0.4173  0.0737
24041SOL    HW184182   1.051   5.305   7.507 -0.0738 -0.5381 -0.1636
24041SOL    HW284183   1.013   5.216   7.639 -1.1716  0.6390  0.3320
24042SOL     OW84184   4.189   1.247   3.922  0.1024  0.1974 -0.0761
24042SOL    HW184185   4.175   1.158   3.878  0.3523  0.0912  0.0596
24042SOL    HW284186   4.105   1.300   3.917  0.3465  0.4730 -1.3347
24043SOL     OW84187   1.733   5.644   1.057  0.2855  0.1259 -0.1259
24043SOL    HW184188   1.646   5.653   1.105  1.1179 -1.9187  1.9091
24043SOL    HW284189   1.730   5.563   0.998  1.9193 -2.0383  2.6413
24044SOL     OW84190   3.268   7.786   6.822  0.0707 -0.1684  0.1114
24044SOL    HW184191   3.333   7.767   6.750  0.8338  0.5213  0.6097
24044SOL    HW284192   3.249   7.703   6.874 -0.6621 -0.7151 -1.0227
24045SOL     OW84193   6.625   9.502   8.244 -0.2550  0.1867 -0.0069
24045SOL    HW184194   6.700   9.521   8.181  0.8332 -2.0265  0.5617
24045SOL    HW284195   6.625   9.570   8.318  1.3862  0.0549  0.1375
24046SOL     OW84196   5.574   1.750   6.322  0.8779  0.5484  0.2429
24046SOL    HW184197   5.637   1.823   6.347  0.0306  1.3079  0.1759
24046SOL    HW284198   5.531   1.713   6.405  0.3452  1.0009  0.1698
24047SOL     OW84199   0.073   5.763   8.046  0.5946  0.0836  0.2512
24047SOL    HW184200   0.069   5.690   7.978  0.5785 -0.0117  0.3533
24047SOL    HW284201   0.162   5.809   8.042  0.5059  0.2353 -0.0003
24048SOL     OW84202   0.058   9.091   9.971 -0.1493 -0.2841  0.3739
24048SOL    HW184203   0.112   9.125  10.048  0.3986 -0.2269 -0.0290
24048SOL    HW284204   0.120   9.055   9.901 -0.6480 -0.4384  0.0111
24049SOL     OW84205   2.944   7.845   5.196  0.4773 -0.3877 -0.2538
24049SOL    HW184206   2.892   7.930   5.199  0.6326 -0.2932 -0.2286
24049SOL    HW284207   3.014   7.851   5.125 -0.0736 -0.8227 -0.8325
24050SOL     OW84208   5.263   5.834   1.555  0.4086  0.0971  0.0806
24050SOL    HW184209   5.171   5.873   1.557 -0.0992 -1.0043 -1.2124
24050SOL    HW284210   5.327   5.899   1.597 -0.7849  1.3091  0.0738
24051SOL     OW84211   9.904   4.580   7.532  0.7944 -0.0120 -0.3677
24051SOL    HW184212   9.966   4.643   7.578 -1.0460  0.4894  1.4830
24051SOL    HW284213   9.837   4.545   7.597 -0.2612 -1.3138 -2.1132
24052SOL     OW84214   8.985   7.341   8.181  0.1547  0.1671 -0.0593
24052SOL    HW184215   8.940   7.380   8.262  1.8452  0.9542  0.5219
24052SOL    HW284216   8.918   7.331   8.108 -1.2414  0.1331  1.1932
24053SOL     OW84217   8.686   6.759   7.236  1.0003 -0.0570  0.2511
24053SOL    HW184218   8.714   6.700   7.312  1.6209  0.4835  0.4421
24053SOL    HW284219   8.634   6.705   7.170 -0.1557 -0.3913  1.3954
24054SOL     OW84220   8.657   2.523   6.771 -0.0457 -0.3372 -0.5230
24054SOL    HW184221   8.603   2.469   6.706  0.6164 -0.0158 -1.3461
24054SOL    HW284222   8.656   2.478   6.860  1.0010 -2.0584 -1.3522
24055SOL     OW84223   3.321   4.843   3.127  0.2656  0.2372  0.4295
24055SOL    HW184224   3.248   4.776   3.112 -2.6293  3.7125 -1.6143
24055SOL    HW284225   3.300   4.897   3.209  0.8580  0.8942  0.1499
24056SOL     OW84226   3.028   1.368   2.088 -0.5066 -0.2020  0.3325
24056SOL    HW184227   2.977   1.431   2.147 -1.3962 -0.5507 -0.0530
24056SOL    HW284228   3.125   1.394   2.088 -0.6715  0.4613  1.0820
24057SOL     OW84229   9.286   0.383   5.353 -0.1997  0.2159  0.0122
24057SOL    HW184230   9.319   0.289   5.343 -0.5623  0.1012 -0.1212
24057SOL    HW284231   9.263   0.399   5.449 -0.9771 -0.1201 -0.1091
24058SOL     OW84232   4.580   9.405   3.058  0.1805  0.0760 -0.5553
24058SOL    HW184233   4.504   9.368   3.111  2.8807 -2.8988  1.4051
24058SOL    HW284234   4.618   9.484   3.105  1.0128 -1.0744  0.7321
24059SOL     OW84235   8.117   5.327   9.511  0.5284  0.1564  0.3978
24059SOL    HW184236   8.034   5.296   9.558  0.5279  1.0908  1.0416
24059SOL    HW284237   8.142   5.261   9.440 -0.1887 -0.6436  0.8728
24060SOL     OW84238   6.078   4.495   0.433  0.2084 -0.2551  0.0963
24060SOL    HW184239   6.029   4.423   0.383 -0.1267 -0.6917  1.0413
24060SOL    HW284240   6.152   4.454   0.487  0.2699  0.1542  0.3270
24061SOL     OW84241   4.459   9.358   4.065 -0.8924  0.2441 -0.0310
24061SOL    HW184242   4.388   9.382   4.131 -1.3976 -2.6276  0.5386
24061SOL    HW284243   4.549   9.375   4.106 -1.1855  3.3999 -0.5696
24062SOL     OW84244   8.277   1.729   8.269  0.3140  0.7812  0.5994
24062SOL    HW184245   8.297   1.742   8.171  0.5778  0.1700  0.5684
24062SOL    HW284246   8.196   1.781   8.294 -0.2427  0.2700 -0.1372
24063SOL     OW84247   1.312   6.434   6.909 -0.2817  0.2617  0.4581
24063SOL    HW184248   1.270   6.407   6.822 -0.2448  1.4563  0.0638
24063SOL    HW284249   1.337   6.352   6.961  1.7281 -0.4944 -1.6255
24064SOL     OW84250   6.970   6.047   2.770 -0.0610  0.0684  0.2832
24064SOL    HW184251   6.883   6.016   2.733  0.2973 -0.4673 -0.1144
24064SOL    HW284252   7.027   5.967   2.791 -0.5973  0.2937  2.8326
24065SOL     OW84253   4.001   4.286   0.457 -0.7517 -0.1238  0.3881
24065SOL    HW184254   4.050   4.266   0.373 -0.1472  1.2490  0.4072
24065SOL    HW284255   4.066   4.294   0.533 -1.1917 -0.2371  0.7836
24066SOL     OW84256   0.484   6.528   6.983  0.2175 -0.5153  0.5717
24066SOL    HW184257   0.525   6.542   7.074 -0.5048 -0.3222  0.8647
24066SOL    HW284258   0.405   6.588   6.972  0.2114 -0.6521 -0.1300
24067SOL     OW84259   8.234   0.665   1.126  0.4761  0.1726 -0.0749
24067SOL    HW184260   8.307   0.642   1.191  0.6312 -1.6734 -0.8655
24067SOL    HW284261   8.241   0.762   1.100  1.1846  0.5976  1.6710
24068SOL     OW84262   0.065   2.004   2.778 -0.4881  0.8289 -0.1965
24068SOL    HW184263   0.078   2.102   2.765  0.0388  1.0957  2.1828
24068SOL    HW284264   0.014   1.988   2.862  0.4945 -0.9911  0.0697
24069SOL     OW84265   1.813   8.336   3.168 -0.1832 -0.2294  0.5053
24069SOL    HW184266   1.770   8.379   3.089  3.0878  1.3583 -0.5134
24069SOL    HW284267   1.821   8.237   3.153  0.7169  0.1075 -1.3144
24070SOL     OW84268   9.798   7.070   8.749 -0.3812 -0.5024  0.4157
24070SOL    HW184269   9.747   6.985   8.739 -0.5095 -0.2254 -1.4848
24070SOL    HW284270   9.737   7.148   8.738  0.2087 -0.1736 -0.6397
24071SOL     OW84271   7.392   2.011   0.940 -0.3943  0.5867  0.0294
24071SOL    HW184272   7.439   2.054   0.863 -1.5721 -0.0037 -1.0245
24071SOL    HW284273   7.293   2.016   0.927 -0.5774 -0.9269  0.7117
24072SOL     OW84274   1.323   4.848  10.009 -0.1844 -0.2422 -0.0736
24072SOL    HW184275   1.249   4.820   9.948  0.4468  1.0806 -1.4841
24072SOL    HW284276   1.402   4.876   9.955  0.1848  1.5703  1.3317
24073SOL     OW84277   7.162   3.454   8.380 -0.1063  0.4049  0.2860
24073SOL    HW184278   7.187   3.357   8.371  0.9362  0.6902 -0.0184
24073SOL    HW284279   7.068   3.467   8.350  0.7058 -0.0134 -2.6995
24074SOL     OW84280   9.991   4.978   1.215 -0.1280 -0.0549  0.3052
24074SOL    HW184281   9.997   5.035   1.298 -0.5742  3.0301 -1.6932
24074SOL    HW284282  10.082   4.959   1.181 -0.0054  0.8553  0.1014
24075SOL     OW84283   5.008  -0.006   9.056  0.1147 -0.0142 -0.0146
24075SOL    HW184284   4.999   0.071   8.992  0.7686  0.2892  0.2502
24075SOL    HW284285   5.027   0.030   9.148 -1.6787 -0.4030  0.5326
24076SOL     OW84286   4.558   1.413   9.733  0.0320 -0.1462  0.6596
24076SOL    HW184287   4.510   1.445   9.814  0.5858  2.6846 -0.0685
24076SOL    HW284288   4.529   1.468   9.654  2.4220 -0.2309 -0.3000
24077SOL     OW84289   4.910   9.961   5.782  0.7608 -0.0943  0.1887
24077SOL    HW184290   4.851   9.888   5.749  1.8661 -1.1215  0.4839
24077SOL    HW284291   4.853  10.038   5.812 -0.4446 -1.1250  0.6169
24078SOL     OW84292   9.222   4.417   6.083 -0.0902  0.1401 -0.2330
24078SOL    HW184293   9.295   4.439   6.147 -0.6290 -0.3057  0.5560
24078SOL    HW284294   9.259   4.409   5.991  0.4953  2.0150 -0.1773
24079SOL     OW84295   1.411   6.442   7.595  0.2157  0.1371  0.2082
24079SOL    HW184296   1.507   6.465   7.577  0.5253 -1.8263 -0.8368
24079SOL    HW284297   1.376   6.387   7.519 -1.1099 -0.9275  1.5620
24080SOL     OW84298   5.249   0.530   8.480  0.7206  0.3846 -0.3211
24080SOL    HW184299   5.246   0.544   8.381 -1.3237 -0.9308 -0.4771
24080SOL    HW284300   5.200   0.605   8.525  0.8064  0.4663 -0.3629
24081SOL     OW84301   2.818   8.431   0.975  0.7875 -0.5007 -0.2531
24081SOL    HW184302   2.793   8.420   0.879  0.7066 -1.5647 -0.1084
24081SOL    HW284303   2.876   8.512   0.985  0.4937 -0.1731 -1.1402
24082SOL     OW84304   2.242   5.001   4.610 -0.0806  0.1519 -0.1007
24082SOL    HW184305   2.224   5.041   4.520  1.7814 -0.3435 -0.7099
24082SOL    HW284306   2.305   5.060   4.660 -1.4630  0.6589  1.0783
24083SOL     OW84307   8.317   8.597   8.696 -0.0389  0.5812  0.3656
24083SOL    HW184308   8.284   8.676   8.645  0.4996  0.5150 -0.0934
24083SOL    HW284309   8.350   8.626   8.786  1.5394  1.1089 -0.3568
24084SOL     OW84310   6.661   4.390   9.766 -0.0587 -0.0215 -0.2211
24084SOL    HW184311   6.738   4.437   9.723 -0.0336  0.0223 -0.1269
24084SOL    HW284312   6.693   4.336   9.843 -0.3472  1.2978  0.8454
24085SOL     OW84313   2.885   4.859   7.349 -0.0491  0.7324  0.2324
24085SOL    HW184314   2.979   4.884   7.374 -0.3265 -0.2641  2.3704
24085SOL    HW284315   2.839   4.939   7.310  1.1924  1.6561  0.6051
24086SOL     OW84316   1.413   2.235   1.466 -0.3033  0.3252 -0.3556
24086SOL    HW184317   1.463   2.316   1.433  0.0230  0.3125  0.0889
24086SOL    HW284318   1.431   2.224   1.564 -0.3692 -0.2755 -0.4128
24087SOL     OW84319   5.642   1.189   3.832  0.5396  0.0211 -0.1450
24087SOL    HW184320   5.625   1.269   3.775 -1.4696  1.1499  1.9636
24087SOL    HW284321   5.617   1.209   3.926 -0.7639 -3.3395  0.3090
24088SOL     OW84322   3.359   7.210   3.753 -0.4002  0.0627 -0.0264
24088SOL    HW184323   3.416   7.203   3.835 -0.8689 -0.5493  0.2511
24088SOL    HW284324   3.288   7.140   3.756 -0.8565  0.4950 -0.6163
24089SOL     OW84325   0.364   9.425   6.488  0.0572  0.8147  0.5788
24089SOL    HW184326   0.408   9.513   6.473  0.2888  0.7259  0.7221
24089SOL    HW284327   0.411   9.355   6.434 -0.8623  0.9815 -0.4620
24090SOL     OW84328   9.659   1.753   8.269  0.1193 -0.4043  0.1932
24090SOL    HW184329   9.671   1.666   8.316  0.3919 -0.9077 -0.7943
24090SOL    HW284330   9.740   1.810   8.282  0.5491 -0.8785 -0.3614
24091SOL     OW84331   5.018   0.013   6.186  0.0098 -0.5279  0.0930
24091SOL    HW184332   5.021  -0.080   6.149  1.4527 -0.7366  0.6849
24091SOL    HW284333   5.050   0.012   6.281  0.9434  0.6946 -0.1888
24092SOL     OW84334   0.735   9.483   6.434  0.6110  0.4490  0.2975
24092SOL    HW184335   0.690   9.559   6.387  1.9337 -0.0452 -1.8575
24092SOL    HW284336   0.799   9.518   6.502 -0.5332  1.2117  0.9823
24093SOL     OW84337   1.307   0.881   1.115 -0.1505  0.2883 -0.1269
24093SOL    HW184338   1.349   0.970   1.131 -1.4128  1.0463 -1.0457
24093SOL    HW284339   1.298   0.833   1.202 -0.1632  1.3571  0.4685
24094SOL     OW84340   2.856   1.864   9.790 -0.2256  0.1516  0.0137
24094SOL    HW184341   2.922   1.938   9.798 -0.3540  0.4879 -1.7412
24094SOL    HW284342   2.902   1.776   9.805 -0.2104  0.6040  2.7717
24095SOL     OW84343   7.351   3.510   3.532  0.1901  0.3690 -0.1718
24095SOL    HW184344   7.358   3.590   3.591  0.7006 -0.1927  0.5290
24095SOL    HW284345   7.419   3.442   3.558 -0.5495 -0.4944 -0.4537
24096SOL     OW84346   9.884   1.473   8.239 -0.1449  0.4556 -0.1014
24096SOL    HW184347   9.885   1.553   8.180 -1.1702  1.1589  0.8249
24096SOL    HW284348   9.797   1.469   8.289  0.3808 -0.5609  0.7508
24097SOL     OW84349   4.462   8.697   5.580  0.3372  0.1545  0.1241
24097SOL    HW184350   4.456   8.780   5.525 -1.6816 -1.5554 -2.3594
24097SOL    HW284351   4.441   8.618   5.523 -0.7095 -1.8002  3.1170
24098SOL     OW84352   3.132   8.130   5.072 -0.4874 -0.1199  0.2408
24098SOL    HW184353   3.123   8.162   5.166 -1.4947  0.3279  0.0057
24098SOL    HW284354   3.124   8.031   5.069  0.7970 -0.2496  0.7640
24099SOL     OW84355   2.764   2.446   2.702 -0.0769  0.2209  0.5244
24099SOL    HW184356   2.778   2.441   2.801 -0.8979  0.0722  0.6414
24099SOL    HW284357   2.666   2.452   2.683  0.1343  1.5445 -0.2323
24100SOL     OW84358   3.539   0.455   9.578  0.6889  0.2641 -0.4773
24100SOL    HW184359   3.585   0.531   9.625  1.5049 -1.3992  1.4538
24100SOL    HW284360   3.517   0.383   9.644  0.0040 -1.2261 -2.3042
24101SOL     OW84361   5.947   2.426   9.017 -0.0480  0.0920  0.2972
24101SOL    HW184362   5.911   2.355   8.956  0.0951  1.0298 -0.9055
24101SOL    HW284363   5.883   2.503   9.019  1.3224  1.3044 -0.9985
24102SOL     OW84364   1.029   1.991   0.822 -0.7399  0.6451 -0.4611
24102SOL    HW184365   1.094   2.066   0.809 -1.2887  0.9410 -1.5603
24102SOL    HW284366   1.027   1.934   0.739 -1.8539  0.6231 -0.4191
24103SOL     OW84367   7.831   2.626   4.370  0.3806  0.2504  0.1125
24103SOL    HW184368   7.839   2.689   4.293 -0.7178 -0.5098 -0.6433
24103SOL    HW284369   7.845   2.676   4.456  1.4270  1.1361 -0.5644
24104SOL     OW84370   0.312   3.636   6.297  0.3038  0.3497 -1.1725
24104SOL    HW184371   0.343   3.701   6.365  1.9540 -1.3631 -0.2302
24104SOL    HW284372   0.371   3.640   6.217  0.2298  0.2175 -1.2345
24105SOL     OW84373   3.531   1.370  10.079 -0.3214 -0.1363 -0.5122
24105SOL    HW184374   3.447   1.316  10.074 -0.1109 -0.4333 -0.8865
24105SOL    HW284375   3.567   1.384   9.987 -0.5785  0.9719 -0.4553
24106SOL     OW84376   3.699   0.745   7.031 -0.3635 -0.1091  0.0938
24106SOL    HW184377   3.793   0.775   7.018 -0.7136  0.8661 -0.2790
24106SOL    HW284378   3.641   0.825   7.051 -1.4206 -0.4624 -1.4972
24107SOL     OW84379   9.442   2.930   9.283 -0.2172  0.7280  0.2559
24107SOL    HW184380   9.504   2.871   9.230 -2.8764 -1.0526 -1.0036
24107SOL    HW284381   9.465   3.026   9.267  1.7762  0.1273 -0.6817
24108SOL     OW84382   6.629   1.525   6.588 -0.3415  0.3283  0.1400
24108SOL    HW184383   6.593   1.554   6.500  0.0357  1.0238  0.2131
24108SOL    HW284384   6.718   1.481   6.575  0.8666  2.6060  0.3999
24109SOL     OW84385   5.797   1.060   4.022  0.2052 -0.3168  0.2264
24109SOL    HW184386   5.766   1.084   3.931 -0.3787  3.0980  1.2719
24109SOL    HW284387   5.723   1.073   4.088  1.3336 -0.3598  1.5334
24110SOL     OW84388   8.727   4.730   6.869  0.0935  0.2700 -0.2741
24110SOL    HW184389   8.715   4.774   6.780 -0.2320  1.3085  0.2809
24110SOL    HW284390   8.642   4.735   6.921  0.3879 -0.0244  0.2449
24111SOL     OW84391   5.603   1.852   1.588 -0.3101 -0.4483 -0.0680
24111SOL    HW184392   5.529   1.868   1.523 -0.8241  0.7105  0.7821
24111SOL    HW284393   5.604   1.756   1.615 -1.6312 -0.4270  0.0692
24112SOL     OW84394   9.697   0.476   4.456  0.1041  0.4413 -0.1435
24112SOL    HW184395   9.678   0.574   4.460 -0.3330  0.3640 -0.3354
24112SOL    HW284396   9.629   0.430   4.399  0.2465  0.0097  0.0268
24113SOL     OW84397   8.492   9.366   8.087  0.2645  0.2729  0.3443
24113SOL    HW184398   8.586   9.398   8.075  0.1934 -0.2250 -1.7234
24113SOL    HW284399   8.438   9.437   8.132  1.4484  0.8578  0.8655
24114SOL     OW84400   3.643   0.348   7.470  0.2447 -0.1887 -0.3994
24114SOL    HW184401   3.627   0.250   7.470  1.6628 -0.4360  0.8237
24114SOL    HW284402   3.715   0.371   7.404  1.3720 -0.2424  0.7915
24115SOL     OW84403   4.017   0.822   4.114  0.1937  0.1346 -0.2075
24115SOL    HW184404   3.970   0.823   4.202  4.1285  1.7511  1.9750
24115SOL    HW284405   3.973   0.886   4.051 -0.6304  1.4451  1.6792
24116SOL     OW84406   8.250   0.800   6.954  0.1734 -0.0445  0.1944
24116SOL    HW184407   8.247   0.890   6.998  1.4794  0.3619 -0.5167
24116SOL    HW284408   8.166   0.787   6.901 -0.3766  0.4226  0.9383
24117SOL     OW84409   5.352   5.517   9.448  0.3323  0.8239 -0.2789
24117SOL    HW184410   5.383   5.471   9.365  1.2980  1.3702 -0.2293
24117SOL    HW284411   5.399   5.605   9.457  1.2766  0.1546  1.5744
24118SOL     OW84412   7.325   9.989   7.301 -0.0682 -0.0555  0.2839
24118SOL    HW184413   7.295   9.935   7.222  0.6216 -1.0304  0.6731
24118SOL    HW284414   7.307   9.938   7.385  0.0608  0.5748  0.6966
24119SOL     OW84415   1.630   9.032   9.263 -0.3652 -0.2045  0.4501
24119SOL    HW184416   1.630   9.052   9.361  3.6989  3.0596 -0.0452
24119SOL    HW284417   1.569   9.097   9.216 -0.4367 -0.1868  0.5681
24120SOL     OW84418   2.607   5.615   9.271 -0.2510 -0.2125  0.1178
24120SOL    HW184419   2.706   5.608   9.261 -0.1459  0.2435  0.7768
24120SOL    HW284420   2.579   5.570   9.356 -0.6112 -0.3806 -0.0902
24121SOL     OW84421   0.444   7.324   1.416 -0.1461 -0.5092 -0.6152
24121SOL    HW184422   0.413   7.229   1.412  0.8296 -0.9670  1.7583
24121SOL    HW284423   0.507   7.342   1.340  1.1336 -2.3171 -0.0119
24122SOL     OW84424   2.068   7.377   6.623 -0.2576  0.4175 -0.0171
24122SOL    HW184425   2.052   7.404   6.718  0.1846  0.6579 -0.0072
24122SOL    HW284426   2.014   7.296   6.602  0.2126 -0.0903  0.6750
24123SOL     OW84427   8.851   3.006   0.830 -0.2137 -0.8090  0.9423
24123SOL    HW184428   8.925   2.950   0.866 -0.6968 -1.4430  0.9552
24123SOL    HW284429   8.889   3.089   0.788  0.4136 -0.5570  2.0038
24124SOL     OW84430   8.768   1.102   8.413  0.2448 -0.4025 -0.3127
24124SOL    HW184431   8.859   1.113   8.455  0.1921  0.2053 -0.3525
24124SOL    HW284432   8.778   1.096   8.314  0.1636  0.5823 -0.3809
24125SOL     OW84433   6.662   9.363   6.312 -0.5793  0.5716  0.4824
24125SOL    HW184434   6.570   9.392   6.285 -0.1277  0.6719 -1.0261
24125SOL    HW284435   6.724   9.441   6.310 -0.1803  0.2493  0.1965
24126SOL     OW84436   9.330   3.848   4.191  0.0074  0.2623 -0.1760
24126SOL    HW184437   9.275   3.810   4.117  2.0605 -3.0288 -0.0774
24126SOL    HW284438   9.274   3.854   4.274 -0.3874 -2.4939 -0.2110
24127SOL     OW84439   1.101   6.770   2.253 -0.0620  0.8263 -0.7183
24127SOL    HW184440   1.164   6.705   2.209  0.3492  1.0215 -0.4147
24127SOL    HW284441   1.113   6.860   2.212  1.2878  1.3140  0.7275
24128SOL     OW84442   6.651   9.723   8.420  0.4458  0.1588  0.6795
24128SOL    HW184443   6.714   9.781   8.368 -0.7198  0.8726  0.0153
24128SOL    HW284444   6.606   9.777   8.490 -0.0989 -0.1216  0.5511
24129SOL     OW84445   8.382   1.782   2.388  0.5942 -0.2137 -0.2608
24129SOL    HW184446   8.309   1.778   2.455 -0.7354  0.8208 -1.6138
24129SOL    HW284447   8.433   1.868   2.399 -0.6306  0.7039 -1.5707
24130SOL     OW84448   2.252   4.060   9.325 -0.1162 -0.2017  0.3064
24130SOL    HW184449   2.211   4.110   9.249 -0.1639 -1.2407 -0.3489
24130SOL    HW284450   2.257   4.121   9.405 -1.5287  0.4051 -0.0429
24131SOL     OW84451   9.299   6.213   8.044  0.2728  0.7154  0.4642
24131SOL    HW184452   9.228   6.144   8.034  0.1016  1.1535 -1.5662
24131SOL    HW284453   9.259   6.304   8.037  1.1208  0.9600 -1.4136
24132SOL     OW84454   8.283   2.561   9.776 -0.1145 -0.1375  0.0470
24132SOL    HW184455   8.239   2.634   9.827 -1.0914 -0.9088  0.3297
24132SOL    HW284456   8.340   2.507   9.838 -0.8854 -0.7545  0.2289
24133SOL     OW84457   7.568   3.733   0.830  0.3779  0.4570  0.5765
24133SOL    HW184458   7.523   3.694   0.749  0.6162  1.2398  0.0649
24133SOL    HW284459   7.567   3.833   0.824  1.1974  0.5011  1.1015
24134SOL     OW84460   0.183   8.410   8.728 -0.2871 -0.1815  0.2995
24134SOL    HW184461   0.121   8.472   8.776 -1.7210 -2.3065  1.3007
24134SOL    HW284462   0.243   8.366   8.795 -0.7107 -1.4120 -0.1128
24135SOL     OW84463   2.543   5.080   0.627  0.1769  0.3767 -0.2989
24135SOL    HW184464   2.445   5.064   0.640  0.3596 -0.0815  0.5016
24135SOL    HW284465   2.567   5.064   0.531 -0.4120 -0.1472 -0.3602
24136SOL     OW84466   9.568   4.057   3.730  0.5532  0.0512 -0.2566
24136SOL    HW184467   9.553   3.991   3.804 -1.2585  0.8304  0.0735
24136SOL    HW284468   9.597   4.144   3.769  0.0066  0.3376 -0.4948
24137SOL     OW84469   0.376   1.149   3.373 -0.0712 -0.3919  0.2183
24137SOL    HW184470   0.369   1.248   3.357 -1.1820 -0.4409  0.3409
24137SOL    HW284471   0.460   1.114   3.331 -0.0629  0.4705 -0.4897
24138SOL     OW84472   0.827   5.610   5.443 -0.4550  0.0602  0.4393
24138SOL    HW184473   0.734   5.644   5.463 -0.6644 -0.6202  0.6123
24138SOL    HW284474   0.881   5.685   5.405 -0.5323  0.9362  2.0263
24139SOL     OW84475   3.508   5.604   9.029  0.0303  0.4459  0.3263
24139SOL    HW184476   3.487   5.540   8.955 -0.3062  0.2838  0.5628
24139SOL    HW284477   3.531   5.693   8.991  0.6338  0.1507 -0.0135
24140SOL     OW84478   9.247   1.807   5.960 -0.2631  0.0348  0.0573
24140SOL    HW184479   9.276   1.893   5.919  2.0896 -1.2768 -1.1206
24140SOL    HW284480   9.214   1.745   5.889  1.6631 -1.4123  0.3875
24141SOL     OW84481   7.546   2.140   1.916  0.0810 -0.0138  0.1237
24141SOL    HW184482   7.631   2.088   1.916  0.3721  0.3983 -1.8022
24141SOL    HW284483   7.469   2.078   1.904  0.3065 -0.1556 -0.6168
24142SOL     OW84484   7.794   9.674   8.449 -0.3149  0.6640 -0.0335
24142SOL    HW184485   7.738   9.592   8.454  3.1539 -1.9665 -1.9531
24142SOL    HW284486   7.837   9.690   8.537  0.4680 -0.7237 -0.1492
24143SOL     OW84487   8.564   7.725   5.924  0.1728  0.2515  0.0763
24143SOL    HW184488   8.555   7.673   5.839  0.3682  0.3481 -0.0054
24143SOL    HW284489   8.611   7.669   5.992 -2.9474 -1.0621  1.2190
24144SOL     OW84490   1.627   7.687   7.666 -0.1449  0.4500 -0.2061
24144SOL    HW184491   1.667   7.740   7.591 -1.7215 -0.7664 -1.9712
24144SOL    HW284492   1.675   7.600   7.675  1.7822  1.6785  2.0221
24145SOL     OW84493   0.038   7.158   3.064  0.4465  0.3521  0.2976
24145SOL    HW184494  -0.045   7.128   3.015 -0.2859  2.8947 -0.0899
24145SOL    HW284495   0.041   7.115   3.154 -1.4183  0.3758  0.3927
24146SOL     OW84496   5.707   0.425   7.988  0.2358  0.1346  0.4010
24146SOL    HW184497   5.717   0.342   8.043 -3.5909 -1.1687 -0.6817
24146SOL    HW284498   5.620   0.469   8.011  1.2864  2.7481 -0.5056
24147SOL     OW84499   3.964   5.030   7.817 -0.3913  0.3071  0.0620
24147SOL    HW184500   4.008   5.101   7.762 -2.2375  0.4485 -1.2795
24147SOL    HW284501   4.032   4.988   7.878  0.6858  3.2720  0.9780
24148SOL     OW84502   7.111   0.545   4.360  0.1778 -0.2279  0.1526
24148SOL    HW184503   7.102   0.469   4.296  0.3576 -0.1583  0.0451
24148SOL    HW284504   7.207   0.554   4.388 -0.2249 -1.5621  2.0264
24149SOL     OW84505   8.535   0.862   2.755  0.1588  0.0589 -0.0760
24149SOL    HW184506   8.541   0.829   2.661 -0.1754 -0.8112  0.1968
24149SOL    HW284507   8.525   0.961   2.755  0.8569  0.1432 -0.9319
24150SOL     OW84508   1.004   5.503   7.985 -0.2827 -0.3382 -0.1701
24150SOL    HW184509   0.994   5.422   8.043  0.8883  0.3909  1.0810
24150SOL    HW284510   0.994   5.586   8.041  1.6393  0.3824 -0.8536
24151SOL     OW84511   2.327   4.460   5.688  0.5469  0.0505  0.2431
24151SOL    HW184512   2.271   4.380   5.710  3.9258 -2.8682 -1.3427
24151SOL    HW284513   2.310   4.486   5.593  2.4433 -1.3842 -0.5125
24152SOL     OW84514   3.875   2.639   2.666 -0.2124  0.6252  0.1942
24152SOL    HW184515   3.794   2.688   2.636 -1.0426 -0.6474  0.3067
24152SOL    HW284516   3.915   2.686   2.745  0.1581  2.2041 -0.9045
24153SOL     OW84517   2.645   9.759   2.806  0.2962 -0.1333 -0.5908
24153SOL    HW184518   2.630   9.828   2.734  0.5817 -0.4582 -0.9679
24153SOL    HW284519   2.563   9.704   2.816 -0.0833  0.5330  0.0083
24154SOL     OW84520   1.605   7.163   6.203 -0.1351  0.4192  0.1053
24154SOL    HW184521   1.659   7.086   6.171 -1.9125 -1.7070  1.9772
24154SOL    HW284522   1.576   7.219   6.125  1.2590 -0.7556 -1.2794
24155SOL     OW84523   0.912   6.172   5.531 -0.4257 -0.0022  0.2933
24155SOL    HW184524   0.893   6.179   5.433 -1.1188  0.7929  0.4762
24155SOL    HW284525   1.009   6.186   5.547 -0.0587 -1.5951 -0.4199
24156SOL     OW84526   0.264   9.303   4.303  0.1932  0.5280 -0.3717
24156SOL    HW184527   0.345   9.290   4.360 -0.5010 -0.9384  0.3334
24156SOL    HW284528   0.192   9.345   4.357 -0.5547 -1.1085 -0.0487
24157SOL     OW84529   1.655   8.176   5.917  0.8354  0.3808  0.4929
24157SOL    HW184530   1.672   8.145   6.011 -1.3357  1.5128  1.3027
24157SOL    HW284531   1.606   8.105   5.866  5.5825 -1.9046 -1.1025
24158SOL     OW84532   4.199   9.445   2.439 -0.1123  0.0383 -0.3829
24158SOL    HW184533   4.194   9.544   2.425  1.0311  0.0031 -1.0795
24158SOL    HW284534   4.183   9.398   2.353 -0.5387 -0.3947 -0.0761
24159SOL     OW84535   6.731   3.883   0.354  0.5208  0.1823  0.0774
24159SOL    HW184536   6.644   3.878   0.304 -0.1844 -0.1466  1.2854
24159SOL    HW284537   6.718   3.844   0.446  1.7358  0.9197  0.5738
24160SOL     OW84538   8.395   5.973   3.125 -0.4339  0.2994  0.5486
24160SOL    HW184539   8.347   6.026   3.194  0.6862  0.3710  1.2949
24160SOL    HW284540   8.401   6.026   3.040 -0.2939  0.9286  0.9459
24161SOL     OW84541   1.628   8.188   7.092  0.2121  0.0298  0.3250
24161SOL    HW184542   1.544   8.181   7.039  0.3991 -0.0900  0.0472
24161SOL    HW284543   1.701   8.138   7.046  0.6935  0.9698  0.0479
24162SOL     OW84544   2.783   5.755   7.945  0.4422  0.3782 -0.1522
24162SOL    HW184545   2.796   5.663   7.908  2.6819  1.0091 -1.0169
24162SOL    HW284546   2.806   5.755   8.042  3.2313  0.5925 -0.7702
24163SOL     OW84547   5.963   3.947   8.017  0.6064 -0.1392 -0.5021
24163SOL    HW184548   6.008   3.927   8.104  0.8983 -0.0943 -0.6412
24163SOL    HW284549   5.867   3.921   8.023  0.8157 -0.9174 -0.4394
24164SOL     OW84550   4.452   8.519   5.101 -0.1922  0.4972  0.3057
24164SOL    HW184551   4.533   8.509   5.043  0.4010  0.0665  1.2043
24164SOL    HW284552   4.394   8.438   5.092  0.4609 -0.0735  1.1714
24165SOL     OW84553   4.151   0.906   9.075 -0.1744 -0.0256  0.6030
24165SOL    HW184554   4.232   0.934   9.023 -0.6667  0.1870 -0.0628
24165SOL    HW284555   4.165   0.815   9.114  0.8821  0.5352  1.5654
24166SOL     OW84556   3.402   5.866   8.961 -0.6564  0.2584  0.6355
24166SOL    HW184557   3.345   5.892   9.038  0.3570  1.0960  1.1145
24166SOL    HW284558   3.454   5.945   8.928  0.8406 -0.6473  0.7407
24167SOL     OW84559   9.396   1.478   0.546  0.0196 -0.0622  0.3639
24167SOL    HW184560   9.394   1.577   0.554  1.0557  0.1054 -1.2797
24167SOL    HW284561   9.330   1.449   0.477 -2.1983 -0.7492  2.7078
24168SOL     OW84562   0.501   7.710   8.829 -0.1233  0.4441  0.6790
24168SOL    HW184563   0.563   7.770   8.879  0.4746 -0.8839  1.5644
24168SOL    HW284564   0.504   7.618   8.869 -0.1201 -0.4884 -1.3917
24169SOL     OW84565   5.090   3.461   0.255  0.3425 -0.0219 -0.1606
24169SOL    HW184566   5.073   3.553   0.218  2.1955  0.3103 -0.2730
24169SOL    HW284567   5.005   3.409   0.257 -0.8246  1.8573  0.3211
24170SOL     OW84568   4.545   5.756   1.335  0.5273  0.1604 -0.5776
24170SOL    HW184569   4.625   5.708   1.296 -1.4794 -1.4939 -2.8204
24170SOL    HW284570   4.486   5.787   1.261 -1.9375 -0.4160  1.0976
24171SOL     OW84571   2.961   7.245   9.069  0.4126 -1.2308 -0.0217
24171SOL    HW184572   2.948   7.339   9.037 -2.2694 -1.4033  0.4420
24171SOL    HW284573   2.904   7.184   9.014  2.2068 -2.6046 -0.3748
24172SOL     OW84574   9.103   6.489   4.185 -0.0775  0.6933 -0.4213
24172SOL    HW184575   9.049   6.414   4.146 -0.0951  1.6463 -2.2736
24172SOL    HW284576   9.101   6.483   4.284 -1.1405 -1.0197 -0.5278
24173SOL     OW84577   8.966   3.657   5.739  0.2730 -0.0401 -0.5306
24173SOL    HW184578   9.060   3.624   5.750  0.4338  0.2574 -0.9704
24173SOL    HW284579   8.929   3.621   5.653  0.0599  0.0211 -0.4632
24174SOL     OW84580   1.643   6.749   4.135  0.0508 -0.5899 -0.2932
24174SOL    HW184581   1.686   6.838   4.153 -0.1319 -0.5464 -0.0588
24174SOL    HW284582   1.675   6.683   4.203  1.0771 -1.0014 -1.1739
24175SOL     OW84583   7.968   1.725   1.758  0.2432  0.0729 -0.1216
24175SOL    HW184584   7.917   1.695   1.677 -0.8978 -0.3548  0.7378
24175SOL    HW284585   8.055   1.676   1.763 -0.3295 -0.9757 -0.2922
24176SOL     OW84586   3.151   1.087   7.334 -0.0601 -0.0586  0.3398
24176SOL    HW184587   3.078   1.036   7.379 -1.3067 -0.7537 -2.4179
24176SOL    HW284588   3.235   1.078   7.388 -1.3891 -1.2469  2.2748
24177SOL     OW84589   3.512   4.801   9.586 -0.1573  0.6011 -0.7317
24177SOL    HW184590   3.556   4.836   9.669 -0.1379  0.5778 -0.7324
24177SOL    HW284591   3.581   4.786   9.515 -0.2200  0.9711 -0.8728
24178SOL     OW84592   5.138   6.634   9.798  0.1136  0.2333 -0.5419
24178SOL    HW184593   5.217   6.685   9.764 -0.0466  0.7676 -0.1129
24178SOL    HW284594   5.103   6.678   9.880 -0.9704  0.3121 -1.0444
24179SOL     OW84595   5.304   5.462   9.164  0.0080 -0.1632  0.8742
24179SOL    HW184596   5.291   5.561   9.167  0.3449 -0.1085  0.4879
24179SOL    HW284597   5.289   5.429   9.071  2.2056 -0.1606  0.5098
24180SOL     OW84598   4.539   4.727   8.207 -0.0951 -0.2007 -0.0046
24180SOL    HW184599   4.507   4.686   8.122 -2.2050  0.3058  0.5043
24180SOL    HW284600   4.596   4.807   8.187 -1.0756  0.2807 -0.9628
24181SOL     OW84601   9.096   0.348   3.976 -0.5484 -0.0424  0.0597
24181SOL    HW184602   9.125   0.259   4.010 -2.1260 -0.4347  0.4337
24181SOL    HW284603   8.999   0.362   3.998 -0.0191  2.2914  1.1143
24182SOL     OW84604   8.298   3.844   2.026  0.1488  0.3231  0.2754
24182SOL    HW184605   8.375   3.849   1.962  0.0889  0.2875  0.1985
24182SOL    HW284606   8.268   3.937   2.049  0.3080  0.3389  0.4190
24183SOL     OW84607   8.698   5.071   3.075 -0.6404  0.0425 -0.1974
24183SOL    HW184608   8.790   5.080   3.112 -0.6510 -2.0698  0.4120
24183SOL    HW284609   8.652   5.160   3.076  1.2573  1.0470 -0.1970
24184SOL     OW84610   2.300   6.956   6.981  0.2574  0.5648  0.0847
24184SOL    HW184611   2.390   6.916   6.965  0.6298  1.0694  0.9019
24184SOL    HW284612   2.289   7.037   6.924  0.1087  0.1843 -0.4255
24185SOL     OW84613   2.675   3.330   0.909  0.3646  0.7654  0.0058
24185SOL    HW184614   2.661   3.284   0.821 -1.3868  0.2314  0.5503
24185SOL    HW284615   2.713   3.264   0.975  1.5231  1.1225 -0.3023
24186SOL     OW84616   7.665   2.809   3.103 -0.2057 -0.0319 -0.5660
24186SOL    HW184617   7.649   2.856   3.189  1.5766 -1.4913  0.6090
24186SOL    HW284618   7.683   2.876   3.031  0.9598  1.1214  0.7711
24187SOL     OW84619   0.172   1.711   3.807  0.4881 -0.7892  0.2265
24187SOL    HW184620   0.130   1.802   3.803 -0.0435 -0.9800  1.2722
24187SOL    HW284621   0.259   1.718   3.856  1.5663 -0.4387 -1.7196
24188SOL     OW84622   2.040   5.392   3.003 -0.1900 -0.1684 -0.5159
24188SOL    HW184623   2.111   5.452   2.966  1.7259 -1.9846  0.1268
24188SOL    HW284624   2.059   5.373   3.099 -1.1924 -1.2467 -0.5200
24189SOL     OW84625   6.916   3.753   0.171  0.7017  0.6745  0.0391
24189SOL    HW184626   6.865   3.811   0.234 -0.4579  1.2205 -1.3546
24189SOL    HW284627   6.883   3.769   0.077  2.0434 -0.4620 -0.6455
24190SOL     OW84628   1.408   5.297   4.474  0.7604 -0.3248  0.3768
24190SOL    HW184629   1.418   5.379   4.530  0.4836  0.1193 -0.2250
24190SOL    HW284630   1.397   5.217   4.534 -0.8612  0.3143  0.9560
24191SOL     OW84631   3.381   4.303   8.418  0.7636 -0.1414  0.5538
24191SOL    HW184632   3.382   4.397   8.451  2.5278  0.6043 -1.5795
24191SOL    HW284633   3.451   4.250   8.467 -0.8503 -0.6300  2.4206
24192SOL     OW84634   3.004   0.632   3.506 -0.0371 -0.2721 -0.0103
24192SOL    HW184635   3.081   0.605   3.564  1.1415  3.2311  0.1472
24192SOL    HW284636   2.999   0.571   3.427  1.8673 -1.5682  0.8336
24193SOL     OW84637   7.782   4.700   0.191 -0.0132 -0.2461  0.2072
24193SOL    HW184638   7.754   4.631   0.124 -2.1315 -0.5410  1.3677
24193SOL    HW284639   7.744   4.677   0.281  0.9713  1.3361  1.0529
24194SOL     OW84640   3.585   6.617   7.365  0.0089  0.1874 -0.1033
24194SOL    HW184641   3.583   6.710   7.402 -1.4866 -0.1618  0.7325
24194SOL    HW284642   3.659   6.566   7.408  1.5803  1.3035 -1.3984
24195SOL     OW84643   2.663   6.880   8.246 -0.0167 -0.4440 -0.5475
24195SOL    HW184644   2.611   6.942   8.305 -1.1899 -1.6141 -0.3094
24195SOL    HW284645   2.706   6.809   8.301  3.2037  1.3998 -0.5727
24196SOL     OW84646   8.826   0.510   6.983 -0.2784 -0.6204  0.6075
24196SOL    HW184647   8.781   0.487   6.896 -0.2310 -1.7681  0.8751
24196SOL    HW284648   8.801   0.603   7.010  2.0989  0.8882 -2.1581
24197SOL     OW84649   0.092   0.192   8.260  0.1664  0.3314 -0.1465
24197SOL    HW184650   0.068   0.272   8.315  0.7975  0.0902  0.4847
24197SOL    HW284651   0.013   0.130   8.256 -0.7138  1.5145 -1.5995
24198SOL     OW84652   2.605   8.473   5.852 -0.1448  0.1869 -0.5262
24198SOL    HW184653   2.658   8.405   5.903 -0.4589  1.5132  1.6227
24198SOL    HW284654   2.553   8.428   5.780  1.2191 -1.5808 -0.4345
24199SOL     OW84655   0.618   0.966   8.288 -0.0815  0.5396 -0.3895
24199SOL    HW184656   0.661   0.881   8.319  1.4519  0.6737 -2.0602
24199SOL    HW284657   0.544   0.945   8.224 -0.8297  0.4024  0.5175
24200SOL     OW84658   9.449   8.438   0.258 -0.0652 -0.3435 -0.4864
24200SOL    HW184659   9.505   8.406   0.334 -1.0014 -0.1418  0.2986
24200SOL    HW284660   9.408   8.359   0.212 -1.1327 -0.3599  0.4886
24201SOL     OW84661   8.400   2.478   3.376 -0.6643  0.2044  0.5614
24201SOL    HW184662   8.350   2.399   3.341 -1.7408  1.4762 -0.8092
24201SOL    HW284663   8.483   2.491   3.322 -1.0701  0.6885  0.0494
24202SOL     OW84664   4.977   6.802   1.366 -0.2464  0.2465 -0.0102
24202SOL    HW184665   5.007   6.752   1.285 -0.8026 -1.2634  0.6934
24202SOL    HW284666   4.888   6.766   1.396  0.4199  0.1147  1.8429
24203SOL     OW84667   8.682   1.026   9.641  1.1852  0.0588  0.2176
24203SOL    HW184668   8.679   1.106   9.702 -0.0219  0.8333 -0.8222
24203SOL    HW284669   8.596   1.019   9.592  0.5605 -3.0127  1.6616
24204SOL     OW84670   6.577   7.716   3.071 -0.1345 -0.3633 -0.4879
24204SOL    HW184671   6.655   7.708   3.133 -0.8366 -2.0380  0.2066
24204SOL    HW284672   6.508   7.775   3.111 -0.1917 -0.7061 -0.0779
24205SOL     OW84673   4.972   8.569   7.717 -0.4454  0.2525 -0.0314
24205SOL    HW184674   4.966   8.659   7.673  0.7343  0.1139 -0.5041
24205SOL    HW284675   4.996   8.500   7.649 -1.4405 -0.4408  0.3147
24206SOL     OW84676   1.789   0.204   5.303  0.8930 -0.1647  0.3568
24206SOL    HW184677   1.815   0.215   5.399  1.5515  0.2718  0.1306
24206SOL    HW284678   1.701   0.249   5.287 -0.1875 -1.9367  1.2025
24207SOL     OW84679   2.880   9.290   1.191 -0.3775 -0.1758  0.2263
24207SOL    HW184680   2.814   9.228   1.234 -0.6242 -0.6391 -0.7949
24207SOL    HW284681   2.971   9.250   1.195 -0.1950  0.3447  1.4050
24208SOL     OW84682   5.046   4.248   9.504 -0.1048  0.2720 -0.4629
24208SOL    HW184683   4.952   4.270   9.477 -0.7659  0.6372  2.0185
24208SOL    HW284684   5.108   4.317   9.468 -1.1098  1.4202 -0.0390
24209SOL     OW84685   4.244   6.158   1.144 -0.0974  0.2358 -0.0604
24209SOL    HW184686   4.255   6.184   1.240 -0.8443 -1.5454  0.5328
24209SOL    HW284687   4.210   6.064   1.139 -0.2545  0.3812 -2.0745
24210SOL     OW84688   5.305   4.990   0.698 -0.0171  0.4098 -0.3452
24210SOL    HW184689   5.378   5.004   0.631 -1.4219  0.2411 -1.9409
24210SOL    HW284690   5.270   4.897   0.690  1.1151 -0.2675  1.9890
24211SOL     OW84691   4.558   2.555   9.165 -0.5647  0.0598  0.3864
24211SOL    HW184692   4.544   2.589   9.072 -2.8456 -0.0624  0.6671
24211SOL    HW284693   4.644   2.592   9.201 -1.0918  2.4502 -0.7273
24212SOL     OW84694   1.987   4.458   5.819 -0.0907 -0.0131 -0.2669
24212SOL    HW184695   2.024   4.373   5.783  0.9490  1.0684 -1.8474
24212SOL    HW284696   1.934   4.440   5.901  2.2825 -1.8664  0.8983
24213SOL     OW84697   4.733   8.935   0.849  0.6425  0.2250 -0.1683
24213SOL    HW184698   4.832   8.931   0.866  0.7105  1.4153 -0.2890
24213SOL    HW284699   4.715   8.985   0.765  0.0129 -1.4217 -1.0276
24214SOL     OW84700   5.463   5.474   9.999 -0.0329 -0.0180  0.1236
24214SOL    HW184701   5.421   5.426   9.922  2.1222 -0.8694 -0.5663
24214SOL    HW284702   5.413   5.559  10.016 -0.4562  0.2751 -2.3449
24215SOL     OW84703   2.950   0.598  10.084  0.3356 -0.1101 -0.9328
24215SOL    HW184704   2.892   0.527  10.123 -0.1525  0.1290 -1.2197
24215SOL    HW284705   2.973   0.574   9.989 -1.0857  0.8351 -1.5512
24216SOL     OW84706   2.949   1.489   7.700  0.8924  0.1580  0.3008
24216SOL    HW184707   2.980   1.468   7.793  1.6151 -0.8678 -0.1520
24216SOL    HW284708   2.889   1.416   7.668 -1.3634  1.7316  0.8561
24217SOL     OW84709   8.187   5.216   2.769 -0.3278  0.1388 -0.3133
24217SOL    HW184710   8.207   5.119   2.753  0.1665  0.3249 -0.8182
24217SOL    HW284711   8.272   5.268   2.768 -0.6264  0.6257 -0.3435
24218SOL     OW84712   8.159   7.838   2.236 -0.2124 -0.1442 -0.6305
24218SOL    HW184713   8.168   7.889   2.322 -1.7339  0.0890 -0.6038
24218SOL    HW284714   8.134   7.744   2.256  0.5922 -0.3955 -0.7768
24219SOL     OW84715   5.079   5.977   0.144  0.4783  0.1177  0.2857
24219SOL    HW184716   5.160   5.948   0.196 -0.3053  1.6839  2.4747
24219SOL    HW284717   5.090   6.073   0.117 -0.3520  0.1354  0.0075
24220SOL     OW84718   8.468   4.534   3.938 -0.0293  0.3954  0.2108
24220SOL    HW184719   8.420   4.488   3.863  0.0316  2.1227 -0.9117
24220SOL    HW284720   8.436   4.497   4.025 -2.2137  0.3518 -0.5698
24221SOL     OW84721   1.095   7.533   7.532 -0.0741  0.4062 -0.2606
24221SOL    HW184722   1.004   7.553   7.570  0.2443  1.8304 -0.2384
24221SOL    HW284723   1.154   7.498   7.605  0.2604  2.2513  0.3706
24222SOL     OW84724   0.829   7.434   6.536  0.1241  0.1787  0.1266
24222SOL    HW184725   0.789   7.380   6.463  0.1391  0.3643 -0.0191
24222SOL    HW284726   0.758   7.491   6.578  0.3074  0.7594 -0.3554
24223SOL     OW84727   1.612   9.738   4.533 -0.4147 -0.1801 -0.0836
24223SOL    HW184728   1.638   9.789   4.451  1.5005  0.3576  0.8527
24223SOL    HW284729   1.600   9.801   4.610  1.0853 -1.0169  0.8571
24224SOL     OW84730   2.977   0.148   8.340 -0.4527 -0.4957 -0.1605
24224SOL    HW184731   3.037   0.188   8.270 -1.1253  1.3752  0.2923
24224SOL    HW284732   2.992   0.050   8.345  1.5507 -0.2584 -1.0567
24225SOL     OW84733   9.388   2.387   6.322  0.2281 -0.0549 -0.4262
24225SOL    HW184734   9.396   2.470   6.377 -1.1180  0.2687 -0.7053
24225SOL    HW284735   9.293   2.375   6.293  0.2031 -2.2279  0.4375
24226SOL     OW84736   0.496   8.035   5.558  0.3296 -0.1568  0.2850
24226SOL    HW184737   0.499   7.997   5.466  0.6480  0.4510  0.0458
24226SOL    HW284738   0.495   7.960   5.625  0.2052 -0.5926 -0.2027
24227SOL     OW84739   0.951   4.533   9.180  0.2522 -0.2261  0.2420
24227SOL    HW184740   0.863   4.505   9.142  1.2466  1.3913 -3.6036
24227SOL    HW284741   0.948   4.631   9.201  0.8590 -0.3447  0.8861
24228SOL     OW84742   4.183   9.275   1.446 -0.1255 -0.0894  0.4919
24228SOL    HW184743   4.244   9.196   1.449 -0.5078 -0.3616  1.3946
24228SOL    HW284744   4.218   9.346   1.506  1.1641  1.1348 -1.6779
24229SOL     OW84745   4.939   3.645   0.463  0.2066  0.4865  0.0435
24229SOL    HW184746   4.917   3.699   0.382 -0.4650  0.9665  0.5303
24229SOL    HW284747   4.945   3.705   0.543 -0.0672 -0.0855  0.5083
24230SOL     OW84748   0.133   5.440   6.630 -0.1992  0.0934 -0.1014
24230SOL    HW184749   0.081   5.519   6.660 -0.5417 -0.2479  0.2030
24230SOL    HW284750   0.226   5.445   6.666  0.9897  2.3733 -3.2876
24231SOL     OW84751   0.561   6.602   8.870  0.3923  0.5617 -0.2767
24231SOL    HW184752   0.532   6.536   8.800  0.8310  1.3044 -1.1745
24231SOL    HW284753   0.609   6.678   8.826 -3.1171  3.2362  0.3892
24232SOL     OW84754   1.698   2.672   9.648 -0.7123 -0.0296 -0.4280
24232SOL    HW184755   1.665   2.673   9.554 -1.3418 -1.2126 -0.2335
24232SOL    HW284756   1.623   2.651   9.710  0.2651 -2.2757  0.0579
24233SOL     OW84757   1.299   2.705   8.520 -0.6794 -0.3775 -0.0159
24233SOL    HW184758   1.199   2.701   8.529 -0.4700 -0.0431  3.0772
24233SOL    HW284759   1.338   2.616   8.544 -0.1037  0.2494  1.4322
24234SOL     OW84760   1.729   8.482   3.651  0.0732  0.1903  0.0345
24234SOL    HW184761   1.810   8.513   3.701  1.7697 -2.6605 -0.8212
24234SOL    HW284762   1.735   8.512   3.555 -0.5309  1.0487  0.2564
24235SOL     OW84763   0.522   8.367   1.383  0.1859 -0.4317  0.2385
24235SOL    HW184764   0.517   8.286   1.441 -1.2589 -0.6858 -0.2086
24235SOL    HW284765   0.466   8.440   1.423  1.4002  0.3134  0.5872
24236SOL     OW84766   3.515   4.008   7.678 -0.2206  0.1062  0.5544
24236SOL    HW184767   3.481   3.964   7.761  0.7194  0.2117  0.9944
24236SOL    HW284768   3.600   3.964   7.650  0.9526  1.9083  1.2256
24237SOL     OW84769   2.186   0.743   2.461 -0.0628 -0.3040 -0.3518
24237SOL    HW184770   2.209   0.822   2.405 -0.5753 -0.0163 -0.1541
24237SOL    HW284771   2.155   0.773   2.551 -1.2838 -0.6869 -0.6368
24238SOL     OW84772   5.469   4.647   8.803 -0.4913 -0.0665 -0.1599
24238SOL    HW184773   5.506   4.739   8.820 -2.0335  0.7136 -0.9219
24238SOL    HW284774   5.541   4.579   8.818  0.5770  1.2297  0.7773
24239SOL     OW84775   3.722   1.154   0.117 -0.3354 -0.3231  0.7072
24239SOL    HW184776   3.697   1.060   0.094  1.0391 -0.4318 -0.3874
24239SOL    HW284777   3.656   1.216   0.076 -1.4435 -0.8013  1.7126
24240SOL     OW84778   7.477   2.671   1.162  0.4017 -0.4657 -0.2707
24240SOL    HW184779   7.510   2.748   1.217 -0.4718 -0.2242 -0.0793
24240SOL    HW284780   7.434   2.706   1.078 -0.9701 -0.6788  0.3253
24241SOL     OW84781   5.275   8.025   5.125  0.3712  0.6436 -0.2192
24241SOL    HW184782   5.214   8.104   5.122  0.4453  0.6783 -0.8483
24241SOL    HW284783   5.367   8.055   5.152 -0.0126  0.5074  1.3124
24242SOL     OW84784   1.076   5.754   7.004 -0.0411  0.9987 -0.3749
24242SOL    HW184785   1.080   5.704   7.091  0.4750  1.8636  0.1118
24242SOL    HW284786   0.990   5.735   6.958  1.0545 -2.1043 -1.2764
24243SOL     OW84787   8.580   5.597   5.228  0.0613  0.0291 -0.6539
24243SOL    HW184788   8.530   5.676   5.264  0.6518 -0.1673  0.6256
24243SOL    HW284789   8.574   5.596   5.128 -1.0419  0.9626 -0.6039
24244SOL     OW84790   1.344   3.719   1.309 -0.2303  0.3738  0.1885
24244SOL    HW184791   1.394   3.806   1.306  1.2606 -0.5209 -1.7173
24244SOL    HW284792   1.286   3.717   1.391  0.5833  2.6800  0.8618
24245SOL     OW84793   9.942   7.473   4.791 -0.3271  0.0740  0.1415
24245SOL    HW184794   9.941   7.374   4.802 -0.3305  0.0969  0.3473
24245SOL    HW284795   9.904   7.516   4.873 -2.4282  0.1732 -0.8396
24246SOL     OW84796   0.163   2.685   7.651 -0.6148 -0.1102 -0.1294
24246SOL    HW184797   0.123   2.647   7.734 -2.7515  1.9202 -0.1931
24246SOL    HW284798   0.258   2.713   7.670 -0.6439 -0.9012  1.2369
24247SOL     OW84799   4.438   6.517   8.315 -0.0467 -0.2096 -0.7053
24247SOL    HW184800   4.431   6.547   8.220  0.2775 -1.2755 -1.0803
24247SOL    HW284801   4.352   6.536   8.362  0.2939  1.6348 -0.8122
24248SOL     OW84802   5.993   8.813   3.070 -0.5289 -0.5020  0.1325
24248SOL    HW184803   5.897   8.789   3.084 -1.1088  1.3419 -0.6476
24248SOL    HW284804   6.000   8.893   3.011  1.4352  0.3761  1.5022
24249SOL     OW84805   4.611   4.410   5.544  0.3548  0.2630  0.0950
24249SOL    HW184806   4.682   4.342   5.529  1.0470  1.0764 -0.3962
24249SOL    HW284807   4.556   4.384   5.623  1.0229 -0.5226  0.3101
24250SOL     OW84808   9.183   4.089   0.443 -0.0627 -0.1157  0.0253
24250SOL    HW184809   9.136   4.134   0.367 -0.6614 -0.3845  0.2312
24250SOL    HW284810   9.279   4.116   0.443  0.0000 -0.3030 -0.9730
24251SOL     OW84811   2.487   3.678   7.207  0.5738 -0.3119  0.1092
24251SOL    HW184812   2.432   3.694   7.125 -0.4265  0.0467  0.8409
24251SOL    HW284813   2.463   3.590   7.247  2.0643 -1.1231 -0.7626
24252SOL     OW84814   3.798   3.017   9.007 -0.3256  0.0972 -0.4762
24252SOL    HW184815   3.857   2.937   9.020 -1.7260 -0.5704  2.2410
24252SOL    HW284816   3.703   2.987   8.995 -0.8227  1.3174  0.2809
24253SOL     OW84817   6.260   6.234   0.234 -0.3345  0.0064 -0.0743
24253SOL    HW184818   6.278   6.288   0.152  1.6159 -2.2340 -1.1883
24253SOL    HW284819   6.345   6.224   0.286 -0.3496 -2.9608 -0.5427
24254SOL     OW84820   0.439   7.573   7.282 -0.0777  0.4066  0.0294
24254SOL    HW184821   0.501   7.639   7.240 -0.7420  1.6086  0.9290
24254SOL    HW284822   0.468   7.555   7.376 -1.3434  1.3167  0.6049
24255SOL     OW84823   7.993   1.285   7.515 -0.1189  0.0151  0.5967
24255SOL    HW184824   8.036   1.375   7.507  0.8771 -0.5412 -0.3989
24255SOL    HW284825   7.991   1.257   7.612  0.0565  0.8620  0.8456
24256SOL     OW84826   2.772   1.692   5.981 -0.4469 -0.0171  0.1393
24256SOL    HW184827   2.672   1.700   5.985 -0.4456  0.8898 -1.0975
24256SOL    HW284828   2.799   1.658   5.891  0.4130  0.8196  0.0714
24257SOL     OW84829   5.425   2.072   4.660 -0.3207  0.1153  0.1294
24257SOL    HW184830   5.436   1.982   4.618  0.3799 -0.5453  1.6898
24257SOL    HW284831   5.330   2.102   4.650 -0.5697 -0.7979 -0.3727
24258SOL     OW84832   9.357   3.954   2.791 -0.2131  0.1395  0.5323
24258SOL    HW184833   9.367   3.947   2.890  0.9900  3.1423  0.6885
24258SOL    HW284834   9.265   3.986   2.769 -1.0542 -2.2063  0.5593
24259SOL     OW84835   1.965   9.132   4.526  0.1772  0.1208 -0.4772
24259SOL    HW184836   1.935   9.038   4.510 -1.8753  0.6106  0.3548
24259SOL    HW284837   2.050   9.149   4.475  0.7253 -2.2477 -0.4177
24260SOL     OW84838   0.737   7.815   1.980 -0.8888  0.1187  0.3118
24260SOL    HW184839   0.775   7.907   1.986  0.4673 -0.4611  0.6085
24260SOL    HW284840   0.759   7.764   2.063 -2.4745 -0.1614  0.5805
24261SOL     OW84841   1.975   7.096   3.270 -0.0999  0.1787  0.2147
24261SOL    HW184842   1.933   7.006   3.269 -0.9290  0.5615  0.5494
24261SOL    HW284843   2.071   7.089   3.241 -0.8886 -0.4342 -2.3403
24262SOL     OW84844   7.187   4.918   1.382  0.0378  0.1267 -0.3084
24262SOL    HW184845   7.174   4.858   1.303  2.6322  1.2839 -1.6609
24262SOL    HW284846   7.166   4.867   1.466  0.1107 -2.0180 -1.5630
24263SOL     OW84847   1.015   4.889   8.367 -0.2972 -0.2284  0.1940
24263SOL    HW184848   1.018   4.808   8.308  1.1264  1.1089 -1.6079
24263SOL    HW284849   1.076   4.876   8.445 -0.5560 -1.1355  0.2500
24264SOL     OW84850   3.942   5.504   0.477 -0.7306  0.2561 -0.1151
24264SOL    HW184851   3.887   5.568   0.531 -1.4150 -0.6836  0.3423
24264SOL    HW284852   3.881   5.437   0.434 -0.1246  0.5859 -1.4985
24265SOL     OW84853   2.995   2.322   2.309  0.8135 -0.2771 -0.1642
24265SOL    HW184854   2.966   2.263   2.233 -0.2957 -1.1109  0.8863
24265SOL    HW284855   2.916   2.342   2.367  1.4734  1.1123  0.2578
24266SOL     OW84856   9.694   6.066   1.408  0.3324  1.1591 -0.2280
24266SOL    HW184857   9.649   6.065   1.319  0.8015 -0.6930 -0.4596
24266SOL    HW284858   9.741   5.979   1.423 -1.0587  0.8090  2.5027
24267SOL     OW84859   2.812   3.576   3.034 -0.5500 -0.3428  0.6814
24267SOL    HW184860   2.822   3.653   2.971 -1.5878  0.9031  2.0103
24267SOL    HW284861   2.853   3.494   2.994  0.4125  0.8613 -0.8174
24268SOL     OW84862   8.327   3.518   2.416 -0.3125 -0.0627 -0.6616
24268SOL    HW184863   8.354   3.576   2.340 -0.7186  0.4895 -0.3950
24268SOL    HW284864   8.228   3.528   2.432  0.0652  1.1865  1.0550
24269SOL     OW84865   4.203   1.906  10.009  0.8465  0.0519  0.2563
24269SOL    HW184866   4.273   1.866  10.069  2.4754  1.1456 -0.8615
24269SOL    HW284867   4.199   2.005  10.024 -0.8229 -0.0664  0.6529
24270SOL     OW84868   1.913   7.206   6.075 -0.1130 -0.3360  0.0006
24270SOL    HW184869   1.823   7.198   6.032 -0.8474  2.3677  0.9375
24270SOL    HW284870   1.923   7.297   6.115  2.8547 -0.7687  0.3722
24271SOL     OW84871   2.732   3.159   9.548  0.2889 -0.0053  0.3840
24271SOL    HW184872   2.831   3.172   9.557  0.5778 -1.9297  0.2421
24271SOL    HW284873   2.686   3.185   9.633  0.9250  0.7692  0.4945
24272SOL     OW84874   3.448   7.639   0.388  0.3607 -0.0134 -0.6407
24272SOL    HW184875   3.436   7.548   0.349 -0.3435 -0.4954  0.6809
24272SOL    HW284876   3.498   7.632   0.474  1.5083  0.9945 -1.2096
24273SOL     OW84877   4.916   5.571   8.683  0.0165  0.4083  0.1452
24273SOL    HW184878   4.967   5.616   8.756 -2.3424  3.0293  0.2710
24273SOL    HW284879   4.870   5.490   8.719 -1.3249  1.8091  1.6782
24274SOL     OW84880   9.146   0.674   3.234 -0.1140 -0.0442  0.1333
24274SOL    HW184881   9.184   0.680   3.326 -1.5770 -0.0008  0.7426
24274SOL    HW284882   9.101   0.586   3.221  3.1706 -1.5531 -1.7835
24275SOL     OW84883   7.181   2.851   9.845  0.2272 -0.3452  0.5960
24275SOL    HW184884   7.263   2.798   9.821  0.1931 -0.0293 -0.2103
24275SOL    HW284885   7.162   2.918   9.774 -1.2148 -0.9735  0.3794
24276SOL     OW84886   5.736   1.924   4.906  0.2005 -0.1234 -0.3327
24276SOL    HW184887   5.744   1.853   4.976 -1.5959 -0.7091 -0.7054
24276SOL    HW284888   5.736   2.014   4.950  2.3741 -0.3181  0.1451
24277SOL     OW84889   3.319   7.980   6.576  0.2601 -0.2691  0.1522
24277SOL    HW184890   3.348   8.075   6.563 -0.4715  0.0636  0.8814
24277SOL    HW284891   3.314   7.961   6.674 -2.0674 -0.2812  0.0404
24278SOL     OW84892   5.356   1.908   0.826 -0.2967  0.0866  0.2094
24278SOL    HW184893   5.446   1.942   0.853  0.3844 -1.6921  0.2647
24278SOL    HW284894   5.362   1.810   0.805 -2.4602 -0.3686  1.4697
24279SOL     OW84895   9.061   5.785   1.395 -0.4441 -0.2227 -0.7664
24279SOL    HW184896   8.990   5.746   1.454 -0.8835  0.4060 -0.8725
24279SOL    HW284897   9.040   5.765   1.299 -0.1928 -0.5032 -0.7598
24280SOL     OW84898   3.504   0.919   4.863 -0.1608  0.1088  0.4378
24280SOL    HW184899   3.522   0.860   4.942 -0.3673 -1.6602 -0.8032
24280SOL    HW284900   3.406   0.938   4.858 -0.4460 -1.6132 -0.6525
24281SOL     OW84901   1.428   0.352   4.713 -0.1443 -0.3033  0.1093
24281SOL    HW184902   1.501   0.409   4.677  0.1160 -0.5333  0.2717
24281SOL    HW284903   1.353   0.348   4.647 -2.4183  4.4480  2.2301
24282SOL     OW84904   8.907   6.060   9.521  0.8154  0.0501  0.0590
24282SOL    HW184905   8.966   6.048   9.601  1.1808  0.0905 -0.2051
24282SOL    HW284906   8.947   6.012   9.442  0.3130 -0.2282 -0.0302
24283SOL     OW84907   1.193   7.160   8.596  0.0491  0.3327  0.0881
24283SOL    HW184908   1.264   7.221   8.631 -1.1494  1.3290  0.8448
24283SOL    HW284909   1.107   7.211   8.588 -0.9720 -1.2583  0.7520
24284SOL     OW84910   9.476   7.790   8.760  0.0237  0.1367  0.6904
24284SOL    HW184911   9.435   7.734   8.832  1.0047  0.0041  1.1621
24284SOL    HW284912   9.469   7.742   8.672  0.0972 -0.3458  0.9462
24285SOL     OW84913   9.375   5.600   4.860  0.5299 -0.4808  0.6677
24285SOL    HW184914   9.353   5.508   4.829 -0.0388  0.0520 -0.5491
24285SOL    HW284915   9.302   5.663   4.834  0.2535  0.0920  2.6918
24286SOL     OW84916   0.896   8.364   2.844 -0.7467  0.4835  0.0888
24286SOL    HW184917   0.806   8.370   2.887 -0.6956 -0.1727  0.3034
24286SOL    HW284918   0.887   8.318   2.756 -0.5920  0.2009  0.2185
24287SOL     OW84919   4.514   9.343   2.164 -0.1675 -0.4423 -0.1913
24287SOL    HW184920   4.611   9.359   2.147 -0.5840  2.5704  0.0621
24287SOL    HW284921   4.502   9.310   2.258  0.5111  0.1208  0.0986
24288SOL     OW84922   2.939   3.188   3.583  0.4178  0.4233 -0.1310
24288SOL    HW184923   2.959   3.229   3.493  2.2058 -0.3118 -0.0928
24288SOL    HW284924   2.958   3.255   3.655 -0.3976  0.8027 -0.2687
24289SOL     OW84925   2.860   0.711   6.573  0.2418  0.0303  0.3579
24289SOL    HW184926   2.790   0.749   6.512  1.5105  1.3870 -0.2519
24289SOL    HW284927   2.815   0.659   6.645 -1.6779  4.0489  2.2210
24290SOL     OW84928   7.599   1.934   2.425  0.3996 -0.1041  0.3990
24290SOL    HW184929   7.697   1.916   2.416  0.5049  0.7760 -0.3014
24290SOL    HW284930   7.582   1.977   2.513  0.5432 -0.9009  0.8229
24291SOL     OW84931   3.977   7.889   5.670 -0.0022 -0.4887  0.1166
24291SOL    HW184932   3.893   7.840   5.647  0.0444  0.2661 -1.7309
24291SOL    HW284933   3.959   7.953   5.745 -1.0300 -0.4382 -0.1769
24292SOL     OW84934   9.047   3.839   9.565 -0.3812 -0.0352  0.2761
24292SOL    HW184935   8.987   3.916   9.585 -0.1225  0.1768  0.2324
24292SOL    HW284936   9.051   3.825   9.466  2.9990  2.6607 -0.0703
24293SOL     OW84937   8.099   7.770   4.236  0.0173 -0.4690 -0.1794
24293SOL    HW184938   8.153   7.693   4.269  0.7381  1.8041  4.4247
24293SOL    HW284939   8.160   7.842   4.202  0.0454  1.6455  3.9895
24294SOL     OW84940   8.663   9.897   4.186 -0.0956 -0.3009  0.3566
24294SOL    HW184941   8.596   9.828   4.159  0.6702 -0.8162 -0.2750
24294SOL    HW284942   8.710   9.867   4.269 -2.6974  1.4514  2.5494
24295SOL     OW84943   8.561   7.487   4.055  0.4225  0.1497  0.0907
24295SOL    HW184944   8.512   7.557   4.004 -1.4693 -0.4548  1.0482
24295SOL    HW284945   8.594   7.416   3.993  1.4746  1.3572 -0.7539
24296SOL     OW84946   3.900   9.157   2.042 -0.4110  0.4461 -0.1636
24296SOL    HW184947   3.878   9.189   2.134  0.3589  2.7365 -0.7449
24296SOL    HW284948   3.817   9.155   1.986 -0.3509  2.3279 -0.3594
24297SOL     OW84949   2.450   6.144   5.555  0.5010 -0.5061  0.0504
24297SOL    HW184950   2.400   6.222   5.595  0.0336 -0.4619 -0.6041
24297SOL    HW284951   2.450   6.153   5.455  1.9833 -0.4136  0.0488
24298SOL     OW84952   4.579   3.069   2.072 -0.3137  0.5046  0.2083
24298SOL    HW184953   4.501   3.037   2.019 -0.0803  0.8897 -0.3721
24298SOL    HW284954   4.642   2.993   2.089 -2.1366 -0.4550  3.0513
24299SOL     OW84955   1.367   4.581   8.565  0.5834 -0.4505 -0.1593
24299SOL    HW184956   1.439   4.536   8.617 -0.0235 -0.1229  0.9859
24299SOL    HW284957   1.372   4.680   8.578  1.2644 -0.2486 -1.8300
24300SOL     OW84958   1.965   7.397   8.318  0.0252 -0.4571 -0.2990
24300SOL    HW184959   1.883   7.341   8.331  0.0940 -1.0510 -2.3021
24300SOL    HW284960   1.971   7.426   8.223  3.1338 -1.9930 -0.6287
24301SOL     OW84961   8.488   8.916   8.003 -0.1602 -0.0263 -0.6295
24301SOL    HW184962   8.429   8.988   7.968 -1.3406 -0.4147  0.4934
24301SOL    HW284963   8.435   8.832   8.015  0.2630 -0.0118  1.6929
24302SOL     OW84964   8.692   1.591   6.261  0.1518 -0.2617  0.7757
24302SOL    HW184965   8.753   1.642   6.201 -2.0684  0.6063 -0.8309
24302SOL    HW284966   8.701   1.493   6.243 -0.7236  0.0097 -1.2539
24303SOL     OW84967   8.034   6.957   4.356  0.4302  0.0714 -0.2524
24303SOL    HW184968   8.062   6.897   4.431  0.7769  0.5943  0.0368
24303SOL    HW284969   8.108   6.966   4.290  0.6341  0.7516  0.0686
24304SOL     OW84970   1.554   4.774   8.788 -0.0735  0.1785 -0.1011
24304SOL    HW184971   1.649   4.772   8.820  0.1094  2.4233 -0.4070
24304SOL    HW284972   1.536   4.862   8.744 -2.2470 -0.3147 -0.2448
24305SOL     OW84973   6.884   9.185   7.794  0.6743  0.6979 -0.1205
24305SOL    HW184974   6.803   9.210   7.740  0.5869  2.9771  0.9706
24305SOL    HW284975   6.870   9.096   7.837  0.7887 -1.2000 -3.8629
24306SOL     OW84976   9.975   9.993   8.955 -0.6907 -0.3819 -0.5030
24306SOL    HW184977  10.067   9.990   8.916 -0.6684  1.6507 -0.6914
24306SOL    HW284978   9.946   9.901   8.980  1.0849 -1.1440 -1.1547
24307SOL     OW84979   5.917   9.051   3.704 -0.1929 -0.7345  0.9732
24307SOL    HW184980   5.970   8.967   3.717  1.1677 -0.5241 -2.7330
24307SOL    HW284981   5.976   9.130   3.724  0.3683 -0.5573 -1.2291
24308SOL     OW84982   6.748   1.980   6.128 -0.4769  0.0158  0.4910
24308SOL    HW184983   6.650   1.998   6.123 -0.3453  1.3829  2.2520
24308SOL    HW284984   6.786   1.977   6.036 -2.2197 -0.9086 -0.2374
24309SOL     OW84985   4.913   1.576   8.987  0.2588  0.0339 -0.5508
24309SOL    HW184986   4.984   1.591   8.918 -0.1776 -0.9099 -1.2012
24309SOL    HW284987   4.829   1.543   8.943 -0.0541 -0.4790  0.4167
24310SOL     OW84988   7.767   6.619   8.540  0.2998  0.2081 -0.5276
24310SOL    HW184989   7.809   6.688   8.599  0.7872 -0.4069 -0.1535
24310SOL    HW284990   7.763   6.532   8.588  0.3408 -0.2030 -1.2665
24311SOL     OW84991   0.022   2.790   9.061  0.3539 -0.1124  0.4969
24311SOL    HW184992  -0.031   2.752   8.986  1.4096 -1.1582  0.2767
24311SOL    HW284993   0.072   2.870   9.029  0.1986 -0.0966  0.2939
24312SOL     OW84994   9.423   3.006   1.125 -0.3042  0.1788 -0.0518
24312SOL    HW184995   9.357   3.081   1.137 -0.7399 -0.4316  1.5332
24312SOL    HW284996   9.496   3.016   1.193  0.3836 -0.0502 -0.7591
24313SOL     OW84997   3.256   4.135   2.538 -0.1448 -0.8258  0.0774
24313SOL    HW184998   3.340   4.180   2.510 -0.5812 -0.2446 -0.3178
24313SOL    HW284999   3.189   4.204   2.567  0.0226 -1.3660  1.7844
24314SOL     OW85000   2.041   4.492   9.755 -0.1484  0.4730  0.0944
24314SOL    HW185001   2.055   4.464   9.849  2.2158  0.5879 -0.1982
24314SOL    HW285002   1.943   4.508   9.739 -0.7681 -1.2344  2.0147
24315SOL     OW85003   6.065   1.290   1.463 -0.6585  0.3041 -0.3101
24315SOL    HW185004   5.976   1.253   1.437 -0.4519  0.4119 -1.1908
24315SOL    HW285005   6.138   1.229   1.431 -0.4558 -0.4605  1.5595
24316SOL     OW85006   6.667   7.073   3.573 -0.0822 -0.6707 -0.4775
24316SOL    HW185007   6.727   7.089   3.495 -0.4093 -1.1118 -0.8301
24316SOL    HW285008   6.581   7.122   3.560  0.0047 -0.4509 -0.2209
24317SOL     OW85009   8.603   6.673   8.019  0.1820  0.1203  0.4391
24317SOL    HW185010   8.595   6.647   8.115  1.1327  0.1820  0.5443
24317SOL    HW285011   8.587   6.772   8.009  2.0395  0.4752  0.8197
24318SOL     OW85012   9.734   8.187   7.726 -0.2659  0.1193  0.0266
24318SOL    HW185013   9.803   8.227   7.666 -0.2553  2.5346  1.6064
24318SOL    HW285014   9.777   8.161   7.813 -0.9869 -0.0585  0.3290
24319SOL     OW85015   9.235   1.648   8.030  0.4883  0.2729 -0.1904
24319SOL    HW185016   9.249   1.624   7.934  2.2060  1.6992 -0.3217
24319SOL    HW285017   9.250   1.746   8.043 -1.2953  0.3904  1.2650
24320SOL     OW85018   3.706   8.712   0.655  0.5251 -0.9961  0.2874
24320SOL    HW185019   3.768   8.710   0.734  0.6686 -3.1227  0.1608
24320SOL    HW285020   3.728   8.636   0.594 -2.0965 -1.6767  0.1331
24321SOL     OW85021   9.064   4.501   2.756 -0.1759 -0.0661 -0.0665
24321SOL    HW185022   9.038   4.453   2.672 -0.6419 -0.8508  0.5172
24321SOL    HW285023   9.063   4.436   2.832 -2.1483  1.1535  0.9726
24322SOL     OW85024   6.824   2.991   5.175  0.0716  0.3034  0.1394
24322SOL    HW185025   6.842   3.038   5.261  0.4567 -0.1954  0.3310
24322SOL    HW285026   6.904   2.997   5.116 -0.3270  0.9846 -0.3469
24323SOL     OW85027   2.999   9.773   8.515 -0.0470  0.4166 -0.5581
24323SOL    HW185028   3.077   9.757   8.575  0.1174 -0.4379 -0.9981
24323SOL    HW285029   3.024   9.838   8.443  0.4071 -0.2158 -0.9771
24324SOL     OW85030   3.570   6.188   4.746  0.0986 -0.0918  0.2551
24324SOL    HW185031   3.621   6.246   4.683  1.8808  0.7065  2.3624
24324SOL    HW285032   3.477   6.223   4.756  1.2015  2.5669  1.6362
24325SOL     OW85033   4.976   8.613   0.746 -0.2967  0.0319  0.6707
24325SOL    HW185034   5.001   8.700   0.788 -1.9067  1.5171 -1.3193
24325SOL    HW285035   4.956   8.546   0.817  1.1994  1.1944  2.2316
24326SOL     OW85036   2.127   0.834   2.704  0.1719 -0.2048  0.0270
24326SOL    HW185037   2.050   0.820   2.767 -0.4529  0.1671 -0.6464
24326SOL    HW285038   2.165   0.925   2.718 -0.2178  0.0260 -0.3972
24327SOL     OW85039   3.715   2.718   0.106 -0.2249 -0.6116 -0.3351
24327SOL    HW185040   3.655   2.788   0.145 -0.5384  0.1206 -2.0813
24327SOL    HW285041   3.717   2.638   0.166  0.7280  1.1712  2.0765
24328SOL     OW85042   7.001   9.596   6.699 -0.0109  0.2765  0.0761
24328SOL    HW185043   7.046   9.669   6.751  0.7440  0.3535 -0.6605
24328SOL    HW285044   7.059   9.571   6.621 -0.5098 -0.7505  0.0278
24329SOL     OW85045   2.005   9.467   0.760 -0.5568  0.0610  0.1185
24329SOL    HW185046   2.088   9.422   0.792 -1.4272 -1.7555 -0.0938
24329SOL    HW285047   2.028   9.540   0.696  0.7357 -2.2565 -2.0894
24330SOL     OW85048   8.634   9.484   2.612 -0.3228  0.3220 -0.4577
24330SOL    HW185049   8.632   9.510   2.515 -0.0968 -0.0735 -0.5703
24330SOL    HW285050   8.724   9.504   2.650 -0.7588  1.5006 -0.0430
24331SOL     OW85051   8.385   8.931   9.841 -0.0603 -0.9378 -0.1545
24331SOL    HW185052   8.363   8.835   9.860  2.0198 -1.5765 -0.8685
24331SOL    HW285053   8.481   8.948   9.862 -0.9322  1.5928  2.1228
24332SOL     OW85054   5.217   5.750   8.019 -0.5398  0.1532  0.4054
24332SOL    HW185055   5.129   5.724   8.059 -1.1055  1.4565  0.0121
24332SOL    HW285056   5.210   5.841   7.979  0.7119 -0.1537 -0.5300
24333SOL     OW85057   7.514   7.304   2.473  0.1601  0.2541 -0.0002
24333SOL    HW185058   7.416   7.307   2.454 -0.1456  0.7517  1.6322
24333SOL    HW285059   7.554   7.394   2.455  0.4369 -0.0873 -1.1857
24334SOL     OW85060   0.520   3.926   4.288  0.1653  0.0747 -0.3168
24334SOL    HW185061   0.454   3.875   4.233 -0.3873  1.9270 -1.4242
24334SOL    HW285062   0.482   3.943   4.378 -0.9892  1.3378 -1.0295
24335SOL     OW85063   2.656   0.044   7.672 -0.3225 -0.0449 -0.5763
24335SOL    HW185064   2.590   0.062   7.599 -1.8485  2.5868  1.3457
24335SOL    HW285065   2.742   0.091   7.652 -0.2694 -0.4742 -1.3460
24336SOL     OW85066   7.757   4.073   9.254 -0.3871 -0.7049  0.0732
24336SOL    HW185067   7.677   4.023   9.288 -0.0655  0.5331  2.8762
24336SOL    HW285068   7.839   4.041   9.301  0.5747 -0.9784 -1.7513
24337SOL     OW85069   3.836   2.868   7.199  0.4211 -0.3272  0.1955
24337SOL    HW185070   3.884   2.840   7.282  0.2311  0.8452  0.7101
24337SOL    HW285071   3.817   2.966   7.203 -1.0961 -0.5790 -0.4774
24338SOL     OW85072   1.514   6.721   0.196 -0.4842  0.5209  0.6628
24338SOL    HW185073   1.457   6.646   0.229 -3.7014  0.9495 -3.5487
24338SOL    HW285074   1.579   6.685   0.128 -1.2418  1.3685 -0.5046
24339SOL     OW85075   8.193   5.233   3.730 -0.3698 -0.6399 -0.4683
24339SOL    HW185076   8.284   5.252   3.767 -0.5227  0.1966 -0.5082
24339SOL    HW285077   8.201   5.201   3.635 -0.0922 -0.9488 -0.3396
24340SOL     OW85078   8.586   3.124   4.070 -0.0366  0.3349  0.9356
24340SOL    HW185079   8.639   3.050   4.109  1.4054  0.4835 -0.7011
24340SOL    HW285080   8.563   3.103   3.975  2.3431  2.9381 -0.2916
24341SOL     OW85081   0.783   5.086   7.987 -0.6238 -0.2743  0.3831
24341SOL    HW185082   0.714   5.152   7.958  0.0931 -0.3470 -1.5687
24341SOL    HW285083   0.752   4.994   7.962  0.0390 -0.3330 -0.2174
24342SOL     OW85084   9.948   9.834   5.956 -0.1449 -0.7481 -0.5498
24342SOL    HW185085   9.998   9.866   5.875  0.7938 -0.8606 -0.0184
24342SOL    HW285086   9.933   9.736   5.948  1.2797 -1.0313  0.1127
24343SOL     OW85087   7.404   9.166   3.803  0.3779 -0.4333 -0.0800
24343SOL    HW185088   7.398   9.073   3.839 -0.4900 -0.6898 -0.8623
24343SOL    HW285089   7.341   9.176   3.726 -0.7883  1.2825  1.0422
24344SOL     OW85090   2.404   3.863   7.408  0.5068  0.4809 -0.2332
24344SOL    HW185091   2.353   3.937   7.364  0.1023 -0.5120 -1.4961
24344SOL    HW285092   2.426   3.793   7.339 -0.1875 -1.1541  1.1733
24345SOL     OW85093   6.656   9.462   2.339  0.1798  0.1865  0.1646
24345SOL    HW185094   6.656   9.367   2.368  1.1930  0.2422  0.3639
24345SOL    HW285095   6.693   9.469   2.246  0.5945  0.4451  0.3496
24346SOL     OW85096   1.276   0.407   5.291 -0.7397 -0.2552  0.3113
24346SOL    HW185097   1.236   0.421   5.201  0.0408 -0.3803 -0.0638
24346SOL    HW285098   1.213   0.440   5.362 -1.9646 -1.4793 -0.1969
24347SOL     OW85099   9.592   9.164   8.294  0.0405  0.2267  0.1680
24347SOL    HW185100   9.578   9.167   8.195 -1.6800 -0.5754  0.3687
24347SOL    HW285101   9.554   9.246   8.336 -0.5305 -0.0988  0.2989
24348SOL     OW85102   0.807   8.635   2.151  0.4363  0.0505 -0.4785
24348SOL    HW185103   0.819   8.540   2.182 -0.0189 -0.1297 -0.8333
24348SOL    HW285104   0.762   8.634   2.061 -2.4540  0.6891  0.9130
24349SOL     OW85105   9.124   2.755   9.534  0.2530  0.1381  0.1333
24349SOL    HW185106   9.210   2.704   9.530  0.5961  0.7115  0.1266
24349SOL    HW285107   9.125   2.827   9.464 -0.1516  0.2655  0.2595
24350SOL     OW85108   9.767   1.852   8.626 -0.3994  0.3196 -0.3170
24350SOL    HW185109   9.827   1.880   8.551  0.8597  0.9132  0.9019
24350SOL    HW285110   9.756   1.752   8.624 -0.7749  0.3792 -1.5781
24351SOL     OW85111   2.160   2.985   6.080 -0.2496  0.3862 -0.2628
24351SOL    HW185112   2.106   2.906   6.049  0.8134 -0.1075 -0.8737
24351SOL    HW285113   2.255   2.973   6.053  0.3213  0.9069  1.4123
24352SOL     OW85114   7.703   8.019   7.528  0.4370  0.5090  0.1147
24352SOL    HW185115   7.608   8.015   7.557  0.8174 -0.6845  1.2651
24352SOL    HW285116   7.711   8.072   7.444 -1.5688 -1.4885 -1.3837
24353SOL     OW85117   9.251   1.581   1.157  0.3001  0.1736  0.1328
24353SOL    HW185118   9.287   1.496   1.196  0.8363  0.0276 -0.6894
24353SOL    HW285119   9.214   1.638   1.231  1.7197  0.0929  0.9290
24354SOL     OW85120   8.803   8.752   2.855 -0.0121  0.4282 -0.1439
24354SOL    HW185121   8.746   8.696   2.915 -0.0380  1.1658  0.5390
24354SOL    HW285122   8.878   8.697   2.819  0.0979  0.0089  0.7055
24355SOL     OW85123   1.410   1.227   2.559  0.2871  0.1960  0.4141
24355SOL    HW185124   1.355   1.257   2.481 -0.6897 -1.8175  0.3014
24355SOL    HW285125   1.453   1.306   2.601  0.0836  1.4188 -1.6029
24356SOL     OW85126   7.603   6.169   2.992  0.1712 -0.3027  0.1601
24356SOL    HW185127   7.615   6.070   2.985  0.1396 -0.4373  1.8266
24356SOL    HW285128   7.565   6.192   3.081 -2.2135  1.0082 -1.1591
24357SOL     OW85129   0.628   5.722   4.333  0.1698 -0.1552 -0.4036
24357SOL    HW185130   0.705   5.689   4.278 -1.0881 -1.8933 -1.1858
24357SOL    HW285131   0.654   5.726   4.429  0.8930 -1.9296 -0.5011
24358SOL     OW85132   8.068   2.601  10.058  0.0898 -0.0944 -0.2304
24358SOL    HW185133   8.154   2.626  10.014 -0.1163 -1.0723 -1.2291
24358SOL    HW285134   8.084   2.529  10.125 -0.1799 -1.6330 -1.7548
24359SOL     OW85135   6.736   7.766   6.519 -0.7231  0.1557 -0.6609
24359SOL    HW185136   6.731   7.673   6.554 -0.7548  0.6368  0.6214
24359SOL    HW285137   6.644   7.803   6.508 -0.7104  0.0485 -1.1571
24360SOL     OW85138   5.442   3.432   7.034  0.7507  0.1123 -0.1711
24360SOL    HW185139   5.503   3.507   7.009 -1.7891  2.1019 -0.6327
24360SOL    HW285140   5.451   3.411   7.131  1.7762  0.7574 -0.1264
24361SOL     OW85141   0.067   6.165   9.788 -0.6440  0.0859  0.5676
24361SOL    HW185142   0.110   6.188   9.701  1.6364  0.1429  1.6560
24361SOL    HW285143   0.004   6.088   9.775  0.4098 -0.5474 -0.9532
24362SOL     OW85144   8.899   4.118   5.113  0.1032 -0.4499  0.0944
24362SOL    HW185145   8.809   4.154   5.088  0.0355 -0.0920  0.8376
24362SOL    HW285146   8.899   4.095   5.211  0.7605 -0.6184  0.0514
24363SOL     OW85147   4.225   1.312   4.797 -0.0383  0.2249  0.2790
24363SOL    HW185148   4.321   1.284   4.786  0.7940  2.9822  0.0601
24363SOL    HW285149   4.170   1.232   4.820  2.1931 -1.5455 -0.2527
24364SOL     OW85150   4.318   0.677   4.642  0.6949 -0.1123 -0.7364
24364SOL    HW185151   4.265   0.704   4.722  0.7689  2.0626 -1.3876
24364SOL    HW285152   4.276   0.598   4.598  0.1558 -0.7607  0.9391
24365SOL     OW85153   4.117   6.220   9.662 -0.1738  0.3395 -0.4574
24365SOL    HW185154   4.143   6.204   9.758  0.0438  2.3441 -0.1652
24365SOL    HW285155   4.024   6.256   9.658 -0.6641 -0.9476 -1.1123
24366SOL     OW85156   6.864   1.877   5.008 -0.0294  0.5289 -0.3914
24366SOL    HW185157   6.768   1.857   5.029  0.6578 -1.5196  0.9491
24366SOL    HW285158   6.918   1.794   5.020  1.7387  1.3784 -2.2967
24367SOL     OW85159   9.521   4.434   6.580  0.1348 -0.0861  0.0436
24367SOL    HW185160   9.593   4.374   6.545 -0.1893 -0.0685 -0.6531
24367SOL    HW285161   9.479   4.484   6.505 -0.6543 -0.1426  0.4343
24368SOL     OW85162   2.521   0.581   5.327  0.5553 -0.4094  0.2727
24368SOL    HW185163   2.477   0.658   5.374  1.3047 -0.8200  1.6551
24368SOL    HW285164   2.513   0.499   5.383  2.5476 -0.6290  0.2471
24369SOL     OW85165   0.985   2.236   4.662 -0.4694  0.2888  0.2481
24369SOL    HW185166   0.959   2.318   4.713 -1.4512  0.4731 -0.5442
24369SOL    HW285167   0.998   2.259   4.566 -0.1264 -0.3673  0.1352
24370SOL     OW85168   0.416   4.813   1.063  0.9127 -0.6092  0.7715
24370SOL    HW185169   0.472   4.886   1.024 -0.7731  0.0585 -0.5151
24370SOL    HW285170   0.406   4.739   0.996 -1.1299  0.0736  0.2561
24371SOL     OW85171   2.604   0.473   1.732 -0.3465 -0.0959 -0.4339
24371SOL    HW185172   2.608   0.386   1.781 -2.5469 -0.0020 -0.0566
24371SOL    HW285173   2.649   0.544   1.786 -1.6459 -0.2596  0.8773
24372SOL     OW85174   1.035   1.452   0.741  0.3608  0.1795 -0.3527
24372SOL    HW185175   1.099   1.428   0.815  1.1573 -0.0295 -1.0991
24372SOL    HW285176   0.952   1.398   0.751  0.6583 -0.2047  0.1173
24373SOL     OW85177   4.186   0.036   4.148 -0.4165 -0.2516 -0.1283
24373SOL    HW185178   4.238  -0.046   4.124 -3.5269 -2.3549 -0.0093
24373SOL    HW285179   4.213   0.068   4.239  3.3320  1.0175 -1.6054
24374SOL     OW85180   8.779   3.113   3.625  0.2384 -0.6039 -0.1804
24374SOL    HW185181   8.845   3.188   3.627 -0.1661 -0.2332 -0.6597
24374SOL    HW285182   8.745   3.101   3.532 -0.6052 -0.5833  0.1202
24375SOL     OW85183   7.993   2.009   4.208 -0.3017 -0.0603  0.6397
24375SOL    HW185184   7.990   2.016   4.308 -1.1400  0.2261  0.5958
24375SOL    HW285185   8.049   1.930   4.182 -0.9499 -0.7574  1.3490
24376SOL     OW85186   2.071   7.179   0.689 -0.0762 -0.4516  0.0345
24376SOL    HW185187   2.091   7.158   0.785  0.6316 -0.7675 -0.1761
24376SOL    HW285188   1.973   7.175   0.673 -0.2258 -0.0874  0.8210
24377SOL     OW85189   6.823   2.964   0.493  0.2976 -0.7165  0.0036
24377SOL    HW185190   6.899   2.909   0.458  0.9846  0.7106 -0.8063
24377SOL    HW285191   6.842   3.061   0.477 -1.2121 -0.2763  0.7644
24378SOL     OW85192   9.196   0.819   9.407 -0.0673  0.1560 -0.3405
24378SOL    HW185193   9.139   0.767   9.471 -1.1125  2.4741  0.6315
24378SOL    HW285194   9.156   0.814   9.316 -0.6656  0.0453 -0.0720
24379SOL     OW85195   8.903   7.779   7.213 -0.3033  0.0252 -0.0718
24379SOL    HW185196   8.933   7.807   7.304 -1.6398  1.0265  0.0786
24379SOL    HW285197   8.920   7.853   7.148 -1.0321  0.0273 -0.2680
24380SOL     OW85198   9.084   7.918   1.633  0.4833  0.0635  0.2457
24380SOL    HW185199   9.041   7.937   1.722  1.9074  0.6204  0.8366
24380SOL    HW285200   9.166   7.975   1.623  0.9528 -0.8008 -0.9543
24381SOL     OW85201   7.311   6.176   2.442  0.2654 -0.3713  0.3918
24381SOL    HW185202   7.339   6.231   2.521  0.9667 -0.0224 -0.0922
24381SOL    HW285203   7.392   6.150   2.389 -0.4099  2.0644 -1.9601
24382SOL     OW85204   1.627   9.830   4.792 -0.1059  0.3058  0.4319
24382SOL    HW185205   1.653   9.738   4.822 -0.5920 -0.4184 -1.2945
24382SOL    HW285206   1.684   9.898   4.839  0.9102 -0.9266  1.0114
24383SOL     OW85207   4.976   0.546   6.148  0.6795 -0.1302 -0.5944
24383SOL    HW185208   5.058   0.599   6.173 -0.5872  1.6272 -0.0132
24383SOL    HW285209   4.954   0.482   6.221 -0.2163  1.5932  0.7069
24384SOL     OW85210   6.741   6.021   9.946  0.1940  0.0997 -0.0979
24384SOL    HW185211   6.833   6.001   9.978  0.2435 -0.8287 -0.8149
24384SOL    HW285212   6.706   5.944   9.893 -1.3413  0.0675  0.9281
24385SOL     OW85213   3.693   5.745   5.987  0.5088 -0.3833 -0.1611
24385SOL    HW185214   3.644   5.744   6.074  1.4064 -0.0046  0.3543
24385SOL    HW285215   3.688   5.654   5.945  1.5275 -1.0463  1.1103
24386SOL     OW85216   5.478   4.783   1.837  0.6770 -0.2986  0.0600
24386SOL    HW185217   5.508   4.869   1.795 -1.5480 -0.3061 -1.6427
24386SOL    HW285218   5.516   4.775   1.929  2.4056  1.6292 -0.4657
24387SOL     OW85219   0.924   3.418   4.313  0.8075 -0.2028 -0.3385
24387SOL    HW185220   0.953   3.514   4.319 -1.4697  0.4293  0.9678
24387SOL    HW285221   0.844   3.411   4.253  1.7287 -1.5051 -1.4663
24388SOL     OW85222   9.423   0.209   8.311 -0.1290  0.3901 -0.4691
24388SOL    HW185223   9.520   0.232   8.318 -0.4538  1.8820 -0.6865
24388SOL    HW285224   9.368   0.286   8.343 -1.2222 -1.4918  2.3054
24389SOL     OW85225   9.632   3.432   2.045 -0.2241 -0.5179  0.3392
24389SOL    HW185226   9.667   3.498   2.112  1.3660 -1.5077  0.5052
24389SOL    HW285227   9.589   3.355   2.093  1.2275 -1.4005  0.2726
24390SOL     OW85228   1.120   3.731   0.706  0.2445  0.4705  0.1070
24390SOL    HW185229   1.034   3.706   0.752 -0.8869  0.8321 -1.7695
24390SOL    HW285230   1.134   3.672   0.627  0.9240  1.4287 -0.4929
24391SOL     OW85231   2.286   1.739   8.954 -0.1729 -0.3772 -0.0799
24391SOL    HW185232   2.230   1.811   8.995 -1.9262 -1.8138  0.1269
24391SOL    HW285233   2.291   1.753   8.855 -0.4326  0.0848 -0.0305
24392SOL     OW85234   9.532   0.768   0.283 -0.4879  0.5907  0.6024
24392SOL    HW185235   9.575   0.679   0.302  1.5523  1.2509 -0.7167
24392SOL    HW285236   9.460   0.785   0.351  0.4315 -1.1635  2.0854
24393SOL     OW85237   2.299   6.671   0.825  0.2915 -0.1545  0.0174
24393SOL    HW185238   2.225   6.711   0.880 -0.0300  0.7880 -1.0874
24393SOL    HW285239   2.290   6.571   0.824 -0.2200 -0.1164  0.9387
24394SOL     OW85240   3.794   7.871   0.626  0.0737  0.0280 -0.2773
24394SOL    HW185241   3.778   7.953   0.571  0.0480  1.7016  2.1388
24394SOL    HW285242   3.891   7.866   0.651  0.1364 -0.8528 -0.6811
24395SOL     OW85243   7.108   6.842   3.485  0.2383 -0.8157 -0.2295
24395SOL    HW185244   7.015   6.861   3.516 -0.3321 -1.2830 -1.6109
24395SOL    HW285245   7.129   6.745   3.498 -0.1304 -1.0892 -1.5861
24396SOL     OW85246   3.207   7.566   3.236 -0.1592  0.2581 -0.4234
24396SOL    HW185247   3.296   7.523   3.219 -0.4521 -0.9925  1.0877
24396SOL    HW285248   3.149   7.503   3.287 -1.7778  1.2308 -1.0312
24397SOL     OW85249   1.819   5.123   8.135  0.2482  0.6274 -0.4530
24397SOL    HW185250   1.854   5.030   8.123  0.2560  0.7649 -1.5071
24397SOL    HW285251   1.750   5.124   8.208 -1.0401 -0.5252 -1.6452
24398SOL     OW85252   9.136   6.795   1.408 -0.2397  0.1718  0.4699
24398SOL    HW185253   9.068   6.750   1.350 -1.3558  0.6494  1.4173
24398SOL    HW285254   9.201   6.727   1.441 -1.1232 -0.5218  0.7831
24399SOL     OW85255   4.297   3.136   5.649  0.1248  0.1151  0.0734
24399SOL    HW185256   4.245   3.065   5.601 -1.2457  0.3261  1.2093
24399SOL    HW285257   4.313   3.213   5.586  1.1850 -0.9753 -1.0115
24400SOL     OW85258   9.984   2.287   7.917  0.2282  0.7910  0.8004
24400SOL    HW185259  10.026   2.202   7.885  0.2559  0.3932  1.8784
24400SOL    HW285260   9.973   2.350   7.840 -0.4350 -0.4509 -0.1411
24401SOL     OW85261   0.131   9.156   6.496  0.2618 -0.0479 -0.3017
24401SOL    HW185262   0.228   9.180   6.508  0.2050  0.8157 -1.4790
24401SOL    HW285263   0.107   9.162   6.399 -1.3980  1.3632  0.1761
24402SOL     OW85264   1.583   2.684   2.416  0.6597 -0.2023  0.2707
24402SOL    HW185265   1.573   2.621   2.339 -1.2103  0.0248  0.3086
24402SOL    HW285266   1.586   2.632   2.501  2.3190 -0.4263  0.0970
24403SOL     OW85267   7.225   0.486   4.096 -0.2870  0.4146 -0.1503
24403SOL    HW185268   7.234   0.416   4.167 -1.9186  0.7532  0.4190
24403SOL    HW285269   7.202   0.441   4.009 -2.3845  0.2660  0.4320
24404SOL     OW85270   1.717   3.892   4.594 -0.5500 -0.2912  0.2570
24404SOL    HW185271   1.760   3.885   4.684  4.1627 -0.3989 -1.8587
24404SOL    HW285272   1.702   3.800   4.558  1.1246 -0.2567 -0.5898
24405SOL     OW85273   4.795   4.313   5.849  0.4041  0.0068 -0.3652
24405SOL    HW185274   4.703   4.291   5.882  0.4337  1.6527  0.8527
24405SOL    HW285275   4.863   4.278   5.914  0.5796  0.4604 -0.3063
24406SOL     OW85276   9.198   3.479   7.331 -0.2239  0.7642  0.1759
24406SOL    HW185277   9.241   3.500   7.243 -0.5866  1.1568  0.0870
24406SOL    HW285278   9.102   3.457   7.316 -0.4271  1.3933  0.5343
24407SOL     OW85279   0.758   4.833   7.942  0.2428 -0.1529  0.3589
24407SOL    HW185280   0.846   4.787   7.932  0.2064 -0.2453  0.4568
24407SOL    HW285281   0.721   4.814   8.033  0.0190 -0.2962  0.2378
24408SOL     OW85282   2.193   8.995   0.128  0.1555  0.0716  0.3720
24408SOL    HW185283   2.111   8.940   0.110  1.2605 -1.6230  0.3868
24408SOL    HW285284   2.215   9.049   0.046  0.9680 -2.0803 -0.8860
24409SOL     OW85285   8.339   4.845   0.193  0.2550  0.1599 -0.8031
24409SOL    HW185286   8.354   4.751   0.163  3.4329  0.1769  0.4904
24409SOL    HW285287   8.323   4.846   0.292 -0.4306  0.9272 -0.9137
24410SOL     OW85288   0.909   7.791   5.042  0.1862  0.3212  0.7710
24410SOL    HW185289   0.942   7.707   4.998  0.4689  0.5859  0.4791
24410SOL    HW285290   0.865   7.849   4.974 -0.5009  0.1641  1.0765
24411SOL     OW85291   3.408   5.492   2.994 -0.3230  0.2540 -0.2051
24411SOL    HW185292   3.314   5.476   3.023 -0.7658 -1.1324 -2.2810
24411SOL    HW285293   3.417   5.467   2.897  1.7651  1.9735 -0.4882
24412SOL     OW85294   4.020   9.371   6.014  0.6109 -0.0097 -0.3222
24412SOL    HW185295   4.071   9.376   6.100  0.3778 -0.9703 -0.1216
24412SOL    HW285296   4.066   9.425   5.944  0.0476  1.9350  0.7792
24413SOL     OW85297   6.658   9.788   3.707  0.1508  0.2564  0.3092
24413SOL    HW185298   6.560   9.772   3.721 -0.2722  1.0419 -1.5471
24413SOL    HW285299   6.679   9.884   3.726 -0.1615  0.9805 -2.7612
24414SOL     OW85300   7.823   3.688   3.627 -0.1124  0.1091  0.1510
24414SOL    HW185301   7.795   3.602   3.670 -0.2396 -0.2298 -0.5941
24414SOL    HW285302   7.910   3.675   3.580  0.2150  0.5776  0.6231
24415SOL     OW85303   9.531   8.705   2.923 -0.2657 -0.2254  0.0592
24415SOL    HW185304   9.472   8.771   2.878 -0.3643 -1.6276 -1.9319
24415SOL    HW285305   9.590   8.752   2.989 -1.9522  1.4878  0.3773
24416SOL     OW85306   2.725   1.702   7.588  0.4177 -0.0537 -0.3006
24416SOL    HW185307   2.799   1.764   7.563  0.1452  1.2218  1.9161
24416SOL    HW285308   2.642   1.729   7.539  1.4002 -1.6603 -3.0071
24417SOL     OW85309   1.770   7.388   9.631  0.2428  0.2284  0.0347
24417SOL    HW185310   1.710   7.313   9.603 -1.9635  1.3529  1.6260
24417SOL    HW285311   1.852   7.388   9.574 -0.6036 -2.2191 -1.2422
24418SOL     OW85312   6.947   7.800   2.899  0.2927 -0.0378  0.1818
24418SOL    HW185313   7.034   7.769   2.937 -0.1615  1.0023  2.1518
24418SOL    HW285314   6.879   7.728   2.908 -0.1492  0.6455  2.5885
24419SOL     OW85315   0.509   8.561   4.203 -0.1729 -0.1686 -0.1942
24419SOL    HW185316   0.468   8.519   4.122  0.2170 -2.3622  0.7168
24419SOL    HW285317   0.545   8.490   4.263  0.1357  1.4609  1.6057
24420SOL     OW85318   3.002   9.271   4.952 -0.0579  0.2475 -0.0434
24420SOL    HW185319   3.073   9.238   5.014  0.5491  1.2895 -0.1746
24420SOL    HW285320   3.007   9.371   4.946 -3.0383  0.5984  1.8069
24421SOL     OW85321   8.672   1.070   2.983 -0.0730  0.2185  0.0248
24421SOL    HW185322   8.667   0.978   3.020 -1.3824 -0.1174 -0.9406
24421SOL    HW285323   8.665   1.067   2.883 -1.1261  1.4158  0.0442
24422SOL     OW85324   0.724   1.727   2.513 -0.3037  0.5879 -0.1190
24422SOL    HW185325   0.726   1.637   2.558 -0.3488  0.2643 -0.7451
24422SOL    HW285326   0.753   1.798   2.577 -2.4465  0.4219  1.0725
24423SOL     OW85327   6.938   1.522   8.184 -0.6464 -0.0725  0.2249
24423SOL    HW185328   6.985   1.607   8.164  0.1272 -0.4206  0.5163
24423SOL    HW285329   6.975   1.483   8.269 -0.8013 -0.8272 -0.0495
24424SOL     OW85330   6.170   9.846   5.932 -0.4328 -0.7676  0.2470
24424SOL    HW185331   6.268   9.857   5.947 -0.7974  1.0971  1.4730
24424SOL    HW285332   6.120   9.873   6.014 -2.0501  0.1066 -0.9816
24425SOL     OW85333   7.161   8.278   8.221 -0.1898  0.0731 -0.1927
24425SOL    HW185334   7.141   8.228   8.137 -0.2856 -0.3356  0.0729
24425SOL    HW285335   7.260   8.281   8.235 -0.2126 -0.5388  0.0934
24426SOL     OW85336   0.509   9.662   6.388 -0.0501  0.5702  1.0132
24426SOL    HW185337   0.476   9.756   6.404  0.7246  1.2310 -1.0714
24426SOL    HW285338   0.570   9.662   6.308  0.2940 -1.6480  1.2638
24427SOL     OW85339   3.093   9.884   1.474  0.1294  0.4991  0.2997
24427SOL    HW185340   3.178   9.935   1.475  2.0150 -2.4591 -1.3694
24427SOL    HW285341   3.082   9.839   1.385 -3.0350  0.5966  0.5801
24428SOL     OW85342   5.018   4.987   0.716 -0.0786 -0.7864  0.3006
24428SOL    HW185343   4.981   5.054   0.780  0.6326 -0.3204  0.2393
24428SOL    HW285344   5.093   5.029   0.665 -1.5972 -0.6671 -1.8962
24429SOL     OW85345   4.190   0.849   2.766  0.7438 -0.1927 -0.2990
24429SOL    HW185346   4.253   0.777   2.794  1.7465  0.1734 -1.5431
24429SOL    HW285347   4.175   0.912   2.841  0.8582 -0.9900  0.4013
24430SOL     OW85348   7.490   7.100   7.510 -0.3539  0.1338  0.2772
24430SOL    HW185349   7.419   7.081   7.578 -1.2661 -0.0706 -0.7150
24430SOL    HW285350   7.528   7.192   7.526 -1.0031  0.3336  0.6780
24431SOL     OW85351   9.121   8.449   7.113  0.0860  0.2232  0.7047
24431SOL    HW185352   9.162   8.358   7.118  0.7268  0.4866  0.3728
24431SOL    HW285353   9.022   8.441   7.107  0.2446 -0.5649 -1.8288
24432SOL     OW85354   4.292   8.800   8.519 -0.0044  0.6368  0.1067
24432SOL    HW185355   4.242   8.792   8.433 -0.8402  0.1566  0.6283
24432SOL    HW285356   4.270   8.887   8.563  0.3672  0.8500 -0.1258
24433SOL     OW85357   9.939   7.173   4.557  0.4847  0.4393  0.7296
24433SOL    HW185358  10.023   7.121   4.571  0.3582 -0.2188 -0.7828
24433SOL    HW285359   9.874   7.154   4.631  0.0903 -2.2912 -0.2480
24434SOL     OW85360   3.581   3.729   9.013  0.2688  0.0092 -0.0837
24434SOL    HW185361   3.593   3.667   9.090  2.2168 -0.4029 -0.6779
24434SOL    HW285362   3.666   3.781   8.998  0.6758 -1.3991 -3.1860
24435SOL     OW85363   3.656   0.038   5.185 -0.1615  0.1221  0.2199
24435SOL    HW185364   3.572   0.068   5.139  1.1208  0.8164 -1.7433
24435SOL    HW285365   3.733   0.045   5.122  1.0209 -2.7195  1.2543
24436SOL     OW85366   8.925   8.260   7.753  0.5317  1.0593 -0.6160
24436SOL    HW185367   9.008   8.293   7.706  0.7953  0.6499 -0.4397
24436SOL    HW285368   8.945   8.173   7.797 -0.6124 -0.1819 -2.4854
24437SOL     OW85369   9.228   4.641   1.171 -0.4478 -0.2285  0.1024
24437SOL    HW185370   9.219   4.574   1.097 -0.6377  0.8532 -0.8681
24437SOL    HW285371   9.137   4.667   1.203 -0.4676  1.5042 -1.3053
24438SOL     OW85372   1.184   7.243   5.632  0.2956 -0.3340 -0.7824
24438SOL    HW185373   1.257   7.281   5.575  1.4383 -1.8061 -0.3359
24438SOL    HW285374   1.097   7.245   5.582  1.0173 -0.3362 -2.0429
24439SOL     OW85375   2.394   2.831   1.458 -0.3838 -0.2686  0.0738
24439SOL    HW185376   2.357   2.891   1.388 -1.0415 -1.4766 -0.6259
24439SOL    HW285377   2.329   2.758   1.479  0.6201 -1.0728  0.5038
24440SOL     OW85378   0.569   6.445   0.240 -0.0473  0.2565  0.0631
24440SOL    HW185379   0.496   6.465   0.306 -0.1684 -1.4182  0.4566
24440SOL    HW285380   0.542   6.480   0.150  0.2432  2.8164  0.9069
24441SOL     OW85381   7.711   6.389   4.111 -0.3201 -0.0485  0.3116
24441SOL    HW185382   7.651   6.463   4.140  1.2786  1.1351  0.6514
24441SOL    HW285383   7.707   6.315   4.179 -1.1907  0.1236  0.4568
24442SOL     OW85384   1.038   9.334   7.210 -0.4992 -0.2062 -0.5451
24442SOL    HW185385   1.029   9.429   7.240  1.5634 -0.4662  1.0314
24442SOL    HW285386   1.061   9.332   7.113 -0.2942  0.9032 -0.5311
24443SOL     OW85387   2.729   2.005   2.975 -0.1452 -0.4909 -0.3106
24443SOL    HW185388   2.770   2.030   3.063 -0.2860 -1.8588  0.1687
24443SOL    HW285389   2.777   2.051   2.901  2.4015 -2.1725  0.2313
24444SOL     OW85390   0.974   4.138   2.336  0.0391  0.2259  0.0152
24444SOL    HW185391   0.877   4.143   2.313 -0.2351  0.6863  1.2501
24444SOL    HW285392   1.028   4.136   2.251 -1.0686 -0.7744 -0.6900
24445SOL     OW85393   7.181   3.908   0.344  0.2255  0.0664 -0.0344
24445SOL    HW185394   7.205   3.846   0.419  1.3995 -0.4584 -0.8392
24445SOL    HW285395   7.229   3.881   0.261 -0.1602  1.3541 -0.6924
24446SOL     OW85396   8.036   5.129   4.299  0.0349  0.2296  0.2989
24446SOL    HW185397   7.975   5.065   4.346  2.3426 -2.2485 -0.0093
24446SOL    HW285398   8.124   5.130   4.345  0.4361  2.2766 -0.4722
24447SOL     OW85399   1.250   6.577   2.131  0.1050 -0.2329 -0.0501
24447SOL    HW185400   1.270   6.494   2.183  2.2727 -0.1668 -0.7247
24447SOL    HW285401   1.220   6.552   2.039 -1.6966 -0.3087  0.5534
24448SOL     OW85402   3.583   9.807   3.572  0.2043 -0.0826  0.1394
24448SOL    HW185403   3.622   9.894   3.543  1.8779 -0.9300 -0.2115
24448SOL    HW285404   3.501   9.788   3.518  0.3593  0.8336 -0.4255
24449SOL     OW85405   9.882   5.116   2.820  0.0470  0.5574 -0.0777
24449SOL    HW185406   9.819   5.075   2.753  1.1536 -0.6582 -0.3949
24449SOL    HW285407   9.964   5.148   2.773  0.0860  1.2792  0.4726
24450SOL     OW85408   1.625   0.885   6.894 -0.4918 -0.0212 -0.3708
24450SOL    HW185409   1.677   0.950   6.839 -1.3492  0.4049 -0.6843
24450SOL    HW285410   1.647   0.898   6.991 -2.5688  2.4816 -0.1991
24451SOL     OW85411   0.001   5.665   6.736  0.1817  0.0086 -0.0306
24451SOL    HW185412   0.084   5.693   6.782  0.3299 -0.1055 -0.2271
24451SOL    HW285413  -0.043   5.745   6.694  0.0941  0.0979  0.2277
24452SOL     OW85414   8.363   8.851   0.262 -0.0784  0.0073 -0.2087
24452SOL    HW185415   8.382   8.768   0.209 -0.4713 -0.9720  1.1692
24452SOL    HW285416   8.326   8.922   0.201  1.3098 -0.4312 -1.6046
24453SOL     OW85417   1.938   5.952   4.003 -0.1759 -0.3105  0.4941
24453SOL    HW185418   1.880   6.032   4.015 -0.7767 -0.6097 -0.4072
24453SOL    HW285419   1.974   5.923   4.092  3.5398  3.4928  0.3814
24454SOL     OW85420   0.326   7.053   0.768  0.4350 -0.0446  0.1563
24454SOL    HW185421   0.269   7.133   0.783  1.6291  0.7658  0.4150
24454SOL    HW285422   0.403   7.055   0.831  1.2314 -0.6789 -0.7861
24455SOL     OW85423   4.544   2.815   8.462 -0.1886  0.3487  0.6505
24455SOL    HW185424   4.643   2.828   8.465 -0.2575  1.4495 -1.0944
24455SOL    HW285425   4.504   2.878   8.396 -1.9879 -0.5357  0.8606
24456SOL     OW85426   9.288   5.988   1.241  0.2692 -0.0680  0.3159
24456SOL    HW185427   9.221   5.994   1.316  1.8410  0.1390  1.7481
24456SOL    HW285428   9.360   5.924   1.266  1.1728  0.5186 -0.7383
24457SOL     OW85429   9.914   9.562   5.877 -0.8480 -0.9674 -0.1125
24457SOL    HW185430   9.817   9.589   5.873 -0.6657  0.1052  1.9603
24457SOL    HW285431   9.953   9.564   5.785 -2.1665  1.0223 -0.6670
24458SOL     OW85432   8.815   6.592   4.406  0.3133 -0.0299 -0.5522
24458SOL    HW185433   8.729   6.575   4.357  0.5133 -0.3332 -0.7999
24458SOL    HW285434   8.867   6.507   4.413 -0.0491 -0.1389  0.8419
24459SOL     OW85435   3.479   0.817   2.199 -0.4684  0.1247 -0.0485
24459SOL    HW185436   3.473   0.904   2.150  1.3896  0.0386 -0.4673
24459SOL    HW285437   3.572   0.780   2.191 -0.8474 -1.1985  1.3217
24460SOL     OW85438   1.337   7.357   8.739  0.2853 -0.1112  0.1252
24460SOL    HW185439   1.395   7.375   8.659 -0.1757 -0.0694 -0.1981
24460SOL    HW285440   1.271   7.431   8.751  2.0211  1.1901  2.0655
24461SOL     OW85441   7.033   1.660   4.973 -0.5163  0.1072  0.2116
24461SOL    HW185442   7.107   1.697   5.028 -1.3746  3.7903 -0.9616
24461SOL    HW285443   7.057   1.568   4.942  1.9996 -0.1493  2.7299
24462SOL     OW85444   3.857   3.954   9.649  0.1249 -0.2520  0.6796
24462SOL    HW185445   3.783   3.929   9.711 -1.0363  1.5933  0.0856
24462SOL    HW285446   3.855   3.894   9.569  0.4520 -1.4150  1.5354
24463SOL     OW85447   8.254   3.140   2.184  0.3241 -0.5948 -0.1272
24463SOL    HW185448   8.216   3.195   2.110  1.6665 -2.1014 -1.9935
24463SOL    HW285449   8.311   3.197   2.242 -0.3866  0.5160 -0.5056
24464SOL     OW85450   3.051   6.633   8.244 -0.3120 -0.5567  0.1809
24464SOL    HW185451   3.108   6.554   8.226 -0.3475 -0.4798 -0.2657
24464SOL    HW285452   2.958   6.603   8.267 -0.6104 -0.6056 -1.0658
24465SOL     OW85453   2.263   2.599   3.689  0.5838 -0.3232  0.3122
24465SOL    HW185454   2.253   2.603   3.589  0.3939  0.6641  0.3621
24465SOL    HW285455   2.321   2.521   3.714  1.3653 -0.0552 -0.6280
24466SOL     OW85456   0.079   0.434   4.873  0.1221  0.9208  0.5046
24466SOL    HW185457   0.077   0.532   4.892  2.5103  1.1544 -0.2738
24466SOL    HW285458   0.098   0.419   4.776 -0.7717 -0.3319  0.5017
24467SOL     OW85459   2.328   0.630   8.659 -0.1174 -0.4950  0.4949
24467SOL    HW185460   2.346   0.532   8.648 -1.3865 -0.7999  1.0664
24467SOL    HW285461   2.320   0.652   8.756 -1.2662 -0.0876  0.3111
24468SOL     OW85462   6.521   0.001   6.734 -0.6813  0.2056 -0.3735
24468SOL    HW185463   6.422   0.010   6.741 -0.8996 -0.4718 -2.2256
24468SOL    HW285464   6.565   0.072   6.789 -2.1717  0.3055  0.7397
24469SOL     OW85465   9.070   8.672   6.701 -0.0520 -0.6249  0.2680
24469SOL    HW185466   9.168   8.665   6.714  0.6034  0.6837 -3.3395
24469SOL    HW285467   9.024   8.670   6.790  3.1061 -2.3872  1.9481
24470SOL     OW85468   0.091   7.815   5.271 -0.5261  0.2972 -0.0850
24470SOL    HW185469   0.020   7.810   5.341 -2.0662 -1.7704 -1.7439
24470SOL    HW285470   0.061   7.875   5.197 -0.2222  0.0425 -0.4181
24471SOL     OW85471   4.267   2.103   9.556 -0.0688 -0.4328 -0.7822
24471SOL    HW185472   4.306   2.025   9.605  1.5683  1.3357  0.8490
24471SOL    HW285473   4.327   2.183   9.568 -2.4272  1.4613 -1.2067
24472SOL     OW85474   1.777   6.963   1.146 -0.2287 -0.0237 -0.0700
24472SOL    HW185475   1.813   6.950   1.239 -0.4878  0.5993  0.1214
24472SOL    HW285476   1.795   6.881   1.092 -1.4749 -1.0306  0.9963
24473SOL     OW85477   4.751   3.122   4.637  0.5522 -0.1471 -0.5023
24473SOL    HW185478   4.706   3.210   4.649 -0.8774 -1.1831  2.2274
24473SOL    HW285479   4.824   3.113   4.705 -2.1527 -2.7694  2.2032
24474SOL     OW85480   9.040   1.928   3.301  0.2585  0.0337  0.0299
24474SOL    HW185481   9.107   1.999   3.322  1.5411 -0.4863 -2.1132
24474SOL    HW285482   8.952   1.970   3.281 -0.3668  0.6678  3.7897
24475SOL     OW85483   2.427   2.718   9.436  0.2457  0.9739  0.0361
24475SOL    HW185484   2.328   2.716   9.448  0.0647 -0.5460 -1.5964
24475SOL    HW285485   2.468   2.642   9.486  0.6242  1.7005  0.8496
24476SOL     OW85486   9.515   4.437   3.112  0.4798 -0.4984 -0.2207
24476SOL    HW185487   9.557   4.459   3.200 -0.4888 -1.1235  0.4136
24476SOL    HW285488   9.553   4.496   3.041  0.7655  0.4947  0.7422
24477SOL     OW85489   2.706   8.938   3.714 -0.5903 -0.5156 -0.4289
24477SOL    HW185490   2.658   8.999   3.651  0.5904  1.1129  0.1976
24477SOL    HW285491   2.751   8.866   3.663 -1.5784 -0.5754 -1.2373
24478SOL     OW85492   7.966   1.130   4.600 -0.4606 -0.0597 -1.0208
24478SOL    HW185493   7.950   1.092   4.690 -0.7628  2.7980  0.1960
24478SOL    HW285494   7.881   1.171   4.566  0.0444  0.2703 -1.9037
24479SOL     OW85495   8.294   7.036   4.951 -0.2691 -0.5709  0.9222
24479SOL    HW185496   8.284   7.068   5.045  1.9867 -1.4622  1.4962
24479SOL    HW285497   8.310   7.114   4.891 -2.3534  0.0611  1.1551
24480SOL     OW85498   1.374   5.877   1.209 -0.2049  0.5869  0.3604
24480SOL    HW185499   1.347   5.891   1.114 -1.0665 -0.2557  0.4681
24480SOL    HW285500   1.292   5.863   1.265  0.3223  0.6092  1.1472
24481SOL     OW85501   1.024   1.367   9.154 -0.1842 -0.2051  0.2613
24481SOL    HW185502   0.942   1.410   9.192 -0.0095  0.9851 -0.6976
24481SOL    HW285503   1.093   1.437   9.135  0.9582 -1.1662  0.8055
24482SOL     OW85504   3.128   6.542   2.706 -0.1802  0.3692  0.1409
24482SOL    HW185505   3.205   6.490   2.744 -0.9601  0.3238  1.6734
24482SOL    HW285506   3.163   6.611   2.642  1.0379 -0.4510 -0.0979
24483SOL     OW85507   4.565   5.245   1.400  0.1142  0.2647  0.6468
24483SOL    HW185508   4.576   5.338   1.434 -0.1354  1.3204 -2.0063
24483SOL    HW285509   4.578   5.244   1.300 -3.0911 -1.9423  0.1588
24484SOL     OW85510   2.198   7.464   6.383 -0.5470 -0.0150 -0.6595
24484SOL    HW185511   2.148   7.449   6.468 -1.5668  0.4557 -1.1762
24484SOL    HW285512   2.296   7.454   6.401 -0.7709 -0.2864  0.4911
24485SOL     OW85513   1.236   3.537   0.529  0.2584  0.1561 -0.0051
24485SOL    HW185514   1.283   3.475   0.592  0.3061 -2.9269 -2.9615
24485SOL    HW285515   1.145   3.502   0.509 -0.0401  1.4931 -1.0582
24486SOL     OW85516   5.371   8.742   5.847 -0.9380 -0.3876 -0.3809
24486SOL    HW185517   5.409   8.832   5.872 -3.1089  0.2139  0.8882
24486SOL    HW285518   5.361   8.687   5.929 -2.3316 -0.7166 -0.7730
24487SOL     OW85519   0.639   0.120   4.462  0.0140 -0.4910  0.6737
24487SOL    HW185520   0.680   0.072   4.540  0.7961  0.9994  1.1958
24487SOL    HW285521   0.561   0.174   4.493  0.2389 -0.0035  0.3853
24488SOL     OW85522   2.499   6.158   4.301  0.1405 -0.0521  0.1724
24488SOL    HW185523   2.430   6.166   4.373 -1.6757  1.4808 -1.6919
24488SOL    HW285524   2.461   6.106   4.224  2.2409 -2.1391  0.5028
24489SOL     OW85525   2.080   4.920   3.841  0.5511  0.8695  0.0756
24489SOL    HW185526   2.058   4.843   3.781  1.7031  0.8692 -0.3603
24489SOL    HW285527   2.000   4.980   3.850 -0.7602 -1.0131  1.4109
24490SOL     OW85528   8.461   3.510   3.468  0.2092  0.3375 -0.4981
24490SOL    HW185529   8.456   3.430   3.409  0.1669 -0.2412  0.2909
24490SOL    HW285530   8.405   3.495   3.550  2.6161 -0.0376  1.1117
24491SOL     OW85531   0.468   2.167   4.870 -0.0900  0.7065  0.1169
24491SOL    HW185532   0.387   2.177   4.928  0.5771  0.9238  1.0273
24491SOL    HW285533   0.548   2.147   4.927  0.4633  0.2985 -0.7899
24492SOL     OW85534   6.908   1.354   6.144 -0.2001  0.1126  0.0485
24492SOL    HW185535   6.903   1.427   6.076  0.9915  1.0612  0.9711
24492SOL    HW285536   6.949   1.389   6.228  2.2157 -2.1119 -0.1421
24493SOL     OW85537   3.782   6.743   7.826 -0.3952 -0.5917  0.2365
24493SOL    HW185538   3.728   6.662   7.847 -0.5457 -0.2043  1.4101
24493SOL    HW285539   3.842   6.763   7.904  0.6403 -0.3815 -0.6040
24494SOL     OW85540   8.681   4.815   2.243 -0.6823 -0.4125 -0.4448
24494SOL    HW185541   8.704   4.744   2.310  0.6898  0.2306 -0.2324
24494SOL    HW285542   8.638   4.772   2.163  1.0591 -1.6097 -0.7645
24495SOL     OW85543   6.475   0.227   1.234 -0.2210 -0.0626 -0.3422
24495SOL    HW185544   6.557   0.212   1.289 -0.7944  0.3615  0.6400
24495SOL    HW285545   6.444   0.140   1.197 -1.1611 -0.7263  1.9301
24496SOL     OW85546   8.046   3.610   3.485  0.1700  0.0021  0.2710
24496SOL    HW185547   8.104   3.691   3.492 -0.8981  0.8498 -0.5857
24496SOL    HW285548   8.102   3.528   3.500  1.4624  0.8362  0.1115
24497SOL     OW85549   7.093   4.861   1.740 -0.0638  0.9872  0.0942
24497SOL    HW185550   7.022   4.929   1.722 -1.8659 -0.8717 -0.0787
24497SOL    HW285551   7.112   4.809   1.657 -0.8008 -0.6127  0.8966
24498SOL     OW85552   1.033   9.257   5.305  0.1506 -0.0017 -0.4776
24498SOL    HW185553   0.961   9.187   5.305  0.3861 -0.2601  1.6875
24498SOL    HW285554   1.089   9.247   5.222  0.0608 -2.2448 -0.2939
24499SOL     OW85555   2.735   0.160   9.515 -0.0915  0.1458  0.0444
24499SOL    HW185556   2.678   0.232   9.475  0.1598  0.4812  0.2817
24499SOL    HW285557   2.678   0.098   9.569 -0.5233 -0.6747 -1.3474
24500SOL     OW85558   2.612   1.149   6.627 -0.0055 -0.3030 -0.1854
24500SOL    HW185559   2.526   1.169   6.672  0.3023 -0.1426  0.3285
24500SOL    HW285560   2.680   1.220   6.649  0.8900 -1.5455  1.1252
24501SOL     OW85561   1.933   7.238   5.682 -0.0851 -0.1757 -0.2008
24501SOL    HW185562   1.959   7.235   5.585 -0.0231  0.7605 -0.2179
24501SOL    HW285563   1.995   7.179   5.735 -0.4085 -1.0495 -0.7939
24502SOL     OW85564   7.919   1.979   1.423  0.2332 -0.6638 -0.0367
24502SOL    HW185565   8.018   1.988   1.425  0.2607 -0.7380 -1.2029
24502SOL    HW285566   7.893   1.886   1.451  0.3964 -0.1022  2.0632
24503SOL     OW85567   4.148   7.840   0.375  0.4415  0.1058  0.3642
24503SOL    HW185568   4.224   7.881   0.325  0.3308 -0.1589 -0.0318
24503SOL    HW285569   4.101   7.774   0.315 -0.1904  0.3825  0.5471
24504SOL     OW85570   0.544   0.347   3.309  0.1953 -0.1250 -0.0911
24504SOL    HW185571   0.495   0.350   3.396  1.4720  0.7063  0.6112
24504SOL    HW285572   0.538   0.437   3.265  3.7021  0.9800  1.4928
24505SOL     OW85573   7.879   9.762   3.948 -0.2563 -0.1367  0.4053
24505SOL    HW185574   7.963   9.762   3.895 -0.0413 -0.5423  0.7368
24505SOL    HW285575   7.880   9.839   4.012 -1.1903  1.2415 -1.2141
24506SOL     OW85576   5.255   4.508   9.623  0.3530  0.3252 -0.2994
24506SOL    HW185577   5.175   4.453   9.605  0.0187 -0.1097  2.2489
24506SOL    HW285578   5.241   4.601   9.587 -1.0342  0.0867 -0.3939
24507SOL     OW85579   5.108   9.245   1.098  0.1107 -0.1703  0.0994
24507SOL    HW185580   5.035   9.277   1.038 -1.1955 -1.3157  1.0236
24507SOL    HW285581   5.131   9.150   1.075  1.7263  0.3638 -0.5596
24508SOL     OW85582   5.401   8.167   5.513 -0.2899 -0.0828 -0.5597
24508SOL    HW185583   5.457   8.172   5.430 -0.8331  0.0459 -0.9187
24508SOL    HW285584   5.316   8.118   5.493  0.2877 -1.4786  0.3217
24509SOL     OW85585   2.213   4.565   5.477 -0.4038  0.0277  0.7761
24509SOL    HW185586   2.140   4.580   5.544 -2.0540 -0.8849 -0.7850
24509SOL    HW285587   2.216   4.642   5.414 -0.3166 -0.1571  0.5553
24510SOL     OW85588   0.465   7.221   2.529  0.0142  0.4146  0.0730
24510SOL    HW185589   0.508   7.147   2.476 -0.6042  0.3629 -0.3607
24510SOL    HW285590   0.535   7.287   2.556  0.3474  0.4092 -0.7505
24511SOL     OW85591   3.736   2.700   6.315  0.6754 -0.8049  0.3357
24511SOL    HW185592   3.706   2.667   6.404  0.9443 -0.8892  0.3954
24511SOL    HW285593   3.686   2.652   6.243 -1.3493  1.0089  0.4750
24512SOL     OW85594   0.347   0.269   8.996 -0.6064 -0.3175  0.1283
24512SOL    HW185595   0.436   0.249   8.954 -0.6959 -1.3369  0.3858
24512SOL    HW285596   0.289   0.317   8.932  0.6458  1.6650  0.4522
24513SOL     OW85597   2.876   4.125   6.398 -0.3343 -0.0383  0.2905
24513SOL    HW185598   2.934   4.120   6.317 -0.6082 -1.1947  0.1579
24513SOL    HW285599   2.801   4.188   6.382  0.7910  1.3420  0.4012
24514SOL     OW85600   3.373   9.081   3.808  0.1087 -0.0773 -0.0611
24514SOL    HW185601   3.363   8.982   3.804  1.1142 -0.1542 -0.9343
24514SOL    HW285602   3.378   9.118   3.715 -1.5728  0.9390  0.2415
24515SOL     OW85603   9.247   3.484   2.237 -0.3500 -0.3542 -0.3020
24515SOL    HW185604   9.321   3.533   2.282  0.0833 -1.2812  0.0158
24515SOL    HW285605   9.245   3.389   2.270 -0.7630 -0.7298 -1.3768
24516SOL     OW85606   8.204   0.933   9.537 -0.5014  0.2787 -0.1393
24516SOL    HW185607   8.262   0.875   9.594  0.7209  1.3331 -0.2708
24516SOL    HW285608   8.191   0.890   9.448 -0.0085 -0.0280 -0.0674
24517SOL     OW85609   9.911   6.915   3.255  0.4359 -0.3394  0.2921
24517SOL    HW185610   9.824   6.964   3.259  1.1272  0.9826 -0.3943
24517SOL    HW285611   9.925   6.880   3.162  1.7623  1.6226 -0.2874
24518SOL     OW85612   4.209   9.826   4.983  0.9723  0.6260 -0.1291
24518SOL    HW185613   4.254   9.742   5.015  0.3379 -0.7770 -2.7475
24518SOL    HW285614   4.209   9.894   5.056  3.6556 -0.7949  1.2633
24519SOL     OW85615   4.920   8.281   1.604  0.4794 -0.4367  0.8250
24519SOL    HW185616   4.821   8.265   1.608  0.0725  1.7400  0.3001
24519SOL    HW285617   4.946   8.348   1.672  0.8328  2.3370 -1.9144
24520SOL     OW85618   3.163   0.191   2.886 -0.3250  0.1844  0.4865
24520SOL    HW185619   3.229   0.261   2.912  1.0586 -1.7113  2.2257
24520SOL    HW285620   3.169   0.175   2.788  1.3053  0.5337  0.5154
24521SOL     OW85621   3.686   0.640   8.313  0.1021  0.0875  0.0529
24521SOL    HW185622   3.711   0.568   8.377  0.4489  0.1831  0.0276
24521SOL    HW285623   3.666   0.599   8.224  3.1791  0.2527 -0.7883
24522SOL     OW85624   4.276   0.671   5.746  0.6234  0.4047  0.1008
24522SOL    HW185625   4.346   0.615   5.790 -0.2202 -0.6722  0.0868
24522SOL    HW285626   4.253   0.748   5.806  0.2447 -0.4612  1.0904
24523SOL     OW85627   3.239   5.282   8.228 -0.3385  0.1569  0.2242
24523SOL    HW185628   3.322   5.300   8.174  0.1696 -0.6707  0.7114
24523SOL    HW285629   3.261   5.291   8.325 -0.6715 -0.6676  0.3749
24524SOL     OW85630   2.109   1.629   5.578 -0.0439  0.2333  0.4855
24524SOL    HW185631   2.034   1.689   5.606 -1.0832 -0.1635 -1.3487
24524SOL    HW285632   2.136   1.651   5.484  1.2683 -0.4933  0.6739
24525SOL     OW85633   0.920   2.446   6.781  0.2836 -0.1808  0.4745
24525SOL    HW185634   1.004   2.440   6.726 -0.4388 -0.9442 -0.5759
24525SOL    HW285635   0.893   2.542   6.790  0.2991 -0.0533 -0.7070
24526SOL     OW85636   5.679   6.385   1.527  0.4759  0.0929  0.3724
24526SOL    HW185637   5.671   6.289   1.555 -0.0227  0.4027  1.3231
24526SOL    HW285638   5.724   6.437   1.600  1.2887  0.4668 -0.3973
24527SOL     OW85639   2.611   2.653   8.867  0.2333 -0.4217  0.2940
24527SOL    HW185640   2.528   2.630   8.918 -1.1666  0.7109 -1.4501
24527SOL    HW285641   2.619   2.753   8.859  1.7588 -0.5145  0.4088
24528SOL     OW85642   0.137   8.433   2.114 -0.1591 -0.2241 -0.0412
24528SOL    HW185643   0.124   8.532   2.104 -0.4524 -0.4037 -1.6364
24528SOL    HW285644   0.229   8.415   2.149  0.5286  0.5625 -1.4000
24529SOL     OW85645   4.188   4.601   5.874  0.0587 -0.5006  0.0710
24529SOL    HW185646   4.186   4.698   5.852 -0.3760 -0.4208  0.4401
24529SOL    HW285647   4.102   4.575   5.919  1.1507 -0.5171  2.2042
24530SOL     OW85648   8.539   9.851   2.383  0.6614  0.3248  0.3705
24530SOL    HW185649   8.495   9.910   2.450  0.1620  0.4028 -0.0177
24530SOL    HW285650   8.616   9.900   2.340  0.5979  0.4924  0.4466
24531SOL     OW85651   6.447   8.927   3.719 -0.0665 -0.6055 -0.4007
24531SOL    HW185652   6.502   8.844   3.710  0.8366 -0.0178 -0.3294
24531SOL    HW285653   6.478   8.995   3.653 -1.0151 -0.4350 -0.6765
24532SOL     OW85654   9.569   5.085   8.794 -0.5865 -0.6084 -0.7278
24532SOL    HW185655   9.539   5.180   8.803 -1.3657 -0.9029 -0.0926
24532SOL    HW285656   9.556   5.055   8.700  0.3513  0.1326 -1.1058
24533SOL     OW85657   9.690   5.291   7.884 -0.0992  0.1110  0.1841
24533SOL    HW185658   9.661   5.275   7.979  2.3232 -0.0613  0.9278
24533SOL    HW285659   9.761   5.361   7.882  0.5952 -0.6221 -1.4095
24534SOL     OW85660   7.376   6.925   6.135 -0.7573 -0.3002  0.2543
24534SOL    HW185661   7.464   6.878   6.130 -0.4906  0.1478  0.6940
24534SOL    HW285662   7.367   6.969   6.224 -0.6898  1.0931 -0.4199
24535SOL     OW85663   9.515   1.668   6.736 -0.5925  0.1985  0.7058
24535SOL    HW185664   9.581   1.643   6.807 -0.2098 -1.4659 -0.2026
24535SOL    HW285665   9.544   1.752   6.691  1.8363 -1.3972 -0.8013
24536SOL     OW85666   1.018   2.080   6.104  0.9688 -0.5207 -0.5130
24536SOL    HW185667   0.955   2.059   6.179 -0.8402  0.9538 -1.5758
24536SOL    HW285668   1.107   2.039   6.123  0.3885 -0.6359  2.1782
24537SOL     OW85669   5.663   3.592   8.549  0.0990  0.0358  0.6177
24537SOL    HW185670   5.706   3.643   8.624  1.8095  0.0816 -0.3675
24537SOL    HW285671   5.665   3.494   8.569 -1.3760  0.1886  1.5917
24538SOL     OW85672   3.949   9.894   1.728  0.3279 -0.2240  0.4076
24538SOL    HW185673   3.985   9.825   1.790  0.6066 -0.0207  0.4701
24538SOL    HW285674   3.922   9.850   1.642  1.4951 -0.2551  0.0441
24539SOL     OW85675   3.742   6.757   8.645 -0.1101  0.2328  0.2305
24539SOL    HW185676   3.721   6.855   8.645 -1.8476 -0.1156  0.0982
24539SOL    HW285677   3.726   6.719   8.736 -1.4385 -0.3203 -0.2285
24540SOL     OW85678   8.303   1.756   7.487  0.5794 -0.2011  0.4327
24540SOL    HW185679   8.337   1.783   7.397  0.8084 -1.1193  0.2354
24540SOL    HW285680   8.264   1.836   7.533  0.6338  0.3193 -0.3994
24541SOL     OW85681   1.863   3.352   0.305  0.0076  0.3359 -0.3302
24541SOL    HW185682   1.765   3.369   0.318 -0.3772 -0.5839 -1.8678
24541SOL    HW285683   1.899   3.298   0.381 -0.9674 -0.4361 -0.4204
24542SOL     OW85684   5.790   6.283   1.252 -0.2017 -0.3014  0.6555
24542SOL    HW185685   5.766   6.197   1.297 -1.2605  0.9519  2.5657
24542SOL    HW285686   5.788   6.357   1.319 -1.0167  1.5074 -1.3237
24543SOL     OW85687   3.319   1.544   9.663  0.4839  0.3962  0.1962
24543SOL    HW185688   3.417   1.547   9.639  0.4081  2.8607  0.0237
24543SOL    HW285689   3.288   1.636   9.686 -1.7285 -0.4297  0.6195
24544SOL     OW85690   8.997   1.319   9.093 -0.4326  0.0537  0.2792
24544SOL    HW185691   8.952   1.299   9.180  1.2907 -0.8499  0.9976
24544SOL    HW285692   8.962   1.404   9.055 -1.9910 -0.1114  1.3062
24545SOL     OW85693   9.873   5.383   4.319 -0.2831  0.0646  0.4415
24545SOL    HW185694   9.884   5.400   4.221 -1.8371  0.7360  0.3738
24545SOL    HW285695   9.850   5.288   4.335 -0.3055  0.0200  0.1386
24546SOL     OW85696   6.367   1.601   5.627  0.2728 -0.5648  0.0317
24546SOL    HW185697   6.437   1.596   5.556  0.7893  2.7003  0.2046
24546SOL    HW285698   6.281   1.565   5.592  1.3926 -2.2283 -1.0635
24547SOL     OW85699   4.931   6.673   0.416 -0.3030  0.7680 -0.1022
24547SOL    HW185700   4.840   6.715   0.413 -0.6020  0.1732  0.5414
24547SOL    HW285701   4.968   6.680   0.509 -0.3377 -0.3691 -0.0012
24548SOL     OW85702   4.364   0.237   9.238 -0.5240 -0.2421 -0.7057
24548SOL    HW185703   4.340   0.166   9.304  2.1153 -0.8003 -0.3283
24548SOL    HW285704   4.359   0.200   9.145 -0.2212 -0.6119 -0.5745
24549SOL     OW85705   9.616   4.809   8.251 -0.3343  0.5062  0.3729
24549SOL    HW185706   9.658   4.899   8.246  0.8362 -0.0424  0.3072
24549SOL    HW285707   9.578   4.784   8.161  1.6881 -0.1898 -0.3044
24550SOL     OW85708   9.065   2.686   0.728  0.0510  0.1895  1.0293
24550SOL    HW185709   9.070   2.761   0.794  1.8256 -0.2570  1.4430
24550SOL    HW285710   9.135   2.700   0.657 -1.3854  0.3154 -0.3921
24551SOL     OW85711   5.245   4.655   8.208  0.1901  0.2848  0.1886
24551SOL    HW185712   5.165   4.595   8.201  1.2628 -0.9935 -1.5803
24551SOL    HW285713   5.220   4.746   8.176 -0.8600  0.1812  0.6951
24552SOL     OW85714   2.363   8.373   3.794  0.2483 -0.2046  0.0728
24552SOL    HW185715   2.277   8.357   3.843  1.6255  0.2356  2.6938
24552SOL    HW285716   2.427   8.298   3.811  0.8002  0.0138 -0.9717
24553SOL     OW85717   2.055   4.567   7.813  0.2198 -0.2828 -0.0730
24553SOL    HW185718   2.129   4.513   7.775  0.4589  0.9491 -1.4335
24553SOL    HW285719   2.089   4.657   7.840 -0.8992  0.5971 -1.4815
24554SOL     OW85720   9.981   3.440   2.711 -0.0243 -0.1701  0.2824
24554SOL    HW185721  10.018   3.452   2.619  1.5547 -2.0570  0.6316
24554SOL    HW285722   9.974   3.342   2.731 -1.1050  0.2174  1.8794
24555SOL     OW85723   8.196   8.003   2.468 -0.2923 -0.5729  0.4669
24555SOL    HW185724   8.245   8.032   2.550 -0.7545 -0.2425  0.6301
24555SOL    HW285725   8.101   7.983   2.492 -0.4187 -0.5110  0.0149
24556SOL     OW85726   0.098   7.380   0.201  0.3432  0.7599 -0.0322
24556SOL    HW185727   0.113   7.282   0.218  2.1413  1.2066  1.0099
24556SOL    HW285728   0.173   7.417   0.147  0.0340  1.7238  0.1906
24557SOL     OW85729   3.344   0.484   4.390 -0.5926 -0.1749  0.4402
24557SOL    HW185730   3.432   0.447   4.362 -0.6185  1.0183 -1.3169
24557SOL    HW285731   3.355   0.536   4.474  0.5554  0.6728 -0.2200
24558SOL     OW85732   7.106   7.793   4.908 -0.0107  0.1101 -0.0567
24558SOL    HW185733   7.016   7.814   4.944 -1.5574 -1.4868 -2.8711
24558SOL    HW285734   7.124   7.695   4.918  0.8146  0.1785 -0.7691
24559SOL     OW85735   4.196   3.059   2.994  0.0325  0.5951  0.1834
24559SOL    HW185736   4.182   3.150   3.033 -2.2758  1.1020 -1.6955
24559SOL    HW285737   4.195   3.064   2.894  0.4108 -1.4238  0.0415
24560SOL     OW85738   2.219   9.083   5.920 -0.6448  0.0712 -0.2834
24560SOL    HW185739   2.134   9.031   5.929 -2.3210  2.2787 -2.5431
24560SOL    HW285740   2.280   9.062   5.997 -2.8082 -2.2905  0.8522
24561SOL     OW85741   2.540   8.451   7.962 -0.0983  0.2233  0.2081
24561SOL    HW185742   2.596   8.491   8.035 -0.4465  0.7152  0.2085
24561SOL    HW285743   2.448   8.434   7.997 -0.0933 -0.1264  0.0606
24562SOL     OW85744   1.002   4.603   8.309  0.0326 -0.0081 -0.2744
24562SOL    HW185745   1.006   4.555   8.396 -1.2415 -1.4738 -1.0161
24562SOL    HW285746   1.095   4.613   8.272  0.5199  0.1673  0.9902
24563SOL     OW85747   7.019   7.596   5.205 -0.4052 -0.4650 -0.2311
24563SOL    HW185748   6.975   7.539   5.136  1.5999 -0.8586 -1.2329
24563SOL    HW285749   6.950   7.637   5.263 -2.0771 -1.0554 -1.7490
24564SOL     OW85750   9.001   5.330   9.213 -0.3401 -0.4675 -0.1676
24564SOL    HW185751   8.932   5.260   9.231 -0.7608  0.1031  0.4912
24564SOL    HW285752   8.995   5.401   9.284  1.1742 -0.5967  0.1015
24565SOL     OW85753   9.756   8.858   6.766 -0.5860 -0.2485  0.9014
24565SOL    HW185754   9.817   8.932   6.739  0.5139 -1.6123 -0.4628
24565SOL    HW285755   9.747   8.793   6.690 -0.7328 -2.0270  2.4104
24566SOL     OW85756   4.886   0.808   7.438 -0.2063  0.1480 -0.3836
24566SOL    HW185757   4.896   0.907   7.452  0.0441  0.0555  0.1051
24566SOL    HW285758   4.790   0.783   7.446 -0.4042  0.5016 -1.5097
24567SOL     OW85759   2.639   4.134   5.709  0.8756  0.3627 -0.4352
24567SOL    HW185760   2.686   4.211   5.752  1.6165 -0.5443  0.3839
24567SOL    HW285761   2.617   4.065   5.777 -2.4019  1.1130 -0.6496
24568SOL     OW85762   0.388   3.370   7.102  0.1100  0.0140  0.0773
24568SOL    HW185763   0.363   3.338   7.193  0.6464  0.6914  0.4713
24568SOL    HW285764   0.308   3.369   7.043 -0.2382 -0.4323  0.5590
24569SOL     OW85765   1.718   9.662   1.750 -0.1426 -0.5495  0.4051
24569SOL    HW185766   1.658   9.691   1.676 -0.6556  0.4162  1.1806
24569SOL    HW285767   1.670   9.595   1.807 -0.3533 -0.0546  0.8120
24570SOL     OW85768   9.697   2.126   1.930  0.2262  0.2871  0.1965
24570SOL    HW185769   9.641   2.077   1.997  0.5510 -0.1352  0.1582
24570SOL    HW285770   9.746   2.061   1.873 -0.3112  0.6480 -0.6773
24571SOL     OW85771   7.857   0.551   1.741 -0.6886  0.4908 -0.2047
24571SOL    HW185772   7.828   0.463   1.779 -0.0508  0.0034 -0.8299
24571SOL    HW285773   7.904   0.536   1.654 -0.4072  1.4385 -0.2242
24572SOL     OW85774   9.095   2.988   0.198 -0.2300 -0.3922 -0.4370
24572SOL    HW185775   8.999   2.963   0.212 -0.5486  0.4035 -1.1875
24572SOL    HW285776   9.112   3.002   0.101  0.2489  1.0896 -0.1561
24573SOL     OW85777   9.730   2.201  10.073 -0.7293  0.1298 -0.1626
24573SOL    HW185778   9.731   2.282  10.131 -0.7086 -0.6746  0.9726
24573SOL    HW285779   9.667   2.133  10.110  0.7471 -1.1792  0.0101
24574SOL     OW85780   0.121   6.273   0.990  0.0490 -0.1970  0.0647
24574SOL    HW185781   0.022   6.279   0.997  0.0670  0.9221 -0.5581
24574SOL    HW285782   0.145   6.219   0.909 -0.0493  1.7098 -1.2647
24575SOL     OW85783   0.787   7.325   3.407  0.1290 -0.1382  0.3483
24575SOL    HW185784   0.878   7.353   3.377 -0.1531  0.2154 -0.1863
24575SOL    HW285785   0.775   7.346   3.504  0.3648  0.4643  0.2470
24576SOL     OW85786   8.605   8.224   3.141 -0.3683  0.0293  0.2645
24576SOL    HW185787   8.681   8.283   3.169  1.0781 -1.0559 -1.2624
24576SOL    HW285788   8.531   8.232   3.207  1.3479  0.5717  2.1849
24577SOL     OW85789   4.988   6.770   2.685 -0.0101  0.4574  0.2684
24577SOL    HW185790   5.032   6.852   2.647 -1.0244  1.3040  0.8898
24577SOL    HW285791   4.940   6.722   2.612 -1.8256  1.9992  0.4100
24578SOL     OW85792   1.919   9.771   0.659  0.5522  0.1463 -0.8681
24578SOL    HW185793   1.865   9.687   0.653  0.4755  0.2329 -1.4290
24578SOL    HW285794   1.926   9.812   0.568  0.1305  1.0312 -0.5079
24579SOL     OW85795   3.672   8.177   4.235  0.2094  0.3202 -0.2149
24579SOL    HW185796   3.630   8.257   4.192  1.7778  1.6771  0.7057
24579SOL    HW285797   3.770   8.192   4.245  0.8546 -2.5417 -1.7499
24580SOL     OW85798   7.986   0.608   6.600  0.3312 -0.2505 -0.3234
24580SOL    HW185799   7.967   0.521   6.645  1.0626 -0.6937 -0.8518
24580SOL    HW285800   8.021   0.591   6.508 -1.6176  0.6500 -1.2589
24581SOL     OW85801   0.672   5.692   0.350  0.1037 -0.3615 -0.7863
24581SOL    HW185802   0.580   5.704   0.387  0.2290 -1.1190 -0.2189
24581SOL    HW285803   0.721   5.779   0.351 -0.8710  0.1927 -1.7892
24582SOL     OW85804   1.714   4.558   4.241  0.2459  0.5475 -0.4088
24582SOL    HW185805   1.779   4.585   4.170  0.0637 -1.0529 -1.1963
24582SOL    HW285806   1.711   4.459   4.247 -0.0056  0.6540  1.6014
24583SOL     OW85807   9.467   7.667   8.513 -0.3650  0.1670 -0.3251
24583SOL    HW185808   9.368   7.654   8.504 -0.4484  0.2787  0.3763
24583SOL    HW285809   9.495   7.746   8.458 -0.5988 -0.1094 -0.8464
24584SOL     OW85810   5.924   9.441   6.394  0.2930 -0.2662 -0.3626
24584SOL    HW185811   5.922   9.503   6.315 -1.0342 -0.2683 -0.3335
24584SOL    HW285812   5.948   9.493   6.476  1.0047 -0.1427 -0.6394
24585SOL     OW85813   3.724   7.220   9.794 -0.4211  0.7552  0.1544
24585SOL    HW185814   3.730   7.164   9.712  0.8809 -1.3407  1.6347
24585SOL    HW285815   3.685   7.166   9.869 -0.8425  2.3808  1.1401
24586SOL     OW85816   7.719   3.341   8.190 -0.3253  0.1510 -0.0475
24586SOL    HW185817   7.650   3.350   8.262 -0.5093  0.9758 -0.3174
24586SOL    HW285818   7.707   3.253   8.144 -1.7389  0.6113 -0.6187
24587SOL     OW85819   2.718   1.499   2.905 -0.0881  0.3243  0.4798
24587SOL    HW185820   2.622   1.478   2.886  0.1182 -1.7277  1.5465
24587SOL    HW285821   2.728   1.597   2.924 -2.0622  0.4613  0.9304
24588SOL     OW85822   2.396   2.076   2.258 -0.3783 -0.1306 -0.2041
24588SOL    HW185823   2.338   2.117   2.328  0.8281  0.7871  0.2670
24588SOL    HW285824   2.486   2.056   2.297  0.0528 -0.3248 -1.2910
24589SOL     OW85825   9.881   3.052   3.308  0.2986 -0.2933  0.0419
24589SOL    HW185826   9.826   3.071   3.389  1.0650  0.5076  0.3751
24589SOL    HW285827   9.949   2.982   3.330 -0.3031 -0.9875 -0.2612
24590SOL     OW85828   3.721   7.903   6.293 -0.7047 -0.5050 -0.4421
24590SOL    HW185829   3.715   7.803   6.294 -2.3782 -0.4149 -0.2810
24590SOL    HW285830   3.785   7.932   6.222 -0.2140 -1.6809 -0.4923
24591SOL     OW85831   6.160   7.012   4.236  0.5585 -0.0954 -0.2275
24591SOL    HW185832   6.193   6.994   4.329  1.3700  0.4578 -0.4084
24591SOL    HW285833   6.231   6.988   4.170  0.1157 -0.1390 -0.6858
24592SOL     OW85834   1.462   2.197   0.719 -0.1232 -0.1671  0.1455
24592SOL    HW185835   1.466   2.223   0.623  2.4883 -0.0271  0.2498
24592SOL    HW285836   1.367   2.182   0.746 -1.0376  1.5925 -1.9611
24593SOL     OW85837   4.092   5.655   7.040  0.0872 -0.4503 -0.1379
24593SOL    HW185838   4.175   5.600   7.049  1.5027  1.4711 -1.0898
24593SOL    HW285839   4.115   5.752   7.050 -2.4431 -0.0121  2.1016
24594SOL     OW85840   7.405   4.955   0.111 -0.6291  0.0398  0.0111
24594SOL    HW185841   7.410   4.938   0.209  1.4679 -0.7674 -0.2078
24594SOL    HW285842   7.320   4.915   0.075  0.2021 -2.6789  0.9484
24595SOL     OW85843   8.559   9.514   6.030 -0.2427  0.4002  0.2976
24595SOL    HW185844   8.565   9.484   5.935  0.5678 -0.1226  0.5117
24595SOL    HW285845   8.581   9.437   6.091 -1.6308  0.4889  0.9365
24596SOL     OW85846   9.123   7.630   2.157 -0.0063 -0.4199 -0.0076
24596SOL    HW185847   9.169   7.649   2.070 -0.0470 -3.0316 -0.6553
24596SOL    HW285848   9.046   7.568   2.141 -0.8588  0.1439  1.7298
24597SOL     OW85849   9.496   7.208   4.586 -0.4660  0.1341  0.2176
24597SOL    HW185850   9.408   7.255   4.577 -0.4747  0.5172  1.9460
24597SOL    HW285851   9.517   7.197   4.684  2.2938  1.7414 -0.1548
24598SOL     OW85852   3.582   1.842   2.160  0.3854 -0.5590 -0.3427
24598SOL    HW185853   3.656   1.871   2.220 -0.1160 -1.8780  0.9634
24598SOL    HW285854   3.509   1.801   2.215 -1.0449  0.1445 -1.6592
24599SOL     OW85855   5.121   5.459   1.906 -0.9994 -0.0808  0.6531
24599SOL    HW185856   5.058   5.411   1.966 -1.9782 -1.2209 -1.2431
24599SOL    HW285857   5.074   5.489   1.823  0.3463  1.3473  0.3636
24600SOL     OW85858   0.974   3.865   0.417  0.2472 -0.2317  0.2586
24600SOL    HW185859   0.989   3.897   0.510 -0.2972  1.0576 -0.0832
24600SOL    HW285860   0.881   3.887   0.388  1.5158  2.7029 -1.8487
24601SOL     OW85861   1.133   0.295   9.058 -0.2017 -0.8403 -1.1318
24601SOL    HW185862   1.224   0.273   9.022 -0.6151  0.6374 -3.1134
24601SOL    HW285863   1.143   0.338   9.148  1.4328  4.0194 -3.4898
24602SOL     OW85864   0.250   9.539   9.569  0.8858  0.0634 -0.9878
24602SOL    HW185865   0.294   9.579   9.489  2.2899  1.1544  0.2947
24602SOL    HW285866   0.257   9.602   9.646  0.5866 -1.4458  0.3053
24603SOL     OW85867   8.161   2.166   5.238  0.1099  0.5286  0.0857
24603SOL    HW185868   8.138   2.070   5.219 -0.2429  0.5991  0.1658
24603SOL    HW285869   8.248   2.188   5.193  0.0985  0.2244 -0.0921
24604SOL     OW85870   9.023   4.534   0.233 -0.0224  0.0155  0.5998
24604SOL    HW185871   9.037   4.576   0.322 -1.1951 -1.0657  1.3183
24604SOL    HW285872   8.933   4.559   0.198 -0.6623 -1.7309  0.9629
24605SOL     OW85873   3.046   4.469   7.261  0.2933  0.1735  0.1278
24605SOL    HW185874   3.008   4.494   7.350  0.4549  2.8055 -0.5019
24605SOL    HW285875   3.131   4.519   7.246  0.3878 -0.4208 -1.4054
24606SOL     OW85876   4.535   7.603   5.964  0.5332 -0.2561  0.1243
24606SOL    HW185877   4.566   7.668   6.033 -1.3827 -0.7207  1.4831
24606SOL    HW285878   4.494   7.524   6.009 -0.5756 -0.6662 -1.5477
24607SOL     OW85879   8.738   1.955   4.706 -0.1964 -0.1254  0.1581
24607SOL    HW185880   8.707   1.874   4.755 -1.6615  0.8075  0.7943
24607SOL    HW285881   8.670   1.980   4.637 -0.1645  1.0588  0.5505
24608SOL     OW85882   4.841   4.544   5.691 -0.1727  0.6561  0.0990
24608SOL    HW185883   4.804   4.629   5.729 -0.7947  1.0540 -1.3340
24608SOL    HW285884   4.822   4.469   5.753 -0.2887  1.4458  1.0310
24609SOL     OW85885   6.617   2.799   1.534 -0.4962  0.3460 -0.5259
24609SOL    HW185886   6.645   2.893   1.551 -0.9099  0.8559 -2.5504
24609SOL    HW285887   6.619   2.780   1.436 -2.2491 -1.1716 -0.3126
24610SOL     OW85888   8.658   4.795   7.555 -0.3813  0.2455 -0.4398
24610SOL    HW185889   8.599   4.733   7.504  0.0005  0.6605 -1.4065
24610SOL    HW285890   8.750   4.757   7.560 -0.3719  0.2944 -0.2220
24611SOL     OW85891   9.429   7.069   4.034  0.0434 -0.5012 -0.0513
24611SOL    HW185892   9.335   7.040   4.017 -0.1922  0.3497 -0.2620
24611SOL    HW285893   9.436   7.109   4.125  0.2619 -0.7971  0.0643
24612SOL     OW85894   2.893   7.627   6.242  0.0343  0.5129 -0.1577
24612SOL    HW185895   2.987   7.594   6.244  0.5209  1.6841 -2.3261
24612SOL    HW285896   2.887   7.708   6.185 -2.1112  1.0960  0.8262
24613SOL     OW85897   0.246   1.338   0.264  0.5985  0.3784 -0.3153
24613SOL    HW185898   0.337   1.311   0.233  0.6637  1.9941 -1.5818
24613SOL    HW285899   0.254   1.393   0.347  0.6525 -0.8543  0.5155
24614SOL     OW85900   1.621   2.812   3.702  0.6795 -0.0579  0.5483
24614SOL    HW185901   1.585   2.819   3.609  2.0787  0.1005  0.0054
24614SOL    HW285902   1.713   2.851   3.705  0.4423  0.4171  2.1175
24615SOL     OW85903   9.000   0.713   6.699  0.2180  0.1404  0.4859
24615SOL    HW185904   8.970   0.631   6.650 -1.2960  1.4547 -0.8300
24615SOL    HW285905   9.093   0.737   6.668 -0.1161  0.0647 -0.6147
24616SOL     OW85906   2.641   4.889   5.438 -0.4065 -0.2780 -0.2534
24616SOL    HW185907   2.708   4.956   5.467 -1.0337 -0.0852  0.7562
24616SOL    HW285908   2.626   4.898   5.339 -1.6537  2.1388  0.1209
24617SOL     OW85909   2.185   7.571   0.391  0.3082  0.2989 -0.3127
24617SOL    HW185910   2.134   7.653   0.417 -1.3478 -1.1053  0.9928
24617SOL    HW285911   2.211   7.521   0.474  1.8858 -0.1454 -1.0751
24618SOL     OW85912   0.791   9.950   4.654  0.2330  0.7756  0.9351
24618SOL    HW185913   0.871   9.916   4.704  0.0135 -1.3705 -0.1421
24618SOL    HW285914   0.709   9.908   4.692 -0.1579  1.0874  0.4249
24619SOL     OW85915   8.963   5.884   3.754  0.1600 -0.4249  0.1240
24619SOL    HW185916   8.930   5.951   3.687  0.6108  1.9966  2.2618
24619SOL    HW285917   9.061   5.896   3.766  0.1480 -1.1300  0.9163
24620SOL     OW85918   5.455   3.693   1.601  0.5673  0.1877 -0.2476
24620SOL    HW185919   5.538   3.731   1.640 -0.7823  1.8828  1.0379
24620SOL    HW285920   5.375   3.725   1.652 -0.8641 -1.8401 -1.0974
24621SOL     OW85921   2.326   8.935   0.977 -0.5640  0.6560 -0.4211
24621SOL    HW185922   2.420   8.924   0.944  0.1337 -0.4121  1.8033
24621SOL    HW285923   2.268   8.866   0.935 -0.3926  1.4482 -1.9601
24622SOL     OW85924   8.639   0.151   4.080 -0.0747  0.3689  0.0106
24622SOL    HW185925   8.558   0.156   4.021  1.0412 -1.2991 -1.7245
24622SOL    HW285926   8.644   0.061   4.123  0.4200  0.7452  0.7479
24623SOL     OW85927   7.921   9.979   4.677  0.1270  0.2150  0.0124
24623SOL    HW185928   7.827   9.969   4.647 -0.1337  0.1691  0.8387
24623SOL    HW285929   7.961   9.888   4.694 -0.0005  0.2724  0.6348
24624SOL     OW85930   2.286   5.935   5.600 -0.5036  0.6388  0.4632
24624SOL    HW185931   2.209   5.936   5.537 -0.9343 -1.7380  0.9031
24624SOL    HW285932   2.325   6.027   5.607 -0.5014  0.9812 -3.1676
24625SOL     OW85933   4.052   6.057   3.860  0.1161 -0.7311 -0.1810
24625SOL    HW185934   4.015   6.005   3.937  1.2306  1.2085  1.7278
24625SOL    HW285935   4.086   6.145   3.893  1.5306 -0.2671 -2.7460
24626SOL     OW85936   5.095   1.976   9.918 -0.1459 -0.5814  0.1392
24626SOL    HW185937   5.044   2.028   9.849  0.7389  0.2759  0.1136
24626SOL    HW285938   5.042   1.896   9.945 -1.2601 -0.0047 -0.2883
24627SOL     OW85939   8.198   5.819   9.806 -0.5331 -0.1261  0.0451
24627SOL    HW185940   8.242   5.839   9.718  0.4348 -0.4614  0.4475
24627SOL    HW285941   8.156   5.728   9.802  0.3140 -0.5210  0.2445
24628SOL     OW85942   9.549   1.009   6.332 -0.7069  0.1749  0.5132
24628SOL    HW185943   9.535   1.053   6.421  1.4064  0.1707  0.8603
24628SOL    HW285944   9.598   0.923   6.344 -0.4263  0.1617 -0.6578
24629SOL     OW85945   1.416   9.884  10.046  0.3445 -0.5228 -0.0495
24629SOL    HW185946   1.513   9.893  10.024  0.2074  2.0878  0.2078
24629SOL    HW285947   1.364   9.866   9.963  0.8480 -0.0031 -0.4833
24630SOL     OW85948   8.944   2.682   4.795  0.2713 -0.0844 -0.6237
24630SOL    HW185949   9.033   2.651   4.828 -0.8233 -0.8023  1.7412
24630SOL    HW285950   8.916   2.627   4.717  1.0974 -1.0176 -0.2670
24631SOL     OW85951   3.343   9.669   5.156 -0.2723  0.1505  0.2364
24631SOL    HW185952   3.338   9.578   5.197 -0.4190  0.1615  0.2421
24631SOL    HW285953   3.439   9.693   5.140 -0.2696 -0.3955 -0.6248
24632SOL     OW85954   2.577   4.180   1.747 -0.0834 -0.0998 -0.0646
24632SOL    HW185955   2.542   4.231   1.668 -0.7396 -0.7668 -0.2052
24632SOL    HW285956   2.510   4.112   1.776 -0.2442  0.7362  1.6317
24633SOL     OW85957   3.569   4.635   4.142 -0.0359  0.1504  0.2241
24633SOL    HW185958   3.497   4.567   4.126  0.3046 -0.1618  0.0277
24633SOL    HW285959   3.539   4.698   4.213 -0.6647  0.2501 -0.1277
24634SOL     OW85960   9.777   2.837   8.379  0.7883  0.0742 -0.4136
24634SOL    HW185961   9.867   2.823   8.337  1.0884  0.4823  0.0849
24634SOL    HW285962   9.745   2.750   8.419  1.2871  0.0908  0.0361
24635SOL     OW85963   2.727   8.368   0.701 -0.0753 -0.0605 -0.0866
24635SOL    HW185964   2.654   8.300   0.701  2.0825 -2.4404  1.4900
24635SOL    HW285965   2.804   8.336   0.645  0.7522  1.3318  0.2157
24636SOL     OW85966   0.379   9.546   3.093  0.0032  0.0017 -0.1058
24636SOL    HW185967   0.399   9.644   3.086 -1.0259  0.1302 -1.5047
24636SOL    HW285968   0.394   9.503   3.004 -1.4281 -0.7472  0.0022
24637SOL     OW85969   9.865   0.892   6.976 -0.0766  0.1849 -0.1846
24637SOL    HW185970   9.783   0.876   7.031 -1.5806  1.7928 -1.8866
24637SOL    HW285971   9.841   0.894   6.879  2.5027 -2.3372 -0.9498
24638SOL     OW85972   1.933   1.346   8.918  0.4303 -0.0771  0.2371
24638SOL    HW185973   1.949   1.266   8.861  0.7303 -0.3483  0.6982
24638SOL    HW285974   1.839   1.344   8.953  0.5576 -0.4321  0.5614
24639SOL     OW85975   2.335   2.721   7.373  0.1430 -0.4958 -0.4634
24639SOL    HW185976   2.315   2.630   7.407 -0.4740  0.0342  0.6248
24639SOL    HW285977   2.269   2.786   7.410  1.3180  0.5941 -0.2057
24640SOL     OW85978   0.239   2.512   8.181  0.4082  0.1197  0.1693
24640SOL    HW185979   0.146   2.474   8.179  0.7060 -0.5548 -1.0811
24640SOL    HW285980   0.287   2.489   8.097  2.5374 -1.6182  1.7667
24641SOL     OW85981   0.110   1.148   5.722 -0.1725  0.0613  0.4569
24641SOL    HW185982   0.077   1.198   5.802 -1.6297 -1.2709  0.7148
24641SOL    HW285983   0.093   1.202   5.639 -1.2636  0.2287  0.7782
24642SOL     OW85984   3.131   5.272   6.365  0.4241 -0.6074  0.0356
24642SOL    HW185985   3.168   5.363   6.343 -1.4019  0.1664  0.0811
24642SOL    HW285986   3.045   5.258   6.317  0.1298 -1.8855  0.8938
24643SOL     OW85987   1.541   4.290   1.085 -0.2031 -0.2531  0.3980
24643SOL    HW185988   1.505   4.359   1.148  2.0760  1.1331  0.2097
24643SOL    HW285989   1.630   4.258   1.117 -1.1965 -3.1142  0.4552
24644SOL     OW85990   6.749   1.846   2.119 -0.2329 -0.0525  0.0645
24644SOL    HW185991   6.759   1.848   2.219  1.7967 -0.3475 -0.1150
24644SOL    HW285992   6.838   1.830   2.077 -1.6201 -4.0255 -1.6412
24645SOL     OW85993   2.195   3.585   0.608  0.2598 -0.5952 -0.4010
24645SOL    HW185994   2.117   3.620   0.660  0.9999  0.7385 -0.1671
24645SOL    HW285995   2.212   3.490   0.633  0.5308 -0.0229  1.7217
24646SOL     OW85996   8.972   5.408   1.012  0.5583 -0.3907 -0.2326
24646SOL    HW185997   8.911   5.406   0.932  0.5079  0.3810 -0.2231
24646SOL    HW285998   9.028   5.326   1.013 -1.2750 -1.6597  0.3832
24647SOL     OW85999   3.712   2.098   4.140 -0.7954 -0.0281  0.1449
24647SOL    HW186000   3.665   2.113   4.054  0.1471 -2.3891 -0.8109
24647SOL    HW286001   3.794   2.043   4.125 -0.3737 -0.1106  2.4719
24648SOL     OW86002   4.343   4.705   6.559  0.4278  0.3043 -0.9277
24648SOL    HW186003   4.245   4.717   6.547  0.4131 -0.5044 -1.7030
24648SOL    HW286004   4.369   4.732   6.651 -0.0493  3.2519 -1.6131
24649SOL     OW86005   2.201   1.696   8.198 -0.6655 -0.0959  0.1374
24649SOL    HW186006   2.102   1.703   8.185 -0.5032  1.1960 -0.4519
24649SOL    HW286007   2.243   1.663   8.113 -0.6711 -1.4872  0.6613
24650SOL     OW86008   3.891   9.362   4.755 -0.1284 -0.0624  0.2490
24650SOL    HW186009   3.970   9.396   4.703  0.0539 -1.3314 -0.3179
24650SOL    HW286010   3.880   9.264   4.739 -1.1699 -0.1110  1.1895
24651SOL     OW86011   2.029   5.713   4.672 -0.1765 -0.2085 -0.0606
24651SOL    HW186012   2.099   5.784   4.680 -0.6801  0.3541 -0.5790
24651SOL    HW286013   1.979   5.704   4.758 -1.1834  1.2007 -0.4776
24652SOL     OW86014   5.127   3.484   9.929  0.6395  0.4065  0.1688
24652SOL    HW186015   5.189   3.425   9.981 -0.1015  1.3070  2.1198
24652SOL    HW286016   5.065   3.530   9.992 -0.8329  0.8974 -1.6092
24653SOL     OW86017   9.789   0.270   7.736  0.2249 -0.5119 -0.6497
24653SOL    HW186018   9.758   0.233   7.823 -0.8949  0.0384 -0.7947
24653SOL    HW286019   9.889   0.271   7.733  0.3410 -4.5816 -1.1079
24654SOL     OW86020   7.231   1.286   6.359  0.5193 -0.0576 -0.0171
24654SOL    HW186021   7.159   1.225   6.328  0.7344 -0.2349 -0.1721
24654SOL    HW286022   7.224   1.373   6.311  1.6961 -0.8162 -1.6188
24655SOL     OW86023   3.671   2.305   9.246  0.0981  0.4990  0.3274
24655SOL    HW186024   3.705   2.215   9.275  0.5247 -0.0364 -1.7662
24655SOL    HW286025   3.710   2.375   9.306 -0.0176 -0.6574  1.8132
24656SOL     OW86026   2.629   1.359   8.585 -0.4785  0.2267  0.2908
24656SOL    HW186027   2.567   1.302   8.531 -0.6282  0.9807 -0.3372
24656SOL    HW286028   2.576   1.415   8.649 -0.4252  0.6840 -0.0667
24657SOL     OW86029   7.880   8.302   6.886  0.6910  0.0308  0.2516
24657SOL    HW186030   7.963   8.342   6.924 -0.0481  2.1952 -0.3781
24657SOL    HW286031   7.901   8.212   6.847  3.1446  1.4310 -1.7492
24658SOL     OW86032   9.336   4.812   7.532 -0.0482  0.5711  0.3355
24658SOL    HW186033   9.240   4.838   7.545  0.1031  0.0446  2.7243
24658SOL    HW286034   9.390   4.842   7.610  1.5985  0.1447 -0.6135
24659SOL     OW86035   6.132   2.076   1.182  0.0606 -0.2677 -0.7330
24659SOL    HW186036   6.185   1.996   1.154  0.9857  0.1264 -0.1141
24659SOL    HW286037   6.173   2.159   1.145 -0.2809  0.0175 -0.4829
24660SOL     OW86038   1.060   1.576   0.286  0.0205  0.2248  0.4414
24660SOL    HW186039   0.991   1.639   0.321 -0.2895  1.0859 -1.6352
24660SOL    HW286040   1.077   1.504   0.353 -2.5196  0.2802  1.1737
24661SOL     OW86041   6.797   2.908   9.100 -0.4664 -0.1822 -0.0864
24661SOL    HW186042   6.788   3.007   9.089  0.3736  0.0201  0.9955
24661SOL    HW286043   6.731   2.876   9.168 -0.9936 -0.4280 -0.7070
24662SOL     OW86044   7.864   5.262   9.858  0.7301 -0.1949  0.1117
24662SOL    HW186045   7.925   5.208   9.801  0.1679  0.7517 -1.4229
24662SOL    HW286046   7.869   5.358   9.830 -1.2645 -0.0681  0.1209
24663SOL     OW86047   9.694   3.565   5.860 -0.4536 -0.2763  0.0186
24663SOL    HW186048   9.727   3.499   5.927 -0.2552 -0.0675  0.1281
24663SOL    HW286049   9.690   3.522   5.770 -0.0942 -0.3710  0.0465
24664SOL     OW86050   0.410   4.813   8.326  0.3867 -0.1833  0.6358
24664SOL    HW186051   0.356   4.858   8.397 -0.6075 -1.6209  0.8408
24664SOL    HW286052   0.348   4.778   8.255  1.1583 -0.8228  0.2649
24665SOL     OW86053   3.266   7.949   8.144  0.0424 -0.0698  0.2277
24665SOL    HW186054   3.267   8.048   8.161 -2.0311  0.2547 -1.4344
24665SOL    HW286055   3.187   7.908   8.190  1.1509 -1.0732  1.3080
24666SOL     OW86056   0.869   1.981   2.589 -0.3641 -0.1981 -0.3305
24666SOL    HW186057   0.798   2.051   2.595 -2.6378 -2.4076 -1.0352
24666SOL    HW286058   0.890   1.962   2.493  1.3796  0.5953 -0.1352
24667SOL     OW86059   1.444   0.414   7.666 -0.1118  0.2801 -0.0328
24667SOL    HW186060   1.486   0.387   7.580  0.9260 -0.2324  0.6244
24667SOL    HW286061   1.379   0.488   7.650 -0.2025 -0.0702 -1.3022
24668SOL     OW86062   6.028   7.333   4.325 -0.2609 -0.5321  0.4532
24668SOL    HW186063   5.996   7.240   4.306 -0.5868 -0.0670 -1.3455
24668SOL    HW286064   6.107   7.354   4.267  0.5503 -0.0869  1.6935
24669SOL     OW86065   8.550   7.747   2.228 -0.2690 -0.2307  0.7225
24669SOL    HW186066   8.500   7.813   2.172 -1.5970 -0.4464  1.6117
24669SOL    HW286067   8.647   7.749   2.205 -0.6017  0.6403 -0.6145
24670SOL     OW86068   0.623   7.250   3.187 -0.0671 -0.2849  0.3431
24670SOL    HW186069   0.692   7.289   3.247 -0.4349 -1.2145  1.3672
24670SOL    HW286070   0.551   7.318   3.171  0.0021 -0.0585  0.9875
24671SOL     OW86071   0.341   6.643   9.288  0.4839  0.1826  0.2955
24671SOL    HW186072   0.353   6.726   9.341  3.9245 -0.2638  0.3332
24671SOL    HW286073   0.339   6.665   9.191 -1.1188  0.5202  0.3868
24672SOL     OW86074   7.249   4.729   2.239 -0.6093 -0.2285 -0.3775
24672SOL    HW186075   7.232   4.766   2.147  0.3112  0.1767 -0.3870
24672SOL    HW286076   7.309   4.650   2.232 -0.0630  0.1592 -0.0721
24673SOL     OW86077   3.172   3.210   0.501 -0.1843 -0.0668 -0.2530
24673SOL    HW186078   3.083   3.167   0.490 -0.3934  0.4020 -0.4103
24673SOL    HW286079   3.165   3.308   0.480  0.2163  0.1079  0.4205
24674SOL     OW86080   3.563   2.290   3.682 -0.0001  0.0256 -0.2213
24674SOL    HW186081   3.477   2.267   3.636 -0.2557  1.5583 -0.5363
24674SOL    HW286082   3.584   2.387   3.668  1.5923 -0.2421  0.1727
24675SOL     OW86083   7.666   1.501   4.299 -0.0511  0.0492 -0.5343
24675SOL    HW186084   7.732   1.454   4.240  1.7037  1.4953  0.2027
24675SOL    HW286085   7.700   1.594   4.318 -1.5006  0.2332  1.2405
24676SOL     OW86086   9.931   0.762   6.098 -0.3724  0.4012  0.0892
24676SOL    HW186087   9.978   0.851   6.099  1.2876 -0.4521  1.1351
24676SOL    HW286088   9.978   0.701   6.034 -1.2847  0.1637 -0.3559
24677SOL     OW86089   3.396   1.727   6.166 -0.2546 -0.4214  0.2623
24677SOL    HW186090   3.364   1.639   6.201  0.5923 -0.3027  1.3371
24677SOL    HW286091   3.394   1.795   6.239  0.9679 -0.0354 -0.0589
24678SOL     OW86092   5.951   8.416   3.360 -0.0877 -0.1952 -0.1599
24678SOL    HW186093   6.003   8.343   3.317  1.4612  0.2304  0.9225
24678SOL    HW286094   5.912   8.384   3.446  0.0623  0.0599  0.0057
24679SOL     OW86095   1.983   3.789   7.982 -0.4765  0.0238  0.2954
24679SOL    HW186096   1.935   3.877   7.982 -0.6648 -0.0795  1.4751
24679SOL    HW286097   2.060   3.793   8.045  1.5224  0.4104 -2.0686
24680SOL     OW86098   7.134   0.505   1.061 -0.1628  0.1126 -0.1026
24680SOL    HW186099   7.114   0.516   1.159 -1.9471 -2.5759 -0.1176
24680SOL    HW286100   7.220   0.456   1.050  0.1797  0.6580  0.0847
24681SOL     OW86101   1.163   5.276   5.242 -0.2793 -0.1772  0.2146
24681SOL    HW186102   1.225   5.215   5.292  0.7644  0.3306 -0.4383
24681SOL    HW286103   1.105   5.221   5.181  1.3797 -0.4629 -1.1542
24682SOL     OW86104   3.878   2.989   1.656 -0.4466 -0.4328  0.6354
24682SOL    HW186105   3.972   2.954   1.656 -0.2758 -0.0073 -0.6344
24682SOL    HW286106   3.831   2.958   1.738  0.9268 -0.3317  1.4785
24683SOL     OW86107   1.007   0.018   8.576  0.2065  0.1879  0.1324
24683SOL    HW186108   1.047  -0.009   8.665 -2.2514 -1.5680  0.7645
24683SOL    HW286109   0.908   0.004   8.579 -0.1892  2.2709 -2.1726
24684SOL     OW86110   8.449   8.278   4.453 -0.1807 -0.9174 -0.2368
24684SOL    HW186111   8.367   8.271   4.396  0.4605  0.3210 -1.3605
24684SOL    HW286112   8.423   8.292   4.548 -1.2739 -1.4357 -0.4495
24685SOL     OW86113   4.930   8.429   2.398 -0.2654 -0.1630 -0.1817
24685SOL    HW186114   4.944   8.336   2.431  0.6873 -0.4954 -1.4706
24685SOL    HW286115   4.979   8.441   2.311  3.4909  2.9053  2.2179
24686SOL     OW86116   8.735   1.969  10.030  0.6678  0.5802  0.5332
24686SOL    HW186117   8.646   1.936   9.997  2.1538 -1.5609 -1.4588
24686SOL    HW286118   8.768   2.041   9.970  1.6276 -0.7214 -0.5526
24687SOL     OW86119   9.534   5.469   5.775 -0.8274  0.4996  0.4298
24687SOL    HW186120   9.449   5.475   5.722 -1.3427 -0.7426  1.0838
24687SOL    HW286121   9.519   5.410   5.855  0.6007  0.4241  0.6566
24688SOL     OW86122   9.923   4.925   7.755 -0.7218  0.1373 -0.0895
24688SOL    HW186123   9.976   4.857   7.806 -0.1411  0.4359 -0.2930
24688SOL    HW286124   9.850   4.961   7.814 -2.0506 -1.8136 -0.4917
24689SOL     OW86125   1.185   7.732   9.622 -0.1388 -0.0602  0.0349
24689SOL    HW186126   1.153   7.714   9.529 -2.1858  1.3953  0.4173
24689SOL    HW286127   1.270   7.785   9.619  1.0171 -1.9312 -0.9997
24690SOL     OW86128   9.058   1.855   4.408  0.0971 -0.3871 -0.0278
24690SOL    HW186129   9.098   1.766   4.388  0.0220 -0.0519 -1.7500
24690SOL    HW286130   9.115   1.927   4.367 -1.1159  0.2083 -0.7071
24691SOL     OW86131   1.468   9.281   1.677  0.4024  0.3367 -0.3168
24691SOL    HW186132   1.376   9.250   1.701  1.0657  0.7966  3.1064
24691SOL    HW286133   1.470   9.309   1.581 -1.6355 -4.8349 -2.0324
24692SOL     OW86134   0.551   0.908   1.630 -0.0883  1.1003 -0.1704
24692SOL    HW186135   0.627   0.892   1.568 -0.0874  1.1665 -0.1863
24692SOL    HW286136   0.483   0.966   1.586 -0.6984  0.0969 -0.5884
24693SOL     OW86137   0.327   6.335   9.161  0.1052  0.7311  0.2961
24693SOL    HW186138   0.413   6.303   9.201 -0.1817 -0.7420 -0.2586
24693SOL    HW286139   0.290   6.410   9.217  0.8121  0.1511  1.5599
24694SOL     OW86140   1.422   9.485   7.887 -0.2569  0.3720 -0.3590
24694SOL    HW186141   1.476   9.541   7.825 -0.9283 -0.6138 -1.8754
24694SOL    HW286142   1.364   9.424   7.834  0.2616 -1.5721  1.2409
24695SOL     OW86143   6.978   3.182   4.001  0.2065 -0.0167 -0.5580
24695SOL    HW186144   6.926   3.097   4.006 -0.0169  0.0882 -1.1368
24695SOL    HW286145   6.979   3.225   4.091 -0.1250 -0.3653 -0.3862
24696SOL     OW86146   1.970   2.678   6.164 -0.0245  0.4425 -0.0736
24696SOL    HW186147   2.061   2.713   6.185  0.0847 -0.1751  0.5081
24696SOL    HW286148   1.901   2.741   6.201  0.1247  2.2640 -2.7476
24697SOL     OW86149   3.511   0.770   7.793  0.3086 -0.3039  0.2922
24697SOL    HW186150   3.483   0.783   7.888  0.1038 -0.8071  0.3001
24697SOL    HW286151   3.460   0.694   7.753 -0.2940  0.5161 -0.5111
24698SOL     OW86152   1.219   7.887   7.899  0.5565 -0.2151  0.0708
24698SOL    HW186153   1.233   7.820   7.972  0.2447 -0.8586 -0.4532
24698SOL    HW286154   1.303   7.896   7.846  0.9355  0.6086  0.7929
24699SOL     OW86155   1.851   9.617   7.204 -0.3331  0.1833  0.1101
24699SOL    HW186156   1.937   9.652   7.168  0.4120  0.6650  2.2945
24699SOL    HW286157   1.777   9.638   7.139  1.1807 -0.3871 -1.8474
24700SOL     OW86158   9.526   7.398   3.187 -0.4314 -0.2718  0.2092
24700SOL    HW186159   9.461   7.350   3.128 -1.0129 -1.6964  1.9563
24700SOL    HW286160   9.483   7.482   3.221 -1.2278 -0.9716  0.9832
24701SOL     OW86161   6.691   5.486   2.502  0.9926  0.7048  0.1113
24701SOL    HW186162   6.668   5.583   2.496  2.1822  0.9723 -0.2700
24701SOL    HW286163   6.703   5.449   2.410 -0.0700  0.0394  0.2316
24702SOL     OW86164   0.887   2.043   1.913 -0.8514 -0.5481  0.1248
24702SOL    HW186165   0.856   1.989   1.835  0.0207 -1.7985  0.6309
24702SOL    HW286166   0.952   2.112   1.882 -1.6632 -0.0527 -0.4721
24703SOL     OW86167   6.106   8.111   3.501 -0.5452  0.1539  0.9177
24703SOL    HW186168   6.016   8.127   3.542 -0.9467  0.7285 -0.1949
24703SOL    HW286169   6.174   8.105   3.574 -1.1296  2.0320  1.6507
24704SOL     OW86170   3.381   0.089   9.126 -0.2181 -0.0679  0.2527
24704SOL    HW186171   3.294   0.137   9.116 -0.5889 -0.9628 -1.0499
24704SOL    HW286172   3.445   0.123   9.056  0.2831  0.1611  0.8187
24705SOL     OW86173   0.877   4.093   1.816  0.6377 -0.0328 -0.1894
24705SOL    HW186174   0.866   4.124   1.721  0.8846 -0.4523 -0.3555
24705SOL    HW286175   0.974   4.096   1.840  0.6993 -1.0195 -0.3188
24706SOL     OW86176   3.256   7.041   5.546  0.2536  0.0956 -0.0481
24706SOL    HW186177   3.308   7.124   5.563  0.0896  0.3013 -0.5560
24706SOL    HW286178   3.273   7.008   5.453 -1.4409  0.8315 -0.6516
24707SOL     OW86179   5.259   4.987   7.506 -0.6085 -0.7094 -0.3626
24707SOL    HW186180   5.186   4.932   7.546 -0.5302 -2.1652 -2.1490
24707SOL    HW286181   5.237   5.007   7.411  2.3665 -3.2313 -1.6800
24708SOL     OW86182   2.175   5.580   5.613 -0.7173 -0.1452  0.3472
24708SOL    HW186183   2.094   5.585   5.554 -1.0819 -2.4137  0.6082
24708SOL    HW286184   2.152   5.617   5.703 -0.7823  1.3584 -0.2792
24709SOL     OW86185   3.119   0.086   6.261 -1.1789  0.3789  0.0068
24709SOL    HW186186   3.177   0.013   6.223 -1.7527  0.1356 -0.4042
24709SOL    HW286187   3.177   0.153   6.308 -0.7396 -0.8565  1.2635
24710SOL     OW86188   3.657   2.720   7.516  0.5678  0.3845 -0.6529
24710SOL    HW186189   3.606   2.803   7.540  0.6571  0.3954 -0.4979
24710SOL    HW286190   3.755   2.742   7.508  0.9792 -0.2369  2.0987
24711SOL     OW86191   1.456   4.631   3.578  0.1903  0.3019  0.9891
24711SOL    HW186192   1.368   4.606   3.619  1.1078  1.1108  3.5548
24711SOL    HW286193   1.525   4.564   3.605  0.5660  0.1839 -0.2447
24712SOL     OW86194   4.673   5.888   2.172 -0.2455  0.3899  0.0910
24712SOL    HW186195   4.625   5.802   2.152  0.1601  0.1470  0.1597
24712SOL    HW286196   4.689   5.896   2.270  1.0446 -0.1668 -0.0649
24713SOL     OW86197   1.549   3.022   7.157  0.5072 -0.2009  0.2352
24713SOL    HW186198   1.498   3.000   7.241 -1.6825  1.2056 -0.6688
24713SOL    HW286199   1.612   2.948   7.136 -0.8619 -1.8252  1.6665
24714SOL     OW86200   9.052   6.194   6.802  0.4448 -0.3974  0.0093
24714SOL    HW186201   9.089   6.224   6.891  0.0683  1.7173 -0.5043
24714SOL    HW286202   9.095   6.108   6.775  2.1373  0.0285  1.2483
24715SOL     OW86203   4.594   0.940   7.835  0.0425 -0.3930  0.1283
24715SOL    HW186204   4.550   0.897   7.913  0.5154 -1.4342 -0.1734
24715SOL    HW286205   4.692   0.920   7.837  0.4424  1.4975  0.5314
24716SOL     OW86206   3.187   1.491   5.308 -0.2166  0.3165 -0.3563
24716SOL    HW186207   3.167   1.519   5.214 -1.5369  0.9802  0.1020
24716SOL    HW286208   3.223   1.569   5.359  0.6274 -0.0785 -0.3367
24717SOL     OW86209   5.906   0.029   1.544 -0.0174 -0.2315 -0.0279
24717SOL    HW186210   6.001   0.062   1.538  0.0619 -0.3357  0.5893
24717SOL    HW286211   5.845   0.094   1.500  0.3666 -0.2656 -0.6124
24718SOL     OW86212   2.079   4.620   4.262  0.2245  0.6228  0.3027
24718SOL    HW186213   2.121   4.705   4.229  2.7180 -0.4785  0.5276
24718SOL    HW286214   2.049   4.632   4.356 -1.1407  1.8069 -0.2599
24719SOL     OW86215   6.329   3.559   2.098 -0.5106  0.0084 -0.1415
24719SOL    HW186216   6.286   3.477   2.136  1.2852 -0.3044  1.2779
24719SOL    HW286217   6.421   3.537   2.065  0.5805  1.7288  1.6121
24720SOL     OW86218   0.648   7.510   6.253 -0.1227  0.0600  0.1616
24720SOL    HW186219   0.676   7.599   6.290 -6.2572  2.9008 -1.3860
24720SOL    HW286220   0.633   7.446   6.329 -0.5598  1.9657  1.7376
24721SOL     OW86221   6.258   7.515   5.509 -0.3440  0.4903  0.1565
24721SOL    HW186222   6.252   7.426   5.554 -1.3613  0.8245  0.7101
24721SOL    HW286223   6.195   7.517   5.432 -0.3299  0.7348  0.1516
24722SOL     OW86224   4.247   1.671   6.041 -0.5965 -0.2195  0.6051
24722SOL    HW186225   4.290   1.624   6.118 -0.2098 -0.0376  0.4961
24722SOL    HW286226   4.148   1.674   6.056 -0.5862 -0.7439  0.7916
24723SOL     OW86227   7.545   6.099   6.733 -0.1437 -0.2156 -0.6720
24723SOL    HW186228   7.587   6.101   6.823  0.0618  1.4001 -0.7846
24723SOL    HW286229   7.460   6.048   6.737  0.3492 -0.9834  0.2164
24724SOL     OW86230   3.054   7.000   8.765  0.0472  0.0547 -0.0201
24724SOL    HW186231   3.047   6.914   8.715  0.2095 -0.1385  0.2884
24724SOL    HW286232   3.032   7.076   8.703 -1.4227 -0.2968  0.0332
24725SOL     OW86233   8.310   0.154   0.697  0.0618  0.3261 -0.2078
24725SOL    HW186234   8.363   0.208   0.762 -0.0494  0.8756 -0.5770
24725SOL    HW286235   8.366   0.078   0.664 -0.3000 -0.7161  1.4964
24726SOL     OW86236   9.027   2.012   8.669  0.0088 -0.1259  0.8615
24726SOL    HW186237   9.087   2.028   8.591  0.2908  0.0573  1.1164
24726SOL    HW286238   9.039   1.918   8.703 -0.2671 -0.2735  0.5548
24727SOL     OW86239   2.708   2.208   3.889 -0.8372 -0.0589  0.0415
24727SOL    HW186240   2.717   2.306   3.908 -0.3587  0.0379 -0.7041
24727SOL    HW286241   2.795   2.162   3.908 -1.2221 -0.4445  0.9600
24728SOL     OW86242   3.064   7.614   0.738  0.2002 -0.0283 -0.0748
24728SOL    HW186243   2.972   7.636   0.704 -0.3320 -0.8550  0.7988
24728SOL    HW286244   3.132   7.668   0.688 -0.6551 -0.3604 -1.6462
24729SOL     OW86245   9.155   3.342   9.585  0.2438  0.5054  0.6697
24729SOL    HW186246   9.192   3.277   9.651  1.7064  0.4634 -0.1871
24729SOL    HW286247   9.069   3.306   9.548  0.3781 -0.3329  1.1659
24730SOL     OW86248   6.946   6.843   6.963 -0.2230  0.3707  0.0002
24730SOL    HW186249   6.951   6.752   6.922 -0.6293  0.0213  0.7038
24730SOL    HW286250   7.038   6.876   6.983 -0.0410  0.4240 -0.9225
24731SOL     OW86251   6.402   3.080   8.722  0.3806  0.4359  0.6701
24731SOL    HW186252   6.353   3.057   8.638  0.0720  1.6263  0.5204
24731SOL    HW286253   6.478   3.141   8.700  0.5189  0.4571  1.2163
24732SOL     OW86254   0.818   4.758   5.134  0.8073 -0.0421 -0.3891
24732SOL    HW186255   0.755   4.791   5.064  2.1706  0.7957 -1.2393
24732SOL    HW286256   0.801   4.661   5.152 -0.9532  0.2679 -0.3444
24733SOL     OW86257   0.187   6.127   7.710 -0.3085  0.1301 -0.0971
24733SOL    HW186258   0.206   6.182   7.629 -1.7222 -1.0433 -1.2430
24733SOL    HW286259   0.252   6.051   7.715  0.4715  0.8208  0.4857
24734SOL     OW86260   8.304   7.875   5.583 -0.7935 -0.0620 -0.1717
24734SOL    HW186261   8.373   7.890   5.513  0.3292 -1.1918  0.6514
24734SOL    HW286262   8.218   7.847   5.541 -0.2641 -0.2584 -1.1235
24735SOL     OW86263   1.453   4.789   6.275 -0.4224  0.2800  0.0026
24735SOL    HW186264   1.521   4.859   6.297 -2.5276  2.4362 -0.1419
24735SOL    HW286265   1.485   4.736   6.196  1.4668  0.6729  0.4735
24736SOL     OW86266   8.876   7.132   6.889 -0.1150  0.7140  0.1812
24736SOL    HW186267   8.919   7.075   6.818  0.2126  1.2696 -0.0688
24736SOL    HW286268   8.921   7.116   6.976 -0.8852 -0.3943  0.3907
24737SOL     OW86269   7.018   0.820   8.367  0.1895  0.1262 -0.3452
24737SOL    HW186270   6.960   0.755   8.417 -0.3138 -0.1489 -1.2704
24737SOL    HW286271   7.030   0.903   8.422  1.2220 -0.9275  1.0392
24738SOL     OW86272   8.036   7.116   8.497  1.1025 -0.4059 -0.1505
24738SOL    HW186273   8.055   7.207   8.534  0.5560 -0.2578 -0.2212
24738SOL    HW286274   8.050   7.047   8.568 -3.0772  0.1511  1.3510
24739SOL     OW86275   0.806   2.287   6.983  0.2035  0.0651 -0.0362
24739SOL    HW186276   0.847   2.353   6.920  1.4941  1.2204  1.9649
24739SOL    HW286277   0.877   2.224   7.016 -0.1630  0.3538  1.3289
24740SOL     OW86278   9.188   9.276   4.920 -0.0502 -0.4522 -0.0290
24740SOL    HW186279   9.256   9.275   4.993 -0.6284 -1.0428  0.5079
24740SOL    HW286280   9.134   9.360   4.925  0.3292 -0.1960 -0.1769
24741SOL     OW86281   7.989   6.065   1.525 -0.5386 -0.2683 -0.2755
24741SOL    HW186282   8.010   5.996   1.594  1.2246 -0.9929 -1.5309
24741SOL    HW286283   7.948   6.022   1.445  0.8529  0.1024 -1.1905
24742SOL     OW86284   7.733   1.774   3.387  0.3921 -0.7918 -0.1850
24742SOL    HW186285   7.657   1.782   3.324 -0.0329  1.6597  0.6023
24742SOL    HW286286   7.698   1.757   3.480  0.8796 -1.1275 -0.0573
24743SOL     OW86287   7.753   0.568   5.072 -0.1188  0.4623  0.1727
24743SOL    HW186288   7.777   0.483   5.118  0.4864  0.0657 -0.8520
24743SOL    HW286289   7.712   0.548   4.983  1.6048  1.2365 -0.8255
24744SOL     OW86290   8.559   9.236   9.496 -0.1352  1.0457 -0.2633
24744SOL    HW186291   8.646   9.285   9.505 -1.1895  2.7451  1.0761
24744SOL    HW286292   8.485   9.302   9.485 -1.0407 -0.4487 -3.7846
24745SOL     OW86293   4.668   7.995   0.652  0.3691  0.0158 -0.1458
24745SOL    HW186294   4.725   8.076   0.637  1.4745 -0.7852 -0.3767
24745SOL    HW286295   4.605   7.984   0.575 -0.3788  1.1283  0.2940
24746SOL     OW86296   8.023   4.928   3.329  0.8979 -0.2233 -0.8112
24746SOL    HW186297   8.079   5.011   3.337  0.6177 -0.0284 -0.8627
24746SOL    HW286298   8.083   4.848   3.329  1.1027 -0.0709  0.1583
24747SOL     OW86299   9.827   5.693   8.772 -0.0181  0.0951  0.5369
24747SOL    HW186300   9.761   5.678   8.845  0.2900  0.4715  0.8974
24747SOL    HW286301   9.792   5.763   8.710  0.4029  0.8994  1.1912
24748SOL     OW86302   9.783   7.849   9.730  0.3736 -0.3076  0.1886
24748SOL    HW186303   9.710   7.873   9.666  1.8607  0.3783 -1.2792
24748SOL    HW286304   9.748   7.784   9.797 -1.0729 -1.4648 -1.6467
24749SOL     OW86305   5.578   8.418   5.990 -0.1650  0.0320 -0.1313
24749SOL    HW186306   5.616   8.361   5.917 -0.8136 -1.3815  0.6129
24749SOL    HW286307   5.645   8.425   6.064  1.1619  2.8359 -1.5235
24750SOL     OW86308   7.670   5.842   5.524 -0.2461 -0.0681 -0.2728
24750SOL    HW186309   7.690   5.752   5.562  0.2409  0.7581  1.4678
24750SOL    HW286310   7.575   5.867   5.546  0.0916  0.4869  0.6029
24751SOL     OW86311   0.197   9.813   6.981  0.3528 -0.0871 -0.0768
24751SOL    HW186312   0.284   9.847   7.016  0.4291 -1.6832  1.3224
24751SOL    HW286313   0.214   9.751   6.904  0.4110  0.1000 -0.2158
24752SOL     OW86314   4.294   5.498   2.598  0.2794  0.2154 -0.0199
24752SOL    HW186315   4.325   5.546   2.680  0.3960  1.6837 -0.9073
24752SOL    HW286316   4.201   5.528   2.575 -0.9559 -2.4234  1.2824
24753SOL     OW86317   6.677   3.635   1.168 -0.2075  0.5034  0.0923
24753SOL    HW186318   6.580   3.616   1.151 -0.6342  1.6249  1.2046
24753SOL    HW286319   6.698   3.614   1.263  0.8782 -0.6507 -0.3984
24754SOL     OW86320   1.209   4.941   4.125 -1.0050 -0.1793  0.5422
24754SOL    HW186321   1.274   4.984   4.187 -0.8011  2.1114 -1.1915
24754SOL    HW286322   1.156   4.871   4.174  0.5494  0.1503  2.7378
24755SOL     OW86323   2.547   2.517   3.206  0.1206 -0.2312 -0.3121
24755SOL    HW186324   2.587   2.430   3.235 -0.2853 -0.8043 -1.4476
24755SOL    HW286325   2.503   2.561   3.285  0.1469 -1.1503  0.2232
24756SOL     OW86326   3.613   8.882   4.867  0.3370  0.0030 -0.3107
24756SOL    HW186327   3.708   8.899   4.892  0.1538  0.4851  0.0432
24756SOL    HW286328   3.569   8.967   4.840 -0.0137 -0.2092 -0.4144
24757SOL     OW86329   5.762   1.393   7.402  0.5268  0.4687 -0.2085
24757SOL    HW186330   5.795   1.301   7.377 -0.2995  0.1259 -0.0590
24757SOL    HW286331   5.777   1.455   7.325 -2.2245 -0.6440 -1.7382
24758SOL     OW86332   4.329   0.273   3.009 -0.1256 -0.2129  0.1079
24758SOL    HW186333   4.367   0.310   2.924  1.7409 -1.6535  0.2830
24758SOL    HW286334   4.375   0.317   3.087  0.3930 -1.1488  0.3345
24759SOL     OW86335   3.667   0.294   9.397 -0.4828 -0.2731  0.8884
24759SOL    HW186336   3.625   0.360   9.459 -0.1926  0.3175  0.4591
24759SOL    HW286337   3.627   0.204   9.413 -1.9281  0.2831  0.4894
24760SOL     OW86338   7.868   0.729   0.005 -0.0205  0.0782 -0.1152
24760SOL    HW186339   7.791   0.665   0.006 -1.0208  1.2556 -0.4047
24760SOL    HW286340   7.938   0.696  -0.058 -1.5191  0.3836 -1.9847
24761SOL     OW86341   7.856   5.994   6.748  0.1527  0.0538  0.0454
24761SOL    HW186342   7.884   6.051   6.671 -1.1357  0.0595 -0.4225
24761SOL    HW286343   7.829   6.052   6.825  0.9016  0.0504  0.3165
24762SOL     OW86344   2.554   3.665   8.555  0.0742 -0.2612 -0.0907
24762SOL    HW186345   2.490   3.738   8.533  0.5239  0.3029  0.4483
24762SOL    HW286346   2.648   3.699   8.545  0.3150  0.3839  3.6949
24763SOL     OW86347   1.843   2.641   5.768 -0.2133  0.5175 -0.2892
24763SOL    HW186348   1.810   2.604   5.681 -0.5404  0.4126 -0.1253
24763SOL    HW286349   1.805   2.732   5.783 -1.8527 -0.3050  0.7141
24764SOL     OW86350   8.833   7.529   4.939 -0.4810 -0.5448 -0.1489
24764SOL    HW186351   8.893   7.567   4.868 -0.5795 -0.0010  0.0554
24764SOL    HW286352   8.827   7.430   4.928  0.7035 -0.6401  0.0188
24765SOL     OW86353   8.595   0.867   8.032 -0.4655  0.0089 -0.1349
24765SOL    HW186354   8.664   0.839   7.965  0.6232 -1.5080  1.5895
24765SOL    HW286355   8.591   0.800   8.106 -0.4895  2.5062  2.1829
24766SOL     OW86356   6.067   6.278   9.689  0.3586  0.5435 -0.5072
24766SOL    HW186357   6.139   6.251   9.626 -2.1036 -1.1045 -2.7376
24766SOL    HW286358   6.068   6.217   9.769  0.3095 -0.6139 -1.3820
24767SOL     OW86359   7.085   7.906   6.949  0.0540 -0.6976 -0.0453
24767SOL    HW186360   7.156   7.964   6.908 -0.5471 -0.0524 -0.1797
24767SOL    HW286361   7.014   7.886   6.881  1.5995 -3.8773 -0.8471
24768SOL     OW86362   5.964   1.443   1.189  0.3985 -0.2875 -0.2207
24768SOL    HW186363   6.058   1.419   1.211 -0.2823 -2.9840 -0.0802
24768SOL    HW286364   5.949   1.433   1.091 -0.2541 -1.8223  0.0222
24769SOL     OW86365   1.257   2.995   8.744  0.1345 -0.1168 -0.5610
24769SOL    HW186366   1.331   3.056   8.714  0.0802  0.4337  0.4269
24769SOL    HW286367   1.192   2.983   8.669  0.2670  0.8538 -0.8383
24770SOL     OW86368   8.166   9.743   1.697  0.1152  0.1627 -0.1371
24770SOL    HW186369   8.153   9.685   1.777  0.0895 -1.2147 -1.1223
24770SOL    HW286370   8.219   9.693   1.629 -2.1414  0.3029 -2.0571
24771SOL     OW86371   2.474   1.864   0.421  0.0878 -0.8761  0.5553
24771SOL    HW186372   2.387   1.846   0.467  0.5813  0.5451  2.0992
24771SOL    HW286373   2.549   1.846   0.484  0.7973  0.7138  0.1828
24772SOL     OW86374   1.678   5.445   7.907  0.0504  0.3931  0.0044
24772SOL    HW186375   1.711   5.511   7.839  0.9788  3.7323  3.5083
24772SOL    HW286376   1.585   5.469   7.935  0.3467  0.1903  1.2086
24773SOL     OW86377   8.089   2.216   3.362 -0.4010 -0.5897  0.2155
24773SOL    HW186378   8.176   2.214   3.312 -1.2048 -0.2540 -1.2173
24773SOL    HW286379   8.044   2.304   3.348 -1.4037 -1.0955  0.1801
24774SOL     OW86380   8.837   9.410   7.448  0.1706 -0.1526 -0.1204
24774SOL    HW186381   8.828   9.491   7.506 -2.8390 -0.8278  0.4227
24774SOL    HW286382   8.808   9.431   7.355 -1.0833 -0.7107  0.1360
24775SOL     OW86383   3.398   1.777   3.473 -0.3920  0.5132  0.0402
24775SOL    HW186384   3.470   1.717   3.507 -0.4904  0.9294  1.0009
24775SOL    HW286385   3.419   1.805   3.379  0.1675 -0.1942 -0.0481
24776SOL     OW86386   6.645   4.096   2.872  0.0342  0.4639 -0.1370
24776SOL    HW186387   6.681   4.041   2.947 -1.8581 -0.9907 -0.2529
24776SOL    HW286388   6.558   4.058   2.841 -0.7719  2.8640 -0.9986
24777SOL     OW86389   0.944   9.181   9.997 -0.3337 -0.4076  0.0850
24777SOL    HW186390   0.880   9.253   9.969 -2.6410 -2.3180  0.2360
24777SOL    HW286391   0.952   9.182  10.097 -0.1173 -0.1401  0.0640
24778SOL     OW86392   4.502   8.008   0.893 -0.1538 -0.3569 -0.0769
24778SOL    HW186393   4.531   8.004   0.989 -0.2061 -1.2083 -0.0954
24778SOL    HW286394   4.578   7.983   0.834 -0.6309 -1.6296 -0.1681
24779SOL     OW86395   9.543   6.131   1.186 -0.2118  0.6392 -0.1918
24779SOL    HW186396   9.560   6.220   1.228 -1.4695 -0.3023  2.3930
24779SOL    HW286397   9.445   6.117   1.175 -0.1244 -1.0611  0.9136
24780SOL     OW86398   4.748   2.606   0.737  0.1995  0.0924  0.3829
24780SOL    HW186399   4.800   2.555   0.806  0.5675  1.5154  1.1645
24780SOL    HW286400   4.663   2.558   0.717  0.9243 -1.2705  0.4882
24781SOL     OW86401   9.482   9.136   1.830 -0.3704  0.7942 -0.4679
24781SOL    HW186402   9.499   9.096   1.920 -0.6458  0.8517 -0.3916
24781SOL    HW286403   9.415   9.210   1.838 -1.3134  0.0009 -0.8932
24782SOL     OW86404   8.447   2.168   8.380  0.4891  0.7217 -0.1729
24782SOL    HW186405   8.485   2.089   8.332  0.8197  0.6160  0.2633
24782SOL    HW286406   8.356   2.188   8.344 -0.0731 -0.5574  0.5209
24783SOL     OW86407   1.535   1.547   0.747  0.2093  0.0257 -0.1163
24783SOL    HW186408   1.543   1.460   0.697 -0.2514 -1.0045  1.5592
24783SOL    HW286409   1.599   1.547   0.824  0.1892  1.1755 -0.0949
24784SOL     OW86410   9.074   6.592   8.777  1.1083  0.3336 -0.8790
24784SOL    HW186411   9.118   6.503   8.765  1.2284  0.4151 -1.0456
24784SOL    HW286412   8.976   6.579   8.791  1.2232  0.1340 -0.2550
24785SOL     OW86413   9.191   5.362   7.329  0.1760 -0.1406 -0.0525
24785SOL    HW186414   9.231   5.386   7.240 -1.3290 -1.9886 -1.2688
24785SOL    HW286415   9.212   5.266   7.350  0.0257  0.1161  1.3202
24786SOL     OW86416   1.513   8.881   7.636  0.0864  0.5162 -0.1114
24786SOL    HW186417   1.494   8.977   7.617 -0.1540  0.6784  0.9065
24786SOL    HW286418   1.595   8.852   7.587 -0.4958  0.9170 -1.3515
24787SOL     OW86419   1.501   6.903   6.290 -0.2307 -0.0199 -0.4062
24787SOL    HW186420   1.401   6.900   6.295 -0.1382 -0.1850  1.9839
24787SOL    HW286421   1.532   6.998   6.293 -0.3352  0.0623 -1.8016
24788SOL     OW86422   1.756   3.020  10.063  0.0897  0.7166 -0.2210
24788SOL    HW186423   1.679   3.048  10.120 -0.1110 -1.5626  0.6725
24788SOL    HW286424   1.723   3.000   9.970 -0.4350 -0.4154  0.2018
24789SOL     OW86425   2.186   8.473   5.198  0.1086 -0.3707 -0.1125
24789SOL    HW186426   2.253   8.488   5.125 -0.8093  2.0816 -0.5109
24789SOL    HW286427   2.120   8.548   5.198 -2.6519 -2.7001  0.2676
24790SOL     OW86428   6.726   1.224   2.087  0.0889 -0.4271  0.1121
24790SOL    HW186429   6.754   1.191   2.178  1.0235 -0.9787 -0.3707
24790SOL    HW286430   6.789   1.296   2.057 -0.7825  0.4194  0.3087
24791SOL     OW86431   6.794   0.047   7.053  0.8458 -0.5767  0.3915
24791SOL    HW186432   6.871  -0.001   7.095 -0.7363 -1.6893  2.0967
24791SOL    HW286433   6.710   0.023   7.101 -0.6443  0.2317 -1.7460
24792SOL     OW86434   4.374   0.219   7.846  0.4525 -0.5399  0.5324
24792SOL    HW186435   4.287   0.219   7.797  1.5139 -1.8075 -1.4427
24792SOL    HW286436   4.431   0.144   7.813  1.8670 -0.4212  2.5960
24793SOL     OW86437   7.270   6.583   4.983 -0.5316  0.2321 -0.4037
24793SOL    HW186438   7.324   6.545   4.907  0.0974  0.8504 -0.2729
24793SOL    HW286439   7.190   6.526   4.999  0.0658 -0.6782 -0.6341
24794SOL     OW86440   8.412   5.361   2.689  0.0737  0.0743 -0.0051
24794SOL    HW186441   8.504   5.339   2.654 -0.9250 -0.1960 -2.5758
24794SOL    HW286442   8.372   5.434   2.634 -0.8660  0.8887  1.7467
24795SOL     OW86443   2.183   3.178   3.222 -0.4399  0.1097  0.4309
24795SOL    HW186444   2.105   3.219   3.269 -0.4208 -1.4271  1.8329
24795SOL    HW286445   2.237   3.250   3.178 -2.7068  1.1698 -0.6808
24796SOL     OW86446   6.665   3.075   4.095  0.2269 -0.0420 -0.3126
24796SOL    HW186447   6.660   3.131   4.012  1.8673  0.2042 -0.2652
24796SOL    HW286448   6.642   2.980   4.072 -2.4194  0.5677 -0.4160
24797SOL     OW86449   9.185   8.254   4.664  0.3806  0.3400 -0.5723
24797SOL    HW186450   9.254   8.187   4.637 -0.7118 -0.9810 -0.1906
24797SOL    HW286451   9.206   8.290   4.755  1.2260  0.8784 -0.9746
24798SOL     OW86452   9.179   2.619   6.663  0.2889 -0.1501 -0.3523
24798SOL    HW186453   9.120   2.688   6.620  0.5164 -0.6734 -1.5189
24798SOL    HW286454   9.161   2.618   6.762 -0.5602  0.7551 -0.4785
24799SOL     OW86455   2.334   7.172   1.189  0.4472  0.6074  0.1101
24799SOL    HW186456   2.428   7.136   1.185  0.4839  0.7644 -0.4106
24799SOL    HW286457   2.326   7.252   1.131 -0.1524  0.2753 -0.2748
24800SOL     OW86458   0.367   2.754   3.672 -0.2343 -0.3001  0.8827
24800SOL    HW186459   0.382   2.681   3.606 -0.4997 -0.0587  0.5580
24800SOL    HW286460   0.328   2.834   3.626 -1.1636 -0.4113  1.4572
24801SOL     OW86461   5.855   0.591   1.014 -0.1004  0.5630  0.0268
24801SOL    HW186462   5.819   0.673   1.060 -1.5197 -0.6467  1.1100
24801SOL    HW286463   5.903   0.534   1.080  0.2942  0.1827 -0.5872
24802SOL     OW86464   2.441   2.402   3.790 -0.0211 -0.1662  0.2659
24802SOL    HW186465   2.453   2.316   3.740  1.3614  0.8080 -1.1182
24802SOL    HW286466   2.529   2.449   3.797 -0.5044  0.4577  2.2838
24803SOL     OW86467   7.073   9.304   8.131  0.4574 -0.1658 -0.0688
24803SOL    HW186468   7.039   9.338   8.043  0.3120 -1.3542 -0.4803
24803SOL    HW286469   6.995   9.278   8.188  0.5482  0.7390  0.4680
24804SOL     OW86470   4.263   2.571   7.597  0.1505 -0.0504  0.4861
24804SOL    HW186471   4.300   2.586   7.506  1.1260 -0.9422  0.7144
24804SOL    HW286472   4.240   2.474   7.608  1.3548 -0.2136  1.6502
24805SOL     OW86473   3.579   8.953   1.184  0.2382  0.1490 -0.1325
24805SOL    HW186474   3.574   8.953   1.284 -0.0325  2.3791 -0.1419
24805SOL    HW286475   3.605   8.861   1.153  1.6013 -0.2422  2.0410
24806SOL     OW86476   9.746   1.785   6.034 -0.0578  0.7055 -0.7774
24806SOL    HW186477   9.746   1.870   6.086 -0.9637 -0.9486  2.0667
24806SOL    HW286478   9.839   1.750   6.026  0.2575  1.7160 -1.5324
24807SOL     OW86479   3.602   8.811   9.763 -0.3017 -0.7401  0.1706
24807SOL    HW186480   3.668   8.886   9.770 -0.8412 -0.2215 -0.2175
24807SOL    HW286481   3.534   8.819   9.835 -1.5814  0.3716 -1.1100
24808SOL     OW86482   0.264   4.135   3.449  0.1980 -0.1992  0.0073
24808SOL    HW186483   0.220   4.191   3.378 -0.8185 -1.1678 -0.1397
24808SOL    HW286484   0.306   4.055   3.407  0.9753  0.0429  0.3147
24809SOL     OW86485   9.350   5.061   0.825  0.3118 -0.5880 -0.5037
24809SOL    HW186486   9.340   4.974   0.872 -1.2082  0.8594  1.9617
24809SOL    HW286487   9.425   5.055   0.758  1.2725 -3.2638  0.7646
24810SOL     OW86488   3.814   2.002   0.658  0.1904  0.6110 -0.5146
24810SOL    HW186489   3.868   2.076   0.620  0.4630  0.3456 -0.6409
24810SOL    HW286490   3.800   2.017   0.756  0.0619  0.9405 -0.5853
24811SOL     OW86491   7.692   4.419   1.185 -0.2266 -0.4034 -0.0092
24811SOL    HW186492   7.734   4.408   1.274 -1.1929 -0.9325  0.3873
24811SOL    HW286493   7.644   4.335   1.159  0.3077 -0.3703 -1.1617
24812SOL     OW86494   4.746   3.327   5.862 -0.2478  0.6057 -0.4654
24812SOL    HW186495   4.805   3.394   5.817  0.6742  0.0913 -0.0565
24812SOL    HW286496   4.754   3.239   5.814  0.7534  0.0527  0.7094
24813SOL     OW86497   1.643   1.382   3.930  0.1750 -0.3930  0.1435
24813SOL    HW186498   1.733   1.416   3.902 -0.2447  0.8363  0.2607
24813SOL    HW286499   1.597   1.451   3.985 -1.1135 -0.7392 -0.4773
24814SOL     OW86500   7.345   8.753   6.783 -0.5207 -0.0681  0.2156
24814SOL    HW186501   7.347   8.763   6.684  0.1544 -0.6930  0.1651
24814SOL    HW286502   7.421   8.695   6.813 -1.6246 -1.1669  0.9415
24815SOL     OW86503   5.835   0.594   5.566  0.4489  0.2731  0.3441
24815SOL    HW186504   5.785   0.592   5.479 -1.1137 -0.9033  1.2345
24815SOL    HW286505   5.923   0.549   5.555  1.7364  3.1015 -1.4685
24816SOL     OW86506   5.449   0.338   5.647 -0.1458  0.3414  0.4536
24816SOL    HW186507   5.457   0.427   5.692 -0.8786  1.7795 -2.1696
24816SOL    HW286508   5.368   0.338   5.589 -0.8618 -2.5042  1.3631
24817SOL     OW86509   9.551   5.440   0.786 -0.0668 -0.3381  0.0759
24817SOL    HW186510   9.480   5.413   0.851  1.0735 -0.4197  1.3351
24817SOL    HW286511   9.582   5.533   0.808  0.2087 -0.3033 -0.4509
24818SOL     OW86512   3.797   5.344   0.272 -0.2099  0.1879 -0.1618
24818SOL    HW186513   3.764   5.376   0.183 -0.0849  2.8756  0.7180
24818SOL    HW286514   3.723   5.296   0.319 -1.0922  1.0976 -0.6015
24819SOL     OW86515   2.595   5.974   7.076 -0.0862  0.2828  0.3213
24819SOL    HW186516   2.648   5.890   7.081 -2.2673 -1.0565  1.4100
24819SOL    HW286517   2.644   6.041   7.019  2.3657 -1.1640  0.6700
24820SOL     OW86518   1.580   0.813   9.810 -0.2410  0.1984  0.1207
24820SOL    HW186519   1.577   0.892   9.871  0.1720 -0.3072  0.7919
24820SOL    HW286520   1.616   0.842   9.721  0.3802  0.6604  0.5185
24821SOL     OW86521   3.801   0.378   5.524  0.1673  0.0314 -0.3256
24821SOL    HW186522   3.704   0.381   5.546  0.2447  1.6091 -0.1540
24821SOL    HW286523   3.820   0.298   5.467 -1.2741 -0.1424 -0.5704
24822SOL     OW86524   8.457   0.991   1.432  0.2083 -0.1312  0.8472
24822SOL    HW186525   8.419   0.952   1.516 -0.7616  1.6147  1.2440
24822SOL    HW286526   8.556   0.999   1.442  0.3270 -1.6551  1.0835
24823SOL     OW86527   6.422   8.333   3.333 -0.1846  0.3552  0.1106
24823SOL    HW186528   6.422   8.424   3.374 -0.7782  0.1036  0.6828
24823SOL    HW286529   6.415   8.264   3.405 -1.7067 -0.0797 -0.4278
24824SOL     OW86530   6.787   8.404   4.386 -0.7477 -0.8688 -0.4011
24824SOL    HW186531   6.691   8.427   4.375 -0.6714 -0.6995 -0.7213
24824SOL    HW286532   6.796   8.319   4.438 -1.0512 -0.5642  0.1456
24825SOL     OW86533   2.307   8.067   6.434 -1.0747  0.1089 -0.1374
24825SOL    HW186534   2.306   7.974   6.473 -0.5410 -0.4662 -1.4581
24825SOL    HW286535   2.288   8.133   6.506 -2.4302 -1.0889  0.6360
24826SOL     OW86536   3.244   6.732   2.549  0.4088  0.1172 -0.0906
24826SOL    HW186537   3.275   6.756   2.457  0.3410  2.5755  0.4933
24826SOL    HW286538   3.295   6.785   2.617 -0.8884 -0.2053  1.1697
24827SOL     OW86539   8.484   7.320   5.978 -0.2880  0.0974  0.1840
24827SOL    HW186540   8.456   7.228   5.951 -0.4900  0.4249 -0.7357
24827SOL    HW286541   8.446   7.387   5.914  1.6800  0.6418 -0.4514
24828SOL     OW86542   8.954   6.698   1.223 -0.1763  0.1709 -0.1628
24828SOL    HW186543   8.926   6.788   1.189  0.8317  0.3248 -0.6072
24828SOL    HW286544   8.905   6.678   1.308 -0.8324  0.8892 -0.3628
24829SOL     OW86545   1.886   5.631   1.328 -0.4139 -0.0625 -0.2089
24829SOL    HW186546   1.795   5.629   1.287 -0.0857  1.7153 -1.0453
24829SOL    HW286547   1.948   5.681   1.268  1.1380 -1.3050  0.3351
24830SOL     OW86548   0.593   2.633   5.720 -0.2992 -0.2742 -0.0995
24830SOL    HW186549   0.670   2.679   5.676 -1.0869 -0.0486 -1.2763
24830SOL    HW286550   0.544   2.578   5.652 -0.8158 -0.8858  0.7657
24831SOL     OW86551   4.152   4.204   3.649 -0.5575  0.4756  0.3126
24831SOL    HW186552   4.153   4.104   3.650  3.0657  0.4430  1.7298
24831SOL    HW286553   4.124   4.237   3.558  0.9942 -1.8752 -1.0694
24832SOL     OW86554   0.447   7.507   4.199  0.2074  0.7260  0.3523
24832SOL    HW186555   0.501   7.555   4.131  1.1242 -0.5563  0.1568
24832SOL    HW286556   0.357   7.550   4.207  0.7016  1.9211 -0.4344
24833SOL     OW86557   0.428   0.043   4.256  0.0498  0.4416 -0.2516
24833SOL    HW186558   0.423  -0.052   4.226 -0.9919  0.8148 -1.2637
24833SOL    HW286559   0.520   0.060   4.294  0.5037 -0.7357 -0.7721
24834SOL     OW86560   2.490   1.874   7.877 -0.6116 -0.2714 -0.1575
24834SOL    HW186561   2.501   1.920   7.965  0.8301 -0.2992 -0.3246
24834SOL    HW286562   2.420   1.921   7.823 -0.9530  0.1932  0.6892
24835SOL     OW86563   2.374   4.030   2.124  0.3765  0.5109 -0.3564
24835SOL    HW186564   2.403   4.115   2.169 -2.0168  1.4738 -0.5644
24835SOL    HW286565   2.280   4.010   2.149  0.2277 -0.9578 -2.0143
24836SOL     OW86566   5.099   4.470   1.110 -0.1840 -0.3390  0.0130
24836SOL    HW186567   5.132   4.561   1.085 -2.3899  0.2437 -0.8607
24836SOL    HW286568   5.175   4.405   1.107  1.3657  1.4261  0.4634
24837SOL     OW86569   3.836   8.441   4.504  0.4341 -0.1667 -0.4828
24837SOL    HW186570   3.824   8.488   4.416 -0.4106 -0.6885 -0.6538
24837SOL    HW286571   3.909   8.373   4.495  0.9626  0.3997 -0.5224
24838SOL     OW86572   9.391   7.302   9.991 -0.6625  0.3962  0.1814
24838SOL    HW186573   9.466   7.304  10.057 -0.5088  2.4785 -0.0249
24838SOL    HW286574   9.391   7.214   9.943  1.5606  0.3190  0.2707
24839SOL     OW86575   3.072   1.123   6.365  0.8251 -0.7698 -0.2883
24839SOL    HW186576   2.982   1.081   6.379  0.4448 -0.0169 -0.4095
24839SOL    HW286577   3.130   1.106   6.444 -0.2031  0.6842  0.8027
24840SOL     OW86578   1.856   5.826   4.476  0.3441 -0.1296 -0.0288
24840SOL    HW186579   1.931   5.762   4.494 -1.3029 -2.3004 -0.7694
24840SOL    HW286580   1.803   5.840   4.559 -0.1993 -0.9118 -0.2433
24841SOL     OW86581   4.649   8.847   7.993 -0.0816  0.2819  0.2058
24841SOL    HW186582   4.649   8.775   7.924 -0.1236 -0.0418  0.5390
24841SOL    HW286583   4.732   8.902   7.985  0.0386  0.0803  0.0716
24842SOL     OW86584   9.769   3.830   9.776 -0.5188 -0.0322  0.4654
24842SOL    HW186585   9.736   3.752   9.828 -1.5199  1.3341  1.9547
24842SOL    HW286586   9.691   3.884   9.744  0.0545 -0.9139 -2.6585
24843SOL     OW86587   5.113   6.429   9.371  0.2468 -0.2638 -0.3929
24843SOL    HW186588   5.193   6.385   9.329  0.7068 -1.7573  1.9456
24843SOL    HW286589   5.058   6.360   9.418 -0.3311  1.3232  1.3269
24844SOL     OW86590   0.059   9.498   5.198 -0.4912 -0.0326 -0.3148
24844SOL    HW186591   0.097   9.424   5.254 -2.0154  0.1161  0.9545
24844SOL    HW286592   0.067   9.585   5.247  1.0677  0.6122 -1.6959
24845SOL     OW86593   6.876   7.990   6.398 -0.1290  0.2291  0.3643
24845SOL    HW186594   6.830   7.991   6.309  0.4694 -1.8829  0.0190
24845SOL    HW286595   6.820   7.942   6.465 -0.2039  1.0956  0.9296
24846SOL     OW86596   9.831   3.637   2.839 -0.4581 -0.0617 -0.3517
24846SOL    HW186597   9.740   3.596   2.833  0.3769 -1.9340 -0.7496
24846SOL    HW286598   9.899   3.569   2.812  1.1089  1.1064  0.5832
24847SOL     OW86599   9.216   0.954   1.055  0.3608  0.4231 -0.2601
24847SOL    HW186600   9.246   0.993   0.968  1.5948 -1.0218 -0.5073
24847SOL    HW286601   9.277   0.879   1.081 -0.1233  0.6927  1.7524
24848SOL     OW86602   8.872   9.216   3.806 -0.3071  0.2465 -0.0179
24848SOL    HW186603   8.929   9.261   3.875  3.8960  0.5300 -3.5118
24848SOL    HW286604   8.813   9.283   3.761  1.7282  1.2642 -1.2052
24849SOL     OW86605   2.529   4.766   9.146 -0.4750 -0.1404  0.5959
24849SOL    HW186606   2.431   4.781   9.132 -0.5810 -1.2507  0.1374
24849SOL    HW286607   2.562   4.698   9.081  0.6111  0.2435  0.7387
24850SOL     OW86608   3.053   2.291   1.036 -0.7796  0.4397 -0.3269
24850SOL    HW186609   2.968   2.307   0.986 -1.8562 -0.4055  1.1817
24850SOL    HW286610   3.036   2.305   1.134  0.6454 -0.4331  0.0485
24851SOL     OW86611   3.064   0.119   3.637  0.1335 -0.1456  0.1510
24851SOL    HW186612   3.006   0.200   3.625  0.2777  0.1330  1.3103
24851SOL    HW286613   3.013   0.038   3.607 -0.6120  0.1776  0.5219
24852SOL     OW86614   3.008   3.839   8.775  0.4635  0.5484 -0.1012
24852SOL    HW186615   3.080   3.879   8.833 -1.6264  0.5986  2.5279
24852SOL    HW286616   3.037   3.748   8.744  1.8117  0.7239  0.6180
24853SOL     OW86617   1.004   7.720   6.822  0.2486 -0.8296  0.6383
24853SOL    HW186618   1.075   7.789   6.805  1.7903 -1.6049  3.6906
24853SOL    HW286619   1.040   7.629   6.801 -0.9913 -0.9464 -1.0581
24854SOL     OW86620   7.244   6.953   6.978  0.1812 -0.5197 -0.1819
24854SOL    HW186621   7.227   7.038   6.928  0.5596 -0.2833  0.0922
24854SOL    HW286622   7.318   6.967   7.043 -0.7762 -0.6187  0.9517
24855SOL     OW86623   6.334   9.316   4.693  0.6502 -0.2740 -0.2092
24855SOL    HW186624   6.240   9.342   4.715  1.0047  0.3848  0.5683
24855SOL    HW286625   6.379   9.391   4.644  1.0411 -0.2188  0.2229
24856SOL     OW86626   0.026   3.365   5.348  0.0405  0.0519  0.0402
24856SOL    HW186627   0.038   3.386   5.251  0.0808 -0.3257 -0.0387
24856SOL    HW286628  -0.069   3.339   5.365 -0.3651  1.7592  0.4219
24857SOL     OW86629   7.494   5.413   8.477  0.9433 -0.0458 -0.1780
24857SOL    HW186630   7.458   5.442   8.388 -0.3892  1.8767  0.9643
24857SOL    HW286631   7.507   5.493   8.536  0.7029 -1.4221  1.7768
24858SOL     OW86632   2.877   2.099   9.173 -0.0671  0.8239  0.3423
24858SOL    HW186633   2.798   2.154   9.149 -0.0735  0.2885 -0.9227
24858SOL    HW286634   2.850   2.002   9.176  1.0100  0.3682 -2.4876
24859SOL     OW86635   8.484   1.909   9.969  0.1545 -0.1586 -0.2064
24859SOL    HW186636   8.465   1.828   9.914  1.2120 -0.2621 -0.4260
24859SOL    HW286637   8.400   1.961   9.982 -0.5690 -1.3850  0.0916
24860SOL     OW86638   5.147   8.267   5.649 -0.0432  0.1085  0.5413
24860SOL    HW186639   5.237   8.242   5.612 -0.1976 -0.5912  0.6256
24860SOL    HW286640   5.149   8.363   5.679  0.7847 -0.0041  0.8820
24861SOL     OW86641   5.445   8.339   2.113 -0.8724 -0.0994  0.2213
24861SOL    HW186642   5.478   8.349   2.207  1.6861  2.2296 -0.8382
24861SOL    HW286643   5.419   8.429   2.077 -1.0206 -0.8246 -1.5432
24862SOL     OW86644   6.745   4.247   9.977 -0.0116  0.0651 -0.2806
24862SOL    HW186645   6.817   4.258  10.045 -0.9041  0.5549  0.5975
24862SOL    HW286646   6.658   4.233  10.023 -0.9854  2.5323 -1.2764
24863SOL     OW86647   4.585   9.448   5.144  1.1578  0.8672  0.1821
24863SOL    HW186648   4.578   9.524   5.209  2.8865 -0.0703  1.5022
24863SOL    HW286649   4.652   9.382   5.177  0.5621 -0.6512 -1.5614
24864SOL     OW86650   9.050   6.226   4.134 -0.0466  0.0494  0.4670
24864SOL    HW186651   9.008   6.159   4.196 -2.1689  0.8252 -0.1135
24864SOL    HW286652   9.119   6.180   4.078  0.2078 -1.1494  1.7175
24865SOL     OW86653   9.089   0.377   9.804 -0.5744 -0.3403 -0.2451
24865SOL    HW186654   9.037   0.311   9.857 -0.8798  0.8136  0.9300
24865SOL    HW286655   9.035   0.461   9.792 -0.3269 -0.3980 -1.9833
24866SOL     OW86656   8.798   9.153   2.493 -0.5549 -0.3476  0.1801
24866SOL    HW186657   8.806   9.226   2.425  1.7304  1.1419  1.9615
24866SOL    HW286658   8.718   9.097   2.473 -2.7499  3.0228 -0.8794
24867SOL     OW86659   9.062   7.719   6.756  0.6370 -0.0675  0.2832
24867SOL    HW186660   8.962   7.724   6.751  0.6752  1.4026  0.7894
24867SOL    HW286661   9.102   7.799   6.713  1.6261 -0.9582 -0.4724
24868SOL     OW86662   7.366   8.298   7.044  0.2679  0.6643 -0.2770
24868SOL    HW186663   7.339   8.228   6.978  0.2939  1.2763 -0.9460
24868SOL    HW286664   7.466   8.305   7.045  0.2592  0.7956 -0.3189
24869SOL     OW86665   7.171   1.553   1.241 -0.1088  0.0304  0.0262
24869SOL    HW186666   7.236   1.608   1.190  0.3868  2.2654  2.9449
24869SOL    HW286667   7.096   1.611   1.274 -2.0119 -1.9334 -0.7085
24870SOL     OW86668   9.619   2.936   8.896 -0.6478 -0.1391  0.3445
24870SOL    HW186669   9.569   2.946   8.810 -1.0420  0.5234  0.6440
24870SOL    HW286670   9.696   3.000   8.898 -1.3081  0.6530  0.9513
24871SOL     OW86671   1.674   2.473   0.848  0.1885 -0.0253 -0.4236
24871SOL    HW186672   1.610   2.399   0.871  1.4005 -0.7163  0.7741
24871SOL    HW286673   1.695   2.526   0.931 -0.2049  1.3093 -1.1562
24872SOL     OW86674   4.639   2.087   8.639 -0.0792  0.4282 -0.5806
24872SOL    HW186675   4.673   2.054   8.551 -0.6418 -1.1296 -0.2385
24872SOL    HW286676   4.632   2.010   8.703  0.2268  1.5222  0.7974
24873SOL     OW86677   0.809   6.971   0.637 -0.5105 -0.9083 -0.2244
24873SOL    HW186678   0.856   6.884   0.622 -0.4024 -1.0783  1.0289
24873SOL    HW286679   0.871   7.034   0.684 -0.4004  0.0413 -1.6274
24874SOL     OW86680   4.458   3.238   5.342 -0.2198 -0.0488  0.2882
24874SOL    HW186681   4.468   3.276   5.251 -0.7660 -1.5275 -0.4039
24874SOL    HW286682   4.545   3.200   5.373  0.3098  1.6691  0.9541
24875SOL     OW86683   9.677   2.756   0.183 -0.0570  0.4384 -0.5580
24875SOL    HW186684   9.771   2.723   0.173  0.2212  1.0129  0.1226
24875SOL    HW286685   9.657   2.821   0.110 -0.0825 -0.0231 -0.9684
24876SOL     OW86686   4.751   0.445   6.039 -0.1568  0.1184  0.3384
24876SOL    HW186687   4.826   0.510   6.049  1.2344 -1.4459  0.3814
24876SOL    HW286688   4.727   0.407   6.128 -0.4431  0.0001  0.2122
24877SOL     OW86689   3.432   4.828   2.891 -0.0850 -0.1712  0.2534
24877SOL    HW186690   3.481   4.906   2.853 -0.0794 -0.6142 -0.6514
24877SOL    HW286691   3.387   4.855   2.976 -1.1498  1.1644 -0.7180
24878SOL     OW86692   0.605   9.302   8.225  0.2791  0.2853 -0.2629
24878SOL    HW186693   0.672   9.347   8.284 -0.2281  0.7630 -0.0432
24878SOL    HW286694   0.606   9.203   8.244  0.2902  0.4024  0.3805
24879SOL     OW86695   0.911   4.416   5.055 -0.0908 -0.0866 -0.7647
24879SOL    HW186696   0.913   4.396   4.957  0.9850 -1.6862 -0.4285
24879SOL    HW286697   1.002   4.402   5.093 -0.4460  0.8122  0.4121
24880SOL     OW86698   8.100   0.851   1.738 -0.7090  0.5139  0.1832
24880SOL    HW186699   8.085   0.783   1.665 -0.4928 -0.3214  0.9088
24880SOL    HW286700   8.052   0.822   1.821 -0.7418  1.3353  0.4559
24881SOL     OW86701   6.953   2.390   4.601  0.0579  0.2418  0.4467
24881SOL    HW186702   6.950   2.447   4.684  0.0175  0.5532  0.2321
24881SOL    HW286703   6.870   2.334   4.596  0.1706  0.0490  0.7396
24882SOL     OW86704   8.194   3.178   3.638 -0.6442  0.1993  0.3748
24882SOL    HW186705   8.198   3.222   3.548 -1.2156  1.4773  0.9562
24882SOL    HW286706   8.150   3.088   3.629 -1.7566  0.8091 -0.4535
24883SOL     OW86707   6.098   2.583   9.917 -0.0989 -0.1526  0.5525
24883SOL    HW186708   6.004   2.589   9.884  0.6324 -0.5339 -1.6800
24883SOL    HW286709   6.126   2.487   9.921  1.0385  0.0776 -1.3062
24884SOL     OW86710   0.305   4.909   1.279 -0.1698  0.1802  0.1885
24884SOL    HW186711   0.341   4.858   1.201 -0.2117  0.0654  0.2433
24884SOL    HW286712   0.266   4.845   1.345  1.3927  0.1343  1.1064
24885SOL     OW86713   7.835   2.625   8.008 -0.5184  0.1829 -0.1181
24885SOL    HW186714   7.912   2.643   7.946  1.8724 -0.8315  2.4081
24885SOL    HW286715   7.808   2.529   7.999  2.0640 -0.8734  2.6900
24886SOL     OW86716   2.725   6.559   6.341 -0.0347 -0.1221  0.6943
24886SOL    HW186717   2.665   6.622   6.390  1.6204  2.6859 -0.7919
24886SOL    HW286718   2.820   6.583   6.357  0.5764 -0.5395 -2.0635
24887SOL     OW86719   1.154   1.836   9.881  0.1829  0.1192  0.2649
24887SOL    HW186720   1.128   1.860   9.975 -0.8028 -0.1298  0.0584
24887SOL    HW286721   1.131   1.912   9.820 -0.5019 -0.2918  0.0098
24888SOL     OW86722   6.604   1.204   9.234  0.1639 -0.3471 -0.1198
24888SOL    HW186723   6.588   1.119   9.184  0.5203  0.3228 -1.3711
24888SOL    HW286724   6.516   1.242   9.263 -0.1526  0.0889 -1.6178
24889SOL     OW86725   1.824   4.142   0.896  0.0646 -0.2370 -0.1583
24889SOL    HW186726   1.760   4.085   0.949  0.8103 -0.8147  0.1281
24889SOL    HW286727   1.878   4.198   0.959 -0.3053  0.4060 -0.4123
24890SOL     OW86728   3.223   5.042   9.789  0.2711  0.5718  0.2602
24890SOL    HW186729   3.127   5.066   9.805  0.0096  0.3776 -0.9376
24890SOL    HW286730   3.229   4.954   9.743  1.0267  0.5308  0.4233
24891SOL     OW86731   1.804   7.153   9.240  0.0154  0.1835 -0.2290
24891SOL    HW186732   1.854   7.139   9.326  0.6573  0.4383 -0.5659
24891SOL    HW286733   1.776   7.249   9.233 -0.9815 -0.0621  0.2019
24892SOL     OW86734   4.517   4.189   1.916 -0.5276  0.6840  0.1707
24892SOL    HW186735   4.447   4.198   1.987 -1.3619  1.2853 -0.7108
24892SOL    HW286736   4.587   4.259   1.929 -1.4010  1.6848 -0.3855
24893SOL     OW86737   4.003   1.324   4.462  0.8968  0.3032 -0.5347
24893SOL    HW186738   3.972   1.357   4.373 -0.3206  1.9791  0.4883
24893SOL    HW286739   3.932   1.341   4.530  0.5119 -3.7080  0.2183
24894SOL     OW86740   3.115   5.642   1.144 -0.6600 -0.1426 -1.1796
24894SOL    HW186741   3.204   5.625   1.186 -0.8574  0.6748 -0.3990
24894SOL    HW286742   3.121   5.627   1.045  0.3775  0.0216 -1.1481
24895SOL     OW86743   4.920   9.431   2.324  0.1183  0.0706 -0.3911
24895SOL    HW186744   4.857   9.475   2.261 -2.0624 -1.6714  0.5085
24895SOL    HW286745   4.956   9.499   2.388 -2.8683  0.6549  0.7288
24896SOL     OW86746   6.704   5.443   8.647  0.2707 -0.0836  0.1658
24896SOL    HW186747   6.741   5.353   8.625 -0.6600 -0.1735 -1.0862
24896SOL    HW286748   6.674   5.445   8.742 -1.4415 -1.6810 -0.3229
24897SOL     OW86749   5.956   3.069   8.268 -0.2684  0.0902  0.6688
24897SOL    HW186750   5.929   3.151   8.318  1.0659  0.0881  1.4030
24897SOL    HW286751   6.047   3.081   8.229 -0.9335 -0.2464 -1.0290
24898SOL     OW86752   9.692   3.340   5.686 -0.0065 -0.2839 -0.4207
24898SOL    HW186753   9.705   3.245   5.713 -0.5634 -0.2561 -0.0556
24898SOL    HW286754   9.595   3.362   5.685  0.2436  1.3381  3.2318
24899SOL     OW86755   9.720   0.104   1.617  0.6313 -0.5762 -0.0640
24899SOL    HW186756   9.696   0.188   1.569 -0.0963 -1.6549 -1.6230
24899SOL    HW286757   9.760   0.126   1.706  1.2944  1.4211 -0.8567
24900SOL     OW86758   6.612   7.418   4.808 -0.1484 -0.3512  0.3428
24900SOL    HW186759   6.563   7.436   4.723 -0.9476  0.1756  0.9107
24900SOL    HW286760   6.638   7.505   4.851 -0.2892 -0.6058  0.9487
24901SOL     OW86761   1.774   0.807   8.211 -0.2063 -0.0381  0.6035
24901SOL    HW186762   1.697   0.866   8.188  1.2194  1.6593  0.0129
24901SOL    HW286763   1.760   0.767   8.301 -2.0773 -0.2828  0.2133
24902SOL     OW86764   2.443   2.180   3.609  0.0326  0.1817  0.3725
24902SOL    HW186765   2.354   2.196   3.567  0.7657 -0.7760 -1.6328
24902SOL    HW286766   2.457   2.082   3.621  1.3700  0.2260 -0.6525
24903SOL     OW86767   8.183   2.913   7.675  0.1490 -0.6373  0.1937
24903SOL    HW186768   8.181   2.968   7.759  0.4666  0.6786 -0.6435
24903SOL    HW286769   8.102   2.855   7.671 -0.7361  0.5522  0.5846
24904SOL     OW86770   6.324   2.645   9.328  0.0644 -0.3081 -0.6018
24904SOL    HW186771   6.337   2.735   9.371  0.5955 -1.2161  1.2203
24904SOL    HW286772   6.356   2.649   9.233  1.6841  0.9906 -0.0529
24905SOL     OW86773   1.565   7.804   1.890  0.8147 -0.5893 -0.0048
24905SOL    HW186774   1.606   7.836   1.805 -1.8121  0.4671 -0.9223
24905SOL    HW286775   1.531   7.711   1.878 -0.1312 -0.2078 -0.3306
24906SOL     OW86776   2.743   0.779   1.252 -0.6145  0.7856  0.2036
24906SOL    HW186777   2.742   0.773   1.351 -2.0558  0.4000  0.1734
24906SOL    HW286778   2.650   0.768   1.216 -0.0027  0.0478 -1.2327
24907SOL     OW86779   2.998   5.917   3.954 -0.2852  0.0994 -0.0590
24907SOL    HW186780   2.964   5.823   3.950 -0.3281  0.0907  0.4681
24907SOL    HW286781   3.039   5.941   3.866  1.2880 -1.0123  0.3448
24908SOL     OW86782   9.192   6.447   5.702 -0.6516 -0.0428  0.4269
24908SOL    HW186783   9.153   6.362   5.735 -0.2845 -0.5409 -0.3937
24908SOL    HW286784   9.165   6.461   5.607 -1.5206  1.2593  0.8622
24909SOL     OW86785   3.619   9.965   9.493  0.3003  0.0159 -0.4036
24909SOL    HW186786   3.659   9.975   9.402  0.1326 -0.2644 -0.5117
24909SOL    HW286787   3.661   9.888   9.540 -0.0351 -0.2137 -0.4772
24910SOL     OW86788   8.694   0.227   1.107  0.3513 -0.2048 -0.0161
24910SOL    HW186789   8.686   0.159   1.180 -2.8087 -1.1561 -1.1684
24910SOL    HW286790   8.669   0.185   1.019 -0.6044  2.1536 -0.9208
24911SOL     OW86791   0.511   2.640   3.976  0.0539  0.5420  0.4795
24911SOL    HW186792   0.503   2.601   3.884 -1.1523  0.7976  0.4705
24911SOL    HW286793   0.557   2.574   4.036 -2.6722 -1.2660  0.6645
24912SOL     OW86794   7.040   8.062   3.882  0.1136 -0.2490 -0.3222
24912SOL    HW186795   6.973   8.135   3.870 -2.6698 -2.1748  2.5187
24912SOL    HW286796   7.088   8.045   3.796 -2.4863  1.7180 -2.2285
24913SOL     OW86797   0.831   2.955   8.135  0.2421 -0.1497  0.4177
24913SOL    HW186798   0.759   2.928   8.199  0.5699  0.6779  1.1474
24913SOL    HW286799   0.896   2.881   8.123 -1.2073 -1.2377 -0.9344
24914SOL     OW86800   4.699   6.497   8.404  0.6356  0.0067  0.6613
24914SOL    HW186801   4.607   6.491   8.366  1.0397  1.2322 -0.5452
24914SOL    HW286802   4.701   6.566   8.476  1.1071  1.6497 -0.8843
24915SOL     OW86803   8.394   0.061   3.418 -0.0054  0.2129  0.5990
24915SOL    HW186804   8.335   0.134   3.382  0.4120 -0.0890 -0.7171
24915SOL    HW286805   8.471   0.102   3.466 -1.0754  0.6135  2.0032
24916SOL     OW86806   4.906   1.510   4.904 -0.3096 -0.0205  0.3063
24916SOL    HW186807   4.984   1.465   4.861 -1.6885 -0.3756 -1.8922
24916SOL    HW286808   4.894   1.475   4.997 -1.3219 -4.2418 -1.3080
24917SOL     OW86809   9.865   0.876   3.630  0.3848  0.1788  0.3114
24917SOL    HW186810   9.940   0.885   3.695  0.8356  1.3503 -0.3615
24917SOL    HW286811   9.862   0.782   3.595  3.0992  0.7141 -1.5149
24918SOL     OW86812   0.035   0.893   5.636  0.0086  0.1894 -0.2787
24918SOL    HW186813   0.019   0.927   5.543  0.6033  1.1803 -0.0361
24918SOL    HW286814   0.075   0.967   5.691 -1.0761 -0.1497  0.9773
24919SOL     OW86815   4.010   9.030   9.989  0.3215 -0.1915 -0.3079
24919SOL    HW186816   4.015   8.935   9.959 -3.4132 -0.2765 -0.9787
24919SOL    HW286817   4.029   9.090   9.911  1.5308 -0.3608 -0.1578
24920SOL     OW86818   1.352   5.036   3.565  0.0597 -0.0878  0.5416
24920SOL    HW186819   1.411   4.961   3.595  0.1408 -0.5168 -0.6797
24920SOL    HW286820   1.405   5.120   3.558  0.2587 -0.2050  0.6414
24921SOL     OW86821   3.169   6.119   0.146  0.1653 -0.1194 -0.2024
24921SOL    HW186822   3.190   6.056   0.222 -1.8075 -1.4148 -0.6764
24921SOL    HW286823   3.248   6.125   0.085  1.6099  0.5773  1.6982
24922SOL     OW86824   3.237   5.598   7.862 -0.1317  0.0037  0.3227
24922SOL    HW186825   3.162   5.664   7.864  0.7539  1.0385 -0.1116
24922SOL    HW286826   3.235   5.543   7.945 -1.0030  0.4376  0.6004
24923SOL     OW86827   0.788   3.087   7.901 -0.4074 -0.6054 -0.3245
24923SOL    HW186828   0.778   3.055   7.995  0.2904  0.2476  0.0520
24923SOL    HW286829   0.885   3.098   7.879 -0.6117  1.1420 -0.4579
24924SOL     OW86830   3.355   6.812   6.325 -0.3954 -0.2576  0.7434
24924SOL    HW186831   3.340   6.793   6.228 -0.3708  1.3892  0.4090
24924SOL    HW286832   3.450   6.792   6.348  0.2427  1.6876 -0.1485
24925SOL     OW86833   6.914   6.170   2.020  0.5607  0.2122  0.0196
24925SOL    HW186834   6.950   6.217   1.939 -1.2877  1.0165 -0.3544
24925SOL    HW286835   6.873   6.237   2.082  1.6154 -0.4515  1.4551
24926SOL     OW86836   8.949   3.837   7.044 -0.1866 -0.3216  0.1075
24926SOL    HW186837   8.918   3.926   7.010 -0.1632 -0.4364 -0.2170
24926SOL    HW286838   8.982   3.782   6.967 -2.1260 -1.3938  0.0222
24927SOL     OW86839   8.119   5.078   8.939  0.0157  0.4047 -0.6184
24927SOL    HW186840   8.099   4.984   8.969  1.4340  0.3675  0.2674
24927SOL    HW286841   8.034   5.129   8.930 -0.7322 -0.7956 -0.5319
24928SOL     OW86842   5.132   9.410   4.744  0.2096 -0.3940 -0.2737
24928SOL    HW186843   5.203   9.354   4.787  0.0228 -0.7703 -0.4596
24928SOL    HW286844   5.046   9.399   4.794 -0.2416 -1.5399 -1.2852
24929SOL     OW86845   6.425   1.410   8.913  0.0278 -0.2797  0.7500
24929SOL    HW186846   6.496   1.476   8.891  0.4287 -0.6384  0.9769
24929SOL    HW286847   6.439   1.326   8.861 -0.3479 -0.2762  0.6376
24930SOL     OW86848   3.656   6.244   5.157 -0.7084  0.2483  0.2094
24930SOL    HW186849   3.694   6.152   5.151 -0.4331  0.3741  0.0371
24930SOL    HW286850   3.709   6.306   5.100 -0.3078  0.7016  1.0650
24931SOL     OW86851   1.220   3.791   8.369  0.3776 -0.5061  0.0213
24931SOL    HW186852   1.299   3.844   8.338  0.8603 -0.6500  0.9941
24931SOL    HW286853   1.156   3.780   8.293  1.5994 -0.9407 -0.9730
24932SOL     OW86854   1.047   3.082   0.838  0.2151 -0.8019  0.2605
24932SOL    HW186855   1.081   3.045   0.752  1.3310  2.7624 -0.9106
24932SOL    HW286856   0.948   3.090   0.834  0.2532 -0.7288 -0.6901
24933SOL     OW86857   9.450   2.645   5.861 -0.2793 -0.4471 -0.5852
24933SOL    HW186858   9.500   2.559   5.850 -1.1314 -1.2243  1.4838
24933SOL    HW286859   9.435   2.663   5.958 -0.7080  1.7075 -1.0266
24934SOL     OW86860   2.061   2.940   5.092  0.1520  0.0114 -0.1622
24934SOL    HW186861   2.125   2.971   5.021  3.4442 -1.7278  1.9099
24934SOL    HW286862   2.077   2.992   5.176 -1.0814 -0.5496  0.4270
24935SOL     OW86863   3.905   9.410   0.560 -0.1817  0.8031 -0.4809
24935SOL    HW186864   3.860   9.464   0.489  1.1597  2.5798 -0.0047
24935SOL    HW286865   4.004   9.425   0.556  0.0348 -0.1734  0.8681
24936SOL     OW86866   4.365   8.505   5.373  0.8590  0.2097 -0.2529
24936SOL    HW186867   4.330   8.411   5.376  2.2897 -0.3311 -0.5960
24936SOL    HW286868   4.408   8.522   5.285  3.9485 -0.0378  1.1569
24937SOL     OW86869   0.084   6.204   2.860  0.6520  0.2840  0.0855
24937SOL    HW186870   0.001   6.208   2.914 -1.6618 -0.8717 -3.1904
24937SOL    HW286871   0.126   6.294   2.855 -0.2552  0.8191  1.9751
24938SOL     OW86872   7.978   5.807   7.733 -0.1553  0.2315 -0.2851
24938SOL    HW186873   8.037   5.888   7.739 -1.5653  1.3466 -0.9223
24938SOL    HW286874   8.032   5.725   7.747  1.5597  1.2156 -0.9756
24939SOL     OW86875   3.275   3.314   6.985 -0.0392 -0.1360  0.1477
24939SOL    HW186876   3.285   3.282   6.890 -0.8754  0.1879 -0.0534
24939SOL    HW286877   3.302   3.410   6.990  0.7319 -0.3628  0.3922
24940SOL     OW86878   3.787   7.577   8.957 -0.4623  0.1319  0.4656
24940SOL    HW186879   3.780   7.669   8.995 -0.6616  0.2015  0.2590
24940SOL    HW286880   3.734   7.572   8.873  0.7559  0.2647 -0.3349
24941SOL     OW86881   7.109   5.292   7.456 -0.1372 -0.3913 -0.4153
24941SOL    HW186882   7.107   5.223   7.527  0.9073 -2.0080 -1.9073
24941SOL    HW286883   7.063   5.257   7.374  0.2616  0.7302 -1.1295
24942SOL     OW86884   5.301   1.673   6.475 -0.0326 -0.1858 -0.0571
24942SOL    HW186885   5.258   1.757   6.443 -1.6973 -0.9240  0.2008
24942SOL    HW286886   5.313   1.677   6.575 -0.4663 -0.4180  0.0033
24943SOL     OW86887   3.182   8.066   4.596 -0.6316  0.5108 -0.1407
24943SOL    HW186888   3.238   8.149   4.597 -0.2099  0.2631 -1.6658
24943SOL    HW286889   3.085   8.092   4.589 -0.6274  0.9081  1.2439
24944SOL     OW86890   7.025   3.373   2.593 -0.4897 -0.1357  0.3425
24944SOL    HW186891   6.941   3.333   2.556  0.6636 -2.9220  0.6435
24944SOL    HW286892   7.071   3.427   2.521 -2.2376  0.9892  0.0356
24945SOL     OW86893   4.283   4.883   7.294  0.1342  0.0283  0.1080
24945SOL    HW186894   4.213   4.899   7.363  1.0313 -0.2473  1.0956
24945SOL    HW286895   4.256   4.806   7.236  0.4155 -1.1660  1.5525
24946SOL     OW86896   1.793   0.140   6.561 -0.1559 -0.3211  0.0430
24946SOL    HW186897   1.731   0.133   6.639 -0.2592  0.7097  0.0667
24946SOL    HW286898   1.851   0.059   6.556  0.4338 -0.0099  1.6758
24947SOL     OW86899   8.778   8.841   4.824  0.1781  0.0877  0.0230
24947SOL    HW186900   8.844   8.790   4.768  0.2585  0.1145  0.0918
24947SOL    HW286901   8.686   8.808   4.804  0.2338 -0.1160  0.1020
24948SOL     OW86902   4.783   0.184   6.982  0.4077  0.2586 -0.2483
24948SOL    HW186903   4.827   0.269   7.012  1.3214 -0.1616 -0.3960
24948SOL    HW286904   4.753   0.195   6.887 -0.4496  0.7929  0.0789
24949SOL     OW86905   7.645   0.302   2.566  0.4126 -0.9372 -0.3593
24949SOL    HW186906   7.660   0.324   2.470 -1.8024 -1.4554 -0.8449
24949SOL    HW286907   7.552   0.327   2.593  0.7899 -1.3990  1.4714
24950SOL     OW86908   9.197   4.715   0.683 -0.4398  0.5520 -0.1893
24950SOL    HW186909   9.209   4.782   0.610 -1.1312 -0.4868 -1.2622
24950SOL    HW286910   9.232   4.627   0.653 -1.1726  0.0018  0.5561
24951SOL     OW86911   6.685   4.643   2.806  0.5718 -0.0138 -0.4340
24951SOL    HW186912   6.650   4.549   2.804 -0.8042  0.3219  3.3905
24951SOL    HW286913   6.758   4.650   2.873  1.0631  1.5471 -1.1158
24952SOL     OW86914   0.062   4.626   4.062  0.3987  0.0225  0.1611
24952SOL    HW186915   0.134   4.599   3.998  1.7551 -1.1937  2.1391
24952SOL    HW286916  -0.026   4.595   4.027  0.7580  1.6603 -2.3657
24953SOL     OW86917   1.750   0.687   6.291 -0.0128  0.1799 -0.2000
24953SOL    HW186918   1.720   0.659   6.383 -1.9997  1.4096 -0.4529
24953SOL    HW286919   1.693   0.641   6.223  1.3369 -0.5788 -0.8248
24954SOL     OW86920   0.119   1.878   2.508 -0.0639 -0.4213  0.5327
24954SOL    HW186921   0.213   1.903   2.531 -0.9329  1.4733  2.1977
24954SOL    HW286922   0.059   1.901   2.585 -1.8948 -1.6290 -0.4965
24955SOL     OW86923   1.512   1.720   2.031  0.4884 -0.2378 -0.3928
24955SOL    HW186924   1.549   1.798   1.980  2.9091 -1.0855  0.0299
24955SOL    HW286925   1.486   1.648   1.967  0.7059 -0.1186 -0.6153
24956SOL     OW86926   8.013   8.553   1.144  0.3498 -0.2376  0.2322
24956SOL    HW186927   8.084   8.623   1.156  0.1488 -0.1495  0.9752
24956SOL    HW286928   7.923   8.594   1.159  0.2368 -0.6629  0.7308
24957SOL     OW86929   2.398   1.799   4.758 -1.1066  0.0928 -0.1742
24957SOL    HW186930   2.407   1.898   4.747 -2.7701  0.3902  1.0663
24957SOL    HW286931   2.347   1.762   4.680  1.5403 -0.1667 -1.8731
24958SOL     OW86932   3.404   2.195   8.934 -0.0034 -0.4207  0.2070
24958SOL    HW186933   3.422   2.176   8.837  0.7296 -2.4262  0.7001
24958SOL    HW286934   3.305   2.190   8.951 -0.2460  1.1375 -0.6565
24959SOL     OW86935   6.643   6.012   8.509 -0.9854 -0.4409 -0.4897
24959SOL    HW186936   6.604   5.947   8.574 -0.4310 -0.9295 -0.6443
24959SOL    HW286937   6.668   6.096   8.557 -0.1661 -0.9639  0.0203
24960SOL     OW86938   6.315   1.143   1.257  0.1133 -0.5727  0.2582
24960SOL    HW186939   6.330   1.104   1.348  0.3798 -0.8409  0.1023
24960SOL    HW286940   6.399   1.138   1.205  0.8349  2.4752  1.0585
24961SOL     OW86941   4.167   8.810   8.273 -0.4219  0.6458 -0.0006
24961SOL    HW186942   4.068   8.817   8.269 -0.7751 -3.0174  1.1984
24961SOL    HW286943   4.201   8.769   8.188  0.0071  1.0314 -0.0192
24962SOL     OW86944   2.424   2.503   0.568 -0.1341 -0.0510  0.6051
24962SOL    HW186945   2.362   2.550   0.631  0.4980  0.7051  0.6745
24962SOL    HW286946   2.480   2.570   0.520 -0.9980 -0.5893 -1.1962
24963SOL     OW86947   4.813   0.819   1.105 -0.2991 -0.0708  0.6141
24963SOL    HW186948   4.883   0.890   1.098 -0.0886 -0.4428 -1.3830
24963SOL    HW286949   4.816   0.761   1.023 -1.0073 -1.8806  1.8361
24964SOL     OW86950   8.571   5.195   8.877 -0.7917  0.2610 -0.6315
24964SOL    HW186951   8.638   5.212   8.950 -1.9125  1.6555  0.0765
24964SOL    HW286952   8.496   5.260   8.884 -0.4749  1.0184 -3.5948
24965SOL     OW86953   0.888   9.622   1.649 -0.3247 -0.3100  0.7544
24965SOL    HW186954   0.932   9.576   1.726 -0.5045  1.3976  1.9045
24965SOL    HW286955   0.888   9.721   1.666 -0.1345  0.0999 -1.5646
24966SOL     OW86956   1.531   8.662   5.184 -0.7604  0.4717 -0.3421
24966SOL    HW186957   1.555   8.565   5.182 -0.0182  0.6023  1.2489
24966SOL    HW286958   1.432   8.672   5.184 -0.8594 -0.3448  0.7766
24967SOL     OW86959   9.074   8.492   6.376 -0.7304 -0.3601  0.0107
24967SOL    HW186960   9.034   8.542   6.453  4.7022  2.4795  1.2690
24967SOL    HW286961   9.068   8.547   6.293 -0.9774 -0.6828 -0.1858
24968SOL     OW86962   8.629   0.289   6.180  0.3189 -0.1592  0.3185
24968SOL    HW186963   8.572   0.349   6.124 -0.0786 -0.4327  0.4295
24968SOL    HW286964   8.574   0.250   6.253  1.0784  0.9992  1.5316
24969SOL     OW86965   2.007   3.735   2.781  0.3159  0.5545  0.2626
24969SOL    HW186966   1.990   3.815   2.839 -2.7807  0.5830 -0.5695
24969SOL    HW286967   2.019   3.764   2.686  0.6932  0.1368  0.1808
24970SOL     OW86968   9.439   9.589   4.261  0.2132 -0.2301  0.6237
24970SOL    HW186969   9.509   9.639   4.312  0.0371  1.0354 -0.3415
24970SOL    HW286970   9.431   9.628   4.169 -1.6725 -0.4459  0.6820
24971SOL     OW86971   7.252   2.484   2.823 -0.4178 -0.0175  0.4257
24971SOL    HW186972   7.219   2.461   2.915  1.7220  1.3596  1.5911
24971SOL    HW286973   7.243   2.583   2.808 -0.0692 -0.1288 -0.5462
24972SOL     OW86974   8.232   1.060   4.498  0.4177 -0.4169 -0.3191
24972SOL    HW186975   8.134   1.080   4.498  0.6220  0.6120 -1.2448
24972SOL    HW286976   8.282   1.138   4.461  1.7140 -0.3981  1.4482
24973SOL     OW86977   3.500   0.136   2.804 -0.0369 -0.1644  0.0325
24973SOL    HW186978   3.438   0.093   2.738 -0.5555 -1.9990  1.6651
24973SOL    HW286979   3.496   0.086   2.891  0.5667  2.2620  1.4917
24974SOL     OW86980   6.772   1.318   9.875 -0.4050  0.6015  0.3422
24974SOL    HW186981   6.794   1.291   9.782 -0.5184  0.4814  0.3498
24974SOL    HW286982   6.823   1.401   9.899  1.3640 -0.6393  0.9467
24975SOL     OW86983   4.980   2.138   8.542 -0.0370  0.0386  0.2037
24975SOL    HW186984   5.026   2.052   8.565 -0.1156  0.4115  1.7874
24975SOL    HW286985   4.899   2.119   8.487  0.5472 -0.8159 -0.3809
24976SOL     OW86986   1.681   9.655   5.042 -0.5644 -0.1326  0.5650
24976SOL    HW186987   1.717   9.580   4.987 -0.7664 -0.0135  0.2621
24976SOL    HW286988   1.755   9.697   5.095  0.2856  1.7645 -1.9974
24977SOL     OW86989   2.842   2.478   0.235 -0.3879  0.1388  0.0638
24977SOL    HW186990   2.748   2.493   0.206 -0.4955 -1.4271 -0.4156
24977SOL    HW286991   2.843   2.454   0.332 -0.3610  1.4516  0.3981
24978SOL     OW86992   2.752   9.320   6.041 -0.0018  0.0135 -0.3478
24978SOL    HW186993   2.727   9.244   5.981  0.0442  0.5245 -1.0289
24978SOL    HW286994   2.851   9.332   6.041 -0.2223  3.0616 -4.0722
24979SOL     OW86995   3.255   0.999   2.066  0.1514  0.5213  0.3364
24979SOL    HW186996   3.350   1.028   2.075  0.5028 -0.5513  0.1262
24979SOL    HW286997   3.197   1.054   2.126  0.9201  1.0783  0.5706
24980SOL     OW86998   9.783   8.026   3.814 -0.2617 -0.0085  0.5920
24980SOL    HW186999   9.869   8.014   3.863 -1.4395 -0.4228  2.6169
24980SOL    HW287000   9.725   8.090   3.864 -2.0290 -1.4680  0.4626
24981SOL     OW87001   9.147   7.043   9.941  0.0418 -0.0725 -0.0456
24981SOL    HW187002   9.184   7.043  10.034 -2.0348  1.8195  0.8373
24981SOL    HW287003   9.117   6.951   9.917 -0.1217 -0.4379  1.4725
24982SOL     OW87004   7.838   3.036   4.780  0.1067 -0.4253 -0.0454
24982SOL    HW187005   7.925   3.081   4.758  0.4941 -1.1635 -0.0378
24982SOL    HW287006   7.764   3.082   4.730  0.1895  1.5429  1.5650
24983SOL     OW87007   2.144   5.160   4.040 -0.7836 -0.1065 -0.1423
24983SOL    HW187008   2.119   5.220   3.964  0.6370  1.5345  0.6698
24983SOL    HW287009   2.229   5.112   4.019 -0.8440 -0.3112  0.0642
24984SOL     OW87010   0.206   9.915   3.049  0.1093  1.0347  0.1419
24984SOL    HW187011   0.150   9.861   3.111  0.8325  1.8651  1.5368
24984SOL    HW287012   0.302   9.901   3.069  0.3331  1.8525 -0.3209
24985SOL     OW87013   3.445   7.755   6.595 -0.1014 -0.5585 -0.0067
24985SOL    HW187014   3.483   7.698   6.522 -0.6357 -0.3589 -0.4501
24985SOL    HW287015   3.398   7.833   6.554 -1.8718 -1.3487  0.4797
24986SOL     OW87016   8.129   5.392   2.981  0.0356 -0.0556 -0.2294
24986SOL    HW187017   8.158   5.329   2.910  0.9217 -0.2798  0.3224
24986SOL    HW287018   8.136   5.486   2.948  0.5332 -0.1551 -0.4032
24987SOL     OW87019   8.915   8.721   6.187  0.1867 -0.3402 -0.3091
24987SOL    HW187020   8.839   8.731   6.123 -0.0609  0.7290  0.1330
24987SOL    HW287021   9.001   8.740   6.139 -0.0838  1.5705 -0.0943
24988SOL     OW87022   1.316   0.479   7.314  0.4093 -0.1231 -0.4598
24988SOL    HW187023   1.393   0.470   7.378 -0.5434  0.9754  0.8666
24988SOL    HW287024   1.339   0.548   7.244  0.0743  1.3291  0.8225
24989SOL     OW87025   1.966   1.148   9.506  0.0864  0.0654  0.0089
24989SOL    HW187026   1.883   1.130   9.454  0.9081  0.5017 -1.4661
24989SOL    HW287027   2.016   1.225   9.466  0.0312  1.3307  2.2706
24990SOL     OW87028   8.958   1.033   1.654 -0.0803  0.3427 -0.3155
24990SOL    HW187029   8.947   0.984   1.741  0.3729  0.3190 -0.2678
24990SOL    HW287030   8.963   1.131   1.671  0.6671  0.2968 -0.2466
24991SOL     OW87031   0.274   8.305   6.871 -0.2725 -0.3115 -0.3233
24991SOL    HW187032   0.217   8.223   6.863 -0.0503 -0.5691  0.6300
24991SOL    HW287033   0.273   8.355   6.785 -0.5782 -1.2073 -0.8444
24992SOL     OW87034   7.646   8.655   7.743  0.6108  0.1293 -0.5222
24992SOL    HW187035   7.745   8.661   7.729  0.7150  0.9075  0.4871
24992SOL    HW287036   7.608   8.747   7.751 -0.0644 -0.1921  0.0081
24993SOL     OW87037   8.023   9.974   2.835  0.1709  0.3266 -0.3421
24993SOL    HW187038   7.938  10.017   2.864 -0.0517 -0.1992 -0.1986
24993SOL    HW287039   8.095  10.043   2.828 -0.1059  0.6729  0.1600
24994SOL     OW87040   2.093   2.536   5.600 -0.3902 -0.7322  0.0790
24994SOL    HW187041   2.029   2.583   5.539  1.1844  1.1770 -0.1457
24994SOL    HW287042   2.183   2.529   5.557  0.6691  0.3581  2.0117
24995SOL     OW87043   8.598   3.983   5.726  0.3180 -0.0663 -0.3643
24995SOL    HW187044   8.522   3.938   5.679 -0.7194  1.8177 -0.5283
24995SOL    HW287045   8.669   3.915   5.747 -0.9856 -1.6737 -1.0345
24996SOL     OW87046   6.440   2.306   9.148  0.5445 -0.2340  0.4300
24996SOL    HW187047   6.382   2.277   9.225  0.8342  1.9939  1.5282
24996SOL    HW287048   6.533   2.324   9.181  1.1027 -0.8860 -0.7651
24997SOL     OW87049   5.825   3.872   0.925  0.2767 -0.5255 -0.6396
24997SOL    HW187050   5.740   3.827   0.953  0.8206 -0.6066  0.9413
24997SOL    HW287051   5.902   3.828   0.970  1.2082 -0.7650 -2.4532
24998SOL     OW87052   9.424   0.161   5.610 -0.9054 -0.8336 -0.8209
24998SOL    HW187053   9.422   0.173   5.511  0.6659  1.9395 -0.5863
24998SOL    HW287054   9.375   0.237   5.653 -0.8243 -1.5512  0.5453
24999SOL     OW87055   8.209   4.056   1.064 -0.1268 -0.4920 -0.5868
24999SOL    HW187056   8.196   4.139   1.116 -0.6758 -1.1499  0.3277
24999SOL    HW287057   8.281   4.000   1.106  1.0633  0.0403 -1.8502
25000SOL     OW87058   1.818   3.593   7.886  0.1417 -0.5117  0.1085
25000SOL    HW187059   1.806   3.619   7.790  0.0615 -1.1597 -0.0597
25000SOL    HW287060   1.868   3.665   7.934  0.6394 -0.4142 -0.5447
25001SOL     OW87061   2.197   1.049   0.314 -0.6354  0.0946  0.2405
25001SOL    HW187062   2.126   1.086   0.374 -0.5597  1.1916 -0.3356
25001SOL    HW287063   2.280   1.103   0.324 -0.9678  0.9719 -1.6749
25002SOL     OW87064   8.319   6.726   0.286  0.1511  0.2051 -0.1394
25002SOL    HW187065   8.370   6.784   0.223  0.0608 -0.8867 -1.2479
25002SOL    HW287066   8.280   6.648   0.236 -0.4846 -0.3284  1.1453
25003SOL     OW87067   8.456   8.428   5.661 -0.1555  0.0107 -0.2486
25003SOL    HW187068   8.519   8.363   5.704  0.8570  1.5065  0.5802
25003SOL    HW287069   8.446   8.508   5.720 -1.0922  0.7800 -1.4297
25004SOL     OW87070   5.468   0.620   8.792 -0.2290  0.1513  0.2005
25004SOL    HW187071   5.481   0.552   8.865  1.1796  0.9135  0.6788
25004SOL    HW287072   5.513   0.589   8.709  1.1712  0.8620  0.6646
25005SOL     OW87073   3.067   6.953   0.670  0.2179 -0.5523  0.1656
25005SOL    HW187074   3.056   6.855   0.683  0.3230 -0.7480 -1.1209
25005SOL    HW287075   3.138   6.987   0.732 -1.3287 -0.8774  2.1492
25006SOL     OW87076   1.842   0.414   0.845 -0.3424 -0.5225  0.3754
25006SOL    HW187077   1.895   0.436   0.927  0.4182  0.4234 -0.3506
25006SOL    HW287078   1.797   0.496   0.811 -1.7376 -1.1873  0.5936
25007SOL     OW87079   7.348   6.011   1.416  0.7394 -0.1548  0.2722
25007SOL    HW187080   7.303   6.079   1.473  3.1387  0.5071  1.4341
25007SOL    HW287081   7.293   5.927   1.415 -1.1066  1.0207  0.6404
25008SOL     OW87082   6.783   3.261   9.409 -0.1793  0.7216 -0.2710
25008SOL    HW187083   6.769   3.212   9.324 -0.0176  0.0467  0.0899
25008SOL    HW287084   6.728   3.344   9.410 -3.5260 -1.4167  0.7826
25009SOL     OW87085   2.757   4.748   6.376  0.5288  0.3176  0.6155
25009SOL    HW187086   2.699   4.828   6.392  0.3331  0.4310 -0.6338
25009SOL    HW287087   2.752   4.722   6.280 -0.7985 -2.2891  1.3544
25010SOL     OW87088   4.367   2.978   0.868 -0.1307 -0.2899  0.0914
25010SOL    HW187089   4.341   3.071   0.892  0.7455  0.5194 -1.9515
25010SOL    HW287090   4.456   2.979   0.823 -0.3722 -2.0407 -0.4705
25011SOL     OW87091   9.230   7.684   4.335  0.1450  0.0858 -0.3864
25011SOL    HW187092   9.211   7.764   4.393  2.5304 -0.9760  1.9725
25011SOL    HW287093   9.328   7.666   4.334  0.0711 -0.5378 -4.0745
25012SOL     OW87094   1.851   5.827   9.451  0.0742 -0.0267  0.1415
25012SOL    HW187095   1.907   5.770   9.391  1.1619 -0.1852  1.2822
25012SOL    HW287096   1.909   5.895   9.496 -0.9716  1.0254 -0.0862
25013SOL     OW87097   7.587   0.227   1.682  0.2676 -0.2320  0.3300
25013SOL    HW187098   7.618   0.133   1.695  0.3601 -0.1383  0.8132
25013SOL    HW287099   7.556   0.240   1.588 -0.9659 -1.0954  0.6093
25014SOL     OW87100   4.372   6.110   4.074  0.1098 -0.1659 -0.4659
25014SOL    HW187101   4.426   6.091   3.992  0.8512 -0.3275  0.0568
25014SOL    HW287102   4.350   6.025   4.121  1.9947  0.1137  0.9613
25015SOL     OW87103   8.433   5.477   6.808  0.1072  0.2901  0.3260
25015SOL    HW187104   8.472   5.502   6.719 -0.2987 -1.5039 -0.3814
25015SOL    HW287105   8.337   5.503   6.810  0.1489  0.4502  0.2906
25016SOL     OW87106   9.638   1.600   9.858  0.1169 -0.1726 -0.4680
25016SOL    HW187107   9.555   1.655   9.845  1.3163  1.2520 -2.1850
25016SOL    HW287108   9.632   1.553   9.946 -2.0723  0.6869 -0.1161
25017SOL     OW87109   4.876   8.988   6.934 -0.6042  0.7295 -0.1435
25017SOL    HW187110   4.805   8.928   6.897 -1.0807  1.2584 -0.0924
25017SOL    HW287111   4.966   8.950   6.913 -0.9022  0.0232 -0.1540
25018SOL     OW87112   5.279   1.938   6.986  0.0197  0.5229 -0.0957
25018SOL    HW187113   5.223   1.923   6.905 -0.3022 -0.1948  0.2560
25018SOL    HW287114   5.256   2.027   7.027 -0.3298  0.5588 -0.3763
25019SOL     OW87115   1.541   1.941   6.586 -0.3312 -0.6103 -0.6218
25019SOL    HW187116   1.444   1.937   6.560  0.1762 -2.5281 -2.3420
25019SOL    HW287117   1.596   1.897   6.515  1.6107 -1.4454  1.3563
25020SOL     OW87118   3.001   8.037   9.025 -0.3390  0.3931 -0.1068
25020SOL    HW187119   3.016   8.136   9.025  0.0890  0.3361 -1.3200
25020SOL    HW287120   3.085   7.990   8.998 -0.4243 -0.3383  0.8287
25021SOL     OW87121   2.900   3.040   4.645 -0.1446  0.0155  0.1882
25021SOL    HW187122   2.865   3.124   4.603 -0.1379  0.1137  0.3766
25021SOL    HW287123   2.992   3.022   4.611  0.4980  0.9791  1.3787
25022SOL     OW87124   1.291   6.639   9.405  0.6684 -0.2379  0.2228
25022SOL    HW187125   1.335   6.633   9.495  0.3111  1.9000  0.5709
25022SOL    HW287126   1.194   6.617   9.413  0.5989  0.1278  0.4013
25023SOL     OW87127   2.809   8.602   4.624  0.6526 -0.4556  0.1143
25023SOL    HW187128   2.830   8.591   4.526 -1.0777  1.1972 -0.4899
25023SOL    HW287129   2.710   8.599   4.636  0.8924 -1.3964  1.9465
25024SOL     OW87130   6.265   6.140   0.986 -0.4356  0.3550 -0.4347
25024SOL    HW187131   6.325   6.155   0.907  0.4885 -0.2194  0.1526
25024SOL    HW287132   6.268   6.044   1.013 -0.7932  0.5387  0.2757
25025SOL     OW87133   6.697   7.101   6.058 -0.0100  0.3059 -0.1830
25025SOL    HW187134   6.660   7.177   6.112  2.2037  1.3848 -0.1185
25025SOL    HW287135   6.792   7.084   6.086 -0.4126 -2.3742 -0.3404
25026SOL     OW87136   2.943   0.327   2.431 -0.7463 -0.2802 -0.0863
25026SOL    HW187137   2.992   0.410   2.404 -0.1890 -0.2030  1.1521
25026SOL    HW287138   2.845   0.339   2.411 -0.7256  0.8265  0.4570
25027SOL     OW87139   9.155   4.685   4.281  0.1590  0.0314 -1.0582
25027SOL    HW187140   9.202   4.667   4.195  1.4502  0.3783 -0.4342
25027SOL    HW287141   9.189   4.771   4.321 -2.0273  1.0339 -1.3015
25028SOL     OW87142   9.337   5.031   6.213  0.4566  0.2941  0.1127
25028SOL    HW187143   9.347   5.113   6.268 -2.3596  1.8024 -1.5299
25028SOL    HW287144   9.242   5.022   6.182  1.5227 -1.4716 -2.9113
25029SOL     OW87145   2.656   5.624   5.109 -0.3078 -0.4305 -0.3261
25029SOL    HW187146   2.694   5.539   5.072  1.3577 -0.1856  0.7454
25029SOL    HW287147   2.719   5.699   5.091  0.3927 -0.2536  2.6260
25030SOL     OW87148   0.704   4.721   8.463  0.1184  0.1219 -0.1130
25030SOL    HW187149   0.780   4.686   8.518  0.9663  0.5292 -0.9976
25030SOL    HW287150   0.652   4.644   8.425  0.8957 -0.1715 -0.5925
25031SOL     OW87151   7.035   6.976   4.629 -0.1732  0.0154 -0.2306
25031SOL    HW187152   6.938   6.998   4.618 -0.2926 -0.7959 -0.8639
25031SOL    HW287153   7.047   6.914   4.706 -0.2796 -0.7009 -0.7892
25032SOL     OW87154   4.946   5.869   7.807 -0.1212 -0.1752 -0.3701
25032SOL    HW187155   4.986   5.791   7.760  0.0195  0.6221 -1.5824
25032SOL    HW287156   4.908   5.932   7.740 -0.5073  0.6544  0.6221
25033SOL     OW87157   2.121   2.340   5.817 -0.0285 -0.2636 -0.4923
25033SOL    HW187158   2.113   2.376   5.724  0.6577 -0.5951 -0.6805
25033SOL    HW287159   2.079   2.404   5.881 -0.2773  0.0852 -1.0021
25034SOL     OW87160   3.520   4.196   5.539  0.3029 -0.3234 -0.0581
25034SOL    HW187161   3.497   4.101   5.557  2.0400 -0.8506 -0.5143
25034SOL    HW287162   3.465   4.256   5.597 -1.3040 -1.5605 -0.2692
25035SOL     OW87163   5.661   4.081   0.518  0.5409 -0.0199  0.2102
25035SOL    HW187164   5.702   4.085   0.610 -2.2364 -2.5921  1.6631
25035SOL    HW287165   5.677   3.991   0.478 -0.8555  0.0430 -0.5411
25036SOL     OW87166   0.643   2.005   3.940 -0.3609  0.4066  0.2983
25036SOL    HW187167   0.653   2.021   4.038  4.6548 -0.1528 -0.0051
25036SOL    HW287168   0.686   2.080   3.889  0.4626 -1.1739 -1.4001
25037SOL     OW87169   4.541   4.013   5.387 -0.3464 -0.3155 -0.2702
25037SOL    HW187170   4.468   3.955   5.351 -1.0226  1.3299 -1.6114
25037SOL    HW287171   4.505   4.067   5.463 -0.6896  0.8866 -1.2758
25038SOL     OW87172   4.208   7.069   9.416 -0.2528  0.0777 -0.0049
25038SOL    HW187173   4.223   7.045   9.320  0.3023 -0.9175  0.3240
25038SOL    HW287174   4.116   7.041   9.443 -0.0860 -0.4712  0.0018
25039SOL     OW87175   6.553   1.086   5.233  0.0121  0.2509 -0.7188
25039SOL    HW187176   6.629   1.096   5.170 -1.2558 -0.4048 -2.3955
25039SOL    HW287177   6.576   1.129   5.320  1.7319  1.3213 -1.6735
25040SOL     OW87178   9.510   3.813   0.699 -0.2421  0.0628  0.4098
25040SOL    HW187179   9.468   3.732   0.658  0.9299 -0.6937  0.6537
25040SOL    HW287180   9.532   3.793   0.795 -2.3106  1.5685  1.2150
25041SOL     OW87181   7.844   4.459   1.787 -0.2338 -0.3215  0.6507
25041SOL    HW187182   7.829   4.511   1.871  0.5185  2.3285 -0.7863
25041SOL    HW287183   7.942   4.446   1.773 -0.4191 -2.3984  1.1144
25042SOL     OW87184   9.103   9.596   1.766 -0.1962  0.0653 -0.6245
25042SOL    HW187185   9.093   9.628   1.860 -1.2008 -0.0067 -0.7001
25042SOL    HW287186   9.015   9.599   1.720 -0.1178 -1.8466 -0.9502
25043SOL     OW87187   5.052   9.414   1.289 -1.0343  0.1979  0.0826
25043SOL    HW187188   5.108   9.497   1.287 -1.0652  0.1992 -0.6286
25043SOL    HW287189   5.091   9.345   1.228 -1.5233  0.0123 -0.0236
25044SOL     OW87190   2.630   8.604   0.802  0.0059  0.6976  0.9153
25044SOL    HW187191   2.644   8.525   0.742 -1.8583 -0.0668  1.4581
25044SOL    HW287192   2.661   8.687   0.756  0.6741 -0.1715 -0.2208
25045SOL     OW87193   1.304   9.881   8.429 -0.2398 -0.3820 -0.3793
25045SOL    HW187194   1.312   9.967   8.380 -0.6545  0.1469  0.4692
25045SOL    HW287195   1.221   9.834   8.399  0.0478 -0.5503 -0.9282
25046SOL     OW87196   4.443   3.243   0.091 -0.1211  0.6190 -0.0104
25046SOL    HW187197   4.396   3.323   0.128 -1.7361  0.9560 -2.6399
25046SOL    HW287198   4.376   3.175   0.062  1.2477 -2.4192  3.5895
25047SOL     OW87199   5.439   0.213   7.849  0.3771 -0.1549 -0.5936
25047SOL    HW187200   5.455   0.124   7.807  1.5574  0.5011 -1.5489
25047SOL    HW287201   5.497   0.223   7.930  0.1708 -0.2856 -0.4279
25048SOL     OW87202   8.157   3.734   5.203 -0.1947 -0.6683  0.4402
25048SOL    HW187203   8.212   3.800   5.254 -0.4063 -0.8086  0.8511
25048SOL    HW287204   8.184   3.641   5.229 -1.8303 -0.7289  1.9385
25049SOL     OW87205   2.951   7.286   5.767  0.4124  0.4266  0.3126
25049SOL    HW187206   2.854   7.262   5.769  0.7713 -1.1174  0.2155
25049SOL    HW287207   2.992   7.249   5.684  0.9082  1.8032 -0.0627
25050SOL     OW87208   2.613   6.964   9.919  0.6238 -0.3689  0.2064
25050SOL    HW187209   2.585   7.059   9.904  0.2813 -0.9428 -3.3363
25050SOL    HW287210   2.621   6.918   9.831 -1.5834 -4.3119  1.9254
25051SOL     OW87211   4.120   1.988   1.136 -0.9762  0.1066 -0.1606
25051SOL    HW187212   4.195   2.053   1.151 -1.0394 -0.0420  0.8797
25051SOL    HW287213   4.093   1.989   1.040  0.1269  0.4205 -0.4736
25052SOL     OW87214   8.493   6.579   6.609  0.4263  0.1986  0.1025
25052SOL    HW187215   8.570   6.525   6.641  0.3318 -0.0774 -0.1317
25052SOL    HW287216   8.493   6.668   6.654  1.2206  0.4201 -0.3274
25053SOL     OW87217   0.655   1.754   9.081  0.6568  0.3999 -0.1534
25053SOL    HW187218   0.596   1.783   9.157  2.2488 -2.0380  2.0783
25053SOL    HW287219   0.603   1.694   9.020  0.4883 -0.8218  1.1806
25054SOL     OW87220   3.845   8.484   9.954 -0.5613 -0.2389  0.6787
25054SOL    HW187221   3.896   8.404   9.923 -0.0669  0.8307 -1.4012
25054SOL    HW287222   3.909   8.554   9.986 -0.9052 -0.1152  1.0988
25055SOL     OW87223   4.524   4.814   7.415  0.7517  0.2385 -0.1370
25055SOL    HW187224   4.459   4.870   7.364  3.4154  3.9022  0.2622
25055SOL    HW287225   4.601   4.790   7.357  1.0845 -0.4174  0.5673
25056SOL     OW87226   1.213   6.811   7.048 -0.0545 -0.3322  0.1419
25056SOL    HW187227   1.223   6.869   7.129 -1.3273 -0.7728  0.6273
25056SOL    HW287228   1.120   6.775   7.044  0.3329 -1.2518 -0.8991
25057SOL     OW87229   3.609   0.264   8.283 -0.5099  0.1214 -0.3568
25057SOL    HW187230   3.612   0.168   8.255  0.7709  0.0433  0.0021
25057SOL    HW287231   3.671   0.318   8.226  0.5652  0.3123  0.9621
25058SOL     OW87232   3.730   1.287   1.229  0.1570 -0.0304  0.7529
25058SOL    HW187233   3.645   1.296   1.178 -0.7244 -2.2283  1.7463
25058SOL    HW287234   3.712   1.306   1.326  0.8462 -0.2727  0.9272
25059SOL     OW87235   4.168   7.681   3.076 -0.0500  0.1996  0.4638
25059SOL    HW187236   4.153   7.677   2.978  2.8328 -0.7377  0.0253
25059SOL    HW287237   4.191   7.774   3.103 -0.5241  0.3904  0.2164
25060SOL     OW87238   3.085   5.941   9.664  0.0402  0.3541  0.9344
25060SOL    HW187239   3.138   6.021   9.691 -0.4875  1.3833 -0.9806
25060SOL    HW287240   3.074   5.940   9.565 -1.1392 -1.3536  1.0542
25061SOL     OW87241   0.582   6.988   6.605  0.4017  0.7408  0.0284
25061SOL    HW187242   0.554   6.971   6.511  0.9785  0.8578 -0.1651
25061SOL    HW287243   0.501   7.003   6.662  0.0113 -0.1533 -0.2870
25062SOL     OW87244   0.020   9.933   9.575 -0.0796 -0.0503  0.3067
25062SOL    HW187245  -0.028   9.878   9.643  2.1833 -0.6193  1.5046
25062SOL    HW287246   0.037   9.878   9.493 -0.0368 -0.3549  0.5196
25063SOL     OW87247   1.820   8.863   7.209  0.3191  0.2173  0.2248
25063SOL    HW187248   1.914   8.879   7.238  0.3619  0.0320  0.1888
25063SOL    HW287249   1.812   8.771   7.168  0.2670  0.4924 -0.3907
25064SOL     OW87250   7.142   8.319   3.581  0.2448 -0.3877  0.1063
25064SOL    HW187251   7.070   8.362   3.636  1.1976  0.8123  0.4435
25064SOL    HW287252   7.102   8.277   3.500 -0.9699 -0.7042  0.8612
25065SOL     OW87253   6.260   8.169   3.732  0.1694 -0.5447  0.0175
25065SOL    HW187254   6.254   8.105   3.808 -2.3754 -2.3048 -1.6155
25065SOL    HW287255   6.230   8.260   3.761 -0.1727 -1.0538  1.2439
25066SOL     OW87256   3.019   5.513   2.440  0.7095 -0.1428  0.5869
25066SOL    HW187257   3.071   5.451   2.382  1.2231 -0.4611  1.3820
25066SOL    HW287258   2.921   5.497   2.427  0.8288 -0.5219  0.1457
25067SOL     OW87259   8.100   0.665   3.359 -0.5812 -0.0787  0.2707
25067SOL    HW187260   8.040   0.678   3.438 -1.4820  0.4391 -0.4841
25067SOL    HW287261   8.105   0.750   3.307  0.7329 -0.1506  0.2681
25068SOL     OW87262   8.644   5.807   8.525 -0.1826  0.1311 -0.3231
25068SOL    HW187263   8.564   5.851   8.566 -0.0953 -0.1088  0.1160
25068SOL    HW287264   8.618   5.718   8.489 -0.4690  0.7434 -1.6593
25069SOL     OW87265   1.395   8.475   4.063 -0.3797  0.1233 -0.3970
25069SOL    HW187266   1.474   8.424   4.028 -0.8645 -0.4108 -0.7258
25069SOL    HW287267   1.386   8.460   4.161 -1.3722 -1.6055 -0.7365
25070SOL     OW87268   3.522   1.352   8.435 -0.3576 -0.0748  0.4191
25070SOL    HW187269   3.595   1.294   8.399 -1.0024 -0.2721 -0.5954
25070SOL    HW287270   3.559   1.440   8.461  0.2610 -0.2044 -0.0198
25071SOL     OW87271   4.769   3.527   7.691  0.5805  0.2489 -0.3888
25071SOL    HW187272   4.850   3.513   7.634  1.0338  1.7915 -0.1461
25071SOL    HW287273   4.797   3.560   7.781 -0.3067  0.8112 -0.3113
25072SOL     OW87274   7.380   2.299   4.726  0.0892  0.3703 -0.1411
25072SOL    HW187275   7.353   2.249   4.644  2.9197  1.8696 -2.0783
25072SOL    HW287276   7.475   2.277   4.749 -0.3343  0.7831  2.1359
25073SOL     OW87277   9.073   1.084   6.513  0.2239  0.0258 -0.0400
25073SOL    HW187278   9.109   1.141   6.440  0.0828 -0.4635 -0.4907
25073SOL    HW287279   8.973   1.082   6.508  0.0595  2.0329  1.6907
25074SOL     OW87280   6.126   4.464   1.303 -0.6688  0.1975  0.1196
25074SOL    HW187281   6.079   4.387   1.260 -0.0920  0.1334 -0.4188
25074SOL    HW287282   6.059   4.531   1.336 -1.1177  0.5950 -1.5450
25075SOL     OW87283   3.928   8.710   9.667  0.0233 -0.0540 -0.1476
25075SOL    HW187284   3.972   8.644   9.605 -0.6804  0.0471 -0.7551
25075SOL    HW287285   3.829   8.696   9.666 -0.1192  0.9065 -0.1626
25076SOL     OW87286   8.261   2.932   8.151  0.4495  0.0920  0.2347
25076SOL    HW187287   8.211   2.889   8.227  0.3554 -0.0839  0.0717
25076SOL    HW287288   8.358   2.938   8.174  0.4573 -0.1846  0.2648
25077SOL     OW87289   7.802   1.565   2.318 -0.3587 -0.1852 -0.3562
25077SOL    HW187290   7.868   1.571   2.243 -0.6454  2.1895 -0.4494
25077SOL    HW287291   7.716   1.607   2.291 -0.6646  0.1416  1.0804
25078SOL     OW87292   5.289   9.144   1.771 -0.1551  0.9320  0.3322
25078SOL    HW187293   5.268   9.101   1.859 -0.2359  1.2472  0.4683
25078SOL    HW287294   5.300   9.242   1.784 -1.8971  1.2272 -0.3131
25079SOL     OW87295   8.811   6.878   3.567  0.2212 -0.0933 -0.9522
25079SOL    HW187296   8.861   6.810   3.621 -0.7343  1.0436  1.4357
25079SOL    HW287297   8.875   6.936   3.518  1.1872  0.1749  0.6041
25080SOL     OW87298   4.512   5.338   3.015 -0.2178  0.0997  0.0998
25080SOL    HW187299   4.540   5.339   2.919  0.3428  0.2982  0.2661
25080SOL    HW287300   4.418   5.304   3.021 -0.4299  0.5440 -0.5650
25081SOL     OW87301   8.577   5.640   4.960  0.1472 -0.3869  0.0222
25081SOL    HW187302   8.601   5.707   4.891  0.3520 -0.1222  0.3527
25081SOL    HW287303   8.639   5.562   4.954  1.1634  0.3430  0.9467
25082SOL     OW87304   6.610   5.512   1.793  0.3623 -0.0177  0.1828
25082SOL    HW187305   6.542   5.451   1.834 -0.1938 -0.4030 -1.2536
25082SOL    HW287306   6.657   5.564   1.864 -0.0807 -1.1707  1.3317
25083SOL     OW87307   9.873   8.768   2.669 -0.4635 -0.0255 -0.6241
25083SOL    HW187308   9.845   8.853   2.713 -0.6286 -0.0640 -0.6531
25083SOL    HW287309   9.927   8.789   2.587 -1.8326  0.0885 -1.5171
25084SOL     OW87310   7.732   2.755   8.698  0.1692 -0.4842 -0.2076
25084SOL    HW187311   7.719   2.820   8.772 -3.2303 -2.6149  1.2324
25084SOL    HW287312   7.768   2.802   8.617  1.3923  2.3768  1.9105
25085SOL     OW87313   8.560   0.685   9.513  0.6265 -0.0363 -0.5696
25085SOL    HW187314   8.599   0.727   9.431 -0.2772  0.6866 -0.6365
25085SOL    HW287315   8.552   0.586   9.500 -0.5524  0.2039 -1.7921
25086SOL     OW87316   1.636   0.444   6.017 -0.3375 -0.5530  0.6341
25086SOL    HW187317   1.730   0.428   6.047  0.8894 -1.6745 -3.4599
25086SOL    HW287318   1.572   0.402   6.082  2.0497 -1.3005  2.5540
25087SOL     OW87319   9.891   6.524   2.578  0.2577  0.0558 -0.2273
25087SOL    HW187320   9.865   6.442   2.631  0.5430  0.3819  0.4276
25087SOL    HW287321   9.983   6.552   2.604  0.7356 -0.2842 -1.5463
25088SOL     OW87322   1.915   0.262   2.204 -0.0364  0.1959 -0.3993
25088SOL    HW187323   1.909   0.163   2.217 -3.5188  0.4097 -0.0204
25088SOL    HW287324   1.913   0.308   2.293 -3.5681  0.7838 -0.7248
25089SOL     OW87325   5.355   8.257   3.793 -0.0788 -0.3399 -0.2082
25089SOL    HW187326   5.397   8.347   3.775 -0.1431 -0.1460  0.6045
25089SOL    HW287327   5.296   8.232   3.716 -1.3389  1.0607  0.2723
25090SOL     OW87328   7.351   7.687   3.577 -0.3537  0.2456 -0.0923
25090SOL    HW187329   7.401   7.612   3.620 -0.0794 -0.2802 -1.3199
25090SOL    HW287330   7.409   7.768   3.573 -0.1922  0.1370  0.0347
25091SOL     OW87331   3.216   5.493   5.925 -0.3151 -0.3313  0.1373
25091SOL    HW187332   3.221   5.586   5.962  0.8880 -0.5630  0.5719
25091SOL    HW287333   3.185   5.496   5.830  0.4391  0.5749 -0.0863
25092SOL     OW87334   7.671   6.515   5.934  0.2197  0.3117 -0.6693
25092SOL    HW187335   7.714   6.572   6.004  0.0680  3.4140 -2.9649
25092SOL    HW287336   7.730   6.438   5.912  1.4723  0.7869  0.9936
25093SOL     OW87337   8.719   8.915   1.918 -0.2374 -0.3861 -0.3067
25093SOL    HW187338   8.701   9.010   1.893 -0.3480 -0.9750 -2.6210
25093SOL    HW287339   8.798   8.882   1.867 -0.2629 -1.5764  0.4048
25094SOL     OW87340   9.315   8.422   0.503  0.4148  0.2823  0.1587
25094SOL    HW187341   9.374   8.368   0.564  0.6369  1.1556  0.7298
25094SOL    HW287342   9.320   8.384   0.411  2.1849  0.5768  0.1024
25095SOL     OW87343   3.547   7.846   1.665  0.2346  0.3012  0.1805
25095SOL    HW187344   3.536   7.779   1.592  0.6540  0.4690 -0.0328
25095SOL    HW287345   3.498   7.930   1.641 -0.1932  0.1188  0.3963
25096SOL     OW87346   2.591   7.224   9.883  0.9095  0.3434 -0.2146
25096SOL    HW187347   2.636   7.300   9.931  2.2596  0.2619 -1.2941
25096SOL    HW287348   2.496   7.248   9.864  1.8686  2.7114 -2.4188
25097SOL     OW87349   3.412   6.234   5.648  0.1789  0.5346 -0.4065
25097SOL    HW187350   3.462   6.215   5.733  0.1283  2.0044 -0.0400
25097SOL    HW287351   3.476   6.229   5.571  0.2109 -0.8737 -0.3078
25098SOL     OW87352   9.285   4.406   1.821 -0.6693  0.8044 -0.4850
25098SOL    HW187353   9.186   4.390   1.826 -0.3481 -1.0650  0.3069
25098SOL    HW287354   9.316   4.385   1.728 -0.6973 -0.6002 -0.1857
25099SOL     OW87355   8.916   0.213   9.069 -0.4271 -0.2158  0.0053
25099SOL    HW187356   8.894   0.134   9.011 -0.6373 -0.0437 -0.1512
25099SOL    HW287357   8.950   0.181   9.157 -0.1959 -0.4810 -0.1778
25100SOL     OW87358   1.350   8.096   3.738  0.2903  0.0723  0.3069
25100SOL    HW187359   1.307   8.182   3.765  1.3734  1.2930 -1.7548
25100SOL    HW287360   1.429   8.115   3.680  0.5837 -2.3075 -0.1227
25101SOL     OW87361   7.269   9.161   6.777  0.7162  0.1044 -0.0701
25101SOL    HW187362   7.269   9.081   6.837  1.2060  0.1468 -0.0117
25101SOL    HW287363   7.180   9.170   6.733  0.3768  0.0348  0.6038
25102SOL     OW87364   8.007   6.336   3.568  0.1126 -0.4170 -0.2324
25102SOL    HW187365   8.008   6.395   3.488 -0.8964 -1.0060 -0.6924
25102SOL    HW287366   8.097   6.294   3.580  0.6603  0.7364 -0.2468
25103SOL     OW87367   7.625   8.132   0.960  0.2747 -0.3462 -0.1385
25103SOL    HW187368   7.587   8.215   0.918  1.0343  0.0178 -0.1065
25103SOL    HW287369   7.604   8.132   1.058  1.4498  0.4828  0.1210
25104SOL     OW87370   9.008   6.940   5.629  0.3838  0.0609 -0.0074
25104SOL    HW187371   9.011   6.885   5.712  0.6506 -0.2085 -0.1970
25104SOL    HW287372   8.926   6.917   5.577 -0.4966  1.2011  0.8533
25105SOL     OW87373   9.816   9.745   3.021  0.2820 -0.5907  0.4645
25105SOL    HW187374   9.912   9.741   3.047  0.0071 -2.5396  1.2538
25105SOL    HW287375   9.781   9.652   3.007 -1.5872  0.0693  0.5825
25106SOL     OW87376   8.575   8.708   1.402  0.7807 -0.0821  0.2647
25106SOL    HW187377   8.523   8.695   1.487  1.2941  0.4956  0.6753
25106SOL    HW287378   8.617   8.621   1.375  1.8909  0.0613  1.4630
25107SOL     OW87379   6.933   1.310   3.968 -0.5711 -0.0052 -0.1228
25107SOL    HW187380   7.031   1.301   3.951 -0.3841  1.2024  0.2934
25107SOL    HW287381   6.884   1.237   3.919  0.3832  0.3995 -1.7351
25108SOL     OW87382   0.316   7.996   3.344 -0.5008 -0.1237 -0.9027
25108SOL    HW187383   0.380   8.073   3.346  0.0111 -0.4743 -2.5851
25108SOL    HW287384   0.232   8.021   3.393  0.5651  0.6473  0.5794
25109SOL     OW87385   0.980   2.955   5.252 -0.1952 -0.1845 -0.1664
25109SOL    HW187386   0.930   3.040   5.269 -0.1350 -0.1607 -0.1102
25109SOL    HW287387   1.071   2.976   5.217  0.2291 -0.2029  0.9046
25110SOL     OW87388   8.678   4.442   0.452  0.1479  0.1759  0.1309
25110SOL    HW187389   8.612   4.430   0.526 -0.4109  0.9347 -0.2445
25110SOL    HW287390   8.655   4.380   0.377 -0.7312  1.1325 -0.4058
25111SOL     OW87391   6.756   7.877   4.788  0.4495  0.2151  0.2076
25111SOL    HW187392   6.755   7.945   4.861  0.7338 -1.6673  2.0182
25111SOL    HW287393   6.840   7.887   4.734 -0.2286  2.2516 -0.5453
25112SOL     OW87394   0.481   9.475   2.231  0.1124 -0.1942  0.2906
25112SOL    HW187395   0.541   9.545   2.192 -0.4865  0.5936  0.7724
25112SOL    HW287396   0.519   9.444   2.318  0.3879 -0.4979  0.0673
25113SOL     OW87397   9.935   1.808   0.870 -0.1969 -0.0424  0.1049
25113SOL    HW187398   9.902   1.871   0.799 -1.3990  0.0724  0.7461
25113SOL    HW287399   9.922   1.714   0.838 -1.0194  0.0038  0.2819
25114SOL     OW87400   5.444   1.298   4.898 -0.2715  0.4705 -0.4176
25114SOL    HW187401   5.386   1.217   4.904 -0.8675  0.9597  0.6209
25114SOL    HW287402   5.533   1.279   4.940 -0.7586  0.6409  0.7254
25115SOL     OW87403   6.553   4.610   1.712 -0.4403  0.0427 -0.4031
25115SOL    HW187404   6.599   4.607   1.801 -0.6764 -1.0745 -0.3056
25115SOL    HW287405   6.593   4.541   1.651 -0.1116  0.9720 -1.2464
25116SOL     OW87406   2.785   7.729   8.959 -0.5754  0.7021  0.3479
25116SOL    HW187407   2.755   7.811   9.009 -2.4059  0.4891 -0.3756
25116SOL    HW287408   2.714   7.701   8.895 -0.0163 -1.5233  0.6539
25117SOL     OW87409   1.219   0.720   5.447 -0.0726  0.0540  0.1249
25117SOL    HW187410   1.307   0.682   5.474 -0.3147 -0.9111 -0.4154
25117SOL    HW287411   1.191   0.791   5.513  1.0081  0.2323  0.3921
25118SOL     OW87412   0.490   4.849   7.704 -0.3666  0.2563  0.6405
25118SOL    HW187413   0.505   4.906   7.785  1.7565  0.5271  0.1036
25118SOL    HW287414   0.520   4.755   7.723 -0.0361  0.2774  0.2451
25119SOL     OW87415   5.925   9.403   7.415 -0.7117 -0.2398  0.1100
25119SOL    HW187416   5.953   9.334   7.349  0.3447  0.4532 -0.1751
25119SOL    HW287417   6.000   9.468   7.431 -2.3186  1.9977 -1.1105
25120SOL     OW87418   1.256   4.581   0.640 -0.1217  0.2912 -0.0097
25120SOL    HW187419   1.239   4.678   0.657  0.2020  0.3412  0.0254
25120SOL    HW287420   1.168   4.532   0.638 -0.2619  0.5242  0.3375
25121SOL     OW87421   9.754   4.998  10.066  0.1958 -0.4682 -0.0830
25121SOL    HW187422   9.764   4.994   9.967  0.0449  0.0816 -0.1229
25121SOL    HW287423   9.808   5.075  10.102 -0.5714 -0.0346  0.1465
25122SOL     OW87424   5.196   1.138   5.845 -0.0385 -0.3818  0.2073
25122SOL    HW187425   5.263   1.134   5.771 -0.4522 -1.2440 -0.1278
25122SOL    HW287426   5.111   1.096   5.815 -0.7681  0.8035  0.5969
25123SOL     OW87427   7.257   8.290   4.692 -0.0560  0.3131 -0.0481
25123SOL    HW187428   7.284   8.378   4.653  0.7277  0.2787  0.4245
25123SOL    HW287429   7.233   8.301   4.788 -1.0708  0.2193 -0.2838
25124SOL     OW87430   9.566   7.019   0.008 -0.6147 -0.8022  0.0154
25124SOL    HW187431   9.618   7.038   0.091 -1.4909 -1.0048  0.6182
25124SOL    HW287432   9.574   6.921  -0.014 -0.3313 -0.7367 -0.1732
25125SOL     OW87433   2.802   0.632   6.022  0.2732  0.3424  0.3398
25125SOL    HW187434   2.711   0.672   6.035  0.1367  0.2873 -0.4109
25125SOL    HW287435   2.842   0.668   5.938  0.5789 -0.3212  0.2027
25126SOL     OW87436   8.177   5.176   0.506  0.0521 -0.3730  0.1140
25126SOL    HW187437   8.270   5.139   0.513 -0.5465 -2.4308 -2.0336
25126SOL    HW287438   8.114   5.103   0.480 -1.8289  1.4350 -0.5658
25127SOL     OW87439   6.361   8.488   6.731 -0.1066  0.2769 -0.0082
25127SOL    HW187440   6.431   8.451   6.671  0.4173  0.9373  0.1982
25127SOL    HW287441   6.402   8.550   6.798 -0.9257  0.9863 -0.1388
25128SOL     OW87442   5.802   5.772   1.786 -0.1536 -0.6336 -0.0410
25128SOL    HW187443   5.754   5.696   1.742 -0.9375  0.6853 -1.4967
25128SOL    HW287444   5.736   5.827   1.838  0.6213 -1.6855  2.1529
25129SOL     OW87445   9.113   5.742   6.477  0.2841 -0.1284 -0.5062
25129SOL    HW187446   9.177   5.812   6.446 -0.0214  0.5756  0.4009
25129SOL    HW287447   9.155   5.687   6.549 -0.1510  0.4028  0.1649
25130SOL     OW87448   6.831   6.457   5.196 -0.0937 -0.1097 -0.0383
25130SOL    HW187449   6.880   6.527   5.247 -0.2076  1.5055 -2.0895
25130SOL    HW287450   6.749   6.430   5.246  0.9141 -0.1543  1.6450
25131SOL     OW87451   3.007   3.412   6.127 -0.6658 -0.2741  0.6065
25131SOL    HW187452   3.044   3.350   6.058 -1.9065  0.2989 -0.5719
25131SOL    HW287453   3.027   3.375   6.218  1.6061 -0.6649 -0.0168
25132SOL     OW87454   9.126   5.407   8.179 -0.1171  0.0958  0.1536
25132SOL    HW187455   9.087   5.439   8.266  0.1980 -0.3164  0.4527
25132SOL    HW287456   9.100   5.311   8.165  0.5279 -0.0901  0.2056
25133SOL     OW87457   2.377   1.071   7.334 -0.0118  0.3221  0.4303
25133SOL    HW187458   2.449   1.086   7.401 -0.2122 -0.4200  0.8274
25133SOL    HW287459   2.368   1.151   7.275  0.3015  0.9064  1.1659
25134SOL     OW87460   1.709   9.049   4.681  1.1088 -0.3698 -0.4486
25134SOL    HW187461   1.755   9.124   4.636  2.2087  0.1886  1.5415
25134SOL    HW287462   1.696   8.973   4.617  1.2452  0.9680 -2.0736
25135SOL     OW87463   5.617   5.340   7.878 -0.2624 -0.2804  0.1180
25135SOL    HW187464   5.619   5.370   7.782 -1.3178 -0.7354 -0.0527
25135SOL    HW287465   5.557   5.261   7.886 -1.9862  1.1521  1.5615
25136SOL     OW87466   8.024   0.141   6.094  0.3940 -0.3852  0.4017
25136SOL    HW187467   8.120   0.123   6.072  0.5865 -1.7816  2.2566
25136SOL    HW287468   8.019   0.186   6.184 -0.6645  0.1949  0.0582
25137SOL     OW87469   7.163   8.006   6.343 -0.0761 -0.1492 -0.5385
25137SOL    HW187470   7.063   7.993   6.343 -0.3937  2.0231 -0.7175
25137SOL    HW287471   7.196   8.008   6.249  0.0836 -0.5778 -0.4896
25138SOL     OW87472   2.669   1.555   8.413  0.5004 -0.3074 -0.3825
25138SOL    HW187473   2.709   1.520   8.328 -0.6035 -0.2767 -0.9210
25138SOL    HW287474   2.659   1.481   8.479 -0.7547 -0.7852 -1.1015
25139SOL     OW87475   0.490   2.465   1.370  0.0356 -0.3926  0.4802
25139SOL    HW187476   0.572   2.422   1.408  0.7262  0.4667 -0.0151
25139SOL    HW287477   0.479   2.440   1.274 -1.1356 -1.7274  0.9456
25140SOL     OW87478   2.774   0.592   5.247  0.0168  0.5909  0.3185
25140SOL    HW187479   2.832   0.603   5.328 -0.9981  0.8155  1.0397
25140SOL    HW287480   2.678   0.585   5.277 -0.2082 -1.0217 -0.7582
25141SOL     OW87481   3.160   3.364   8.005  0.4540  0.3772 -0.4857
25141SOL    HW187482   3.100   3.321   7.938  0.2488 -1.3475  0.7481
25141SOL    HW287483   3.215   3.435   7.961 -1.7759  1.2908 -1.8283
25142SOL     OW87484   3.816   2.811   5.894 -0.1898  0.1468  0.2660
25142SOL    HW187485   3.765   2.741   5.943  1.3762 -0.1319  1.5479
25142SOL    HW287486   3.892   2.768   5.845  1.3145  1.0387  1.7817
25143SOL     OW87487   7.988   9.519   7.968  0.4637  0.0942 -0.3501
25143SOL    HW187488   8.007   9.422   7.952  0.1437 -0.1520  0.7251
25143SOL    HW287489   8.074   9.569   7.979  0.6004 -0.2234  0.0081
25144SOL     OW87490   3.317   2.029   3.561  0.0274  0.7195 -1.2452
25144SOL    HW187491   3.326   1.934   3.530  0.4997  0.3046  0.1198
25144SOL    HW287492   3.312   2.031   3.661 -0.5253  2.0992 -1.2857
25145SOL     OW87493   1.873   6.360   9.582 -0.7840 -0.2209 -0.3634
25145SOL    HW187494   1.883   6.304   9.665  0.6017 -1.3534 -1.2479
25145SOL    HW287495   1.956   6.415   9.570 -1.1084  0.1612 -0.8187
25146SOL     OW87496   8.343   1.195   9.252  0.0584  0.1469 -0.6428
25146SOL    HW187497   8.396   1.262   9.200  1.2731  0.0863  0.4909
25146SOL    HW287498   8.253   1.232   9.274  1.0069  1.7281  0.6650
25147SOL     OW87499   9.117   2.686   2.902 -0.1381  0.0741  0.1476
25147SOL    HW187500   9.132   2.589   2.881  1.7532  0.6801 -1.4765
25147SOL    HW287501   9.152   2.706   2.993  1.0574 -0.4097 -0.1993
25148SOL     OW87502   2.696   9.619   1.248  0.1276 -0.3429  0.1526
25148SOL    HW187503   2.712   9.684   1.323 -4.3930  1.8251 -0.6333
25148SOL    HW287504   2.625   9.553   1.276 -0.5216 -0.4351 -1.6934
25149SOL     OW87505   9.408   0.874   4.120 -0.2454  0.2545 -0.2239
25149SOL    HW187506   9.418   0.800   4.187  0.7335  0.5304 -0.0455
25149SOL    HW287507   9.348   0.844   4.046  0.9078 -1.0894 -0.6576
25150SOL     OW87508   2.061   6.089   8.082  0.5310 -0.1653  0.1138
25150SOL    HW187509   2.151   6.071   8.042  0.3510  1.4874 -1.0966
25150SOL    HW287510   2.064   6.174   8.135  0.0123 -0.7992  1.1837
25151SOL     OW87511   5.596   0.612   6.716 -0.1604  0.1933 -0.4521
25151SOL    HW187512   5.564   0.529   6.761 -1.2830  0.7583 -0.1715
25151SOL    HW287513   5.689   0.599   6.682 -0.5326 -1.3506 -0.8928
25152SOL     OW87514   5.629   8.895   4.107  0.5548 -0.0781  0.9157
25152SOL    HW187515   5.530   8.889   4.120  0.7394 -0.7785  2.0521
25152SOL    HW287516   5.672   8.933   4.188  1.0766  1.7678 -0.1952
25153SOL     OW87517   5.556   8.995   2.445 -0.2742  0.2967  0.0146
25153SOL    HW187518   5.516   8.945   2.368 -0.2318 -0.2288  0.3335
25153SOL    HW287519   5.649   8.961   2.462  0.7210  2.2035 -1.3718
25154SOL     OW87520   3.975   0.042   6.851  0.2110  0.2478  0.1876
25154SOL    HW187521   3.922   0.109   6.800 -0.9961 -0.7547  0.0855
25154SOL    HW287522   4.072   0.050   6.827 -0.1408  0.8305 -1.0632
25155SOL     OW87523   1.713   6.466   0.116  0.3059 -0.6027  0.6831
25155SOL    HW187524   1.751   6.555   0.090  1.0663 -1.4502 -1.1911
25155SOL    HW287525   1.767   6.428   0.191  1.0885 -0.2731  0.2987
25156SOL     OW87526   1.466   1.083   2.878  0.3400 -0.6037  0.2821
25156SOL    HW187527   1.446   1.052   2.785 -2.0821 -1.5924  1.0869
25156SOL    HW287528   1.446   1.010   2.943 -1.6174  1.2852  1.8815
25157SOL     OW87529   8.960   4.906   8.720 -0.3970 -0.8885 -0.1598
25157SOL    HW187530   8.911   4.989   8.694 -2.1682 -1.1472  2.1055
25157SOL    HW287531   9.049   4.930   8.759 -0.3404 -0.1449 -0.7406
25158SOL     OW87532   4.029   7.511   2.679 -0.5212 -0.1084 -0.1747
25158SOL    HW187533   4.083   7.462   2.748 -1.7483 -0.3488  0.6280
25158SOL    HW287534   3.976   7.446   2.625 -0.4915  0.1723 -0.5419
25159SOL     OW87535   8.002   9.698   8.689 -0.8044  0.1052 -0.8339
25159SOL    HW187536   8.096   9.667   8.696 -1.0118 -0.2121  0.6128
25159SOL    HW287537   7.941   9.618   8.688 -1.0782  0.3214 -1.3944
25160SOL     OW87538   8.627   0.495   9.221  0.3897  0.2337  0.4653
25160SOL    HW187539   8.640   0.397   9.204  0.8885  0.0963  1.5532
25160SOL    HW287540   8.715   0.541   9.221  0.2275  0.5492  0.7480
25161SOL     OW87541   0.842   7.299   0.891  0.3452  0.6248 -0.4712
25161SOL    HW187542   0.930   7.347   0.896  0.8079 -0.2199 -0.4006
25161SOL    HW287543   0.826   7.251   0.977  0.4884 -0.3796 -0.9988
25162SOL     OW87544   3.643   1.472   3.757  1.0175  0.8956 -0.0604
25162SOL    HW187545   3.623   1.568   3.775 -0.9587  0.4417  0.2581
25162SOL    HW287546   3.590   1.441   3.678 -0.2183 -0.5591  1.3056
25163SOL     OW87547   9.138   3.860   1.067 -0.3447 -0.1257  0.0450
25163SOL    HW187548   9.060   3.800   1.053 -1.5614  1.7254 -1.3707
25163SOL    HW287549   9.200   3.853   0.989  0.8831 -1.5213  1.1204
25164SOL     OW87550   9.709   1.230   1.768 -0.1140 -0.2315  0.4124
25164SOL    HW187551   9.750   1.290   1.700 -2.4006  1.1946  0.2375
25164SOL    HW287552   9.766   1.230   1.851  1.2105  0.2092 -0.4847
25165SOL     OW87553   6.243   7.415   5.993 -0.5457 -0.0294  0.2758
25165SOL    HW187554   6.317   7.425   5.926  1.1830 -1.1704  1.9596
25165SOL    HW287555   6.156   7.440   5.951  0.7920  1.3296 -1.7553
25166SOL     OW87556   8.013   1.625   5.411  0.4451  0.0606  0.5804
25166SOL    HW187557   7.947   1.694   5.382 -0.4393 -0.6239  0.9564
25166SOL    HW287558   8.102   1.645   5.370 -0.1680  0.5687 -0.5202
25167SOL     OW87559   8.781   0.853   5.758  0.6279  0.1269 -0.0123
25167SOL    HW187560   8.813   0.763   5.788  1.0628 -0.5199 -2.2653
25167SOL    HW287561   8.700   0.841   5.699  0.1752  1.2727  0.3615
25168SOL     OW87562   1.141   1.740   6.297  0.3012 -0.0989  0.2224
25168SOL    HW187563   1.060   1.687   6.323  1.3944 -0.4007  3.1514
25168SOL    HW287564   1.156   1.731   6.198 -2.3343 -1.2710 -0.1136
25169SOL     OW87565   0.063   0.837   0.318 -0.3227 -0.3083  0.3621
25169SOL    HW187566   0.161   0.828   0.335 -0.5437 -1.2072  1.1496
25169SOL    HW287567   0.048   0.852   0.220  0.8205  3.0791  0.6050
25170SOL     OW87568   3.428   5.173   9.929 -0.1181 -0.4974  0.3276
25170SOL    HW187569   3.496   5.128   9.987  1.6975  0.9131 -0.6302
25170SOL    HW287570   3.370   5.104   9.887 -1.2122 -1.5729  3.4538
25171SOL     OW87571   3.900   0.599   5.655 -0.3969 -0.1295 -0.3673
25171SOL    HW187572   3.893   0.573   5.751 -1.6566  0.1692 -0.3740
25171SOL    HW287573   3.861   0.527   5.598 -1.8554  0.7472 -0.5091
25172SOL     OW87574   8.739   2.866   6.468  0.3208 -0.0144 -0.7675
25172SOL    HW187575   8.693   2.926   6.403  0.3546 -2.1752 -2.8407
25172SOL    HW287576   8.672   2.809   6.515  0.3076  1.4585  1.0602
25173SOL     OW87577   0.039   6.082   8.124  0.1166  0.2305 -0.6239
25173SOL    HW187578   0.135   6.074   8.098  0.3784 -2.3913  0.9527
25173SOL    HW287579   0.031   6.139   8.206  0.6139 -1.5187  0.6642
25174SOL     OW87580   9.630   7.154   6.421  0.5591  0.2776 -0.0511
25174SOL    HW187581   9.622   7.056   6.439 -0.2082  0.7488  2.4238
25174SOL    HW287582   9.710   7.190   6.470  0.8343  0.8878 -0.9427
25175SOL     OW87583   2.984   3.481   0.366 -0.2174  0.1095  0.5309
25175SOL    HW187584   2.911   3.544   0.339 -0.1742 -0.2858 -0.5213
25175SOL    HW287585   3.032   3.448   0.285  1.2353  0.4705  1.2138
25176SOL     OW87586   8.762   3.764   8.973 -0.6037  0.6429 -0.4486
25176SOL    HW187587   8.726   3.707   9.047  0.4958  1.7238  0.9747
25176SOL    HW287588   8.743   3.722   8.885 -1.5846 -0.8892  0.4809
25177SOL     OW87589   0.037   8.070   3.494  0.0872 -0.1780 -0.6647
25177SOL    HW187590   0.072   8.061   3.587  0.2176  0.1011 -0.6863
25177SOL    HW287591  -0.033   8.001   3.479 -1.5489  1.2101  0.3926
25178SOL     OW87592   3.871   6.120   0.137  0.6808 -0.0182 -0.0707
25178SOL    HW187593   3.935   6.196   0.151  0.0078  0.5165  0.1346
25178SOL    HW287594   3.868   6.064   0.219 -0.4722  0.9942  0.5933
25179SOL     OW87595   3.461   0.263   0.305 -0.0698  0.7941  0.1252
25179SOL    HW187596   3.430   0.235   0.214 -1.2320 -0.3753  0.8583
25179SOL    HW287597   3.524   0.194   0.341 -1.2654  0.1744  1.0636
25180SOL     OW87598   9.240   9.486   7.829 -0.0422  0.0743  0.4470
25180SOL    HW187599   9.207   9.473   7.735  1.1791  1.4971 -0.1964
25180SOL    HW287600   9.227   9.581   7.856  3.2091  0.6112  0.2807
25181SOL     OW87601   7.526   6.981   6.810 -0.5024  0.3105 -0.3128
25181SOL    HW187602   7.499   7.020   6.722 -2.0635  1.0392  0.4656
25181SOL    HW287603   7.465   6.906   6.835 -0.1980  0.2403  0.2550
25182SOL     OW87604   9.875   1.539   0.738 -0.0250  0.1016  0.4941
25182SOL    HW187605   9.787   1.585   0.730 -1.2919 -2.2805  0.3306
25182SOL    HW287606   9.901   1.501   0.649  0.9113  0.3137  0.6680
25183SOL     OW87607   8.686   2.500   2.027 -0.2464  0.2240  0.3027
25183SOL    HW187608   8.633   2.490   1.943  0.4476  1.8585 -0.3496
25183SOL    HW287609   8.726   2.411   2.052 -2.3057 -0.7674  0.1766
25184SOL     OW87610   2.275   5.357   4.664 -0.0026 -0.1526 -0.0735
25184SOL    HW187611   2.225   5.323   4.744  0.6136 -0.1225  0.3291
25184SOL    HW287612   2.368   5.320   4.665  0.1747  0.2756 -0.4911
25185SOL     OW87613   8.006   2.926   0.512 -0.2382 -0.2507 -0.0393
25185SOL    HW187614   8.018   2.966   0.421 -0.6825  0.5534  0.2536
25185SOL    HW287615   7.985   2.829   0.503 -0.3476 -0.1619 -0.7994
25186SOL     OW87616   5.848   1.408   2.086  0.3012  0.1180 -0.6605
25186SOL    HW187617   5.921   1.342   2.108 -0.2497 -0.4801 -0.6087
25186SOL    HW287618   5.770   1.359   2.048 -0.7397  0.5615  0.8735
25187SOL     OW87619   0.285   1.210   8.769  0.5117 -0.0110  0.3452
25187SOL    HW187620   0.302   1.302   8.806  0.9161 -0.1459  0.5007
25187SOL    HW287621   0.279   1.144   8.844 -2.1595  0.2454  0.3774
25188SOL     OW87622   5.592   8.114   4.322  0.2759 -0.0772  0.2782
25188SOL    HW187623   5.624   8.050   4.252  2.1843 -0.1165  1.1447
25188SOL    HW287624   5.601   8.072   4.412 -1.3882  0.2733  0.6143
25189SOL     OW87625   8.228   1.973  10.012  0.2057 -0.3047  0.0884
25189SOL    HW187626   8.177   2.057   9.992  1.0335 -0.1535 -1.4377
25189SOL    HW287627   8.164   1.904  10.048 -0.6351  0.6634  0.4972
25190SOL     OW87628   4.355   9.804   9.358  0.0781 -0.4058 -0.1969
25190SOL    HW187629   4.373   9.707   9.368  0.0552 -0.2987  0.9278
25190SOL    HW287630   4.276   9.818   9.297  0.9002 -1.0298 -1.4169
25191SOL     OW87631   4.476   7.391   3.442  0.0773 -0.4693  0.0386
25191SOL    HW187632   4.447   7.299   3.470 -0.4821 -0.3524 -0.1564
25191SOL    HW287633   4.464   7.400   3.343 -0.2110 -0.0627  0.1093
25192SOL     OW87634   6.489   3.495   0.966 -0.0068  0.1467 -0.7698
25192SOL    HW187635   6.509   3.530   0.875  0.1355 -0.1408 -0.8501
25192SOL    HW287636   6.390   3.493   0.980  0.0027  1.0819 -0.5644
25193SOL     OW87637   0.368   6.251   3.330 -0.1737  0.1772 -0.1518
25193SOL    HW187638   0.429   6.199   3.271  1.5684  2.5243 -0.4972
25193SOL    HW287639   0.333   6.192   3.403 -0.2850 -2.0678 -1.9894
25194SOL     OW87640   3.459   6.894   4.536  0.1309 -0.3319 -0.0878
25194SOL    HW187641   3.420   6.985   4.552 -0.1637 -0.5705  0.5933
25194SOL    HW287642   3.415   6.852   4.457 -2.7876 -1.5844  2.1211
25195SOL     OW87643   3.346   6.669   5.704 -0.2495  0.4483 -0.1333
25195SOL    HW187644   3.295   6.697   5.623 -0.5879  0.5206  0.1035
25195SOL    HW287645   3.427   6.727   5.714 -0.6641  1.0043  0.0553
25196SOL     OW87646   7.870   9.821   6.685 -0.3429  0.1461 -0.3065
25196SOL    HW187647   7.878   9.911   6.643  0.1214  2.0765  3.6892
25196SOL    HW287648   7.774   9.802   6.707 -0.3143  0.1086 -0.2125
25197SOL     OW87649   7.112   2.146   1.769  0.5883  0.3481 -0.0374
25197SOL    HW187650   7.151   2.215   1.708  0.6120 -1.2480 -1.9069
25197SOL    HW287651   7.018   2.126   1.741  0.9413 -1.1314 -0.2014
25198SOL     OW87652   1.449   1.780   9.546 -0.3740  0.2971  0.2899
25198SOL    HW187653   1.349   1.781   9.539 -0.5244  0.0902  2.1750
25198SOL    HW287654   1.481   1.867   9.583  0.0950  0.1120  0.3285
25199SOL     OW87655   8.058   0.831   9.855 -0.3802 -0.2145  0.2760
25199SOL    HW187656   8.010   0.844   9.768 -2.4736  0.3453  1.4746
25199SOL    HW287657   8.124   0.905   9.868 -1.9860  1.2386  0.3876
25200SOL     OW87658   8.888   9.004   3.627  0.1684  0.2716 -0.0523
25200SOL    HW187659   8.818   9.014   3.556 -0.4140  2.6537  0.8200
25200SOL    HW287660   8.879   9.078   3.694  2.9027  0.0541  0.6178
25201SOL     OW87661   1.881   0.535   9.910 -0.6055 -0.2027 -0.6660
25201SOL    HW187662   1.960   0.573   9.861 -0.2129 -0.7574 -0.4671
25201SOL    HW287663   1.911   0.460   9.969 -0.9618  0.9498  1.0159
25202SOL     OW87664   6.781   0.893   2.110 -0.2805 -0.0544  0.1489
25202SOL    HW187665   6.759   0.860   2.202  1.4180  0.9502  0.9385
25202SOL    HW287666   6.830   0.822   2.059  0.1392 -0.0595  0.5602
25203SOL     OW87667   1.898   0.762  10.044 -0.3772  0.1872 -0.1835
25203SOL    HW187668   1.840   0.770  10.125  0.0455 -0.5267  0.1928
25203SOL    HW287669   1.878   0.676   9.998  1.1003 -0.5526  0.5179
25204SOL     OW87670   1.676   9.984   3.305 -0.1228  0.2610 -0.9310
25204SOL    HW187671   1.590   9.954   3.347 -0.2965  1.7828 -0.1764
25204SOL    HW287672   1.686   9.940   3.216 -0.5302 -1.7444 -0.0064
25205SOL     OW87673   7.526   8.300   3.268  0.3013  0.2006  0.0540
25205SOL    HW187674   7.498   8.349   3.351 -1.2574  0.8640 -0.8461
25205SOL    HW287675   7.625   8.309   3.256  0.3586  1.1794  1.1404
25206SOL     OW87676   2.404   3.685   3.052  0.2656 -0.2294 -0.3628
25206SOL    HW187677   2.316   3.683   3.006 -0.1269  0.1311  0.3648
25206SOL    HW287678   2.475   3.647   2.992 -0.4405 -0.8193 -0.8235
25207SOL     OW87679   1.109   2.368   8.736  0.3271  0.5092 -0.3121
25207SOL    HW187680   1.033   2.304   8.724  0.4803  0.1383  0.6964
25207SOL    HW287681   1.084   2.436   8.805 -0.1436  2.0178 -1.9287
25208SOL     OW87682   2.251   4.064   2.489  0.3934 -0.1822 -0.5461
25208SOL    HW187683   2.194   4.101   2.563  2.1066  2.8637 -0.6540
25208SOL    HW287684   2.199   4.064   2.404 -0.7681 -1.3078  0.1523
25209SOL     OW87685   5.214   7.916   2.209 -0.0346 -0.2442  0.4685
25209SOL    HW187686   5.225   7.964   2.295  1.7189 -0.7563  0.5466
25209SOL    HW287687   5.239   7.976   2.133  0.2611 -0.4043  0.4390
25210SOL     OW87688   8.268   4.390   6.290  0.1458  0.6415  0.2110
25210SOL    HW187689   8.245   4.487   6.282 -1.1397  0.1441 -2.6000
25210SOL    HW287690   8.350   4.370   6.237  0.6975  0.2654  1.1854
25211SOL     OW87691   6.392   7.428   3.079 -0.1624 -0.2516  0.2369
25211SOL    HW187692   6.467   7.424   3.013  0.3613 -1.0439  0.8620
25211SOL    HW287693   6.427   7.455   3.169 -1.0071  1.6594  0.0042
25212SOL     OW87694   8.608   2.233   9.761  0.2659 -0.3698  0.5295
25212SOL    HW187695   8.563   2.168   9.700 -1.0925  1.1182 -0.0767
25212SOL    HW287696   8.690   2.269   9.716 -1.1145  1.2600 -0.7558
25213SOL     OW87697   3.053   8.126   7.361  0.1100  0.6883  0.4671
25213SOL    HW187698   3.118   8.050   7.365 -1.0684 -0.3160  0.7867
25213SOL    HW287699   3.097   8.205   7.317  1.2450 -0.2564 -0.1263
25214SOL     OW87700   6.998   3.050   1.426 -0.1158  0.2165  0.0956
25214SOL    HW187701   6.963   2.966   1.466 -0.9385  0.5459  0.0729
25214SOL    HW287702   7.092   3.035   1.396  0.5325 -0.0078  2.1791
25215SOL     OW87703   3.878   3.627   8.059 -0.2554  0.2519  0.5911
25215SOL    HW187704   3.863   3.551   7.995 -0.3194  1.1557 -0.5024
25215SOL    HW287705   3.895   3.592   8.150 -1.3004 -1.0568  0.3034
25216SOL     OW87706   1.176   6.982   1.773 -0.2516 -0.1234  0.2302
25216SOL    HW187707   1.222   6.992   1.685 -1.6083 -0.2173 -0.4930
25216SOL    HW287708   1.185   6.887   1.805  0.5548 -0.0015  0.3787
25217SOL     OW87709   2.913   9.501   6.760  0.4282 -0.2098  0.2534
25217SOL    HW187710   2.990   9.564   6.764  2.8540 -3.1217  0.7596
25217SOL    HW287711   2.901   9.468   6.667  0.0778 -0.1659  0.2784
25218SOL     OW87712   3.532   9.713   7.622  0.5670 -0.2016  0.3276
25218SOL    HW187713   3.518   9.704   7.721 -0.7163 -3.2851 -0.0950
25218SOL    HW287714   3.471   9.783   7.586 -0.2192 -0.3027  1.4381
25219SOL     OW87715   4.541   4.430   1.201  0.0852  0.1816  0.3185
25219SOL    HW187716   4.454   4.422   1.249  0.0132 -0.6895  0.0632
25219SOL    HW287717   4.615   4.404   1.263  0.4084  3.2078  1.2782
25220SOL     OW87718   3.358   0.403   2.072  0.0613 -0.1597 -0.3544
25220SOL    HW187719   3.410   0.348   2.007  1.0053  0.0223  0.2383
25220SOL    HW287720   3.263   0.408   2.043  0.0835 -1.6434 -0.7004
25221SOL     OW87721   8.477   4.797   7.229 -0.2266 -0.5535 -0.1702
25221SOL    HW187722   8.453   4.716   7.176  0.2096 -0.5521 -0.3698
25221SOL    HW287723   8.407   4.812   7.300 -1.1717 -0.1647 -1.1638
25222SOL     OW87724   1.604   2.434   1.920 -0.1138 -0.0413  0.2667
25222SOL    HW187725   1.664   2.452   1.998  0.9834  1.2079 -0.8446
25222SOL    HW287726   1.579   2.520   1.876  0.4149 -0.8062 -1.5853
25223SOL     OW87727   5.957   3.541   2.157  0.0197 -0.0149  0.1624
25223SOL    HW187728   6.013   3.599   2.097 -0.5924  1.1472  0.7045
25223SOL    HW287729   5.947   3.451   2.115  0.2193  0.5525 -1.1335
25224SOL     OW87730   6.054   4.980   2.142 -0.6032  0.3936  0.5623
25224SOL    HW187731   6.022   4.942   2.229  0.0026 -0.3395  0.4743
25224SOL    HW287732   6.062   4.906   2.075 -0.2952  0.8232  0.1262
25225SOL     OW87733   5.828   1.211   9.730 -0.1004 -0.0358  0.6733
25225SOL    HW187734   5.760   1.279   9.703 -0.4918 -0.2047  1.2295
25225SOL    HW287735   5.892   1.252   9.795  0.7861  0.3433 -0.4317
25226SOL     OW87736   5.249   9.423   1.815  0.7895  0.2523 -0.0819
25226SOL    HW187737   5.218   9.470   1.898  0.2032 -1.8239  0.9086
25226SOL    HW287738   5.192   9.450   1.737  0.0870  0.7312  0.5970
25227SOL     OW87739   3.785   6.607   1.366 -0.2676  0.3017  0.6076
25227SOL    HW187740   3.873   6.652   1.348 -0.2328  0.1351  0.3462
25227SOL    HW287741   3.785   6.569   1.459 -0.0643  0.3066  0.6096
25228SOL     OW87742   6.803   3.833   8.970 -0.1149 -0.0211  0.2100
25228SOL    HW187743   6.831   3.787   8.886 -1.0802  0.3123 -0.2979
25228SOL    HW287744   6.882   3.877   9.012  0.7019 -1.6467  0.3893
25229SOL     OW87745   1.768   6.165   5.577 -0.0089 -0.5005 -0.2644
25229SOL    HW187746   1.825   6.085   5.592 -0.3607 -0.6588  0.2216
25229SOL    HW287747   1.819   6.248   5.599 -0.9444 -0.7625  3.2429
25230SOL     OW87748   8.174   2.833   2.555 -0.1022  0.0250 -0.3595
25230SOL    HW187749   8.146   2.771   2.482  0.3267  0.8731 -1.2548
25230SOL    HW287750   8.147   2.926   2.531  0.5591  0.3833  0.2938
25231SOL     OW87751   3.899   6.646   3.765  0.4795 -0.9707  0.5848
25231SOL    HW187752   3.818   6.615   3.815 -0.3168  1.6366  0.9819
25231SOL    HW287753   3.880   6.648   3.667 -0.4786  1.0808  0.7895
25232SOL     OW87754   1.579   6.019   3.334 -0.0838  0.1329 -0.0910
25232SOL    HW187755   1.589   6.090   3.265  1.9413 -0.1510 -0.1081
25232SOL    HW287756   1.594   6.058   3.425  1.7255 -0.3789 -0.1469
25233SOL     OW87757   7.576   7.560   2.442  0.4484  0.3212  1.0021
25233SOL    HW187758   7.529   7.573   2.529 -0.7732 -0.6946  0.5163
25233SOL    HW287759   7.656   7.620   2.437 -0.2670  1.3944  2.2401
25234SOL     OW87760   2.136   6.934   6.086  0.2556 -0.1974  0.0416
25234SOL    HW187761   2.148   7.028   6.119  0.5206 -0.1130 -0.2947
25234SOL    HW287762   2.202   6.874   6.131 -2.4278 -0.9527  3.2248
25235SOL     OW87763   0.103   9.066   7.123 -0.2135  0.1278  0.0194
25235SOL    HW187764   0.135   8.972   7.115 -0.9638 -0.1114 -0.2414
25235SOL    HW287765   0.068   9.097   7.034  1.2146  1.0956 -0.2201
25236SOL     OW87766   8.509   6.964   2.344  0.4938 -0.5185 -0.5683
25236SOL    HW187767   8.476   6.878   2.384 -1.1189 -0.0033 -0.7784
25236SOL    HW287768   8.583   6.944   2.280 -0.8253 -1.9007 -1.7039
25237SOL     OW87769   1.364   8.992   7.868 -0.2910 -0.2309 -0.0722
25237SOL    HW187770   1.442   9.027   7.920 -0.2398 -0.2948 -0.1055
25237SOL    HW287771   1.388   8.987   7.771 -0.3541 -0.2010 -0.0886
25238SOL     OW87772   1.164   5.405   1.054  0.9124 -0.0600 -0.5669
25238SOL    HW187773   1.198   5.379   0.964 -0.3540 -0.5520 -0.9263
25238SOL    HW287774   1.113   5.491   1.047  1.4044  0.2593 -0.1943
25239SOL     OW87775   0.149   4.455   2.532 -0.1903 -0.0842  0.4478
25239SOL    HW187776   0.138   4.380   2.598  2.8041 -0.1222  0.9792
25239SOL    HW287777   0.151   4.417   2.439  0.1601 -0.5450  0.6394
25240SOL     OW87778   9.834   4.664   8.160  0.1498  0.1129 -0.2723
25240SOL    HW187779   9.746   4.712   8.157  0.0948  0.1961  1.7206
25240SOL    HW287780   9.819   4.570   8.192  0.9811  0.7105  1.9719
25241SOL     OW87781   9.033   4.632   2.305  0.3164 -0.3431 -0.0609
25241SOL    HW187782   8.991   4.699   2.368 -2.2571 -0.1209 -1.9137
25241SOL    HW287783   9.031   4.542   2.347 -0.4106 -0.0232  0.6214
25242SOL     OW87784   2.185   7.041   7.642 -0.3587  0.2450  0.4586
25242SOL    HW187785   2.210   7.125   7.595 -2.0719  1.6012  1.9030
25242SOL    HW287786   2.125   6.986   7.583  0.3114  0.2804 -0.2624
25243SOL     OW87787   7.539   8.832   4.816  0.0847 -0.0533 -0.0324
25243SOL    HW187788   7.485   8.749   4.825 -0.7873  0.4768 -0.3759
25243SOL    HW287789   7.606   8.820   4.742 -0.0717 -0.4290 -0.1133
25244SOL     OW87790   1.690   5.624   9.474 -0.1543  0.1462 -0.9123
25244SOL    HW187791   1.745   5.708   9.473 -0.9139  0.6783  0.5654
25244SOL    HW287792   1.593   5.648   9.475 -0.3865 -0.7641 -1.1121
25245SOL     OW87793   0.078   1.761   7.301 -0.6825  0.0245 -0.5630
25245SOL    HW187794   0.077   1.845   7.247 -1.3517  1.4023  1.5148
25245SOL    HW287795   0.164   1.713   7.287 -0.3967  0.9120 -1.9724
25246SOL     OW87796   9.247   8.820   0.010  0.6870 -0.0506  0.5010
25246SOL    HW187797   9.165   8.783  -0.033 -0.0869  2.1987 -0.0115
25246SOL    HW287798   9.259   8.780   0.100 -1.2601 -0.0364  0.7782
25247SOL     OW87799   5.698   1.054   8.439 -0.2401 -0.0446  0.8668
25247SOL    HW187800   5.757   1.039   8.518  1.2645  0.4484 -0.1526
25247SOL    HW287801   5.616   0.997   8.447  0.6442 -1.1744  2.0001
25248SOL     OW87802   9.655   7.344   4.397 -0.3196 -0.0881  0.0413
25248SOL    HW187803   9.690   7.400   4.472  3.0017 -2.3495  0.3079
25248SOL    HW287804   9.587   7.280   4.432 -1.7153  1.4892  0.3206
25249SOL     OW87805   5.214   3.311   1.687  0.2831  0.3710 -0.6183
25249SOL    HW187806   5.126   3.274   1.658  0.2114  0.7052 -0.8250
25249SOL    HW287807   5.259   3.357   1.610  1.4472 -1.3406 -0.9967
25250SOL     OW87808   9.676   1.029   1.379  0.1499  0.1718  0.6552
25250SOL    HW187809   9.616   1.027   1.459  0.3166 -0.0409  0.7749
25250SOL    HW287810   9.727   0.944   1.374 -1.0765 -0.5065 -0.6125
25251SOL     OW87811   8.715   6.604   5.576 -0.0792  0.0190 -0.1597
25251SOL    HW187812   8.670   6.691   5.597 -1.0878 -0.6419  0.4725
25251SOL    HW287813   8.705   6.542   5.654  0.6491 -0.6558 -0.5987
25252SOL     OW87814   6.667   2.109   5.413 -0.2230  0.1422  0.4941
25252SOL    HW187815   6.675   2.133   5.317  1.1899 -0.9623  0.3176
25252SOL    HW287816   6.749   2.137   5.462 -0.0657 -1.1007  0.9667
25253SOL     OW87817   5.704   6.108   1.560  0.4630  0.0876  0.2203
25253SOL    HW187818   5.801   6.123   1.578  0.1020  2.2308  0.5124
25253SOL    HW287819   5.686   6.118   1.462  0.5974 -0.7236  0.1093
25254SOL     OW87820   5.933   2.413   0.811  0.4779  0.0062 -0.5389
25254SOL    HW187821   5.967   2.384   0.722 -0.1875 -2.0571 -0.1484
25254SOL    HW287822   5.942   2.337   0.876 -1.3136  0.6922  0.5227
25255SOL     OW87823   9.637   0.796   2.185  0.1814 -0.4580  0.1844
25255SOL    HW187824   9.723   0.753   2.214 -0.9400 -2.3739  0.7440
25255SOL    HW287825   9.560   0.747   2.226 -1.2576  0.0873 -1.8166
25256SOL     OW87826   9.329   4.378   5.835  0.3609 -0.9559  0.3471
25256SOL    HW187827   9.338   4.279   5.850  1.4828 -0.8858  0.1329
25256SOL    HW287828   9.417   4.422   5.848 -0.8060  0.5010  3.9507
25257SOL     OW87829   9.966   9.495   0.457 -0.1642  0.7719  0.0414
25257SOL    HW187830   9.874   9.485   0.419 -1.5809  0.3112  3.4296
25257SOL    HW287831  10.003   9.405   0.477 -0.8845  1.0748  2.9471
25258SOL     OW87832   3.781   0.036   4.459  0.3979  0.2542  0.1740
25258SOL    HW187833   3.849   0.068   4.393  0.3414 -1.7236 -0.8521
25258SOL    HW287834   3.716  -0.025   4.414 -1.0911  0.7958  1.5270
25259SOL     OW87835   2.513   9.831   9.021 -0.5025 -0.7392  0.0268
25259SOL    HW187836   2.526   9.741   9.061 -1.3178 -1.0485 -0.3947
25259SOL    HW287837   2.419   9.840   8.987 -0.4602  0.3005  0.1526
25260SOL     OW87838   6.407   7.979   2.217  0.4218 -0.4168  0.1400
25260SOL    HW187839   6.354   7.982   2.302 -0.3290 -1.5023 -0.2889
25260SOL    HW287840   6.389   7.894   2.169  1.8782 -0.3997 -0.4579
25261SOL     OW87841   8.132   1.689   9.181  0.1220 -0.8138  0.1791
25261SOL    HW187842   8.133   1.756   9.255 -0.3238 -0.2914 -0.2885
25261SOL    HW287843   8.112   1.735   9.094 -0.0629 -1.5330 -0.1623
25262SOL     OW87844   4.872   2.461   7.718 -0.0901  0.0073  0.3991
25262SOL    HW187845   4.811   2.389   7.748 -0.1566 -0.2277 -0.2908
25262SOL    HW287846   4.966   2.440   7.746 -0.3835  0.6009  1.8726
25263SOL     OW87847   8.833   5.524   0.764 -0.2224  0.1257  0.7466
25263SOL    HW187848   8.764   5.500   0.696 -0.1139  0.7917  0.4015
25263SOL    HW287849   8.890   5.599   0.730  0.8814 -0.6258  0.8978
25264SOL     OW87850   2.314   9.849   3.167  0.3781  0.1933 -0.1775
25264SOL    HW187851   2.326   9.915   3.242  0.8123 -1.6424  1.4181
25264SOL    HW287852   2.383   9.865   3.097  1.5952  0.3517  1.0207
25265SOL     OW87853   3.459   5.936   6.488  0.4880 -0.0616  0.1858
25265SOL    HW187854   3.469   5.855   6.545  1.9916 -0.1902 -0.2218
25265SOL    HW287855   3.369   5.936   6.445  1.3491 -2.8457 -1.7916
25266SOL     OW87856   4.267   7.396   9.480 -0.0495 -0.6417  0.0107
25266SOL    HW187857   4.200   7.363   9.547 -0.1900 -0.6335 -0.1300
25266SOL    HW287858   4.283   7.326   9.411  0.5578 -0.8979  0.3953
25267SOL     OW87859   5.005   1.838   1.695 -0.6046 -0.1077  0.0430
25267SOL    HW187860   5.031   1.747   1.663  2.3118  1.6114 -2.8080
25267SOL    HW287861   4.944   1.881   1.628  0.2067  1.0281  0.0095
25268SOL     OW87862   2.935   3.251   4.068 -0.2868 -0.1919 -0.2162
25268SOL    HW187863   2.962   3.221   4.159  0.8812  1.3647 -0.0478
25268SOL    HW287864   2.929   3.171   4.008  0.5928 -1.0346  0.7974
25269SOL     OW87865   2.742   9.940   0.269  0.0211  0.0208  0.6925
25269SOL    HW187866   2.652   9.980   0.250  0.1054  0.2146  0.7066
25269SOL    HW287867   2.775   9.895   0.186 -0.8356 -1.5100  1.1445
25270SOL     OW87868   1.212   3.788   4.108  0.2477  0.6934  0.3826
25270SOL    HW187869   1.236   3.859   4.175  0.0149  0.7308  0.4252
25270SOL    HW287870   1.276   3.711   4.117  1.8352  1.7900 -1.0784
25271SOL     OW87871   1.985   7.660   5.047 -0.3399  0.3654 -0.4971
25271SOL    HW187872   1.892   7.685   5.019 -0.7117  1.6102  1.7433
25271SOL    HW287873   1.996   7.561   5.040 -1.9435  0.1784 -0.4765
25272SOL     OW87874   9.008   6.112   2.171 -0.0144  0.0171  0.4332
25272SOL    HW187875   9.001   6.198   2.222  0.3439 -0.0873  0.6595
25272SOL    HW287876   9.104   6.091   2.154 -0.0482 -0.8866  1.3221
25273SOL     OW87877   8.648   1.838   7.294  0.3254  0.1153  0.0390
25273SOL    HW187878   8.693   1.909   7.348 -0.2903 -0.0017  0.7013
25273SOL    HW287879   8.696   1.751   7.306  1.0765  0.4125 -0.7652
25274SOL     OW87880   1.513   8.406   1.749  0.6384  0.1796  0.1094
25274SOL    HW187881   1.419   8.373   1.754  0.7501  0.1012  2.1828
25274SOL    HW287882   1.516   8.502   1.778  1.1264  0.3442 -0.4680
25275SOL     OW87883   0.836   6.758   8.428 -0.3203  0.1987  0.5603
25275SOL    HW187884   0.802   6.685   8.369  0.5059 -1.2941  1.9063
25275SOL    HW287885   0.863   6.720   8.516  1.0973  1.9668  0.9185
25276SOL     OW87886   1.950   1.120   8.794 -0.1417  0.2299  0.1911
25276SOL    HW187887   1.864   1.070   8.785  0.2931 -0.4314 -0.3596
25276SOL    HW287888   2.024   1.056   8.816  0.6781  0.4129 -1.9141
25277SOL     OW87889   4.147   5.668   7.723 -0.2987 -0.4872  0.6694
25277SOL    HW187890   4.096   5.597   7.771 -0.6428 -1.4581 -1.0695
25277SOL    HW287891   4.220   5.626   7.669 -1.4834  0.2927 -1.6077
25278SOL     OW87892   8.557   6.528   4.299  0.3863 -0.0550 -0.3548
25278SOL    HW187893   8.526   6.623   4.308 -1.3334 -0.6938  0.9352
25278SOL    HW287894   8.580   6.509   4.204 -1.7118  0.9478 -1.1016
25279SOL     OW87895   7.120   4.313   0.988  0.3243  0.3835  0.3054
25279SOL    HW187896   7.219   4.303   0.985  0.3499  0.8012 -0.1913
25279SOL    HW287897   7.080   4.283   0.902  0.0296  0.3664  0.4461
25280SOL     OW87898   7.269   6.600   3.381  0.0558 -0.3306  0.0903
25280SOL    HW187899   7.188   6.596   3.322 -1.0024 -0.3608  1.5300
25280SOL    HW287900   7.283   6.511   3.425  0.5480 -0.1649  0.2792
25281SOL     OW87901   8.898   8.316   2.008  0.1045  0.0616  0.5004
25281SOL    HW187902   8.890   8.340   1.911  1.4412 -0.8567  0.1530
25281SOL    HW287903   8.887   8.398   2.064 -0.7130  0.5875 -0.4236
25282SOL     OW87904   5.707   9.457   5.037  0.0296  0.1032  0.5151
25282SOL    HW187905   5.611   9.483   5.034 -0.4072 -1.4182  0.8575
25282SOL    HW287906   5.739   9.456   5.132  0.0606 -0.5314  0.4989
25283SOL     OW87907   4.316   1.782   5.088 -0.3136  0.2047 -0.1525
25283SOL    HW187908   4.353   1.852   5.027 -2.7533  0.7489 -1.0730
25283SOL    HW287909   4.364   1.696   5.075 -1.1656  0.1590 -3.2934
25284SOL     OW87910   8.429   3.873   1.199  0.2470  0.8548 -0.0201
25284SOL    HW187911   8.387   3.860   1.289 -1.8372 -0.7383 -1.1611
25284SOL    HW287912   8.461   3.785   1.164 -1.3204  0.9858 -1.9071
25285SOL     OW87913   7.867   4.069   2.101 -0.3422 -0.3982  0.4460
25285SOL    HW187914   7.951   4.089   2.051 -1.2229  0.1991 -0.8401
25285SOL    HW287915   7.851   4.138   2.171 -0.7609  0.5872 -0.6105
25286SOL     OW87916   2.605   6.132   7.296  0.2012 -0.2397 -0.2203
25286SOL    HW187917   2.647   6.084   7.373  1.1250  0.1098 -0.5052
25286SOL    HW287918   2.576   6.066   7.228 -1.9470 -0.6720  1.0601
25287SOL     OW87919   8.127   3.267  10.084  0.1070 -0.2609  0.1992
25287SOL    HW187920   8.085   3.194  10.031  0.8269  1.1091 -2.3940
25287SOL    HW287921   8.061   3.341  10.097  0.6667  0.4695 -0.9972
25288SOL     OW87922   0.509   3.118   2.575  0.7924 -0.2357  0.4213
25288SOL    HW187923   0.436   3.116   2.508  0.2952 -1.5120  0.9857
25288SOL    HW287924   0.585   3.173   2.540  1.0302 -1.8565 -1.6827
25289SOL     OW87925   9.992   9.427   1.311 -1.0495  0.4448  0.0695
25289SOL    HW187926   9.996   9.387   1.220 -0.1593  1.3063 -0.2844
25289SOL    HW287927  10.021   9.359   1.379  0.0041  0.3326 -0.4745
25290SOL     OW87928   9.212   3.635   7.576  0.0753  0.1086  0.0470
25290SOL    HW187929   9.147   3.711   7.566  1.4483  1.4796  1.3895
25290SOL    HW287930   9.229   3.595   7.486 -1.6894  0.5239 -0.4958
25291SOL     OW87931   2.203   4.453   0.144 -0.0537  0.1409 -0.3724
25291SOL    HW187932   2.288   4.403   0.160  0.0033 -0.2038 -1.7453
25291SOL    HW287933   2.151   4.457   0.229  1.2855  0.2736  0.4611
25292SOL     OW87934   5.775   9.831   5.357 -0.0144 -0.3190  0.4389
25292SOL    HW187935   5.807   9.926   5.354 -0.3413 -0.2615 -2.3893
25292SOL    HW287936   5.693   9.822   5.302 -1.0689 -1.8931  2.2156
25293SOL     OW87937   8.847   5.387   5.729  0.0713  0.3793 -0.1686
25293SOL    HW187938   8.914   5.313   5.740 -0.2913 -0.0278 -0.6408
25293SOL    HW287939   8.813   5.415   5.819  0.2191 -0.0262  0.0162
25294SOL     OW87940   0.573   2.790  10.047 -0.1418  0.3707  0.4012
25294SOL    HW187941   0.552   2.777   9.950  1.1959 -1.1080  0.3042
25294SOL    HW287942   0.558   2.886  10.071 -0.9760  0.6488 -1.1372
25295SOL     OW87943   7.711   6.595   5.058  0.0143  0.0187 -0.4911
25295SOL    HW187944   7.649   6.652   5.004  0.4909  0.5208 -0.5150
25295SOL    HW287945   7.802   6.597   5.017  0.0387 -0.7424 -0.4732
25296SOL     OW87946   0.013   7.654   5.013  0.1403  0.2789 -1.4349
25296SOL    HW187947   0.101   7.637   4.969  1.9948  0.3215  2.0572
25296SOL    HW287948   0.004   7.751   5.034 -0.7914  0.2962 -1.9378
25297SOL     OW87949   4.565   9.284   7.055  0.2646 -0.4127  0.4280
25297SOL    HW187950   4.654   9.275   7.011 -1.0184  1.7059 -2.8086
25297SOL    HW287951   4.522   9.194   7.062  1.0612 -0.9747 -1.5885
25298SOL     OW87952   1.100   2.602   2.120 -0.1236  0.0342 -0.1581
25298SOL    HW187953   1.175   2.539   2.142  0.6182  0.8052 -0.4583
25298SOL    HW287954   1.124   2.656   2.040 -0.7851  0.6596  0.0592
25299SOL     OW87955   2.105   9.546   0.514  0.1115 -0.2500 -0.1331
25299SOL    HW187956   2.146   9.456   0.508 -0.8837 -0.8216  1.3481
25299SOL    HW287957   2.031   9.554   0.447  0.2179 -0.5200 -0.2834
25300SOL     OW87958   2.137   2.525   7.449  0.0050  0.1752  0.1220
25300SOL    HW187959   2.068   2.565   7.388 -0.5428  1.0052  1.2834
25300SOL    HW287960   2.094   2.457   7.508  0.9203 -2.1737 -1.8148
25301SOL     OW87961   9.719   5.085   5.189  0.2406  0.9108  0.0387
25301SOL    HW187962   9.676   4.997   5.210 -2.2922  1.6772 -1.7330
25301SOL    HW287963   9.817   5.079   5.208  0.1630 -2.3443 -0.2338
25302SOL     OW87964   5.601   4.769   1.385  0.2011  0.0318 -0.1584
25302SOL    HW187965   5.536   4.829   1.337  0.7008  1.6336  1.1002
25302SOL    HW287966   5.672   4.825   1.427  1.6771 -1.6125 -0.4127
25303SOL     OW87967   9.701   9.462   8.714 -0.0453  0.3210  0.2043
25303SOL    HW187968   9.608   9.443   8.682 -0.2326  0.0770  0.8827
25303SOL    HW287969   9.766   9.401   8.668 -0.5938 -1.7005  2.0524
25304SOL     OW87970   3.034   9.654   1.631  0.2573 -0.2491 -0.1503
25304SOL    HW187971   3.025   9.571   1.575 -3.4770  0.2512 -0.3857
25304SOL    HW287972   3.040   9.734   1.571 -1.1104  0.0522  0.0948
25305SOL     OW87973   4.281   5.429   7.260 -0.4199  0.1474 -0.6494
25305SOL    HW187974   4.360   5.405   7.317  0.2609  0.7026 -1.3325
25305SOL    HW287975   4.250   5.521   7.284 -0.8344 -0.0529 -0.4138
25306SOL     OW87976   6.397   0.619   3.320 -0.3107  0.1413  0.1319
25306SOL    HW187977   6.362   0.713   3.318 -0.8609 -0.0441  0.8342
25306SOL    HW287978   6.453   0.603   3.239  0.4266  1.3163  0.3997
25307SOL     OW87979   2.916   2.397   5.955 -0.0214  0.4444 -0.0699
25307SOL    HW187980   2.916   2.481   6.008 -1.5096  0.8457 -0.6943
25307SOL    HW287981   2.967   2.326   6.004  0.2516  1.3655  0.9820
25308SOL     OW87982   2.425   1.801   9.755  0.3221 -0.0483 -0.0894
25308SOL    HW187983   2.480   1.738   9.701  0.3070  1.0447 -1.4114
25308SOL    HW287984   2.390   1.754   9.837  2.0775 -1.1163  0.0625
25309SOL     OW87985   7.641   5.686   7.631 -0.2857  0.4292  0.2673
25309SOL    HW187986   7.700   5.766   7.623  0.1724 -0.0751 -1.5178
25309SOL    HW287987   7.694   5.608   7.667 -0.4938  0.6488  1.0649
25310SOL     OW87988   9.700   2.795   6.912  0.2255 -0.0472  0.2467
25310SOL    HW187989   9.695   2.887   6.874  1.7179  0.6037  1.5852
25310SOL    HW287990   9.616   2.776   6.962 -0.7148  0.0082 -1.2709
25311SOL     OW87991   7.117   2.503   0.658 -0.6291  0.3470  0.0511
25311SOL    HW187992   7.041   2.469   0.602 -0.0622  1.6348 -1.5409
25311SOL    HW287993   7.127   2.445   0.739 -0.6191 -2.3976 -1.8208
25312SOL     OW87994   6.919   0.362   2.561  0.2105 -0.6107  0.0697
25312SOL    HW187995   7.014   0.365   2.593  0.4494 -0.9520 -0.5871
25312SOL    HW287996   6.906   0.435   2.494  0.7652 -2.2240 -1.8475
25313SOL     OW87997   4.178   3.331   3.022 -0.3834 -0.2741 -0.0263
25313SOL    HW187998   4.268   3.351   2.982 -1.0635  2.0995 -0.4638
25313SOL    HW287999   4.165   3.389   3.103 -0.9627 -1.6327  0.8679
25314SOL     OW88000   2.068   8.422   4.008 -0.2415  0.4048  0.6914
25314SOL    HW188001   2.150   8.410   4.065  0.5534  0.2709 -0.4774
25314SOL    HW288002   2.005   8.347   4.026  0.2757  0.0219  0.9475
25315SOL     OW88003   9.682   7.608   3.903 -0.8707  0.2195  0.5265
25315SOL    HW188004   9.669   7.514   3.874 -2.0749  0.6714 -0.4336
25315SOL    HW288005   9.760   7.648   3.855  0.1136 -0.5066  1.4977
25316SOL     OW88006   4.894   5.551   2.414 -0.4347  0.0722 -0.0676
25316SOL    HW188007   4.892   5.457   2.381  1.2626 -0.6074  1.7279
25316SOL    HW288008   4.963   5.602   2.363  1.0225 -0.5500  1.2533
25317SOL     OW88009   8.382   1.569   7.011 -0.6321  0.2058  0.3455
25317SOL    HW188010   8.384   1.574   7.110  0.5847  0.5728  0.3220
25317SOL    HW288011   8.381   1.661   6.973  0.1980  0.0868  0.0194
25318SOL     OW88012   8.561   4.022   2.276  0.1189 -0.5445  0.3292
25318SOL    HW188013   8.655   4.045   2.303  0.4443 -1.2231 -0.2257
25318SOL    HW288014   8.497   4.063   2.341  0.7603  0.6245  0.2367
25319SOL     OW88015   8.556   3.921   5.297  0.5888 -0.2856  0.1996
25319SOL    HW188016   8.653   3.912   5.318  0.7253  1.6946  0.5494
25319SOL    HW288017   8.520   4.005   5.339 -1.1951 -0.8293 -0.1816
25320SOL     OW88018   0.724   1.109   8.082 -0.1413 -0.0079  0.0782
25320SOL    HW188019   0.653   1.179   8.081 -0.3340 -0.1630  1.5446
25320SOL    HW288020   0.692   1.030   8.135  0.9462 -0.2704  0.3592
25321SOL     OW88021   1.695   1.622   8.711 -0.6639  0.0011 -0.5417
25321SOL    HW188022   1.727   1.527   8.717 -0.9046 -0.1566 -1.6604
25321SOL    HW288023   1.760   1.677   8.659 -1.9780 -0.2417 -2.4977
25322SOL     OW88024   0.910   5.197   3.418 -0.1602 -0.3780  0.2680
25322SOL    HW188025   0.952   5.276   3.464  0.1644 -0.4503  0.0942
25322SOL    HW288026   0.817   5.221   3.389  1.0508  1.0253 -2.6559
25323SOL     OW88027   4.235   5.219   4.112  0.4899  0.4509  0.4763
25323SOL    HW188028   4.190   5.301   4.148  0.2706 -0.1247  1.5210
25323SOL    HW288029   4.299   5.184   4.180 -1.2318 -1.6802  1.0450
25324SOL     OW88030   3.917   0.508   8.756  0.3771  0.4711  0.0878
25324SOL    HW188031   3.999   0.554   8.790  1.1017 -0.2786 -0.6315
25324SOL    HW288032   3.941   0.415   8.727 -1.2444 -0.7637  2.4860
25325SOL     OW88033   6.791   6.853   5.084 -0.2407  0.0721  0.0607
25325SOL    HW188034   6.695   6.864   5.110 -1.1923 -1.0445 -2.7999
25325SOL    HW288035   6.826   6.940   5.049 -0.2060  0.4845  1.1162
25326SOL     OW88036   8.703   1.647   1.685  0.0255 -0.5643 -0.0112
25326SOL    HW188037   8.750   1.686   1.606  3.0240 -2.4027  0.7980
25326SOL    HW288038   8.622   1.702   1.705 -0.1248  0.6797 -3.5579
25327SOL     OW88039   7.148   7.163   4.947 -0.2537  0.0396 -0.1969
25327SOL    HW188040   7.145   7.209   4.859 -0.3527  0.3253 -0.0445
25327SOL    HW288041   7.207   7.215   5.010  1.8613 -1.4972 -0.8607
25328SOL     OW88042   0.994   6.958   5.824  0.5087  0.3320 -0.5525
25328SOL    HW188043   1.076   7.015   5.830  0.1104  0.7157  1.6661
25328SOL    HW288044   1.017   6.864   5.850  0.8262 -0.2148 -2.6922
25329SOL     OW88045   3.293   3.083   9.519 -0.0244  0.0141 -0.2416
25329SOL    HW188046   3.305   2.989   9.486 -0.9185  0.1241 -0.9082
25329SOL    HW288047   3.353   3.144   9.468  0.8257 -0.2438  0.4431
25330SOL     OW88048   7.029   1.156   0.166 -0.1562 -0.3112 -0.1000
25330SOL    HW188049   7.085   1.079   0.196  0.1844 -0.3851 -0.9323
25330SOL    HW288050   6.962   1.125   0.099 -0.9619 -0.1512  0.6201
25331SOL     OW88051   1.750   4.702   3.836 -0.7239  0.4363 -0.4133
25331SOL    HW188052   1.667   4.659   3.871 -0.2129 -0.7015 -0.5718
25331SOL    HW288053   1.830   4.662   3.882 -0.0726 -0.6300 -2.3965
25332SOL     OW88054   2.726   2.632   1.639 -0.0270  0.1490 -0.1555
25332SOL    HW188055   2.808   2.602   1.688  0.4012  0.8006 -0.4732
25332SOL    HW288056   2.645   2.611   1.694  0.3994  0.1743  0.4858
25333SOL     OW88057   3.054   7.354   3.804  0.5604 -0.5595 -0.7420
25333SOL    HW188058   3.076   7.328   3.710  0.2722 -0.3452 -0.8698
25333SOL    HW288059   2.984   7.293   3.839  1.9907 -1.8082 -0.0257
25334SOL     OW88060   2.055   2.127   5.986 -1.1865 -0.3016 -0.0511
25334SOL    HW188061   2.076   2.194   5.915  2.0196  0.4360  1.5043
25334SOL    HW288062   2.044   2.036   5.945  2.0363 -0.1454 -1.4164
25335SOL     OW88063   8.659   9.427   8.723  0.9872  0.7003  0.2332
25335SOL    HW188064   8.656   9.404   8.820  0.7698 -1.6661 -0.2977
25335SOL    HW288065   8.735   9.378   8.679  0.6278  1.1626 -0.9253
25336SOL     OW88066   9.302   6.372   2.803  0.0456 -0.3943 -0.1986
25336SOL    HW188067   9.227   6.307   2.794  0.9057 -1.4908  0.3707
25336SOL    HW288068   9.288   6.448   2.740 -0.0227 -2.0542 -2.2381
25337SOL     OW88069   7.910   2.659   3.892  0.1276 -0.0467  0.2742
25337SOL    HW188070   7.882   2.621   3.804  1.3330 -1.3651  0.4330
25337SOL    HW288071   7.909   2.586   3.961 -0.9809  1.0152  1.3927
25338SOL     OW88072   5.078   1.105   7.918 -0.2480  0.1383 -0.4481
25338SOL    HW188073   4.997   1.142   7.873  0.2625  0.3002 -1.2552
25338SOL    HW288074   5.137   1.062   7.849 -1.6017 -3.6846  0.6776
25339SOL     OW88075   3.408   0.384  10.035  0.4628 -0.2412  0.2783
25339SOL    HW188076   3.323   0.357  10.080  0.5120  1.6582  1.5810
25339SOL    HW288077   3.397   0.377   9.935 -1.8239  1.6126  0.3595
25340SOL     OW88078   4.440   9.685   7.585  0.0838  0.1294 -0.0471
25340SOL    HW188079   4.357   9.631   7.568 -0.1642  0.7154 -0.7474
25340SOL    HW288080   4.414   9.775   7.620  0.3607  0.7084 -1.3023
25341SOL     OW88081   4.197   8.476   3.808  0.6570  0.3039  0.8393
25341SOL    HW188082   4.110   8.500   3.764  0.8774  0.5798  0.5521
25341SOL    HW288083   4.238   8.398   3.761  1.4088  1.2558 -0.1192
25342SOL     OW88084   7.586   0.787   7.963  0.2920 -0.2306  0.1125
25342SOL    HW188085   7.603   0.858   8.031  0.1695  0.2371 -0.3495
25342SOL    HW288086   7.488   0.771   7.955  0.1916  1.1138 -1.3956
25343SOL     OW88087   8.210   1.069   7.086  0.2732  0.3506  0.8413
25343SOL    HW188088   8.292   1.046   7.139 -0.0583  0.3356  1.3456
25343SOL    HW288089   8.142   1.110   7.146 -0.1106  0.3129  0.4305
25344SOL     OW88090   4.926   2.072   5.822 -0.0760  0.0457 -0.2144
25344SOL    HW188091   4.962   1.981   5.799 -0.1169  0.2077 -0.8992
25344SOL    HW288092   4.927   2.082   5.922  2.3990  0.2825 -0.2097
25345SOL     OW88093   4.002   6.905  10.005  0.1411  0.0466  0.1180
25345SOL    HW188094   4.079   6.891  10.067  1.1389  1.8982 -0.6724
25345SOL    HW288095   4.034   6.946   9.920 -1.4235 -1.1172 -1.0680
25346SOL     OW88096   8.439   8.333   8.213  0.5588 -0.7847 -0.0930
25346SOL    HW188097   8.363   8.397   8.199 -0.2298 -0.8377  3.3317
25346SOL    HW288098   8.409   8.259   8.273  3.3541 -0.6953  1.5104
25347SOL     OW88099   4.488   6.549   1.362 -0.0859  0.4108  0.2956
25347SOL    HW188100   4.550   6.590   1.429 -2.0046  1.0267  1.7621
25347SOL    HW288101   4.457   6.460   1.395  1.8246 -0.9639 -1.5373
25348SOL     OW88102   5.179   8.647   1.954 -0.1705  0.2544  0.0639
25348SOL    HW188103   5.187   8.746   1.965 -1.6684  0.4033 -0.0951
25348SOL    HW288104   5.262   8.612   1.910 -0.4847  1.7322 -1.7732
25349SOL     OW88105   5.502   5.107   9.383  0.3298 -0.1216 -0.1894
25349SOL    HW188106   5.403   5.096   9.384  0.2865  0.1414 -1.0971
25349SOL    HW288107   5.533   5.144   9.470 -0.1257 -2.2882  0.9176
25350SOL     OW88108   0.822   6.210   3.555  0.3742 -0.3158 -0.3626
25350SOL    HW188109   0.751   6.206   3.626 -0.7851 -2.2380 -1.5827
25350SOL    HW288110   0.813   6.131   3.495  2.5098  0.3239 -1.5646
25351SOL     OW88111   5.501   4.897   8.018  0.1241  0.4587  0.5891
25351SOL    HW188112   5.413   4.873   7.976  1.0270 -1.2894 -0.3331
25351SOL    HW288113   5.570   4.831   7.991  1.8843  2.1650  0.8323
25352SOL     OW88114   8.871   9.805   3.993  0.0665  0.1772 -0.5456
25352SOL    HW188115   8.936   9.862   3.943  1.7959 -1.4025 -0.1319
25352SOL    HW288116   8.814   9.863   4.051 -0.2918  1.7735 -2.4781
25353SOL     OW88117   7.664   5.876   3.678  0.1141  0.3418 -0.5200
25353SOL    HW188118   7.714   5.792   3.656  0.5961  0.5416 -0.2129
25353SOL    HW288119   7.578   5.853   3.722 -0.2838 -0.0223 -1.4767
25354SOL     OW88120   6.759   0.557   4.285  0.0610  0.7441 -0.2288
25354SOL    HW188121   6.793   0.480   4.338 -1.2467  0.4627  0.2146
25354SOL    HW288122   6.691   0.525   4.219 -1.2086  1.6407  0.6248
25355SOL     OW88123   3.155   9.970   5.829  0.1437  0.1488 -0.4576
25355SOL    HW188124   3.125  10.037   5.897 -0.3319 -0.5845  0.0471
25355SOL    HW288125   3.253   9.953   5.840  0.1076  0.1815 -0.0932
25356SOL     OW88126   2.902   4.258   4.991 -0.5270  0.0922  0.0883
25356SOL    HW188127   2.830   4.250   5.060  0.4277 -0.3408  1.0644
25356SOL    HW288128   2.936   4.353   4.990  0.0387 -0.0936  0.8315
25357SOL     OW88129   3.484   0.879   9.076 -0.2579  0.2012  0.7749
25357SOL    HW188130   3.428   0.886   8.993  0.0849  0.6649  0.5762
25357SOL    HW288131   3.549   0.955   9.078  0.7043 -0.6047  0.7473
25358SOL     OW88132   5.583   2.983   5.579 -0.8230 -0.5112  0.0395
25358SOL    HW188133   5.629   2.982   5.490 -0.6923 -0.1924  0.1040
25358SOL    HW288134   5.529   3.066   5.589 -1.7590 -1.0928 -0.2069
25359SOL     OW88135   4.472   3.747   9.449 -0.0869 -0.2119 -0.0419
25359SOL    HW188136   4.529   3.671   9.416  0.3020 -0.4799  1.2181
25359SOL    HW288137   4.468   3.744   9.549 -0.2451  1.3077  0.0031
25360SOL     OW88138   2.324   5.196   0.998 -0.1768  0.0183 -0.3986
25360SOL    HW188139   2.228   5.222   1.012 -0.3256 -0.0826 -1.1960
25360SOL    HW288140   2.373   5.203   1.084 -1.3189 -1.6408  0.4343
25361SOL     OW88141   0.594   7.455   1.953  0.4764  0.5768 -0.8791
25361SOL    HW188142   0.552   7.455   2.044  1.6635  1.1427 -0.3314
25361SOL    HW288143   0.523   7.439   1.885 -0.3656 -0.2539  0.1661
25362SOL     OW88144   0.932   0.778   4.032  0.0034  0.4915 -0.3513
25362SOL    HW188145   0.980   0.700   3.992 -0.1902  0.5818 -0.7634
25362SOL    HW288146   0.966   0.863   3.990 -0.2904  0.5763 -0.4197
25363SOL     OW88147   0.452   8.995   7.157  0.1060 -0.0089  0.1369
25363SOL    HW188148   0.483   9.071   7.214 -1.0473  0.4205  0.2103
25363SOL    HW288149   0.398   8.932   7.213  1.3761 -1.1014  0.1674
25364SOL     OW88150   4.745   1.999   8.423  0.4108 -0.0189 -0.0190
25364SOL    HW188151   4.775   1.904   8.420  1.4755  0.3118 -0.1615
25364SOL    HW288152   4.757   2.040   8.332 -1.0981 -0.0690 -0.2411
25365SOL     OW88153   2.570   3.755   6.652 -0.0978  0.3818 -0.0368
25365SOL    HW188154   2.653   3.806   6.631  0.3844 -0.5387 -0.3596
25365SOL    HW288155   2.568   3.671   6.599  0.2451 -1.0870  2.2251
25366SOL     OW88156   3.631   9.280   0.062 -0.0182 -0.1220 -0.0784
25366SOL    HW188157   3.717   9.230   0.054  0.7387  1.0456  0.6716
25366SOL    HW288158   3.598   9.275   0.156  0.2987  1.1644  0.1064
25367SOL     OW88159   2.804   6.627   2.179 -0.1646 -0.1101  0.3760
25367SOL    HW188160   2.824   6.529   2.187  0.2257 -0.1628 -1.0900
25367SOL    HW288161   2.715   6.640   2.136  0.0732  0.1715 -0.0404
25368SOL     OW88162   4.955   1.376  10.075 -0.2983  0.5246 -0.1769
25368SOL    HW188163   5.053   1.365  10.059 -0.3343 -1.8341  1.0503
25368SOL    HW288164   4.906   1.368   9.988  0.4358 -0.4738 -0.5046
25369SOL     OW88165   0.404   3.254   4.801 -0.1518  0.4396  0.4682
25369SOL    HW188166   0.397   3.309   4.884  0.1379  0.2359  0.6260
25369SOL    HW288167   0.478   3.290   4.744 -1.0184  1.2235 -0.1824
25370SOL     OW88168   8.996   6.482   9.038 -0.3513  0.0089  0.4357
25370SOL    HW188169   8.960   6.553   8.978  0.5930  0.2452  0.1370
25370SOL    HW288170   9.027   6.404   8.982 -0.2726 -0.1357  0.6805
25371SOL     OW88171   9.639   0.761   6.337  0.0359 -0.3231  0.3268
25371SOL    HW188172   9.650   0.694   6.263 -0.5973 -0.1799  0.1032
25371SOL    HW288173   9.637   0.713   6.425  1.1701 -0.4626  0.2829
25372SOL     OW88174   6.655   4.877   0.445  0.7302 -0.2192  0.5618
25372SOL    HW188175   6.603   4.907   0.525  0.1121 -1.3659  0.6145
25372SOL    HW288176   6.718   4.804   0.472  1.1440  0.0004  0.1767
25373SOL     OW88177   4.969   0.554   7.339  0.2200  0.4664 -0.5623
25373SOL    HW188178   5.038   0.588   7.275  0.8481  0.8781  0.3242
25373SOL    HW288179   4.936   0.629   7.395  0.5849 -0.1224  0.4491
25374SOL     OW88180   0.169   4.599   4.352 -0.1514 -0.5888  0.4992
25374SOL    HW188181   0.244   4.543   4.316  1.3838  0.9979  1.1511
25374SOL    HW288182   0.120   4.641   4.275  1.0505  0.1618  0.1229
25375SOL     OW88183   0.891   9.731   2.999 -0.4762 -0.6146  0.1765
25375SOL    HW188184   0.839   9.729   3.085 -2.3105  1.2278 -0.8425
25375SOL    HW288185   0.850   9.666   2.935 -0.3625 -0.5133  0.0015
25376SOL     OW88186   2.408   8.981   9.033  0.0237  0.0317  0.0854
25376SOL    HW188187   2.453   8.894   9.056  0.1834 -0.0028 -0.3591
25376SOL    HW288188   2.363   9.018   9.115  1.9645  0.7282  0.8643
25377SOL     OW88189   4.442   0.203   1.280  0.3010  0.4613  0.3565
25377SOL    HW188190   4.459   0.208   1.378  1.6111  0.0417  0.1585
25377SOL    HW288191   4.355   0.248   1.259  0.8343  2.0618  1.4865
25378SOL     OW88192   9.530   9.578   1.782 -0.0133 -0.3027  0.0054
25378SOL    HW188193   9.520   9.570   1.882 -0.1217 -1.2359 -0.0758
25378SOL    HW288194   9.578   9.663   1.760  0.7858 -0.5088  0.9015
25379SOL     OW88195   8.754   3.692   5.123  0.4164 -0.7975  0.1315
25379SOL    HW188196   8.817   3.723   5.194 -0.9574  1.4380  0.4303
25379SOL    HW288197   8.797   3.619   5.069  2.1884 -1.1970  2.0272
25380SOL     OW88198   1.221   1.474   5.766  0.2538 -0.2359  0.1807
25380SOL    HW188199   1.279   1.443   5.690 -0.1436 -1.5454  0.3967
25380SOL    HW288200   1.199   1.396   5.824  1.5781  0.9854  2.3648
25381SOL     OW88201   8.554   9.865   4.830  0.0772 -0.2606 -0.9447
25381SOL    HW188202   8.638   9.810   4.829  1.1344  1.2440  1.0577
25381SOL    HW288203   8.483   9.816   4.881  0.3387 -0.7260 -1.0210
25382SOL     OW88204   6.948   4.765   0.692  0.0874 -0.0664 -0.2754
25382SOL    HW188205   6.974   4.782   0.597 -1.1240 -2.5237 -1.0638
25382SOL    HW288206   7.028   4.733   0.743  0.9363  2.0252 -0.2128
25383SOL     OW88207   0.708   4.800  10.028 -0.4572 -0.2385 -0.3213
25383SOL    HW188208   0.686   4.721   9.971 -0.4402  0.2387 -0.9933
25383SOL    HW288209   0.637   4.811  10.098 -1.3708  0.1781 -1.3020
25384SOL     OW88210   1.785   9.267   1.449  0.0070  0.1534  0.4171
25384SOL    HW188211   1.771   9.255   1.351  0.8933 -0.1890  0.3243
25384SOL    HW288212   1.699   9.293   1.493 -0.4825 -0.1073 -0.3859
25385SOL     OW88213   1.771   9.328   5.650 -0.3680 -0.5100  0.2414
25385SOL    HW188214   1.741   9.379   5.730 -3.1124 -1.2680 -0.2435
25385SOL    HW288215   1.833   9.254   5.678  0.9390  0.9686  1.3112
25386SOL     OW88216   9.706   3.284   6.607  0.0082 -0.2361  0.0991
25386SOL    HW188217   9.624   3.300   6.662  0.2272  0.5149  0.2092
25386SOL    HW288218   9.689   3.209   6.543 -0.9199  0.2085 -0.1924
25387SOL     OW88219   8.320   5.066   3.107  0.0041 -0.2196  0.1274
25387SOL    HW188220   8.234   5.040   3.063  0.8698 -1.0961 -1.0959
25387SOL    HW288221   8.388   4.996   3.089  1.0889  0.6641  0.7525
25388SOL     OW88222   9.983   4.272   5.159  0.2275  0.2692 -0.5133
25388SOL    HW188223   9.983   4.186   5.107  0.5683  0.4276 -0.7769
25388SOL    HW288224   9.910   4.331   5.124 -1.1249 -0.5872  0.7977
25389SOL     OW88225   7.641   3.769   2.248  0.1544  0.7985  0.8026
25389SOL    HW188226   7.664   3.692   2.308 -0.3795 -0.9494 -1.1799
25389SOL    HW288227   7.686   3.757   2.160 -2.0595  1.3752 -0.4498
25390SOL     OW88228   7.290   8.466   3.216  0.3065  0.0104  0.0416
25390SOL    HW188229   7.389   8.450   3.224  0.0753 -0.9630  1.0670
25390SOL    HW288230   7.268   8.557   3.250  1.0350  0.7785 -1.5071
25391SOL     OW88231   3.128   3.680   8.463 -0.2037 -0.3825  0.6703
25391SOL    HW188232   3.198   3.614   8.432  0.9686  0.7992  0.7687
25391SOL    HW288233   3.038   3.648   8.434  0.5439 -1.0056 -1.0589
25392SOL     OW88234   0.554   5.038   1.014 -0.0360  0.2853  0.2384
25392SOL    HW188235   0.505   5.125   1.019 -4.2102 -2.1184  4.6470
25392SOL    HW288236   0.632   5.039   1.076 -0.4970  0.6356  0.8096
25393SOL     OW88237   3.435   7.933   4.941 -0.0489  0.3343  0.1950
25393SOL    HW188238   3.439   7.969   4.847  0.0883  0.4371  0.2402
25393SOL    HW288239   3.466   7.838   4.942  0.6244  0.5553  0.2488
25394SOL     OW88240   7.878   8.053   8.643  0.0969  0.3739  0.4017
25394SOL    HW188241   7.875   8.139   8.592 -2.6510  1.6894  2.6513
25394SOL    HW288242   7.822   7.985   8.597  0.9210  0.2747 -0.4763
25395SOL     OW88243   2.599   3.514   4.981 -0.0578 -0.4606 -0.3616
25395SOL    HW188244   2.679   3.573   4.981  0.5589 -1.2826 -0.2294
25395SOL    HW288245   2.531   3.549   5.046  0.6277 -0.3399  0.2916
25396SOL     OW88246   2.492   6.847   8.502 -0.4027 -0.0502 -0.1035
25396SOL    HW188247   2.517   6.760   8.459 -0.6005 -0.7029  1.0716
25396SOL    HW288248   2.432   6.829   8.580  1.7922  0.9097  1.8687
25397SOL     OW88249   0.273   9.725   6.145  0.9206 -0.3915 -0.2930
25397SOL    HW188250   0.362   9.719   6.190  0.4221  1.1206  0.9495
25397SOL    HW288251   0.239   9.819   6.152 -0.8465 -0.9891 -0.6236
25398SOL     OW88252   2.023   6.757   1.859  0.3851 -0.0391  0.4975
25398SOL    HW188253   1.933   6.754   1.902 -0.4110 -0.0511 -1.1429
25398SOL    HW288254   2.014   6.740   1.761  2.0958  0.5949  0.2083
25399SOL     OW88255   2.162   0.964   8.919 -0.0085 -0.0842  0.1403
25399SOL    HW188256   2.152   1.006   9.009 -1.0202 -1.4423  0.6794
25399SOL    HW288257   2.216   1.024   8.860  0.4244  0.9484  1.5577
25400SOL     OW88258   7.022   8.293   7.243  0.0069 -0.0147  0.0799
25400SOL    HW188259   7.026   8.194   7.254 -1.5406 -0.0674  0.2015
25400SOL    HW288260   6.976   8.334   7.321  0.2990  0.7786 -0.1511
25401SOL     OW88261   0.982   5.093   0.185 -0.0159 -0.4798  0.5106
25401SOL    HW188262   1.076   5.098   0.151  0.1935  0.1789  1.1764
25401SOL    HW288263   0.925   5.155   0.131 -0.0320 -0.7458  0.2218
25402SOL     OW88264   5.663   3.878   7.989  0.4228 -0.0467 -0.2513
25402SOL    HW188265   5.570   3.897   7.956  0.5334  0.9919  0.0217
25402SOL    HW288266   5.710   3.819   7.923 -2.0459 -4.6713  1.8708
25403SOL     OW88267   0.416   9.115   6.676 -0.1223 -0.4229 -0.5194
25403SOL    HW188268   0.481   9.191   6.674 -0.3742 -0.0701  2.6275
25403SOL    HW288269   0.467   9.029   6.676  0.3350 -0.1674  0.5187
25404SOL     OW88270   2.567   5.481   9.001 -0.0596  0.1290 -0.4178
25404SOL    HW188271   2.492   5.546   8.986 -1.1147 -1.1424 -0.7249
25404SOL    HW288272   2.654   5.531   9.001 -1.0383  1.9478  2.1999
25405SOL     OW88273   9.967   0.888   0.570 -0.0876  0.4510  0.0152
25405SOL    HW188274  10.008   0.845   0.489 -1.2623 -0.3919 -0.1652
25405SOL    HW288275  10.026   0.961   0.603  0.6187  0.5233 -1.3548
25406SOL     OW88276   1.852   6.262   9.316 -0.2535  0.4384  0.2378
25406SOL    HW188277   1.853   6.299   9.410 -0.4180  1.2659 -0.0807
25406SOL    HW288278   1.945   6.242   9.287 -0.0531  1.6582  0.0128
25407SOL     OW88279   4.586   6.832   3.921  0.4957  0.0553 -0.3994
25407SOL    HW188280   4.657   6.807   3.987  0.0524 -0.6743 -0.1955
25407SOL    HW288281   4.587   6.931   3.907  1.2821  0.0930 -0.0904
25408SOL     OW88282   0.216   7.643   3.201  0.1568  0.0574 -0.1040
25408SOL    HW188283   0.140   7.638   3.265 -1.1919  1.6580 -1.5269
25408SOL    HW288284   0.301   7.657   3.251 -0.3626 -2.3791  1.5434
25409SOL     OW88285   2.694   4.232   7.921 -0.4399 -0.0287  0.1993
25409SOL    HW188286   2.614   4.195   7.969  0.4174  0.6762  2.2567
25409SOL    HW288287   2.681   4.330   7.907 -0.1606 -0.0106  0.0760
25410SOL     OW88288   8.620   3.067   9.036  0.2056  0.2924  0.4531
25410SOL    HW188289   8.696   3.055   9.100  0.9703 -0.7576 -0.6221
25410SOL    HW288290   8.553   2.995   9.051  0.5498 -0.1580 -0.1419
25411SOL     OW88291   9.707   1.364   9.348 -0.2072 -0.3198  0.0502
25411SOL    HW188292   9.637   1.297   9.371 -1.0101  0.4577 -0.1074
25411SOL    HW288293   9.788   1.317   9.312 -0.4843 -1.2455  0.6253
25412SOL     OW88294   8.357   5.267   7.415  0.5357 -0.2667  0.1064
25412SOL    HW188295   8.268   5.309   7.430  0.9609  0.6389  0.1427
25412SOL    HW288296   8.367   5.244   7.318  0.1344 -0.6788  0.1594
25413SOL     OW88297   9.193   6.522   3.176  0.0498 -0.2871 -0.3345
25413SOL    HW188298   9.194   6.477   3.265  1.6892 -1.4634 -0.9344
25413SOL    HW288299   9.140   6.466   3.111  1.1986 -0.8352 -0.8073
25414SOL     OW88300   7.349   2.116   9.659 -0.0409 -0.3082 -0.2138
25414SOL    HW188301   7.339   2.214   9.674  1.8990 -0.1538  0.2912
25414SOL    HW288302   7.267   2.068   9.688 -0.8581  1.1360 -0.1308
25415SOL     OW88303   6.465   9.557   1.490 -0.1576  0.1925 -0.4325
25415SOL    HW188304   6.468   9.523   1.396  0.2451 -0.0033 -0.3507
25415SOL    HW288305   6.545   9.614   1.508  1.4205 -2.2949  0.7336
25416SOL     OW88306   6.605   1.091   0.066 -0.1083 -0.2877 -0.0114
25416SOL    HW188307   6.680   1.085   0.001 -0.2624  0.8061 -0.2933
25416SOL    HW288308   6.536   1.154   0.032  1.1620  2.6069  2.5143
25417SOL     OW88309   4.007   1.072   5.432 -0.6149 -0.2055 -0.1992
25417SOL    HW188310   3.992   0.981   5.470 -0.8520  1.4527  3.9886
25417SOL    HW288311   4.096   1.106   5.462 -1.7344  2.0329  0.6929
25418SOL     OW88312   5.193   0.863   8.358 -0.0927 -0.3855  0.8114
25418SOL    HW188313   5.191   0.956   8.322 -0.4157 -0.1217  1.5078
25418SOL    HW288314   5.191   0.798   8.282 -0.9204  0.1677  0.3444
25419SOL     OW88315   8.609   4.372   7.039 -0.4766 -0.2153 -0.3639
25419SOL    HW188316   8.520   4.326   7.040 -1.4034  1.5340  1.1163
25419SOL    HW288317   8.661   4.345   7.121 -0.2906 -0.0309 -0.4221
25420SOL     OW88318   4.392   9.099   9.301 -0.4381  0.9084  0.0283
25420SOL    HW188319   4.374   9.195   9.279  1.1104  0.4537 -3.5267
25420SOL    HW288320   4.489   9.080   9.289 -0.9131 -1.3651 -0.3932
25421SOL     OW88321   2.402   3.158   5.323 -0.3568 -0.1554 -0.1625
25421SOL    HW188322   2.422   3.185   5.417 -4.7211  1.4726  0.3956
25421SOL    HW288323   2.451   3.219   5.260  2.3038 -1.0294  0.9716
25422SOL     OW88324   2.723   8.848   7.707 -0.2199  0.3417 -0.5099
25422SOL    HW188325   2.761   8.938   7.686  1.9485 -0.1901  0.8400
25422SOL    HW288326   2.776   8.778   7.659  1.9166 -0.5549  2.9241
25423SOL     OW88327   3.111   6.751   8.598 -0.2807 -0.4166  0.4244
25423SOL    HW188328   3.193   6.808   8.597 -0.5962  0.0435 -0.9515
25423SOL    HW288329   3.135   6.657   8.574 -0.2341 -0.1352 -0.6841
25424SOL     OW88330   5.913   2.302   4.432 -0.0723 -0.1831 -0.2963
25424SOL    HW188331   5.859   2.379   4.398  0.0409  0.2933  0.5920
25424SOL    HW288332   6.000   2.298   4.382 -0.5720 -0.4518 -1.1565
25425SOL     OW88333   9.257   0.310   2.923 -0.0521  0.1350  0.2222
25425SOL    HW188334   9.260   0.255   3.007 -0.7796  2.0669  1.5606
25425SOL    HW288335   9.348   0.346   2.904 -0.0581  0.4109  0.6948
25426SOL     OW88336   6.692   9.637   2.566 -0.1171 -0.0743 -0.4946
25426SOL    HW188337   6.689   9.581   2.483  1.0463 -0.6968 -0.1372
25426SOL    HW288338   6.619   9.608   2.628 -1.6171  1.0648 -1.7023
25427SOL     OW88339   2.012   1.147   1.990 -0.3059  0.0112  0.4417
25427SOL    HW188340   2.001   1.050   2.014 -1.1195 -0.0950 -0.3177
25427SOL    HW288341   2.000   1.203   2.072 -0.8476 -0.4725  0.7029
25428SOL     OW88342   9.573   5.298   1.197  0.0552 -0.1011 -0.2133
25428SOL    HW188343   9.603   5.211   1.237 -0.7731 -0.6518 -0.7529
25428SOL    HW288344   9.644   5.366   1.208  0.4482 -0.6643  0.8285
25429SOL     OW88345   6.207   1.516   0.437  0.6906 -0.1701 -0.4034
25429SOL    HW188346   6.134   1.480   0.495  0.0293  0.4940 -0.8250
25429SOL    HW288347   6.222   1.454   0.360  1.5634 -1.0516  0.4528
25430SOL     OW88348   2.791   0.527   4.856 -0.4676  0.0770  0.0352
25430SOL    HW188349   2.734   0.451   4.823  0.6684 -0.5251 -0.5603
25430SOL    HW288350   2.739   0.612   4.848 -2.1260 -0.7475  1.6517
25431SOL     OW88351   0.428   2.821   2.604  0.4799 -0.0380  0.0305
25431SOL    HW188352   0.501   2.803   2.670 -2.0205 -3.8552  1.9589
25431SOL    HW288353   0.439   2.761   2.525 -0.1985 -0.1281  0.0030
25432SOL     OW88354   6.283   3.243   0.728 -0.0370 -0.2126  0.2379
25432SOL    HW188355   6.340   3.169   0.763  1.4119 -0.2163 -2.0386
25432SOL    HW288356   6.230   3.211   0.650 -1.0715  0.5593  0.6101
25433SOL     OW88357   4.394   6.926   9.855 -0.3210 -0.4720 -0.5597
25433SOL    HW188358   4.397   6.870   9.773  0.2443 -1.2680 -0.0066
25433SOL    HW288359   4.421   6.871   9.934 -1.4684  0.1218  0.2543
25434SOL     OW88360   8.713   5.868   2.271 -0.1424  0.0881  0.0020
25434SOL    HW188361   8.805   5.870   2.310 -0.3476  1.4273  0.4302
25434SOL    HW288362   8.660   5.946   2.306 -1.0882 -0.0538 -1.1000
25435SOL     OW88363   6.631   4.843   7.365 -0.3314 -0.2947 -0.0754
25435SOL    HW188364   6.658   4.783   7.441  0.6543 -0.3078 -0.4304
25435SOL    HW288365   6.648   4.938   7.390 -1.0199 -0.2222  0.1286
25436SOL     OW88366   4.109   7.928   3.823 -0.3460  0.8360  0.7345
25436SOL    HW188367   4.208   7.936   3.827 -0.5059  2.5226  2.1579
25436SOL    HW288368   4.081   7.834   3.843  1.0010  0.0853 -0.8354
25437SOL     OW88369   6.435   7.949   5.785  0.6017  0.3190  0.0754
25437SOL    HW188370   6.382   7.877   5.739  0.0006 -0.1990  1.5423
25437SOL    HW288371   6.485   8.002   5.717  1.9189 -2.1696 -0.9633
25438SOL     OW88372   1.156   5.711   6.494 -0.0889 -0.0158 -1.0252
25438SOL    HW188373   1.229   5.724   6.427  2.1201 -2.5916  0.7732
25438SOL    HW288374   1.091   5.644   6.459 -0.7371  1.0863 -1.9591
25439SOL     OW88375   9.028   5.100   2.217 -0.2253 -0.0510  0.4700
25439SOL    HW188376   9.072   5.011   2.211 -1.0169 -0.4333  0.1842
25439SOL    HW288377   8.953   5.105   2.150 -0.1173  0.8634  0.4128
25440SOL     OW88378   7.098   3.132   8.654 -0.1006  0.4234 -0.8813
25440SOL    HW188379   7.120   3.034   8.653 -1.7128  0.0540 -1.2231
25440SOL    HW288380   7.167   3.181   8.707  0.0390 -1.0738  0.3571
25441SOL     OW88381   8.604   0.637   6.314 -0.0119  0.1393  0.2385
25441SOL    HW188382   8.537   0.702   6.349  0.5037  1.2044 -0.6908
25441SOL    HW288383   8.620   0.655   6.217  1.3364 -0.3381  0.3610
25442SOL     OW88384   7.000   4.324   8.099 -0.5894 -0.0754  0.4829
25442SOL    HW188385   7.092   4.286   8.105 -0.7758 -0.6332 -0.1124
25442SOL    HW288386   6.986   4.391   8.172  0.5814  0.6531  0.0475
25443SOL     OW88387   0.063   9.900   4.575  0.7508 -0.1411  0.1163
25443SOL    HW188388  -0.025   9.945   4.557  0.9777 -0.4273 -1.7388
25443SOL    HW288389   0.051   9.801   4.572  1.1437 -0.1818 -0.1726
25444SOL     OW88390   0.626   4.459   2.829 -0.3114 -0.6141 -0.0959
25444SOL    HW188391   0.565   4.474   2.751  0.4206  2.0269 -0.2173
25444SOL    HW288392   0.572   4.441   2.911 -1.1550 -1.0658 -0.7404
25445SOL     OW88393   1.775   0.887   3.089 -0.4207 -0.1731 -0.1433
25445SOL    HW188394   1.855   0.872   3.148 -1.6412 -0.7422  1.4170
25445SOL    HW288395   1.760   0.985   3.078  0.9411 -0.0645 -1.0819
25446SOL     OW88396   1.731   6.058   5.229 -0.4866 -0.6817 -0.3060
25446SOL    HW188397   1.795   6.016   5.164 -0.4143 -0.7292 -0.2049
25446SOL    HW288398   1.744   6.157   5.229 -0.9850 -0.6127 -0.8948
25447SOL     OW88399   0.168   3.413   7.673  0.0621 -0.1083  0.0224
25447SOL    HW188400   0.161   3.441   7.768  0.0414 -1.4599  0.4188
25447SOL    HW288401   0.256   3.444   7.635  0.2012  0.1590  0.5660
25448SOL     OW88402   4.501   6.922   4.614 -0.8900  0.3534 -0.1277
25448SOL    HW188403   4.510   6.893   4.518  0.2832 -1.2912  0.4532
25448SOL    HW288404   4.465   6.847   4.668  1.9925 -0.0221  1.3808
25449SOL     OW88405   1.252   0.460   6.623  0.2152  0.2542 -0.1314
25449SOL    HW188406   1.158   0.493   6.619 -0.0404 -0.5719 -1.1938
25449SOL    HW288407   1.251   0.360   6.635  0.9594  0.3338  0.6179
25450SOL     OW88408   0.102   3.020   5.291 -0.3194 -0.7762  0.2930
25450SOL    HW188409   0.006   3.036   5.312 -0.5647 -1.2245 -0.4548
25450SOL    HW288410   0.136   2.943   5.345  0.0039  0.2461  1.5750
25451SOL     OW88411   9.949   7.553   5.822 -0.8267 -0.8499  0.0125
25451SOL    HW188412  10.011   7.550   5.899  0.3195  0.7822 -0.8254
25451SOL    HW288413   9.979   7.488   5.752 -0.0043 -0.0021 -0.4269
25452SOL     OW88414   1.086   2.929   2.701  0.2263  0.1101 -0.1062
25452SOL    HW188415   1.132   3.017   2.710 -1.8602  1.1960  0.3591
25452SOL    HW288416   1.043   2.923   2.611 -1.8355  0.6843  0.8201
25453SOL     OW88417   6.575   1.038   8.462  0.3253  0.2696 -0.1177
25453SOL    HW188418   6.552   0.988   8.379  0.2393 -0.3819  0.2906
25453SOL    HW288419   6.642   0.985   8.515 -0.4407  0.1572  0.7556
25454SOL     OW88420   0.259   2.278   4.051  0.0620 -0.1677  0.3885
25454SOL    HW188421   0.175   2.332   4.063  0.5733  0.7073  0.0658
25454SOL    HW288422   0.253   2.195   4.107 -0.8026  0.1404  0.7693
25455SOL     OW88423   3.755   6.068   8.065  0.4489 -0.5922  0.0157
25455SOL    HW188424   3.672   6.052   8.118  1.4060 -0.2687  1.6540
25455SOL    HW288425   3.761   6.002   7.991  0.3810 -2.7473  1.8882
25456SOL     OW88426   7.959   3.344   4.289 -0.1270  1.0073  0.2754
25456SOL    HW188427   8.034   3.352   4.223 -0.0512  0.8654  0.3427
25456SOL    HW288428   7.918   3.253   4.283 -0.3953  1.1376  0.1321
25457SOL     OW88429   6.977   9.238   5.681  0.5603  0.3504  0.4158
25457SOL    HW188430   7.059   9.196   5.720  0.9339 -0.8565 -1.5865
25457SOL    HW288431   7.000   9.285   5.596 -0.6581  0.7982  0.3158
25458SOL     OW88432   5.453   4.524   8.381  0.9742  0.5172 -0.1408
25458SOL    HW188433   5.403   4.568   8.307  0.1060 -0.5950 -0.2259
25458SOL    HW288434   5.521   4.462   8.343  0.0329 -0.6067 -0.0222
25459SOL     OW88435   5.382   3.177   5.508  0.1692 -0.2126 -0.8641
25459SOL    HW188436   5.291   3.135   5.509 -0.3851  0.9097  1.3233
25459SOL    HW288437   5.384   3.252   5.442 -1.2580  1.2536  0.7055
25460SOL     OW88438   5.858   0.244   3.415  0.4798 -0.7822  0.0894
25460SOL    HW188439   5.956   0.251   3.400  0.9332 -1.1247  2.7283
25460SOL    HW288440   5.832   0.301   3.493 -1.5997  0.1906 -1.2801
25461SOL     OW88441   9.099   2.663   1.223  0.1215 -0.0981 -0.3622
25461SOL    HW188442   9.102   2.701   1.316 -1.3408 -1.6217  0.3277
25461SOL    HW288443   9.163   2.714   1.165  0.5223  1.3576  1.2865
25462SOL     OW88444   3.938   1.449   3.195 -0.0748  0.5246 -0.4159
25462SOL    HW188445   3.955   1.381   3.267  2.1863  0.5623 -0.8601
25462SOL    HW288446   3.841   1.449   3.171 -0.7001 -0.1717  1.9559
25463SOL     OW88447   9.863   3.142   3.577  1.1404  0.1770  0.0576
25463SOL    HW188448   9.827   3.235   3.588  0.0303 -0.0523 -1.4660
25463SOL    HW288449   9.943   3.130   3.635  1.5608  2.2298 -0.0680
25464SOL     OW88450   1.783   7.659   9.720 -0.3250  0.0771  0.0391
25464SOL    HW188451   1.848   7.717   9.671  1.7310 -1.0642  1.3144
25464SOL    HW288452   1.779   7.569   9.676 -1.9624  0.4940 -0.7208
25465SOL     OW88453   1.272   5.802   5.871 -0.3955  0.2335  0.2757
25465SOL    HW188454   1.313   5.871   5.932  3.6199 -0.6324 -1.2763
25465SOL    HW288455   1.317   5.807   5.781 -3.9020 -0.7383 -1.6021
25466SOL     OW88456   6.864   9.903   2.007  0.0413 -0.0099 -0.3081
25466SOL    HW188457   6.862   9.888   2.106  1.9823 -1.3039 -0.4426
25466SOL    HW288458   6.831   9.995   1.987 -0.8851  0.0760  1.4880
25467SOL     OW88459   8.370   2.419   4.207 -0.5804  0.2462 -0.4193
25467SOL    HW188460   8.285   2.382   4.171  0.4567 -0.6283 -2.0564
25467SOL    HW288461   8.401   2.363   4.284 -0.0739 -1.1302 -1.5880
25468SOL     OW88462   4.509   4.104   0.333  0.5435 -0.1433 -0.0023
25468SOL    HW188463   4.484   4.155   0.251  1.5753  0.8897  0.3131
25468SOL    HW288464   4.590   4.145   0.375  0.3762 -1.0117  1.2137
25469SOL     OW88465   7.743   8.909   1.952 -0.1922  0.1878  0.1350
25469SOL    HW188466   7.733   8.937   2.048  0.1567  0.0246  0.2183
25469SOL    HW288467   7.691   8.825   1.936  0.4769 -0.2705  0.3952
25470SOL     OW88468   9.967   8.964   6.549 -0.5036  0.0230  0.1084
25470SOL    HW188469  10.027   9.038   6.518  1.0080 -1.3116 -0.2401
25470SOL    HW288470   9.876   8.976   6.508 -0.0122  1.1632 -0.6929
25471SOL     OW88471   3.424   5.175   3.209 -0.3752  0.6525  0.0069
25471SOL    HW188472   3.492   5.137   3.145  0.8604 -0.9324  2.2134
25471SOL    HW288473   3.345   5.114   3.212  0.5439 -0.4921  1.6702
25472SOL     OW88474   6.682   4.690   1.119  0.3447  0.1002 -0.1185
25472SOL    HW188475   6.752   4.725   1.180  1.4442  2.3245 -2.5299
25472SOL    HW288476   6.616   4.762   1.099 -1.0835 -1.1540 -0.0502
25473SOL     OW88477   7.829   4.893   3.037 -0.3925  0.4975 -0.1332
25473SOL    HW188478   7.747   4.945   3.014 -0.5422  1.3530  2.1694
25473SOL    HW288479   7.816   4.848   3.126  1.7928  1.0054  0.4766
25474SOL     OW88480   2.562   6.151   6.196 -0.2916 -0.2101 -0.2951
25474SOL    HW188481   2.633   6.168   6.263  0.4186  1.4136 -1.4159
25474SOL    HW288482   2.595   6.087   6.127 -0.1389  0.0339 -0.4505
25475SOL     OW88483   5.114   0.386   2.594  0.2528 -0.3017  0.0782
25475SOL    HW188484   5.016   0.376   2.611  0.0835 -0.1936 -0.7933
25475SOL    HW288485   5.140   0.331   2.514  0.8217 -0.0016  0.0535
25476SOL     OW88486   5.610   9.778   2.989  0.2979 -0.0564 -0.1358
25476SOL    HW188487   5.531   9.796   3.048 -0.5077 -2.3228 -0.4731
25476SOL    HW288488   5.691   9.821   3.028 -0.6550  0.3622  1.4406
25477SOL     OW88489   6.775   5.127   2.063 -0.2445  0.5694 -0.0498
25477SOL    HW188490   6.835   5.203   2.086 -0.0496  0.6326 -0.7518
25477SOL    HW288491   6.821   5.040   2.083 -0.8155  0.6381  1.6160
25478SOL     OW88492   7.221   8.200   5.852  0.5346 -0.4721  0.5527
25478SOL    HW188493   7.180   8.139   5.784  1.6471 -0.1427 -0.4344
25478SOL    HW288494   7.231   8.291   5.813  0.7603 -0.1611  1.3252
25479SOL     OW88495   1.928   0.767   0.574 -0.4011 -0.2510  0.0273
25479SOL    HW188496   2.013   0.797   0.531 -1.3878  0.7239 -1.3177
25479SOL    HW288497   1.874   0.715   0.507 -0.9628 -0.6601  0.7948
25480SOL     OW88498   1.811   7.948   9.688  0.3913  0.5749 -0.6131
25480SOL    HW188499   1.818   8.021   9.756 -1.3410  0.6802 -0.5161
25480SOL    HW288500   1.726   7.897   9.703  0.9806 -0.6784 -1.4515
25481SOL     OW88501   6.210   2.601   4.417 -0.2552 -0.2468 -0.5087
25481SOL    HW188502   6.116   2.637   4.421 -0.2963 -0.5175  1.6102
25481SOL    HW288503   6.246   2.592   4.509  1.6228 -0.8259 -1.2734
25482SOL     OW88504   5.869   5.881   1.129 -0.4982 -0.4613 -0.4987
25482SOL    HW188505   5.910   5.839   1.048  0.3347  1.6262 -1.2017
25482SOL    HW288506   5.940   5.897   1.197 -0.3873  1.8219 -1.1275
25483SOL     OW88507   0.801   9.905   5.538 -0.0973 -0.4873 -0.1782
25483SOL    HW188508   0.873   9.962   5.499 -1.4318  2.1783  1.0895
25483SOL    HW288509   0.712   9.934   5.502 -0.8720 -1.3757  0.9609
25484SOL     OW88510   4.293   1.889   5.324  0.7167 -0.1735 -0.2849
25484SOL    HW188511   4.245   1.832   5.391 -0.5427  0.7683 -0.3557
25484SOL    HW288512   4.301   1.839   5.238  1.3968 -0.9908  0.2523
25485SOL     OW88513   6.805   2.991   3.160 -0.3197 -0.0363 -0.1340
25485SOL    HW188514   6.793   3.088   3.139 -1.2896 -0.3597 -1.0774
25485SOL    HW288515   6.741   2.936   3.106  0.7308 -1.2615 -0.1625
25486SOL     OW88516   0.111   0.348   5.160 -0.3143  0.4045  0.1307
25486SOL    HW188517   0.109   0.394   5.071 -3.5292 -0.8079 -0.4859
25486SOL    HW288518   0.128   0.250   5.147  0.1627  0.3723  0.9430
25487SOL     OW88519   2.717   0.985  10.077 -1.0208  0.2293  0.1521
25487SOL    HW188520   2.657   0.906  10.091  0.0839 -0.7241 -0.3247
25487SOL    HW288521   2.794   0.958  10.019 -0.6610  1.6856 -0.0683
25488SOL     OW88522   3.686   9.295   4.543  0.3890  0.1259  0.0491
25488SOL    HW188523   3.676   9.372   4.607  3.4205  1.0627 -0.5008
25488SOL    HW288524   3.750   9.229   4.580  1.3246  0.1324 -1.5246
25489SOL     OW88525   7.634   0.611   6.612  0.4529  0.0512 -0.2732
25489SOL    HW188526   7.730   0.638   6.603  0.7927 -1.6051 -1.7110
25489SOL    HW288527   7.577   0.671   6.555  0.7335  0.3837 -0.2079
25490SOL     OW88528   1.889   0.497   7.488  0.0716  0.4124  0.4228
25490SOL    HW188529   1.987   0.477   7.496  0.0631  0.5811  0.9748
25490SOL    HW288530   1.839   0.445   7.558 -0.2508  0.2061  0.0401
25491SOL     OW88531   1.378   8.651   1.537 -0.8242 -0.0123 -0.4148
25491SOL    HW188532   1.365   8.698   1.449 -0.4379  1.1273  0.1203
25491SOL    HW288533   1.428   8.566   1.523 -0.9927  0.0401 -1.3392
25492SOL     OW88534   9.446   5.811   9.106 -0.0307 -0.2791  0.4969
25492SOL    HW188535   9.415   5.753   9.181 -0.4597 -0.0304  0.5149
25492SOL    HW288536   9.367   5.857   9.065  0.2497 -0.0918  0.1632
25493SOL     OW88537   2.124   4.941   7.364  0.2847  0.2171  0.4738
25493SOL    HW188538   2.199   4.875   7.359 -0.7417 -0.8472 -1.5110
25493SOL    HW288539   2.137   5.011   7.293 -0.3048  0.3287  0.4760
25494SOL     OW88540   0.530   6.970   0.137  0.5770  0.2539  0.1655
25494SOL    HW188541   0.543   7.070   0.137 -0.2191  0.3595 -0.6093
25494SOL    HW288542   0.583   6.930   0.212  2.6276  1.0463 -0.8214
25495SOL     OW88543   3.769   6.845   6.920  0.4360 -0.0470 -0.4994
25495SOL    HW188544   3.783   6.861   7.018  0.4634 -0.8846 -0.3674
25495SOL    HW288545   3.750   6.932   6.875  0.9092  0.4124  0.1711
25496SOL     OW88546   3.747   7.768   5.573  0.0806  0.4091 -0.1713
25496SOL    HW188547   3.665   7.805   5.529  0.3513 -1.4675 -2.3752
25496SOL    HW288548   3.722   7.728   5.661 -1.8196 -1.9705 -1.6963
25497SOL     OW88549   5.394   2.162   8.821 -0.0466 -0.0802 -0.1856
25497SOL    HW188550   5.390   2.142   8.723  1.8863 -0.6548 -0.1700
25497SOL    HW288551   5.441   2.250   8.834  1.6844 -1.0648  0.3230
25498SOL     OW88552   7.802   1.894   7.858 -0.2026 -0.2051 -0.3653
25498SOL    HW188553   7.725   1.836   7.832 -0.9321  0.3682  0.4630
25498SOL    HW288554   7.824   1.956   7.783 -0.2385 -0.6968 -0.7824
25499SOL     OW88555   8.957   5.744   7.430 -0.0226  0.0595 -0.2130
25499SOL    HW188556   9.044   5.721   7.474  0.5205  0.5500 -1.0183
25499SOL    HW288557   8.970   5.824   7.370 -0.8848 -0.2228 -0.7852
25500SOL     OW88558   3.441   4.967   7.467  0.0266 -0.5622  0.6964
25500SOL    HW188559   3.451   5.060   7.503 -0.3516  0.3304 -1.3974
25500SOL    HW288560   3.528   4.939   7.425 -0.6337 -0.0943 -1.0201
25501SOL     OW88561   0.895   8.621   3.810  0.2642  0.0655  0.2137
25501SOL    HW188562   0.938   8.534   3.787 -0.3924  0.1768 -1.5035
25501SOL    HW288563   0.879   8.626   3.909 -0.0745 -1.9241  0.2667
25502SOL     OW88564   3.214   2.764   1.650  0.8621 -0.0561 -0.0714
25502SOL    HW188565   3.308   2.731   1.635  1.2042 -0.2916  2.3651
25502SOL    HW288566   3.159   2.690   1.688  0.5740  1.0121  1.6383
25503SOL     OW88567   1.457   5.257   0.710  0.4306 -0.3408  0.1048
25503SOL    HW188568   1.485   5.191   0.780 -1.8722 -1.6271 -0.1519
25503SOL    HW288569   1.509   5.240   0.626  0.5587 -1.2055  0.3525
25504SOL     OW88570   8.460   5.154   5.535 -0.2985 -0.1950  0.4463
25504SOL    HW188571   8.365   5.130   5.553 -0.2138  1.8170  3.8574
25504SOL    HW288572   8.464   5.235   5.476 -0.7431  1.3463  2.5149
25505SOL     OW88573   8.837   8.406   6.101 -0.5216 -0.0365  0.3025
25505SOL    HW188574   8.919   8.462   6.098 -0.5967  0.0819  0.4580
25505SOL    HW288575   8.757   8.464   6.118 -0.8921  0.1153 -1.8723
25506SOL     OW88576   6.217   7.213   5.545  0.9024  0.5522 -0.0099
25506SOL    HW188577   6.311   7.209   5.513  1.6499 -1.6121  2.3279
25506SOL    HW288578   6.178   7.121   5.548 -0.4117  1.1140  1.5077
25507SOL     OW88579   4.444   0.797   0.927  0.0524 -0.3865  0.2727
25507SOL    HW188580   4.493   0.828   0.846 -1.2347  1.2725  0.0901
25507SOL    HW288581   4.509   0.766   0.996  1.2143 -0.6764 -0.9418
25508SOL     OW88582   6.996   4.117   1.591  0.0945  0.5834  0.4073
25508SOL    HW188583   7.082   4.092   1.635  0.0875 -0.5089 -0.1742
25508SOL    HW288584   6.936   4.037   1.585 -1.0471  1.3725  0.9737
25509SOL     OW88585   1.527   2.989   6.447 -0.1133 -0.5556 -0.2016
25509SOL    HW188586   1.501   2.924   6.519  0.7012 -0.2565  0.3692
25509SOL    HW288587   1.607   3.040   6.477 -1.5808  1.7085 -0.0467
25510SOL     OW88588   5.245   9.818   7.935  0.1925  0.1097  0.4299
25510SOL    HW188589   5.324   9.814   7.996 -0.6615 -0.0499  1.5435
25510SOL    HW288590   5.186   9.894   7.962  0.1338  0.4587 -0.6281
25511SOL     OW88591   5.883   1.818   9.712  0.2949 -0.6533  0.0111
25511SOL    HW188592   5.919   1.889   9.651 -0.6358  1.1048  1.4516
25511SOL    HW288593   5.912   1.728   9.680  1.6612  0.3911 -1.7530
25512SOL     OW88594   3.796   9.977   2.132 -0.2224 -0.4368 -0.0819
25512SOL    HW188595   3.875   9.919   2.153  0.4158 -0.1760 -1.6394
25512SOL    HW288596   3.818  10.035   2.053 -1.4885  0.6320  0.3426
25513SOL     OW88597   7.808   2.569   2.085  0.1635 -0.1342 -0.0405
25513SOL    HW188598   7.828   2.538   1.992 -1.4581 -0.2951 -0.3524
25513SOL    HW288599   7.862   2.515   2.150 -2.3981 -3.5401 -0.5798
25514SOL     OW88600   4.034   3.114   3.219 -0.1472 -0.1506  0.3428
25514SOL    HW188601   4.046   3.069   3.307  3.0389  1.6495  0.9105
25514SOL    HW288602   4.092   3.069   3.151 -1.2031 -0.3686 -0.4305
25515SOL     OW88603   7.295   1.412   3.742  0.1636  0.3408  0.0579
25515SOL    HW188604   7.314   1.476   3.817 -0.0005 -0.3357  0.6872
25515SOL    HW288605   7.248   1.461   3.668 -0.0965  0.9135  0.5905
25516SOL     OW88606   2.137   9.225   1.224 -0.3688  0.0932  0.3419
25516SOL    HW188607   2.067   9.156   1.241 -0.8893  0.7365  0.8225
25516SOL    HW288608   2.220   9.181   1.190 -1.1006 -0.6392 -0.4979
25517SOL     OW88609   1.584   7.685   8.085  0.3342 -0.7242  0.7321
25517SOL    HW188610   1.623   7.770   8.051  2.0452 -1.1046  1.6838
25517SOL    HW288611   1.633   7.655   8.166 -1.2184 -1.8448  1.3031
25518SOL     OW88612   1.874   9.900   2.754 -0.8715 -0.3281  0.3811
25518SOL    HW188613   1.851   9.808   2.721  1.1351  0.0065 -2.1152
25518SOL    HW288614   1.792   9.945   2.789 -2.3086 -2.2112 -0.5056
25519SOL     OW88615   9.634   0.511   4.147  0.2506 -0.3339  0.1840
25519SOL    HW188616   9.630   0.440   4.077  0.2706  0.2803 -0.4460
25519SOL    HW288617   9.683   0.591   4.111 -1.2838  0.6632  0.2856
25520SOL     OW88618   0.974   0.087   1.912 -0.3764  0.4522  0.7007
25520SOL    HW188619   0.963   0.122   2.005 -0.3922 -0.1338  0.9178
25520SOL    HW288620   1.057   0.127   1.872 -1.8641  2.9285 -0.0676
25521SOL     OW88621   8.194   9.434   3.790 -0.2217 -1.0275 -0.3415
25521SOL    HW188622   8.218   9.516   3.739 -0.0034 -1.1950 -0.5068
25521SOL    HW288623   8.203   9.354   3.731 -1.4234 -1.0733 -0.4866
25522SOL     OW88624   5.389   9.243   7.174 -0.1378 -0.5237 -0.4171
25522SOL    HW188625   5.369   9.155   7.217  0.1431 -0.4529 -0.1363
25522SOL    HW288626   5.488   9.259   7.175 -0.0162 -1.0954 -2.2288
25523SOL     OW88627   2.881   2.716   5.831  0.6435 -0.1814  0.2173
25523SOL    HW188628   2.963   2.766   5.858  0.6489 -0.7388  1.2496
25523SOL    HW288629   2.905   2.620   5.815 -0.0055 -0.5951  1.6343
25524SOL     OW88630   1.099   5.960   0.586  0.5672  0.1967  0.0520
25524SOL    HW188631   1.162   6.006   0.523  1.5318  0.2340  1.0345
25524SOL    HW288632   1.094   6.011   0.672 -2.4786  1.3877 -0.7772
25525SOL     OW88633   1.492   8.239   9.891 -0.1044 -0.4809  0.1221
25525SOL    HW188634   1.518   8.289   9.808  1.9128 -0.4124  0.7704
25525SOL    HW288635   1.398   8.260   9.915 -0.0913  0.9939 -1.0691
25526SOL     OW88636   3.315   1.623   9.059 -0.5903  0.0087  0.7532
25526SOL    HW188637   3.237   1.590   9.006 -1.0193 -2.1759  2.6538
25526SOL    HW288638   3.293   1.713   9.098 -2.0464 -0.4489  1.0262
25527SOL     OW88639   2.998   2.841   9.045  0.5592  0.1089  0.2798
25527SOL    HW188640   2.986   2.742   9.048  0.3460  0.1137 -0.4003
25527SOL    HW288641   2.938   2.883   9.114 -1.6532 -0.0410 -1.4881
25528SOL     OW88642   2.805   1.501   8.154  0.6739 -0.5287  0.2397
25528SOL    HW188643   2.863   1.422   8.134  0.0497 -0.6089 -1.2545
25528SOL    HW288644   2.848   1.584   8.117 -1.2191 -0.8812 -2.8907
25529SOL     OW88645   0.405   8.613   6.766  0.2342  0.0895  0.5258
25529SOL    HW188646   0.432   8.538   6.706 -0.7658 -0.7933  1.1636
25529SOL    HW288647   0.306   8.626   6.762  0.5079  2.0878 -0.3898
25530SOL     OW88648   8.296   1.265   1.346 -0.5636  0.3658 -0.0258
25530SOL    HW188649   8.214   1.307   1.306 -1.4481 -1.9253 -0.7316
25530SOL    HW288650   8.270   1.203   1.419  0.4000 -1.3359 -1.0729
25531SOL     OW88651   6.682   0.697   9.087 -0.4387  0.3026  0.1011
25531SOL    HW188652   6.689   0.598   9.099 -1.2695  0.1188 -0.9232
25531SOL    HW288653   6.770   0.740   9.109 -0.4852 -0.5153  1.9541
25532SOL     OW88654   0.014   5.581   2.194 -0.3676 -0.1595 -0.0990
25532SOL    HW188655  -0.024   5.544   2.110  0.9071  2.0677 -1.7252
25532SOL    HW288656  -0.059   5.593   2.261 -2.0955  1.5027 -2.2049
25533SOL     OW88657   3.317   7.140   3.394  0.5133 -0.1191 -0.2736
25533SOL    HW188658   3.326   7.069   3.323  0.4614  0.1229 -0.5246
25533SOL    HW288659   3.397   7.199   3.393  0.4010  0.0338 -0.2955
25534SOL     OW88660   2.483   2.994   3.878 -0.0453 -0.1054 -0.1899
25534SOL    HW188661   2.443   3.073   3.925  1.2525  0.7033 -0.4169
25534SOL    HW288662   2.411   2.943   3.832 -1.1765 -0.1561  1.5572
25535SOL     OW88663   9.560   5.395   8.851  0.3951  0.1851  0.3354
25535SOL    HW188664   9.580   5.393   8.949 -1.7860  0.2458  0.8167
25535SOL    HW288665   9.569   5.489   8.817  2.8003 -0.1135  0.0892
25536SOL     OW88666   5.179   4.707   8.817  0.1962 -0.0169 -0.2727
25536SOL    HW188667   5.273   4.693   8.786  0.2795  0.1636 -0.1027
25536SOL    HW288668   5.141   4.620   8.847 -0.0520 -0.2902 -1.3414
25537SOL     OW88669   8.493   4.926   9.750 -0.9179  0.1550 -0.0056
25537SOL    HW188670   8.452   4.975   9.672 -0.7107  1.6440  0.7970
25537SOL    HW288671   8.420   4.884   9.805 -1.0338 -1.4003 -1.3014
25538SOL     OW88672   4.403   9.703   2.308 -0.1166 -0.6783 -0.6669
25538SOL    HW188673   4.372   9.635   2.242 -0.8731  0.4506 -1.4828
25538SOL    HW288674   4.341   9.705   2.386  0.9637 -2.2492  0.2689
25539SOL     OW88675   6.453   6.326   9.841  0.1618  0.1025 -0.0709
25539SOL    HW188676   6.435   6.416   9.800 -0.1965  0.2279  0.3605
25539SOL    HW288677   6.504   6.270   9.776  0.5203  0.6695 -0.2901
25540SOL     OW88678   9.896   8.801   6.241  0.1728  0.1553 -0.0980
25540SOL    HW188679   9.929   8.749   6.320 -0.8017  1.7400  1.4042
25540SOL    HW288680   9.802   8.830   6.257 -0.4009 -0.3735 -2.3244
25541SOL     OW88681   4.065   9.423   0.937 -0.7181  0.1901  0.2980
25541SOL    HW188682   4.078   9.415   1.036  0.6008 -1.0953  0.0461
25541SOL    HW288683   4.037   9.516   0.914 -2.3007  0.1614  2.0133
25542SOL     OW88684   1.791   4.095   8.464  0.0827 -0.0856 -0.6203
25542SOL    HW188685   1.836   4.006   8.472 -0.9599 -0.6458 -0.9115
25542SOL    HW288686   1.714   4.100   8.527  1.1515  1.2635  0.6162
25543SOL     OW88687   8.757   5.479   3.991  0.0027 -0.2289  0.2653
25543SOL    HW188688   8.731   5.386   3.968  0.2373 -0.0510 -0.7412
25543SOL    HW288689   8.688   5.543   3.956  0.9372  0.1222 -0.9557
25544SOL     OW88690   4.510   6.215   8.583  0.1625 -0.2887 -0.5574
25544SOL    HW188691   4.450   6.165   8.646  0.0390  0.8637  0.2571
25544SOL    HW288692   4.605   6.193   8.605  0.0917 -0.8595 -0.7964
25545SOL     OW88693   7.335   7.398   6.370  0.1354  0.3047 -0.1220
25545SOL    HW188694   7.414   7.418   6.427  1.0576 -0.9442 -0.9467
25545SOL    HW288695   7.364   7.387   6.275 -1.1119  0.4367 -0.5304
25546SOL     OW88696   2.405   5.976   3.424  0.7256 -0.0300 -0.2478
25546SOL    HW188697   2.332   5.923   3.381 -0.9250  1.6926  0.4082
25546SOL    HW288698   2.415   5.949   3.519 -0.5893  1.3188  0.2776
25547SOL     OW88699   6.387   5.711   8.568  0.4524  0.3078  0.4418
25547SOL    HW188700   6.486   5.696   8.561 -0.0867 -2.6468 -1.5747
25547SOL    HW288701   6.354   5.668   8.652  0.8065  0.9700  0.9263
25548SOL     OW88702   6.366   8.684   7.031  0.2500 -0.1312  0.1798
25548SOL    HW188703   6.415   8.765   6.998  1.6182 -0.4469  1.3641
25548SOL    HW288704   6.279   8.711   7.071  0.1824  0.6285 -0.4681
25549SOL     OW88705   7.222   2.331   1.591 -0.0502 -0.9013  0.1802
25549SOL    HW188706   7.266   2.256   1.541  0.2568  0.4168 -1.5825
25549SOL    HW288707   7.292   2.379   1.645 -0.1616 -1.5994  0.9473
25550SOL     OW88708   6.883   4.527   1.605 -0.7399 -0.1970 -0.0026
25550SOL    HW188709   6.962   4.470   1.582 -0.6027  0.7457 -1.9683
25550SOL    HW288710   6.801   4.491   1.560 -0.3221  2.1236 -2.7258
25551SOL     OW88711   7.782   5.010   3.465  0.5785 -0.6882  0.4735
25551SOL    HW188712   7.851   4.965   3.409  1.7141  0.8456  0.6325
25551SOL    HW288713   7.723   4.940   3.507 -0.1788 -1.8591 -2.4282
25552SOL     OW88714   8.395   5.086   6.148 -0.0236 -0.4574 -0.0498
25552SOL    HW188715   8.336   5.063   6.225  1.0010  0.2827  0.9777
25552SOL    HW288716   8.476   5.134   6.182  0.9213 -1.0273 -1.4954
25553SOL     OW88717   3.215   3.010   0.040  0.2476  0.2376  0.4274
25553SOL    HW188718   3.138   3.060   0.001  2.8348  2.6773 -1.7852
25553SOL    HW288719   3.232   3.043   0.133 -1.0857  0.0174  0.7540
25554SOL     OW88720   0.351   0.721   3.884 -0.2802 -0.2293 -0.4877
25554SOL    HW188721   0.302   0.641   3.918  1.7014 -0.6580  1.5064
25554SOL    HW288722   0.290   0.800   3.884 -1.5146 -1.1705  0.0547
25555SOL     OW88723   3.340   8.396   0.778 -0.2366  0.3460 -0.7690
25555SOL    HW188724   3.430   8.365   0.807 -0.6460 -1.8564 -1.6660
25555SOL    HW288725   3.345   8.431   0.684 -0.1208  1.2033 -0.4418
25556SOL     OW88726   5.449   4.092   9.645 -0.0891  0.2894  0.0442
25556SOL    HW188727   5.505   4.009   9.649 -0.0995  0.0605 -3.2501
25556SOL    HW288728   5.362   4.072   9.600 -0.0064  2.1122 -0.9599
25557SOL     OW88729   4.675   1.979   6.960  0.4011 -0.1275 -0.5325
25557SOL    HW188730   4.625   1.959   7.044 -3.6744  0.7140 -2.6059
25557SOL    HW288731   4.718   2.069   6.967  3.1672 -1.5577  1.9073
25558SOL     OW88732   8.343   6.514   0.997  0.1718 -0.0130  0.5345
25558SOL    HW188733   8.328   6.460   1.080  1.5015 -1.5517 -0.1937
25558SOL    HW288734   8.402   6.463   0.934 -1.1548  0.9398 -1.5483
25559SOL     OW88735   5.449   9.893   2.403  0.2914 -0.4073  0.2353
25559SOL    HW188736   5.405   9.803   2.398 -1.1887  0.3942 -1.6639
25559SOL    HW288737   5.527   9.895   2.341  1.4923 -0.9876  1.7013
25560SOL     OW88738   2.679   5.414   6.899 -0.5000  0.1293 -0.2806
25560SOL    HW188739   2.580   5.423   6.914 -0.5560 -1.3219  0.2759
25560SOL    HW288740   2.725   5.407   6.988 -0.0073 -0.2296 -0.5647
25561SOL     OW88741   1.712   1.697   4.169 -0.0837  0.5816 -0.1100
25561SOL    HW188742   1.742   1.627   4.234 -1.1919  0.7219  0.5637
25561SOL    HW288743   1.786   1.717   4.104  0.4639 -0.7329  0.1016
25562SOL     OW88744   2.503   1.511   5.729  0.3167 -0.1716 -0.1399
25562SOL    HW188745   2.507   1.478   5.824 -0.0108  1.9918  0.6588
25562SOL    HW288746   2.435   1.458   5.678  0.4785 -1.3374  0.8373
25563SOL     OW88747   5.060   3.402   7.798 -0.3730 -0.3430  0.1329
25563SOL    HW188748   5.080   3.319   7.746 -0.0187 -0.1411 -0.0619
25563SOL    HW288749   5.136   3.467   7.786  0.8155 -1.1930  2.7543
25564SOL     OW88750   4.618   1.160   4.480 -0.6537 -0.0401 -0.3658
25564SOL    HW188751   4.530   1.146   4.524 -0.9402  1.0411 -0.5869
25564SOL    HW288752   4.628   1.256   4.455 -0.2885 -0.5310 -2.1924
25565SOL     OW88753   8.544   4.367   8.937 -0.1378  0.3698 -0.4350
25565SOL    HW188754   8.587   4.406   9.018  1.8089 -1.6863 -0.4257
25565SOL    HW288755   8.604   4.380   8.858 -0.3738 -0.7772 -0.8201
25566SOL     OW88756   1.293   3.671   6.233 -0.1794  0.0010 -0.0397
25566SOL    HW188757   1.212   3.637   6.186  1.0213 -2.1433 -0.6303
25566SOL    HW288758   1.300   3.628   6.323  0.3149  0.1745  0.0064
25567SOL     OW88759   9.413   5.348   3.069 -0.1764 -0.1269  0.1339
25567SOL    HW188760   9.438   5.300   3.154  0.9499 -2.2973 -1.3544
25567SOL    HW288761   9.423   5.285   2.992 -2.6878  1.3519 -1.4577
25568SOL     OW88762   8.168   1.779   0.997 -0.0281 -0.3546 -0.5541
25568SOL    HW188763   8.074   1.783   1.032  1.0117  1.0067  2.2402
25568SOL    HW288764   8.183   1.692   0.951 -2.0983 -1.3456  0.5939
25569SOL     OW88765   3.284   4.927   6.676 -0.2166  0.3329 -0.5574
25569SOL    HW188766   3.210   4.864   6.699 -0.0605  1.0891  2.1136
25569SOL    HW288767   3.349   4.931   6.752  2.5283 -0.2198 -2.7867
25570SOL     OW88768   1.256   0.897   7.230  0.8607 -0.2871  0.0117
25570SOL    HW188769   1.307   0.978   7.260  1.4966 -1.1457  1.2838
25570SOL    HW288770   1.190   0.872   7.300  1.9069 -1.9406  0.4153
25571SOL     OW88771   2.276   1.556   9.558  0.0360 -0.5718 -0.3576
25571SOL    HW188772   2.354   1.615   9.578  0.0682  0.1132 -2.4812
25571SOL    HW288773   2.307   1.460   9.560  0.7398 -0.3526 -0.3633
25572SOL     OW88774   1.751   3.631   5.535 -0.1372  0.3763  0.0561
25572SOL    HW188775   1.687   3.643   5.611 -0.1459 -0.6718  0.2086
25572SOL    HW288776   1.725   3.551   5.481  1.5865 -0.5949  0.6424
25573SOL     OW88777   1.823   1.451   9.780  0.5913  0.1571 -0.1149
25573SOL    HW188778   1.863   1.455   9.871 -0.7698 -1.2420  0.5717
25573SOL    HW288779   1.738   1.504   9.778  0.0418 -0.6965 -0.2288
25574SOL     OW88780   5.136   0.552   4.057 -0.1284 -0.3369  0.1342
25574SOL    HW188781   5.078   0.550   4.138 -0.6003 -1.4309 -0.2069
25574SOL    HW288782   5.142   0.645   4.022 -2.0015 -0.2477 -0.0238
25575SOL     OW88783   7.445   8.242   7.858  0.0606 -0.0589 -0.0165
25575SOL    HW188784   7.499   8.184   7.797  1.3802  1.1137  0.0019
25575SOL    HW288785   7.495   8.327   7.876 -2.3013  1.6138 -0.9548
25576SOL     OW88786   9.078   1.609   1.888 -0.1983 -0.2568  0.3617
25576SOL    HW188787   8.994   1.560   1.910  0.1230 -1.3915 -0.8917
25576SOL    HW288788   9.134   1.618   1.970 -0.6157 -1.3106  0.7692
25577SOL     OW88789   5.653   9.644   4.210  0.3256  0.0477  0.0397
25577SOL    HW188790   5.560   9.662   4.179  0.3920  1.2132  0.4590
25577SOL    HW288791   5.677   9.549   4.193 -0.7229 -0.1004 -0.6333
25578SOL     OW88792   7.950   3.778   9.772 -0.1001 -0.0266 -0.2298
25578SOL    HW188793   8.021   3.842   9.741  1.5869 -2.2068 -0.9960
25578SOL    HW288794   7.918   3.724   9.695 -0.0947 -1.4580  0.7668
25579SOL     OW88795   9.984   6.978   0.884 -0.0428  0.1832  0.1793
25579SOL    HW188796   9.916   6.923   0.837  0.3981 -0.1594 -0.0552
25579SOL    HW288797  10.034   7.034   0.818  0.9200 -0.6689  0.1636
25580SOL     OW88798   5.335   9.062   6.884  0.0696  0.3573 -0.0316
25580SOL    HW188799   5.283   9.137   6.842  1.4389  1.7894  0.7631
25580SOL    HW288800   5.312   9.056   6.981 -1.6148 -1.6620 -0.5199
25581SOL     OW88801   9.846   8.705   7.332 -0.5176  0.8279  0.9628
25581SOL    HW188802   9.748   8.713   7.354 -0.6596  0.4818  0.4822
25581SOL    HW288803   9.861   8.735   7.238 -0.1651  0.8684  1.0344
25582SOL     OW88804   3.017   4.286   0.282 -0.2999 -0.2116  0.0446
25582SOL    HW188805   2.928   4.253   0.313  0.1184 -0.6100  0.8428
25582SOL    HW288806   3.089   4.238   0.332  0.3533  0.5465 -0.1647
25583SOL     OW88807   0.718   4.646   0.794  0.3965 -0.2041  0.3784
25583SOL    HW188808   0.716   4.551   0.826 -0.0632 -0.4943 -0.5085
25583SOL    HW288809   0.774   4.700   0.857  0.7157 -1.0697  0.8590
25584SOL     OW88810   3.559   4.317   0.209 -0.1156 -0.1201 -0.5912
25584SOL    HW188811   3.588   4.222   0.200 -0.5219 -0.1185 -2.0273
25584SOL    HW288812   3.599   4.357   0.292 -0.6675 -1.8022  0.5122
25585SOL     OW88813   3.421   6.011   0.951 -0.4852  0.1526 -0.6550
25585SOL    HW188814   3.518   6.034   0.950 -0.9037  2.0738 -0.1125
25585SOL    HW288815   3.391   5.986   0.859  0.3508  0.3266 -0.9715
25586SOL     OW88816   9.471   0.641   4.294 -0.4594 -0.7914  0.1374
25586SOL    HW188817   9.417   0.585   4.357  1.9519 -0.7096  2.3579
25586SOL    HW288818   9.528   0.581   4.238 -0.5689 -0.7230 -0.0484
25587SOL     OW88819   3.300   7.067   1.518 -0.4903  0.3648  0.1364
25587SOL    HW188820   3.349   6.982   1.538 -1.5275 -0.4458 -0.6952
25587SOL    HW288821   3.363   7.144   1.525  0.9202 -0.6583 -0.9091
25588SOL     OW88822   3.469   2.822   1.851 -0.3831 -0.3152  0.1266
25588SOL    HW188823   3.452   2.742   1.908  3.5993 -0.1935  1.6680
25588SOL    HW288824   3.432   2.903   1.895 -1.6760 -0.8610  0.0770
25589SOL     OW88825   2.279   4.295   4.436  0.0910 -0.0531 -0.6777
25589SOL    HW188826   2.310   4.200   4.442 -2.5681 -0.8877  0.5698
25589SOL    HW288827   2.314   4.347   4.514 -0.1266 -0.5106 -0.2761
25590SOL     OW88828   9.992   2.622   7.852 -0.4525  0.0233  0.1419
25590SOL    HW188829   9.942   2.622   7.938 -1.0158 -0.1363 -0.1824
25590SOL    HW288830   9.952   2.554   7.790  0.1039 -0.0397 -0.1530
25591SOL     OW88831   2.168   9.789   4.945 -0.0398 -0.1847 -0.0167
25591SOL    HW188832   2.266   9.770   4.950  0.0727  0.2409 -0.5911
25591SOL    HW288833   2.118   9.719   4.996  0.7508  1.1421  2.6749
25592SOL     OW88834   2.135   3.415   6.130  0.7523 -0.8705 -0.2856
25592SOL    HW188835   2.038   3.434   6.116  0.7615 -0.9044 -0.3909
25592SOL    HW288836   2.189   3.495   6.102  0.5906  0.1152  2.0995
25593SOL     OW88837   9.492   2.261   4.305 -0.1637  0.5835 -0.4354
25593SOL    HW188838   9.582   2.217   4.310 -0.7920 -0.5976  0.9945
25593SOL    HW288839   9.461   2.262   4.210 -0.7508 -3.4294 -0.3834
25594SOL     OW88840   3.137   8.479   2.181 -0.3825  0.0447  0.3303
25594SOL    HW188841   3.167   8.496   2.275  3.3382  1.0811 -0.9846
25594SOL    HW288842   3.089   8.560   2.146  0.3106  0.5508  0.5526
25595SOL     OW88843   7.900   1.110   6.166 -0.1827 -0.0524 -0.0202
25595SOL    HW188844   7.822   1.115   6.228  0.6796 -0.3874  1.1171
25595SOL    HW288845   7.929   1.202   6.142 -0.0915  0.0947  0.6380
25596SOL     OW88846   2.354   0.513   6.160  0.9963 -0.4025 -0.0175
25596SOL    HW188847   2.360   0.611   6.181 -1.9350 -0.4981  1.4401
25596SOL    HW288848   2.431   0.466   6.203  1.0485  0.9303  1.4069
25597SOL     OW88849   1.799   1.074   5.040 -0.5132 -0.2790 -0.3747
25597SOL    HW188850   1.709   1.105   5.070  0.2933  3.0154 -1.1564
25597SOL    HW288851   1.861   1.071   5.119 -0.9851 -1.3475 -0.0435
25598SOL     OW88852   0.226   8.183   1.820 -0.2173 -0.0525  0.4549
25598SOL    HW188853   0.138   8.223   1.846 -1.2335 -0.8461 -1.6965
25598SOL    HW288854   0.235   8.182   1.720  2.1898 -0.0972  0.6313
25599SOL     OW88855   3.581   0.140   8.544  0.1253 -0.3787  0.4062
25599SOL    HW188856   3.508   0.073   8.551 -0.4634  0.1969 -0.1594
25599SOL    HW288857   3.584   0.178   8.452  0.4389  0.3766  0.7156
25600SOL     OW88858   1.887   8.713   9.407  0.0681 -0.1578  0.1928
25600SOL    HW188859   1.820   8.725   9.480 -1.7940 -2.6796 -1.0287
25600SOL    HW288860   1.894   8.797   9.353 -0.9057  0.6576  1.3027
25601SOL     OW88861   2.685   3.629   0.638 -0.7555 -0.4079  0.0168
25601SOL    HW188862   2.603   3.596   0.685 -0.2862  1.5357  2.2589
25601SOL    HW288863   2.671   3.723   0.609  1.3153  0.5387  2.0081
25602SOL     OW88864   5.378   9.079   8.858  0.1535  0.1417  0.1996
25602SOL    HW188865   5.357   8.994   8.906  0.3042 -0.0380 -0.0520
25602SOL    HW288866   5.467   9.113   8.888  0.1352  0.1644  0.2295
25603SOL     OW88867   9.616   9.987   2.146 -0.0079 -0.0928 -0.2514
25603SOL    HW188868   9.549   9.982   2.072 -0.1307  0.9015 -0.2122
25603SOL    HW288869   9.705  10.010   2.108 -0.1247  0.6707 -0.0563
25604SOL     OW88870   9.666   1.203   5.117 -0.2854 -0.2654 -0.5410
25604SOL    HW188871   9.615   1.219   5.033 -2.1847  1.4301  0.8960
25604SOL    HW288872   9.729   1.279   5.133 -1.7481  0.6766  0.8530
25605SOL     OW88873   0.068   6.664   2.773 -0.6137  0.2193  0.3048
25605SOL    HW188874   0.134   6.739   2.779 -1.7728  1.2896 -0.1837
25605SOL    HW288875   0.095   6.591   2.836 -0.1928  1.6018  1.7733
25606SOL     OW88876   9.886   0.633   7.134  0.5580 -0.4881  0.2866
25606SOL    HW188877   9.941   0.585   7.067 -2.0012 -1.9062 -0.8695
25606SOL    HW288878   9.855   0.720   7.096 -1.7024 -1.7297 -0.8035
25607SOL     OW88879   4.851   1.388   0.369  0.0146 -0.2778  0.3414
25607SOL    HW188880   4.758   1.377   0.405 -0.8014 -2.1252 -2.1288
25607SOL    HW288881   4.855   1.468   0.309 -0.0904 -0.3616  0.2201
25608SOL     OW88882   1.294   6.713   5.735  0.4381 -0.5061 -0.2366
25608SOL    HW188883   1.320   6.671   5.822  0.7045  0.0448 -0.0456
25608SOL    HW288884   1.327   6.657   5.659 -0.2160 -1.2449  0.0171
25609SOL     OW88885   2.725   7.665   7.506  0.4259 -0.0311  0.4125
25609SOL    HW188886   2.628   7.687   7.496  0.4895 -0.2807 -0.8993
25609SOL    HW288887   2.774   7.744   7.542  0.1363  0.9473 -1.2820
25610SOL     OW88888   5.287   3.601   7.818 -0.4509 -0.3995  0.1332
25610SOL    HW188889   5.353   3.526   7.824 -2.0609 -2.0835 -2.5776
25610SOL    HW288890   5.319   3.668   7.751  0.3901  0.8235  1.6924
25611SOL     OW88891   1.289   3.111   2.430  0.2760  0.1948 -0.4796
25611SOL    HW188892   1.236   3.112   2.345 -0.0801  0.7620 -0.2495
25611SOL    HW288893   1.319   3.017   2.449  0.1260  0.0205 -1.0873
25612SOL     OW88894   7.908   8.264   4.830  0.4597  0.1623  0.5407
25612SOL    HW188895   7.956   8.202   4.768  1.2910  0.9585  0.3740
25612SOL    HW288896   7.833   8.215   4.874  1.7936 -1.3075  1.2736
25613SOL     OW88897   4.135   7.917   3.209 -0.4804  0.6562  0.4404
25613SOL    HW188898   4.154   7.878   3.299  1.2555 -2.8219 -1.3475
25613SOL    HW288899   4.208   7.980   3.183  1.0270 -1.2543 -0.0814
25614SOL     OW88900   6.837   0.421   5.643 -0.2352 -0.1961  0.0514
25614SOL    HW188901   6.916   0.457   5.594  0.0544 -1.5211 -0.4845
25614SOL    HW288902   6.759   0.418   5.581 -0.2589 -0.4977  0.0978
25615SOL     OW88903   0.124   7.085   8.932 -0.5368  0.2382 -0.5193
25615SOL    HW188904   0.122   7.106   9.030  0.1688  0.4550 -0.5503
25615SOL    HW288905   0.032   7.059   8.902 -0.7440  0.1173  0.2097
25616SOL     OW88906   9.007   7.857   7.480  0.2232 -0.3724 -1.0305
25616SOL    HW188907   9.047   7.948   7.465  0.7330 -0.8262 -2.4560
25616SOL    HW288908   8.973   7.851   7.574  0.8951  1.0256 -0.6844
25617SOL     OW88909   5.243   6.693   0.979 -0.5904  0.2679  0.2900
25617SOL    HW188910   5.230   6.627   0.905  0.4750  0.6814 -0.2884
25617SOL    HW288911   5.189   6.666   1.058 -1.0992 -0.6380 -0.3528
25618SOL     OW88912   4.609   8.704   6.962  0.5910  1.1332 -0.4277
25618SOL    HW188913   4.561   8.634   6.908 -0.8218  0.3268  1.7781
25618SOL    HW288914   4.670   8.757   6.903 -0.1471 -0.3784 -2.5883
25619SOL     OW88915   6.723   9.245   7.314  0.0877  0.1409 -0.2405
25619SOL    HW188916   6.629   9.262   7.346 -0.1023 -1.2627 -0.0315
25619SOL    HW288917   6.725   9.250   7.214 -0.2856 -0.2053 -0.2669
25620SOL     OW88918   1.341   6.991   1.559  0.0648 -0.0715  0.0053
25620SOL    HW188919   1.286   7.060   1.513  0.0451  0.2179  0.4573
25620SOL    HW288920   1.431   7.028   1.581 -1.1480  1.0293  3.4363
25621SOL     OW88921   0.347   9.007   4.491  0.1421  0.2640 -0.3451
25621SOL    HW188922   0.262   9.060   4.499  1.0555  1.8085 -0.6243
25621SOL    HW288923   0.379   9.010   4.397  0.4798 -0.3625 -0.2485
25622SOL     OW88924   7.560   6.800   7.973  0.4290  0.0062  0.4361
25622SOL    HW188925   7.639   6.802   7.912 -1.4605  1.6926 -2.0173
25622SOL    HW288926   7.575   6.732   8.045  4.2390  0.5441  0.2258
25623SOL     OW88927   1.187   3.242   0.987  0.4250  0.1997 -0.1509
25623SOL    HW188928   1.125   3.279   1.056  0.4492 -2.9344  1.6358
25623SOL    HW288929   1.138   3.179   0.927  0.9167  1.1483 -1.5858
25624SOL     OW88930   9.675   9.061   0.742 -0.4738 -0.4464  0.9256
25624SOL    HW188931   9.694   9.117   0.822 -1.6723  0.7296  0.4058
25624SOL    HW288932   9.759   9.047   0.689 -0.3565  1.7696  0.4837
25625SOL     OW88933   9.429   9.064   8.495 -0.6978 -0.4124  0.4027
25625SOL    HW188934   9.472   9.004   8.562 -0.5621 -3.2473 -2.1143
25625SOL    HW288935   9.481   9.062   8.410 -2.0838  1.3766 -0.5320
25626SOL     OW88936   0.978   6.226   1.959 -0.3503 -0.0081  0.4570
25626SOL    HW188937   0.907   6.202   1.893 -0.8485 -0.7026  1.2454
25626SOL    HW288938   1.026   6.143   1.988  0.4704  0.4010  0.2821
25627SOL     OW88939   3.378   1.491   4.629  0.3036 -0.4262 -0.5662
25627SOL    HW188940   3.376   1.576   4.681  2.7175 -0.6994  0.0507
25627SOL    HW288941   3.324   1.421   4.676 -0.4848  0.3472 -0.3176
25628SOL     OW88942   5.201   9.280   3.092 -0.3616  0.5728 -0.0164
25628SOL    HW188943   5.294   9.310   3.112 -0.3602  1.2620 -1.0445
25628SOL    HW288944   5.162   9.337   3.020 -1.5107  0.1578  0.2635
25629SOL     OW88945   9.151   7.407   3.311 -0.6929 -0.5851  0.3038
25629SOL    HW188946   9.164   7.456   3.397 -1.3714 -0.1097  0.1390
25629SOL    HW288947   9.155   7.472   3.235 -1.4930 -0.7985  0.0737
25630SOL     OW88948   5.278   9.851   5.759 -0.8579 -0.0392 -0.2237
25630SOL    HW188949   5.252   9.806   5.673  0.5712 -0.9277 -0.2094
25630SOL    HW288950   5.347   9.921   5.741  1.6587 -2.2373  0.5106
25631SOL     OW88951   4.599   4.825   3.415 -0.0655 -0.1570  0.0617
25631SOL    HW188952   4.624   4.753   3.480  0.1092  1.0519  1.3543
25631SOL    HW288953   4.557   4.783   3.334  1.6124 -1.8500  0.0083
25632SOL     OW88954   2.425   1.457   0.793 -0.2791  0.6483 -0.0887
25632SOL    HW188955   2.362   1.417   0.727  0.2348 -0.2261 -0.0628
25632SOL    HW288956   2.462   1.385   0.851  1.5181  0.9964 -0.7734
25633SOL     OW88957   0.251   2.625   0.683 -0.5133 -0.2954  0.1777
25633SOL    HW188958   0.186   2.662   0.750 -0.8382 -1.3915  0.4758
25633SOL    HW288959   0.204   2.608   0.596 -0.4523 -0.3572  0.1567
25634SOL     OW88960   6.181   9.741   5.444  0.1896  0.2891  0.1895
25634SOL    HW188961   6.218   9.830   5.418  0.8006  0.1106  0.4554
25634SOL    HW288962   6.170   9.737   5.543 -3.4645  1.4948 -0.0733
25635SOL     OW88963   7.699   9.265   2.581  0.0947  0.4707 -0.5505
25635SOL    HW188964   7.621   9.327   2.581  0.8918  1.5189  1.1474
25635SOL    HW288965   7.775   9.306   2.533  0.0062 -0.0243 -1.1194
25636SOL     OW88966   5.306   1.192  10.037 -0.2853 -0.0830 -0.4560
25636SOL    HW188967   5.320   1.124   9.965  1.7655  0.3279 -0.4695
25636SOL    HW288968   5.348   1.161  10.122  1.4285  1.5117 -0.6834
25637SOL     OW88969   5.977   8.030   5.615 -0.0991 -0.0617  0.1373
25637SOL    HW188970   6.015   7.957   5.672 -1.3508 -1.3074 -0.5748
25637SOL    HW288971   6.051   8.082   5.573  0.8201  0.3289  2.2192
25638SOL     OW88972   6.562   1.507   3.293 -0.6765 -0.3646  0.1173
25638SOL    HW188973   6.464   1.493   3.306 -0.6650 -1.2940 -0.7478
25638SOL    HW288974   6.598   1.436   3.232 -0.1588  2.0363 -2.4917
25639SOL     OW88975   6.665   4.551   7.835 -0.7099  0.2443  0.0620
25639SOL    HW188976   6.695   4.646   7.837 -1.6290  0.5118  1.0274
25639SOL    HW288977   6.695   4.505   7.918 -0.3672 -0.2853 -0.3510
25640SOL     OW88978   3.021   3.863   0.374 -0.1081  0.3253  0.4102
25640SOL    HW188979   2.932   3.819   0.362  0.4985 -0.4170 -1.4971
25640SOL    HW288980   3.080   3.805   0.430  0.2169 -0.6608 -0.9299
25641SOL     OW88981   1.587   7.803   8.685 -0.6116 -0.1604 -0.2210
25641SOL    HW188982   1.673   7.752   8.682  0.3465  1.5276 -1.9490
25641SOL    HW288983   1.519   7.757   8.628 -1.4469 -2.4590  2.5007
25642SOL     OW88984   0.758   8.067   1.366  0.1348 -0.2816  0.1885
25642SOL    HW188985   0.711   7.982   1.393  1.2608 -0.4731  1.6038
25642SOL    HW288986   0.844   8.044   1.320 -0.2824  0.0859 -0.7762
25643SOL     OW88987   0.766   9.746   1.277  0.9811 -0.3330 -0.7685
25643SOL    HW188988   0.849   9.739   1.333  1.0561  1.8757 -0.5742
25643SOL    HW288989   0.793   9.758   1.181  0.8858  0.4249 -0.6998
25644SOL     OW88990   8.776   4.682   5.748  0.2454 -0.3179  0.2736
25644SOL    HW188991   8.743   4.588   5.742 -0.6318 -0.0470  0.7748
25644SOL    HW288992   8.794   4.717   5.657 -0.6051 -0.5618  0.0054
25645SOL     OW88993   0.465   1.257   6.961 -0.4920 -0.7586 -0.2993
25645SOL    HW188994   0.409   1.307   6.896 -0.3310 -2.1036 -1.4858
25645SOL    HW288995   0.414   1.243   7.046 -0.1276  2.4343  0.5292
25646SOL     OW88996   1.461   0.159   9.326  0.2188  0.0685  0.2154
25646SOL    HW188997   1.495   0.253   9.324  3.3332 -0.9640  0.4912
25646SOL    HW288998   1.418   0.141   9.414  0.5898  0.9319  0.5825
25647SOL     OW88999   0.072   9.832   5.090 -0.1854 -0.0082 -0.2935
25647SOL    HW189000   0.062   9.805   5.186 -0.4738  1.0739 -0.0086
25647SOL    HW289001   0.142   9.776   5.046  0.5071  0.0194  0.7612
25648SOL     OW89002   7.005   1.079   8.524 -0.6575 -0.3935  0.1032
25648SOL    HW189003   6.926   1.052   8.578 -0.8287  0.6022  0.3541
25648SOL    HW289004   6.980   1.078   8.427 -0.5078 -1.6295  0.0607
25649SOL     OW89005   9.251   2.892   6.895 -0.5622 -0.4741  0.6436
25649SOL    HW189006   9.268   2.923   6.989 -0.8884  0.7780  0.2899
25649SOL    HW289007   9.197   2.808   6.897  0.6456 -1.2492  1.6181
25650SOL     OW89008   2.032   0.896   3.202 -0.2257  0.3181  0.0268
25650SOL    HW189009   2.052   0.810   3.153 -1.2609  0.0352  0.0796
25650SOL    HW289010   2.111   0.956   3.198  0.6507 -0.8034  0.3224
25651SOL     OW89011   0.262   8.581   0.451 -0.0535 -0.0810  0.1460
25651SOL    HW189012   0.354   8.545   0.467  0.4633  1.0610 -0.1943
25651SOL    HW289013   0.208   8.513   0.402  0.8497 -0.4651 -0.3315
25652SOL     OW89014   0.352   9.387   8.292  0.1209 -0.0579 -0.1821
25652SOL    HW189015   0.307   9.330   8.360  0.7307 -1.3213 -0.8204
25652SOL    HW289016   0.434   9.341   8.258  0.6148  1.1858 -0.7309
25653SOL     OW89017   1.859   8.379   8.635  0.2295  0.4473  0.1258
25653SOL    HW189018   1.842   8.344   8.543 -1.0614  1.3435  0.0070
25653SOL    HW289019   1.785   8.442   8.660 -0.2792 -1.0289  2.4017
25654SOL     OW89020   1.256   5.687   0.166  0.7385  0.4209  0.0393
25654SOL    HW189021   1.176   5.746   0.174  1.5170  1.3514  1.1421
25654SOL    HW289022   1.337   5.742   0.148  1.3753 -0.3641  0.4317
25655SOL     OW89023   4.384   1.219   5.377  0.2253  0.3516 -0.0546
25655SOL    HW189024   4.418   1.270   5.299  0.7815  0.7557  0.4450
25655SOL    HW289025   4.345   1.132   5.346 -1.2113  1.3139 -0.9515
25656SOL     OW89026   2.506   5.024   8.769  0.5249 -0.1482  0.2447
25656SOL    HW189027   2.481   4.970   8.849  0.8601 -1.4567 -0.5222
25656SOL    HW289028   2.487   4.972   8.685 -1.8751  2.0236 -0.6405
25657SOL     OW89029   3.035   9.152   2.109 -0.4910  0.1488  0.2890
25657SOL    HW189030   2.985   9.113   2.187 -0.6695  0.3710  0.2866
25657SOL    HW289031   3.132   9.127   2.116 -0.3611  0.8250  1.0123
25658SOL     OW89032   1.583   1.718   3.623 -0.0040  0.4529  0.2136
25658SOL    HW189033   1.623   1.705   3.533  0.3514  0.9577  0.2951
25658SOL    HW289034   1.565   1.629   3.665  0.8534  0.2214  0.0981
25659SOL     OW89035   6.063   5.325   8.288 -0.1331  0.1788  0.7001
25659SOL    HW189036   6.000   5.398   8.262 -1.6080 -0.7408  1.5992
25659SOL    HW289037   6.091   5.275   8.206 -2.7164 -1.0874  0.5393
25660SOL     OW89038   7.672   9.047   1.649  0.2605  0.1712 -0.0076
25660SOL    HW189039   7.707   9.118   1.710 -0.1969  1.1382 -0.8455
25660SOL    HW289040   7.587   9.010   1.686 -0.5995  1.5347 -0.5996
25661SOL     OW89041   1.182   9.525   8.635 -0.1623  0.1706 -0.6483
25661SOL    HW189042   1.272   9.481   8.630 -0.2917 -0.0521 -1.1071
25661SOL    HW289043   1.180   9.605   8.576  0.5396  1.6613  1.3140
25662SOL     OW89044   2.554   1.096   3.632  0.1454 -1.2003 -0.4533
25662SOL    HW189045   2.559   1.024   3.701  0.6583 -0.4429  0.3228
25662SOL    HW289046   2.552   1.185   3.678 -1.5009 -0.7474 -1.3598
25663SOL     OW89047   7.068   6.938   5.175 -1.1330 -0.5244  0.2004
25663SOL    HW189048   7.156   6.911   5.136 -0.2968  0.6193  1.2700
25663SOL    HW289049   6.994   6.892   5.125  0.1402 -2.9614  0.5028
25664SOL     OW89050   4.545   9.185   1.194  0.2534  0.3392 -0.4977
25664SOL    HW189051   4.531   9.255   1.124 -2.4806 -0.6485 -1.0084
25664SOL    HW289052   4.475   9.114   1.184  2.1703 -1.8125  0.8159
25665SOL     OW89053   2.871   9.355   7.836  0.0272  0.0767  0.1422
25665SOL    HW189054   2.931   9.349   7.915  1.2660  4.4375 -0.3194
25665SOL    HW289055   2.797   9.420   7.855 -0.1739  0.4863 -1.9329
25666SOL     OW89056   0.535   4.250   9.947 -0.2241 -0.4629 -0.3188
25666SOL    HW189057   0.495   4.316   9.883 -0.4271 -0.1230  0.1574
25666SOL    HW289058   0.474   4.238  10.025  0.1551 -0.6635 -0.0526
25667SOL     OW89059   7.027   0.535   7.955 -0.4558 -0.1944  0.6078
25667SOL    HW189060   6.996   0.628   7.972  0.8017  0.0446  1.6899
25667SOL    HW289061   7.025   0.516   7.857  1.5870  1.7798  0.1545
25668SOL     OW89062   5.220   0.032   3.125 -0.8743 -0.0182  0.1632
25668SOL    HW189063   5.190   0.120   3.089 -1.4703  1.3348  3.6791
25668SOL    HW289064   5.146  -0.035   3.116 -0.7541  0.0763 -1.6737
25669SOL     OW89065   2.716   5.435   8.749 -0.3532 -0.0963  0.6024
25669SOL    HW189066   2.688   5.469   8.839 -0.5865 -0.3784  0.6398
25669SOL    HW289067   2.769   5.505   8.701 -1.9360  0.7940  0.1362
25670SOL     OW89068   4.474   1.878   9.417  0.8635 -0.0215 -0.5904
25670SOL    HW189069   4.457   1.976   9.405  1.2002  0.3608  1.8108
25670SOL    HW289070   4.570   1.858   9.401  0.6171 -0.1147 -1.9706
25671SOL     OW89071   9.589   1.193   5.507 -0.5277  0.1035 -0.2957
25671SOL    HW189072   9.523   1.179   5.433 -0.2597  0.7476 -0.6583
25671SOL    HW289073   9.594   1.110   5.563 -1.6671  0.0617 -0.2382
25672SOL     OW89074   9.354   7.857   1.944  0.7683  0.8816 -0.1115
25672SOL    HW189075   9.411   7.809   1.877  0.6407 -1.0928  1.1694
25672SOL    HW289076   9.401   7.941   1.972  0.7794  1.8207 -2.7261
25673SOL     OW89077   4.850   1.780   8.686 -0.0951  0.1040  0.6452
25673SOL    HW189078   4.927   1.844   8.684 -0.6533  0.7916  0.9420
25673SOL    HW289079   4.768   1.828   8.715 -1.3928  0.1657 -2.8475
25674SOL     OW89080   8.923   2.646   2.031  0.3673  0.3798  0.0432
25674SOL    HW189081   9.001   2.595   1.994 -0.2923 -0.4184 -0.2710
25674SOL    HW289082   8.840   2.591   2.021 -0.3202  1.4256 -0.0771
25675SOL     OW89083   4.008   7.485   3.455  0.0245  0.6253  0.4573
25675SOL    HW189084   3.982   7.538   3.374  3.5818  0.8742 -0.5854
25675SOL    HW289085   3.985   7.389   3.440 -0.5230  0.8636 -0.2871
25676SOL     OW89086   2.155   8.001   2.799  0.2528 -0.2502  0.3001
25676SOL    HW189087   2.090   7.924   2.797  0.7383 -0.6481 -0.2480
25676SOL    HW289088   2.230   7.982   2.736 -1.0296  1.9335 -1.9606
25677SOL     OW89089   9.763   7.794   7.786  0.2629  0.2741 -0.4755
25677SOL    HW189090   9.702   7.764   7.859  0.3519 -0.1342 -0.5704
25677SOL    HW289091   9.855   7.806   7.821  0.6472 -1.4735 -0.8731
25678SOL     OW89092   4.778   8.174   4.578 -0.7809  0.0889 -0.0190
25678SOL    HW189093   4.868   8.215   4.563 -0.5672 -0.1646  0.5281
25678SOL    HW289094   4.761   8.104   4.508  0.0872 -0.8983  0.7321
25679SOL     OW89095   8.095   0.678   4.718  0.0474 -0.0976  0.1301
25679SOL    HW189096   8.057   0.737   4.647 -2.0798 -1.1845  0.3291
25679SOL    HW289097   8.074   0.583   4.697 -0.9960 -0.4044  2.4408
25680SOL     OW89098   4.798   6.075   9.635 -0.0125 -0.1961 -0.2350
25680SOL    HW189099   4.760   6.042   9.549  2.1145 -2.0440 -0.4966
25680SOL    HW289100   4.760   6.023   9.711  0.9216 -1.0882 -0.3762
25681SOL     OW89101   9.473   4.291   8.885 -0.3121 -0.1317  0.0309
25681SOL    HW189102   9.502   4.346   8.963 -0.0776  0.2082 -0.2944
25681SOL    HW289103   9.400   4.229   8.913  0.6808 -0.9574  0.8586
25682SOL     OW89104   0.189   4.633   7.139  0.0167 -0.6374 -0.2568
25682SOL    HW189105   0.106   4.653   7.192  0.2915 -0.7236  0.2074
25682SOL    HW289106   0.163   4.604   7.047 -0.4584 -0.3083 -0.2299
25683SOL     OW89107   2.376   4.778   0.320  0.2110 -0.8748 -0.1021
25683SOL    HW189108   2.308   4.846   0.290  1.3903  0.7098  0.7092
25683SOL    HW289109   2.349   4.740   0.408  0.5610  0.0464  0.4089
25684SOL     OW89110   0.650   2.638   4.274 -0.4883 -0.2606  0.2001
25684SOL    HW189111   0.567   2.624   4.219 -0.3836  0.0356 -0.0356
25684SOL    HW289112   0.648   2.579   4.354  0.5178 -2.5599 -1.4158
25685SOL     OW89113   7.197   1.305   5.460 -0.2796  0.1979 -0.3303
25685SOL    HW189114   7.174   1.261   5.547  2.4288  0.1550  0.4408
25685SOL    HW289115   7.120   1.298   5.397 -2.0291 -0.4243  1.8109
25686SOL     OW89116   2.620   4.911   5.156 -0.0032 -0.2328  0.2144
25686SOL    HW189117   2.649   5.005   5.136 -1.8231  0.2454 -0.2443
25686SOL    HW289118   2.675   4.847   5.101  0.6215  0.6108 -0.1586
25687SOL     OW89119   3.417   0.633   3.324 -0.3651 -0.0782  0.8333
25687SOL    HW189120   3.491   0.653   3.388  1.3505  0.3137 -1.2227
25687SOL    HW289121   3.377   0.544   3.347  2.0831 -1.2491  0.7871
25688SOL     OW89122   8.104   8.240   1.805 -0.1644  0.0108  0.5897
25688SOL    HW189123   8.200   8.220   1.786  0.0578  0.9346  0.7021
25688SOL    HW289124   8.046   8.171   1.760  0.5503 -0.6486  0.6718
25689SOL     OW89125   5.551   0.949   5.688  0.2517 -0.6069 -0.1041
25689SOL    HW189126   5.486   0.998   5.630  0.5638 -1.1444 -0.9074
25689SOL    HW289127   5.607   1.015   5.738 -0.0162 -0.1455 -0.4097
25690SOL     OW89128   2.486   9.412   7.687  0.1524 -0.3113 -0.0529
25690SOL    HW189129   2.428   9.483   7.647 -0.4815 -0.0728  1.2801
25690SOL    HW289130   2.582   9.434   7.668 -0.1558 -0.5077 -1.9306
25691SOL     OW89131   2.554   1.231   2.029 -0.2425 -0.0808 -0.2386
25691SOL    HW189132   2.581   1.248   2.124  0.4078  2.0644 -0.7789
25691SOL    HW289133   2.455   1.231   2.021 -0.2686  1.8232  0.0830
25692SOL     OW89134   8.366   7.862   3.184  0.3189  0.3667  0.0921
25692SOL    HW189135   8.356   7.804   3.103  0.5160  1.4208 -0.6946
25692SOL    HW289136   8.456   7.849   3.224  0.2097 -0.1774  0.1754
25693SOL     OW89137   6.287   1.153   0.924  0.4168  0.0705 -0.0864
25693SOL    HW189138   6.325   1.062   0.908  1.6664  0.3327  1.2956
25693SOL    HW289139   6.187   1.148   0.921  0.3783 -1.8791  2.7237
25694SOL     OW89140   1.815   9.754   7.733 -0.3635  0.1486 -0.1537
25694SOL    HW189141   1.881   9.720   7.799 -0.0324  0.7155 -0.1952
25694SOL    HW289142   1.861   9.773   7.646 -0.6739  0.0482 -0.3426
25695SOL     OW89143   7.977   0.349   9.397  0.0610 -0.0188 -0.6471
25695SOL    HW189144   8.043   0.397   9.338  0.7563 -0.8633 -0.5701
25695SOL    HW289145   7.967   0.399   9.483 -1.0967  1.3263 -1.5328
25696SOL     OW89146   7.762   5.208   7.451  0.0189  0.3128 -0.1403
25696SOL    HW189147   7.849   5.174   7.416  0.4387  0.5018  0.7126
25696SOL    HW289148   7.759   5.308   7.442 -0.9425  0.1348 -2.0310
25697SOL     OW89149   8.779   4.040   6.907  0.1729 -0.0067 -0.1333
25697SOL    HW189150   8.808   4.135   6.894  0.4346 -0.0283  0.2802
25697SOL    HW289151   8.792   3.990   6.822 -0.5058  0.4659 -0.5254
25698SOL     OW89152   9.482   8.161   8.537 -0.3199  0.0644  0.0993
25698SOL    HW189153   9.491   8.133   8.633 -1.0392  0.9786  0.4502
25698SOL    HW289154   9.573   8.176   8.498 -0.0401  0.3475  0.8440
25699SOL     OW89155   3.206   4.107   0.345  0.1628  0.0531 -0.0385
25699SOL    HW189156   3.153   4.057   0.276  0.0020 -0.3592  0.3775
25699SOL    HW289157   3.298   4.069   0.351 -0.3644 -1.1062  1.2221
25700SOL     OW89158   0.311   8.457   9.421  0.2891 -0.4294  0.3097
25700SOL    HW189159   0.213   8.434   9.420  0.6003 -1.7518 -0.5076
25700SOL    HW289160   0.321   8.556   9.411 -0.9373 -0.3831 -0.6708
25701SOL     OW89161   9.218   4.811   7.050 -0.1710 -0.3509  0.1050
25701SOL    HW189162   9.289   4.762   6.999  1.0001  2.2247 -0.7992
25701SOL    HW289163   9.260   4.872   7.116 -1.5052  1.3597 -0.5759
25702SOL     OW89164   6.272   9.569   6.117 -0.0612 -0.4722  0.1006
25702SOL    HW189165   6.337   9.595   6.188 -0.0069 -0.1381 -0.0719
25702SOL    HW289166   6.210   9.645   6.097  0.1362 -0.4467 -0.4428
25703SOL     OW89167   9.680   9.690   3.294  0.2352 -0.0564 -0.2959
25703SOL    HW189168   9.659   9.593   3.284 -0.0608  0.0599 -0.8416
25703SOL    HW289169   9.772   9.709   3.260  1.3666 -0.6139  2.3446
25704SOL     OW89170   5.896   1.295   5.887  0.5677 -0.0932 -0.0815
25704SOL    HW189171   5.816   1.354   5.881  0.8846  0.5478  1.6773
25704SOL    HW289172   5.867   1.201   5.907  0.1302 -0.3297 -1.7867
25705SOL     OW89173   2.105   9.039   9.600 -0.4461  0.3366  0.4110
25705SOL    HW189174   2.194   8.997   9.620 -0.8925 -0.6061  0.4388
25705SOL    HW289175   2.117   9.112   9.534  0.4903  0.8415  1.1272
25706SOL     OW89176   2.553   5.019   8.242 -0.5585 -0.1669  0.3960
25706SOL    HW189177   2.601   5.052   8.323 -0.5080 -0.7038  0.5829
25706SOL    HW289178   2.572   5.080   8.165 -0.6585  0.3783  0.8031
25707SOL     OW89179   2.580   3.875  10.006  0.0576  0.0669 -0.2038
25707SOL    HW189180   2.632   3.891   9.921 -0.7866 -0.6088 -0.8519
25707SOL    HW289181   2.566   3.777  10.018 -2.0684  0.2978 -0.6416
25708SOL     OW89182   4.780   2.244   4.995 -0.0213  0.6108  0.3005
25708SOL    HW189183   4.706   2.302   4.962 -0.9431 -0.6622  0.0850
25708SOL    HW289184   4.824   2.287   5.074 -0.5160  1.7160 -0.0269
25709SOL     OW89185   2.782   1.538   5.738  0.4435 -0.4330 -0.1896
25709SOL    HW189186   2.688   1.550   5.704 -0.2395  0.3986  1.9374
25709SOL    HW289187   2.845   1.577   5.671 -0.7534 -0.4368 -1.3629
25710SOL     OW89188   8.548   8.061   1.073 -0.0217 -0.3741 -0.7284
25710SOL    HW189189   8.507   8.032   0.986  1.2967 -1.3261 -1.0498
25710SOL    HW289190   8.634   8.110   1.055  0.2885 -0.6245  0.0422
25711SOL     OW89191   1.237   7.466   6.960 -0.1304  0.3684  0.3968
25711SOL    HW189192   1.235   7.546   7.019 -0.2509  0.2657  0.5299
25711SOL    HW289193   1.199   7.387   7.008 -1.5077  0.5997 -0.2982
25712SOL     OW89194   3.227   8.410   8.896 -0.0483  0.1257 -0.2749
25712SOL    HW189195   3.184   8.353   8.826  1.0745 -0.8788 -0.1734
25712SOL    HW289196   3.209   8.507   8.876 -1.3295 -0.2263 -0.8794
25713SOL     OW89197   5.091   3.335   6.703 -0.1071 -0.6976  0.2329
25713SOL    HW189198   5.064   3.238   6.700 -2.6352 -0.0695  1.0211
25713SOL    HW289199   5.009   3.391   6.719  1.4388  1.5179  0.5068
25714SOL     OW89200   1.680   8.790   1.789 -0.3703  0.1642  0.2642
25714SOL    HW189201   1.755   8.737   1.749 -0.7468 -0.4403  0.3460
25714SOL    HW289202   1.636   8.737   1.861 -2.2383 -0.3826 -1.2158
25715SOL     OW89203   0.452   0.367   7.750  0.0311 -0.0872  0.0745
25715SOL    HW189204   0.502   0.335   7.831 -0.3984  1.8325  1.1154
25715SOL    HW289205   0.488   0.322   7.669  3.3199  1.1043  0.8225
25716SOL     OW89206   9.935   5.512   2.691 -0.3489  0.0710  0.2419
25716SOL    HW189207   9.965   5.502   2.596  3.2325  0.4463  1.2441
25716SOL    HW289208   9.945   5.608   2.719  2.2032 -0.6702  2.0456
25717SOL     OW89209   4.130   4.570   9.187 -0.0206  0.1197 -0.0981
25717SOL    HW189210   4.125   4.659   9.232 -0.7095  1.2781 -2.3804
25717SOL    HW289211   4.048   4.517   9.210 -0.3480  0.6772  0.0330
25718SOL     OW89212   9.028   0.393   4.533 -0.5003  0.4910  0.1805
25718SOL    HW189213   9.012   0.423   4.627 -0.4199  0.2210  0.2818
25718SOL    HW289214   8.966   0.441   4.471 -0.7426  0.4651  0.4056
25719SOL     OW89215   5.143   4.425   7.980  0.3214  0.0267  0.1898
25719SOL    HW189216   5.162   4.336   7.940  2.0094  0.3866  0.1419
25719SOL    HW289217   5.229   4.469   8.007 -0.5332  1.3219  0.8978
25720SOL     OW89218   7.655   3.741   1.282  0.5232 -0.5125 -0.4135
25720SOL    HW189219   7.618   3.770   1.370  2.5634 -0.5934  0.4871
25720SOL    HW289220   7.629   3.645   1.265 -0.0799 -0.4174 -0.0347
25721SOL     OW89221   3.628   5.224   8.653 -0.2125  0.6768  0.1029
25721SOL    HW189222   3.598   5.139   8.696 -0.4526  0.4810 -0.4469
25721SOL    HW289223   3.709   5.259   8.701  1.4911 -1.2336 -1.2427
25722SOL     OW89224   3.182   6.919   4.880  0.0882  0.1755  0.4609
25722SOL    HW189225   3.280   6.919   4.896  0.0095 -1.2223  1.0062
25722SOL    HW289226   3.150   6.825   4.866 -1.5382  0.3403  2.7201
25723SOL     OW89227   3.609   7.833   1.134 -0.0618 -0.0793 -0.2073
25723SOL    HW189228   3.616   7.809   1.037 -0.2506 -0.6353 -0.0853
25723SOL    HW289229   3.690   7.800   1.182  0.6288  1.3029 -0.3981
25724SOL     OW89230   1.168   8.026   0.393  0.4049 -0.0760  0.8260
25724SOL    HW189231   1.112   7.968   0.333 -0.8281  1.3477  0.5495
25724SOL    HW289232   1.114   8.053   0.473 -0.1342  3.1157 -0.5211
25725SOL     OW89233   1.304   0.165   2.718  0.1111  0.3433 -0.5233
25725SOL    HW189234   1.246   0.168   2.636 -0.0749 -0.4564 -0.4247
25725SOL    HW289235   1.265   0.224   2.788 -0.4629 -0.0071 -0.5420
25726SOL     OW89236   9.267   5.366   4.810  0.5960 -0.2517  0.3984
25726SOL    HW189237   9.177   5.371   4.768  0.9869  0.0665 -0.4116
25726SOL    HW289238   9.258   5.366   4.909 -0.3298 -0.8843  0.3171
25727SOL     OW89239   1.058   5.940   9.249 -0.0978 -0.3380  0.8882
25727SOL    HW189240   1.011   5.858   9.283 -0.3654  0.0899  1.5545
25727SOL    HW289241   1.147   5.949   9.294  1.0312 -1.6171 -0.9917
25728SOL     OW89242   2.351   9.868   5.690 -0.3576 -0.3336  0.1748
25728SOL    HW189243   2.358   9.773   5.721  0.8021  0.2678  1.7977
25728SOL    HW289244   2.442   9.910   5.693 -1.2572  1.5385  1.7431
25729SOL     OW89245   6.835   7.153   4.280  0.2747 -0.4607  0.1170
25729SOL    HW189246   6.843   7.054   4.264  0.9488 -0.2879 -0.6930
25729SOL    HW289247   6.887   7.201   4.209 -2.6674  0.5755 -1.4109
25730SOL     OW89248   2.969   3.948   1.601 -0.0829  0.1894  0.3329
25730SOL    HW189249   2.899   3.962   1.671 -0.1681 -1.0086  0.4994
25730SOL    HW289250   2.960   3.857   1.562  1.2902  0.0746  0.2421
25731SOL     OW89251   3.680   1.080   3.348  0.1787 -0.4774  0.4902
25731SOL    HW189252   3.704   1.015   3.420 -2.6929 -1.6980  0.3943
25731SOL    HW289253   3.749   1.076   3.276 -0.0456 -3.5947  0.3878
25732SOL     OW89254   9.736   5.178   2.284  0.0260 -0.1768  0.4184
25732SOL    HW189255   9.705   5.236   2.360  0.2146  1.0363 -0.4102
25732SOL    HW289256   9.716   5.083   2.304 -0.9281  0.2454  1.5032
25733SOL     OW89257   2.895   3.800   7.788  0.4047  0.6093  0.0273
25733SOL    HW189258   2.815   3.860   7.780  0.0587  0.3999  1.8368
25733SOL    HW289259   2.978   3.853   7.769  0.2106  2.0087  2.8331
25734SOL     OW89260   2.552   8.617   7.546 -0.0209  0.2840 -0.2052
25734SOL    HW189261   2.565   8.562   7.464 -0.8637 -1.7743  1.0024
25734SOL    HW289262   2.467   8.591   7.591 -0.3558  2.4785  0.5005
25735SOL     OW89263   2.346   7.875   5.072  0.1411 -0.0665 -0.3273
25735SOL    HW189264   2.315   7.811   5.002  0.4298 -2.0947  1.3783
25735SOL    HW289265   2.296   7.961   5.063  0.0997 -0.3327 -2.9365
25736SOL     OW89266   7.853   9.444   3.730  0.1656 -0.0300 -0.2082
25736SOL    HW189267   7.909   9.527   3.731  1.0456 -0.6174  1.2587
25736SOL    HW289268   7.839   9.415   3.635  1.8372  0.4843 -0.6349
25737SOL     OW89269   6.516   2.119   8.561 -0.1941 -0.0258  0.7758
25737SOL    HW189270   6.466   2.194   8.604  1.8935  1.5842  0.4400
25737SOL    HW289271   6.591   2.091   8.620 -0.3949 -1.2522  0.4686
25738SOL     OW89272   4.777   0.922   4.521 -0.2116  0.0472  0.0788
25738SOL    HW189273   4.723   1.002   4.498  0.0295  1.0530  2.8501
25738SOL    HW289274   4.716   0.846   4.545 -0.4397 -0.6882 -2.6971
25739SOL     OW89275   1.534   5.869   0.145  0.3561 -0.5817 -0.3023
25739SOL    HW189276   1.622   5.915   0.159 -0.9363  1.8755 -0.0268
25739SOL    HW289277   1.510   5.872   0.048  0.6547 -1.4593 -0.4131
25740SOL     OW89278   2.366   6.897   0.703  0.0215  0.3302  0.4021
25740SOL    HW189279   2.308   6.975   0.728 -0.4339  0.7148 -1.7683
25740SOL    HW289280   2.331   6.815   0.748 -0.5700  1.0640  1.3008
25741SOL     OW89281   3.646   2.482   4.980 -0.5673  0.9074 -0.7709
25741SOL    HW189282   3.592   2.398   4.985  0.0947  0.4491 -1.2359
25741SOL    HW289283   3.705   2.488   5.060  0.6795  0.0243 -1.6010
25742SOL     OW89284   6.173   9.459   3.867  0.0911  0.3807 -0.7317
25742SOL    HW189285   6.260   9.481   3.911  0.4360 -0.2885 -1.0899
25742SOL    HW289286   6.127   9.544   3.840  0.2222  0.7689  0.2474
25743SOL     OW89287   2.519   0.215   1.067  0.3114 -0.0067 -0.5171
25743SOL    HW189288   2.467   0.251   1.144  1.2260 -0.3545  0.2771
25743SOL    HW289289   2.592   0.279   1.043  0.7087 -0.4076 -0.3846
25744SOL     OW89290   2.490   2.564   4.820  0.5624  0.3219  0.1556
25744SOL    HW189291   2.483   2.468   4.845  1.8547  0.0335 -0.5334
25744SOL    HW289292   2.412   2.614   4.857  1.3975 -0.4447  3.0407
25745SOL     OW89293   2.324   5.768   1.641 -0.6589  0.6373 -0.1580
25745SOL    HW189294   2.233   5.786   1.680 -0.7846  0.7996 -0.5274
25745SOL    HW289295   2.393   5.781   1.712 -0.9141  0.6258  0.0952
25746SOL     OW89296   0.518   5.686   8.665  0.5787 -0.3073 -0.2705
25746SOL    HW189297   0.434   5.632   8.667  0.4190 -0.0275  1.3077
25746SOL    HW289298   0.565   5.671   8.578 -0.8076 -0.9086 -0.9352
25747SOL     OW89299   0.860   3.425   5.206  0.3964 -0.9909  0.0201
25747SOL    HW189300   0.951   3.462   5.223  0.3265 -0.2224 -1.2462
25747SOL    HW289301   0.858   3.329   5.236  0.9483 -0.3872  2.1017
25748SOL     OW89302   4.777   9.093   3.246 -0.6320 -0.0552 -0.2403
25748SOL    HW189303   4.801   9.161   3.177  0.3554 -0.9253 -0.7640
25748SOL    HW289304   4.724   9.137   3.319  0.8280  1.4884 -0.0812
25749SOL     OW89305   5.473   8.941   3.124 -0.7958 -0.3045 -0.4023
25749SOL    HW189306   5.568   8.961   3.149 -0.7317 -0.0449 -0.8482
25749SOL    HW289307   5.445   8.855   3.166 -0.5034 -0.1642  0.0851
25750SOL     OW89308   8.772   1.096   0.954 -0.1395  0.1853  0.5773
25750SOL    HW189309   8.804   1.005   0.980  0.7939 -0.1853 -1.6997
25750SOL    HW289310   8.830   1.165   0.998  0.7442 -0.3857  0.3320
25751SOL     OW89311   8.986   2.638   5.768 -0.9254  0.4725 -0.5914
25751SOL    HW189312   8.973   2.714   5.831 -0.1690  1.7484 -1.9723
25751SOL    HW289313   8.897   2.606   5.735 -1.1221  3.2043 -2.8911
25752SOL     OW89314   6.008   0.333   6.712 -0.3373 -0.5435 -0.3267
25752SOL    HW189315   6.026   0.250   6.660  0.5617  0.8182 -2.2447
25752SOL    HW289316   6.094   0.379   6.734 -0.8798  0.6260 -0.5752
25753SOL     OW89317   2.794   5.914   9.108 -0.1745 -0.9162 -0.0946
25753SOL    HW189318   2.772   5.904   9.205  1.1042  0.6444  0.3703
25753SOL    HW289319   2.711   5.936   9.057 -1.0896 -3.0270  0.4317
25754SOL     OW89320   7.675   4.261   9.454 -0.5386  0.3886  0.0552
25754SOL    HW189321   7.770   4.234   9.471  0.1338  0.7304 -2.7518
25754SOL    HW289322   7.624   4.182   9.419 -0.4686  0.9105 -1.2733
25755SOL     OW89323   4.000   0.032   2.693 -0.6805  0.1024 -0.3015
25755SOL    HW189324   4.075   0.058   2.754 -0.6175  0.9047 -0.7162
25755SOL    HW289325   3.928   0.100   2.697 -0.7321  0.1018 -1.0280
25756SOL     OW89326   5.476   2.680   4.397 -0.5226  0.6427 -0.1818
25756SOL    HW189327   5.385   2.671   4.437 -0.6487  0.6718 -0.4595
25756SOL    HW289328   5.524   2.756   4.440 -0.5943  0.5681  0.0316
25757SOL     OW89329   2.858   5.111   1.117  0.5930  0.1656  0.6790
25757SOL    HW189330   2.798   5.190   1.104 -0.0886 -0.2745  1.1848
25757SOL    HW289331   2.902   5.117   1.207  1.3906  0.5408  0.2715
25758SOL     OW89332   7.893   7.249   0.658  0.1615 -0.2563 -0.0457
25758SOL    HW189333   7.953   7.235   0.736 -0.2775 -0.4637  0.2560
25758SOL    HW289334   7.847   7.337   0.667  1.1238  0.3292 -0.7490
25759SOL     OW89335   5.097   5.776   1.897  0.2259  0.5124  0.0184
25759SOL    HW189336   5.025   5.781   1.829 -0.4501 -1.7392  0.5320
25759SOL    HW289337   5.057   5.773   1.989  0.9123 -1.1869  0.2883
25760SOL     OW89338   4.065   5.781   3.984 -0.4552 -0.1414  0.0983
25760SOL    HW189339   4.133   5.805   4.053 -0.3331 -0.4071  0.0702
25760SOL    HW289340   3.975   5.770   4.028 -1.0294  2.7969 -0.2300
25761SOL     OW89341   1.797   3.740   0.551 -0.3407  0.0212  0.3115
25761SOL    HW189342   1.857   3.744   0.631  0.1023 -1.0248  0.0540
25761SOL    HW289343   1.702   3.752   0.579 -0.5092 -3.4229  1.4547
25762SOL     OW89344   5.726   1.795   0.081  0.1548  0.0320  0.5276
25762SOL    HW189345   5.796   1.852   0.038  0.2835 -0.0182  0.6704
25762SOL    HW289346   5.660   1.766   0.011  0.7661 -0.6391  0.2256
25763SOL     OW89347   6.010   1.092   3.345  0.2147 -0.6199 -0.8044
25763SOL    HW189348   6.110   1.094   3.351  0.2556 -0.2567 -1.5315
25763SOL    HW289349   5.982   1.024   3.277 -0.1006 -2.0143  0.6944
25764SOL     OW89350   7.704   4.553   0.457 -0.0881  0.1492 -0.2481
25764SOL    HW189351   7.692   4.454   0.447  0.8624 -0.0090  0.1222
25764SOL    HW289352   7.788   4.572   0.508  0.6915  1.1853 -1.8696
25765SOL     OW89353   6.713   9.701   8.018 -0.0707 -0.0489 -0.1924
25765SOL    HW189354   6.651   9.748   8.080  0.1994 -0.3821  0.3435
25765SOL    HW289355   6.805   9.698   8.059  0.1947  0.0656 -0.7808
25766SOL     OW89356   8.166   9.347   5.016  0.5358 -0.5144  0.2879
25766SOL    HW189357   8.145   9.444   5.027 -3.9525 -1.6103  2.9160
25766SOL    HW289358   8.222   9.317   5.093 -1.5294 -0.7594  1.7690
25767SOL     OW89359   9.683   2.818   1.056  0.0249 -0.5576 -0.5737
25767SOL    HW189360   9.672   2.767   1.142  0.6901 -0.5316 -0.4682
25767SOL    HW289361   9.615   2.891   1.051  1.0550  0.5112  0.7129
25768SOL     OW89362   8.518   9.833   0.047 -0.0694 -0.2578  0.0420
25768SOL    HW189363   8.499   9.899  -0.026 -2.2101 -0.8823  0.0026
25768SOL    HW289364   8.590   9.869   0.107 -0.9532  1.9468 -0.1770
25769SOL     OW89365   8.297   8.581   0.744  0.3344  0.0488 -0.1685
25769SOL    HW189366   8.364   8.562   0.672 -1.8553 -1.4688 -1.8629
25769SOL    HW289367   8.205   8.570   0.707 -1.0058  5.3339  1.2087
25770SOL     OW89368   9.246   3.263   2.410  0.2395 -0.5875  0.0225
25770SOL    HW189369   9.236   3.320   2.492 -0.8730 -0.3062 -0.2918
25770SOL    HW289370   9.246   3.167   2.436  0.7218 -0.4792  0.4303
25771SOL     OW89371   2.603   2.257   3.363  0.0921 -0.1057 -0.1023
25771SOL    HW189372   2.582   2.289   3.455  1.9018 -0.2578  0.3913
25771SOL    HW289373   2.699   2.227   3.359 -0.1498 -0.7380 -1.8543
25772SOL     OW89374   5.123   5.509   7.868 -0.2981 -0.1279 -0.4049
25772SOL    HW189375   5.138   5.589   7.809  1.0241  0.5395  0.7932
25772SOL    HW289376   5.171   5.523   7.955 -1.0903 -1.6938  0.2969
25773SOL     OW89377   2.628   0.390   8.244  0.1518 -0.1712 -0.0510
25773SOL    HW189378   2.607   0.293   8.254 -0.9818  0.0645 -0.1513
25773SOL    HW289379   2.577   0.428   8.167  0.6042  0.5011 -0.0263
25774SOL     OW89380   1.200   8.335   4.998 -0.0209  0.0252  0.0799
25774SOL    HW189381   1.166   8.350   5.090  1.2926 -2.0082  0.9314
25774SOL    HW289382   1.205   8.422   4.950 -1.7650  0.9654  1.5341
25775SOL     OW89383   1.633   7.010   5.299 -0.1974  0.2968 -0.5577
25775SOL    HW189384   1.588   6.928   5.264 -2.0614  0.7203  0.8018
25775SOL    HW289385   1.585   7.042   5.380  1.1176  2.1797 -0.5047
25776SOL     OW89386   8.456   4.072   8.484 -0.0148 -0.2575 -0.2206
25776SOL    HW189387   8.503   4.147   8.530 -0.6667  2.0858 -3.2092
25776SOL    HW289388   8.361   4.068   8.516 -0.2052  0.7537 -0.6292
25777SOL     OW89389   7.193   3.693   9.165  0.4867 -0.7194  0.2361
25777SOL    HW189390   7.189   3.734   9.074 -0.3475 -0.6845  0.2882
25777SOL    HW289391   7.187   3.765   9.234 -0.4225 -0.8736  0.3243
25778SOL     OW89392   9.799   6.058   7.004  0.8905 -0.4100  0.5435
25778SOL    HW189393   9.701   6.038   6.999  1.3787 -2.3515 -2.2552
25778SOL    HW289394   9.817   6.149   6.965 -0.0790  1.2005  3.6793
25779SOL     OW89395   3.895   6.711   1.847  0.0616  0.0908  0.0130
25779SOL    HW189396   3.965   6.758   1.794  1.1017 -0.4718  0.8599
25779SOL    HW289397   3.933   6.683   1.935 -1.3853  0.2250  0.6907
25780SOL     OW89398   3.659   7.324   4.523  0.5223 -0.4017 -0.3483
25780SOL    HW189399   3.708   7.329   4.436  1.3790 -0.8976  0.0907
25780SOL    HW289400   3.583   7.259   4.515 -0.1460  0.4771 -1.0777
25781SOL     OW89401   0.973   5.978   3.339 -0.0421  0.2055  0.1563
25781SOL    HW189402   0.965   6.078   3.342 -0.4693  0.1968 -0.4820
25781SOL    HW289403   1.068   5.952   3.323  0.0666  0.5079  0.3136
25782SOL     OW89404   0.927   2.186   8.115  0.0771  0.3261  0.1181
25782SOL    HW189405   0.997   2.255   8.131  0.4169  0.1353 -0.5551
25782SOL    HW289406   0.870   2.213   8.038 -0.8181  0.6498  0.8740
25783SOL     OW89407   7.407   5.045   2.789  0.4140 -0.0452  0.7307
25783SOL    HW189408   7.342   5.120   2.777  1.0454  0.3475 -0.3580
25783SOL    HW289409   7.360   4.957   2.776 -0.1684  0.1891  1.2555
25784SOL     OW89410   7.142   8.682   3.595 -0.1027 -0.0144 -0.3871
25784SOL    HW189411   7.182   8.670   3.504  1.9034 -1.0271  0.6015
25784SOL    HW289412   7.050   8.720   3.586 -0.1331 -0.5873 -2.8603
25785SOL     OW89413   4.059   6.262   0.498 -0.2116  0.8423 -0.0432
25785SOL    HW189414   4.086   6.299   0.587 -0.9579  0.3213  0.4084
25785SOL    HW289415   3.982   6.199   0.510  0.9262 -0.7340 -0.8099
25786SOL     OW89416   1.811   1.350   6.960 -0.6656 -0.1578 -0.6058
25786SOL    HW189417   1.798   1.330   7.057 -1.5780 -0.6235 -0.8193
25786SOL    HW289418   1.888   1.297   6.925  2.1623  2.8474  0.7407
25787SOL     OW89419   9.940   1.125   1.334  0.2994 -0.1856 -0.0214
25787SOL    HW189420   9.936   1.136   1.235  0.3565  3.2398  0.2795
25787SOL    HW289421   9.849   1.100   1.368  0.2283 -1.1549 -0.9064
25788SOL     OW89422   5.912   8.634   6.843  0.6590  0.2527  0.2210
25788SOL    HW189423   5.870   8.586   6.766  0.2138 -0.3722  0.8507
25788SOL    HW289424   6.008   8.655   6.821  0.5841 -0.0745 -0.4292
25789SOL     OW89425   1.262   0.888   5.939  0.5244 -0.2823  0.2690
25789SOL    HW189426   1.334   0.957   5.930 -0.8436  1.1909  0.3735
25789SOL    HW289427   1.222   0.893   6.031 -1.5259  0.7753 -0.6386
25790SOL     OW89428   1.339   7.409   2.611  0.2572 -0.1856 -0.2295
25790SOL    HW189429   1.366   7.315   2.593  0.5841 -0.2965  0.8364
25790SOL    HW289430   1.372   7.468   2.537  1.0860 -0.7315 -0.2977
25791SOL     OW89431   4.055   4.163   7.403 -0.2849  0.2891 -0.1127
25791SOL    HW189432   4.030   4.192   7.310 -0.5949  0.2429 -0.0456
25791SOL    HW289433   4.035   4.066   7.414 -0.3888  0.3281  0.0484
25792SOL     OW89434   9.442   5.169   4.716 -0.0541 -0.0171 -0.0547
25792SOL    HW189435   9.392   5.255   4.721 -0.6853 -0.3475 -0.6021
25792SOL    HW289436   9.379   5.095   4.694  0.4821 -0.6286  0.4531
25793SOL     OW89437   1.441   1.098   6.229 -0.1769  0.2116 -0.0931
25793SOL    HW189438   1.342   1.094   6.214 -0.1099 -0.5360 -0.3649
25793SOL    HW289439   1.467   1.037   6.304 -0.1366  1.7300  1.1308
25794SOL     OW89440   2.947   4.811   2.407  0.1593 -0.5909 -0.4337
25794SOL    HW189441   3.018   4.882   2.403 -2.5414  2.2290  0.6105
25794SOL    HW289442   2.893   4.821   2.490 -0.1937 -4.0145 -0.1838
25795SOL     OW89443   5.977   6.211  10.019 -0.2081 -0.0636 -0.1082
25795SOL    HW189444   5.932   6.296  10.045  0.2965  0.0251  0.4799
25795SOL    HW289445   5.982   6.150  10.098  0.1115 -0.3424 -0.3402
25796SOL     OW89446   0.810   6.732   0.020 -0.3435 -0.4107 -0.1181
25796SOL    HW189447   0.905   6.712  -0.004  0.0183 -0.0561  1.0020
25796SOL    HW289448   0.796   6.716   0.117 -1.0513  0.9452  0.0166
25797SOL     OW89449   7.641   1.384   7.658 -0.3053  0.3856  0.6677
25797SOL    HW189450   7.652   1.308   7.593 -1.0130 -0.1374  1.1497
25797SOL    HW289451   7.728   1.431   7.668 -0.2559  0.6514 -0.8790
25798SOL     OW89452   2.492   8.828   7.902  0.0462  0.1767 -0.3493
25798SOL    HW189453   2.556   8.871   7.838 -0.4661 -0.9419 -1.6327
25798SOL    HW289454   2.469   8.893   7.975  1.4748  1.0942 -0.6993
25799SOL     OW89455   0.513   2.687   0.793 -0.4930  0.0775  0.4918
25799SOL    HW189456   0.424   2.685   0.749  0.1830 -1.2394 -0.8620
25799SOL    HW289457   0.506   2.736   0.880 -2.4654  0.1917  0.2931
25800SOL     OW89458   9.613   5.693   5.611  0.0683 -0.3063  0.6105
25800SOL    HW189459   9.514   5.692   5.594  0.2720 -0.7781 -0.5553
25800SOL    HW289460   9.639   5.605   5.652  0.0268 -0.2271  0.8099
25801SOL     OW89461   6.642   0.280   3.663  0.3016 -0.4261 -0.3643
25801SOL    HW189462   6.710   0.318   3.726 -2.2608 -0.7344  2.7101
25801SOL    HW289463   6.631   0.342   3.585  2.3234  0.8264  0.3076
25802SOL     OW89464   6.186   3.947   1.916  0.4569 -0.4672 -0.2241
25802SOL    HW189465   6.268   4.002   1.901  0.6430 -0.7522 -0.2602
25802SOL    HW289466   6.105   3.998   1.886  0.6035 -0.1185 -0.0231
25803SOL     OW89467   2.217   2.820   2.332 -0.4201 -0.1405 -0.2495
25803SOL    HW189468   2.206   2.913   2.367 -0.9670 -0.5681  0.7561
25803SOL    HW289469   2.140   2.764   2.364 -0.3491 -0.8172 -1.2497
25804SOL     OW89470   4.197   0.233   7.608 -0.3113  0.2458 -0.6864
25804SOL    HW189471   4.267   0.286   7.560 -1.0204 -0.4411 -2.5354
25804SOL    HW289472   4.139   0.186   7.541 -2.4013  0.6103  0.8071
25805SOL     OW89473   5.352   8.966   2.621  0.1588 -0.2368 -0.0967
25805SOL    HW189474   5.319   9.045   2.673 -0.2907 -0.5957  0.1627
25805SOL    HW289475   5.428   8.994   2.562  0.2552  0.3078  0.2844
25806SOL     OW89476   8.533   8.022   0.351  0.4147  0.2100  0.5116
25806SOL    HW189477   8.573   7.959   0.417  1.0636 -1.3806 -1.3365
25806SOL    HW289478   8.434   8.007   0.347  0.5667 -0.7346  0.0703
25807SOL     OW89479   7.451   6.799   3.482  0.3197  0.2777 -0.4820
25807SOL    HW189480   7.398   6.732   3.430 -0.0487  1.0461 -1.1200
25807SOL    HW289481   7.542   6.764   3.500  0.1351 -0.3827 -0.8226
25808SOL     OW89482   1.134   8.064   0.073  0.1743  0.3523 -0.7811
25808SOL    HW189483   1.102   7.998   0.141  0.6481  2.0328  1.1253
25808SOL    HW289484   1.130   8.023  -0.018 -0.5360 -1.9236  0.2433
25809SOL     OW89485   8.399   6.769   1.833  0.1816 -0.7842  0.7283
25809SOL    HW189486   8.424   6.836   1.903  0.5048 -1.1043  0.9160
25809SOL    HW289487   8.301   6.752   1.837  0.3118 -1.3429  1.5677
25810SOL     OW89488   9.774   7.318   7.733  0.2050 -0.3295  0.8090
25810SOL    HW189489   9.732   7.408   7.718  1.0207 -0.0464  0.2151
25810SOL    HW289490   9.727   7.250   7.678 -0.5933 -0.3249  1.4669
25811SOL     OW89491   8.370   4.466   9.443  0.5635 -0.0435  0.4316
25811SOL    HW189492   8.406   4.539   9.383 -1.7796  1.3417  0.6601
25811SOL    HW289493   8.417   4.469   9.531 -0.4131  2.1131  0.9235
25812SOL     OW89494   1.569   4.399   0.051 -0.4039 -0.2251 -0.6509
25812SOL    HW189495   1.523   4.338  -0.014 -2.3761 -1.0207  1.4008
25812SOL    HW289496   1.518   4.485   0.057  0.0424  0.0277 -0.5077
25813SOL     OW89497   0.250   5.288   5.743  0.7282  0.4871 -0.1960
25813SOL    HW189498   0.336   5.250   5.776  0.6528  0.3731 -0.1288
25813SOL    HW289499   0.267   5.346   5.663  0.7178 -0.6519 -1.0504
25814SOL     OW89500   9.964   3.789   2.090 -0.2051 -0.5829  0.2762
25814SOL    HW189501  10.015   3.869   2.121  0.4051 -0.3840 -1.2188
25814SOL    HW289502   9.939   3.800   1.994  0.3065 -2.4058 -0.0789
25815SOL     OW89503   7.490   3.633   7.732  0.0175 -0.3142 -0.0798
25815SOL    HW189504   7.509   3.573   7.654 -1.7778 -0.7154 -0.2472
25815SOL    HW289505   7.475   3.577   7.814  0.1652  0.0077  0.1687
25816SOL     OW89506   3.485   1.560   1.637 -0.0821 -0.1645 -0.2473
25816SOL    HW189507   3.427   1.478   1.634  0.0307 -0.3094  1.2032
25816SOL    HW289508   3.451   1.627   1.571 -1.2547 -0.6843 -0.1900
25817SOL     OW89509   3.065   0.675   0.342 -0.2282  0.4907 -0.0244
25817SOL    HW189510   3.105   0.592   0.303  1.0144  0.2952  1.6439
25817SOL    HW289511   2.987   0.651   0.399 -0.8865  0.6136 -0.8719
25818SOL     OW89512   7.099   4.305   1.259  0.0027 -0.2661  0.2922
25818SOL    HW189513   7.126   4.375   1.324 -0.9458  0.1945  0.2114
25818SOL    HW289514   7.080   4.347   1.170 -1.9522 -0.4056  0.6196
25819SOL     OW89515   3.773   2.627   4.448  0.2946  0.0839  0.0261
25819SOL    HW189516   3.764   2.586   4.539  0.1636  2.8413  1.3064
25819SOL    HW289517   3.795   2.555   4.381  2.4363 -1.7317  2.5577
25820SOL     OW89518   7.425   2.941   2.751 -0.2148  0.3553  0.1058
25820SOL    HW189519   7.407   2.958   2.654 -0.3079  1.3688  0.2970
25820SOL    HW289520   7.406   2.845   2.772 -0.0719  0.1016 -0.9039
25821SOL     OW89521   9.656   3.401   5.227  0.4220  0.3399 -0.4367
25821SOL    HW189522   9.648   3.313   5.180  1.7879 -0.5678  0.9708
25821SOL    HW289523   9.683   3.472   5.162  0.3656 -0.4908 -1.3740
25822SOL     OW89524   1.678   4.745   7.996 -0.6668 -0.8639  0.1397
25822SOL    HW189525   1.592   4.760   8.045  0.1467 -0.0446  1.3439
25822SOL    HW289526   1.754   4.784   8.048  0.1513  0.7580 -2.1293
25823SOL     OW89527   4.468   4.597   7.117  0.2980  0.3205  0.2518
25823SOL    HW189528   4.486   4.536   7.195 -0.0320  1.2522  1.0748
25823SOL    HW289529   4.375   4.632   7.124 -0.2961 -0.8849 -1.4841
25824SOL     OW89530   4.696   6.703   1.506 -0.4490  0.7166  0.2073
25824SOL    HW189531   4.655   6.793   1.491 -0.5118  0.9059  1.4407
25824SOL    HW289532   4.688   6.679   1.603  1.9694  0.5600  0.3961
25825SOL     OW89533   4.601   4.736   9.688 -0.0127 -0.6426  0.5331
25825SOL    HW189534   4.609   4.720   9.786  0.2257 -1.3535  0.4011
25825SOL    HW289535   4.655   4.667   9.638 -1.5692 -1.4038 -0.1554
25826SOL     OW89536   2.044   5.008   5.302  0.3433  0.2921 -0.7835
25826SOL    HW189537   2.066   4.910   5.302 -0.4511  0.1036 -0.0481
25826SOL    HW289538   1.992   5.030   5.385  0.4750  1.3305 -0.9711
25827SOL     OW89539   9.887   3.015   6.240 -0.2488  0.5527 -0.7864
25827SOL    HW189540   9.986   3.013   6.235  0.0236 -2.3296  3.1658
25827SOL    HW289541   9.848   2.959   6.167  1.0883  0.6481 -1.5707
25828SOL     OW89542   2.426   6.895   9.283  0.5082 -0.3552 -0.1133
25828SOL    HW189543   2.424   6.795   9.288 -0.5595 -0.3745 -0.8755
25828SOL    HW289544   2.415   6.924   9.188 -1.3014  0.5341  0.3508
25829SOL     OW89545   3.725   9.296   3.069 -0.0460  0.4846  0.8169
25829SOL    HW189546   3.700   9.393   3.069  1.5423  0.9406 -2.2967
25829SOL    HW289547   3.765   9.272   3.158  0.3048  2.8740  1.3400
25830SOL     OW89548   3.701   7.768   7.938 -0.7163  0.1033  0.0959
25830SOL    HW189549   3.787   7.817   7.946 -0.1553 -1.0945  1.5651
25830SOL    HW289550   3.641   7.790   8.015 -0.2616 -1.8528  1.0515
25831SOL     OW89551   8.635   9.707   7.406  0.7384  0.0487 -0.3809
25831SOL    HW189552   8.566   9.708   7.478  0.0197 -0.8191 -1.0422
25831SOL    HW289553   8.726   9.714   7.447  0.3230 -0.1159  0.5857
25832SOL     OW89554   9.663   1.526   8.428  0.4206 -0.0648  0.0525
25832SOL    HW189555   9.701   1.503   8.518  1.0556 -1.6178 -0.6092
25832SOL    HW289556   9.582   1.470   8.412  0.5643 -0.1006 -0.5340
25833SOL     OW89557   8.255   5.776   2.306 -0.1194  0.5010  0.9604
25833SOL    HW189558   8.229   5.695   2.254  1.8288 -1.4438  2.9623
25833SOL    HW289559   8.182   5.845   2.298 -2.6987 -2.1490  0.8097
25834SOL     OW89560   0.186   1.136   2.682  0.5057  0.1029 -1.0046
25834SOL    HW189561   0.194   1.117   2.780  2.4999  1.0853 -0.9460
25834SOL    HW289562   0.090   1.150   2.658 -0.1861 -1.9663  0.4470
25835SOL     OW89563   2.354   2.825   3.053 -0.3855 -0.6159  0.5436
25835SOL    HW189564   2.310   2.822   3.143 -0.0661 -1.5998  0.6701
25835SOL    HW289565   2.446   2.786   3.059  0.9825  2.4338  0.5173
25836SOL     OW89566   6.566   5.384   1.088 -0.5484 -0.9577  0.2610
25836SOL    HW189567   6.564   5.313   1.018 -1.4901 -0.1456 -0.5534
25836SOL    HW289568   6.658   5.421   1.095 -1.2387  1.7634 -3.4733
25837SOL     OW89569   2.547   5.337   3.256 -0.9408 -0.3107 -0.1340
25837SOL    HW189570   2.514   5.281   3.180 -1.6614 -2.3759  1.6528
25837SOL    HW289571   2.487   5.416   3.267 -0.1497  0.6650 -2.4226
25838SOL     OW89572   4.420   0.471   5.885 -0.0086 -0.4101  0.1133
25838SOL    HW189573   4.434   0.466   5.984  0.7767  0.3393  0.0458
25838SOL    HW289574   4.509   0.479   5.839 -0.4210  0.1147 -0.5955
25839SOL     OW89575   2.356   4.513   7.216  0.6818  0.1728  0.0834
25839SOL    HW189576   2.355   4.583   7.287 -0.5222  1.6709 -1.3421
25839SOL    HW289577   2.269   4.515   7.167  0.8787 -1.9176 -0.3981
25840SOL     OW89578   6.112   9.081   7.557 -0.3639 -0.0000  0.1094
25840SOL    HW189579   6.076   9.122   7.473 -1.8524  1.5112  1.4414
25840SOL    HW289580   6.069   9.125   7.636  0.4549 -1.9239  1.6499
25841SOL     OW89581   3.423   0.285   8.921 -0.4036  0.0322  0.4147
25841SOL    HW189582   3.419   0.378   8.884  1.1525  0.4170  1.1883
25841SOL    HW289583   3.379   0.222   8.857 -0.0540  1.0689 -0.8665
25842SOL     OW89584   3.092   8.430   3.529  0.3278  0.1960  0.1032
25842SOL    HW189585   3.081   8.505   3.595  0.6854  0.5652 -0.2528
25842SOL    HW289586   3.187   8.428   3.498  0.6501 -1.2249  1.0964
25843SOL     OW89587   8.591   3.388   2.116  0.0099 -0.3261  1.2472
25843SOL    HW189588   8.521   3.396   2.045  1.6440 -1.3233 -0.5332
25843SOL    HW289589   8.560   3.323   2.186 -0.3132 -1.7479 -0.1947
25844SOL     OW89590   8.534   0.109   8.017  0.1901  0.0738 -0.0538
25844SOL    HW189591   8.597   0.052   7.964 -0.1737  0.4583 -0.9029
25844SOL    HW289592   8.571   0.201   8.024 -1.6485  1.1065 -3.0939
25845SOL     OW89593   7.386   5.625   2.427  0.5679  0.1829  0.5240
25845SOL    HW189594   7.374   5.556   2.355  3.5242 -0.3274  0.4377
25845SOL    HW289595   7.391   5.580   2.516  0.2255  0.4960  0.7007
25846SOL     OW89596   0.481   8.320   0.859 -0.1381 -0.3016  0.9190
25846SOL    HW189597   0.569   8.348   0.896  1.9880 -3.0273 -1.7904
25846SOL    HW289598   0.434   8.399   0.820  2.5817  0.6672 -0.4718
25847SOL     OW89599   5.517   9.406   8.170 -0.2729  0.8922  0.0500
25847SOL    HW189600   5.480   9.341   8.104  1.1694  1.2316 -1.1211
25847SOL    HW289601   5.568   9.357   8.241  1.3427  0.7645 -1.1769
25848SOL     OW89602   0.225   2.952   3.533 -0.4307 -0.5942 -0.0261
25848SOL    HW189603   0.233   3.051   3.544  1.4982 -0.6141 -1.2020
25848SOL    HW289604   0.188   2.931   3.442 -0.7996 -0.9565  0.2046
25849SOL     OW89605   1.860   0.824   6.087 -0.7262  0.0663 -0.4739
25849SOL    HW189606   1.829   0.782   6.173  2.2315  0.5430  0.8859
25849SOL    HW289607   1.885   0.752   6.022  1.5516 -0.3443  0.8072
25850SOL     OW89608   5.766   0.499   7.726 -0.0999 -0.0115  0.2500
25850SOL    HW189609   5.811   0.588   7.716  1.1276 -0.8608 -2.2154
25850SOL    HW289610   5.743   0.483   7.822  0.0346  2.7707  0.7789
25851SOL     OW89611   9.156   3.781   9.292 -0.3069 -0.4684  0.2820
25851SOL    HW189612   9.231   3.847   9.285  0.1440 -1.1272 -1.5278
25851SOL    HW289613   9.132   3.749   9.201 -1.0228 -2.2452  1.0759
25852SOL     OW89614   2.619   7.513   9.609  0.8101  0.3186 -0.7303
25852SOL    HW189615   2.676   7.438   9.577 -0.4158 -1.3714  0.9713
25852SOL    HW289616   2.622   7.518   9.709 -0.7270  1.2412 -0.7086
25853SOL     OW89617   9.769   4.874   1.077  0.0342 -0.7478  0.2020
25853SOL    HW189618   9.787   4.895   0.981  1.0292 -0.8679  0.3644
25853SOL    HW289619   9.846   4.902   1.133 -2.2273  3.1462  1.5323
25854SOL     OW89620   4.861   2.630   1.085 -0.7473  0.0346  0.0942
25854SOL    HW189621   4.875   2.564   1.159 -1.3334  1.3753  1.4197
25854SOL    HW289622   4.845   2.581   0.999 -1.1872 -1.5420  1.0562
25855SOL     OW89623   3.480   9.439   7.211  0.4527 -0.5304  0.1472
25855SOL    HW189624   3.427   9.439   7.127 -0.1207 -1.0717  0.5033
25855SOL    HW289625   3.578   9.438   7.190  0.3614  1.5412 -0.5284
25856SOL     OW89626   4.834   3.867   0.201  0.5392 -0.0520  0.0959
25856SOL    HW189627   4.820   3.768   0.204  2.0332 -0.2473  1.2111
25856SOL    HW289628   4.759   3.913   0.248 -0.3591 -0.6198 -0.7558
25857SOL     OW89629   1.456   0.632   5.942  0.3988 -0.9884 -0.0931
25857SOL    HW189630   1.513   0.562   5.985  1.1413 -0.3359 -0.0124
25857SOL    HW289631   1.438   0.704   6.009  1.4701 -0.0182 -0.8454
25858SOL     OW89632   8.549   5.224  10.064  0.8618 -0.1591  0.1636
25858SOL    HW189633   8.620   5.164  10.028  1.6528  0.1378  1.2010
25858SOL    HW289634   8.464   5.173  10.073  0.4575 -0.0636 -2.7271
25859SOL     OW89635   1.509   9.128   2.333 -0.0224 -0.3208 -0.6204
25859SOL    HW189636   1.470   9.053   2.387  1.5166  0.5567  1.8143
25859SOL    HW289637   1.450   9.208   2.339  0.6646  0.1013  0.6592
25860SOL     OW89638   1.433   7.360   6.042 -0.0442 -0.8956 -0.1566
25860SOL    HW189639   1.408   7.448   6.002  1.6833  0.7738  2.3185
25860SOL    HW289640   1.350   7.309   6.064 -1.0636  0.0261 -1.7141
25861SOL     OW89641   3.390   8.653   9.300  0.1618 -0.5533 -0.0004
25861SOL    HW189642   3.468   8.595   9.326  0.2028 -1.0788 -1.2839
25861SOL    HW289643   3.364   8.710   9.378  1.8429 -0.3602  0.4455
25862SOL     OW89644   1.788   6.255   6.311  0.2989 -0.3697 -0.0203
25862SOL    HW189645   1.856   6.301   6.254 -0.2804  1.3133  0.6041
25862SOL    HW289646   1.760   6.316   6.386 -1.6906 -1.1204 -0.1120
25863SOL     OW89647   8.642   9.300   3.959  0.0005 -0.0797  0.4845
25863SOL    HW189648   8.686   9.222   3.916  1.0367  0.3653  0.7177
25863SOL    HW289649   8.615   9.276   4.052 -1.4986 -0.7806 -0.1232
25864SOL     OW89650   9.488   8.169   6.197 -0.3343 -0.4196 -0.2324
25864SOL    HW189651   9.391   8.190   6.197  0.2265  2.4188  1.5863
25864SOL    HW289652   9.501   8.070   6.191 -3.4288 -1.0643  2.4741
25865SOL     OW89653   3.354   5.938   1.463 -0.1772  0.2381 -0.0571
25865SOL    HW189654   3.269   5.946   1.516 -0.0301 -1.0853  0.4022
25865SOL    HW289655   3.333   5.935   1.365 -0.7691 -1.1942  0.0965
25866SOL     OW89656   9.364   3.326   0.718  0.8038  0.5361  0.4230
25866SOL    HW189657   9.299   3.375   0.775 -0.2084 -2.8320  2.3173
25866SOL    HW289658   9.438   3.290   0.775  1.4728 -0.1944 -0.8812
25867SOL     OW89659   1.262   3.212   3.374  0.0556 -0.6957  0.2039
25867SOL    HW189660   1.316   3.225   3.457  1.7514 -1.4564 -0.7387
25867SOL    HW289661   1.273   3.118   3.341 -0.5901 -0.4105 -0.8733
25868SOL     OW89662   8.081   5.782   1.382  0.2137  0.3832  0.7314
25868SOL    HW189663   8.000   5.821   1.426 -1.0472  0.1961 -1.3475
25868SOL    HW289664   8.076   5.797   1.283  1.2015 -2.3072  0.2266
25869SOL     OW89665   2.807   9.772   5.250  0.1444 -0.4402 -0.1954
25869SOL    HW189666   2.873   9.818   5.192  1.0169  0.1881  1.2671
25869SOL    HW289667   2.734   9.733   5.194  0.6032  0.7484 -1.6320
25870SOL     OW89668   2.277   2.347   2.300 -0.3854  0.1300 -0.7994
25870SOL    HW189669   2.207   2.390   2.243 -0.1160  2.4729  0.5710
25870SOL    HW289670   2.260   2.369   2.396  2.1248  0.5864 -0.4265
25871SOL     OW89671   2.542   0.573   9.207 -0.5588 -0.3231  0.0350
25871SOL    HW189672   2.511   0.648   9.265 -1.9689 -0.7739 -0.1256
25871SOL    HW289673   2.582   0.500   9.264  0.9125  0.5792  0.1823
25872SOL     OW89674   0.447   1.006   2.712 -0.3357  0.2814  0.0685
25872SOL    HW189675   0.470   1.016   2.809 -1.5642  0.3737  0.3557
25872SOL    HW289676   0.354   1.041   2.696 -0.4445 -0.4856 -0.9912
25873SOL     OW89677   0.239   8.527   3.440 -0.2310 -0.2322  0.5498
25873SOL    HW189678   0.256   8.489   3.349 -0.0687 -1.1755  0.9710
25873SOL    HW289679   0.268   8.623   3.442 -2.2298  0.4418 -1.0335
25874SOL     OW89680   0.415   7.429   3.881 -0.5526 -0.3409  0.9800
25874SOL    HW189681   0.360   7.437   3.798 -1.7958  1.2372  1.9067
25874SOL    HW289682   0.372   7.363   3.943  0.1322 -1.1861  0.5639
25875SOL     OW89683   2.070   0.170   9.024  0.1624 -0.5676  0.9044
25875SOL    HW189684   2.115   0.121   9.099  0.0126 -0.2439  1.2091
25875SOL    HW289685   2.034   0.104   8.958 -0.3156 -0.8862  1.4720
25876SOL     OW89686   2.087   6.794   1.065  0.1261  0.3122 -0.5760
25876SOL    HW189687   2.129   6.703   1.068 -0.3703 -0.0353 -3.2810
25876SOL    HW289688   2.122   6.848   1.141 -0.2047 -2.3901  1.5786
25877SOL     OW89689   4.665   9.210   4.571 -0.0762 -0.0666 -0.3944
25877SOL    HW189690   4.677   9.170   4.662  0.0125 -0.7673 -0.7142
25877SOL    HW289691   4.748   9.260   4.545 -0.2443  0.4596  0.0677
25878SOL     OW89692   3.712   2.480   0.917 -0.1999  0.1023  0.1598
25878SOL    HW189693   3.773   2.510   0.990  1.8154 -0.5634 -1.1892
25878SOL    HW289694   3.691   2.383   0.930  0.1809 -0.0227 -0.1556
25879SOL     OW89695   9.706   5.604   7.893 -0.2106 -0.2910  0.1175
25879SOL    HW189696   9.631   5.538   7.904 -0.7009  0.1350 -0.6209
25879SOL    HW289697   9.695   5.653   7.806  0.2115  0.6937  0.6094
25880SOL     OW89698   0.815   3.785   3.164 -0.4545 -0.0028  0.4711
25880SOL    HW189699   0.859   3.874   3.154 -3.5134  1.5583  0.6661
25880SOL    HW289700   0.806   3.763   3.261 -0.4181 -0.2010  0.4308
25881SOL     OW89701   3.928   6.545   2.706  0.3233  0.1545 -0.6574
25881SOL    HW189702   3.962   6.469   2.763 -0.9119 -1.2451 -1.7483
25881SOL    HW289703   3.937   6.520   2.610  2.0531  2.3590 -1.1090
25882SOL     OW89704   2.680   0.659   9.882 -0.5527  0.2697  0.1947
25882SOL    HW189705   2.619   0.705   9.947 -4.1293  0.6329 -3.2238
25882SOL    HW289706   2.697   0.720   9.804 -0.4240 -1.9299 -1.5352
25883SOL     OW89707   2.116   0.557   6.022 -0.4765 -0.5412 -0.3517
25883SOL    HW189708   2.196   0.532   6.077 -1.3311  0.0276  1.1984
25883SOL    HW289709   2.143   0.624   5.953  0.3880 -0.2740  0.2313
25884SOL     OW89710   0.215   4.522   8.497 -0.0602 -0.3352  0.0649
25884SOL    HW189711   0.279   4.591   8.528 -0.2760 -0.3658  0.5921
25884SOL    HW289712   0.127   4.536   8.543 -0.6331  0.1137 -1.1426
25885SOL     OW89713   4.610   9.126   9.562  0.6866  0.5485  0.1991
25885SOL    HW189714   4.570   9.189   9.627  1.2251  1.3570 -0.2429
25885SOL    HW289715   4.613   9.034   9.601 -1.4637  0.4901  0.2864
25886SOL     OW89716   2.315   6.044   2.640  0.0890 -0.3519 -0.2213
25886SOL    HW189717   2.368   5.964   2.669  0.1346 -0.3635 -0.3367
25886SOL    HW289718   2.343   6.124   2.692  2.2427  0.2837 -2.2498
25887SOL     OW89719   8.988   4.954   9.408  0.2968 -0.2124  0.1731
25887SOL    HW189720   9.009   4.856   9.407 -1.7085 -0.6546 -1.7175
25887SOL    HW289721   9.044   5.001   9.340 -0.3661 -0.4307 -0.5361
25888SOL     OW89722   2.459   4.023   3.458  0.1770  0.4609 -0.1283
25888SOL    HW189723   2.417   3.963   3.390 -1.0022  1.2157 -0.0834
25888SOL    HW289724   2.399   4.101   3.475  1.1773  1.0747  0.6421
25889SOL     OW89725   6.997   0.057   2.606  0.6595 -1.2766 -0.4878
25889SOL    HW189726   7.037   0.081   2.694  1.1577 -1.8230 -0.5601
25889SOL    HW289727   6.939   0.132   2.574  1.4292 -0.5719 -0.2621
25890SOL     OW89728   1.377   9.884   6.971 -0.7126  0.0347  0.1078
25890SOL    HW189729   1.369   9.980   6.998  1.0249 -0.0942  1.1672
25890SOL    HW289730   1.407   9.878   6.876  0.9340  0.5784  0.5781
25891SOL     OW89731   0.988   1.758   5.497  0.0471  0.0345 -0.3979
25891SOL    HW189732   0.976   1.687   5.565 -0.0129  0.4087 -0.0127
25891SOL    HW289733   1.007   1.717   5.407  2.9441 -0.4276  0.3734
25892SOL     OW89734   7.424   5.760   0.640  0.6336  0.0853  0.2460
25892SOL    HW189735   7.350   5.812   0.682 -1.2657 -2.0644 -0.3329
25892SOL    HW289736   7.461   5.810   0.562 -2.0965 -0.0239 -1.1504
25893SOL     OW89737   9.243   5.287   5.081  0.5696  0.1074 -0.0322
25893SOL    HW189738   9.226   5.188   5.084 -0.5980  0.3512  2.1356
25893SOL    HW289739   9.296   5.313   5.161  2.4928  0.9767 -1.5564
25894SOL     OW89740   2.779   4.822   8.049  0.1323  0.2685 -0.1250
25894SOL    HW189741   2.690   4.811   8.093  0.1544 -1.6623 -0.5262
25894SOL    HW289742   2.851   4.817   8.117  0.0930 -1.3473 -0.1863
25895SOL     OW89743   7.359   1.910   8.269 -0.6753  0.2133  0.0286
25895SOL    HW189744   7.301   1.829   8.262 -0.3808 -0.0760  0.8354
25895SOL    HW289745   7.437   1.902   8.207 -0.3212 -0.3936  0.5567
25896SOL     OW89746   3.647   8.589   3.552 -0.4590  0.3307  0.4473
25896SOL    HW189747   3.716   8.651   3.515 -0.3180 -0.0449  0.0694
25896SOL    HW289748   3.684   8.496   3.555 -0.8090  0.1957  0.6245
25897SOL     OW89749   9.133   4.640   5.498 -0.2903  0.4024  0.6247
25897SOL    HW189750   9.184   4.678   5.421 -0.0069  0.7135  0.9607
25897SOL    HW289751   9.055   4.700   5.519 -0.4202  0.2706  0.5233
25898SOL     OW89752   4.122   6.350   1.869 -0.7941  0.0805 -0.2794
25898SOL    HW189753   4.061   6.287   1.916 -0.9941  0.4973  0.0257
25898SOL    HW289754   4.208   6.357   1.919 -0.4542 -0.5991 -0.7753
25899SOL     OW89755   5.452   1.558   8.598 -0.9191  0.6633 -0.1013
25899SOL    HW189756   5.507   1.590   8.675 -1.5452  1.8858 -0.1531
25899SOL    HW289757   5.363   1.526   8.633 -0.0920 -1.6240  0.0247
25900SOL     OW89758   1.060   6.296   7.368  0.2461 -0.4231 -0.0081
25900SOL    HW189759   1.008   6.358   7.426  0.4017 -1.4002  1.1757
25900SOL    HW289760   1.017   6.292   7.278 -0.7560  0.0662  0.4395
25901SOL     OW89761   7.751   2.171   1.324 -0.3667  0.4001  0.4791
25901SOL    HW189762   7.820   2.113   1.367 -0.7275  1.0771  1.9968
25901SOL    HW289763   7.795   2.239   1.266  0.0639 -1.3611 -1.3331
25902SOL     OW89764   2.896   7.436   1.937  0.2082  0.3364 -0.3903
25902SOL    HW189765   2.858   7.453   1.846 -0.9029 -0.2511 -0.0417
25902SOL    HW289766   2.990   7.403   1.928 -0.0516 -0.1559 -1.3396
25903SOL     OW89767   9.148   3.181   9.162  0.4178 -0.0906 -0.4176
25903SOL    HW189768   9.235   3.222   9.189 -0.8473  2.4549 -0.1070
25903SOL    HW289769   9.165   3.111   9.093  2.6809  0.6581 -0.6594
25904SOL     OW89770   1.181   1.078   5.461 -0.0640 -0.1111  0.1104
25904SOL    HW189771   1.232   1.128   5.391 -1.5411 -0.4939 -1.2421
25904SOL    HW289772   1.102   1.033   5.420 -1.7697  0.8373  2.2433
25905SOL     OW89773   2.811   2.095   2.720  0.4518 -0.4586  0.0237
25905SOL    HW189774   2.742   2.167   2.710  1.1054  0.1964  0.1077
25905SOL    HW289775   2.791   2.020   2.657 -1.3732 -1.1154  1.3776
25906SOL     OW89776   2.433   6.312   5.795  0.1157 -0.5268 -0.4572
25906SOL    HW189777   2.480   6.325   5.882 -0.3528  0.6260 -0.3693
25906SOL    HW289778   2.468   6.378   5.728 -1.5945  0.5843 -0.2896
25907SOL     OW89779   9.434   3.585   4.664 -0.4852 -0.4429  0.7116
25907SOL    HW189780   9.369   3.662   4.667 -0.2883 -0.3512  2.9166
25907SOL    HW289781   9.428   3.532   4.748  1.4344 -1.1747  0.4184
25908SOL     OW89782   5.829   4.796   0.168 -0.3879 -0.0188  0.5375
25908SOL    HW189783   5.878   4.859   0.108  0.2225 -0.5460  0.4802
25908SOL    HW289784   5.736   4.782   0.134 -0.3675  0.4649  0.2797
25909SOL     OW89785   8.752   9.171   7.013  0.1306  0.3215 -0.9719
25909SOL    HW189786   8.826   9.158   7.078 -0.4778  1.6282  0.0210
25909SOL    HW289787   8.674   9.114   7.039  0.6197 -0.7312 -1.7724
25910SOL     OW89788   7.817   3.714   4.598 -0.3990 -0.6630 -0.7051
25910SOL    HW189789   7.851   3.673   4.514 -1.4608 -1.7061 -0.6458
25910SOL    HW289790   7.741   3.659   4.634  0.0510 -0.2576  0.9465
25911SOL     OW89791   2.056   1.598   0.895 -0.4421 -0.4424  0.0330
25911SOL    HW189792   1.986   1.663   0.923 -0.9578 -0.8319 -0.3408
25911SOL    HW289793   2.142   1.620   0.940 -0.3987  1.0072 -0.7373
25912SOL     OW89794   1.692   4.524   5.096  0.2226  0.4208 -0.1993
25912SOL    HW189795   1.746   4.607   5.106  2.2713 -0.9060  0.0391
25912SOL    HW289796   1.660   4.493   5.185 -0.0113  0.6059 -0.2178
25913SOL     OW89797   2.105   5.446   2.089 -0.3572  0.7250 -0.9118
25913SOL    HW189798   2.039   5.437   2.015 -1.3473 -1.4616  0.1986
25913SOL    HW289799   2.060   5.484   2.171 -0.0163  0.1295 -0.4443
25914SOL     OW89800   1.700   9.298   6.501  0.0596 -0.1210  0.4638
25914SOL    HW189801   1.693   9.310   6.600 -0.8580  1.3492  0.2384
25914SOL    HW289802   1.737   9.382   6.461 -1.7303  0.1340 -0.6729
25915SOL     OW89803   8.215   9.664   4.492 -0.1712 -0.7233 -0.3266
25915SOL    HW189804   8.233   9.597   4.564 -1.2521 -0.5852  0.0868
25915SOL    HW289805   8.127   9.643   4.449 -1.4463  1.5335  1.0899
25916SOL     OW89806   6.115   8.785   7.173  0.3348  0.2605  0.4335
25916SOL    HW189807   6.109   8.751   7.267  2.4139  1.8771  1.1884
25916SOL    HW289808   6.024   8.814   7.142 -0.2346  0.4541  2.2127
25917SOL     OW89809   5.198   4.187   0.363  0.0102 -0.7675  0.1325
25917SOL    HW189810   5.199   4.286   0.344  3.1952 -0.7796  0.0083
25917SOL    HW289811   5.143   4.141   0.293  3.2675  0.3168 -3.3402
25918SOL     OW89812   9.881   6.314   1.996 -0.3068  0.3114 -0.6575
25918SOL    HW189813   9.920   6.222   1.997 -0.0730  0.4083 -0.9572
25918SOL    HW289814   9.941   6.376   2.046 -0.4279  0.3179 -0.5174
25919SOL     OW89815   3.136   4.506   3.896 -0.4600 -0.0094  0.2971
25919SOL    HW189816   3.205   4.567   3.857 -1.6688  0.9397 -0.4108
25919SOL    HW289817   3.052   4.558   3.914 -1.0076 -1.1502  1.0948
25920SOL     OW89818   3.924   5.799   0.743  0.2060  0.4687  0.3197
25920SOL    HW189819   3.903   5.767   0.835 -2.9032 -0.7503 -0.7729
25920SOL    HW289820   4.017   5.837   0.742  1.2511 -1.7892  3.3383
25921SOL     OW89821   4.269   6.191   0.327 -0.0511  0.0916 -0.4999
25921SOL    HW189822   4.205   6.229   0.393  1.2492  2.4745 -0.5410
25921SOL    HW289823   4.228   6.112   0.281 -1.7999 -0.2330  1.5400
25922SOL     OW89824   2.653   0.854   4.645 -0.3012 -0.3594 -0.3696
25922SOL    HW189825   2.638   0.891   4.736  1.2889 -0.8211  0.1005
25922SOL    HW289826   2.707   0.918   4.591  0.2060 -0.8295 -0.4248
25923SOL     OW89827   5.752   3.526   8.041 -0.3253 -0.3522 -0.0256
25923SOL    HW189828   5.823   3.583   8.000  1.5024 -1.5523  1.4106
25923SOL    HW289829   5.730   3.561   8.132 -1.2718 -0.2686 -0.2767
25924SOL     OW89830   8.723   9.401   7.186  0.0637 -0.7224  0.0550
25924SOL    HW189831   8.751   9.496   7.167 -0.4155 -0.8561 -1.3833
25924SOL    HW289832   8.759   9.341   7.114 -0.9471 -1.4026  0.1086
25925SOL     OW89833   0.443   8.163   8.391 -0.2895 -0.1472  0.1195
25925SOL    HW189834   0.469   8.068   8.407 -0.5660 -0.1301  0.7042
25925SOL    HW289835   0.482   8.221   8.463 -0.5964  0.0976  0.0920
25926SOL     OW89836   6.518   1.468   0.312 -0.4364  0.0557  0.3718
25926SOL    HW189837   6.456   1.392   0.296 -0.6755  0.0516  1.3032
25926SOL    HW289838   6.597   1.437   0.365 -0.2769  0.3445  0.3066
25927SOL     OW89839   4.472   4.900  10.065 -0.3411  0.2015 -0.0896
25927SOL    HW189840   4.528   4.817  10.065 -0.5545  0.0562 -0.6854
25927SOL    HW289841   4.513   4.968  10.004 -0.2184  0.5026  0.3240
25928SOL     OW89842   4.935   9.521   3.107 -0.1518  0.4920  0.0798
25928SOL    HW189843   4.981   9.465   3.175 -0.1120  1.7074  1.0654
25928SOL    HW289844   4.974   9.503   3.017  0.3134 -0.5643  0.4878
25929SOL     OW89845   3.561   4.551   0.738 -0.3529 -0.2855  0.0275
25929SOL    HW189846   3.477   4.531   0.687 -0.8967 -0.8883  1.1307
25929SOL    HW289847   3.612   4.466   0.752  0.1425 -0.0134 -0.1210
25930SOL     OW89848   9.001   9.468   0.402  0.5904  0.1649 -0.3875
25930SOL    HW189849   8.926   9.531   0.421  0.2999 -0.4911  0.6419
25930SOL    HW289850   8.966   9.375   0.395  1.4543 -0.3139  1.3210
25931SOL     OW89851   8.461   6.223   1.040  0.4371  0.5396  0.2721
25931SOL    HW189852   8.482   6.270   0.954  0.4063  0.1623  0.0585
25931SOL    HW289853   8.405   6.142   1.021  0.3336  0.5187  0.6594
25932SOL     OW89854   2.737   7.224   7.314 -0.1164 -0.2819  0.7588
25932SOL    HW189855   2.683   7.202   7.232 -0.5396 -0.3774  1.0623
25932SOL    HW289856   2.712   7.161   7.388  1.8977 -1.6678  0.2834
25933SOL     OW89857   2.957   4.961   3.042  0.8123 -0.7064  0.6797
25933SOL    HW189858   2.861   4.951   3.015  1.5509 -0.0448 -2.3975
25933SOL    HW289859   3.000   4.871   3.047  0.2432 -0.9486  1.2530
25934SOL     OW89860   3.691   0.946   8.670 -0.0766 -0.7131 -0.4456
25934SOL    HW189861   3.657   1.027   8.717  0.1591 -0.8661 -0.0025
25934SOL    HW289862   3.625   0.917   8.601 -0.5269 -0.6103 -0.0602
25935SOL     OW89863   9.015   1.488   6.788 -0.2199  0.0180 -0.0513
25935SOL    HW189864   8.985   1.395   6.811 -0.1983 -0.7947 -3.0962
25935SOL    HW289865   9.114   1.487   6.771  0.4458  1.3548  3.3653
25936SOL     OW89866   2.452   5.854   5.046 -0.1713 -0.2518 -0.1769
25936SOL    HW189867   2.422   5.922   5.112 -0.6819 -0.4130 -0.2397
25936SOL    HW289868   2.533   5.807   5.081  2.1901  2.6108 -1.5635
25937SOL     OW89869   4.340   0.570   0.715  0.5982 -0.1086  0.1790
25937SOL    HW189870   4.318   0.567   0.813  0.8112  1.0075  0.2675
25937SOL    HW289871   4.436   0.545   0.703  0.9152  0.9903  0.3830
25938SOL     OW89872   0.011   7.260   1.222  0.0560  0.4279 -0.2236
25938SOL    HW189873   0.010   7.352   1.183  0.7488 -0.0168 -1.2966
25938SOL    HW289874  -0.066   7.207   1.186 -1.2092  1.0243  1.5062
25939SOL     OW89875   9.472   6.453   8.496 -0.6028  0.0483  0.8090
25939SOL    HW189876   9.447   6.376   8.555 -0.7381 -0.4635  0.0897
25939SOL    HW289877   9.513   6.418   8.412 -0.4517  0.7727  0.5819
25940SOL     OW89878   1.165   8.353   3.337 -0.1812  0.0277  0.4219
25940SOL    HW189879   1.088   8.345   3.400  0.1862  0.9675  0.9951
25940SOL    HW289880   1.134   8.390   3.250 -0.6359 -0.9862  0.1406
25941SOL     OW89881   8.232   4.692   2.771 -0.4329 -0.5353  0.4188
25941SOL    HW189882   8.223   4.659   2.677 -1.2974  0.9091 -0.0285
25941SOL    HW289883   8.320   4.739   2.781 -1.1680  1.0302 -0.2424
25942SOL     OW89884   3.088   7.449   8.532 -0.0980 -0.3704 -0.0766
25942SOL    HW189885   3.033   7.389   8.590  0.7241 -0.8225  0.2396
25942SOL    HW289886   3.070   7.545   8.557 -2.7391 -0.3741 -1.7618
25943SOL     OW89887   6.166   9.261   3.667  0.4295  0.1766 -0.1728
25943SOL    HW189888   6.170   9.300   3.575 -1.4240 -0.5362 -0.5842
25943SOL    HW289889   6.168   9.335   3.734 -0.3068  0.8405 -0.8658
25944SOL     OW89890   1.912   7.848   8.521 -0.1393 -0.2363  0.7167
25944SOL    HW189891   1.988   7.788   8.497  0.0359  0.2116  0.1629
25944SOL    HW289892   1.942   7.943   8.519 -0.1486 -0.1706  2.5657
25945SOL     OW89893   9.173   6.983   7.697  0.7923  0.5638 -0.4461
25945SOL    HW189894   9.158   7.013   7.791 -0.2613 -2.7076  0.5303
25945SOL    HW289895   9.271   6.977   7.679  1.0699 -1.5702  1.4852
25946SOL     OW89896   7.843   6.189   8.161 -0.4914 -0.3880  0.2631
25946SOL    HW189897   7.798   6.277   8.178 -1.9489 -0.8977 -0.8948
25946SOL    HW289898   7.811   6.122   8.227 -0.1229 -0.3135  0.5204
25947SOL     OW89899   6.941   7.314   4.087  0.0090  0.1480  0.5083
25947SOL    HW189900   7.016   7.255   4.116 -1.5862 -1.4600  1.4503
25947SOL    HW289901   6.921   7.298   3.990  1.1786  0.9401  0.1230
25948SOL     OW89902   0.004   6.734   2.277 -0.3275 -0.3636  0.0090
25948SOL    HW189903   0.062   6.798   2.228  0.9446  1.4928  3.8004
25948SOL    HW289904  -0.091   6.765   2.274  0.1646  1.2662  1.1230
25949SOL     OW89905   4.112   2.303   2.531 -0.2974 -0.2557  0.1596
25949SOL    HW189906   4.069   2.217   2.501 -1.6774  0.4407  0.1218
25949SOL    HW289907   4.092   2.374   2.464  0.7400  0.1308  0.2622
25950SOL     OW89908   0.721   3.288   9.912  0.2149 -0.5574 -0.4730
25950SOL    HW189909   0.732   3.201   9.864  2.0729  0.0971 -1.2740
25950SOL    HW289910   0.770   3.284   9.999  2.8084  0.6432 -1.8105
25951SOL     OW89911   7.360   4.318   0.340 -0.4471  0.0259 -0.0101
25951SOL    HW189912   7.272   4.270   0.346 -0.1601 -0.5360 -0.2058
25951SOL    HW289913   7.350   4.412   0.372 -1.2756  0.1632 -0.6679
25952SOL     OW89914   2.865   6.350   2.184  0.0858  0.0146  0.3779
25952SOL    HW189915   2.894   6.369   2.278 -1.2880  1.9320  0.4386
25952SOL    HW289916   2.799   6.274   2.185  1.5312 -1.2690  0.7204
25953SOL     OW89917   8.261   5.143   4.479 -0.4319 -0.2996  0.1783
25953SOL    HW189918   8.358   5.131   4.461 -0.1634  2.1866 -0.2201
25953SOL    HW289919   8.245   5.142   4.578 -0.1126 -1.4888  0.2173
25954SOL     OW89920   0.422   5.551  10.004  0.2690  0.1027  0.2291
25954SOL    HW189921   0.452   5.646  10.011  0.5255  0.1503 -1.4496
25954SOL    HW289922   0.443   5.503  10.090  1.7532  1.0832  0.4307
25955SOL     OW89923   5.307   8.184   3.015  0.3929 -0.4121 -0.2384
25955SOL    HW189924   5.331   8.242   3.093  0.5461 -0.4241 -0.2762
25955SOL    HW289925   5.380   8.189   2.947  0.0312 -0.0147 -0.5960
25956SOL     OW89926   9.483   9.041   2.071  0.2289  0.1155  0.3213
25956SOL    HW189927   9.576   9.049   2.106  0.3386  1.0240 -0.1611
25956SOL    HW289928   9.426   9.113   2.112 -0.4789 -0.9796  1.2987
25957SOL     OW89929   5.814   8.361   5.074 -0.0549 -0.2630 -0.4930
25957SOL    HW189930   5.832   8.354   5.172 -0.0055 -0.5327 -0.5218
25957SOL    HW289931   5.740   8.298   5.049  1.3684 -1.7685 -1.0061
25958SOL     OW89932   8.406   7.122   0.552 -0.1610 -0.1109  0.0104
25958SOL    HW189933   8.499   7.096   0.576  0.4090  0.1633 -1.8055
25958SOL    HW289934   8.381   7.207   0.599  0.9749  0.5032 -0.4747
25959SOL     OW89935   9.570   5.335   7.622 -0.1850 -0.1719 -0.3291
25959SOL    HW189936   9.618   5.331   7.710 -0.7820 -1.3965 -0.0548
25959SOL    HW289937   9.534   5.427   7.608  0.1486  0.1057  0.5813
25960SOL     OW89938   1.743   1.923   3.734 -0.5689  0.3030 -0.6330
25960SOL    HW189939   1.687   1.861   3.679  2.1513 -2.6449 -0.2230
25960SOL    HW289940   1.808   1.970   3.674 -0.3703  0.2088 -0.4917
25961SOL     OW89941   4.937   1.124   4.876  0.3295  0.2282 -0.3595
25961SOL    HW189942   4.894   1.053   4.820 -0.6454  0.9732 -0.5678
25961SOL    HW289943   4.929   1.100   4.972 -0.5752  0.3621 -0.3961
25962SOL     OW89944   2.789   1.535   2.342  0.1724  0.0629 -0.3057
25962SOL    HW189945   2.881   1.570   2.355  0.5150 -1.0202  0.2725
25962SOL    HW289946   2.735   1.601   2.290  1.3677  0.5593 -0.9440
25963SOL     OW89947   4.402   6.757   0.036 -0.3519  0.1833 -0.2090
25963SOL    HW189948   4.494   6.788   0.061 -0.8958  1.7316 -0.0412
25963SOL    HW289949   4.407   6.665  -0.003  1.2756  0.2910 -0.3004
25964SOL     OW89950   5.515   8.128   4.792  0.2110  0.7124  0.6463
25964SOL    HW189951   5.578   8.056   4.823  0.1483  0.6164  0.5475
25964SOL    HW289952   5.494   8.114   4.696 -0.2427  0.5395  0.7700
25965SOL     OW89953   3.260   6.827   9.859 -0.0277 -0.5152 -0.0187
25965SOL    HW189954   3.278   6.828   9.957 -0.6477 -2.0177  0.1217
25965SOL    HW289955   3.163   6.842   9.842  0.5342  2.9869 -0.5751
25966SOL     OW89956   0.778   1.203  10.037 -0.3835 -0.1604  0.2158
25966SOL    HW189957   0.827   1.279  10.080  0.3897 -0.1628 -0.6358
25966SOL    HW289958   0.820   1.116  10.065 -1.7877 -0.3348  1.8485
25967SOL     OW89959   8.204   4.708   3.071 -0.4918  0.1904 -0.2766
25967SOL    HW189960   8.200   4.743   2.977  0.3448 -1.8532 -1.1020
25967SOL    HW289961   8.114   4.674   3.097 -0.2366 -1.1820 -1.1284
25968SOL     OW89962   1.279   4.924   9.517  0.2210  0.2180  0.0244
25968SOL    HW189963   1.199   4.868   9.494  0.6604 -0.1187 -0.6952
25968SOL    HW289964   1.307   4.977   9.437  1.1343 -0.1717  0.0859
25969SOL     OW89965   3.690   4.589   8.373  0.3602 -0.3764 -0.1205
25969SOL    HW189966   3.647   4.536   8.445  0.9793 -1.5886 -0.6308
25969SOL    HW289967   3.634   4.670   8.353 -1.3633 -1.5905 -0.3546
25970SOL     OW89968   9.195   5.699   3.850  0.1186 -0.0326 -0.8682
25970SOL    HW189969   9.293   5.708   3.836  0.4256 -1.0095  0.5000
25970SOL    HW289970   9.171   5.733   3.941 -0.8955  0.6675 -1.3798
25971SOL     OW89971   9.701   9.836   7.754 -0.1116  0.1447 -0.1690
25971SOL    HW189972   9.660   9.898   7.688  0.5554  0.3296 -0.4186
25971SOL    HW289973   9.655   9.845   7.842 -0.5541  0.3941 -0.4249
25972SOL     OW89974   0.487   9.296   8.609 -0.0307 -0.0547 -0.0113
25972SOL    HW189975   0.416   9.335   8.668 -0.6617 -0.2274 -0.6361
25972SOL    HW289976   0.534   9.223   8.657  0.8263  1.1297  0.9972
25973SOL     OW89977   9.566   2.058   3.705  0.5998  0.3607  0.0626
25973SOL    HW189978   9.489   2.045   3.643  3.0520 -1.8333 -2.6442
25973SOL    HW289979   9.565   2.152   3.740 -2.8517  0.5778 -0.4287
25974SOL     OW89980   2.381   5.334   2.145  0.3666 -0.8099  0.3668
25974SOL    HW189981   2.285   5.357   2.129 -0.2647 -1.8837  2.3783
25974SOL    HW289982   2.435   5.355   2.063 -1.1833  1.9029  0.0048
25975SOL     OW89983   7.610   5.751   3.357 -0.7896 -0.5870  0.4606
25975SOL    HW189984   7.622   5.700   3.272 -0.1397 -0.5691  0.5385
25975SOL    HW289985   7.561   5.694   3.423 -0.6460 -0.8685  0.3248
25976SOL     OW89986   8.915   3.688   3.359  0.3927  0.1113 -0.3274
25976SOL    HW189987   8.937   3.592   3.339 -0.7850 -0.2182 -0.0918
25976SOL    HW289988   8.816   3.700   3.356  0.5671  1.4424 -0.8697
25977SOL     OW89989   8.699   4.537   1.569 -0.0888  0.3122 -0.1247
25977SOL    HW189990   8.758   4.475   1.621  0.5523  0.1547 -1.0260
25977SOL    HW289991   8.650   4.485   1.499 -0.3156  0.6585 -0.2242
25978SOL     OW89992   6.949   2.085   5.179  0.2739 -0.4605 -0.1208
25978SOL    HW189993   6.960   2.018   5.253  0.3822  0.3366  0.5944
25978SOL    HW289994   6.930   2.037   5.093 -2.3520 -1.3053  0.8717
25979SOL     OW89995   7.046   2.287   2.053 -0.2852  0.0565 -0.0688
25979SOL    HW189996   6.990   2.327   1.981 -0.0637  0.0167 -0.2624
25979SOL    HW289997   7.140   2.275   2.020 -0.1143  0.3060  0.3166
25980SOL     OW89998   0.404   7.073   6.123  0.3269  0.1280  0.2864
25980SOL    HW189999   0.307   7.090   6.136  0.2316 -0.5967  0.5585
25980SOL    HW290000   0.440   7.022   6.202  0.5132 -1.2748 -0.6892
25981SOL     OW90001   5.332   0.694   7.371  0.4654 -0.3801 -0.5403
25981SOL    HW190002   5.278   0.756   7.429 -1.2164 -2.0047 -0.3035
25981SOL    HW290003   5.359   0.614   7.425  3.3999  0.5264 -0.5856
25982SOL     OW90004   0.780   4.806   1.475 -0.7123  0.0953 -0.1456
25982SOL    HW190005   0.689   4.837   1.445 -0.6738  0.3882  0.0370
25982SOL    HW290006   0.812   4.733   1.414 -0.7631  0.4816 -0.6383
25983SOL     OW90007   1.077   4.388   0.412 -0.1221 -0.1096 -0.3723
25983SOL    HW190008   1.137   4.324   0.461  0.1297  1.1709  1.0339
25983SOL    HW290009   1.033   4.449   0.477 -1.5019  0.2045 -1.5747
25984SOL     OW90010   0.619   0.407   2.415  0.5254 -0.2625  0.2117
25984SOL    HW190011   0.630   0.329   2.477 -0.7328 -0.5374  0.0956
25984SOL    HW290012   0.693   0.473   2.431  0.6121 -0.6637  1.5070
25985SOL     OW90013   2.963   5.187   0.074  0.3250  0.9309 -0.3010
25985SOL    HW190014   2.897   5.217   0.142  0.7913  2.0476 -0.3298
25985SOL    HW290015   2.938   5.225  -0.016  0.8438  1.1230 -0.3652
25986SOL     OW90016   7.164   0.661   1.368  0.0718  0.2748 -0.5551
25986SOL    HW190017   7.165   0.753   1.406 -1.1275  0.2211 -0.3855
25986SOL    HW290018   7.070   0.629   1.359  0.5142 -1.3031  0.2808
25987SOL     OW90019   1.942   3.204   7.084  0.4204  0.0239  0.2247
25987SOL    HW190020   1.917   3.158   7.169  0.5717 -0.1064  0.1981
25987SOL    HW290021   2.041   3.210   7.076  0.4178 -0.5858 -0.2722
25988SOL     OW90022   7.505   0.200   3.565 -0.1167  0.1051  0.7358
25988SOL    HW190023   7.447   0.130   3.606 -0.6636 -0.5850 -1.1567
25988SOL    HW290024   7.454   0.285   3.557 -1.1353 -0.6692 -1.4981
25989SOL     OW90025   0.093   1.634   2.968  0.2444  0.0203 -0.3717
25989SOL    HW190026   0.151   1.552   2.965 -0.2884 -0.2897 -2.4481
25989SOL    HW290027   0.150   1.714   2.984  1.0051 -0.5175 -0.3468
25990SOL     OW90028   8.635   1.785   4.891  0.2872  0.4692 -0.0788
25990SOL    HW190029   8.580   1.770   4.973  1.1755  0.5215  0.5335
25990SOL    HW290030   8.715   1.724   4.893  0.0954  0.1710 -1.1055
25991SOL     OW90031   2.316   0.476   3.469 -0.5568  0.2429  0.2982
25991SOL    HW190032   2.325   0.573   3.448  2.7708 -0.3892 -1.5466
25991SOL    HW290033   2.346   0.459   3.563  0.5905  0.7775  0.0390
25992SOL     OW90034   5.790   4.704   8.901  0.3580 -0.4547  0.7125
25992SOL    HW190035   5.887   4.716   8.881  0.4910  0.5511  1.8872
25992SOL    HW290036   5.738   4.780   8.862  0.3338  0.2627  2.1300
25993SOL     OW90037   9.242   5.927   8.982 -0.4734 -0.1422  0.1554
25993SOL    HW190038   9.188   6.011   8.977 -0.6986 -0.3141 -0.3377
25993SOL    HW290039   9.188   5.851   8.948 -0.3894 -0.5484  0.9329
25994SOL     OW90040   9.954   4.495   3.807 -0.0436 -0.0816 -0.3094
25994SOL    HW190041   9.890   4.559   3.851  0.3241  0.7833 -1.0087
25994SOL    HW290042   9.984   4.533   3.720  1.5708 -0.3833  0.0956
25995SOL     OW90043   8.898   7.751   9.947  0.1993  0.0215 -0.1201
25995SOL    HW190044   8.872   7.713   9.858  0.3923  1.0718 -0.6437
25995SOL    HW290045   8.857   7.842   9.957 -0.6974 -0.5242  1.3314
25996SOL     OW90046   8.252   4.702   1.458 -0.2142  0.5654 -0.3341
25996SOL    HW190047   8.284   4.621   1.409 -2.6193 -0.6898  0.0966
25996SOL    HW290048   8.322   4.773   1.454  1.5912 -1.2277 -1.4372
25997SOL     OW90049   5.118   8.312   4.185 -0.1908  0.0340 -0.1979
25997SOL    HW190050   5.047   8.242   4.194 -1.5723  1.2423 -1.5365
25997SOL    HW290051   5.151   8.337   4.276  0.3812 -2.3742  0.3053
25998SOL     OW90052   0.734   8.532   5.373  0.3474  0.8205 -0.1223
25998SOL    HW190053   0.762   8.436   5.363 -0.3697  0.5251  0.7301
25998SOL    HW290054   0.639   8.536   5.405  0.1100  1.8178 -0.9377
25999SOL     OW90055   8.912   0.148   4.275  0.6593  0.1407  0.3259
25999SOL    HW190056   8.875   0.068   4.323  3.0916 -0.1183  1.8093
25999SOL    HW290057   8.895   0.230   4.329  1.8024  0.0840  0.7759
26000SOL     OW90058   3.763   5.887   7.389  0.0130 -0.5688  0.1200
26000SOL    HW190059   3.762   5.849   7.297 -0.1956  0.6080 -0.3650
26000SOL    HW290060   3.833   5.959   7.395 -0.7119  0.0988  0.5833
26001SOL     OW90061   7.256   4.097   7.326  0.7103  0.2989  0.4859
26001SOL    HW190062   7.224   4.184   7.289 -1.1590 -0.4448  0.2872
26001SOL    HW290063   7.190   4.064   7.394  0.6773 -1.6318 -0.4558
26002SOL     OW90064   6.845   3.498   2.003 -0.4456 -0.9325  0.1952
26002SOL    HW190065   6.855   3.573   1.937  0.6265 -0.4543  0.8843
26002SOL    HW290066   6.897   3.419   1.971 -0.5044 -0.9388  0.1146
26003SOL     OW90067   9.751   0.053   4.490 -0.2047 -0.3098 -0.0688
26003SOL    HW190068   9.741   0.042   4.589  1.4377 -1.8093 -0.0477
26003SOL    HW290069   9.793   0.141   4.470 -1.8587  0.6297  0.4678
26004SOL     OW90070   4.629   5.326   4.448 -0.0868 -0.0668 -0.3698
26004SOL    HW190071   4.626   5.315   4.349  0.0051 -0.9322 -0.2809
26004SOL    HW290072   4.668   5.415   4.471  0.9770 -0.3324 -1.0995
26005SOL     OW90073   3.873   6.570   9.382  0.3293  0.0083  0.7656
26005SOL    HW190074   3.892   6.581   9.480  2.2380  0.8339  0.3247
26005SOL    HW290075   3.945   6.614   9.329 -2.0928  1.9384 -1.0213
26006SOL     OW90076   9.031   0.837   4.167 -0.1355  0.0388 -0.7100
26006SOL    HW190077   9.071   0.865   4.080  1.5702 -1.2092 -0.3406
26006SOL    HW290078   8.950   0.781   4.149  1.5748 -2.2399 -1.5631
26007SOL     OW90079   4.328   5.838   7.860 -0.2743 -0.2613  0.2563
26007SOL    HW190080   4.328   5.779   7.941 -1.0715 -0.5390  0.0609
26007SOL    HW290081   4.267   5.799   7.791 -0.5541  0.6212  0.0009
26008SOL     OW90082   4.513   8.283   4.515 -0.1842  0.0287  0.3096
26008SOL    HW190083   4.458   8.246   4.441  0.1268  0.2596 -0.0361
26008SOL    HW290084   4.607   8.249   4.507  0.1985  1.1983 -0.2319
26009SOL     OW90085   0.860   6.131   2.382 -0.4224  0.4502  0.3802
26009SOL    HW190086   0.787   6.130   2.451 -0.4098  0.9999  0.4095
26009SOL    HW290087   0.935   6.072   2.411  0.5990  2.4651  1.9624
26010SOL     OW90088   9.330   7.781   5.433  0.3290 -0.0310  0.5848
26010SOL    HW190089   9.337   7.837   5.516  0.1429  0.8179  0.0312
26010SOL    HW290090   9.413   7.727   5.422  0.2452 -0.3551  1.4712
26011SOL     OW90091   1.128   2.657   9.881  0.3221 -0.6226  0.0859
26011SOL    HW190092   1.055   2.706   9.928 -0.2546 -0.0133 -1.4555
26011SOL    HW290093   1.216   2.699   9.904 -0.0836  0.5360 -0.4544
26012SOL     OW90094   2.323   8.937   4.697 -0.1783  0.1624  0.2274
26012SOL    HW190095   2.361   8.984   4.777 -1.0561 -0.2899  0.9172
26012SOL    HW290096   2.236   8.893   4.722 -1.0682  1.0341 -1.2899
26013SOL     OW90097   3.792   8.225   8.444 -0.1032  0.1133  0.0229
26013SOL    HW190098   3.857   8.291   8.480  1.6120 -0.8775 -1.1742
26013SOL    HW290099   3.825   8.190   8.356 -2.0795 -0.6657 -0.4419
26014SOL     OW90100   1.648   9.776   0.408  0.6575  0.1422 -0.1372
26014SOL    HW190101   1.716   9.849   0.410  1.3784 -0.3206 -4.2373
26014SOL    HW290102   1.571   9.802   0.351 -0.8636 -0.8639  1.3880
26015SOL     OW90103   1.127   2.995   4.256 -0.2014  0.0973 -0.2533
26015SOL    HW190104   1.126   2.946   4.169 -2.0583 -1.3260  0.5231
26015SOL    HW290105   1.043   3.049   4.265  0.0508  0.3637  0.5897
26016SOL     OW90106   0.829   7.005   1.879  0.3237 -0.3099 -0.6726
26016SOL    HW190107   0.772   7.022   1.959  0.6695  1.5152 -0.7930
26016SOL    HW290108   0.925   7.020   1.902  0.5304 -0.9359 -1.1166
26017SOL     OW90109   0.093   7.285   6.506  0.0308  0.4657  0.0425
26017SOL    HW190110   0.158   7.347   6.462 -0.2538 -0.5652 -1.8558
26017SOL    HW290111   0.083   7.311   6.602  1.8188  1.7998 -0.1012
26018SOL     OW90112   1.628   0.139   6.776 -0.0117  0.2798 -0.1301
26018SOL    HW190113   1.582   0.223   6.749 -0.3325 -0.0256 -0.5390
26018SOL    HW290114   1.573   0.060   6.748  0.1210 -0.0587  0.5489
26019SOL     OW90115   7.055   5.455   1.702 -0.4379 -0.1771 -0.2100
26019SOL    HW190116   7.053   5.365   1.746  1.3120 -0.2023 -0.1600
26019SOL    HW290117   6.970   5.469   1.652 -1.8023 -0.8161  1.8412
26020SOL     OW90118   1.539   8.410   0.470 -0.0858  0.6470  1.1361
26020SOL    HW190119   1.496   8.325   0.501 -0.9541  1.8226  3.1772
26020SOL    HW290120   1.638   8.395   0.461 -0.3756 -0.9085  0.3262
26021SOL     OW90121   4.153   0.893   8.198 -0.5214  0.4780  0.5172
26021SOL    HW190122   4.104   0.808   8.215  0.9461 -0.1876  1.5355
26021SOL    HW290123   4.136   0.924   8.105 -0.2020 -1.5111 -0.2059
26022SOL     OW90124   7.820   1.188   5.450  0.7395  0.3115  0.3081
26022SOL    HW190125   7.805   1.166   5.354  3.1577  1.7985 -0.4462
26022SOL    HW290126   7.757   1.259   5.479 -0.2719 -0.4334 -0.0491
26023SOL     OW90127   9.100   0.824   6.954 -0.1005  0.0619  0.1225
26023SOL    HW190128   9.070   0.810   6.859 -2.0536  1.0325  0.5819
26023SOL    HW290129   9.020   0.834   7.013  1.1155 -0.0003  1.8008
26024SOL     OW90130   6.961   4.883   2.522  0.1870 -0.4612  0.1295
26024SOL    HW190131   6.952   4.858   2.618 -1.6417 -0.7187 -0.0976
26024SOL    HW290132   7.019   4.965   2.514 -1.5305  0.9279  1.6341
26025SOL     OW90133   1.235   6.843   6.346 -0.7754 -0.2661  0.4276
26025SOL    HW190134   1.188   6.768   6.300  1.2809 -1.9132  0.9860
26025SOL    HW290135   1.244   6.823   6.443 -0.5035  0.8520  0.6439
26026SOL     OW90136   7.134   7.379   6.530  0.4614 -0.2278 -0.3395
26026SOL    HW190137   7.058   7.412   6.473 -0.5483 -2.0446 -0.0940
26026SOL    HW290138   7.219   7.382   6.477  0.0124  0.6766 -1.0333
26027SOL     OW90139   7.771   4.275   9.088 -0.4367  0.3283 -0.4472
26027SOL    HW190140   7.757   4.203   9.156 -2.2053  1.7371  0.7572
26027SOL    HW290141   7.746   4.241   8.997 -3.4236  0.0528  0.4202
26028SOL     OW90142   0.165   2.776   1.587 -0.4047  0.1684 -0.1980
26028SOL    HW190143   0.211   2.834   1.520 -1.3229  1.6391  0.4154
26028SOL    HW290144   0.232   2.721   1.636  0.1811 -2.1032 -3.3594
26029SOL     OW90145   1.122   9.186   6.537  0.1944  0.3078 -0.0346
26029SOL    HW190146   1.174   9.132   6.604  2.7517  1.1623 -1.2590
26029SOL    HW290147   1.044   9.133   6.505  0.4337 -1.1357  1.6733
26030SOL     OW90148   1.335   6.662   2.622 -0.6834 -0.2422  0.1489
26030SOL    HW190149   1.260   6.717   2.584 -1.6767 -1.6477  0.0697
26030SOL    HW290150   1.422   6.704   2.595 -1.4126  0.9880 -0.3847
26031SOL     OW90151   5.460   1.975   5.231 -0.1415 -0.0313  0.5526
26031SOL    HW190152   5.453   1.993   5.133  0.5970  0.1053  0.5182
26031SOL    HW290153   5.462   1.876   5.247  1.4976 -0.0616  0.2791
26032SOL     OW90154   3.886   1.916   3.192  0.4084  0.5315 -0.2538
26032SOL    HW190155   3.830   1.835   3.212  0.9003  0.4707  0.9416
26032SOL    HW290156   3.826   1.995   3.180 -0.0528  0.0639 -1.0569
26033SOL     OW90157   7.684   6.316   4.552 -0.2246  0.1133 -0.4406
26033SOL    HW190158   7.607   6.301   4.614  1.4579 -0.8063  1.5246
26033SOL    HW290159   7.707   6.230   4.506  0.7402 -0.0721  0.3585
26034SOL     OW90160   9.689   1.124   4.417 -0.2553  0.0369  0.2404
26034SOL    HW190161   9.720   1.175   4.337  0.3926  0.6444  0.8782
26034SOL    HW290162   9.742   1.039   4.424  0.0756  0.2497  0.3404
26035SOL     OW90163   9.045   0.949   5.774  0.0858 -0.0038 -1.1721
26035SOL    HW190164   8.953   0.935   5.737  0.2032 -0.9048 -1.1158
26035SOL    HW290165   9.110   0.888   5.728  0.1440 -1.5280  0.9094
26036SOL     OW90166   1.100   8.595   2.972 -0.1750 -0.0241 -0.4755
26036SOL    HW190167   1.063   8.583   3.063  1.9562  1.9908  0.7134
26036SOL    HW290168   1.055   8.673   2.928 -0.2139 -0.1252 -0.6159
26037SOL     OW90169   0.712   7.838   9.344 -0.4889  0.6767  0.8002
26037SOL    HW190170   0.781   7.812   9.412  0.3261  0.8174  0.0295
26037SOL    HW290171   0.736   7.927   9.305  0.1927 -0.3820 -1.2076
26038SOL     OW90172   9.519   6.343   7.998 -0.8517 -0.0025  0.3571
26038SOL    HW190173   9.585   6.290   7.945 -0.7194 -0.5507  1.0608
26038SOL    HW290174   9.439   6.287   8.017  0.0239 -0.5427  2.5802
26039SOL     OW90175   2.144   2.638   0.515  0.0394  0.0929 -0.0607
26039SOL    HW190176   2.097   2.551   0.500  0.8866 -0.9014  2.8372
26039SOL    HW290177   2.076   2.712   0.523 -0.9565 -0.9938  1.8849
26040SOL     OW90178   9.600   8.864   0.372  0.0449 -0.2929  0.0807
26040SOL    HW190179   9.683   8.885   0.424 -0.5301  0.0552  0.8601
26040SOL    HW290180   9.575   8.942   0.315 -0.6322  0.2012  1.0363
26041SOL     OW90181   4.296   5.189   2.004  0.4627 -0.0557  0.1121
26041SOL    HW190182   4.328   5.144   1.921  1.8134  0.1207  0.5322
26041SOL    HW290183   4.219   5.137   2.042  0.8781 -1.0323 -0.3552
26042SOL     OW90184   9.834   3.923   4.226 -1.0335 -0.3167 -0.0983
26042SOL    HW190185   9.740   3.891   4.239 -1.3816 -0.0338 -1.7980
26042SOL    HW290186   9.836   4.023   4.232 -0.8216 -0.3331  0.0856
26043SOL     OW90187   9.784   6.776   2.733  0.1016  0.1178  0.1334
26043SOL    HW190188   9.821   6.801   2.643  1.4754  1.2950  1.0248
26043SOL    HW290189   9.811   6.683   2.755  2.9050  1.0960  0.9513
26044SOL     OW90190   7.450   2.885   8.312 -0.6731 -0.4427 -0.3145
26044SOL    HW190191   7.363   2.907   8.268  0.2019  1.3975 -1.1581
26044SOL    HW290192   7.521   2.948   8.280  0.9132 -1.7306  0.5873
26045SOL     OW90193   5.866   9.895   8.029  0.3279  0.5687 -0.1321
26045SOL    HW190194   5.833   9.808   7.992  0.9319  0.3282 -0.1199
26045SOL    HW290195   5.908   9.949   7.956  1.5248  0.0907  0.1888
26046SOL     OW90196   4.662   1.986   0.100  0.0403 -0.0100  0.4039
26046SOL    HW190197   4.750   1.949   0.130  2.0762  2.7219 -1.9370
26046SOL    HW290198   4.633   2.057   0.164 -0.2570 -0.5611  0.8942
26047SOL     OW90199   1.082   4.422   8.543  0.2630  0.6193 -0.0819
26047SOL    HW190200   1.132   4.508   8.555 -0.3235  0.7612  1.4345
26047SOL    HW290201   1.147   4.347   8.532  0.7990  1.0339  0.2419
26048SOL     OW90202   9.418   1.806   5.706 -0.1069  0.2292 -0.2980
26048SOL    HW190203   9.337   1.747   5.699 -0.3273  0.3055  1.5599
26048SOL    HW290204   9.480   1.786   5.630 -2.1431  0.5829 -2.0973
26049SOL     OW90205   0.900   8.444   4.675  0.0557  0.1318 -0.9106
26049SOL    HW190206   0.979   8.478   4.624 -0.2081  0.7678 -0.8913
26049SOL    HW290207   0.876   8.509   4.747 -0.1368 -0.3298 -0.5553
26050SOL     OW90208   2.215   4.223   5.753  0.3896 -0.1217 -0.1321
26050SOL    HW190209   2.184   4.169   5.831  1.9217 -0.0874  0.5124
26050SOL    HW290210   2.236   4.162   5.676 -0.9956 -0.1639 -0.4919
26051SOL     OW90211   3.656   5.385   0.522  0.2039  0.6230 -0.1741
26051SOL    HW190212   3.556   5.396   0.526  0.2483  0.4939  1.7239
26051SOL    HW290213   3.700   5.455   0.577  1.0189 -1.0674  1.3995
26052SOL     OW90214   9.863   6.206   1.013  0.2054  0.2967 -0.1729
26052SOL    HW190215   9.837   6.201   0.916 -1.6161 -1.9514  0.3967
26052SOL    HW290216   9.798   6.264   1.062 -0.4090 -0.7108  0.1991
26053SOL     OW90217   9.647   0.917   8.191 -0.2350  0.8180 -0.1208
26053SOL    HW190218   9.644   0.841   8.126 -0.9993  0.0257  0.8269
26053SOL    HW290219   9.618   1.001   8.145 -0.6487  0.2875 -0.8474
26054SOL     OW90220   1.826   3.124   8.046 -0.6993  0.2769 -0.3312
26054SOL    HW190221   1.764   3.056   8.008  0.5084  0.3735 -2.5757
26054SOL    HW290222   1.783   3.215   8.040 -1.8122 -0.0923  1.5535
26055SOL     OW90223   9.335   0.112   7.449  0.8331  0.0381 -0.6280
26055SOL    HW190224   9.421   0.144   7.410  0.9218  0.1876 -0.3114
26055SOL    HW290225   9.261   0.128   7.383  0.5083  3.0139  0.3865
26056SOL     OW90226   8.372   2.473   5.097  0.0022 -0.1373  0.0345
26056SOL    HW190227   8.384   2.373   5.099  0.8001 -0.0300  0.8747
26056SOL    HW290228   8.440   2.516   5.156  0.0437  0.9503 -0.7868
26057SOL     OW90229   4.716   0.775   5.742  0.1812 -0.6832 -0.1258
26057SOL    HW190230   4.639   0.839   5.740 -0.6499 -1.6480  0.2030
26057SOL    HW290231   4.778   0.795   5.666 -0.4596  0.0252 -0.4719
26058SOL     OW90232   5.733   8.992   6.450  0.1313  0.0571 -0.0363
26058SOL    HW190233   5.819   8.998   6.503 -0.1071  1.5517  0.2052
26058SOL    HW290234   5.691   8.903   6.466  2.1895 -1.1459 -1.0195
26059SOL     OW90235   8.573   1.943   6.038 -0.2286 -0.1059  0.1516
26059SOL    HW190236   8.567   1.852   5.996  0.6284  0.0894 -0.3953
26059SOL    HW290237   8.651   1.993   6.000 -0.8104  0.9375  0.3048
26060SOL     OW90238   4.188   0.102   5.314 -0.1996 -0.7137  0.3518
26060SOL    HW190239   4.205   0.118   5.217 -0.7382  0.6523  0.4630
26060SOL    HW290240   4.257   0.040   5.351  0.3678 -0.7512 -0.7605
26061SOL     OW90241   7.369   2.221   3.367 -0.0279 -0.1860 -0.5335
26061SOL    HW190242   7.340   2.125   3.357  0.6058 -0.2764 -1.5864
26061SOL    HW290243   7.437   2.227   3.441 -2.8695  0.0761  2.1688
26062SOL     OW90244   4.127   4.828   6.294  0.5377 -0.2148  0.1133
26062SOL    HW190245   4.189   4.763   6.251  0.3377 -1.8350  2.2003
26062SOL    HW290246   4.035   4.815   6.257  0.6373 -0.6044  0.0029
26063SOL     OW90247   3.853   2.667   3.011  0.2305  0.3100  0.0205
26063SOL    HW190248   3.849   2.631   3.105 -1.9356  0.0206 -0.1488
26063SOL    HW290249   3.789   2.616   2.954  1.3294  0.6839 -1.5688
26064SOL     OW90250   0.284   3.278   7.346  0.2893  0.4446  0.3692
26064SOL    HW190251   0.339   3.199   7.372  0.0419 -0.2777 -1.2659
26064SOL    HW290252   0.187   3.257   7.362  0.3162  0.9565  1.2754
26065SOL     OW90253   7.270   0.720   1.856  0.7951 -0.5227  0.1828
26065SOL    HW190254   7.184   0.693   1.813  0.2251 -0.7366  1.4215
26065SOL    HW290255   7.290   0.815   1.834  0.5531 -0.6571 -0.6202
26066SOL     OW90256   4.844   2.549   4.989 -0.0592  0.4044  0.0028
26066SOL    HW190257   4.766   2.506   4.944 -0.0730 -0.0178  0.4324
26066SOL    HW290258   4.812   2.606   5.064 -0.1318  2.0690 -1.2571
26067SOL     OW90259   1.938   2.213   7.056 -0.0457 -0.3541 -0.1373
26067SOL    HW190260   1.903   2.278   7.124  1.9148  1.0679 -0.4665
26067SOL    HW290261   1.891   2.229   6.969  0.6101  0.8017 -0.2857
26068SOL     OW90262   1.484   1.450   3.353 -0.6594  0.2855  0.0761
26068SOL    HW190263   1.521   1.543   3.353  1.7740 -0.6442  0.6034
26068SOL    HW290264   1.407   1.445   3.289  1.0233  1.9469 -2.1701
26069SOL     OW90265   4.572   3.727   6.707  0.0059  0.0872 -0.4022
26069SOL    HW190266   4.517   3.702   6.627  3.0253 -0.5299 -2.3703
26069SOL    HW290267   4.556   3.662   6.781 -2.2573  0.2100 -0.7605
26070SOL     OW90268   1.821   7.303   7.867 -0.5188  0.8297 -0.3483
26070SOL    HW190269   1.727   7.294   7.899 -0.5608  0.0202 -0.6856
26070SOL    HW290270   1.824   7.364   7.788 -1.0294 -0.6100 -1.4976
26071SOL     OW90271   7.155   8.037   2.295 -0.3538  0.6414  0.1928
26071SOL    HW190272   7.061   8.061   2.271  0.2042  2.3516 -0.3318
26071SOL    HW290273   7.203   8.006   2.213 -0.8084 -1.4780  0.6987
26072SOL     OW90274   2.336   6.636   9.303  0.4863 -0.5045  0.1714
26072SOL    HW190275   2.275   6.635   9.224  1.0375  2.5261 -0.3447
26072SOL    HW290276   2.287   6.668   9.384  0.5931 -1.1317  0.4942
26073SOL     OW90277   9.811   3.732   9.362 -0.0587  0.2328 -0.1732
26073SOL    HW190278   9.856   3.793   9.297 -0.4294  0.5558 -0.1301
26073SOL    HW290279   9.859   3.734   9.449  0.0668  0.2839 -0.2448
26074SOL     OW90280   5.098   9.624   6.686  0.0076  0.0395  0.3608
26074SOL    HW190281   5.167   9.670   6.630  0.5952 -0.0962  0.9678
26074SOL    HW290282   5.113   9.525   6.684 -0.1289  0.0142  0.5485
26075SOL     OW90283   1.509   7.513   1.852 -0.2263 -0.0222 -0.4189
26075SOL    HW190284   1.411   7.527   1.837  0.3214  3.7657 -0.9497
26075SOL    HW290285   1.523   7.427   1.901 -3.6921 -1.3013 -1.4863
26076SOL     OW90286   1.014   3.328   3.398 -0.1168 -0.1274 -0.3298
26076SOL    HW190287   1.101   3.290   3.368 -0.0897 -0.9354  0.7490
26076SOL    HW290288   0.945   3.315   3.326  0.8784  1.4108 -1.5888
26077SOL     OW90289   3.301   7.962   0.765  0.2191  0.0352 -0.2200
26077SOL    HW190290   3.288   7.924   0.857 -1.1107 -3.0121 -1.6141
26077SOL    HW290291   3.394   7.996   0.756  0.6970 -0.6513  1.9198
26078SOL     OW90292   2.026   7.890   4.597  0.1002 -0.2197  0.1232
26078SOL    HW190293   2.031   7.974   4.543  2.0072 -0.8636 -0.7380
26078SOL    HW290294   2.028   7.810   4.537  0.5091 -0.9151  1.0355
26079SOL     OW90295   3.472   2.882   5.337 -0.2445  0.2563  0.2281
26079SOL    HW190296   3.473   2.812   5.408 -1.7109  0.5020  0.5117
26079SOL    HW290297   3.460   2.839   5.248  1.0008 -0.0063  0.1769
26080SOL     OW90298   8.673   1.285   9.728  0.1769  0.1753  0.4162
26080SOL    HW190299   8.689   1.351   9.802 -1.0213 -1.8479  2.5457
26080SOL    HW290300   8.691   1.329   9.640  1.9735  2.5510  1.8943
26081SOL     OW90301   9.194   5.665   0.722 -0.0960 -0.5242 -0.5556
26081SOL    HW190302   9.238   5.686   0.809  1.5786  0.7742 -1.6874
26081SOL    HW290303   9.193   5.566   0.708  1.2921 -0.6289  0.0781
26082SOL     OW90304   1.874   9.837   0.109  0.3573  0.0081  0.2608
26082SOL    HW190305   1.897   9.740   0.114  1.0739  0.2505  2.1038
26082SOL    HW290306   1.927   9.880   0.036  2.4216 -0.3485  1.5309
26083SOL     OW90307   0.806   9.627   5.528 -0.0945 -0.0785  0.3868
26083SOL    HW190308   0.832   9.724   5.530  0.9131 -0.3365  0.2442
26083SOL    HW290309   0.887   9.572   5.508 -0.9074 -0.8642 -0.7422
26084SOL     OW90310   1.361   5.087   4.291 -0.2642  0.5953  0.4864
26084SOL    HW190311   1.399   5.033   4.367 -1.3356  1.0856  1.3739
26084SOL    HW290312   1.370   5.184   4.312  0.5309  0.7580 -0.5621
26085SOL     OW90313   4.376   9.092   1.471 -0.1890 -0.3316  0.5622
26085SOL    HW190314   4.356   9.046   1.385 -1.0530  0.1859  0.4811
26085SOL    HW290315   4.398   9.025   1.541 -0.5406 -0.8079  0.2152
26086SOL     OW90316   5.989   2.880   9.754  0.2256  0.0359  0.2247
26086SOL    HW190317   5.910   2.904   9.698  0.1257  1.2471  0.8833
26086SOL    HW290318   6.065   2.942   9.733  1.1450 -1.3555 -0.6892
26087SOL     OW90319   1.604   2.586   5.125 -0.0869 -0.2801 -0.3177
26087SOL    HW190320   1.672   2.657   5.108  0.1942 -0.9527 -2.0415
26087SOL    HW290321   1.514   2.616   5.093  0.1072 -0.8399 -1.4179
26088SOL     OW90322   4.576   9.823   4.954  0.1217  0.4609 -0.4331
26088SOL    HW190323   4.549   9.906   4.904  0.8311  0.9528 -0.0136
26088SOL    HW290324   4.626   9.762   4.893 -2.1252 -0.5897 -1.3018
26089SOL     OW90325   8.252   2.251   2.922 -0.4571  0.1091 -0.1956
26089SOL    HW190326   8.275   2.279   2.829  1.0855 -1.0645 -0.1780
26089SOL    HW290327   8.153   2.255   2.934 -0.5347  2.0940 -1.2918
26090SOL     OW90328   4.256   8.765   8.026 -0.1364  0.4346 -0.5929
26090SOL    HW190329   4.260   8.861   7.996  3.3926  0.7846  0.7319
26090SOL    HW290330   4.281   8.705   7.951  1.9964  0.8659 -0.2471
26091SOL     OW90331   6.666   0.301   1.744  0.5278 -0.5338 -0.2822
26091SOL    HW190332   6.613   0.373   1.788  0.9191 -2.7634  4.1480
26091SOL    HW290333   6.604   0.237   1.699 -0.1203  0.0364 -0.2048
26092SOL     OW90334   0.317   8.917   1.279  0.0529  0.2025  0.3002
26092SOL    HW190335   0.374   8.836   1.267  0.0311  0.1504  0.5444
26092SOL    HW290336   0.341   8.986   1.210  1.4819  0.7923  1.3779
26093SOL     OW90337   7.033   0.584   4.611 -0.1462 -0.5423  0.4848
26093SOL    HW190338   7.053   0.544   4.521 -1.0741  2.8911 -1.3295
26093SOL    HW290339   6.933   0.586   4.624 -0.0125 -1.0708  1.6350
26094SOL     OW90340   3.111   4.611   3.546  0.3675  0.5305  0.2303
26094SOL    HW190341   3.136   4.522   3.583  0.0919 -1.0665 -3.2831
26094SOL    HW290342   3.194   4.661   3.518  0.4357  0.8650  1.0129
26095SOL     OW90343   1.067   2.898   0.627  0.4792  0.3117 -0.4823
26095SOL    HW190344   0.979   2.862   0.596 -0.1640  0.5036  1.0990
26095SOL    HW290345   1.140   2.837   0.597 -0.3290 -0.7144 -0.3973
26096SOL     OW90346   6.993   1.778   1.340 -0.8641  0.2366  0.8858
26096SOL    HW190347   6.966   1.874   1.334 -1.1358  0.1849  1.2605
26096SOL    HW290348   6.961   1.740   1.427 -0.4365 -0.0924  0.9006
26097SOL     OW90349   9.525   3.734   1.712  0.4981 -0.3106 -0.3149
26097SOL    HW190350   9.539   3.636   1.725  3.1369 -0.0790 -1.0851
26097SOL    HW290351   9.448   3.764   1.768 -1.4466 -3.1070 -1.3754
26098SOL     OW90352   1.549   5.217   5.505 -0.3551 -0.1105  0.5173
26098SOL    HW190353   1.513   5.305   5.474 -0.4905 -0.3064  0.1195
26098SOL    HW290354   1.506   5.143   5.453 -1.0945 -0.4855  1.6361
26099SOL     OW90355   2.740   3.934   4.074 -0.1113  0.3683 -0.0251
26099SOL    HW190356   2.665   3.893   4.125 -0.8276 -0.0185 -1.3700
26099SOL    HW290357   2.808   3.971   4.138 -0.3251 -1.3049  1.2086
26100SOL     OW90358   1.165   1.648   4.333  0.2109 -0.0667 -0.2393
26100SOL    HW190359   1.121   1.724   4.381 -0.4110 -0.5817  0.0141
26100SOL    HW290360   1.115   1.563   4.352 -0.4602 -0.1731 -2.3146
26101SOL     OW90361   4.381   6.558   9.268  0.0944  0.2821  0.2663
26101SOL    HW190362   4.328   6.473   9.267 -1.0048  0.8648  3.0555
26101SOL    HW290363   4.478   6.536   9.284 -0.0046 -0.5179 -0.2058
26102SOL     OW90364   3.894   3.371   3.571 -0.0612  0.2157  0.1511
26102SOL    HW190365   3.913   3.382   3.669 -0.2119  0.9091  0.1084
26102SOL    HW290366   3.833   3.293   3.558  0.0275  0.0655  0.6026
26103SOL     OW90367   6.545   1.659   4.975 -0.0000 -0.3038 -0.0017
26103SOL    HW190368   6.593   1.621   4.896 -0.0509  0.4105 -0.3819
26103SOL    HW290369   6.558   1.599   5.054  3.0600  0.7786  0.3947
26104SOL     OW90370   0.447   8.685   6.306 -0.2707 -0.1269  0.7722
26104SOL    HW190371   0.494   8.657   6.222 -0.2651  0.3753  0.6097
26104SOL    HW290372   0.515   8.699   6.379 -0.4223 -2.4236  1.4042
26105SOL     OW90373   8.211   3.153   1.416 -0.8918  0.0689 -0.6242
26105SOL    HW190374   8.241   3.198   1.332 -1.0842  0.1832 -0.6316
26105SOL    HW290375   8.136   3.090   1.395 -0.7838 -0.0758 -0.5757
26106SOL     OW90376   7.364   5.458   3.439 -0.0543 -0.0521 -0.1290
26106SOL    HW190377   7.273   5.448   3.398 -0.0349 -0.4164 -0.0834
26106SOL    HW290378   7.366   5.541   3.495 -0.7800 -0.7663  0.9780
26107SOL     OW90379   7.449   4.587   7.218  0.3607 -0.0182 -0.0589
26107SOL    HW190380   7.504   4.516   7.173 -0.3959 -1.7727  1.7045
26107SOL    HW290381   7.358   4.589   7.177 -0.2136 -1.3735  1.0938
26108SOL     OW90382   1.625   5.249   0.500 -0.5636 -0.1025 -0.2647
26108SOL    HW190383   1.684   5.319   0.462  2.0843 -2.4911 -0.6957
26108SOL    HW290384   1.630   5.166   0.444 -0.1792 -2.1324  2.6463
26109SOL     OW90385   8.974   4.109   8.669 -0.3601 -0.2422 -0.6897
26109SOL    HW190386   8.937   4.172   8.601 -1.4512 -0.4758 -0.3362
26109SOL    HW290387   8.916   4.027   8.673 -0.8181  0.1397  1.0897
26110SOL     OW90388   6.246   8.795   4.805 -0.0145  0.1807 -0.2190
26110SOL    HW190389   6.273   8.808   4.710 -1.5733  0.7437 -0.5917
26110SOL    HW290390   6.307   8.847   4.865 -0.2853  1.4762 -1.0546
26111SOL     OW90391   8.717   9.674   8.314 -0.1111 -0.0404  0.3828
26111SOL    HW190392   8.741   9.730   8.393  1.1595 -2.0980  1.4852
26111SOL    HW290393   8.630   9.627   8.331  0.0721 -0.3429  0.4809
26112SOL     OW90394   1.167   0.477   3.522  0.4854  0.0534 -0.4608
26112SOL    HW190395   1.178   0.508   3.427  0.2609 -0.9314 -0.8164
26112SOL    HW290396   1.110   0.542   3.571 -0.4340 -0.0729 -1.3406
26113SOL     OW90397   0.225   8.532   6.385 -0.7268 -0.4965  0.1902
26113SOL    HW190398   0.224   8.458   6.318 -1.2132  0.2683 -0.6578
26113SOL    HW290399   0.308   8.587   6.373 -0.0940 -1.2193  1.1790
26114SOL     OW90400   5.817   8.657   3.268  0.0341 -0.0301  0.1836
26114SOL    HW190401   5.841   8.727   3.336  0.5444 -1.0148  1.0197
26114SOL    HW290402   5.855   8.569   3.295 -1.4833 -0.8630 -0.3315
26115SOL     OW90403   4.233   9.633   8.044  0.3870  0.0709 -0.0554
26115SOL    HW190404   4.151   9.628   8.101  0.5307 -0.2955  0.1214
26115SOL    HW290405   4.218   9.697   7.969 -0.5466 -1.0401 -0.8165
26116SOL     OW90406   6.626   1.377   1.814 -0.0814 -0.0693 -0.5418
26116SOL    HW190407   6.597   1.467   1.848  0.0043 -0.6900  1.2240
26116SOL    HW290408   6.547   1.330   1.775 -1.4217 -1.4291  3.5240
26117SOL     OW90409   5.738   9.985   6.148 -0.1739  0.2752  0.0896
26117SOL    HW190410   5.784  10.073   6.138 -0.9702  0.7007  0.1014
26117SOL    HW290411   5.670   9.991   6.221  0.3158 -0.5840  0.6146
26118SOL     OW90412   8.543   1.508   7.316  0.1454  0.4371 -0.5988
26118SOL    HW190413   8.632   1.544   7.290  0.6690 -0.4397 -0.0448
26118SOL    HW290414   8.540   1.410   7.298 -1.3713  0.7784 -2.3686
26119SOL     OW90415   8.308   7.590   2.672  0.3199 -0.1008 -0.1616
26119SOL    HW190416   8.317   7.501   2.628 -2.0508 -0.5937  0.2993
26119SOL    HW290417   8.333   7.662   2.607  2.2509 -1.0658 -0.5328
26120SOL     OW90418   1.560   8.799   3.751 -0.4593 -0.5957 -0.2468
26120SOL    HW190419   1.545   8.898   3.751  0.1926 -0.4888 -1.1362
26120SOL    HW290420   1.658   8.780   3.752 -0.5816 -1.2296 -0.0971
26121SOL     OW90421   3.309   0.022   6.577  0.5172 -0.2740 -0.0508
26121SOL    HW190422   3.386  -0.036   6.604  0.7676 -0.1275 -0.4403
26121SOL    HW290423   3.295   0.015   6.479  2.7120  2.8679 -0.6698
26122SOL     OW90424   8.786   5.764   0.311 -0.2937 -0.1476 -0.7621
26122SOL    HW190425   8.757   5.855   0.280 -1.4720  0.1154  1.0483
26122SOL    HW290426   8.883   5.767   0.336 -0.2022  0.4790 -1.1832
26123SOL     OW90427   7.062   0.750   3.687 -0.4059 -0.2795  0.3974
26123SOL    HW190428   7.041   0.844   3.712  0.2059 -0.4770  1.6948
26123SOL    HW290429   7.157   0.744   3.655  0.1026 -0.7539  1.9707
26124SOL     OW90430   7.791   6.489   3.694 -0.3078  0.6039  0.5106
26124SOL    HW190431   7.876   6.459   3.651 -0.9686  1.3749 -1.3872
26124SOL    HW290432   7.746   6.412   3.739 -0.8437 -0.7955 -2.3387
26125SOL     OW90433   1.598   4.513   7.692 -0.3814  0.0649  0.1947
26125SOL    HW190434   1.511   4.551   7.720 -0.2237  0.2908  0.3773
26125SOL    HW290435   1.671   4.580   7.708 -0.0981 -0.3242  0.5596
26126SOL     OW90436   1.412   4.668   5.708 -0.3201 -0.1725  0.0346
26126SOL    HW190437   1.334   4.647   5.649  1.7139 -0.4660 -2.6180
26126SOL    HW290438   1.448   4.758   5.685  0.7127 -0.4279  0.6276
26127SOL     OW90439   5.121   9.138   5.549  0.7696 -0.8490  0.0615
26127SOL    HW190440   5.095   9.063   5.610 -0.2308 -0.3909  0.1987
26127SOL    HW290441   5.136   9.221   5.604 -0.6816 -0.2950 -0.3830
26128SOL     OW90442   1.684   7.774   4.981 -0.3684 -0.0539 -0.7888
26128SOL    HW190443   1.607   7.711   4.996 -0.4911  0.2914  0.0308
26128SOL    HW290444   1.708   7.773   4.884  1.1349 -3.1084 -0.4478
26129SOL     OW90445   5.309   5.258   1.971 -0.7477 -0.2023  0.3133
26129SOL    HW190446   5.253   5.177   1.991 -0.0183 -1.0792 -1.1304
26129SOL    HW290447   5.254   5.326   1.924 -0.9609 -0.5026  0.1287
26130SOL     OW90448   1.963   2.321   6.193  0.2256  0.0988  0.0091
26130SOL    HW190449   1.954   2.407   6.142 -0.1519 -0.0756 -0.2207
26130SOL    HW290450   2.003   2.251   6.134  1.2027  0.3065  0.4078
26131SOL     OW90451   6.938   0.159   7.616  0.6947 -0.3649 -0.0675
26131SOL    HW190452   6.982   0.194   7.532 -0.1285  1.6595  0.3209
26131SOL    HW290453   6.841   0.179   7.613  0.5012 -1.1457  0.9651
26132SOL     OW90454   4.625   7.891   2.751  0.0397  0.6117 -0.2516
26132SOL    HW190455   4.721   7.876   2.777 -0.2941 -3.1266 -0.8756
26132SOL    HW290456   4.622   7.924   2.657  0.7060  0.2308 -0.4149
26133SOL     OW90457   5.849   8.025   5.216 -0.1730 -0.1061  0.0067
26133SOL    HW190458   5.839   8.120   5.245  3.3540  0.3038  0.1429
26133SOL    HW290459   5.887   8.022   5.124  2.7601 -1.3088  1.1844
26134SOL     OW90460   0.771   7.597   9.830 -0.1052 -0.2547 -0.0499
26134SOL    HW190461   0.733   7.663   9.895 -0.5845  1.4430 -2.0114
26134SOL    HW290462   0.870   7.612   9.822 -0.2745  0.4954 -0.7824
26135SOL     OW90463   4.091   1.113   9.274 -0.7833 -0.2715  0.0805
26135SOL    HW190464   4.101   1.053   9.194 -0.9262  0.2694 -0.3489
26135SOL    HW290465   4.015   1.081   9.331 -0.8854 -0.4725 -0.1671
26136SOL     OW90466   7.880   9.204   3.027 -0.3086 -0.0452 -0.1363
26136SOL    HW190467   7.925   9.191   3.115 -0.6181  1.0927  0.2025
26136SOL    HW290468   7.783   9.180   3.035 -0.3314  0.0355 -0.1627
26137SOL     OW90469   6.292   0.564   1.061 -0.0775 -0.1600 -0.6786
26137SOL    HW190470   6.259   0.469   1.061  1.4938 -0.7305 -1.6905
26137SOL    HW290471   6.285   0.601   1.154  0.0616 -1.5610 -0.0802
26138SOL     OW90472   8.733   6.832   8.753  0.3994 -0.3621 -0.1795
26138SOL    HW190473   8.781   6.874   8.831 -1.0792 -1.0868  1.1483
26138SOL    HW290474   8.784   6.851   8.669  2.6149 -0.4808  1.0842
26139SOL     OW90475   4.575   3.475   0.459  0.1966 -0.1979  0.1976
26139SOL    HW190476   4.573   3.431   0.549  0.6511 -0.6347 -0.0029
26139SOL    HW290477   4.567   3.574   0.471  1.6002 -0.1380  0.8304
26140SOL     OW90478   7.352   1.357   4.686 -0.3038 -0.0274  0.3299
26140SOL    HW190479   7.254   1.361   4.664 -0.5493 -0.1568  1.3691
26140SOL    HW290480   7.405   1.343   4.602 -1.1681  0.1931 -0.2552
26141SOL     OW90481   1.437   2.481   8.605  0.2385  0.5400  0.7530
26141SOL    HW190482   1.535   2.496   8.605  0.5362 -0.9376 -2.5217
26141SOL    HW290483   1.416   2.397   8.655  0.7364  0.3713  0.6767
26142SOL     OW90484   8.235   0.044  10.073  0.0637 -0.2793 -0.0036
26142SOL    HW190485   8.237  -0.004  10.161  0.9842  0.6155  0.4759
26142SOL    HW290486   8.142   0.072  10.052  0.0997  1.1169  1.5884
26143SOL     OW90487   7.135   5.870   9.399 -0.1818  0.5974 -0.1768
26143SOL    HW190488   7.214   5.914   9.441  1.1167 -1.4680 -0.3906
26143SOL    HW290489   7.129   5.898   9.303  1.3225 -0.5146 -0.6280
26144SOL     OW90490   4.548   4.579   2.878 -0.4551 -0.8202  0.9410
26144SOL    HW190491   4.470   4.519   2.893 -0.7395 -0.7685 -0.3054
26144SOL    HW290492   4.515   4.671   2.856 -0.0349 -0.6163  1.1545
26145SOL     OW90493   3.120   1.160   2.256 -0.1008  0.0582 -0.2032
26145SOL    HW190494   3.195   1.220   2.285 -0.7877  0.6304  0.4315
26145SOL    HW290495   3.059   1.210   2.194 -0.3952 -0.1447 -0.0787
26146SOL     OW90496   2.365   7.595   7.065  0.0813 -0.0996  0.1944
26146SOL    HW190497   2.443   7.655   7.083 -2.3288  2.5379  2.0281
26146SOL    HW290498   2.311   7.632   6.989 -1.7751  0.4291  1.7531
26147SOL     OW90499   7.839   1.526   8.929  0.4919  0.1103  0.1297
26147SOL    HW190500   7.927   1.530   8.881  0.1999  3.0227 -0.1985
26147SOL    HW290501   7.839   1.591   9.005 -0.4969 -1.6614  1.7006
26148SOL     OW90502   2.391   9.137   3.878 -0.9888 -0.7429 -0.1267
26148SOL    HW190503   2.456   9.076   3.833 -1.3600  0.5068 -2.4254
26148SOL    HW290504   2.326   9.082   3.931  0.1948 -2.1710 -0.0922
26149SOL     OW90505   0.580   3.063   0.586 -0.2075  0.0990 -0.2289
26149SOL    HW190506   0.562   3.018   0.498 -0.2723  0.6903 -0.5200
26149SOL    HW290507   0.586   3.162   0.572 -2.3503  0.3891  0.7737
26150SOL     OW90508   2.212   6.315   2.515  0.1470  0.3083  0.3250
26150SOL    HW190509   2.271   6.300   2.594  0.3748 -0.3051  0.0338
26150SOL    HW290510   2.119   6.338   2.547 -0.5326 -2.9119  0.7784
26151SOL     OW90511   2.352   6.212   9.122 -0.2446  0.1707  1.2136
26151SOL    HW190512   2.417   6.199   9.197 -0.8990  0.8164  1.9035
26151SOL    HW290513   2.371   6.298   9.076  0.7691 -0.6816  0.0051
26152SOL     OW90514   3.576   4.378   9.441 -0.5462 -0.4298  0.2405
26152SOL    HW190515   3.505   4.410   9.504  1.0356  2.8967  0.4220
26152SOL    HW290516   3.663   4.370   9.491  0.1667 -0.2188 -0.9559
26153SOL     OW90517   0.550   2.243   6.891 -0.2371 -0.1576  0.4055
26153SOL    HW190518   0.641   2.235   6.931 -0.7159 -1.0260  1.3703
26153SOL    HW290519   0.504   2.154   6.894 -1.1177  0.2714 -0.0450
26154SOL     OW90520   3.824   3.379   7.967  0.4460  0.0598  0.2267
26154SOL    HW190521   3.830   3.338   7.876  2.4061 -0.0038  0.3688
26154SOL    HW290522   3.728   3.397   7.989 -0.0278  0.2799 -1.9381
26155SOL     OW90523   6.543   8.224   6.907  0.1423 -0.4724  0.3414
26155SOL    HW190524   6.511   8.298   6.966  2.1163  0.5875  0.1326
26155SOL    HW290525   6.559   8.259   6.815 -0.6802 -1.5856 -0.2373
26156SOL     OW90526   9.596   2.759   9.133 -0.0900 -0.1051  0.0978
26156SOL    HW190527   9.621   2.808   9.049  2.7362 -0.6844  0.5429
26156SOL    HW290528   9.648   2.674   9.138 -1.9766 -1.2074  1.3104
26157SOL     OW90529   9.871   5.768   2.759 -0.3126  0.3267 -0.5235
26157SOL    HW190530   9.935   5.804   2.827 -2.2106 -0.2555  1.6338
26157SOL    HW290531   9.827   5.844   2.711  0.1978  0.7622 -0.3019
26158SOL     OW90532   8.557   4.880   5.794 -0.0071  0.0174 -0.3763
26158SOL    HW190533   8.585   4.974   5.772  1.8088 -0.3243  0.3736
26158SOL    HW290534   8.635   4.819   5.782 -1.4492 -1.5560 -1.7998
26159SOL     OW90535   2.331   0.502   9.048  0.4992 -0.3534  0.2130
26159SOL    HW190536   2.400   0.514   9.120 -1.5365  0.4749  2.0824
26159SOL    HW290537   2.326   0.586   8.993 -0.1735  0.2254  1.1381
26160SOL     OW90538   1.239   0.205   4.077  0.0111  0.4192  0.2991
26160SOL    HW190539   1.185   0.136   4.125  1.2074 -1.0478 -0.4288
26160SOL    HW290540   1.331   0.208   4.116  1.0478 -0.9116 -1.9746
26161SOL     OW90541   4.359   5.525   0.766  0.2274 -0.3182  0.0615
26161SOL    HW190542   4.283   5.463   0.747 -0.2187  0.1340  0.3401
26161SOL    HW290543   4.343   5.612   0.719  0.0333  0.1575  0.9956
26162SOL     OW90544   0.376   7.348   5.002  0.4873 -0.0659  0.0483
26162SOL    HW190545   0.461   7.389   5.035  0.0027  1.2033 -0.2434
26162SOL    HW290546   0.395   7.258   4.964  1.3722 -0.6664  1.8712
26163SOL     OW90547   8.450   3.407   6.476  0.6490  0.6260 -0.4160
26163SOL    HW190548   8.419   3.501   6.491 -0.6914  0.0859  0.3306
26163SOL    HW290549   8.382   3.343   6.514  1.6662 -0.6357 -0.6792
26164SOL     OW90550   9.248   8.324   5.958  0.3977 -0.3479  0.5618
26164SOL    HW190551   9.164   8.377   5.973  0.1232 -1.1731  1.9827
26164SOL    HW290552   9.252   8.296   5.862 -0.4807  0.4861  0.2654
26165SOL     OW90553   0.696   4.692   5.447  0.0304  0.1348 -0.2534
26165SOL    HW190554   0.706   4.631   5.369  2.6025  0.2372 -0.0281
26165SOL    HW290555   0.619   4.754   5.430 -0.9326 -1.3929 -1.6374
26166SOL     OW90556   4.492   0.845  10.017 -0.0742  0.3921  0.1046
26166SOL    HW190557   4.434   0.921   9.988  0.3576  0.7301  0.1153
26166SOL    HW290558   4.451   0.800  10.096 -1.5730 -0.9200 -1.3857
26167SOL     OW90559   9.032   3.539   0.172  0.0667 -0.0901 -0.2991
26167SOL    HW190560   8.997   3.526   0.265  3.9065  0.7117  1.3309
26167SOL    HW290561   9.032   3.636   0.150 -0.0010 -0.2040 -0.8104
26168SOL     OW90562   5.500   0.693   1.773 -0.0083  0.5109 -0.3088
26168SOL    HW190563   5.426   0.664   1.834  0.1553 -1.1090 -0.8619
26168SOL    HW290564   5.525   0.618   1.713  2.4535  0.8678  0.2058
26169SOL     OW90565   9.101   8.507   9.599 -0.1654 -0.2215 -0.4859
26169SOL    HW190566   9.162   8.537   9.673 -0.1342 -0.0870 -0.5659
26169SOL    HW290567   9.008   8.502   9.634 -0.2249  0.2968 -0.5600
26170SOL     OW90568   8.407   8.020   8.195  0.0513  0.0718  0.5040
26170SOL    HW190569   8.461   7.962   8.133 -0.2155 -0.6792  0.9700
26170SOL    HW290570   8.463   8.044   8.275 -0.3197 -0.7500  1.0129
26171SOL     OW90571   0.743   6.528   1.226  0.4901 -0.1275 -0.2195
26171SOL    HW190572   0.763   6.619   1.191 -0.6107  0.1295 -0.2064
26171SOL    HW290573   0.751   6.528   1.326  2.0598 -0.4560 -0.3405
26172SOL     OW90574   2.263   7.556   3.043 -0.5073  0.4443  0.5446
26172SOL    HW190575   2.248   7.457   3.043 -0.2757  0.3961  1.6121
26172SOL    HW290576   2.251   7.591   3.136  2.7281  0.8981  0.8366
26173SOL     OW90577   1.920   1.822   9.584 -0.2640  0.8186 -0.1101
26173SOL    HW190578   1.897   1.727   9.566 -0.0030  0.7187  0.0880
26173SOL    HW290579   2.003   1.847   9.534 -0.5800  1.0675 -0.5118
26174SOL     OW90580   8.654   7.007   3.805 -0.2900 -0.6199  0.5931
26174SOL    HW190581   8.635   6.909   3.814 -1.1424 -0.4708  0.4687
26174SOL    HW290582   8.678   7.028   3.711 -1.9405 -0.4057  0.2128
26175SOL     OW90583   5.203   6.094   8.754 -0.6036  0.0302 -0.1899
26175SOL    HW190584   5.249   6.182   8.751 -0.4016  0.0180  1.7210
26175SOL    HW290585   5.131   6.097   8.824 -0.4928 -1.3491 -0.0085
26176SOL     OW90586   0.795   2.801   5.947  0.4903  0.2278  0.7384
26176SOL    HW190587   0.761   2.893   5.966  0.3355  0.2793  0.2151
26176SOL    HW290588   0.734   2.733   5.989 -1.1210  0.2661 -1.4383
26177SOL     OW90589   7.328   6.664   3.871  0.0632  0.4356 -0.5742
26177SOL    HW190590   7.394   6.593   3.846  0.1701  1.0812 -2.1752
26177SOL    HW290591   7.364   6.753   3.844 -0.3095  1.0510  0.9520
26178SOL     OW90592   4.010   4.721   7.413  0.3047  0.1141  0.5410
26178SOL    HW190593   4.038   4.810   7.449  0.7130 -0.3682  1.4336
26178SOL    HW290594   3.985   4.660   7.489 -0.6857 -0.3000 -0.0957
26179SOL     OW90595   1.067   5.146   4.636  0.2221  0.4730  0.2298
26179SOL    HW190596   1.071   5.246   4.634  0.0911  0.4741 -0.0499
26179SOL    HW290597   1.160   5.109   4.640  0.2941  0.5974 -0.2435
26180SOL     OW90598   0.786   7.571   8.392  0.3873 -0.3124  0.8914
26180SOL    HW190599   0.791   7.473   8.409  0.8956 -0.2135  1.3302
26180SOL    HW290600   0.734   7.615   8.464 -1.2174 -0.4621 -0.1528
26181SOL     OW90601   5.893   1.245   7.101  0.1077  0.1359  0.1306
26181SOL    HW190602   5.842   1.195   7.171  1.3666  1.3527  1.9638
26181SOL    HW290603   5.972   1.190   7.071  0.6102  0.3648  1.0176
26182SOL     OW90604   2.168   6.191   3.104 -0.1483  0.1507  0.5436
26182SOL    HW190605   2.155   6.277   3.055  1.1893 -0.4935 -0.9860
26182SOL    HW290606   2.083   6.165   3.148 -0.8721  1.6984  0.1056
26183SOL     OW90607   6.954   6.106   3.044  0.5152  0.0276 -0.0899
26183SOL    HW190608   7.001   6.195   3.047  2.2846 -0.8676 -0.4528
26183SOL    HW290609   6.940   6.079   2.949 -1.3414  0.5848  0.0163
26184SOL     OW90610   7.848   8.823   8.441  0.6619  0.1464 -0.1667
26184SOL    HW190611   7.780   8.873   8.494  0.4768  0.8022 -1.0082
26184SOL    HW290612   7.827   8.830   8.344  1.2583 -0.6519 -0.3635
26185SOL     OW90613   1.866   4.256   5.410  0.4885 -0.8247  0.5118
26185SOL    HW190614   1.825   4.178   5.362  0.0118 -0.4365  0.2922
26185SOL    HW290615   1.944   4.290   5.358  0.0994 -0.5360  0.1131
26186SOL     OW90616   3.298   0.843   6.527 -0.0699  0.5577 -0.3460
26186SOL    HW190617   3.201   0.840   6.554  0.3935  1.7541  1.5436
26186SOL    HW290618   3.352   0.790   6.592  0.5929  0.1156 -1.2511
26187SOL     OW90619   9.491   2.912   3.125 -0.2872 -0.0611  0.0472
26187SOL    HW190620   9.464   3.007   3.111 -0.0894 -0.0526 -0.2839
26187SOL    HW290621   9.454   2.879   3.212  0.4249  0.6074  0.6128
26188SOL     OW90622   5.383   8.937   7.911  0.0745 -0.2749 -0.1981
26188SOL    HW190623   5.294   8.927   7.955 -0.1583 -0.1876 -0.6415
26188SOL    HW290624   5.402   8.856   7.855  0.1647 -0.1882 -0.2935
26189SOL     OW90625   8.237   1.863   2.147  0.2019  0.2143 -0.3277
26189SOL    HW190626   8.267   1.835   2.238 -0.4052  2.3324  0.5569
26189SOL    HW290627   8.137   1.853   2.141  0.3697 -0.9586 -1.1343
26190SOL     OW90628   1.466   5.839   6.977  0.2127  0.0455  0.0378
26190SOL    HW190629   1.396   5.895   7.020  0.1485  1.0362 -1.3254
26190SOL    HW290630   1.423   5.766   6.923  0.2642 -0.2375  0.3751
26191SOL     OW90631   6.367   3.808   9.825 -0.5569 -0.1581 -0.2986
26191SOL    HW190632   6.409   3.892   9.790 -0.0071 -0.5007 -0.4583
26191SOL    HW290633   6.387   3.799   9.923 -2.0456  0.7696  0.1014
26192SOL     OW90634   9.155   8.892   6.941  0.0722  0.0533 -0.0993
26192SOL    HW190635   9.063   8.922   6.916  0.6056  1.0197 -0.9561
26192SOL    HW290636   9.156   8.793   6.952 -1.2964  0.1455  0.9170
26193SOL     OW90637   8.811   2.614   1.572 -0.3301  0.2041 -0.1746
26193SOL    HW190638   8.718   2.634   1.544  0.0016  1.2453 -0.5591
26193SOL    HW290639   8.847   2.537   1.518 -0.1292  1.3778 -1.7433
26194SOL     OW90640   9.157   2.434   0.390 -0.6861 -0.4016  0.2205
26194SOL    HW190641   9.210   2.508   0.348  0.6355  0.6059  3.4882
26194SOL    HW290642   9.061   2.444   0.365 -0.8409  3.5191  1.9755
26195SOL     OW90643   5.819   2.474   8.129  0.6369 -0.0530  0.0868
26195SOL    HW190644   5.908   2.451   8.168  1.1809 -0.4161 -1.3473
26195SOL    HW290645   5.798   2.412   8.054 -2.3542 -2.1675  2.5265
26196SOL     OW90646   8.468   5.801   0.717  0.5353  0.2512  0.5574
26196SOL    HW190647   8.530   5.730   0.751 -0.0264  0.0235  1.1107
26196SOL    HW290648   8.515   5.855   0.646  0.2174 -2.0832 -1.4973
26197SOL     OW90649   2.622   9.941   1.523 -0.2485  0.2996 -0.1676
26197SOL    HW190650   2.600  10.015   1.458 -2.4568 -0.9864 -0.9430
26197SOL    HW290651   2.602   9.972   1.616 -2.0685  0.4074 -0.5647
26198SOL     OW90652   7.677   6.321   2.754 -0.3284  0.0310  0.4997
26198SOL    HW190653   7.623   6.286   2.831  0.5466  0.7151  1.4389
26198SOL    HW290654   7.743   6.252   2.725  0.8432  0.5823  1.8179
26199SOL     OW90655   9.934   2.385   6.361  0.1013 -0.8180  0.3096
26199SOL    HW190656   9.934   2.408   6.458 -0.2289 -0.1436  0.1510
26199SOL    HW290657   9.844   2.403   6.322  0.3340 -0.7376 -0.2020
26200SOL     OW90658   1.515   5.034   9.896  0.0990 -0.0226  0.2729
26200SOL    HW190659   1.599   5.070   9.856 -0.6759  0.7647 -0.6538
26200SOL    HW290660   1.435   5.070   9.847 -0.7622 -1.4495  0.5735
26201SOL     OW90661   2.301   3.360   3.062 -0.7264  0.1625 -0.5751
26201SOL    HW190662   2.311   3.296   2.986 -0.3891  0.8966 -1.1581
26201SOL    HW290663   2.390   3.396   3.087 -0.9315  0.5357 -0.3742
26202SOL     OW90664   9.678   3.851   5.985  0.4635  0.0435  0.4405
26202SOL    HW190665   9.684   3.851   6.085 -1.4610 -0.2143  0.5679
26202SOL    HW290666   9.671   3.757   5.952  0.7635  0.1455  0.0847
26203SOL     OW90667   2.694   0.826   7.563  0.0139 -0.2472  0.0884
26203SOL    HW190668   2.668   0.738   7.523  0.1502  0.0250 -0.6169
26203SOL    HW290669   2.695   0.819   7.663 -1.5997 -0.5826  0.0908
26204SOL     OW90670   8.455   6.197   9.249 -0.1312 -0.1527 -0.2727
26204SOL    HW190671   8.534   6.167   9.302 -0.1989  1.1674  0.6051
26204SOL    HW290672   8.380   6.132   9.261 -0.5929  0.8070  2.3733
26205SOL     OW90673   0.042   5.921   2.958 -0.0605  0.4637  0.3383
26205SOL    HW190674  -0.027   5.930   3.030  0.0656 -2.2447  0.8676
26205SOL    HW290675   0.106   5.998   2.963 -1.1444  1.3039  1.9176
26206SOL     OW90676   6.805   7.773   3.256 -0.3830 -0.4082  0.1122
26206SOL    HW190677   6.821   7.792   3.353 -3.1344 -1.4707  0.8263
26206SOL    HW290678   6.877   7.713   3.222  2.6889  2.8928  0.4699
26207SOL     OW90679   0.163   1.995   4.846 -0.9122  0.3046 -0.6489
26207SOL    HW190680   0.121   1.907   4.867  0.4441 -0.2749 -0.3694
26207SOL    HW290681   0.199   2.036   4.929  0.2244  0.2069 -1.0909
26208SOL     OW90682   6.685   1.960   0.251  0.5798  0.1070 -0.1716
26208SOL    HW190683   6.603   2.011   0.277  2.2164  0.8278  3.9041
26208SOL    HW290684   6.687   1.873   0.301  1.3582 -0.8348 -1.7782
26209SOL     OW90685   8.908   5.786   8.219  0.0539 -0.4705 -0.3257
26209SOL    HW190686   8.919   5.725   8.140  1.8980 -0.3114 -0.2297
26209SOL    HW290687   8.812   5.810   8.230 -0.3270 -1.1326 -2.0395
26210SOL     OW90688   1.322   5.958   4.471 -0.4004  0.2243 -0.7213
26210SOL    HW190689   1.293   5.914   4.386 -1.1575  0.0944 -0.4021
26210SOL    HW290690   1.243   5.971   4.530  0.3046 -0.7786  0.4720
26211SOL     OW90691   7.667   7.761   4.084  0.1225 -0.5492  0.3565
26211SOL    HW190692   7.738   7.691   4.085  0.2996 -0.4183 -1.7005
26211SOL    HW290693   7.667   7.808   3.996 -0.0509  1.9922  1.6855
26212SOL     OW90694   2.049   2.081   4.791  0.2910 -0.1669 -0.4704
26212SOL    HW190695   2.020   2.091   4.696 -0.7989  0.2023 -0.1018
26212SOL    HW290696   1.996   2.143   4.849 -1.2391 -2.6041  0.8218
26213SOL     OW90697   0.577   3.845   6.658 -0.4787  0.0283 -0.3910
26213SOL    HW190698   0.677   3.844   6.661 -0.4752  0.0777 -0.5156
26213SOL    HW290699   0.543   3.927   6.703 -0.4853 -0.4318  0.4460
26214SOL     OW90700   7.802   2.875   9.824  0.1414  0.1473  0.4194
26214SOL    HW190701   7.791   2.837   9.916  0.8844 -1.9812 -0.3323
26214SOL    HW290702   7.859   2.813   9.770 -0.4625  1.2767 -1.5311
26215SOL     OW90703   4.789   3.936   8.818 -0.0976  0.1989 -0.4128
26215SOL    HW190704   4.791   3.849   8.868  0.0047  0.7135  0.4874
26215SOL    HW290705   4.717   3.995   8.855  0.1755  0.7040 -0.6714
26216SOL     OW90706   8.333   1.969   8.732  0.6467 -0.1921 -0.0878
26216SOL    HW190707   8.431   1.956   8.748  0.7590  1.2772  0.5214
26216SOL    HW290708   8.301   2.048   8.784 -1.0667 -1.2140  0.4692
26217SOL     OW90709   5.707   6.544   1.004 -0.4480 -0.1624 -0.4045
26217SOL    HW190710   5.615   6.583   1.014 -0.0408  1.1121 -1.5041
26217SOL    HW290711   5.717   6.506   0.911  1.0501  2.1943 -1.2488
26218SOL     OW90712   0.108   4.519   6.892  0.2142 -0.4073 -0.0690
26218SOL    HW190713   0.030   4.474   6.935  0.1188  2.5500  3.1153
26218SOL    HW290714   0.077   4.565   6.808 -1.3705  0.2188  0.8288
26219SOL     OW90715   9.971   9.760   7.233 -0.6188 -0.8177  0.4926
26219SOL    HW190716   9.946   9.822   7.158 -1.1094 -0.2822  1.0926
26219SOL    HW290717  10.050   9.706   7.206  0.0858  0.3793  0.1135
26220SOL     OW90718   9.395   8.442   8.858 -0.7617 -0.2011  0.2168
26220SOL    HW190719   9.492   8.462   8.841 -0.5135 -2.2656 -0.9297
26220SOL    HW290720   9.352   8.411   8.773 -2.0608 -0.7774  1.0734
26221SOL     OW90721   3.069   4.028   5.080  0.0494 -0.0982 -0.3787
26221SOL    HW190722   3.018   4.103   5.040  1.9337  0.5392 -1.6581
26221SOL    HW290723   3.006   3.966   5.127 -1.7472  1.1696 -1.0611
26222SOL     OW90724   1.791   5.755   3.677  0.0742  0.4242 -0.1943
26222SOL    HW190725   1.878   5.752   3.727 -0.3263 -0.2197  0.4693
26222SOL    HW290726   1.802   5.709   3.589  0.0864 -0.7015  0.3916
26223SOL     OW90727   3.886   1.529   9.247  0.0304 -0.1848 -0.2319
26223SOL    HW190728   3.893   1.596   9.322  1.0925  0.7108 -1.1158
26223SOL    HW290729   3.955   1.550   9.177  0.1431 -2.0151 -0.6814
26224SOL     OW90730   4.581   4.868   0.777 -0.2335 -0.2535  0.1737
26224SOL    HW190731   4.670   4.828   0.752  0.0686  0.2510  0.4286
26224SOL    HW290732   4.508   4.805   0.752  0.2693 -1.2078  1.0749
26225SOL     OW90733   0.065   9.911   7.672  0.0576  0.5243  0.4592
26225SOL    HW190734   0.017   9.921   7.759  0.1447  3.0275  0.2546
26225SOL    HW290735   0.156   9.874   7.688 -0.6967 -1.0778  1.1833
26226SOL     OW90736   9.948   0.748   2.893 -0.1521  0.4992  0.3488
26226SOL    HW190737  10.039   0.710   2.881  0.3992  1.0078  2.7312
26226SOL    HW290738   9.952   0.827   2.955 -2.0243  1.2665 -0.4750
26227SOL     OW90739   1.771   4.862   5.548 -0.4606 -0.3250  0.2091
26227SOL    HW190740   1.846   4.797   5.538 -1.0668 -1.1245  0.7437
26227SOL    HW290741   1.807   4.955   5.552  0.5799 -0.7796  1.6060
26228SOL     OW90742   1.590   5.235   9.528  0.5129 -0.4864 -0.0508
26228SOL    HW190743   1.666   5.281   9.482  1.1939 -0.9461  0.6145
26228SOL    HW290744   1.597   5.137   9.514  0.3777 -0.5797  0.5192
26229SOL     OW90745   7.403   7.376   4.485 -0.1305 -0.4527  0.1352
26229SOL    HW190746   7.410   7.413   4.392 -0.0300 -1.6207 -0.3272
26229SOL    HW290747   7.451   7.437   4.548  0.2160  0.1011 -0.6524
26230SOL     OW90748   1.017   2.122   3.692 -0.0668 -0.1426  0.7534
26230SOL    HW190749   0.955   2.067   3.748 -0.0935 -0.2489  0.6193
26230SOL    HW290750   1.090   2.159   3.750 -0.2152 -0.0771  0.8958
26231SOL     OW90751   3.689   0.258   3.756  0.2387  0.3715  0.4214
26231SOL    HW190752   3.636   0.199   3.816 -0.2653  0.8579  0.4620
26231SOL    HW290753   3.778   0.216   3.737 -0.7786 -1.2109 -0.9501
26232SOL     OW90754   8.309   5.725   1.025  0.2962 -0.3875 -0.2110
26232SOL    HW190755   8.235   5.790   1.036 -0.2538 -1.2460  1.2270
26232SOL    HW290756   8.288   5.663   0.948 -1.1680 -1.5354  1.0841
26233SOL     OW90757   6.404   8.216   2.847  0.2643  0.0803 -1.1003
26233SOL    HW190758   6.483   8.155   2.841  1.0679  0.7269  1.8570
26233SOL    HW290759   6.432   8.309   2.823  0.4699  0.3466  0.1474
26234SOL     OW90760   9.207   0.584   2.798  0.2420 -0.1830  0.1388
26234SOL    HW190761   9.247   0.579   2.706 -1.4737 -0.6980 -0.5926
26234SOL    HW290762   9.232   0.502   2.849 -0.7928 -1.0361 -0.7032
26235SOL     OW90763   1.928   7.874   2.646  0.6179  0.2297 -0.0946
26235SOL    HW190764   1.885   7.848   2.733  2.5153 -0.3716  0.6952
26235SOL    HW290765   1.899   7.966   2.621 -0.9966 -0.0955  0.4746
26236SOL     OW90766   2.212   3.576   2.795  0.6882 -0.3914  0.1607
26236SOL    HW190767   2.132   3.637   2.790  2.2929  1.7294 -0.2082
26236SOL    HW290768   2.197   3.497   2.736 -0.1399  1.2080 -1.8332
26237SOL     OW90769   5.021   0.225   3.483 -0.2176 -0.8650 -0.2745
26237SOL    HW190770   5.087   0.151   3.475  2.6084  1.3257  1.7327
26237SOL    HW290771   4.980   0.224   3.574  1.2372  1.1037  0.4406
26238SOL     OW90772   2.614   9.775   7.686  0.3370  0.3210  0.1986
26238SOL    HW190773   2.556   9.856   7.673 -1.7620 -1.1639  0.0833
26238SOL    HW290774   2.703   9.791   7.644  0.5412  3.2042  1.6285
26239SOL     OW90775   4.354   8.334   5.964  0.1745  0.1032  1.0605
26239SOL    HW190776   4.448   8.316   5.994 -0.3618  0.6657  3.1328
26239SOL    HW290777   4.292   8.327   6.041 -1.4488  0.2210 -0.2044
26240SOL     OW90778   0.703   0.391   6.426 -0.2081  0.5387 -0.1227
26240SOL    HW190779   0.676   0.445   6.507  0.3697  1.6092 -0.6356
26240SOL    HW290780   0.777   0.438   6.378 -0.3982 -0.2084 -1.1538
26241SOL     OW90781   9.559   9.065   0.155  0.4708  0.3284  0.2565
26241SOL    HW190782   9.517   9.040   0.068 -1.3762  2.9816  0.3369
26241SOL    HW290783   9.575   9.164   0.157 -0.2934  0.4428  3.2385
26242SOL     OW90784   2.534   5.115   9.444  0.1025 -0.0274 -0.0914
26242SOL    HW190785   2.514   5.122   9.542 -2.5519  0.5624 -0.6192
26242SOL    HW290786   2.568   5.023   9.423  1.7391  0.1908  1.5305
26243SOL     OW90787   9.972   1.683   8.098 -0.0791  0.3091  0.5138
26243SOL    HW190788   9.969   1.643   8.006  0.7962 -0.6145  0.8769
26243SOL    HW290789  10.064   1.673   8.135 -0.0903  1.8400  0.9909
26244SOL     OW90790   0.735   0.735   8.401 -0.1837  0.0585 -0.0772
26244SOL    HW190791   0.813   0.697   8.351  0.1383  0.7028 -0.0758
26244SOL    HW290792   0.715   0.677   8.480  0.9380  0.4130  0.4883
26245SOL     OW90793   7.427   4.614   8.145 -0.3463 -0.6636  0.2789
26245SOL    HW190794   7.407   4.621   8.243  1.2428  1.7284  0.4828
26245SOL    HW290795   7.507   4.555   8.131  0.9414  0.9736  0.6503
26246SOL     OW90796   3.054   7.544   7.105  0.4130 -0.1832 -0.2540
26246SOL    HW190797   2.980   7.483   7.134 -0.6769  2.1977  2.2249
26246SOL    HW290798   3.046   7.561   7.007 -0.3718 -2.5258 -0.6125
26247SOL     OW90799   7.987   8.997   7.722 -0.3148  0.7106 -0.1857
26247SOL    HW190800   7.920   9.043   7.781  0.7121  0.9778  0.8073
26247SOL    HW290801   7.942   8.963   7.640 -1.7372  0.5582  0.6423
26248SOL     OW90802   4.832   7.067   2.977  0.3431 -0.1028  0.5133
26248SOL    HW190803   4.827   7.098   3.072  1.0433  0.4459  0.3719
26248SOL    HW290804   4.907   7.113   2.930 -0.0270 -0.3322 -0.3251
26249SOL     OW90805   8.114   2.445   3.904  0.8006 -0.0905 -0.1455
26249SOL    HW190806   8.084   2.376   3.838 -2.2745  2.6772 -1.7660
26249SOL    HW290807   8.114   2.405   3.995  1.0575 -2.7876 -1.2589
26250SOL     OW90808   2.992   4.456   6.992 -0.1272 -0.7268 -0.2707
26250SOL    HW190809   3.016   4.479   7.086  0.7070 -0.1695 -0.6119
26250SOL    HW290810   3.066   4.483   6.931 -2.1780  2.3515 -1.5415
26251SOL     OW90811   3.694   5.566   8.141  0.1451  0.1896  0.8458
26251SOL    HW190812   3.689   5.560   8.041 -0.0630  0.3083  0.8489
26251SOL    HW290813   3.786   5.541   8.171 -0.5149 -2.3636  0.8174
26252SOL     OW90814   5.610   6.352   9.716 -0.0832  0.6660 -0.5076
26252SOL    HW190815   5.546   6.339   9.792 -2.5463  2.0581 -2.2425
26252SOL    HW290816   5.694   6.395   9.749  0.1234 -1.4962  1.8936
26253SOL     OW90817   2.311   8.497   8.511  0.9217  0.2360 -0.5800
26253SOL    HW190818   2.315   8.574   8.447 -0.2225  0.3089 -0.5604
26253SOL    HW290819   2.218   8.487   8.546  1.5598  0.2204  1.1185
26254SOL     OW90820   7.747   8.582   3.832 -0.1325 -0.0810  0.5836
26254SOL    HW190821   7.711   8.490   3.815  0.2672  0.0323 -0.9117
26254SOL    HW290822   7.688   8.628   3.899 -0.8959 -1.0655  0.6105
26255SOL     OW90823   8.803   6.585   9.544  0.0215 -0.0259 -0.1652
26255SOL    HW190824   8.752   6.533   9.475  1.9081 -2.6381  0.3414
26255SOL    HW290825   8.749   6.590   9.628  0.4511 -2.6350  0.3124
26256SOL     OW90826   8.346   6.389   9.428 -0.2732  1.1946  0.5813
26256SOL    HW190827   8.368   6.330   9.506 -2.9614 -0.3696  0.2514
26256SOL    HW290828   8.382   6.348   9.344 -0.2515  1.1365  0.6193
26257SOL     OW90829   9.993   9.226   8.396 -0.2512  0.1252 -0.5598
26257SOL    HW190830   9.938   9.143   8.402 -1.4300  0.6668 -3.4275
26257SOL    HW290831  10.089   9.201   8.383 -0.3248 -0.7832  0.5425
26258SOL     OW90832   6.416   8.943   4.965  0.3033  0.4530  0.6655
26258SOL    HW190833   6.389   8.943   5.061  0.1150  0.7905  0.6140
26258SOL    HW290834   6.434   9.037   4.936 -0.5663  0.4509  0.1102
26259SOL     OW90835   0.965   1.618   3.494  0.0593  0.2118  0.2454
26259SOL    HW190836   0.915   1.702   3.518  0.5075  0.4613  0.3200
26259SOL    HW290837   0.933   1.542   3.550 -0.1144  0.4114  0.4160
26260SOL     OW90838   4.382   8.424   9.629  0.0058  1.2066  0.1737
26260SOL    HW190839   4.409   8.329   9.644  0.2983  0.9474 -1.7643
26260SOL    HW290840   4.318   8.453   9.699 -1.0112 -0.8063  0.0956
26261SOL     OW90841   0.718   5.783   5.678 -0.1494 -0.3481  0.3281
26261SOL    HW190842   0.680   5.844   5.608 -0.9609 -0.3756  0.7445
26261SOL    HW290843   0.818   5.788   5.675 -0.1986  1.3228  0.6276
26262SOL     OW90844   8.236   6.992   4.160  0.1330  0.1088  0.0295
26262SOL    HW190845   8.315   7.034   4.114  0.6935 -0.1395  0.7603
26262SOL    HW290846   8.235   6.894   4.140 -0.8792  0.3593 -1.2460
26263SOL     OW90847   7.960   5.403   0.235  0.7683 -0.0582 -0.1277
26263SOL    HW190848   7.926   5.483   0.186  0.0769 -0.2437  0.0398
26263SOL    HW290849   7.883   5.350   0.270  1.2313 -0.5362  0.1829
26264SOL     OW90850   1.631   1.723   5.202 -0.7296 -0.3056 -0.3719
26264SOL    HW190851   1.679   1.750   5.286 -1.2956 -0.6283  0.0572
26264SOL    HW290852   1.556   1.661   5.225 -1.7440  0.6958 -0.9765
26265SOL     OW90853   1.222   9.013   1.025 -0.2435  0.6935 -0.1814
26265SOL    HW190854   1.203   8.940   0.960  1.9087  0.1494 -0.2072
26265SOL    HW290855   1.198   9.101   0.984  1.7805  0.4310 -2.0263
26266SOL     OW90856   8.471   0.004   0.530  0.3146  0.1901 -0.2045
26266SOL    HW190857   8.450   0.063   0.453 -0.5371 -0.6367 -0.6100
26266SOL    HW290858   8.488  -0.089   0.498  0.5670 -0.0259  0.5375
26267SOL     OW90859   8.894   7.904   5.383 -0.3176  0.3852  0.0387
26267SOL    HW190860   8.814   7.915   5.324  1.3525 -0.6898 -2.4920
26267SOL    HW290861   8.978   7.912   5.329  1.3231  1.0651  2.5562
26268SOL     OW90862   0.985   8.591   1.872 -0.4048  0.2838 -0.0121
26268SOL    HW190863   1.047   8.613   1.796  0.7821 -1.7784  0.2918
26268SOL    HW290864   1.037   8.588   1.958 -1.1524 -0.2945  0.4314
26269SOL     OW90865   3.133   9.593   2.748  0.2261 -1.0233  0.8124
26269SOL    HW190866   3.151   9.634   2.658 -0.1556 -0.2544  1.0786
26269SOL    HW290867   3.042   9.621   2.779  0.1212 -1.7605  1.1842
26270SOL     OW90868   9.538   5.772   5.101  0.1764  0.0872  0.3013
26270SOL    HW190869   9.607   5.712   5.060  0.6072  0.9776 -0.2739
26270SOL    HW290870   9.564   5.792   5.196  1.6479  1.8195 -0.4229
26271SOL     OW90871   3.254   4.135   7.415 -0.3526 -0.6839 -0.7578
26271SOL    HW190872   3.312   4.056   7.398 -1.0451 -1.0561 -1.4057
26271SOL    HW290873   3.306   4.219   7.395  0.6477 -0.9331  0.7248
26272SOL     OW90874   0.127   6.267   3.859  0.4116  0.1203 -0.4200
26272SOL    HW190875   0.171   6.335   3.918 -0.7868  0.8034 -0.2892
26272SOL    HW290876   0.076   6.314   3.787  0.5495 -0.6787 -1.0470
26273SOL     OW90877   0.353   8.576   9.800 -0.9126  0.0956  0.5513
26273SOL    HW190878   0.411   8.622   9.867  0.0782  1.1029 -0.9601
26273SOL    HW290879   0.410   8.516   9.743 -1.4872  0.3679 -0.3252
26274SOL     OW90880   8.484   3.985   2.947 -0.2551  0.0888  0.1218
26274SOL    HW190881   8.444   3.952   2.862 -1.2662  1.0077  0.2250
26274SOL    HW290882   8.417   4.041   2.996  0.7000  0.5204  0.9645
26275SOL     OW90883   5.512   4.730   0.812  0.2196 -0.1648  0.0737
26275SOL    HW190884   5.528   4.798   0.883  0.4845  0.7881 -0.8858
26275SOL    HW290885   5.563   4.755   0.730  0.7036 -1.7860 -0.1322
26276SOL     OW90886   9.600   5.961   7.868  0.1438  0.0378 -0.9868
26276SOL    HW190887   9.632   6.056   7.869 -0.2400  0.1594  0.3461
26276SOL    HW290888   9.550   5.942   7.953  1.1130 -1.6522 -0.7807
26277SOL     OW90889   0.458   6.598   3.666 -0.0258 -0.3354  0.3510
26277SOL    HW190890   0.536   6.632   3.613  0.7481 -0.8799  1.1134
26277SOL    HW290891   0.492   6.536   3.737 -1.1822 -0.7237  0.5648
26278SOL     OW90892   3.407   8.857   9.531 -0.7172 -0.1335 -0.6052
26278SOL    HW190893   3.477   8.850   9.601 -1.1645 -2.0605 -0.3008
26278SOL    HW290894   3.318   8.875   9.573 -0.7069  0.4453 -0.8260
26279SOL     OW90895   4.922   0.218   0.722  0.1033  0.2707 -0.4107
26279SOL    HW190896   4.991   0.233   0.793  1.2051  0.4787 -1.5063
26279SOL    HW290897   4.903   0.304   0.675 -0.1483  0.0085 -0.7968
26280SOL     OW90898   9.563   2.502   8.739 -0.2039 -0.6916  0.0994
26280SOL    HW190899   9.496   2.576   8.728 -0.6183 -1.1207 -0.2606
26280SOL    HW290900   9.612   2.515   8.825  2.4421  2.1622 -1.7452
26281SOL     OW90901   8.119   6.795   2.688  0.1123 -0.1890 -0.1097
26281SOL    HW190902   8.215   6.767   2.689  0.9519  2.3973 -1.2848
26281SOL    HW290903   8.081   6.780   2.597 -0.0417  0.4694 -0.1566
26282SOL     OW90904   9.139   2.293   0.154  0.0900 -0.7286 -0.1537
26282SOL    HW190905   9.042   2.270   0.146 -0.3023  0.2742  1.4323
26282SOL    HW290906   9.157   2.329   0.246  1.4191  1.6463 -1.2872
26283SOL     OW90907   7.737   0.467   9.066 -0.1160 -0.6308 -0.5061
26283SOL    HW190908   7.768   0.562   9.073 -0.3154 -0.6118  0.1420
26283SOL    HW290909   7.719   0.445   8.971  0.5701 -0.2165 -0.7376
26284SOL     OW90910   9.029   3.036   2.918 -0.0694  0.6936 -0.1091
26284SOL    HW190911   8.931   3.044   2.940 -0.7649  1.3942 -3.2195
26284SOL    HW290912   9.083   3.074   2.993 -2.2256  1.3744  1.1473
26285SOL     OW90913   7.411   6.414   3.760  0.4466 -0.6018 -0.2281
26285SOL    HW190914   7.427   6.406   3.661 -0.5582 -1.8615 -0.2989
26285SOL    HW290915   7.494   6.384   3.808  0.4442 -1.3510 -0.6726
26286SOL     OW90916   8.597   5.118   5.233  0.0137 -0.0546  0.5525
26286SOL    HW190917   8.562   5.205   5.268 -0.0838 -0.2173  0.8573
26286SOL    HW290918   8.525   5.048   5.239  0.0925 -0.1590  0.3099
26287SOL     OW90919   3.773   9.220   8.694  0.8606 -0.0521  0.3789
26287SOL    HW190920   3.799   9.279   8.771  0.3818 -1.0996  1.3510
26287SOL    HW290921   3.679   9.188   8.707 -0.1157  1.7967 -1.9193
26288SOL     OW90922   0.197   9.153   0.101 -0.3742  0.1133 -0.4491
26288SOL    HW190923   0.201   9.240   0.150 -0.4625 -0.4235  0.5279
26288SOL    HW290924   0.249   9.084   0.151 -2.1079 -0.9438 -0.0535
26289SOL     OW90925   6.311   4.342   9.246  0.0333 -0.2438  0.6717
26289SOL    HW190926   6.308   4.410   9.174 -1.3172 -0.6786  0.2946
26289SOL    HW290927   6.239   4.361   9.313  0.0824 -0.8965  0.9185
26290SOL     OW90928   3.914   4.230   8.616  0.8231 -0.4385 -0.7004
26290SOL    HW190929   3.950   4.139   8.597  1.9820 -0.4926  1.5663
26290SOL    HW290930   3.977   4.299   8.581  0.5072 -0.5070 -1.4078
26291SOL     OW90931   4.861   6.336   9.476 -0.2680 -0.2710 -0.4624
26291SOL    HW190932   4.833   6.250   9.519  0.3692  0.0969  0.7170
26291SOL    HW290933   4.890   6.401   9.547 -2.4025  1.5382 -1.1799
26292SOL     OW90934   8.817   2.735   6.829 -0.4747  0.0101 -0.3996
26292SOL    HW190935   8.748   2.671   6.795  1.0820 -0.9158 -1.8678
26292SOL    HW290936   8.805   2.824   6.784 -1.4948  0.2411  0.3014
26293SOL     OW90937   3.955   6.723   9.011 -0.3172  0.5912  0.1569
26293SOL    HW190938   4.025   6.719   8.939 -0.6247 -2.5908 -0.0685
26293SOL    HW290939   3.999   6.727   9.100  0.1674 -0.7005 -0.0135
26294SOL     OW90940   7.226   3.344   7.942 -0.2142 -0.3259  0.3285
26294SOL    HW190941   7.245   3.318   7.847 -1.2939 -1.6470  0.4521
26294SOL    HW290942   7.147   3.406   7.944  0.7224  0.8992  0.2597
26295SOL     OW90943   0.398   9.892   9.118  0.1869 -0.3567 -0.2874
26295SOL    HW190944   0.333   9.953   9.164 -0.0170 -0.0009 -1.0445
26295SOL    HW290945   0.350   9.810   9.086  0.3020 -0.5397  0.0008
26296SOL     OW90946   8.232   1.411   9.725  0.3854 -0.1278  0.1399
26296SOL    HW190947   8.174   1.338   9.690  1.8381 -0.7689 -0.9897
26296SOL    HW290948   8.254   1.475   9.651  2.0130 -0.5036  0.2826
26297SOL     OW90949   3.107   3.837   9.394  0.2753  0.4207 -0.1892
26297SOL    HW190950   3.147   3.928   9.403 -1.9709  1.4402 -0.2876
26297SOL    HW290951   3.008   3.842   9.410  0.7235 -2.7263  4.1613
26298SOL     OW90952   8.964   8.595   5.015  0.1676 -0.1825  0.0874
26298SOL    HW190953   9.017   8.667   4.970  1.4648 -1.8256 -1.0864
26298SOL    HW290954   8.889   8.566   4.956 -0.4417  0.2782  0.6204
26299SOL     OW90955   8.917   0.013   6.503  0.0599  0.4384 -0.0725
26299SOL    HW190956   8.996   0.005   6.563  0.7213  0.2883 -0.9419
26299SOL    HW290957   8.895  -0.077   6.464  0.3178  0.7216 -0.8936
26300SOL     OW90958   8.172   4.029   7.423  0.2650 -0.4314  0.3986
26300SOL    HW190959   8.138   3.938   7.448 -0.4050 -0.3848 -0.3524
26300SOL    HW290960   8.220   4.023   7.336 -0.9222  0.1876 -0.3039
26301SOL     OW90961   0.564   3.095   4.467  0.3370  0.2555 -0.0776
26301SOL    HW190962   0.519   3.009   4.490  0.7860  0.2077  0.6318
26301SOL    HW290963   0.587   3.096   4.370  0.4964 -0.5065 -0.0525
26302SOL     OW90964   2.181   2.335   2.564  0.3093  0.1270 -0.1643
26302SOL    HW190965   2.221   2.372   2.648  0.2208  2.3779 -1.0779
26302SOL    HW290966   2.089   2.372   2.551 -0.6900 -2.2099  0.0520
26303SOL     OW90967   9.455   2.281   2.022 -0.5343  0.0526 -0.0018
26303SOL    HW190968   9.453   2.190   2.063  0.3508 -0.4352 -1.0269
26303SOL    HW290969   9.480   2.274   1.926 -1.3938  1.2965 -0.3369
26304SOL     OW90970   7.961   3.536   1.696 -0.0036 -0.2376  0.0606
26304SOL    HW190971   8.017   3.505   1.618  1.1279  0.1246  0.7198
26304SOL    HW290972   7.998   3.621   1.731 -0.6811 -0.2602  0.8294
26305SOL     OW90973   8.019   2.835   9.174 -0.0116 -0.1267 -1.0836
26305SOL    HW190974   7.921   2.851   9.183  0.1759  0.3519  0.2094
26305SOL    HW290975   8.038   2.787   9.088 -1.4441 -0.7731 -1.0455
26306SOL     OW90976   9.332   3.250   4.653  0.2457 -0.0782 -0.3456
26306SOL    HW190977   9.339   3.191   4.572 -1.5302  1.2657 -1.5329
26306SOL    HW290978   9.420   3.294   4.670  0.8370 -0.9578 -1.0901
26307SOL     OW90979   7.479   6.698   6.407 -0.3038 -0.0750  0.0195
26307SOL    HW190980   7.509   6.605   6.389  0.5192  0.2241 -0.1526
26307SOL    HW290981   7.540   6.742   6.472 -0.8588  0.2508  0.3318
26308SOL     OW90982   8.036   7.377   3.417  0.0383 -0.0453  0.3147
26308SOL    HW190983   8.015   7.385   3.319  1.1818  2.4375  0.2329
26308SOL    HW290984   7.957   7.409   3.470  0.0015  0.1099  0.1682
26309SOL     OW90985   7.741   6.236   8.988 -0.5881 -0.3544 -0.0749
26309SOL    HW190986   7.787   6.269   8.906 -0.5055 -1.5544 -0.5265
26309SOL    HW290987   7.651   6.278   8.996  0.3246  1.5717  0.4962
26310SOL     OW90988   8.911   1.994   3.838  0.1606  0.0181  0.2334
26310SOL    HW190989   8.814   1.978   3.821  0.1239 -0.1888  0.6330
26310SOL    HW290990   8.924   2.019   3.934  0.7222 -1.7100  0.6175
26311SOL     OW90991   8.169   4.872   0.854  0.4909 -1.0353 -0.3660
26311SOL    HW190992   8.266   4.892   0.867  0.3563 -1.7182  1.8713
26311SOL    HW290993   8.154   4.832   0.764  1.9853  0.9313 -1.5209
26312SOL     OW90994   0.825   1.876   3.563 -0.2121 -0.3662  0.3898
26312SOL    HW190995   0.891   1.931   3.512  0.4470 -0.4459  1.1452
26312SOL    HW290996   0.736   1.922   3.563  0.1708  0.3924  0.4654
26313SOL     OW90997   2.272   6.734   5.785 -0.6355 -0.3563 -0.3684
26313SOL    HW190998   2.352   6.702   5.835  0.5427 -0.7882 -2.4691
26313SOL    HW290999   2.193   6.739   5.847  1.3077  1.4325  2.0489
26314SOL     OW91000   9.614   2.644   1.286 -0.4358  0.3061  0.1046
26314SOL    HW191001   9.521   2.658   1.320 -0.0716  1.0485  0.7911
26314SOL    HW291002   9.623   2.550   1.251 -1.3328  0.1207  0.3715
26315SOL     OW91003   0.527   0.514   3.079 -0.0183 -0.4976 -0.2981
26315SOL    HW191004   0.624   0.531   3.066  0.4647 -1.1807  2.1815
26315SOL    HW291005   0.495   0.448   3.012  1.3368 -0.6415 -0.8075
26316SOL     OW91006   0.428   6.327   1.575 -0.0279 -0.4180 -0.2971
26316SOL    HW191007   0.514   6.290   1.538  1.7108  0.1629  2.9740
26316SOL    HW291008   0.420   6.423   1.551  1.9740  0.4267  2.1786
26317SOL     OW91009   8.713   8.778   5.521 -0.5603 -0.6216  0.7116
26317SOL    HW191010   8.727   8.709   5.450 -1.1351 -1.3222  1.2656
26317SOL    HW291011   8.791   8.777   5.583 -0.1622 -0.1682  0.2228
26318SOL     OW91012   7.551   9.742   8.144  0.0828  0.0775  0.6118
26318SOL    HW191013   7.523   9.760   8.239 -3.2477  3.1539 -0.8034
26318SOL    HW291014   7.649   9.759   8.135  0.4244 -0.0684  3.4474
26319SOL     OW91015   8.453   8.443   5.392  0.2876 -0.3898  0.6487
26319SOL    HW191016   8.448   8.427   5.490 -0.1595  0.4066  0.7568
26319SOL    HW291017   8.527   8.507   5.372  0.9858 -1.2697  0.3725
26320SOL     OW91018   3.147   1.406   7.077 -0.0714  0.2428  0.4714
26320SOL    HW191019   3.156   1.382   7.174 -0.0251  0.9705  0.6496
26320SOL    HW291020   3.142   1.323   7.022 -1.9350 -0.2079  1.2707
26321SOL     OW91021   5.642   1.091   7.136 -0.3653  0.4873  0.4347
26321SOL    HW191022   5.680   1.095   7.043 -1.9876 -1.1241 -0.3449
26321SOL    HW291023   5.603   1.000   7.151 -0.3413  0.8272  2.6208
26322SOL     OW91024   9.262   9.076   1.649 -0.2566 -0.1901  0.4649
26322SOL    HW191025   9.295   9.134   1.574  0.3742 -1.1250  0.0006
26322SOL    HW291026   9.336   9.061   1.715 -0.3803 -0.5300  0.5296
26323SOL     OW91027   8.454   8.442   6.578  0.6602  0.6618  0.1217
26323SOL    HW191028   8.393   8.483   6.510 -0.2103 -0.4338  0.2238
26323SOL    HW291029   8.495   8.359   6.540 -1.0680 -0.8513  1.4659
26324SOL     OW91030   3.096   1.359   1.443 -0.0098  0.4239  0.4400
26324SOL    HW191031   3.068   1.449   1.477  0.7193  1.0095 -0.4996
26324SOL    HW291032   3.014   1.302   1.432 -0.5371  1.1490  0.5091
26325SOL     OW91033   1.467   1.859   7.842 -0.9780 -0.3789 -0.0008
26325SOL    HW191034   1.406   1.920   7.892 -0.2858  0.6991 -0.4485
26325SOL    HW291035   1.442   1.764   7.861 -1.8263  0.0321  1.0024
26326SOL     OW91036   9.153   1.570   0.888 -0.0589 -0.6272 -0.0450
26326SOL    HW191037   9.188   1.586   0.980 -0.1796  1.2325 -0.3094
26326SOL    HW291038   9.211   1.618   0.822 -1.9309  0.8512 -0.6520
26327SOL     OW91039   1.794   5.494   6.985  0.1716 -0.0302 -0.0812
26327SOL    HW191040   1.806   5.411   6.930  0.7680 -0.1999  0.3110
26327SOL    HW291041   1.706   5.490   7.032  0.2449 -0.4879  0.0181
26328SOL     OW91042   9.171   3.204   7.362 -0.3954  0.1225  0.2289
26328SOL    HW191043   9.099   3.216   7.293  1.0064  0.2797 -1.2572
26328SOL    HW291044   9.200   3.294   7.395  0.3139  0.1660 -0.4786
26329SOL     OW91045   2.692   7.309   1.358 -0.0938  0.3795  0.3664
26329SOL    HW191046   2.636   7.375   1.407  0.4608  0.7785  0.4720
26329SOL    HW291047   2.738   7.249   1.424 -1.9700 -1.2576  0.2124
26330SOL     OW91048   3.138   7.148   5.122  0.5440  0.0466  0.2720
26330SOL    HW191049   3.101   7.081   5.058 -0.0286 -1.0111  1.6784
26330SOL    HW291050   3.064   7.207   5.154  0.5138 -0.4669  1.1747
26331SOL     OW91051   8.613   9.639   9.083  0.2633 -0.4967  0.1452
26331SOL    HW191052   8.636   9.548   9.050  2.3528 -0.1868  0.7040
26331SOL    HW291053   8.623   9.643   9.182  0.4500  0.4195  0.0944
26332SOL     OW91054   5.792   5.031   9.622  0.5783 -0.2995 -0.0174
26332SOL    HW191055   5.732   4.952   9.625  1.1077 -0.7144 -0.1291
26332SOL    HW291056   5.886   5.003   9.645  0.5771  0.4928  0.9890
26333SOL     OW91057   8.253   7.989   4.191  0.1269  0.0886 -0.2099
26333SOL    HW191058   8.338   7.968   4.240  1.0214 -1.0088 -2.1740
26333SOL    HW291059   8.208   8.068   4.233  0.3666 -1.3977  2.9542
26334SOL     OW91060   7.241   3.285   1.256  0.7255  0.2501 -0.0877
26334SOL    HW191061   7.233   3.325   1.347  2.0512  1.4400 -0.4712
26334SOL    HW291062   7.150   3.274   1.216  0.2748  1.9614  0.4275
26335SOL     OW91063   2.137   1.325   6.768  0.4354 -0.1488  0.1447
26335SOL    HW191064   2.097   1.240   6.802 -1.4844  0.0616 -1.4586
26335SOL    HW291065   2.116   1.334   6.670  3.4776  0.5548 -0.4787
26336SOL     OW91066   8.534   6.394   9.039 -0.1219  0.3938  0.2083
26336SOL    HW191067   8.504   6.487   9.060 -2.1456  0.0081 -0.8614
26336SOL    HW291068   8.482   6.329   9.095  0.3047 -0.1629 -0.0410
26337SOL     OW91069   9.200   1.959   7.680 -0.0748  0.3778  0.2205
26337SOL    HW191070   9.273   1.951   7.612  2.1593  2.3412  2.3023
26337SOL    HW291071   9.190   2.054   7.707  1.4299 -0.7171  5.0855
26338SOL     OW91072   9.383   0.176   0.111  0.2427  0.1670  0.2909
26338SOL    HW191073   9.449   0.250   0.126  1.4752 -0.8056 -0.1972
26338SOL    HW291074   9.402   0.101   0.174  1.5458 -1.3656 -1.8295
26339SOL     OW91075   2.746   9.421   9.614  0.4171  0.4116 -0.0337
26339SOL    HW191076   2.794   9.339   9.583 -1.9994 -1.0896  0.0395
26339SOL    HW291077   2.797   9.464   9.688  2.3365 -0.3412 -0.8902
26340SOL     OW91078   3.701   1.710   3.220  0.3982  0.1963  0.0391
26340SOL    HW191079   3.677   1.631   3.164 -0.7830  0.5092  0.0960
26340SOL    HW291080   3.692   1.687   3.317  0.1165  0.3737  0.0569
26341SOL     OW91081   3.896   8.095   3.705 -0.0655  0.1478 -0.3619
26341SOL    HW191082   3.961   8.031   3.746 -1.1447 -0.6111  0.1822
26341SOL    HW291083   3.908   8.095   3.606  1.2580  0.5518 -0.2003
26342SOL     OW91084   9.661   5.538   8.224 -0.2883 -0.6071 -0.0802
26342SOL    HW191085   9.599   5.600   8.175 -0.2612  0.2735  0.9759
26342SOL    HW291086   9.755   5.573   8.218 -0.0922 -1.1936 -0.4959
26343SOL     OW91087   8.565   2.418   1.158 -0.7799  0.0476 -0.0365
26343SOL    HW191088   8.482   2.364   1.168 -1.0818  0.4504 -0.3795
26343SOL    HW291089   8.618   2.415   1.243 -1.9888  1.2248  0.7634
26344SOL     OW91090   6.392   2.206   5.435 -0.1820 -0.2921  0.3312
26344SOL    HW191091   6.344   2.274   5.381  0.1076  0.0420  0.4950
26344SOL    HW291092   6.489   2.207   5.412 -0.0638 -0.1710  0.8300
26345SOL     OW91093   0.352   3.813   2.455 -0.2361  0.2356  0.2206
26345SOL    HW191094   0.391   3.776   2.539  1.4779  0.2037 -0.5623
26345SOL    HW291095   0.385   3.759   2.377  1.2492  2.5661 -0.8179
26346SOL     OW91096   0.374   7.820   2.396  0.2068  0.0156  0.0227
26346SOL    HW191097   0.436   7.877   2.449  2.5516 -1.6642 -0.8589
26346SOL    HW291098   0.365   7.731   2.439  2.3079 -1.4542 -2.4116
26347SOL     OW91099   4.536   1.556   7.902 -0.2028  0.6268 -0.0292
26347SOL    HW191100   4.568   1.626   7.966 -1.1752 -1.4163  2.8018
26347SOL    HW291101   4.437   1.543   7.914 -0.2082 -0.4950 -1.2105
26348SOL     OW91102   9.271   1.342   2.498 -0.7387 -0.1996  0.6020
26348SOL    HW191103   9.314   1.432   2.506  0.2191 -0.4807 -1.2346
26348SOL    HW291104   9.228   1.333   2.409 -1.6954 -1.2036  1.1477
26349SOL     OW91105   4.014   0.180   5.700 -0.4013  0.0820 -0.2161
26349SOL    HW191106   3.990   0.175   5.604 -0.9617  0.0972 -0.0781
26349SOL    HW291107   4.055   0.269   5.720  2.6272 -1.0494 -1.0900
26350SOL     OW91108   2.985   6.981   6.676 -0.4009  0.0138  0.3051
26350SOL    HW191109   2.893   6.942   6.683 -0.4677  0.2371  0.6973
26350SOL    HW291110   3.036   6.935   6.604 -0.4355 -0.8744  0.8486
26351SOL     OW91111   6.855   1.450   8.605  0.3449  0.0576  0.4884
26351SOL    HW191112   6.844   1.549   8.597  0.7287  0.1996  1.5907
26351SOL    HW291113   6.928   1.430   8.670  1.1299 -0.9471 -0.6840
26352SOL     OW91114   3.539   5.001   8.763 -0.0699  0.5491  0.4026
26352SOL    HW191115   3.617   4.946   8.793  1.0862  1.2045 -1.3421
26352SOL    HW291116   3.473   5.009   8.838  0.9142 -1.1204  1.4672
26353SOL     OW91117   3.756   3.564   5.334 -0.0012 -0.1145 -0.0889
26353SOL    HW191118   3.754   3.524   5.426 -2.4345  0.4618  0.1407
26353SOL    HW291119   3.764   3.664   5.342  0.3464 -0.1074 -0.5213
26354SOL     OW91120   6.464   0.410   7.038 -0.1229  0.8194  0.3609
26354SOL    HW191121   6.475   0.493   6.984 -0.9779  0.7230  0.0305
26354SOL    HW291122   6.547   0.355   7.031  0.2116  1.3520  0.0828
26355SOL     OW91123   6.185   2.345   9.905 -0.0576  0.2950 -0.2134
26355SOL    HW191124   6.142   2.277   9.847  1.1308 -0.3248 -0.3952
26355SOL    HW291125   6.261   2.303   9.955  0.1043  1.2608  0.3798
26356SOL     OW91126   0.363   1.211   9.055  0.3733 -0.5158  0.5988
26356SOL    HW191127   0.311   1.289   9.090 -1.0888 -0.7772 -0.9139
26356SOL    HW291128   0.461   1.234   9.054 -0.0053  1.2130  0.3983
26357SOL     OW91129   9.737   1.459   4.896 -0.3363  0.1335  0.0750
26357SOL    HW191130   9.649   1.430   4.858 -0.3679 -1.3278  1.2219
26357SOL    HW291131   9.804   1.386   4.885  0.1466  0.4047  1.1888
26358SOL     OW91132   1.322   3.815   1.800 -0.0637  0.1903 -0.0842
26358SOL    HW191133   1.410   3.820   1.753 -0.3319  2.0507 -0.4436
26358SOL    HW291134   1.325   3.872   1.883 -0.7152 -0.2582  0.2530
26359SOL     OW91135   9.207   9.882   3.572  0.0210 -0.4375  0.1151
26359SOL    HW191136   9.241   9.788   3.573  1.3987  0.0373 -1.1842
26359SOL    HW291137   9.273   9.941   3.527 -2.3676  0.5663 -2.2024
26360SOL     OW91138   3.328   7.167   8.180  0.1534 -0.5742 -0.1523
26360SOL    HW191139   3.300   7.248   8.129 -3.7273 -2.2494 -0.8014
26360SOL    HW291140   3.253   7.102   8.183  2.4066 -3.1612  2.4232
26361SOL     OW91141   2.407   0.029   4.858 -0.1679  0.0290 -0.9420
26361SOL    HW191142   2.494   0.019   4.811 -0.5871 -0.8183 -1.5543
26361SOL    HW291143   2.397  -0.044   4.926 -0.2801  0.2819 -0.6862
26362SOL     OW91144   1.439   0.309   0.367 -0.4713 -0.3006 -0.3343
26362SOL    HW191145   1.454   0.231   0.428  1.2065 -0.1149 -0.5025
26362SOL    HW291146   1.490   0.297   0.283  0.0261  1.1052 -0.2558
26363SOL     OW91147   2.879   8.624   4.349  0.3427 -0.3239 -0.1600
26363SOL    HW191148   2.973   8.590   4.347  0.6560  0.6092 -2.2763
26363SOL    HW291149   2.880   8.724   4.341 -0.8632 -0.4025 -1.4536
26364SOL     OW91150   4.069   1.671   3.261 -0.1775 -0.9859  0.4354
26364SOL    HW191151   4.138   1.703   3.197  1.6148 -2.6431  1.4787
26364SOL    HW291152   4.019   1.594   3.220 -0.3053 -0.8310  0.3006
26365SOL     OW91153   9.914   5.666   1.091  0.1809 -0.3064  0.4148
26365SOL    HW191154   9.939   5.602   1.019 -0.0048 -1.4407  1.3403
26365SOL    HW291155   9.979   5.742   1.092 -0.3010  0.1656 -1.4756
26366SOL     OW91156   4.610   3.053   9.184  0.6251  0.3314 -0.4022
26366SOL    HW191157   4.701   3.014   9.171 -0.0075 -1.0560 -0.7715
26366SOL    HW291158   4.618   3.151   9.201  2.2413  0.0674  0.4333
26367SOL     OW91159   2.423   4.722   4.169  0.2653  0.1808  1.3696
26367SOL    HW191160   2.344   4.779   4.145  0.6611 -0.5233 -1.8625
26367SOL    HW291161   2.392   4.629   4.191  0.1691 -0.2197 -0.3461
26368SOL     OW91162   1.196   7.636   5.535  0.3578 -0.1189 -0.2615
26368SOL    HW191163   1.293   7.618   5.524  0.6960  0.7536  1.2238
26368SOL    HW291164   1.182   7.732   5.556 -0.6216 -0.7050  1.9086
26369SOL     OW91165   9.922   8.007   7.032 -0.0664  0.2126 -0.0196
26369SOL    HW191166  10.010   7.977   7.069  0.1173 -0.0341 -0.6409
26369SOL    HW291167   9.902   8.100   7.063  0.6939  0.4867 -0.3654
26370SOL     OW91168   5.743   8.173   6.696 -0.0802  0.0903  0.2534
26370SOL    HW191169   5.664   8.157   6.637 -0.4567 -1.0508  1.0560
26370SOL    HW291170   5.815   8.107   6.675 -0.1548 -0.2237  0.9414
26371SOL     OW91171   2.442   0.692   0.872 -0.0944 -0.1143  0.1084
26371SOL    HW191172   2.358   0.682   0.925 -1.2983 -0.3148 -1.7859
26371SOL    HW291173   2.520   0.694   0.933 -1.4304 -0.6283  1.8630
26372SOL     OW91174   8.696   9.025   9.302 -0.5691 -0.3680 -0.2105
26372SOL    HW191175   8.752   9.008   9.222  0.0592  0.2611  0.0929
26372SOL    HW291176   8.646   9.111   9.291 -0.5255 -0.3070  0.0505
26373SOL     OW91177   3.068   7.497   4.405  0.2573 -0.5755  0.1898
26373SOL    HW191178   3.077   7.533   4.499 -0.7782 -1.0005  0.4541
26373SOL    HW291179   3.154   7.512   4.356  0.6027  0.2218  1.0105
26374SOL     OW91180   3.953   9.220   7.506 -0.0019  0.3219 -0.0085
26374SOL    HW191181   3.916   9.302   7.550  0.3497  0.2833  0.3597
26374SOL    HW291182   3.891   9.191   7.433 -0.9549 -0.0194  0.9263
26375SOL     OW91183   7.639   3.242   8.636 -0.1613 -0.1620 -0.0698
26375SOL    HW191184   7.579   3.320   8.615 -1.9242 -2.0163 -2.1319
26375SOL    HW291185   7.627   3.217   8.732 -0.2187  1.5636  0.3920
26376SOL     OW91186   2.495   3.304   5.595 -0.2885 -0.0645 -0.6922
26376SOL    HW191187   2.415   3.345   5.552 -1.9285 -0.2414  2.0616
26376SOL    HW291188   2.550   3.375   5.638 -0.9085 -0.2783  0.4868
26377SOL     OW91189   2.551   0.985   2.920  0.2411 -0.6551  0.4902
26377SOL    HW191190   2.625   0.991   2.853 -1.2005  1.0331 -0.9989
26377SOL    HW291191   2.573   1.044   2.998 -0.2134  1.0899 -0.6642
26378SOL     OW91192   9.010   9.858   5.238  0.0067  0.0355  0.0762
26378SOL    HW191193   9.038   9.897   5.325  1.0410  1.5950 -0.9407
26378SOL    HW291194   8.971   9.930   5.180 -2.2791 -1.3016 -0.1115
26379SOL     OW91195   1.000   8.557   5.953  0.2538  0.8219 -0.0583
26379SOL    HW191196   1.042   8.630   6.007  0.7018  1.3677 -1.1316
26379SOL    HW291197   1.008   8.579   5.856 -2.1933  0.7463 -0.2915
26380SOL     OW91198   3.705   2.234   1.309  0.3254 -0.1975  0.1133
26380SOL    HW191199   3.741   2.189   1.227 -0.5851 -0.4274 -0.1679
26380SOL    HW291200   3.761   2.315   1.330  2.4295 -1.8580  1.0572
26381SOL     OW91201   0.050   7.617   2.364  0.0772 -0.3540  0.1941
26381SOL    HW191202   0.132   7.565   2.388  0.0646 -0.9363 -0.9895
26381SOL    HW291203   0.076   7.704   2.323  0.1024 -0.2997  0.3259
26382SOL     OW91204   4.243   7.892   5.580  0.7671 -0.4630 -0.0382
26382SOL    HW191205   4.152   7.905   5.620  0.8332 -0.0183 -0.0296
26382SOL    HW291206   4.234   7.859   5.486  0.5590  1.5264 -0.7396
26383SOL     OW91207   9.089   1.870   4.686 -0.4162  0.4723  0.0233
26383SOL    HW191208   9.011   1.912   4.732 -0.3551  1.8348 -1.0806
26383SOL    HW291209   9.072   1.867   4.588  1.2135  1.4504 -0.3066
26384SOL     OW91210   9.072   3.352   4.653 -0.3792 -0.6620  0.7412
26384SOL    HW191211   9.133   3.273   4.664 -1.3485 -1.5332  0.0198
26384SOL    HW291212   9.123   3.429   4.616  0.1248 -1.6597 -0.7231
26385SOL     OW91213   6.318   2.555   0.040 -0.3581  0.2506  0.4509
26385SOL    HW191214   6.253   2.554  -0.036  0.0694  1.6046  0.0399
26385SOL    HW291215   6.292   2.486   0.107 -1.0845 -0.5520 -0.6383
26386SOL     OW91216   1.996   2.369   1.904 -0.0363 -0.3586 -0.3422
26386SOL    HW191217   2.076   2.311   1.890  0.9768  1.0667 -0.6145
26386SOL    HW291218   1.935   2.360   1.825  1.3025  0.7826 -1.5353
26387SOL     OW91219   2.097   7.019   1.503 -0.3627 -0.2778 -0.5969
26387SOL    HW191220   2.157   7.003   1.581 -2.4805 -0.0037  1.1003
26387SOL    HW291221   2.067   7.114   1.502 -2.6176 -0.9560 -0.0870
26388SOL     OW91222   7.533   4.366   4.018  0.0722  0.0158  0.2291
26388SOL    HW191223   7.612   4.427   4.017 -0.3224  0.5268 -0.7165
26388SOL    HW291224   7.450   4.420   4.003 -0.1348 -0.9598 -2.3370
26389SOL     OW91225   0.304   7.159   2.162 -0.4055  0.1417 -0.8511
26389SOL    HW191226   0.374   7.088   2.169 -0.4588  0.0544 -1.1915
26389SOL    HW291227   0.260   7.154   2.072 -1.5552 -0.4634 -0.2680
26390SOL     OW91228   6.751   9.834   7.408  0.0545  0.3913 -0.3899
26390SOL    HW191229   6.702   9.776   7.343 -0.0648  1.6084 -1.4065
26390SOL    HW291230   6.813   9.894   7.359  1.5032 -0.1123  0.7882
26391SOL     OW91231   8.188   1.287   8.542 -0.6354 -0.0007 -0.2355
26391SOL    HW191232   8.233   1.202   8.516 -1.0597 -0.2558 -0.1378
26391SOL    HW291233   8.253   1.363   8.534  0.0935 -0.4977  0.8557
26392SOL     OW91234   9.506   6.459   5.360 -0.2582  0.3469  0.1743
26392SOL    HW191235   9.469   6.376   5.402  0.5712  0.1857  0.5840
26392SOL    HW291236   9.587   6.435   5.306  0.4366  1.0200  0.9316
26393SOL     OW91237   2.963   4.244   5.525 -0.1137 -0.0729 -0.0822
26393SOL    HW191238   3.021   4.167   5.551 -1.6140 -1.0160  0.5375
26393SOL    HW291239   2.975   4.263   5.428  2.7850  1.1037  0.4453
26394SOL     OW91240   2.778   8.050   7.336  0.4568 -0.3410 -0.0058
26394SOL    HW191241   2.802   7.958   7.305  2.1508  0.0876 -0.0258
26394SOL    HW291242   2.861   8.105   7.343 -0.8770  2.3399 -3.7395
26395SOL     OW91243   6.216   2.438   2.751 -0.0642  0.4088  0.3516
26395SOL    HW191244   6.254   2.348   2.773 -0.7799  0.0564  0.1457
26395SOL    HW291245   6.214   2.494   2.834 -1.4635 -0.4428  0.9155
26396SOL     OW91246   6.931   2.647   1.785 -0.1997 -0.1435 -0.2013
26396SOL    HW191247   6.895   2.554   1.794 -0.0914 -0.3961 -2.1944
26396SOL    HW291248   6.854   2.711   1.781 -0.3331 -0.3281 -0.6601
26397SOL     OW91249   7.917   8.612   8.645 -0.9779 -0.1544 -0.1240
26397SOL    HW191250   7.855   8.569   8.579  3.2865 -2.3508 -2.8805
26397SOL    HW291251   7.917   8.711   8.631 -1.3830 -0.4422 -2.2705
26398SOL     OW91252   3.844   3.506   9.357  0.3369  0.7208  0.1366
26398SOL    HW191253   3.804   3.424   9.397  1.3856  0.8472  1.4563
26398SOL    HW291254   3.906   3.481   9.283  1.8050  0.2400  1.5221
26399SOL     OW91255   1.244   5.732   8.010  0.0088 -0.5342  1.2898
26399SOL    HW191256   1.164   5.715   8.067 -0.5320  0.4736  0.8468
26399SOL    HW291257   1.278   5.646   7.972 -2.0316 -0.7594 -0.0867
26400SOL     OW91258   1.340   5.970   9.275  0.1313  0.1600  0.1737
26400SOL    HW191259   1.361   6.057   9.320  1.1391  0.1316 -0.2259
26400SOL    HW291260   1.396   5.961   9.193 -1.5939  0.1408 -1.0268
26401SOL     OW91261   0.214   4.315   3.833 -0.1411  0.5395  0.2994
26401SOL    HW191262   0.117   4.293   3.822 -0.3228  1.2240  0.4573
26401SOL    HW291263   0.222   4.407   3.873  0.5963  1.1365 -1.1981
26402SOL     OW91264   1.338   8.480   6.784 -0.3805 -0.8404 -0.3706
26402SOL    HW191265   1.379   8.497   6.873 -0.2133  1.1911 -0.8064
26402SOL    HW291266   1.253   8.428   6.795 -0.9902  0.4428  1.0768
26403SOL     OW91267   1.039   9.511   8.338  0.3022  0.2227 -0.5429
26403SOL    HW191268   1.027   9.608   8.358  1.0464  1.3412 -4.9453
26403SOL    HW291269   0.966   9.458   8.382 -0.7676  2.8932  0.9666
26404SOL     OW91270   8.467   8.868   9.324  0.5305  0.6878 -0.1875
26404SOL    HW191271   8.422   8.923   9.394  0.2740 -0.5047  0.5984
26404SOL    HW291272   8.566   8.883   9.328  0.5687  0.1946  0.8024
26405SOL     OW91273   6.860   9.290   2.461  0.4493 -0.3841  0.4028
26405SOL    HW191274   6.915   9.372   2.473  0.2705 -0.4777  1.9831
26405SOL    HW291275   6.900   9.215   2.516 -0.3752 -0.8698  0.3455
26406SOL     OW91276   4.910   2.774   5.604 -0.1383 -0.1641 -0.2087
26406SOL    HW191277   4.925   2.871   5.624  2.5241 -0.4581 -0.6257
26406SOL    HW291278   4.929   2.757   5.507  4.2788 -1.9632  0.8682
26407SOL     OW91279   4.265   1.883   4.316  0.3669  0.8569 -0.6918
26407SOL    HW191280   4.319   1.926   4.388  0.2715 -0.0163 -0.0927
26407SOL    HW291281   4.177   1.930   4.308  0.2297  0.7275  0.0159
26408SOL     OW91282   9.620   3.453   3.992 -0.1055  0.3991 -0.3278
26408SOL    HW191283   9.617   3.363   3.948  1.5781  0.8958 -1.5488
26408SOL    HW291284   9.653   3.443   4.086 -0.9289 -0.3631 -0.1103
26409SOL     OW91285   6.729   8.651   2.696 -0.2005  0.4826  0.1641
26409SOL    HW191286   6.734   8.687   2.789  0.7686  0.9382 -0.0564
26409SOL    HW291287   6.816   8.608   2.672 -0.7443 -0.4020 -0.2265
26410SOL     OW91288   3.390   3.337   5.167  0.3842  0.5567 -0.2404
26410SOL    HW191289   3.315   3.322   5.231  1.0416  1.3926  0.7341
26410SOL    HW291290   3.399   3.257   5.107 -0.9804  0.2641 -0.0653
26411SOL     OW91291   1.001   8.003   1.957  0.1351 -0.1960 -0.2120
26411SOL    HW191292   1.089   8.050   1.958  0.0316 -0.0058  0.1599
26411SOL    HW291293   0.939   8.048   1.893  0.0333  0.1834  0.1515
26412SOL     OW91294   9.565   0.486   5.735  0.0188  0.3309 -0.0741
26412SOL    HW191295   9.499   0.435   5.791 -0.2057 -0.0815 -0.7022
26412SOL    HW291296   9.626   0.421   5.690  0.4897  0.6862  0.0489
26413SOL     OW91297   3.933   3.307   6.158  0.4596  0.0378  0.1669
26413SOL    HW191298   3.963   3.401   6.174  2.1178 -0.1589 -1.5951
26413SOL    HW291299   4.012   3.246   6.157 -0.7121 -1.6032  2.5474
26414SOL     OW91300   4.473   4.548   6.377 -0.1008  0.1150 -0.1385
26414SOL    HW191301   4.439   4.602   6.454  0.8136 -0.4600  0.6913
26414SOL    HW291302   4.511   4.609   6.308  1.5925  0.5411  1.1175
26415SOL     OW91303   4.582   5.494   8.738  0.4886 -0.2144 -0.5515
26415SOL    HW191304   4.624   5.537   8.818  0.5990  0.1971 -0.8303
26415SOL    HW291305   4.609   5.397   8.736 -0.0738 -0.3990  0.2835
26416SOL     OW91306   4.677   2.012   4.893  0.5757  0.4440  0.2005
26416SOL    HW191307   4.712   2.095   4.937 -2.4313  1.3639  0.9929
26416SOL    HW291308   4.579   2.022   4.877  0.8223 -1.5803 -2.9438
26417SOL     OW91309   7.891   9.305   6.429  0.1102  0.2971  0.0302
26417SOL    HW191310   7.978   9.274   6.391 -1.3991 -1.8173 -1.8498
26417SOL    HW291311   7.856   9.380   6.373 -0.3969 -0.4468 -0.6658
26418SOL     OW91312   8.077   7.603   7.253 -0.2657 -0.3472 -0.1512
26418SOL    HW191313   8.070   7.675   7.184  0.8997 -0.0604  0.0350
26418SOL    HW291314   8.053   7.515   7.211 -1.7683  0.1471 -0.3574
26419SOL     OW91315   5.186   0.957   4.242  0.2065 -0.5176 -0.0831
26419SOL    HW191316   5.140   0.924   4.325  1.3568  1.8782  1.5685
26419SOL    HW291317   5.237   0.882   4.201 -1.3570 -2.0477  0.6856
26420SOL     OW91318   1.481   0.663   5.558 -0.3596  0.5436  0.2253
26420SOL    HW191319   1.474   0.574   5.603  1.8619 -0.2063 -0.8260
26420SOL    HW291320   1.550   0.719   5.606 -0.8028  1.1996  0.1010
26421SOL     OW91321   9.590   2.523   2.925  0.1861  0.3351  0.0275
26421SOL    HW191322   9.517   2.518   2.857 -0.7068 -0.0839  1.0012
26421SOL    HW291323   9.557   2.574   3.005  1.2995  1.0262  0.0587
26422SOL     OW91324   6.121   2.605   1.167 -0.6822 -0.0930  0.2027
26422SOL    HW191325   6.120   2.505   1.168 -2.3522 -0.0792  1.9673
26422SOL    HW291326   6.092   2.638   1.077  1.5963 -1.1705 -0.9742
26423SOL     OW91327   9.666   5.623   7.155  0.0080 -0.4555  0.1676
26423SOL    HW191328   9.728   5.629   7.077 -0.4603 -1.0768 -0.2564
26423SOL    HW291329   9.571   5.620   7.122 -0.1120 -2.7960  0.6521
26424SOL     OW91330   7.697   6.637   3.489  0.0502 -0.1162  0.0747
26424SOL    HW191331   7.734   6.727   3.514  1.7204 -0.5802 -0.6839
26424SOL    HW291332   7.728   6.570   3.556 -0.3329 -0.3089  0.0550
26425SOL     OW91333   0.377   0.127   8.685  0.5446  0.0142 -0.6109
26425SOL    HW191334   0.476   0.124   8.698  0.6961 -2.1768 -2.0744
26425SOL    HW291335   0.355   0.121   8.588 -1.0014  2.3431 -0.4567
26426SOL     OW91336   6.979   1.103   1.078 -0.3391 -0.1545  0.2309
26426SOL    HW191337   6.905   1.169   1.063  0.1857  0.4890  0.4705
26426SOL    HW291338   6.966   1.025   1.017 -1.7521 -0.4964  0.9478
26427SOL     OW91339   9.105   2.029   5.408 -0.4092  0.5715 -0.2960
26427SOL    HW191340   9.189   2.084   5.407  0.3327 -0.4577  2.3815
26427SOL    HW291341   9.102   1.973   5.325  1.2676  1.0136 -0.6795
26428SOL     OW91342   3.083   0.701   7.608  0.1943  0.3461  0.3465
26428SOL    HW191343   3.110   0.770   7.675  1.5269  0.7911 -0.6576
26428SOL    HW291344   3.164   0.662   7.565 -0.3680 -3.3759  2.3854
26429SOL     OW91345   1.508   5.054   1.990 -0.2479  0.2593 -0.0720
26429SOL    HW191346   1.550   5.089   2.074 -1.3565  1.8451 -0.1672
26429SOL    HW291347   1.451   4.974   2.012 -1.3031  1.2432  0.8386
26430SOL     OW91348   2.989   9.235   5.356  0.2400 -0.0078  0.5209
26430SOL    HW191349   2.981   9.327   5.316 -1.2184 -0.5310 -0.4411
26430SOL    HW291350   3.030   9.174   5.288  1.0272 -0.1111  1.0923
26431SOL     OW91351   8.799   0.689   1.926  0.0167  0.2589  0.4525
26431SOL    HW191352   8.736   0.612   1.934  0.8917 -0.4696  0.4465
26431SOL    HW291353   8.813   0.711   1.829  0.3281 -0.0481  0.4264
26432SOL     OW91354   1.807   6.614   6.985  0.3099 -0.3865 -0.5969
26432SOL    HW191355   1.770   6.701   7.016  0.4683 -0.0697 -1.2927
26432SOL    HW291356   1.739   6.566   6.929  0.4751 -0.3896 -0.7987
26433SOL     OW91357   1.120   6.934   4.106 -0.1660 -0.1463 -0.5916
26433SOL    HW191358   1.052   6.874   4.149  0.3301  0.0694  0.5108
26433SOL    HW291359   1.077   6.984   4.030 -0.4689 -2.2422 -1.8560
26434SOL     OW91360   8.884   3.451   6.620  0.4750 -0.3989  0.5416
26434SOL    HW191361   8.971   3.502   6.617  0.9421 -1.2719 -1.5407
26434SOL    HW291362   8.816   3.506   6.668  1.5238  1.3590  0.0978
26435SOL     OW91363   0.037   5.972   5.760 -0.1862  0.5040 -0.7193
26435SOL    HW191364   0.106   5.903   5.738 -0.7770 -0.1177 -0.6140
26435SOL    HW291365  -0.034   5.932   5.818 -1.2874  0.8198 -1.8331
26436SOL     OW91366   2.003   7.909   5.484  0.1241 -0.2415 -0.4022
26436SOL    HW191367   2.028   7.845   5.412 -1.0173 -0.5210 -0.5559
26436SOL    HW291368   1.909   7.940   5.470  0.0813  0.1175  0.6534
26437SOL     OW91369   7.415   5.562   1.540 -0.3100 -0.3288  0.3071
26437SOL    HW191370   7.381   5.497   1.608  1.4352  0.2079  1.7618
26437SOL    HW291371   7.506   5.533   1.509 -0.4083  0.2933 -0.5884
26438SOL     OW91372   0.387   2.379   1.964 -0.4783  0.2321  0.0215
26438SOL    HW191373   0.393   2.471   2.004 -2.2184  0.3188  0.1305
26438SOL    HW291374   0.381   2.311   2.038  0.7552  0.0346 -0.0598
26439SOL     OW91375   2.259   8.714   9.262 -0.0159 -0.0163 -0.9181
26439SOL    HW191376   2.288   8.624   9.294 -1.8498  0.5518  2.6169
26439SOL    HW291377   2.300   8.785   9.319 -0.1693  1.3094 -2.4037
26440SOL     OW91378   9.124   2.889   3.904 -0.7493  0.5476  0.2840
26440SOL    HW191379   9.064   2.894   3.983 -0.7211  0.1572  0.3312
26440SOL    HW291380   9.070   2.874   3.821 -0.6996 -0.0914  0.3618
26441SOL     OW91381   8.967   3.951   3.393 -0.5410  0.0349  0.3028
26441SOL    HW191382   8.942   3.857   3.369  0.9331 -0.5684  1.1076
26441SOL    HW291383   9.025   3.951   3.474  1.2857  1.4754 -0.9580
26442SOL     OW91384   3.523   9.594   3.311 -0.0399 -0.4804 -0.2120
26442SOL    HW191385   3.567   9.550   3.233 -0.7774 -1.4254 -0.0941
26442SOL    HW291386   3.510   9.527   3.384 -1.9346 -0.2760 -0.3440
26443SOL     OW91387   1.427   2.594   1.507  0.1974  0.5796  0.4292
26443SOL    HW191388   1.410   2.692   1.514 -0.5940  0.3197  2.5055
26443SOL    HW291389   1.346   2.544   1.537  0.5612 -0.7129 -0.6984
26444SOL     OW91390   9.362   8.324   3.223  0.1945  0.0077 -0.5098
26444SOL    HW191391   9.283   8.263   3.218  0.5527 -0.6807  1.7158
26444SOL    HW291392   9.434   8.282   3.278  2.0722  0.6895 -2.3952
26445SOL     OW91393   5.658   2.693   8.146  0.3980 -0.1406  0.2733
26445SOL    HW191394   5.720   2.628   8.101 -0.8630 -0.1280 -1.5242
26445SOL    HW291395   5.710   2.746   8.214  1.8266 -1.7666  0.5009
26446SOL     OW91396   1.872   5.230   2.498  0.0390 -0.1115 -0.7104
26446SOL    HW191397   1.794   5.179   2.534  1.0035  0.2282  2.0209
26446SOL    HW291398   1.956   5.181   2.520  0.8427  1.5951  0.1414
26447SOL     OW91399   3.885   7.176   5.886 -0.0162  0.4091  0.5301
26447SOL    HW191400   3.816   7.165   5.957  0.5176  1.0983  1.1729
26447SOL    HW291401   3.970   7.130   5.914 -0.4906 -1.2475 -0.6753
26448SOL     OW91402   4.213   7.514   0.437 -0.2573 -0.3368  0.4553
26448SOL    HW191403   4.137   7.578   0.424 -0.0789 -0.3308 -0.5787
26448SOL    HW291404   4.191   7.427   0.393  1.0001  0.1928 -1.2768
26449SOL     OW91405   1.692   7.269   2.637 -0.0842  0.3734  0.5087
26449SOL    HW191406   1.760   7.268   2.710 -1.1354  0.3712  1.5014
26449SOL    HW291407   1.711   7.345   2.575  1.1675  0.0139  0.4335
26450SOL     OW91408   7.705   8.790   5.751 -0.1376 -0.0848 -0.0070
26450SOL    HW191409   7.733   8.870   5.804  1.2374  0.1504 -1.0678
26450SOL    HW291410   7.649   8.819   5.673  0.2554 -0.1529 -0.3208
26451SOL     OW91411   1.326   8.158   1.086 -0.1246 -0.4233 -0.0918
26451SOL    HW191412   1.404   8.202   1.041 -0.6094 -0.4665 -0.9736
26451SOL    HW291413   1.359   8.083   1.144  0.5185 -0.2613 -0.2465
26452SOL     OW91414   6.342   5.070   2.161 -0.0230 -0.0595  0.4781
26452SOL    HW191415   6.245   5.086   2.144 -0.4371 -2.0447  0.8461
26452SOL    HW291416   6.353   4.985   2.212  1.8341  0.8582  1.6559
26453SOL     OW91417   1.124   3.996   0.255  0.2902 -0.2854  0.1335
26453SOL    HW191418   1.074   3.936   0.318 -0.3599 -0.0823 -0.1848
26453SOL    HW291419   1.059   4.052   0.204  0.8132 -0.3742 -0.6419
26454SOL     OW91420   8.052   5.939   2.281  0.1859  0.1793 -0.7083
26454SOL    HW191421   7.962   5.901   2.262  0.6266 -0.8774 -0.7535
26454SOL    HW291422   8.064   6.024   2.230  0.1838 -1.0211 -2.7675
26455SOL     OW91423   7.606   5.170   6.965  0.0920 -0.6265 -0.3017
26455SOL    HW191424   7.583   5.074   6.978 -0.6899 -0.3500  0.3201
26455SOL    HW291425   7.531   5.216   6.917  0.1715 -0.1620  0.0245
26456SOL     OW91426   8.767   6.375   2.850  0.2068 -0.3924 -0.2929
26456SOL    HW191427   8.746   6.279   2.831 -0.8457 -0.1197 -0.5256
26456SOL    HW291428   8.740   6.397   2.944  0.8136 -0.4226 -0.1074
26457SOL     OW91429   4.747   9.173   8.747  0.1617 -0.0198 -0.0024
26457SOL    HW191430   4.775   9.190   8.842  2.7342 -0.7258 -0.5747
26457SOL    HW291431   4.683   9.096   8.744  0.2217 -0.1214  1.1631
26458SOL     OW91432   9.250   9.194   9.898 -0.3056  0.4164  0.2425
26458SOL    HW191433   9.293   9.114   9.856 -1.7504 -0.2595  0.0264
26458SOL    HW291434   9.160   9.209   9.857 -0.8195  1.0438  1.5614
26459SOL     OW91435   7.519   7.968   6.214 -0.1241 -0.0031 -0.6586
26459SOL    HW191436   7.540   8.053   6.263  0.5278 -0.0161 -0.9055
26459SOL    HW291437   7.428   7.973   6.175 -0.2068  0.4611 -0.4099
26460SOL     OW91438   3.937   7.431   4.467 -0.5178 -0.5061  0.2255
26460SOL    HW191439   3.967   7.512   4.517  0.7173 -1.2039  0.6515
26460SOL    HW291440   3.954   7.350   4.523  1.9497 -1.4096 -1.7378
26461SOL     OW91441   2.356   0.862   4.683 -0.1627  0.2122 -0.0632
26461SOL    HW191442   2.373   0.881   4.780 -0.9828  2.0268 -0.2617
26461SOL    HW291443   2.435   0.893   4.629 -0.7578  1.5040 -0.2106
26462SOL     OW91444   1.930   6.882   6.744  0.6465  0.1758  0.1572
26462SOL    HW191445   1.895   6.912   6.833  1.0943  0.1928  0.3295
26462SOL    HW291446   1.923   6.957   6.678  0.6222  0.2690  0.2660
26463SOL     OW91447   5.708   0.097   6.670 -0.4666 -0.4066 -0.9037
26463SOL    HW191448   5.733   0.020   6.729 -0.2268  0.4386  0.1018
26463SOL    HW291449   5.715   0.182   6.722  0.7117  0.4452 -2.4236
26464SOL     OW91450   7.306   1.533   3.477 -0.0232  0.7133  0.3186
26464SOL    HW191451   7.286   1.630   3.487  0.5783  0.7337  1.4358
26464SOL    HW291452   7.226   1.486   3.439 -0.5270  1.5426  0.3454
26465SOL     OW91453   1.275   6.937   9.659 -0.0058  0.1015 -0.0590
26465SOL    HW191454   1.189   6.887   9.667  1.3490 -2.2629  0.1125
26465SOL    HW291455   1.286   6.997   9.739 -1.2433  0.0375  0.1686
26466SOL     OW91456   0.564   3.217   2.125  0.3680  0.5888 -0.0778
26466SOL    HW191457   0.662   3.231   2.143  0.5463 -0.7479  0.0057
26466SOL    HW291458   0.511   3.260   2.199  0.7306  4.5554 -2.0143
26467SOL     OW91459   2.587   4.379   3.778  0.1197 -0.2817  1.0294
26467SOL    HW191460   2.500   4.329   3.780  0.2557 -0.5184  0.9892
26467SOL    HW291461   2.573   4.470   3.816 -0.7617  0.6635 -1.4293
26468SOL     OW91462   7.638   8.785   4.018 -0.0667 -0.3183 -0.2022
26468SOL    HW191463   7.734   8.812   4.030 -0.9825  2.8687  0.2363
26468SOL    HW291464   7.610   8.727   4.095  0.5258  1.6600  1.5550
26469SOL     OW91465   7.084   8.704   6.001 -0.1830  0.6109  1.1023
26469SOL    HW191466   7.089   8.798   6.035 -0.7713  0.7120  0.9094
26469SOL    HW291467   7.165   8.653   6.032  0.5605  1.4127  0.4873
26470SOL     OW91468   8.450   3.973   0.076  0.3378  0.4909 -0.3494
26470SOL    HW191469   8.386   3.944   0.005  0.3011 -1.4349  0.4380
26470SOL    HW291470   8.419   4.060   0.115  0.0634  1.2834 -2.2865
26471SOL     OW91471   9.700   9.082   4.087  0.5341 -0.3138  0.0563
26471SOL    HW191472   9.612   9.107   4.049  1.2577 -0.2546 -1.5987
26471SOL    HW291473   9.723   9.144   4.162 -0.1142  0.6309 -0.5202
26472SOL     OW91474   6.618   8.684   6.468 -0.0877  0.2220  0.4545
26472SOL    HW191475   6.643   8.778   6.491 -1.6677 -0.0532  3.6045
26472SOL    HW291476   6.533   8.685   6.414  0.5884  0.6455 -0.6136
26473SOL     OW91477   3.084   9.200   8.726 -0.4946 -0.2277 -0.4637
26473SOL    HW191478   3.124   9.227   8.639 -0.2627 -0.1816 -0.3414
26473SOL    HW291479   3.089   9.275   8.791 -0.1740 -0.4399 -0.2389
26474SOL     OW91480   0.137   6.326   6.459 -1.0729 -0.1065  0.3136
26474SOL    HW191481   0.154   6.353   6.553 -1.0661 -1.1337  0.6134
26474SOL    HW291482   0.039   6.319   6.443 -1.1413  1.8318 -0.2750
26475SOL     OW91483   5.321   7.339   2.872 -0.4001 -0.0777 -0.0923
26475SOL    HW191484   5.415   7.367   2.887 -0.9885  0.7032  2.3705
26475SOL    HW291485   5.290   7.373   2.783  1.1937  0.8493 -0.3165
26476SOL     OW91486   1.528   4.717   7.251 -0.2635  0.0507  0.3964
26476SOL    HW191487   1.509   4.799   7.305 -0.1195  0.6333 -0.4319
26476SOL    HW291488   1.502   4.636   7.304  0.2293  0.5940  1.4881
26477SOL     OW91489   2.784   1.367   6.657  0.2596 -0.4119  0.0177
26477SOL    HW191490   2.881   1.349   6.638  0.4120 -0.5620  0.9252
26477SOL    HW291491   2.762   1.461   6.629  0.5021 -0.5918 -0.7898
26478SOL     OW91492   9.793   3.801   8.442 -0.5298 -0.3182 -0.8105
26478SOL    HW191493   9.839   3.732   8.498  0.0873  1.0178  0.3602
26478SOL    HW291494   9.700   3.770   8.421 -0.9735 -0.6196  1.4267
26479SOL     OW91495   2.647   0.197   2.132 -0.7104 -0.2223  0.1903
26479SOL    HW191496   2.577   0.251   2.085 -0.5644 -0.3444 -0.1780
26479SOL    HW291497   2.725   0.183   2.070 -1.0185 -1.3884  0.0365
26480SOL     OW91498   4.402   0.647   1.185 -0.4315 -0.3164 -0.0343
26480SOL    HW191499   4.450   0.732   1.207 -1.5009 -0.0129  1.1903
26480SOL    HW291500   4.423   0.578   1.254 -0.5256 -0.6664 -0.3534
26481SOL     OW91501   2.764   1.932   8.138  0.7851  0.5821  0.2820
26481SOL    HW191502   2.814   1.881   8.068 -1.2264  1.1367 -1.6065
26481SOL    HW291503   2.742   2.023   8.104 -1.1037  0.5066  1.2218
26482SOL     OW91504   6.666   5.447   0.542  0.0263 -0.1859  0.1982
26482SOL    HW191505   6.646   5.351   0.564 -0.0469  0.0430  1.1487
26482SOL    HW291506   6.765   5.463   0.551  0.0148 -0.1270  0.2219
26483SOL     OW91507   4.326   3.302   6.377  0.1858 -0.9480 -0.4058
26483SOL    HW191508   4.354   3.228   6.438 -1.1912  0.1370  1.5880
26483SOL    HW291509   4.284   3.262   6.295  0.3656 -2.3873  0.1808
26484SOL     OW91510   8.532   8.058   3.535  0.0176  0.5598  0.7719
26484SOL    HW191511   8.468   8.041   3.460  0.6079  1.2540  0.1065
26484SOL    HW291512   8.603   8.122   3.505  0.5448  0.4539  1.7671
26485SOL     OW91513   3.274   8.605   1.630  0.1770  0.4294 -0.4451
26485SOL    HW191514   3.219   8.613   1.547  1.0981  1.0430 -1.0042
26485SOL    HW291515   3.218   8.567   1.703 -1.6583  3.0426 -0.3952
26486SOL     OW91516   3.199   0.641   6.262 -0.1215 -0.7218 -0.1011
26486SOL    HW191517   3.233   0.735   6.260 -1.1662 -0.3060  0.9769
26486SOL    HW291518   3.101   0.642   6.282  0.0481 -2.0705  0.8651
26487SOL     OW91519   9.042   7.513   7.766 -0.1165 -0.4955  0.1778
26487SOL    HW191520   8.976   7.483   7.697 -1.8738  1.8591  0.7465
26487SOL    HW291521   9.134   7.515   7.727 -0.8745 -0.6141 -1.6559
26488SOL     OW91522   9.347   0.870   1.855  0.2161 -0.2589 -0.7626
26488SOL    HW191523   9.447   0.864   1.858  0.2303 -0.4456 -1.4735
26488SOL    HW291524   9.308   0.805   1.921  0.5975  1.5019  1.2212
26489SOL     OW91525   8.866   7.630   5.877  0.1303 -0.4036 -0.5826
26489SOL    HW191526   8.843   7.539   5.912 -1.4094  0.2777  0.2545
26489SOL    HW291527   8.845   7.634   5.780 -0.9575 -0.5749 -0.3628
26490SOL     OW91528   7.585   4.824   8.063  0.2213  0.3346 -0.2111
26490SOL    HW191529   7.541   4.746   8.107  3.0567 -0.6870  0.9336
26490SOL    HW291530   7.526   4.904   8.070 -1.8500 -1.1831  0.3764
26491SOL     OW91531   4.468   4.339   5.796  0.3042  0.7144  0.0667
26491SOL    HW191532   4.498   4.308   5.886  1.5312  0.5121 -0.3859
26491SOL    HW291533   4.374   4.371   5.800 -0.3436 -1.2174  0.9872
26492SOL     OW91534   5.223   8.292   7.479 -0.0342 -0.1590 -0.2774
26492SOL    HW191535   5.265   8.252   7.560 -1.5368 -0.5938  0.3024
26492SOL    HW291536   5.126   8.308   7.496 -0.2444  0.2771 -1.7970
26493SOL     OW91537   9.192   5.240   6.566 -0.3630  0.5961 -0.1112
26493SOL    HW191538   9.232   5.250   6.475  1.1000  0.3990  0.4969
26493SOL    HW291539   9.160   5.146   6.578 -0.6097  0.6395 -0.4519
26494SOL     OW91540   1.656   2.826   4.564 -0.1913  0.0104 -0.2160
26494SOL    HW191541   1.661   2.854   4.660  1.6514  0.3837 -0.3994
26494SOL    HW291542   1.581   2.762   4.552 -0.2382 -0.2882  1.5484
26495SOL     OW91543   4.568   5.080   4.600  0.0380 -0.0493 -0.0888
26495SOL    HW191544   4.583   5.174   4.570 -2.5721  0.5237  0.2925
26495SOL    HW291545   4.520   5.079   4.688  0.1201 -1.7235 -0.0314
26496SOL     OW91546   0.625   2.081   3.584 -0.2422 -0.3707 -0.2850
26496SOL    HW191547   0.559   2.149   3.552 -0.6720 -0.0736  1.2037
26496SOL    HW291548   0.657   2.105   3.675  1.0731 -1.1336 -0.5286
26497SOL     OW91549   9.298   9.819   5.714 -0.4478  0.0207 -0.5908
26497SOL    HW191550   9.341   9.865   5.635  1.0387  0.6154  0.5323
26497SOL    HW291551   9.270   9.727   5.687 -0.7274  0.5142 -2.0461
26498SOL     OW91552   2.016   4.909   6.635 -0.1874  0.0437 -0.4240
26498SOL    HW191553   2.067   4.982   6.589 -0.2842  1.4529  1.5888
26498SOL    HW291554   2.064   4.884   6.719 -0.3353 -2.0182 -0.9310
26499SOL     OW91555   5.198   1.073   8.186  0.4610  0.8928  0.7684
26499SOL    HW191556   5.289   1.108   8.163  1.2856 -1.2963  0.6609
26499SOL    HW291557   5.138   1.080   8.106  1.5593 -0.9629 -0.2412
26500SOL     OW91558   4.718   9.527   8.392  0.5106 -0.3288  0.2018
26500SOL    HW191559   4.712   9.432   8.421 -0.1049 -0.3530  0.0007
26500SOL    HW291560   4.682   9.537   8.299 -0.3730  0.2548  0.5895
26501SOL     OW91561   3.353   0.363   2.579  0.1071 -0.2564  0.2145
26501SOL    HW191562   3.389   0.368   2.486  0.2364  0.4118  0.3003
26501SOL    HW291563   3.424   0.329   2.640  0.6037  1.0520  0.3839
26502SOL     OW91564   8.106   4.724   7.506  0.2313  0.3703 -0.3469
26502SOL    HW191565   8.026   4.697   7.452 -0.7076 -0.0422  1.2269
26502SOL    HW291566   8.178   4.656   7.492 -0.6237 -0.6876  0.2628
26503SOL     OW91567   9.831   5.932   3.139 -0.2063  0.6633  0.4564
26503SOL    HW191568   9.835   5.950   3.237 -0.6894  0.5746  0.4943
26503SOL    HW291569   9.760   5.990   3.098 -0.6330  0.0335  0.3087
26504SOL     OW91570   1.562   9.488   9.200 -0.0436 -0.5433 -0.0201
26504SOL    HW191571   1.485   9.551   9.198 -0.9698 -1.6761 -0.4386
26504SOL    HW291572   1.563   9.437   9.286 -0.9686 -1.9968 -0.8571
26505SOL     OW91573   2.783   4.342   0.870  0.1303 -0.3582 -0.6875
26505SOL    HW191574   2.745   4.256   0.837 -0.2770 -0.4044 -0.1065
26505SOL    HW291575   2.798   4.336   0.969 -0.1073  0.3169 -0.6078
26506SOL     OW91576   7.039   4.855   3.093 -0.5495  0.5662  0.6128
26506SOL    HW191577   7.119   4.816   3.138 -0.2923  0.1944 -0.1511
26506SOL    HW291578   7.067   4.934   3.039 -0.6304  0.1956  0.0281
26507SOL     OW91579   3.834   4.506   8.071 -0.2447  0.5915 -0.2586
26507SOL    HW191580   3.818   4.423   8.017 -1.3163  1.0363 -0.6389
26507SOL    HW291581   3.914   4.492   8.130  0.7586 -0.0310 -1.7039
26508SOL     OW91582   8.396   3.692   7.654  0.5841 -0.0231 -0.6898
26508SOL    HW191583   8.437   3.670   7.742 -0.0398  1.1418 -0.0875
26508SOL    HW291584   8.360   3.609   7.611 -1.5544 -0.2341  1.4165
26509SOL     OW91585   3.089   8.805   7.104  0.0830 -0.6590  0.4896
26509SOL    HW191586   3.086   8.779   7.007  0.9370  0.4344  0.1566
26509SOL    HW291587   3.121   8.728   7.158  1.5107 -0.6703 -0.3471
26510SOL     OW91588   6.763   0.969   6.428 -0.3536  0.0631  0.1508
26510SOL    HW191589   6.760   1.060   6.470 -0.5339 -0.0235  0.3244
26510SOL    HW291590   6.721   0.902   6.489  1.5540 -0.4861  0.8828
26511SOL     OW91591   0.136   2.244   4.733  0.7951  0.6485  0.4266
26511SOL    HW191592   0.171   2.154   4.760 -1.0952 -0.5048 -0.8739
26511SOL    HW291593   0.212   2.302   4.705  1.8877 -1.0323 -0.1774
26512SOL     OW91594   4.915   2.042   7.694  0.2620 -0.3243 -0.7261
26512SOL    HW191595   4.930   2.000   7.604  0.5604 -0.7207 -0.4908
26512SOL    HW291596   4.834   2.001   7.736  0.1441 -0.1655 -0.7969
26513SOL     OW91597   3.928   6.216   3.142  0.0336  0.0976  0.0205
26513SOL    HW191598   3.862   6.289   3.131 -0.9930 -0.7899  0.2039
26513SOL    HW291599   4.004   6.248   3.199 -0.4814  0.9671  0.2252
26514SOL     OW91600   7.401   9.777   2.976  0.1453  0.3374 -0.3048
26514SOL    HW191601   7.393   9.776   3.076  0.1518 -0.9875 -0.3045
26514SOL    HW291602   7.453   9.697   2.947 -0.6963  0.1944 -1.4335
26515SOL     OW91603   1.012   1.627   8.903 -0.7284 -0.6528 -0.4038
26515SOL    HW191604   1.049   1.612   8.995 -2.4249 -2.2356  0.0596
26515SOL    HW291605   0.914   1.608   8.904 -0.8597 -0.0961 -2.4192
26516SOL     OW91606   7.796   2.227   2.198 -0.1251 -0.5073  0.4844
26516SOL    HW191607   7.786   2.288   2.119  0.7405  0.0880  0.8232
26516SOL    HW291608   7.707   2.187   2.220 -0.7595  0.7910  0.3703
26517SOL     OW91609   4.823   9.767   4.100  0.4414  0.2985 -0.0312
26517SOL    HW191610   4.884   9.719   4.037 -0.0986  0.6110 -0.7997
26517SOL    HW291611   4.748   9.808   4.049  0.3792  1.1518  0.7341
26518SOL     OW91612   4.209   3.541   1.875  0.2489 -0.0237  0.0686
26518SOL    HW191613   4.154   3.531   1.793  0.6213  0.4214 -0.2345
26518SOL    HW291614   4.159   3.594   1.943 -1.0536 -2.4098  1.0482
26519SOL     OW91615   5.572   1.469   4.653 -0.5754  0.0571 -0.1339
26519SOL    HW191616   5.561   1.417   4.738 -0.1255 -0.2567 -0.2645
26519SOL    HW291617   5.551   1.565   4.669  1.0063  0.2755  0.6904
26520SOL     OW91618   7.236   0.964   3.862  0.0670 -0.3236  0.3212
26520SOL    HW191619   7.331   0.951   3.834  0.3982 -1.6630  1.9597
26520SOL    HW291620   7.218   1.062   3.876  1.3067 -0.0980  0.3558
26521SOL     OW91621   7.730   8.404   8.785 -0.2319  0.3145 -0.2397
26521SOL    HW191622   7.756   8.317   8.827 -0.0620 -0.0265 -1.0536
26521SOL    HW291623   7.780   8.479   8.830 -0.0848 -0.0435  0.1948
26522SOL     OW91624   4.576   0.922   8.627 -0.6692  0.4619 -0.5673
26522SOL    HW191625   4.556   0.959   8.536 -0.2643 -0.6730 -1.1289
26522SOL    HW291626   4.567   0.994   8.695 -2.2762  1.0128 -1.3468
26523SOL     OW91627   0.618   2.973   6.308 -0.2633 -0.0146  0.0707
26523SOL    HW191628   0.543   3.002   6.368 -2.7707 -0.9709 -2.4643
26523SOL    HW291629   0.599   2.880   6.275  1.8543 -0.1086 -0.9246
26524SOL     OW91630   4.282   4.899   2.940 -0.3896 -0.3267 -0.2312
26524SOL    HW191631   4.283   4.999   2.939  0.0240 -0.3266  0.4426
26524SOL    HW291632   4.367   4.863   2.902 -0.2566 -0.4228  0.1568
26525SOL     OW91633   3.828   0.206   4.818 -0.2020  0.1763 -0.2538
26525SOL    HW191634   3.752   0.151   4.784 -0.0472 -1.5404  2.0310
26525SOL    HW291635   3.908   0.191   4.760 -0.3239 -1.5942  0.0120
26526SOL     OW91636   7.452   2.825   8.572 -0.2554  0.2064  1.1539
26526SOL    HW191637   7.552   2.828   8.581 -0.0930 -0.7404 -0.1142
26526SOL    HW291638   7.426   2.864   8.484 -0.7253 -2.5383  0.0155
26527SOL     OW91639   1.402   6.905   7.544 -0.0537  0.0912  0.3292
26527SOL    HW191640   1.459   6.874   7.620 -0.7581  1.2367  1.3564
26527SOL    HW291641   1.372   6.999   7.562  1.4047  1.0944 -2.3265
26528SOL     OW91642   0.154   2.946   4.486 -0.4089 -0.1137  0.1068
26528SOL    HW191643   0.107   2.858   4.476 -0.4531 -0.1497  0.6540
26528SOL    HW291644   0.182   2.959   4.581  1.1805 -0.3339 -0.3285
26529SOL     OW91645   8.909   0.613   8.157 -0.0767 -0.0891  0.6389
26529SOL    HW191646   9.004   0.642   8.166  0.2246 -1.0272  0.5723
26529SOL    HW291647   8.902   0.515   8.177 -0.7604 -0.3741 -0.9074
26530SOL     OW91648   2.617   6.414  10.079  0.0564 -0.2514  0.1477
26530SOL    HW191649   2.687   6.456  10.136  0.1090 -1.1266  0.7428
26530SOL    HW291650   2.628   6.444   9.985  0.6123  0.3938  0.4164
26531SOL     OW91651   4.675   7.627   5.744  0.0322  0.0113 -0.2207
26531SOL    HW191652   4.619   7.613   5.826  0.5552 -0.1729  0.1076
26531SOL    HW291653   4.760   7.575   5.754  1.8043  3.0185  0.7782
26532SOL     OW91654   9.485   8.747   0.819  0.7258  0.1648  0.1033
26532SOL    HW191655   9.419   8.821   0.810  2.1321  1.0941 -3.2048
26532SOL    HW291656   9.523   8.748   0.912 -0.0288  2.9627  0.4348
26533SOL     OW91657   3.319   2.313   1.765 -0.1125 -0.2692 -0.1685
26533SOL    HW191658   3.326   2.268   1.854 -1.4622  0.1708  0.1757
26533SOL    HW291659   3.407   2.356   1.743  0.2749 -0.4785  0.9056
26534SOL     OW91660   5.089   7.554   3.792  0.6189 -0.2955  0.1221
26534SOL    HW191661   5.118   7.520   3.703  0.5279  0.2302 -0.1117
26534SOL    HW291662   5.000   7.516   3.815 -0.0985  0.8130 -0.7443
26535SOL     OW91663   2.343   6.531   3.943  0.3625  0.4373 -0.1186
26535SOL    HW191664   2.438   6.504   3.959  0.3941  0.5637 -0.0904
26535SOL    HW291665   2.338   6.630   3.932  0.2843  0.3923 -0.4848
26536SOL     OW91666   3.465   9.204   1.644  0.5015  0.4334 -0.0053
26536SOL    HW191667   3.420   9.184   1.556  0.9582  0.5159 -0.2569
26536SOL    HW291668   3.409   9.167   1.718  0.7137 -0.6797 -0.3937
26537SOL     OW91669   7.522   1.137   1.195 -0.0598  0.6524 -0.5895
26537SOL    HW191670   7.425   1.156   1.183 -0.0299  1.9762  1.1321
26537SOL    HW291671   7.575   1.219   1.175  0.5116  0.6803  0.9510
26538SOL     OW91672   0.704   6.167   7.098  0.0801 -0.0736  0.1511
26538SOL    HW191673   0.681   6.216   7.182  1.8934 -0.9019  1.1648
26538SOL    HW291674   0.779   6.213   7.051 -0.5091  0.0396 -0.7023
26539SOL     OW91675   7.202   4.649   8.744  0.5062 -0.3136 -0.0288
26539SOL    HW191676   7.219   4.731   8.690  0.8903 -0.4301 -0.0877
26539SOL    HW291677   7.277   4.584   8.730  0.5155 -0.4147  0.5061
26540SOL     OW91678   4.870   2.815   9.917  0.1620  0.1611 -0.1364
26540SOL    HW191679   4.938   2.757   9.871  0.9906  1.5122 -0.6617
26540SOL    HW291680   4.803   2.847   9.850  0.9532  1.5405 -0.2988
26541SOL     OW91681   2.769   0.906   6.315 -0.3306  0.3158  0.3170
26541SOL    HW191682   2.716   0.991   6.318 -1.5833 -0.4872  1.3267
26541SOL    HW291683   2.709   0.828   6.335  1.0387 -0.6920  0.5695
26542SOL     OW91684   2.787   6.871   0.477  0.1622 -0.5706  0.3049
26542SOL    HW191685   2.786   6.970   0.490 -1.1284 -0.8630  2.6915
26542SOL    HW291686   2.700   6.832   0.506  0.2803 -2.3215 -1.5532
26543SOL     OW91687   6.073   8.886   2.444 -0.2820 -1.0923 -1.2013
26543SOL    HW191688   6.031   8.798   2.420 -0.2183 -2.3425  2.9106
26543SOL    HW291689   6.129   8.874   2.526 -1.5511  3.1505  0.3883
26544SOL     OW91690   8.954   8.875   1.781 -0.1807  0.6186  0.0063
26544SOL    HW191691   8.984   8.942   1.714 -0.7288  1.5228  0.6610
26544SOL    HW291692   9.003   8.890   1.867  0.8615 -0.8229 -0.3055
26545SOL     OW91693   9.027   4.313   7.318  0.2012  0.8942  0.4466
26545SOL    HW191694   9.090   4.372   7.266  2.0721 -1.3516  0.1098
26545SOL    HW291695   9.077   4.236   7.356 -1.9974  0.1742  1.9698
26546SOL     OW91696   6.457   3.797   1.696  0.0995 -0.2605 -0.1262
26546SOL    HW191697   6.492   3.857   1.768  0.7272  0.0651 -0.6975
26546SOL    HW291698   6.483   3.703   1.715 -0.9273 -0.3663  0.7976
26547SOL     OW91699   8.078   2.240   2.633 -0.3357  0.1149 -0.0901
26547SOL    HW191700   8.173   2.210   2.623 -0.6112 -0.7146 -0.2760
26547SOL    HW291701   8.047   2.283   2.548  0.0301  0.8509  0.1435
26548SOL     OW91702   7.059   5.379   2.355  0.3025  0.3646  0.8599
26548SOL    HW191703   7.149   5.378   2.312  0.2214  1.8833  0.6169
26548SOL    HW291704   7.042   5.470   2.395 -0.7601 -0.1725  1.6669
26549SOL     OW91705   4.259   5.790   9.100 -0.0976  0.4398  0.1845
26549SOL    HW191706   4.184   5.837   9.145 -0.1996 -1.1470  1.7123
26549SOL    HW291707   4.222   5.724   9.034 -0.0956 -0.8564  1.4521
26550SOL     OW91708   2.371   9.548   2.570 -0.1429  0.1852 -0.0012
26550SOL    HW191709   2.464   9.536   2.537 -0.2421  0.8294 -0.5133
26550SOL    HW291710   2.307   9.507   2.506 -0.3646  1.8340 -0.8629
26551SOL     OW91711   3.772   5.483  10.075  0.2128  0.3674  0.0469
26551SOL    HW191712   3.854   5.516  10.027  0.0834 -0.0252 -0.4495
26551SOL    HW291713   3.733   5.405  10.025  1.0753 -1.1826  1.7292
26552SOL     OW91714   7.353   0.468   1.525 -0.0112  0.2796  0.6426
26552SOL    HW191715   7.303   0.522   1.457  0.7649  1.3491  0.9032
26552SOL    HW291716   7.367   0.375   1.491 -0.2721  0.5951 -0.3326
26553SOL     OW91717   2.851   6.293   3.431 -0.2743 -0.0524  0.2261
26553SOL    HW191718   2.838   6.368   3.367  0.3252  1.6920  2.0670
26553SOL    HW291719   2.789   6.218   3.408 -0.8572  0.9786 -1.6792
26554SOL     OW91720   9.891   3.169   7.857  0.0165 -0.9607 -0.3038
26554SOL    HW191721   9.854   3.213   7.938  2.0944 -1.9186  1.2158
26554SOL    HW291722   9.902   3.237   7.784 -0.5018  0.2171  0.7077
26555SOL     OW91723   6.615   5.803   9.829  0.4077 -0.1243 -0.0390
26555SOL    HW191724   6.526   5.783   9.870 -0.0088  1.3478 -0.1878
26555SOL    HW291725   6.604   5.814   9.730  0.4938  1.4530  0.1131
26556SOL     OW91726   1.805   3.755   7.623  0.1153 -0.4284  0.5836
26556SOL    HW191727   1.807   3.692   7.545  0.0008  1.7015 -1.1615
26556SOL    HW291728   1.899   3.774   7.651  0.2020 -0.1921  0.1402
26557SOL     OW91729   9.633   9.113   5.696  0.0720 -0.6201 -0.2150
26557SOL    HW191730   9.707   9.134   5.633 -0.0119  0.2528 -0.0279
26557SOL    HW291731   9.666   9.052   5.768  0.4948 -0.5618 -0.3613
26558SOL     OW91732   1.366   5.868   5.400  0.3844  0.1050  0.0103
26558SOL    HW191733   1.350   5.862   5.302  0.5285  1.2866 -0.0975
26558SOL    HW291734   1.411   5.955   5.421 -3.7793  2.0004  1.6449
26559SOL     OW91735   8.560   9.239   5.517  0.1182  0.8762  0.0404
26559SOL    HW191736   8.463   9.216   5.525 -0.2902  1.1437 -3.3890
26559SOL    HW291737   8.569   9.335   5.489  1.2815  0.3438 -1.4794
26560SOL     OW91738   3.995   3.754   2.988  0.3493  0.0630  0.2390
26560SOL    HW191739   4.014   3.842   3.031  1.7277  0.8462 -1.8502
26560SOL    HW291740   3.927   3.765   2.916  0.3484 -0.6119  0.1275
26561SOL     OW91741   9.153   4.147   2.256 -0.6217 -0.3454  0.1708
26561SOL    HW191742   9.113   4.056   2.246  1.2807 -1.0256 -1.8845
26561SOL    HW291743   9.251   4.138   2.274 -0.6395  1.2921  1.1411
26562SOL     OW91744   8.956   8.448   0.790 -0.0292 -0.0563  0.2912
26562SOL    HW191745   8.982   8.358   0.824 -0.6550 -0.2151  0.3619
26562SOL    HW291746   9.038   8.499   0.763  0.4756  0.0432  1.9362
26563SOL     OW91747   5.417   1.772   8.400 -0.6193  0.0853 -0.4516
26563SOL    HW191748   5.423   1.701   8.470 -0.6551 -0.4405 -0.9671
26563SOL    HW291749   5.506   1.781   8.354 -0.4544  0.7839  0.0017
26564SOL     OW91750   9.538   2.028   2.154  0.4930 -0.2703 -0.1549
26564SOL    HW191751   9.570   1.941   2.193 -1.8231 -0.9228  0.3491
26564SOL    HW291752   9.573   2.104   2.209 -0.2294 -1.0486  1.4305
26565SOL     OW91753   9.322   9.345   5.158 -0.0355 -0.4846 -0.8337
26565SOL    HW191754   9.408   9.330   5.207  0.8456  0.1637 -2.1737
26565SOL    HW291755   9.246   9.318   5.217  1.0137  0.2547  0.8924
26566SOL     OW91756   9.210   2.744   5.490  0.2864 -0.2009  0.4850
26566SOL    HW191757   9.281   2.687   5.446  0.4175 -0.0173  0.4620
26566SOL    HW291758   9.246   2.782   5.575  0.9731  1.6914 -0.6285
26567SOL     OW91759   9.759   6.885   7.996  0.0368  0.2255 -0.3529
26567SOL    HW191760   9.724   6.978   7.987  0.1583  0.2937 -0.1390
26567SOL    HW291761   9.845   6.887   8.046 -0.9102 -0.1876  1.3324
26568SOL     OW91762   3.287   2.864   9.053 -0.4505  0.6968 -0.5942
26568SOL    HW191763   3.281   2.766   9.075  0.8794  0.6303 -0.4861
26568SOL    HW291764   3.195   2.901   9.042 -1.0383 -0.1842  1.1016
26569SOL     OW91765   9.008   2.747   5.304  0.1341 -0.0547 -0.5475
26569SOL    HW191766   9.094   2.736   5.354 -0.6511 -2.7460  0.2953
26569SOL    HW291767   9.026   2.739   5.206  0.7105 -1.8804 -0.3222
26570SOL     OW91768   5.941   7.887   3.914  0.3894 -0.0342  0.3506
26570SOL    HW191769   5.914   7.796   3.943 -0.4876 -0.3327 -1.3075
26570SOL    HW291770   5.878   7.920   3.844  0.6933  1.8548  0.9228
26571SOL     OW91771   8.131   9.655   0.885 -0.3898  0.1905 -0.0987
26571SOL    HW191772   8.182   9.705   0.955  0.6355  0.4558 -1.0225
26571SOL    HW291773   8.119   9.560   0.914  1.7357 -0.2019 -0.4168
26572SOL     OW91774   8.834   4.537   8.994  0.6533  0.3405  0.2298
26572SOL    HW191775   8.806   4.526   9.090 -1.8067  0.1673 -0.5019
26572SOL    HW291776   8.808   4.455   8.942  0.8425  0.9714 -0.8677
26573SOL     OW91777   0.379   5.248   2.750 -0.2155  0.4002  0.2304
26573SOL    HW191778   0.375   5.343   2.780  2.2230 -0.3398  3.1427
26573SOL    HW291779   0.408   5.190   2.826  0.8687 -2.3397 -2.1611
26574SOL     OW91780   8.574   1.393   9.388 -0.1422 -0.0899  0.1001
26574SOL    HW191781   8.605   1.304   9.355 -2.9418 -1.6678  1.4983
26574SOL    HW291782   8.640   1.429   9.453  1.4735 -0.6873 -1.1602
26575SOL     OW91783   7.118   7.435   6.071 -0.0916 -0.0624  0.0443
26575SOL    HW191784   7.177   7.364   6.110  0.1965 -0.4411 -1.0627
26575SOL    HW291785   7.097   7.412   5.976 -2.0614  0.0628  0.4476
26576SOL     OW91786   8.917   7.092   7.568  0.0808 -0.4185 -0.7333
26576SOL    HW191787   8.999   7.059   7.613 -0.3766 -0.9950 -0.3110
26576SOL    HW291788   8.940   7.169   7.508  0.3241  2.1424  2.4889
26577SOL     OW91789   5.993   2.059   5.747  0.6148  0.5186 -0.3151
26577SOL    HW191790   6.092   2.062   5.756  0.8022  0.2076 -2.1912
26577SOL    HW291791   5.955   2.004   5.822  1.8857  0.1501  0.0791
26578SOL     OW91792   0.169   3.699   9.398  0.1900 -0.2070  0.1952
26578SOL    HW191793   0.214   3.614   9.371 -0.5726  0.2764 -2.7760
26578SOL    HW291794   0.114   3.683   9.480  0.8687 -2.3378  0.2652
26579SOL     OW91795   9.010   0.268   1.562  0.1091  0.1828  0.1596
26579SOL    HW191796   9.038   0.257   1.658  0.3532 -1.7355 -0.1012
26579SOL    HW291797   9.088   0.294   1.507  0.9492 -2.8438 -0.1767
26580SOL     OW91798   5.624   1.863   9.722 -0.5526  0.2445 -0.0709
26580SOL    HW191799   5.722   1.846   9.728 -0.5424 -0.3993 -1.7430
26580SOL    HW291800   5.605   1.959   9.741  0.1231 -0.1218  2.6844
26581SOL     OW91801   7.605   3.396   3.248 -0.0173  0.6262  0.5528
26581SOL    HW191802   7.586   3.440   3.160  4.3483 -0.2155 -0.9023
26581SOL    HW291803   7.657   3.459   3.306  0.2158 -0.1206  1.1596
26582SOL     OW91804   1.570   6.370   7.103  0.4612 -0.1668 -0.5317
26582SOL    HW191805   1.473   6.347   7.109  0.2299  0.6474 -1.0125
26582SOL    HW291806   1.600   6.363   7.007  0.9168 -0.5556 -0.3651
26583SOL     OW91807   4.242   5.103   8.649 -0.3004 -0.0270  0.0984
26583SOL    HW191808   4.197   5.165   8.585 -0.3190  0.1518  0.2859
26583SOL    HW291809   4.224   5.008   8.622  0.2988  0.0535 -0.5812
26584SOL     OW91810   2.189   6.825   6.456 -0.3226  0.0810 -0.4099
26584SOL    HW191811   2.251   6.815   6.378 -1.2374 -1.4339 -0.9580
26584SOL    HW291812   2.206   6.751   6.521 -0.0643  0.9203  0.4859
26585SOL     OW91813   1.334   8.741   6.990  0.4149  0.3425 -0.7209
26585SOL    HW191814   1.267   8.808   7.023  0.8580  0.2740  0.3172
26585SOL    HW291815   1.369   8.771   6.901 -1.8607 -0.2010 -1.8583
26586SOL     OW91816   5.930   9.811   7.035  0.0705  0.0823 -0.3760
26586SOL    HW191817   5.885   9.840   6.950  0.4205  1.8235  0.0115
26586SOL    HW291818   6.020   9.854   7.041 -0.1739  0.4103  1.1414
26587SOL     OW91819   2.298   3.030   4.950 -0.2718  0.1678  0.2463
26587SOL    HW191820   2.393   3.000   4.964 -0.5346 -0.8960 -0.2133
26587SOL    HW291821   2.287   3.063   4.856 -0.1740  1.0202  0.5261
26588SOL     OW91822   6.411   5.374   1.913  0.4878 -0.8786 -0.0787
26588SOL    HW191823   6.351   5.411   1.984 -2.4942 -3.8707 -0.9267
26588SOL    HW291824   6.461   5.296   1.949  0.7754 -0.9241 -0.5762
26589SOL     OW91825   3.990   5.680   4.374 -0.3200  0.7060 -0.2801
26589SOL    HW191826   3.942   5.649   4.457 -0.5189 -1.6352 -1.2372
26589SOL    HW291827   3.929   5.738   4.321 -1.0737  0.1986  0.0126
26590SOL     OW91828   3.995   6.340   7.835 -0.1094 -0.4780  0.1407
26590SOL    HW191829   3.980   6.286   7.752  0.7171 -0.1131 -0.2501
26590SOL    HW291830   4.038   6.427   7.812  0.3782 -0.4857  0.9770
26591SOL     OW91831   6.988   2.076   0.342  0.2650 -0.0459  0.1220
26591SOL    HW191832   6.901   2.062   0.294  0.2513  1.4699 -0.3267
26591SOL    HW291833   7.059   2.023   0.296  0.1490  0.9976 -1.3079
26592SOL     OW91834   3.539   8.629   8.489  0.8735 -0.3758 -0.3048
26592SOL    HW191835   3.489   8.565   8.547 -1.7721 -0.4644 -2.5749
26592SOL    HW291836   3.540   8.595   8.395  2.3951  1.2501 -0.9000
26593SOL     OW91837   5.693   4.052   0.033 -0.2656 -0.6035 -0.4254
26593SOL    HW191838   5.749   4.133   0.016 -0.0627 -0.4257  1.0258
26593SOL    HW291839   5.601   4.081   0.060  0.2130 -0.8293  1.4708
26594SOL     OW91840   7.342   6.834   5.185  0.1545 -0.2260  0.1052
26594SOL    HW191841   7.429   6.807   5.226  0.6080  1.6874  0.4436
26594SOL    HW291842   7.333   6.789   5.096  1.1797 -0.9584  0.3554
26595SOL     OW91843   1.066   6.812   9.520  0.1264  0.1789 -0.1939
26595SOL    HW191844   1.032   6.718   9.511  0.4391  0.1159 -0.7327
26595SOL    HW291845   1.159   6.817   9.484  0.5760  0.4243  0.9946
26596SOL     OW91846   3.175   6.054   5.346 -0.1424 -0.2878 -0.0314
26596SOL    HW191847   3.171   6.137   5.401  0.1848 -0.6927  0.6128
26596SOL    HW291848   3.257   6.002   5.371  0.1257 -0.3711 -1.0523
26597SOL     OW91849   1.907   9.269   8.707  0.6658 -0.4889  0.3121
26597SOL    HW191850   1.838   9.256   8.636 -0.0078  1.3988  0.5999
26597SOL    HW291851   1.996   9.239   8.673  0.3575  0.4568 -1.3480
26598SOL     OW91852   1.444   8.651   8.761  0.0871 -0.2007 -0.2883
26598SOL    HW191853   1.380   8.594   8.812  0.8487  0.9122  1.9742
26598SOL    HW291854   1.396   8.696   8.685 -1.7375  0.3610  1.1763
26599SOL     OW91855   2.089   0.048   4.395 -0.4875  0.3948  1.0009
26599SOL    HW191856   2.001   0.063   4.440 -0.9704 -0.6039  0.4061
26599SOL    HW291857   2.129  -0.038   4.426 -0.3803  0.1648  0.2463
26600SOL     OW91858   1.752   3.405   8.797  0.2513 -0.4111  0.4177
26600SOL    HW191859   1.691   3.484   8.801 -1.2229 -1.4592 -0.8482
26600SOL    HW291860   1.740   3.349   8.879 -0.6476 -0.7199  0.0788
26601SOL     OW91861   0.055   6.488   2.099 -0.7021  0.1718  0.2600
26601SOL    HW191862   0.139   6.525   2.138  0.7255 -1.7288 -0.9667
26601SOL    HW291863   0.011   6.559   2.043 -0.3101  1.3976  1.4660
26602SOL     OW91864   0.669   3.803   8.428 -0.0940 -0.3863 -0.0027
26602SOL    HW191865   0.752   3.759   8.394 -1.1439 -2.9454  0.7120
26602SOL    HW291866   0.674   3.811   8.528  0.3178  1.6609 -0.1561
26603SOL     OW91867   6.539   2.473   3.717 -0.7129 -0.1864  0.5624
26603SOL    HW191868   6.612   2.514   3.771  0.6557 -2.9117  0.8680
26603SOL    HW291869   6.555   2.490   3.620  0.6216 -1.1502  0.5973
26604SOL     OW91870   4.466   6.895   3.181 -0.1973  0.0851 -0.0840
26604SOL    HW191871   4.367   6.880   3.179 -0.3844  1.3597 -1.4223
26604SOL    HW291872   4.486   6.979   3.232  0.2969 -0.8728  1.3088
26605SOL     OW91873   3.448   8.852   0.635  0.5419  0.6073  0.3889
26605SOL    HW191874   3.383   8.848   0.712 -0.9241  1.1115 -0.7961
26605SOL    HW291875   3.518   8.782   0.648  1.0879  1.5325  2.8503
26606SOL     OW91876   9.724   9.677  10.082  0.7232  0.8277  0.2903
26606SOL    HW191877   9.708   9.712   9.989  2.5649 -1.9753 -1.1508
26606SOL    HW291878   9.636   9.665  10.128 -0.2713  1.6257 -1.3325
26607SOL     OW91879   1.426   7.081   1.278 -0.2467  0.1921  0.2047
26607SOL    HW191880   1.453   7.177   1.292  0.1844 -0.0530  1.1548
26607SOL    HW291881   1.329   7.071   1.298  0.1736  0.0280  2.2914
26608SOL     OW91882   6.614   2.806   4.047 -0.3768  0.4839  0.1333
26608SOL    HW191883   6.522   2.783   4.079  0.0481 -0.1142  0.9573
26608SOL    HW291884   6.650   2.730   3.993  0.2446  0.0415  1.1534
26609SOL     OW91885   1.657   6.312   9.979 -0.2164 -0.0763 -0.1740
26609SOL    HW191886   1.672   6.366  10.062 -1.2294  0.0934 -0.0967
26609SOL    HW291887   1.583   6.247   9.994  1.5612 -2.1085  0.0070
26610SOL     OW91888   2.382   8.077   1.387 -0.2313 -0.3404 -0.4206
26610SOL    HW191889   2.376   8.098   1.485  0.7249  0.3508 -0.5050
26610SOL    HW291890   2.350   8.155   1.334 -0.5279 -0.6265 -0.6592
26611SOL     OW91891   1.799   8.374   0.408  0.1114 -0.2255 -1.0704
26611SOL    HW191892   1.780   8.389   0.311  0.1977  1.4394 -0.8547
26611SOL    HW291893   1.896   8.353   0.420  0.1066 -0.4014 -1.3461
26612SOL     OW91894   1.272   5.102   5.441  0.0550 -0.0857 -0.1534
26612SOL    HW191895   1.229   5.013   5.425 -1.9927  0.7327  0.7357
26612SOL    HW291896   1.272   5.122   5.539  1.4475  0.4572 -0.2519
26613SOL     OW91897   0.815   1.187   3.982 -0.5587 -0.4006  0.2988
26613SOL    HW191898   0.792   1.105   4.033  1.6408 -1.1122  0.2157
26613SOL    HW291899   0.841   1.260   4.046  2.6494 -1.4330  0.2752
26614SOL     OW91900   7.447   0.116   2.397  0.0122 -0.3786 -0.5122
26614SOL    HW191901   7.468   0.040   2.335 -0.9722 -1.7148  0.7295
26614SOL    HW291902   7.404   0.079   2.480 -1.2497  1.6343 -0.2432
26615SOL     OW91903   7.547   8.246   6.261 -0.2956 -0.1459  0.2279
26615SOL    HW191904   7.574   8.311   6.331 -0.7310  1.2197 -0.8440
26615SOL    HW291905   7.618   8.241   6.191 -1.2565  0.8903 -0.8406
26616SOL     OW91906   0.015   4.892   4.157 -0.0645  0.3410 -0.4479
26616SOL    HW191907  -0.068   4.893   4.213 -1.0379 -1.4381 -1.7935
26616SOL    HW291908   0.043   4.797   4.141  0.1497  0.7849 -2.9906
26617SOL     OW91909   7.744   5.170   0.715 -0.6712  0.0308  0.0773
26617SOL    HW191910   7.707   5.234   0.647  0.2018  1.4810  0.9288
26617SOL    HW291911   7.800   5.221   0.781  0.5143 -1.7059  0.4479
26618SOL     OW91912   2.284   4.573   0.582  0.1518 -0.1899 -0.1427
26618SOL    HW191913   2.335   4.658   0.593 -0.8949  0.4876 -0.4882
26618SOL    HW291914   2.273   4.529   0.672 -0.6377  0.8151  0.2574
26619SOL     OW91915   4.228   5.390   3.577 -0.2813 -0.1276 -0.3607
26619SOL    HW191916   4.142   5.352   3.611 -1.2314  0.4130 -2.1332
26619SOL    HW291917   4.259   5.463   3.639 -1.4286  0.0957 -0.0461
26620SOL     OW91918   0.599   9.386   0.167 -0.0446 -0.4270  0.0981
26620SOL    HW191919   0.550   9.463   0.207  0.4238  0.3364 -0.7528
26620SOL    HW291920   0.697   9.398   0.183  0.0440 -0.7533 -0.1992
26621SOL     OW91921   6.539   0.453   0.685 -0.2620  0.0239 -0.3229
26621SOL    HW191922   6.533   0.544   0.644 -0.2800 -0.4566 -1.4158
26621SOL    HW291923   6.448   0.417   0.701 -0.2612 -0.0834 -0.5484
26622SOL     OW91924   2.164   7.198   0.445  0.2724  0.3918 -0.4927
26622SOL    HW191925   2.202   7.111   0.415  2.1668  1.5715 -1.5666
26622SOL    HW291926   2.142   7.193   0.543  0.0668 -1.3696 -0.6161
26623SOL     OW91927   0.002   7.346   4.343 -0.0930 -0.3459 -0.0100
26623SOL    HW191928  -0.031   7.286   4.416  0.9692 -0.0851  0.6997
26623SOL    HW291929   0.090   7.385   4.370  1.1575 -1.5861 -2.1463
26624SOL     OW91930   4.007   0.034   9.463  0.0967  0.4437  0.8122
26624SOL    HW191931   3.952   0.008   9.384  0.7740  2.4564 -0.3394
26624SOL    HW291932   3.947   0.045   9.543 -0.9419  1.0297 -0.0444
26625SOL     OW91933   1.541   2.789   5.465 -0.2940  0.1477 -0.1586
26625SOL    HW191934   1.448   2.757   5.480 -1.5307  2.1836 -3.1298
26625SOL    HW291935   1.554   2.876   5.512  0.2696 -0.3349  0.5960
26626SOL     OW91936   8.341   6.563   5.279 -0.1384  0.0901  0.3170
26626SOL    HW191937   8.315   6.472   5.247 -0.6506  0.6692 -0.9816
26626SOL    HW291938   8.277   6.630   5.241  1.5996  1.2436 -0.6244
26627SOL     OW91939   6.150   9.254   4.062  0.6899 -0.5254 -0.2163
26627SOL    HW191940   6.166   9.304   3.976 -0.2427 -0.1847 -0.1925
26627SOL    HW291941   6.225   9.273   4.125  0.4025  0.7579 -0.2518
26628SOL     OW91942   1.548   1.123   3.891 -0.5517  0.0628 -0.3835
26628SOL    HW191943   1.533   1.129   3.792 -0.0012  0.5651 -0.4374
26628SOL    HW291944   1.583   1.210   3.925  1.1752 -0.7187 -0.0839
26629SOL     OW91945   9.113   0.579   1.785  0.4138 -0.1037  0.1690
26629SOL    HW191946   9.033   0.575   1.725  0.1494  0.1504  0.5027
26629SOL    HW291947   9.121   0.671   1.824  0.7855 -0.1690  0.2480
26630SOL     OW91948   5.242   4.686   0.776 -0.7599  0.3416  0.3208
26630SOL    HW191949   5.342   4.691   0.773 -0.7619  0.5178  0.5386
26630SOL    HW291950   5.213   4.671   0.871 -0.9859  1.3605  0.4187
26631SOL     OW91951   0.909   2.528   4.697  0.4412  0.4260 -0.5315
26631SOL    HW191952   0.939   2.554   4.788 -2.2246 -0.6239  0.7046
26631SOL    HW291953   0.843   2.595   4.663 -1.6932 -1.2852  0.0783
26632SOL     OW91954   0.805   7.843   0.789  0.1976  0.1665  0.0133
26632SOL    HW191955   0.848   7.900   0.719  0.4086  0.8187  0.6700
26632SOL    HW291956   0.708   7.831   0.766  0.2746  0.3329 -0.4144
26633SOL     OW91957   0.893   4.221   5.406  0.3980  0.1519  0.0260
26633SOL    HW191958   0.886   4.311   5.449 -2.6745 -0.4297  0.8391
26633SOL    HW291959   0.866   4.151   5.472 -0.2902 -1.1068 -1.5912
26634SOL     OW91960   3.542   1.059   1.772 -0.1478 -0.5662  0.2970
26634SOL    HW191961   3.549   1.117   1.691 -2.6320 -2.0430 -1.0231
26634SOL    HW291962   3.631   1.018   1.792  0.3097 -0.8303 -2.1619
26635SOL     OW91963   9.009   0.951   2.599  0.3141  0.1473  0.3676
26635SOL    HW191964   8.977   0.861   2.630 -0.7945 -0.1950 -1.6480
26635SOL    HW291965   9.019   0.950   2.499  0.8833  2.0841  0.3835
26636SOL     OW91966   4.760   8.430   4.248  0.2484 -0.2481  1.2159
26636SOL    HW191967   4.814   8.472   4.321  1.3263  0.9713 -0.2476
26636SOL    HW291968   4.813   8.356   4.206  0.0668 -0.2211  0.9383
26637SOL     OW91969   8.575   6.763   9.722  0.7656 -0.2310 -0.0813
26637SOL    HW191970   8.627   6.823   9.783  3.0634 -2.1875 -0.0522
26637SOL    HW291971   8.534   6.689   9.776  0.8244 -0.6364 -0.5917
26638SOL     OW91972   7.124   2.830   3.343  0.4901 -0.2875 -0.1092
26638SOL    HW191973   7.194   2.762   3.322  0.8040  0.2936 -0.9830
26638SOL    HW291974   7.128   2.903   3.275 -1.7176 -0.8279 -0.8710
26639SOL     OW91975   5.839   0.519   6.583 -0.1919 -0.6179  0.0440
26639SOL    HW191976   5.889   0.585   6.527 -0.1091 -0.0457  0.7876
26639SOL    HW291977   5.902   0.449   6.617  0.2134  0.3926  1.4059
26640SOL     OW91978   2.985   6.878   9.834 -0.2044 -0.4727 -0.1594
26640SOL    HW191979   2.943   6.835   9.754 -0.6217 -1.3310  0.5169
26640SOL    HW291980   2.974   6.977   9.828 -0.4686 -0.5447 -1.0247
26641SOL     OW91981   6.905   7.650   4.434 -1.1985 -0.0065  0.2881
26641SOL    HW191982   6.959   7.570   4.462 -0.9663  0.4037  1.0318
26641SOL    HW291983   6.889   7.646   4.335  1.4236  0.6050 -0.2037
26642SOL     OW91984   9.156   3.167   2.073 -0.3986 -0.1170  0.3030
26642SOL    HW191985   9.073   3.174   2.017 -0.3331  2.2410  0.4516
26642SOL    HW291986   9.136   3.117   2.156 -1.2906 -0.9100 -0.3756
26643SOL     OW91987   9.408   7.165   7.947  1.0663 -0.1562  0.0049
26643SOL    HW191988   9.354   7.247   7.929  0.2767 -1.0029 -1.5639
26643SOL    HW291989   9.425   7.157   8.045 -2.5748 -0.4100  0.6847
26644SOL     OW91990   6.460   1.034   6.929 -0.0491 -0.1962  0.2216
26644SOL    HW191991   6.537   1.079   6.883 -0.2748 -1.5921 -1.5932
26644SOL    HW291992   6.459   1.060   7.025  1.0586  2.0005 -0.3274
26645SOL     OW91993   6.698   9.760   1.505  0.0960 -0.6190  0.2746
26645SOL    HW191994   6.687   9.803   1.595 -0.3273 -0.6744  0.2490
26645SOL    HW291995   6.783   9.708   1.504  1.2708  1.2387 -0.1055
26646SOL     OW91996   4.965   9.942   0.776 -0.1270 -0.4364 -0.2544
26646SOL    HW191997   4.941  10.032   0.739  1.0443  0.4424  1.0827
26646SOL    HW291998   4.899   9.916   0.847 -0.4479 -0.6375 -0.6204
26647SOL     OW91999   1.703   1.241   8.991  0.0792 -0.0434 -0.6953
26647SOL    HW192000   1.648   1.252   9.074 -1.2519  1.4339 -1.7422
26647SOL    HW292001   1.662   1.171   8.933  1.5037 -1.7143  0.2502
26648SOL     OW92002   1.815   6.649   9.760 -0.0532 -0.5387 -0.6572
26648SOL    HW192003   1.757   6.668   9.681 -0.5468  1.3634  0.1550
26648SOL    HW292004   1.911   6.658   9.734 -0.1649 -1.4709 -1.4253
26649SOL     OW92005   7.825   7.335   9.185  0.1158 -0.4664  0.2869
26649SOL    HW192006   7.839   7.271   9.109  0.7738 -0.4784  0.4146
26649SOL    HW292007   7.857   7.293   9.270  0.2654 -0.0885  0.4205
26650SOL     OW92008   4.081   4.991   7.131 -0.4009 -0.6695 -0.0055
26650SOL    HW192009   4.107   5.056   7.060  0.3732 -2.9895 -1.8897
26650SOL    HW292010   4.158   4.977   7.193 -0.1583 -0.7489 -0.3260
26651SOL     OW92011   1.468   9.575   3.962  0.0217 -0.0507  0.3129
26651SOL    HW192012   1.459   9.574   4.061  0.4431  0.7541  0.3647
26651SOL    HW292013   1.384   9.539   3.920 -0.7295  0.9676  0.9252
26652SOL     OW92014   7.287   6.204   1.617 -0.3667  0.0086  0.0494
26652SOL    HW192015   7.275   6.167   1.709  1.3815 -0.0305  0.2841
26652SOL    HW292016   7.202   6.248   1.587 -1.0841 -0.3621  1.4996
26653SOL     OW92017   7.013   1.115   6.235  0.5051  0.0407  0.1551
26653SOL    HW192018   6.955   1.159   6.167  1.0507 -1.5402 -1.3554
26653SOL    HW292019   6.960   1.099   6.319 -1.4817 -2.0079 -1.4338
26654SOL     OW92020   3.580   9.460   1.538  0.6470 -0.0668  0.0725
26654SOL    HW192021   3.667   9.428   1.576  0.4459  1.3760  1.7897
26654SOL    HW292022   3.512   9.387   1.546  1.3128 -0.6904  0.0761
26655SOL     OW92023   0.010   6.835   2.991  0.1408  0.2490 -0.2792
26655SOL    HW192024  -0.010   6.790   2.904  0.1683 -0.1080 -0.1041
26655SOL    HW292025   0.074   6.778   3.044 -1.9041 -0.8446  1.1068
26656SOL     OW92026   4.847   9.674   2.654  0.6296 -0.1826  0.1933
26656SOL    HW192027   4.816   9.640   2.742 -0.3252 -0.9730 -0.4395
26656SOL    HW292028   4.803   9.761   2.634 -0.5566 -0.8922 -0.3215
26657SOL     OW92029   1.086   9.217   2.669 -0.3263  0.3805 -0.1841
26657SOL    HW192030   1.089   9.227   2.768 -0.1366 -0.8941 -0.0550
26657SOL    HW292031   1.177   9.194   2.635  0.0660  2.8421 -0.8999
26658SOL     OW92032   0.951   4.232   8.801  0.5474  0.4228 -0.3082
26658SOL    HW192033   0.948   4.133   8.784 -2.9602  0.0670  1.9304
26658SOL    HW292034   0.894   4.279   8.734  0.2928  0.6900  0.0956
26659SOL     OW92035   1.170   8.335   2.157 -0.3674 -0.0205  1.5110
26659SOL    HW192036   1.074   8.329   2.182 -0.1458 -1.5663  1.9907
26659SOL    HW292037   1.201   8.248   2.118  0.5809  0.7755  0.4221
26660SOL     OW92038   8.738   9.022   9.574 -0.3285 -0.3875  0.1316
26660SOL    HW192039   8.720   9.111   9.616  0.3023  0.1842 -0.7978
26660SOL    HW292040   8.727   9.028   9.475  1.1342 -0.9626 -0.0952
26661SOL     OW92041   8.065   9.071   5.841  0.2619  0.7844  0.2357
26661SOL    HW192042   8.024   9.096   5.753  0.6531  1.4155  0.2303
26661SOL    HW292043   8.138   9.004   5.826 -0.5138 -0.0700  0.2113
26662SOL     OW92044   2.895   3.545   4.094  0.5660  0.0220 -0.1842
26662SOL    HW192045   2.974   3.603   4.078  0.1960  0.4825 -0.3587
26662SOL    HW292046   2.924   3.450   4.100  1.6043  0.4633  3.0326
26663SOL     OW92047   8.693   3.579   2.351 -0.1921 -0.0058  0.2143
26663SOL    HW192048   8.634   3.525   2.290  0.0895  0.9156 -0.8825
26663SOL    HW292049   8.778   3.529   2.368 -0.8977 -0.9277  1.0544
26664SOL     OW92050   2.115   2.778   8.639  0.3855 -0.4986  0.0819
26664SOL    HW192051   2.039   2.824   8.593  1.4524  0.7940 -0.4113
26664SOL    HW292052   2.162   2.843   8.699  1.3263 -1.1856  0.1026
26665SOL     OW92053   1.038   5.289   3.879  0.3070  0.2766  0.7822
26665SOL    HW192054   1.078   5.210   3.832  0.1145  0.1730  0.7917
26665SOL    HW292055   1.009   5.262   3.971 -1.4481 -0.1186  0.1303
26666SOL     OW92056   8.411   5.660   7.574 -0.1873 -0.0025  0.2929
26666SOL    HW192057   8.506   5.644   7.546 -0.2686  1.1927 -0.7700
26666SOL    HW292058   8.398   5.631   7.668  1.3735  0.2644  0.6061
26667SOL     OW92059   0.847   2.714   1.993 -0.4389 -0.0772  0.3479
26667SOL    HW192060   0.925   2.661   2.023  1.0224  1.3032 -0.8981
26667SOL    HW292061   0.793   2.661   1.927  1.2482  0.1042 -1.2162
26668SOL     OW92062   2.657   0.862   8.364  0.1817 -0.1597  0.1095
26668SOL    HW192063   2.626   0.772   8.395 -0.4985  0.1976  0.4869
26668SOL    HW292064   2.579   0.925   8.362  0.7192  0.5115  0.1859
26669SOL     OW92065   3.922   3.460   2.634  0.4716  0.2559  0.0747
26669SOL    HW192066   3.888   3.417   2.718 -0.4991  1.9202  0.5769
26669SOL    HW292067   4.021   3.448   2.627  0.8087  1.4424  2.2929
26670SOL     OW92068   6.806   8.755   2.958 -0.2988 -0.7792  0.3634
26670SOL    HW192069   6.790   8.853   2.975 -2.7200 -0.9249 -0.8911
26670SOL    HW292070   6.753   8.701   3.023  0.0743 -1.2667  0.2628
26671SOL     OW92071   3.762   4.934   2.892 -0.3329 -0.0051 -0.8928
26671SOL    HW192072   3.733   4.841   2.914  0.7764  0.0766  1.0343
26671SOL    HW292073   3.682   4.987   2.861 -1.3645 -1.0403 -0.0696
26672SOL     OW92074   7.390   8.191   8.892  0.1732  0.1783 -0.0604
26672SOL    HW192075   7.368   8.208   8.989 -2.2570 -1.5510 -0.2530
26672SOL    HW292076   7.400   8.279   8.845 -1.0461  1.0578  1.2569
26673SOL     OW92077   1.025   1.658   9.699 -0.3566 -0.7062 -0.2166
26673SOL    HW192078   1.049   1.748   9.736 -1.8783 -0.1992 -0.4511
26673SOL    HW292079   0.979   1.604   9.770 -0.7835 -0.7536 -0.5263
26674SOL     OW92080   8.992   2.414   8.058 -0.5122  0.9136 -0.1579
26674SOL    HW192081   8.949   2.486   8.003 -2.9950  0.9823  1.7674
26674SOL    HW292082   8.921   2.360   8.104  1.3814 -1.3795  0.1741
26675SOL     OW92083   6.680   5.822   1.500 -0.1664 -0.2162  0.1022
26675SOL    HW192084   6.641   5.914   1.504 -1.5464 -0.7720 -0.2896
26675SOL    HW292085   6.669   5.786   1.407  0.2338 -0.8432  0.2970
26676SOL     OW92086   7.723   0.798   1.766  0.1682 -0.4164 -0.6286
26676SOL    HW192087   7.782   0.718   1.753 -0.3715 -0.7555 -1.0148
26676SOL    HW292088   7.632   0.778   1.732  0.2533  0.6629 -1.5455
26677SOL     OW92089   6.938   0.584   5.048 -0.2984 -0.1827  0.0496
26677SOL    HW192090   6.878   0.525   5.102 -0.0757 -0.5684 -0.1244
26677SOL    HW292091   6.919   0.680   5.070 -0.8684 -0.3089  0.1106
26678SOL     OW92092   0.592   0.065   9.144  0.3480 -0.1658  0.4353
26678SOL    HW192093   0.522  -0.004   9.129 -0.2149  0.3444  0.6878
26678SOL    HW292094   0.613   0.111   9.058  1.3948 -1.2698  0.0774
26679SOL     OW92095   9.308   9.902   9.854 -0.1149  0.6382 -0.0248
26679SOL    HW192096   9.324   9.917   9.756 -0.8855 -0.1068 -0.2688
26679SOL    HW292097   9.239   9.831   9.866 -1.3155  1.9617  1.0409
26680SOL     OW92098   9.446   9.180   4.678  0.4002  0.3861  0.0374
26680SOL    HW192099   9.411   9.091   4.707  0.0081  0.6996  0.5278
26680SOL    HW292100   9.518   9.166   4.610 -0.6813 -0.2715 -1.0124
26681SOL     OW92101   0.102   7.112   6.893 -0.0431 -0.3780  0.3261
26681SOL    HW192102   0.092   7.199   6.844 -0.2686  0.5823  2.0507
26681SOL    HW292103   0.035   7.046   6.857  0.0285  0.1950 -0.8860
26682SOL     OW92104   1.339   4.762   2.511 -0.4536 -0.1345 -0.1644
26682SOL    HW192105   1.344   4.676   2.460  0.8344  0.3233 -0.8329
26682SOL    HW292106   1.268   4.755   2.581 -0.0018 -1.9275  0.1382
26683SOL     OW92107   5.436   9.090   5.495  0.2335  0.2480  0.2866
26683SOL    HW192108   5.341   9.121   5.497  0.2656  0.3705  0.0207
26683SOL    HW292109   5.488   9.147   5.431  0.5579  0.3907  0.6803
26684SOL     OW92110   5.725   8.696   3.630 -0.2566  0.3284 -0.0308
26684SOL    HW192111   5.763   8.749   3.555  1.9979 -0.3075  0.6269
26684SOL    HW292112   5.649   8.746   3.672  0.0181  1.7468 -1.1960
26685SOL     OW92113   4.939   3.891   7.298  0.0285 -0.3380  0.6241
26685SOL    HW192114   4.875   3.897   7.375  0.8864 -0.6651  1.3570
26685SOL    HW292115   4.912   3.958   7.228 -0.0552  0.7824  1.7191
26686SOL     OW92116   8.081   1.187   3.754  0.0535 -0.3432  0.3927
26686SOL    HW192117   8.006   1.247   3.724  0.2223  0.0080  0.6599
26686SOL    HW292118   8.092   1.112   3.689 -1.4596 -1.1869  1.0956
26687SOL     OW92119   0.944   9.758   7.734 -0.0506  0.0264 -0.0242
26687SOL    HW192120   0.985   9.678   7.689  3.0169  0.5642  1.6704
26687SOL    HW292121   0.934   9.832   7.668 -0.0995 -0.7556 -0.9136
26688SOL     OW92122   8.814   9.668   7.128  0.6246  0.2932  0.1024
26688SOL    HW192123   8.859   9.756   7.112  0.1798  0.6427  0.7588
26688SOL    HW292124   8.736   9.659   7.066  0.1063  0.7734  0.6753
26689SOL     OW92125   2.448   2.570   6.085  0.3151  0.5262  0.8844
26689SOL    HW192126   2.469   2.479   6.121  0.4880  0.2823  0.1689
26689SOL    HW292127   2.532   2.613   6.050 -0.2289 -0.2463 -1.5028
26690SOL     OW92128   8.822   5.503   5.314 -0.0317  0.3606 -0.4351
26690SOL    HW192129   8.747   5.552   5.271  0.5635  0.2178 -1.6529
26690SOL    HW292130   8.794   5.409   5.334  0.2422 -0.0890 -2.1008
26691SOL     OW92131   3.338   0.981   2.800  0.4035  0.2648 -0.5144
26691SOL    HW192132   3.355   1.080   2.796  0.6722  0.2260 -0.3437
26691SOL    HW292133   3.307   0.957   2.892  0.4767  0.1661 -0.5161
26692SOL     OW92134   0.057   6.706   4.777  0.3520 -0.8069  0.1785
26692SOL    HW192135   0.044   6.698   4.876 -1.2253 -0.2965  0.0150
26692SOL    HW292136  -0.031   6.724   4.733  1.4173  1.4812 -1.0758
26693SOL     OW92137   0.127   5.025   1.649 -0.0802 -0.2970 -0.4527
26693SOL    HW192138   0.030   5.034   1.670 -0.0213  0.2190 -0.3705
26693SOL    HW292139   0.145   5.065   1.559  0.2612  0.7862  0.0793
26694SOL     OW92140   5.536   9.538   8.925 -0.3171 -0.7969  0.6039
26694SOL    HW192141   5.503   9.632   8.932  1.6124  0.0156 -0.7870
26694SOL    HW292142   5.519   9.503   8.833  1.1500 -0.9349  0.3723
26695SOL     OW92143   0.335   2.599   2.891  0.0740  0.0520 -0.3509
26695SOL    HW192144   0.314   2.532   2.962 -1.1736  0.6813 -0.1079
26695SOL    HW292145   0.396   2.669   2.928 -0.1013  0.0552 -0.0687
26696SOL     OW92146   9.980   3.493   6.190  0.1995 -0.2397 -0.1927
26696SOL    HW192147  10.020   3.543   6.113  0.6686  0.4890  0.5230
26696SOL    HW292148   9.923   3.418   6.154 -1.0515  1.2061 -1.2890
26697SOL     OW92149   3.706   6.643   5.080  0.1246 -0.0206 -0.0473
26697SOL    HW192150   3.715   6.544   5.071 -1.0878 -0.2778  1.3403
26697SOL    HW292151   3.614   6.671   5.053  0.4917  0.7585 -0.5341
26698SOL     OW92152   2.953   4.839   8.949  0.4522 -0.9347  0.1943
26698SOL    HW192153   2.980   4.761   8.891 -1.6616  0.1824 -2.3763
26698SOL    HW292154   2.953   4.811   9.045  2.8768 -3.1789 -0.4071
26699SOL     OW92155   9.106   1.071   3.024  0.1866  0.0872  0.4119
26699SOL    HW192156   9.139   1.000   2.962  2.0867  2.0300 -0.8881
26699SOL    HW292157   9.148   1.059   3.114  0.7063 -0.3055  0.1181
26700SOL     OW92158   4.118   6.761   4.885 -0.6483  0.2258  0.1985
26700SOL    HW192159   4.157   6.779   4.975  1.0494  0.9432 -0.6753
26700SOL    HW292160   4.023   6.732   4.896  0.9264 -4.5763  2.5847
26701SOL     OW92161   4.355   3.839   5.644  0.1020  0.0217 -0.2714
26701SOL    HW192162   4.444   3.807   5.677 -0.1560 -1.4918 -0.9997
26701SOL    HW292163   4.284   3.811   5.709  0.1185  0.9987  0.1744
26702SOL     OW92164   0.948   1.016   8.876 -0.0905 -0.4560 -0.1051
26702SOL    HW192165   0.902   1.067   8.949 -0.0765  0.2846 -0.6024
26702SOL    HW292166   0.886   0.947   8.839 -0.7408  0.3798 -0.6086
26703SOL     OW92167   9.339   4.263   1.179 -0.0845 -0.1216  1.0440
26703SOL    HW192168   9.308   4.191   1.241  1.5292 -1.7142  0.0627
26703SOL    HW292169   9.277   4.267   1.100  0.7837 -1.6684  0.2491
26704SOL     OW92170   5.688   3.753   8.793 -0.0189 -0.6929  0.2723
26704SOL    HW192171   5.659   3.847   8.809  0.3864 -0.0122 -2.6177
26704SOL    HW292172   5.740   3.719   8.872  0.4097  1.7334  1.0590
26705SOL     OW92173   8.326   7.475   8.881  0.4902 -0.1371  0.4515
26705SOL    HW192174   8.337   7.477   8.782  0.2835 -0.0443  0.4300
26705SOL    HW292175   8.245   7.527   8.907  2.4282  2.7390  0.9396
26706SOL     OW92176   2.227   5.281   9.792 -0.3536  0.0995 -0.4271
26706SOL    HW192177   2.201   5.204   9.850  0.0964  0.3826  0.1558
26706SOL    HW292178   2.183   5.365   9.825  1.7048  0.6842  0.9029
26707SOL     OW92179   7.167   2.142   8.309  0.4974  0.2059  0.6155
26707SOL    HW192180   7.195   2.223   8.360  0.7707 -0.9751  2.3616
26707SOL    HW292181   7.241   2.075   8.307  0.1890 -0.1250 -0.6036
26708SOL     OW92182   1.621   7.646   9.207  0.5222  0.0244 -0.4819
26708SOL    HW192183   1.580   7.714   9.267  0.8101 -0.1557 -0.0808
26708SOL    HW292184   1.693   7.688   9.152  0.9079 -0.0276 -0.0134
26709SOL     OW92185   2.770   5.896   1.140 -0.1642  0.4409  0.3304
26709SOL    HW192186   2.681   5.852   1.131  0.0581 -0.1967  1.1985
26709SOL    HW292187   2.798   5.935   1.052 -1.2548  0.5617  0.0404
26710SOL     OW92188   2.808   1.866   3.397 -0.2211 -0.6612  0.0262
26710SOL    HW192189   2.814   1.943   3.333 -1.3639  0.6433  1.4343
26710SOL    HW292190   2.897   1.820   3.402  0.6497  0.9232 -0.4028
26711SOL     OW92191   1.992   6.837   4.089  0.3720  0.7108 -0.5161
26711SOL    HW192192   2.067   6.894   4.054  0.2891 -0.0102 -1.9338
26711SOL    HW292193   2.029   6.750   4.121  0.3539  1.0776  0.5091
26712SOL     OW92194   8.578   3.668   5.879  0.8614  0.9492  0.2961
26712SOL    HW192195   8.553   3.682   5.975 -0.3644 -0.2177  0.1522
26712SOL    HW292196   8.654   3.730   5.855  0.8692  1.5699  1.8768
26713SOL     OW92197   2.893   2.956   5.154 -0.2293  0.4586  0.2370
26713SOL    HW192198   2.956   3.025   5.116  0.2551  0.1153  0.4133
26713SOL    HW292199   2.938   2.907   5.229 -0.0822 -0.9931 -0.7808
26714SOL     OW92200   0.567   7.855   2.947 -1.0704  0.8691 -0.3830
26714SOL    HW192201   0.620   7.920   2.893 -0.1013  0.4041 -0.0142
26714SOL    HW292202   0.475   7.891   2.962 -0.4590  2.2859  0.0586
26715SOL     OW92203   9.851   8.616   0.518 -0.0363 -0.1404 -0.4466
26715SOL    HW192204   9.755   8.596   0.495 -0.0748  2.2012 -2.5503
26715SOL    HW292205   9.857   8.642   0.614 -1.6108  0.1658 -0.4107
26716SOL     OW92206   2.389   4.937   1.096 -0.3472 -0.1710  0.2542
26716SOL    HW192207   2.346   4.992   1.025 -1.0390 -0.0607  0.7528
26716SOL    HW292208   2.457   4.876   1.054  0.4416  1.0621 -0.2920
26717SOL     OW92209   0.024   1.739   8.518 -0.4801 -0.4415  0.0789
26717SOL    HW192210   0.056   1.751   8.612 -1.4351  1.1387  0.2059
26717SOL    HW292211   0.046   1.646   8.488  1.5141 -0.3694  1.2092
26718SOL     OW92212   6.449   2.775   3.523  0.5337  0.8783 -0.3854
26718SOL    HW192213   6.432   2.716   3.444 -1.8299 -1.3540  1.6910
26718SOL    HW292214   6.546   2.799   3.527  1.6689 -3.2624 -1.0885
26719SOL     OW92215   7.422   9.189   1.933  0.6130 -0.5537 -0.7956
26719SOL    HW192216   7.366   9.244   1.871 -1.7110 -0.5221  1.2222
26719SOL    HW292217   7.396   9.093   1.923 -1.4248 -0.3138  1.6621
26720SOL     OW92218   6.064   2.113   9.833 -0.2370  0.5202 -0.5263
26720SOL    HW192219   5.976   2.153   9.807 -1.1188 -0.1246  1.3612
26720SOL    HW292220   6.098   2.055   9.759 -1.2130  1.0406 -1.4035
26721SOL     OW92221   5.782   9.561   5.993 -0.1827  0.4592 -0.4794
26721SOL    HW192222   5.713   9.625   5.959  1.1695  2.6596  0.7243
26721SOL    HW292223   5.762   9.469   5.961 -2.7454  1.3248 -1.4762
26722SOL     OW92224   3.330   5.371   3.620  0.4360 -0.1166 -0.1037
26722SOL    HW192225   3.284   5.432   3.685  1.4454  0.9064 -0.3296
26722SOL    HW292226   3.263   5.337   3.554 -0.1140  0.9329 -0.1009
26723SOL     OW92227   1.488   5.955   9.968 -0.0264  0.0110 -0.4395
26723SOL    HW192228   1.420   6.022   9.937  0.9914  0.4900 -1.6586
26723SOL    HW292229   1.569   5.960   9.910  0.5598 -1.4325  0.2358
26724SOL     OW92230   0.854   9.294   2.828  0.2918 -0.5219  0.3389
26724SOL    HW192231   0.837   9.234   2.907 -1.7583 -1.3032 -0.6594
26724SOL    HW292232   0.866   9.238   2.746  1.7998  0.3153 -0.0231
26725SOL     OW92233   4.068   5.229   7.676 -0.4353  0.2267  0.8980
26725SOL    HW192234   4.142   5.269   7.729 -0.1569  2.6527 -1.2472
26725SOL    HW292235   4.035   5.295   7.609 -0.7561 -2.7133 -1.9728
26726SOL     OW92236   7.502   0.849   1.461 -0.2934  0.2047 -0.5387
26726SOL    HW192237   7.513   0.938   1.507  0.7919 -0.5839  0.7822
26726SOL    HW292238   7.507   0.776   1.529 -0.0949 -0.9319 -1.7575
26727SOL     OW92239   8.305   4.653   6.171  0.5948  0.7036 -0.8739
26727SOL    HW192240   8.404   4.657   6.165  0.7433  0.4289  0.8993
26727SOL    HW292241   8.265   4.738   6.137  1.5168  1.3911 -0.2615
26728SOL     OW92242   6.460   1.322   6.348 -0.3848 -0.1893 -0.2813
26728SOL    HW192243   6.478   1.421   6.349  0.9230 -0.4297  0.7438
26728SOL    HW292244   6.445   1.292   6.254 -0.6435  0.9591 -0.6185
26729SOL     OW92245   9.411   9.162   6.251  0.0006 -0.0234  0.5212
26729SOL    HW192246   9.422   9.247   6.200 -0.7160 -0.1084  0.2170
26729SOL    HW292247   9.403   9.183   6.348 -0.6589  0.2917  0.3993
26730SOL     OW92248   0.403   2.964   9.469  0.5816 -0.1616 -0.2075
26730SOL    HW192249   0.467   2.990   9.541  0.2326 -0.9628  0.4027
26730SOL    HW292250   0.403   2.865   9.458 -0.0650 -0.1164 -0.6628
26731SOL     OW92251   0.008   1.027   6.044 -0.3982  0.0376  0.0720
26731SOL    HW192252   0.092   1.010   5.993 -0.1526  0.9223  0.1755
26731SOL    HW292253  -0.064   1.055   5.981 -0.6641 -0.8501 -0.0345
26732SOL     OW92254   9.028   8.151   0.542 -0.5051 -0.6310 -0.1022
26732SOL    HW192255   9.015   8.071   0.483  0.2119  0.5694 -1.9206
26732SOL    HW292256   9.121   8.150   0.578 -0.3637 -0.4080 -0.4570
26733SOL     OW92257   1.675   3.690   7.174 -0.3380 -0.0051 -0.4784
26733SOL    HW192258   1.631   3.779   7.178  2.8154  1.5843  0.4032
26733SOL    HW292259   1.732   3.684   7.092 -1.0860 -1.5150 -0.9148
26734SOL     OW92260   6.474   8.435   7.114  0.7663 -0.6048 -0.4979
26734SOL    HW192261   6.566   8.419   7.151  1.0430 -1.4335 -1.5197
26734SOL    HW292262   6.463   8.533   7.095  0.9920 -0.3247  0.7764
26735SOL     OW92263   3.176   5.458   0.645  0.3424 -0.0359  0.2202
26735SOL    HW192264   3.126   5.506   0.573  0.9113  0.8440  0.4128
26735SOL    HW292265   3.116   5.388   0.685 -0.3792  0.2792 -0.2877
26736SOL     OW92266   8.407   6.184   6.515 -0.1551 -0.0455  0.1815
26736SOL    HW192267   8.348   6.257   6.550 -0.1750  0.2791 -0.5230
26736SOL    HW292268   8.365   6.095   6.532  0.3046  0.0411  1.9068
26737SOL     OW92269   4.193   9.000   7.867 -0.1454  0.0168 -0.3970
26737SOL    HW192270   4.187   9.099   7.876  0.3542  0.1558 -1.4923
26737SOL    HW292271   4.101   8.961   7.862 -0.3730  0.2567  1.7040
26738SOL     OW92272   3.934   6.978   0.255 -0.5197 -0.1411  0.2018
26738SOL    HW192273   4.012   6.918   0.239 -1.0539 -1.6359  2.8446
26738SOL    HW292274   3.956   7.071   0.226  0.8394 -1.2861 -2.6502
26739SOL     OW92275   1.107   0.043   9.922  0.4252  0.1973 -0.2019
26739SOL    HW192276   1.171  -0.033   9.915  0.0649 -0.2518  1.2278
26739SOL    HW292277   1.085   0.077   9.831 -0.6670 -2.4691 -0.9947
26740SOL     OW92278   5.991   8.050   6.608 -0.1846 -0.1798  0.2786
26740SOL    HW192279   6.070   8.027   6.665  0.2559 -0.5485 -0.4734
26740SOL    HW292280   6.016   8.126   6.548 -0.3218 -0.4774 -0.1484
26741SOL     OW92281   7.641   7.675   5.689 -0.3441 -0.7661  0.2314
26741SOL    HW192282   7.630   7.672   5.590 -0.0121  0.9765  0.1175
26741SOL    HW292283   7.731   7.713   5.711 -1.6468  1.9292  1.1793
26742SOL     OW92284   2.008   6.336   5.405  0.6220 -1.0995 -0.4747
26742SOL    HW192285   2.019   6.401   5.330  1.5104  0.0104  0.6142
26742SOL    HW292286   1.990   6.385   5.490  0.7447 -2.3014  0.2591
26743SOL     OW92287   2.500   1.594   8.111  0.7405 -0.1334  0.1609
26743SOL    HW192288   2.589   1.579   8.070  0.9919  1.6372  0.0019
26743SOL    HW292289   2.506   1.670   8.176 -1.1217  1.5085 -1.5125
26744SOL     OW92290   8.305   5.643   3.800  0.0930  0.3319 -0.2058
26744SOL    HW192291   8.346   5.683   3.718 -0.0766  0.6094 -0.1580
26744SOL    HW292292   8.220   5.596   3.775 -0.6001  1.4476 -0.0259
26745SOL     OW92293   4.516   4.710   1.720 -0.5746  0.2328  0.0714
26745SOL    HW192294   4.497   4.643   1.648  1.5197 -1.0694  0.6996
26745SOL    HW292295   4.438   4.713   1.782 -0.1635 -2.6794  0.8240
26746SOL     OW92296   3.462   9.327   6.471 -0.4184  0.2452 -0.4061
26746SOL    HW192297   3.520   9.289   6.543 -0.5991  0.8564  0.0649
26746SOL    HW292298   3.520   9.359   6.396 -0.0820  1.5526  0.3916
26747SOL     OW92299   1.914   0.370   8.718  0.4274  0.7370 -0.1784
26747SOL    HW192300   1.986   0.402   8.779  0.1004  0.8860  0.1296
26747SOL    HW292301   1.851   0.311   8.768  0.6113  0.2089 -0.5676
26748SOL     OW92302   6.950   3.997   3.195  0.3833  0.1689 -0.5763
26748SOL    HW192303   6.974   3.934   3.269 -1.6667  1.9632  1.6753
26748SOL    HW292304   6.981   4.089   3.218 -1.7700  1.0680 -1.1439
26749SOL     OW92305   4.907   3.640   9.315 -0.3345  0.4886  0.3451
26749SOL    HW192306   4.985   3.596   9.360 -2.0090 -1.0697  1.8219
26749SOL    HW292307   4.896   3.733   9.351 -0.7345 -0.2162  2.0932
26750SOL     OW92308   7.227   2.573   2.391 -0.2582 -0.1447  0.8031
26750SOL    HW192309   7.152   2.551   2.328 -1.6684 -0.5538  2.5833
26750SOL    HW292310   7.200   2.650   2.449  0.8448 -0.0664  1.2165
26751SOL     OW92311   3.436   2.972   0.496 -0.1775  0.2790  0.0126
26751SOL    HW192312   3.448   3.067   0.523  0.7236  0.0613  0.3833
26751SOL    HW292313   3.523   2.923   0.507 -0.5083 -0.4603 -0.6553
26752SOL     OW92314   4.300   4.892   4.138  0.4509 -0.8754  0.0088
26752SOL    HW192315   4.203   4.888   4.114  0.4835 -1.0230 -0.1013
26752SOL    HW292316   4.345   4.960   4.080  0.1483  0.1771  0.9790
26753SOL     OW92317   7.461   0.171   4.338 -0.2823 -0.5127  0.0783
26753SOL    HW192318   7.416   0.148   4.252 -1.1117 -0.1692  0.4151
26753SOL    HW292319   7.430   0.109   4.410 -1.1951  0.5384  0.5960
26754SOL     OW92320   3.770   8.982   0.525  0.1185 -0.0572 -0.1423
26754SOL    HW192321   3.713   9.057   0.558  2.1914  0.8882  1.4719
26754SOL    HW292322   3.743   8.897   0.570 -1.2113  0.0258 -0.7859
26755SOL     OW92323   3.857   9.240   0.946  0.7266 -0.2349 -0.4320
26755SOL    HW192324   3.790   9.295   0.995  1.9098 -1.0697  2.2304
26755SOL    HW292325   3.936   9.296   0.922  0.9164 -0.2359  0.1983
26756SOL     OW92326   9.703   3.448   4.242 -0.2700 -0.1537  0.6667
26756SOL    HW192327   9.670   3.372   4.299 -1.4418  0.8607  1.3638
26756SOL    HW292328   9.797   3.471   4.268  0.2442 -1.6439  0.1565
26757SOL     OW92329   2.677   8.402   7.702  0.6371  0.0381  0.2401
26757SOL    HW192330   2.648   8.483   7.651 -1.3763 -0.6189  0.2970
26757SOL    HW292331   2.641   8.407   7.795 -2.3343 -2.4325 -0.6957
26758SOL     OW92332   7.534   4.823   7.362  0.5873 -0.2594  0.0078
26758SOL    HW192333   7.521   4.766   7.281 -0.4918  0.1331 -0.0950
26758SOL    HW292334   7.464   4.894   7.365  2.6295  1.8533 -0.5429
26759SOL     OW92335   7.433   5.642   7.424 -0.5454 -0.0321 -0.0472
26759SOL    HW192336   7.400   5.694   7.345  0.9338  0.5737 -0.2749
26759SOL    HW292337   7.478   5.704   7.488 -0.9833 -0.6583  0.8781
26760SOL     OW92338   6.035   3.897   8.278  0.1854  0.3494  0.2024
26760SOL    HW192339   6.001   3.983   8.318 -0.3148  0.1299  0.2557
26760SOL    HW292340   6.044   3.828   8.350 -3.6324 -0.9749 -0.4701
26761SOL     OW92341   2.054   3.427   8.847 -0.3307  0.0956 -0.4034
26761SOL    HW192342   2.047   3.480   8.931  0.3368 -1.0801  0.4136
26761SOL    HW292343   1.975   3.447   8.788 -1.4686 -0.0224  1.0510
26762SOL     OW92344   9.701   0.647   6.112 -0.2345 -0.4267  0.2567
26762SOL    HW192345   9.775   0.707   6.144 -0.2441 -0.7346  0.8625
26762SOL    HW292346   9.735   0.590   6.037 -0.5563  1.1501 -1.1201
26763SOL     OW92347   9.644   0.190   5.848  0.0202  0.4743  0.8891
26763SOL    HW192348   9.564   0.214   5.793  0.1510 -0.5056  0.2568
26763SOL    HW292349   9.679   0.101   5.820  1.6470  1.1048  0.8133
26764SOL     OW92350   7.631   1.610   1.291  0.0862 -0.5330  0.1504
26764SOL    HW192351   7.706   1.579   1.349  0.0836  3.0953  2.2789
26764SOL    HW292352   7.546   1.611   1.345 -1.0808 -2.4416 -1.5849
26765SOL     OW92353   8.806   5.272   7.202 -0.0800 -0.2540  0.2818
26765SOL    HW192354   8.853   5.334   7.266  0.1887 -1.1366  0.9485
26765SOL    HW292355   8.723   5.316   7.167 -0.5279  0.0242  1.6709
26766SOL     OW92356   0.859   2.730   5.660 -0.2198 -0.1659 -0.1749
26766SOL    HW192357   0.929   2.791   5.623  1.1486 -0.9593  1.0733
26766SOL    HW292358   0.844   2.751   5.757  0.3964 -1.9060  0.3132
26767SOL     OW92359   3.844   7.720   9.799  0.3196  0.5797  0.0360
26767SOL    HW192360   3.796   7.644   9.842  1.1290 -1.0370 -1.8675
26767SOL    HW292361   3.804   7.739   9.710  3.2428 -0.8876 -1.6555
26768SOL     OW92362   4.728   2.813   1.223 -0.9334  0.5915 -0.0896
26768SOL    HW192363   4.629   2.808   1.213 -1.0423 -1.2414  1.5958
26768SOL    HW292364   4.772   2.760   1.150 -1.2624 -0.4076  0.4329
26769SOL     OW92365   6.400   1.710   9.230 -0.1836  0.1037 -0.2707
26769SOL    HW192366   6.442   1.631   9.185 -0.4824 -0.7283  0.8721
26769SOL    HW292367   6.470   1.780   9.246  0.8597 -1.3333  1.7522
26770SOL     OW92368   4.747   8.526   3.980 -0.3266  0.2170 -0.6128
26770SOL    HW192369   4.686   8.602   3.957 -0.8403 -0.0238 -0.0541
26770SOL    HW292370   4.736   8.502   4.076 -1.5336 -1.7708 -1.2111
26771SOL     OW92371   8.908   0.376   7.384  0.3478  0.3438  0.4521
26771SOL    HW192372   8.890   0.379   7.285 -3.9553  2.0642  1.1723
26771SOL    HW292373   8.909   0.280   7.414 -1.1599 -0.1208 -0.8712
26772SOL     OW92374   1.880   2.097   3.561  0.3573  0.0753  0.1534
26772SOL    HW192375   1.968   2.105   3.513 -0.1749  2.0841 -0.5579
26772SOL    HW292376   1.811   2.152   3.513 -2.1994 -4.1340 -1.2976
26773SOL     OW92377   2.637   9.129   2.930 -0.0081 -0.0825 -0.2651
26773SOL    HW192378   2.590   9.116   2.842  1.2650 -0.5948 -0.8721
26773SOL    HW292379   2.569   9.129   3.003 -1.0742  0.2081 -1.2292
26774SOL     OW92380   7.385   0.524   6.020  0.5302  0.4402 -0.2645
26774SOL    HW192381   7.459   0.519   5.953  0.9079 -0.7481  0.2051
26774SOL    HW292382   7.424   0.522   6.112 -0.0761  0.0236 -0.0126
26775SOL     OW92383   2.633   0.318   4.797  0.0415  0.5989  0.0193
26775SOL    HW192384   2.559   0.306   4.862  0.2395  0.2920  0.1886
26775SOL    HW292385   2.612   0.268   4.713 -0.5777  1.6327 -0.4549
26776SOL     OW92386   1.239   8.112   2.009 -0.6934 -0.5031 -0.0492
26776SOL    HW192387   1.278   8.046   2.074 -0.9297 -2.5798 -1.9465
26776SOL    HW292388   1.311   8.144   1.947 -0.9468 -0.4324 -0.3112
26777SOL     OW92389   1.746   9.482   5.439  0.3943 -0.0780 -0.0461
26777SOL    HW192390   1.790   9.418   5.502  0.6145  1.2861  1.2193
26777SOL    HW292391   1.717   9.564   5.490 -1.6830 -0.0290 -1.2451
26778SOL     OW92392   9.610   0.604   3.689  0.2843 -0.0453 -0.1078
26778SOL    HW192393   9.691   0.636   3.638 -1.5073  0.8312 -2.4914
26778SOL    HW292394   9.569   0.680   3.738  0.6034 -0.3958  0.7158
26779SOL     OW92395   8.257   0.805   5.651 -0.1620  0.1470 -0.2064
26779SOL    HW192396   8.339   0.776   5.701  0.4914  0.3263 -1.1570
26779SOL    HW292397   8.197   0.726   5.636  0.3942 -0.2149 -0.5374
26780SOL     OW92398   2.893   8.462   9.189  0.3998  0.4147 -0.0774
26780SOL    HW192399   2.878   8.542   9.130  0.8509 -0.0410 -0.8174
26780SOL    HW292400   2.986   8.464   9.225 -0.1237  1.1013  1.2453
26781SOL     OW92401   5.577   1.258   5.573 -0.8335 -0.3444  0.1171
26781SOL    HW192402   5.533   1.229   5.488 -0.7779 -3.7346  1.1755
26781SOL    HW292403   5.507   1.285   5.639 -1.1106 -1.3922  0.2659
26782SOL     OW92404   3.895   2.948   8.711  0.0326 -0.0854 -0.1042
26782SOL    HW192405   3.983   2.975   8.748  0.8344  0.9433 -2.6519
26782SOL    HW292406   3.824   3.010   8.744  0.1599 -1.1652  2.2797
26783SOL     OW92407   1.483   1.447   7.644 -0.2440  0.2152 -0.3839
26783SOL    HW192408   1.553   1.376   7.642  0.7865  1.2057 -0.2151
26783SOL    HW292409   1.398   1.413   7.602  0.1099 -1.2281  0.0710
26784SOL     OW92410   7.385   1.866   7.863 -0.4667 -0.1507  0.2585
26784SOL    HW192411   7.431   1.866   7.774 -0.3311 -0.8154  0.3236
26784SOL    HW292412   7.453   1.871   7.936 -0.5392 -0.3330  0.3389
26785SOL     OW92413   9.290   5.051   3.369  0.1662 -0.1660  0.8744
26785SOL    HW192414   9.252   5.038   3.461 -0.7193  3.7149  1.1458
26785SOL    HW292415   9.239   5.123   3.322  1.0937 -1.5540 -2.4333
26786SOL     OW92416   0.192   9.615   0.871  0.1196  0.1213  0.5929
26786SOL    HW192417   0.282   9.596   0.910  0.2719  0.1292  0.2396
26786SOL    HW292418   0.123   9.612   0.944  0.5737  1.3901  1.0823
26787SOL     OW92419   1.417   1.909   2.634 -0.1774  0.0831 -0.1659
26787SOL    HW192420   1.330   1.956   2.641  0.2644  0.9246 -0.3167
26787SOL    HW292421   1.424   1.840   2.707  0.0347  1.6592  1.3191
26788SOL     OW92422   9.376   8.805   5.436  0.3223  0.3094  0.2888
26788SOL    HW192423   9.429   8.888   5.415  0.3789  0.3517  0.5968
26788SOL    HW292424   9.377   8.789   5.535  1.2063 -0.6530  0.1360
26789SOL     OW92425   0.372   8.129   5.081 -0.0918  0.3812 -0.2733
26789SOL    HW192426   0.422   8.170   5.157 -0.2502  0.6972 -0.3383
26789SOL    HW292427   0.437   8.098   5.011  0.0258  0.6489 -0.2858
26790SOL     OW92428   7.057   3.023   9.080  0.0107  0.3433  0.0143
26790SOL    HW192429   6.986   2.954   9.097 -1.1266  1.7892  1.3438
26790SOL    HW292430   7.032   3.077   9.000 -0.9730  1.5322  1.0914
26791SOL     OW92431   5.255   2.814   1.822  0.1982  0.5603 -0.5185
26791SOL    HW192432   5.342   2.858   1.845  1.3216 -1.5720 -0.5690
26791SOL    HW292433   5.214   2.776   1.905  0.7555 -0.9704 -0.9375
26792SOL     OW92434   5.010   1.676   6.307 -0.6713  0.3364 -0.0209
26792SOL    HW192435   5.099   1.691   6.263 -0.2953 -1.3295  0.1680
26792SOL    HW292436   5.020   1.613   6.383 -2.5538 -2.3880 -1.9554
26793SOL     OW92437   6.800   9.196   5.894  0.3797 -0.0914  0.2232
26793SOL    HW192438   6.709   9.178   5.857  0.8014 -0.4289 -0.6430
26793SOL    HW292439   6.856   9.239   5.824  0.5253  1.1964  1.1260
26794SOL     OW92440   0.905   0.842   6.666 -0.1171 -0.6241  0.3826
26794SOL    HW192441   0.861   0.931   6.655 -0.3458 -0.8636 -0.7189
26794SOL    HW292442   0.997   0.855   6.703 -0.3859  0.0223  0.8378
26795SOL     OW92443   1.305   7.313   1.594 -0.2855 -0.5139 -0.0745
26795SOL    HW192444   1.223   7.355   1.632 -1.4135 -1.8668 -1.0027
26795SOL    HW292445   1.348   7.254   1.662 -0.6943 -0.6731  0.0399
26796SOL     OW92446   1.693   3.973   2.793  0.1926  0.4203  0.2056
26796SOL    HW192447   1.626   3.943   2.861 -0.5741  1.0464 -0.2680
26796SOL    HW292448   1.693   3.909   2.716  0.2053  0.3793  0.2393
26797SOL     OW92449   7.126   0.573   0.796 -0.1909 -0.4235  0.4724
26797SOL    HW192450   7.125   0.560   0.895 -3.0574 -1.3705  0.3663
26797SOL    HW292451   7.168   0.493   0.752 -2.1822 -1.6352  0.7491
26798SOL     OW92452   7.106   3.768   1.575 -0.1996  0.0898 -0.3991
26798SOL    HW192453   7.119   3.768   1.476 -0.2873 -1.0313 -0.4146
26798SOL    HW292454   7.179   3.716   1.618  2.3409  4.1840  0.4969
26799SOL     OW92455   1.887   8.215   9.776  0.0360 -0.0245 -0.2754
26799SOL    HW192456   1.872   8.307   9.812  1.6219  0.1421  0.0216
26799SOL    HW292457   1.863   8.212   9.679  0.4516  0.8372 -0.4041
26800SOL     OW92458   9.488   2.090   1.535  0.0574  0.3199 -0.2327
26800SOL    HW192459   9.496   2.028   1.457  1.0559  0.4144 -0.2143
26800SOL    HW292460   9.451   2.041   1.614  0.5830 -0.1936 -0.2973
26801SOL     OW92461   8.795   7.927   7.671  0.0062  0.2182 -0.4068
26801SOL    HW192462   8.786   7.919   7.572 -0.5538  0.4467 -0.3738
26801SOL    HW292463   8.712   7.967   7.709  0.7725  1.4177  0.0064
26802SOL     OW92464   4.386   1.542   9.934  0.1890  0.0597  0.0533
26802SOL    HW192465   4.424   1.621   9.980  2.2538 -1.7456  1.5167
26802SOL    HW292466   4.311   1.571   9.874  0.6381  3.0239  0.8754
26803SOL     OW92467   8.683   7.582   6.783 -0.2147  0.0044  0.0076
26803SOL    HW192468   8.740   7.501   6.770 -1.5509 -0.9590  0.0043
26803SOL    HW292469   8.625   7.595   6.702 -1.4122 -0.2140  0.8050
26804SOL     OW92470   8.308   5.391   6.171  0.1628 -0.3913  0.8499
26804SOL    HW192471   8.329   5.325   6.099 -0.5530 -0.8063  1.0155
26804SOL    HW292472   8.390   5.444   6.193  0.8826 -1.5760  1.0802
26805SOL     OW92473   3.408   0.180   1.109 -0.1230  0.3509  0.0237
26805SOL    HW192474   3.457   0.199   1.024 -0.5876 -1.3845 -0.6553
26805SOL    HW292475   3.474   0.172   1.184  0.3028  1.7191 -0.1944
26806SOL     OW92476   1.057   9.228   8.948 -0.3873  0.5467  0.2452
26806SOL    HW192477   0.975   9.276   8.978 -1.2213 -1.1993  0.8332
26806SOL    HW292478   1.056   9.218   8.848 -0.9426  0.4269  0.2640
26807SOL     OW92479   9.284   0.440   4.733  0.1121 -0.2980  0.5851
26807SOL    HW192480   9.292   0.342   4.749  0.1116 -0.6387 -1.4498
26807SOL    HW292481   9.367   0.486   4.766  0.4844 -1.0710  0.7187
26808SOL     OW92482   8.756   5.941   5.297 -0.4266  0.0174  0.8320
26808SOL    HW192483   8.811   6.025   5.294 -1.5660  0.7363 -0.3890
26808SOL    HW292484   8.808   5.869   5.344  1.9762  0.3576 -1.2198
26809SOL     OW92485   9.031   2.683   4.470 -0.0448 -0.1351 -0.3346
26809SOL    HW192486   8.949   2.626   4.474 -0.1462  0.1162  1.6621
26809SOL    HW292487   9.108   2.634   4.509  0.3004  0.3928 -0.3424
26810SOL     OW92488   0.577   0.618   1.966 -0.4186  0.1658 -0.5031
26810SOL    HW192489   0.478   0.635   1.957 -0.5632 -0.4535 -0.1165
26810SOL    HW292490   0.598   0.596   2.061  0.2420  1.1921 -0.4023
26811SOL     OW92491   0.819   6.478   9.772  0.0162 -0.0436  0.4179
26811SOL    HW192492   0.730   6.508   9.805 -0.6453  0.5868 -1.8419
26811SOL    HW292493   0.807   6.405   9.705  1.1807  0.1672 -0.0412
26812SOL     OW92494   9.347   1.611   6.107  0.1539  0.1690  0.0255
26812SOL    HW192495   9.408   1.640   6.181  3.0526  0.3037 -2.3338
26812SOL    HW292496   9.343   1.683   6.038 -1.4927 -0.5000 -0.5985
26813SOL     OW92497   8.450   1.977   5.513 -0.0755 -0.0227 -0.0579
26813SOL    HW192498   8.371   1.931   5.472 -0.7540  0.6785  0.4373
26813SOL    HW292499   8.528   1.972   5.451 -0.5756 -0.5213 -0.6535
26814SOL     OW92500   8.432   7.717   3.974  0.2775 -0.4503  0.1873
26814SOL    HW192501   8.400   7.810   3.953 -0.9306 -0.9427 -0.1972
26814SOL    HW292502   8.379   7.651   3.921 -0.6349 -1.5155  2.3451
26815SOL     OW92503   8.106   1.929   9.674  0.6589 -0.0624  0.0497
26815SOL    HW192504   8.068   2.017   9.645  0.1417 -0.9303 -2.0273
26815SOL    HW292505   8.053   1.893   9.751 -1.2051 -0.0828 -1.2016
26816SOL     OW92506   9.341   6.798   0.042 -0.0586  0.0240 -0.0862
26816SOL    HW192507   9.299   6.769  -0.044 -1.0916 -1.3536  0.8631
26816SOL    HW292508   9.279   6.859   0.090  1.0707  1.8499 -0.9096
26817SOL     OW92509   7.498   3.977   0.496 -0.0847  0.7373 -0.1215
26817SOL    HW192510   7.582   3.948   0.449 -0.7552 -0.3318 -0.6740
26817SOL    HW292511   7.424   3.915   0.473 -0.3707  0.0162  2.5816
26818SOL     OW92512   1.743   7.313   4.344 -0.0004 -0.1006 -0.2233
26818SOL    HW192513   1.686   7.235   4.317  1.1932 -0.7300 -0.9792
26818SOL    HW292514   1.812   7.282   4.410 -1.7567  1.0616  2.2276
26819SOL     OW92515   0.738   0.449   7.058  0.5990 -0.7903 -0.2149
26819SOL    HW192516   0.825   0.486   7.091  0.2293 -0.3990  0.3197
26819SOL    HW292517   0.666   0.466   7.125  0.0095 -0.7055 -0.8614
26820SOL     OW92518   6.035   3.145   0.893 -0.5860 -0.0280  0.4400
26820SOL    HW192519   6.039   3.224   0.831  0.3108  1.0247  1.7849
26820SOL    HW292520   5.974   3.166   0.969 -2.4858 -1.7037 -0.5848
26821SOL     OW92521   5.426   0.500   7.546  0.0614  0.5418 -0.7959
26821SOL    HW192522   5.355   0.497   7.616  0.4628 -0.2434 -0.4119
26821SOL    HW292523   5.515   0.480   7.588  0.4118  0.8608 -1.3847
26822SOL     OW92524   2.695   9.767   9.556 -0.1529 -0.6451  0.2592
26822SOL    HW192525   2.769   9.747   9.620 -0.0782 -1.9360 -0.1974
26822SOL    HW292526   2.649   9.852   9.582 -0.3064 -1.2874  2.1808
26823SOL     OW92527   5.104   2.029   5.479 -0.7498 -0.4021  0.3412
26823SOL    HW192528   5.111   2.108   5.540 -0.1424  0.1904 -0.4918
26823SOL    HW292529   5.054   2.054   5.396 -0.4373 -0.8481  0.0126
26824SOL     OW92530   3.269   9.937   7.096 -0.3399 -0.1619 -0.1421
26824SOL    HW192531   3.250  10.034   7.087  1.2589  0.1980  0.1703
26824SOL    HW292532   3.331   9.908   7.023 -0.2768 -0.7919  0.1576
26825SOL     OW92533   3.317   6.361   2.836  0.0886 -0.6453 -0.3785
26825SOL    HW192534   3.295   6.319   2.748  2.8192  1.5923 -2.2381
26825SOL    HW292535   3.411   6.337   2.862 -0.4278 -0.6558  1.5521
26826SOL     OW92536   0.025   1.942   3.837 -0.1927 -0.3913 -0.2599
26826SOL    HW192537  -0.006   1.998   3.913  1.9897  1.8355 -0.9380
26826SOL    HW292538  -0.053   1.916   3.780 -1.6728 -1.0271  2.0191
26827SOL     OW92539   3.856   6.774   5.518  0.9085 -0.5997  0.4113
26827SOL    HW192540   3.822   6.859   5.558  0.4838 -0.8926  0.6823
26827SOL    HW292541   3.851   6.781   5.418  2.0566  0.1617  0.3921
26828SOL     OW92542   5.767   5.651   9.752  0.7699 -0.0755  0.3477
26828SOL    HW192543   5.797   5.609   9.667  2.2871 -0.8258  1.2386
26828SOL    HW292544   5.759   5.580   9.823  2.1852  0.9404  1.5472
26829SOL     OW92545   4.151   0.117   0.070  0.4828 -0.6907 -0.0922
26829SOL    HW192546   4.201   0.120  -0.016  0.8151 -1.7049  0.0589
26829SOL    HW292547   4.215   0.136   0.145  0.4423 -0.9970  0.0212
26830SOL     OW92548   4.713   0.355   2.562 -0.2156  0.3970 -0.4927
26830SOL    HW192549   4.703   0.439   2.508 -3.1627  0.9913  0.9086
26830SOL    HW292550   4.655   0.283   2.523  0.1532 -0.1461 -0.0440
26831SOL     OW92551   5.057   9.731   9.137  0.1089 -0.1477  0.2771
26831SOL    HW192552   5.020   9.819   9.107  1.6929  0.6879  0.6978
26831SOL    HW292553   5.131   9.704   9.076  0.5559 -0.4930  0.9736
26832SOL     OW92554   3.466   9.120   7.157  0.4175  0.0246  0.6303
26832SOL    HW192555   3.456   9.211   7.196 -1.1364 -0.4898  1.4620
26832SOL    HW292556   3.377   9.074   7.158  1.6480 -2.3821  2.3828
26833SOL     OW92557   7.713   1.764   1.095  0.1218 -0.0865 -0.2814
26833SOL    HW192558   7.680   1.706   1.170  2.1409  0.8974  1.4074
26833SOL    HW292559   7.675   1.856   1.105  0.7050  0.1503 -0.2190
26834SOL     OW92560   9.648   0.676   9.594  0.3878 -0.4434 -0.1054
26834SOL    HW192561   9.554   0.691   9.563  0.3584 -0.8972 -0.2407
26834SOL    HW292562   9.698   0.622   9.525  0.6406 -0.5165  0.1332
26835SOL     OW92563   1.683   5.388   6.255  0.0067 -0.4183  0.1931
26835SOL    HW192564   1.696   5.385   6.156 -0.4734  1.6540  0.0331
26835SOL    HW292565   1.770   5.368   6.300  0.9417  1.4081 -0.7040
26836SOL     OW92566   3.492   7.515   3.217 -0.4128 -0.2999  0.0116
26836SOL    HW192567   3.495   7.445   3.288  0.1422 -0.1140  0.1755
26836SOL    HW292568   3.573   7.509   3.160 -0.2648  0.3317  0.1477
26837SOL     OW92569   4.680   5.001   2.451 -0.1939  0.3779  0.0140
26837SOL    HW192570   4.733   5.083   2.469 -1.6864  1.3798 -0.0421
26837SOL    HW292571   4.713   4.926   2.508  0.2132  1.4159  1.1532
26838SOL     OW92572   2.791   9.180   1.860  0.0311  0.1161 -0.5379
26838SOL    HW192573   2.695   9.206   1.869  0.4517  1.3113  0.5736
26838SOL    HW292574   2.839   9.201   1.945  1.3951  0.0702 -1.2939
26839SOL     OW92575   8.338   2.938   4.913  0.0903  0.4833  0.1357
26839SOL    HW192576   8.250   2.894   4.899 -0.4550  1.3986  0.5862
26839SOL    HW292577   8.337   3.029   4.872  1.1146  0.1872 -0.5704
26840SOL     OW92578   1.278   0.631   4.542  0.4191 -0.6159  0.0702
26840SOL    HW192579   1.221   0.670   4.469  0.7905 -0.0885  0.0596
26840SOL    HW292580   1.226   0.562   4.592 -0.4639  0.3434  0.4938
26841SOL     OW92581   2.655   8.078   4.877  0.7519 -0.0840 -0.2488
26841SOL    HW192582   2.644   8.123   4.965  0.0187 -0.3042 -0.2248
26841SOL    HW292583   2.751   8.051   4.865  0.8258 -0.1758  0.5358
26842SOL     OW92584   6.470   4.079   8.613 -0.4201  0.5217 -0.8435
26842SOL    HW192585   6.438   4.149   8.549  0.3856 -0.0187 -1.8387
26842SOL    HW292586   6.491   4.122   8.701 -2.6752  1.0964 -0.5370
26843SOL     OW92587   1.483   4.181   9.967  0.2227  1.0185  0.0307
26843SOL    HW192588   1.428   4.102   9.942 -0.3344  1.3476  0.2141
26843SOL    HW292589   1.579   4.153   9.978 -0.0232  0.3198  0.4072
26844SOL     OW92590   7.662   6.049   6.980  0.3130 -0.3800  0.1842
26844SOL    HW192591   7.653   6.128   7.040 -0.5675 -1.1314  1.0580
26844SOL    HW292592   7.669   5.966   7.035  1.3109 -0.9192 -0.7200
26845SOL     OW92593   5.144   9.615   8.168 -0.3797 -0.3118  0.4443
26845SOL    HW192594   5.164   9.646   8.076  1.7957 -1.5569  0.4622
26845SOL    HW292595   5.084   9.535   8.165 -0.3033 -0.3548  0.1131
26846SOL     OW92596   7.338   8.992   8.048 -0.2035  0.4518 -0.4563
26846SOL    HW192597   7.248   8.954   8.029 -0.2407  0.1028  0.3758
26846SOL    HW292598   7.328   9.075   8.103  0.0216 -0.1581  0.5164
26847SOL     OW92599   4.517   5.670   2.146  0.0137  0.2841  0.1560
26847SOL    HW192600   4.502   5.591   2.204 -0.8346  0.6648  0.4595
26847SOL    HW292601   4.469   5.658   2.059  1.2949 -0.2929 -0.4792
26848SOL     OW92602   0.194   1.729   5.876 -0.4274 -0.6968  0.0029
26848SOL    HW192603   0.191   1.686   5.786 -0.2050  0.8095 -0.7460
26848SOL    HW292604   0.276   1.700   5.925 -0.4016 -1.2966 -0.3986
26849SOL     OW92605   9.523   1.480   3.748 -0.5615  0.1271  0.0400
26849SOL    HW192606   9.533   1.554   3.682  0.4133 -1.1829 -1.3039
26849SOL    HW292607   9.468   1.406   3.709  0.0631 -0.6820  0.6628
26850SOL     OW92608   4.619   8.671   3.533  0.1870 -0.3311  0.0947
26850SOL    HW192609   4.556   8.680   3.610 -2.1035 -3.5175 -1.3155
26850SOL    HW292610   4.713   8.671   3.567 -0.7073  0.5882  2.6463
26851SOL     OW92611   9.260   7.120   7.425 -0.0104 -0.0268  0.0525
26851SOL    HW192612   9.321   7.094   7.350  0.1079 -0.1945  0.2065
26851SOL    HW292613   9.213   7.039   7.460  0.9257 -0.1540  1.0337
26852SOL     OW92614   6.786   3.242   8.335 -0.3966  0.9001 -0.1249
26852SOL    HW192615   6.804   3.263   8.431 -1.2293 -3.0252  0.9665
26852SOL    HW292616   6.689   3.223   8.322 -0.0108 -0.3492 -1.3574
26853SOL     OW92617   9.480   6.026   0.273  0.0187 -0.4468 -0.2626
26853SOL    HW192618   9.425   5.959   0.223 -0.2788 -0.1515 -0.3308
26853SOL    HW292619   9.432   6.053   0.356  0.7153 -1.2702  0.4202
26854SOL     OW92620   7.935   3.078   3.889 -0.3559  0.7077 -0.4402
26854SOL    HW192621   7.876   3.117   3.959 -0.0726 -2.8670  1.9664
26854SOL    HW292622   8.031   3.099   3.911 -0.3202  0.2626 -0.1415
26855SOL     OW92623   2.255   3.057   4.663 -0.1261 -0.2532 -0.0006
26855SOL    HW192624   2.158   3.080   4.662 -0.2328 -0.6924  0.1237
26855SOL    HW292625   2.291   3.060   4.569 -0.0436  0.7833  0.0523
26856SOL     OW92626   3.292   3.727   0.180 -0.4422 -0.2552 -0.0630
26856SOL    HW192627   3.303   3.703   0.084  0.0181  0.3855 -0.1699
26856SOL    HW292628   3.215   3.789   0.191 -1.7744 -1.9074  0.2427
26857SOL     OW92629   4.458   0.503   9.257  0.0300 -0.7813 -0.3531
26857SOL    HW192630   4.453   0.403   9.263  1.8566 -0.8817 -0.2995
26857SOL    HW292631   4.471   0.541   9.349  0.9332 -0.6001 -0.5527
26858SOL     OW92632   7.964   8.467   3.703  0.2255  0.4360 -0.0643
26858SOL    HW192633   8.050   8.455   3.751 -0.3226  0.4027  0.9276
26858SOL    HW292634   7.902   8.523   3.758 -0.9335 -0.8101 -0.0559
26859SOL     OW92635   3.029   3.680   1.480  0.4481 -0.4078 -0.7268
26859SOL    HW192636   3.051   3.699   1.384  1.5818 -0.5033 -0.4970
26859SOL    HW292637   3.109   3.641   1.525 -0.1361 -0.5340  0.2202
26860SOL     OW92638   8.773   6.417   9.840  0.2758  0.3223 -0.1244
26860SOL    HW192639   8.844   6.404   9.771  0.1709  0.4396 -0.2552
26860SOL    HW292640   8.814   6.414   9.931  0.7041  2.0897 -0.2464
26861SOL     OW92641   8.502   7.648   4.385 -0.3975  0.1481  0.3496
26861SOL    HW192642   8.481   7.724   4.324 -0.5748 -1.2702 -1.3910
26861SOL    HW292643   8.472   7.670   4.478 -3.4826  0.8640 -0.7678
26862SOL     OW92644   0.125   3.516   0.287 -0.6410  0.2755 -0.4116
26862SOL    HW192645   0.211   3.503   0.238 -0.0500  1.7078  0.2127
26862SOL    HW292646   0.105   3.614   0.294 -1.7677 -0.0042  0.3969
26863SOL     OW92647   5.490   5.048   8.590 -0.0010  0.6869 -0.2088
26863SOL    HW192648   5.451   4.979   8.530 -0.8795  1.1683 -0.1920
26863SOL    HW292649   5.582   5.073   8.558 -0.1747  0.4072 -0.9133
26864SOL     OW92650   9.599   8.462   1.758  0.4256  0.2483  0.0011
26864SOL    HW192651   9.612   8.367   1.729 -1.3906  0.3161 -1.1389
26864SOL    HW292652   9.683   8.496   1.799  0.8272 -2.1400  1.2780
26865SOL     OW92653   9.797   1.361   3.084 -0.1679 -0.4664 -0.1371
26865SOL    HW192654   9.868   1.343   3.151 -0.0572  0.3637 -0.0266
26865SOL    HW292655   9.732   1.428   3.120  0.8293  1.2777 -1.4820
26866SOL     OW92656   3.866   5.739   7.197  0.0203 -0.8310  0.1320
26866SOL    HW192657   3.923   5.744   7.279 -0.0929 -0.2304  0.1744
26866SOL    HW292658   3.876   5.648   7.155  1.1520 -0.6738  0.0419
26867SOL     OW92659   4.204   7.655   2.166  0.1206  0.1105  0.3000
26867SOL    HW192660   4.200   7.649   2.266  0.1434  1.7231  0.4166
26867SOL    HW292661   4.298   7.668   2.137  0.2576 -1.4823 -0.0231
26868SOL     OW92662   8.012   1.380   6.175  0.2555  0.1953 -0.1188
26868SOL    HW192663   8.022   1.385   6.275 -0.5582  2.2923 -0.1201
26868SOL    HW292664   8.102   1.378   6.133  0.6261  1.5334  0.5821
26869SOL     OW92665   5.039   4.961   2.323  0.3545 -0.1414  0.3272
26869SOL    HW192666   5.088   5.046   2.303 -0.0701 -0.2311 -1.1579
26869SOL    HW292667   4.995   4.968   2.412 -0.0459  1.3680  0.0294
26870SOL     OW92668   4.647   4.301   0.784  0.0010 -0.1708 -0.1849
26870SOL    HW192669   4.657   4.395   0.817 -1.4457  0.1768 -0.7001
26870SOL    HW292670   4.723   4.280   0.722 -0.6257  1.3097 -1.5247
26871SOL     OW92671   8.208   3.473   5.308  0.1496 -0.0767 -0.0643
26871SOL    HW192672   8.244   3.409   5.240 -0.6947  0.0835 -0.6726
26871SOL    HW292673   8.114   3.448   5.330  0.4584 -0.1955  1.1403
26872SOL     OW92674   8.659   0.922   9.189  0.4659 -0.1384  0.0588
26872SOL    HW192675   8.615   0.900   9.102  3.1158 -1.3741 -1.0387
26872SOL    HW292676   8.699   0.840   9.228  2.7484  1.0878  0.4135
26873SOL     OW92677   3.466   8.630   0.268  0.6407  0.2818 -0.0588
26873SOL    HW192678   3.416   8.621   0.181  0.4546  0.2366  0.0516
26873SOL    HW292679   3.417   8.695   0.327 -0.3585 -1.2365  0.8089
26874SOL     OW92680   9.665   8.919   4.443 -0.1347  0.5714 -0.7929
26874SOL    HW192681   9.673   8.893   4.539 -2.4547 -1.0396 -0.9885
26874SOL    HW292682   9.738   8.877   4.390  1.5156  1.9600  0.3400
26875SOL     OW92683   3.610   2.586   9.094 -0.1788  0.1006 -0.3555
26875SOL    HW192684   3.710   2.587   9.104 -0.4082  0.2996  2.1657
26875SOL    HW292685   3.583   2.505   9.042  1.3223  0.3364 -1.5513
26876SOL     OW92686   3.458   6.568   7.121 -0.4810 -0.0717 -0.3695
26876SOL    HW192687   3.503   6.576   7.209 -0.2412  0.1236 -0.5086
26876SOL    HW292688   3.401   6.649   7.105 -2.5283 -1.2563  0.7261
26877SOL     OW92689   9.064   5.925   9.313  0.2729 -0.3431  0.0445
26877SOL    HW192690   9.073   5.825   9.307  0.9848 -0.4277  2.0744
26877SOL    HW292691   9.021   5.960   9.229  0.5807 -2.2769 -0.9497
26878SOL     OW92692   7.360   2.577   2.161 -0.3012  0.1777 -0.0053
26878SOL    HW192693   7.317   2.575   2.251 -1.7385  0.8680 -0.6589
26878SOL    HW292694   7.423   2.500   2.152  0.9119  0.8828  2.0928
26879SOL     OW92695   0.382   1.258   9.655 -0.5198  0.3206  0.8397
26879SOL    HW192696   0.479   1.234   9.659 -0.4484  0.1816 -1.1699
26879SOL    HW292697   0.328   1.189   9.703  0.0955 -1.4378 -0.9530
26880SOL     OW92698   0.177   4.843   2.592  0.0438 -0.0515 -0.6290
26880SOL    HW192699   0.140   4.808   2.505 -0.2695 -1.0153 -0.1099
26880SOL    HW292700   0.270   4.876   2.577  0.7779 -2.1595 -0.9037
26881SOL     OW92701   2.920   8.558   8.782  0.0413  0.2036 -0.5375
26881SOL    HW192702   2.848   8.489   8.770  0.7722 -0.8767  1.1497
26881SOL    HW292703   2.915   8.624   8.707 -2.0894 -0.4036 -0.9685
26882SOL     OW92704   7.697   6.171   7.354 -1.1143 -0.0300 -0.2539
26882SOL    HW192705   7.693   6.211   7.263  0.5556 -1.8200 -1.1520
26882SOL    HW292706   7.682   6.072   7.348  0.6201 -0.4081  1.2043
26883SOL     OW92707   0.176   3.153   8.178 -0.6159  0.1251  0.1064
26883SOL    HW192708   0.181   3.203   8.092 -2.5541  2.5922  1.3628
26883SOL    HW292709   0.263   3.106   8.194  0.0015  0.1141 -2.8504
26884SOL     OW92710   0.010   4.791   8.362 -0.1423 -0.6974  0.3447
26884SOL    HW192711  -0.060   4.756   8.301  0.4038  0.6267 -1.0935
26884SOL    HW292712   0.088   4.728   8.364 -0.6930 -1.3714  0.6941
26885SOL     OW92713   0.834   6.314   2.757 -0.0735 -0.0340  0.0918
26885SOL    HW192714   0.827   6.410   2.785 -0.7161 -0.0685  0.0753
26885SOL    HW292715   0.920   6.299   2.708 -0.2857  0.7061 -0.5261
26886SOL     OW92716   2.480   2.373   1.656  0.5730 -0.4053  0.1060
26886SOL    HW192717   2.524   2.363   1.566 -1.7250 -1.4708 -0.9493
26886SOL    HW292718   2.523   2.311   1.721 -0.5726 -2.9113 -1.4095
26887SOL     OW92719   0.554   9.831   4.672 -0.3009 -0.2957 -0.2650
26887SOL    HW192720   0.469   9.879   4.647 -1.4145 -1.5735  0.9529
26887SOL    HW292721   0.534   9.734   4.687  1.8602 -1.0953 -2.3416
26888SOL     OW92722   2.003   1.085   6.881 -0.0965  0.2352  0.2539
26888SOL    HW192723   1.973   1.025   6.806 -0.1468  0.7949 -0.1846
26888SOL    HW292724   1.953   1.063   6.964 -2.6060  1.8943 -0.7420
26889SOL     OW92725   4.419   2.066   1.719 -0.8311 -0.6331  0.1641
26889SOL    HW192726   4.381   2.156   1.740 -0.0837 -0.3140  0.1511
26889SOL    HW292727   4.348   2.009   1.676 -1.1460  0.1222 -0.3154
26890SOL     OW92728   3.385   5.806   7.292  0.0658  0.1157 -0.6488
26890SOL    HW192729   3.424   5.793   7.384  0.4368  0.7798 -0.7136
26890SOL    HW292730   3.294   5.764   7.289 -0.0798  0.3548  0.1221
26891SOL     OW92731   3.043   9.285   8.052 -0.5638 -0.1510 -0.1251
26891SOL    HW192732   2.971   9.233   8.096 -0.4141  0.8716  1.3525
26891SOL    HW292733   3.111   9.222   8.013  0.4469 -1.0742  3.0182
26892SOL     OW92734   0.619   0.021   2.405  0.6471 -0.3434 -0.0968
26892SOL    HW192735   0.535   0.066   2.375  0.8376 -1.3749 -2.2989
26892SOL    HW292736   0.607  -0.014   2.498 -1.2213 -0.1443 -0.2483
26893SOL     OW92737   8.083   4.893   1.657  0.2856  0.6335 -0.2704
26893SOL    HW192738   8.087   4.855   1.565  2.9267  2.6281 -1.0432
26893SOL    HW292739   8.160   4.859   1.711 -0.4710  0.5377  0.7713
26894SOL     OW92740   9.799   9.737   2.289 -0.1138 -0.0569 -0.5830
26894SOL    HW192741   9.772   9.699   2.378 -0.6559 -0.0748 -0.7519
26894SOL    HW292742   9.717   9.758   2.236  0.1529  2.1504 -0.1764
26895SOL     OW92743   1.417   3.972   7.926  0.1295  0.3896  0.0192
26895SOL    HW192744   1.410   3.893   7.865 -1.7158  0.4975  0.0498
26895SOL    HW292745   1.421   4.056   7.871  0.6978  0.3596  0.0133
26896SOL     OW92746   9.603   6.197   3.406 -0.7844  0.4319 -0.1927
26896SOL    HW192747   9.576   6.236   3.318 -2.6417 -0.8680 -0.2313
26896SOL    HW292748   9.692   6.153   3.397  0.5072  3.0557 -0.5910
26897SOL     OW92749   7.808   4.863   8.703  0.0773 -0.4983  0.5841
26897SOL    HW192750   7.906   4.853   8.688 -0.0314 -1.3186  0.4234
26897SOL    HW292751   7.783   4.821   8.790 -0.3545 -1.5416 -0.0300
26898SOL     OW92752   8.637   3.385   4.160  0.1395  0.5455 -0.1771
26898SOL    HW192753   8.607   3.306   4.107 -0.8217  0.3375  0.6576
26898SOL    HW292754   8.730   3.370   4.193  0.0587 -0.1206 -0.2557
26899SOL     OW92755   8.164   8.801   3.298 -0.4716  0.1565  0.0361
26899SOL    HW192756   8.199   8.882   3.251 -1.4046  0.7185  0.2908
26899SOL    HW292757   8.136   8.826   3.391 -1.2801 -0.3387 -0.0707
26900SOL     OW92758   8.486   0.111   6.340 -0.2105 -0.1240  0.3781
26900SOL    HW192759   8.543   0.136   6.418 -1.7054  0.4108  1.3399
26900SOL    HW292760   8.435   0.027   6.362 -1.9916  1.0100  0.7268
26901SOL     OW92761   5.520   3.739   2.417 -0.2522 -0.2497  0.2292
26901SOL    HW192762   5.488   3.830   2.389  1.0035  0.3489  0.7040
26901SOL    HW292763   5.592   3.709   2.355  0.2590 -0.3408  0.8663
26902SOL     OW92764   0.086   3.897   3.793  0.2926 -0.7541 -0.6768
26902SOL    HW192765   0.076   3.884   3.891  0.3926 -1.6771 -0.7776
26902SOL    HW292766   0.034   3.826   3.745  1.1613 -0.9957 -1.2713
26903SOL     OW92767   5.899   4.876   2.354  0.0856 -0.0851  0.5988
26903SOL    HW192768   5.887   4.793   2.300  2.1447  0.1594 -0.2677
26903SOL    HW292769   5.940   4.853   2.442 -1.1036 -0.1958  1.1371
26904SOL     OW92770   6.289   8.691   3.845  0.2566  0.0669  0.1469
26904SOL    HW192771   6.303   8.605   3.795 -0.6430  1.4844 -2.6942
26904SOL    HW292772   6.365   8.752   3.827 -0.0463  0.5698  0.5729
26905SOL     OW92773   4.949   5.478   9.103 -0.4302  0.4616  0.3302
26905SOL    HW192774   5.012   5.434   9.167 -0.4856  0.7353  0.5761
26905SOL    HW292775   4.855   5.464   9.133 -0.4093  1.5620  0.9493
26906SOL     OW92776   0.145   6.697   1.316 -0.4543 -0.4652  0.1969
26906SOL    HW192777   0.061   6.751   1.305 -1.5413 -2.4167 -1.2610
26906SOL    HW292778   0.138   6.612   1.264  1.9660 -1.2173  1.0183
26907SOL     OW92779   3.207   3.266   3.053 -0.3195 -0.0858  0.6777
26907SOL    HW192780   3.221   3.355   3.010 -1.0796 -0.1868  0.2149
26907SOL    HW292781   3.282   3.204   3.028 -0.8629 -0.2067 -0.6718
26908SOL     OW92782   5.097   2.909   7.651  0.0376 -0.2456 -0.2582
26908SOL    HW192783   5.045   2.887   7.569 -0.6507  0.7640 -0.1008
26908SOL    HW292784   5.047   2.880   7.732  0.4771 -0.7610 -0.1627
26909SOL     OW92785   0.980   5.873   6.610  0.2877 -0.1692 -0.1468
26909SOL    HW192786   0.897   5.828   6.578  0.5966  0.8229 -2.3843
26909SOL    HW292787   1.059   5.832   6.565  0.8403  0.4272  0.2756
26910SOL     OW92788   2.797   3.503   1.066  0.1725  0.2003  0.4220
26910SOL    HW192789   2.745   3.542   1.142 -0.3888  1.0869 -0.3930
26910SOL    HW292790   2.739   3.440   1.015  0.0387  0.8464 -0.2245
26911SOL     OW92791   3.212   5.429   7.658 -0.0816 -0.3501  0.4700
26911SOL    HW192792   3.230   5.490   7.735 -2.2097 -0.1398  0.8358
26911SOL    HW292793   3.197   5.336   7.693  1.2058 -0.6941  0.0999
26912SOL     OW92794   1.900   7.297   8.985  0.2520 -0.2399  0.7167
26912SOL    HW192795   1.914   7.224   9.053  0.7287  0.1781  1.0670
26912SOL    HW292796   1.975   7.362   8.990  1.4480 -1.3490 -1.7132
26913SOL     OW92797   9.302   5.641   6.700 -0.4293  0.5771 -0.6285
26913SOL    HW192798   9.342   5.624   6.790 -1.6310  2.0211  0.1868
26913SOL    HW292799   9.372   5.625   6.629 -0.4583 -4.1995  0.2581
26914SOL     OW92800   9.181   3.633   7.039 -0.0577 -0.8935  0.0910
26914SOL    HW192801   9.275   3.652   7.065 -0.2704  1.3903 -0.6710
26914SOL    HW292802   9.173   3.637   6.939 -1.1104 -0.2656  0.1918
26915SOL     OW92803   4.136   9.283   7.164  0.4301  0.7967  0.5726
26915SOL    HW192804   4.077   9.335   7.102 -1.0031 -1.0182  0.4043
26915SOL    HW292805   4.107   9.188   7.167  3.2064 -0.0982  0.6803
26916SOL     OW92806   3.643   3.398   9.758 -0.2026  0.3304 -0.4420
26916SOL    HW192807   3.576   3.394   9.831 -0.5020  0.3057 -0.7167
26916SOL    HW292808   3.687   3.488   9.759  0.8742 -0.1891  0.7159
26917SOL     OW92809   7.108   4.898   9.077  0.4097  0.2881 -0.3627
26917SOL    HW192810   7.048   4.907   8.997 -0.1105  1.0018  0.0974
26917SOL    HW292811   7.165   4.979   9.084  3.0112 -1.3153 -2.0412
26918SOL     OW92812   3.962   0.765   4.638  0.1871  0.5251  0.2763
26918SOL    HW192813   4.022   0.695   4.599 -0.7071 -0.8867  1.3715
26918SOL    HW292814   3.885   0.720   4.686  0.9608  2.1801  3.1904
26919SOL     OW92815   2.993   6.327   3.044 -0.1542  0.1731  0.4792
26919SOL    HW192816   3.072   6.266   3.036  0.0436  0.6721 -1.5901
26919SOL    HW292817   2.914   6.276   3.078  0.2490 -1.0308 -0.3659
26920SOL     OW92818   6.766   8.400   7.163  0.7438  0.2032 -0.4082
26920SOL    HW192819   6.828   8.336   7.118 -2.0183 -2.7238 -0.2849
26920SOL    HW292820   6.786   8.402   7.261 -0.2649 -1.9773 -0.1050
26921SOL     OW92821   0.468   6.123   5.755  0.6653 -0.4404  0.2121
26921SOL    HW192822   0.478   6.160   5.847 -1.6637 -1.3975  0.8800
26921SOL    HW292823   0.421   6.189   5.697  1.5398 -0.1084 -0.1341
26922SOL     OW92824   3.811   7.761   1.318  0.0666 -0.0025 -0.1056
26922SOL    HW192825   3.882   7.737   1.384  0.3689  0.1278 -0.3827
26922SOL    HW292826   3.847   7.827   1.253 -0.2395 -0.1124 -0.3876
26923SOL     OW92827   9.378   1.162   7.426 -0.0829  0.0569 -0.0168
26923SOL    HW192828   9.408   1.097   7.495  1.9774  1.3048  0.3085
26923SOL    HW292829   9.327   1.114   7.354 -0.8488 -1.4847  1.5288
26924SOL     OW92830   2.304   5.132   8.520 -0.6516  0.1842  0.4885
26924SOL    HW192831   2.318   5.190   8.440 -2.1649  0.3035  0.3097
26924SOL    HW292832   2.357   5.169   8.597 -2.5754  2.5367  0.7267
26925SOL     OW92833   7.192   6.550   1.433  0.1138 -0.4016 -0.2665
26925SOL    HW192834   7.264   6.485   1.408  0.4940 -0.1193  0.0869
26925SOL    HW292835   7.182   6.618   1.360  0.5619 -0.1404 -0.0859
26926SOL     OW92836   8.610   1.070   3.530  0.3017  0.1519  0.5020
26926SOL    HW192837   8.577   0.975   3.526  0.9943 -0.1219  1.2020
26926SOL    HW292838   8.574   1.114   3.612  0.9656  0.1180  0.8170
26927SOL     OW92839   0.405   7.179   7.999 -0.1597 -0.1534  0.4768
26927SOL    HW192840   0.341   7.111   8.035 -0.6220  0.1992  0.3228
26927SOL    HW292841   0.358   7.267   7.992 -0.2992 -0.3873 -1.7291
26928SOL     OW92842   7.754   2.898   9.202  0.0534  0.2932  0.9976
26928SOL    HW192843   7.709   2.981   9.236  0.6495  1.4019 -0.8275
26928SOL    HW292844   7.695   2.819   9.216 -1.9149  1.5325 -0.1676
26929SOL     OW92845   7.243   9.136   5.773  0.5285  0.2121  0.1245
26929SOL    HW192846   7.308   9.146   5.848  2.3860 -0.3441 -1.3708
26929SOL    HW292847   7.222   9.039   5.760 -0.6317  0.3935  0.6197
26930SOL     OW92848   2.303   9.533   5.120 -0.0737 -0.0928  0.1655
26930SOL    HW192849   2.205   9.540   5.098  0.2742 -1.0992 -1.7825
26930SOL    HW292850   2.325   9.438   5.143  0.6124 -0.0428 -0.2772
26931SOL     OW92851   2.338   0.144   6.135  0.1842 -0.3867  0.3218
26931SOL    HW192852   2.268   0.199   6.183  1.4527  3.9645 -2.4862
26931SOL    HW292853   2.416   0.130   6.196 -0.0048  1.3332  1.0042
26932SOL     OW92854   3.487   6.226   7.442 -0.4025  0.4243 -0.4663
26932SOL    HW192855   3.389   6.236   7.459 -0.2731 -0.5978  1.0710
26932SOL    HW292856   3.506   6.231   7.344 -2.3193 -1.9750 -0.9999
26933SOL     OW92857   3.284   7.344   0.606 -0.9517 -0.6215 -0.3814
26933SOL    HW192858   3.217   7.402   0.652 -0.1980 -0.9304  1.1368
26933SOL    HW292859   3.302   7.379   0.514 -2.6493 -0.1267 -0.5373
26934SOL     OW92860   1.879   0.843   3.738  0.0284  0.4872 -0.0570
26934SOL    HW192861   1.824   0.772   3.782 -0.8184  1.5046  0.5550
26934SOL    HW292862   1.908   0.812   3.647 -2.9871  0.5992 -1.0979
26935SOL     OW92863   9.361   3.983   2.346 -0.1420  0.6713 -0.6998
26935SOL    HW192864   9.451   3.976   2.302  0.7723  0.3524  1.1852
26935SOL    HW292865   9.338   3.896   2.389 -0.0640  1.5843  1.2400
26936SOL     OW92866   2.433   8.817   0.372  0.2173  0.1538 -0.1633
26936SOL    HW192867   2.338   8.813   0.340  0.0004  0.3093  0.4521
26936SOL    HW292868   2.464   8.725   0.396  0.5158 -0.0210 -1.1974
26937SOL     OW92869   6.448   8.586   3.405 -0.6007  0.0350  0.2487
26937SOL    HW192870   6.398   8.670   3.385 -1.2050  0.3015  2.7278
26937SOL    HW292871   6.528   8.608   3.461  1.2814 -0.6340 -2.0791
26938SOL     OW92872   9.056   2.386   6.551  0.0137 -0.0276 -0.3389
26938SOL    HW192873   9.122   2.322   6.509  0.6518 -0.8898  1.9010
26938SOL    HW292874   9.105   2.468   6.581 -0.4173  0.5125 -1.0945
26939SOL     OW92875   8.584   9.493   0.808  0.4736  0.6329  0.1889
26939SOL    HW192876   8.592   9.394   0.810  0.7515  0.6593  0.4202
26939SOL    HW292877   8.503   9.519   0.756  0.0341  0.2743  0.7012
26940SOL     OW92878   7.487   4.403   9.227  0.0640 -0.0473  0.0288
26940SOL    HW192879   7.561   4.456   9.185  0.7138 -0.5755  0.4852
26940SOL    HW292880   7.493   4.412   9.327  0.8800 -1.8866  0.1578
26941SOL     OW92881   9.245   5.955   6.356 -0.0654 -0.0520 -0.0993
26941SOL    HW192882   9.259   6.041   6.405  0.5093 -1.2060  1.7815
26941SOL    HW292883   9.320   5.942   6.291  1.3906 -0.4745  1.6149
26942SOL     OW92884   8.663   3.654   4.755  0.0778  0.4017  0.0482
26942SOL    HW192885   8.739   3.719   4.748  0.3278  0.1594  0.4377
26942SOL    HW292886   8.601   3.666   4.678  0.1922  1.0127  0.0507
26943SOL     OW92887   4.207   5.097   0.214 -0.3333  0.3048 -0.1814
26943SOL    HW192888   4.253   5.044   0.286 -2.4472  0.4371  1.3316
26943SOL    HW292889   4.270   5.113   0.138  1.6793 -0.6008  1.2624
26944SOL     OW92890   8.310   1.049   8.486 -0.2250 -0.1234 -0.1175
26944SOL    HW192891   8.240   0.997   8.437  0.6492 -0.8930 -0.5369
26944SOL    HW292892   8.397   1.001   8.484  0.4153  0.9932  0.1290
26945SOL     OW92893   9.491   7.994   3.206 -0.3702 -0.5480  0.1724
26945SOL    HW192894   9.519   7.963   3.297  0.1618 -0.8721 -0.1002
26945SOL    HW292895   9.483   7.915   3.145 -1.9477 -0.4723  0.2589
26946SOL     OW92896   2.785   2.626   2.495  0.1734  0.0893 -0.0954
26946SOL    HW192897   2.823   2.717   2.510  0.1686  0.1536 -0.4851
26946SOL    HW292898   2.772   2.581   2.584 -0.6070  0.7784  0.1456
26947SOL     OW92899   6.311   1.299   3.088 -0.0681 -0.8494  0.2400
26947SOL    HW192900   6.232   1.283   3.028  0.9137 -1.4906 -0.9149
26947SOL    HW292901   6.395   1.288   3.035  0.8159 -1.2928  1.7175
26948SOL     OW92902   7.325   2.269   8.675 -0.4109  0.4935  0.2048
26948SOL    HW192903   7.418   2.233   8.676  0.7511  3.3502 -0.4426
26948SOL    HW292904   7.305   2.309   8.585 -2.2470 -0.0752  0.3430
26949SOL     OW92905   1.098   3.951   9.797  0.0383 -0.2986  0.1931
26949SOL    HW192906   1.051   3.905   9.872  0.6972 -0.5880  0.4349
26949SOL    HW292907   1.197   3.951   9.815  0.1823 -0.2223 -0.5882
26950SOL     OW92908   2.921   4.590   0.658  0.2449 -0.1258  0.5008
26950SOL    HW192909   2.977   4.574   0.739  0.7048  3.0513  0.8527
26950SOL    HW292910   2.979   4.589   0.577  0.2163 -0.4475  0.4806
26951SOL     OW92911   3.478   0.682   0.063 -1.2298  0.0693 -0.6110
26951SOL    HW192912   3.422   0.701   0.144  0.3230 -0.7717  0.6857
26951SOL    HW292913   3.443   0.601   0.017 -2.1374  0.5649 -0.8078
26952SOL     OW92914   5.557   6.555   1.315  0.3894  0.3389  0.2612
26952SOL    HW192915   5.539   6.492   1.240 -0.6646  0.3055  0.5283
26952SOL    HW292916   5.584   6.503   1.396 -2.1627  0.0700  0.9795
26953SOL     OW92917   0.261   7.413   8.650 -0.1730  0.1285 -0.2612
26953SOL    HW192918   0.344   7.465   8.632  0.5602 -1.2160 -0.8094
26953SOL    HW292919   0.225   7.377   8.564  0.4222 -1.9220  0.3280
26954SOL     OW92920   1.518   5.411   0.145  0.2193 -0.5972  0.2812
26954SOL    HW192921   1.468   5.402   0.231 -0.3682  0.1764  0.0279
26954SOL    HW292922   1.465   5.371   0.070  1.0540 -1.9303  0.3817
26955SOL     OW92923   9.336   5.636   8.371 -0.2364 -0.0701 -0.0290
26955SOL    HW192924   9.379   5.623   8.461  2.8497  0.3391 -1.3830
26955SOL    HW292925   9.251   5.687   8.383  0.0619 -0.0936  2.6859
26956SOL     OW92926   0.037   8.507   2.637  0.2306  0.5877 -0.2196
26956SOL    HW192927   0.120   8.561   2.624 -0.0343  0.5964 -1.9880
26956SOL    HW292928  -0.039   8.568   2.656  0.3727  0.6691  0.1026
26957SOL     OW92929   7.289   6.616   1.975 -0.0475  0.0602  0.2041
26957SOL    HW192930   7.317   6.606   2.071 -1.3537  3.0753  0.9654
26957SOL    HW292931   7.191   6.634   1.971  0.5691  3.4341 -1.3993
26958SOL     OW92932   2.745   0.726   2.630 -0.2373  0.5135  0.1907
26958SOL    HW192933   2.683   0.751   2.556  0.7202  1.4455 -0.3120
26958SOL    HW292934   2.702   0.657   2.689 -0.6856 -0.8498 -1.7045
26959SOL     OW92935   8.227   2.067   1.420 -0.2541 -0.4794  0.4841
26959SOL    HW192936   8.242   2.049   1.517  0.7086  0.0039  0.4387
26959SOL    HW292937   8.204   2.163   1.407  0.7387 -0.2829  0.1293
26960SOL     OW92938   2.906   7.031   3.193 -0.2931  0.6985  0.1965
26960SOL    HW192939   2.901   6.972   3.273  1.2786 -0.9321 -0.8821
26960SOL    HW292940   2.993   7.081   3.193 -0.3040  0.7318 -0.4703
26961SOL     OW92941   1.548   1.610   9.155 -0.8722 -0.0691 -0.4165
26961SOL    HW192942   1.596   1.628   9.068 -0.6588  3.4980  0.3655
26961SOL    HW292943   1.611   1.627   9.231 -1.8611 -0.4933  0.4996
26962SOL     OW92944   0.017   1.198   1.068  0.2983 -0.6817  0.6147
26962SOL    HW192945  -0.018   1.292   1.071 -0.2205 -0.9099  2.1550
26962SOL    HW292946   0.117   1.200   1.069  0.2863 -0.1547  1.0141
26963SOL     OW92947   2.954   9.147   9.101 -0.1132  0.3388  0.2355
26963SOL    HW192948   2.935   9.081   9.029  0.2512  1.2090 -0.6572
26963SOL    HW292949   2.869   9.164   9.153  0.2331 -2.3624  1.8088
26964SOL     OW92950   5.942   5.234   9.512 -0.1002  0.3054 -0.1885
26964SOL    HW192951   6.037   5.210   9.493  0.1850  1.7884 -0.6682
26964SOL    HW292952   5.894   5.154   9.550  1.5138 -0.2356  0.7471
26965SOL     OW92953   5.176   2.763   1.141  0.3031  0.3252 -0.0535
26965SOL    HW192954   5.272   2.791   1.149  0.2176  0.7615 -0.5563
26965SOL    HW292955   5.172   2.663   1.130  0.7619  0.4171 -1.1076
26966SOL     OW92956   3.434   5.997   2.208  0.1831 -0.0007  0.4594
26966SOL    HW192957   3.511   6.011   2.269 -0.4695 -1.1914  1.5885
26966SOL    HW292958   3.394   6.085   2.183  0.8544  0.5245  1.2321
26967SOL     OW92959   1.456   6.209   9.733 -0.4742  0.1236  0.5421
26967SOL    HW192960   1.487   6.118   9.703  0.7111  0.5538  0.4538
26967SOL    HW292961   1.514   6.279   9.693 -0.1667  0.8227  2.1846
26968SOL     OW92962   5.201   7.417   3.115 -0.1909 -0.1392 -0.1120
26968SOL    HW192963   5.251   7.361   3.182  0.8414  0.7944 -0.0829
26968SOL    HW292964   5.211   7.376   3.025 -0.1250 -0.4570  0.0374
26969SOL     OW92965   6.152   8.698   6.748  0.2481  0.3705  0.8042
26969SOL    HW192966   6.224   8.630   6.761  0.7065  0.6746 -0.0935
26969SOL    HW292967   6.175   8.781   6.799 -0.0058  0.0798  1.3989
26970SOL     OW92968   8.781   4.527   9.507  0.1635 -0.4617 -0.5418
26970SOL    HW192969   8.830   4.587   9.444  2.6976 -2.8273 -0.9085
26970SOL    HW292970   8.730   4.583   9.573  2.7429  2.0910 -0.5992
26971SOL     OW92971   5.238   1.808   4.943 -0.3647  0.2597 -0.2202
26971SOL    HW192972   5.294   1.739   4.987  0.4024 -0.2559 -1.9707
26971SOL    HW292973   5.144   1.774   4.934 -0.2614 -0.0780 -0.0156
26972SOL     OW92974   9.128   0.638   1.433  0.1036  0.1421  0.1551
26972SOL    HW192975   9.161   0.724   1.473  1.3141 -0.0249 -0.4616
26972SOL    HW292976   9.140   0.641   1.334  0.1065 -0.7196  0.1279
26973SOL     OW92977   4.285   1.492   0.620  0.4001  0.1208 -0.3336
26973SOL    HW192978   4.348   1.426   0.579  0.1287  0.3537 -1.1454
26973SOL    HW292979   4.301   1.498   0.718  1.2325 -0.2688 -0.4462
26974SOL     OW92980   6.815   4.982   2.321  0.3081  0.1870  0.1197
26974SOL    HW192981   6.831   4.935   2.407  0.0384  1.7793  1.0627
26974SOL    HW292982   6.838   5.079   2.330  0.4517  0.3504 -1.6513
26975SOL     OW92983   5.991   3.660   8.438  0.3453  0.2374  0.0637
26975SOL    HW192984   6.007   3.619   8.528  1.7704 -0.1874 -0.3700
26975SOL    HW292985   5.892   3.670   8.423 -0.0444 -2.6324  0.3882
26976SOL     OW92986   3.899   9.488   2.107  0.2506  0.3830 -0.1451
26976SOL    HW192987   3.863   9.554   2.173  2.2983  0.7577  0.6361
26976SOL    HW292988   3.942   9.412   2.157  0.6343  0.0005 -1.0550
26977SOL     OW92989   2.953   2.970   6.866  0.4941 -0.4583 -0.0746
26977SOL    HW192990   2.968   3.009   6.775  0.6807  2.0106  0.9817
26977SOL    HW292991   2.904   3.036   6.923 -0.0698 -2.1823  1.4711
26978SOL     OW92992   2.030   1.733   9.824  0.1076 -0.2983 -0.0696
26978SOL    HW192993   1.980   1.759   9.742  0.9735  0.4131 -0.3782
26978SOL    HW292994   2.112   1.682   9.799  0.0607 -0.5967  0.3786
26979SOL     OW92995   1.951   0.196   7.631  0.5372 -0.5818  0.0643
26979SOL    HW192996   1.977   0.164   7.539 -1.1671  0.7923 -0.9325
26979SOL    HW292997   1.858   0.165   7.651  0.3757  0.3371  0.7330
26980SOL     OW92998   8.606   2.908   5.741  0.3364  0.1308 -0.0956
26980SOL    HW192999   8.523   2.958   5.767  0.3579 -0.6006  1.4402
26980SOL    HW293000   8.580   2.819   5.702  0.3602  0.5468 -1.0789
26981SOL     OW93001   4.504   1.086   9.134  0.4109 -0.2908 -0.9385
26981SOL    HW193002   4.466   1.017   9.196 -0.4452 -0.9125 -2.1248
26981SOL    HW293003   4.603   1.088   9.142  0.5619 -2.7290 -1.9888
26982SOL     OW93004   9.755   2.002   4.960  0.0927  0.1738 -0.0701
26982SOL    HW193005   9.814   2.042   4.888 -0.0985  2.4397  0.9783
26982SOL    HW293006   9.659   2.013   4.934  0.0044  1.6679  0.8597
26983SOL     OW93007   4.351   9.447   7.201  0.2933  1.2847  0.5172
26983SOL    HW193008   4.276   9.381   7.205  1.7235 -0.4255 -0.2551
26983SOL    HW293009   4.425   9.410   7.144 -0.0893  4.8253 -2.4497
26984SOL     OW93010   0.690   4.969   4.912  0.0667 -0.2506 -0.0530
26984SOL    HW193011   0.751   4.949   4.835 -0.8011 -1.0201 -0.5570
26984SOL    HW293012   0.595   4.971   4.879 -0.4891 -2.4095  1.3351
26985SOL     OW93013   8.483   4.868   9.004 -0.6119  0.1477  0.4339
26985SOL    HW193014   8.437   4.807   9.069  1.1085 -0.0479  1.5185
26985SOL    HW293015   8.556   4.818   8.958 -0.5351  0.8366 -0.1927
26986SOL     OW93016   1.886   9.979   1.569  0.5098 -0.0380 -0.2152
26986SOL    HW193017   1.918   9.984   1.474  1.0196  1.7917  0.0312
26986SOL    HW293018   1.786   9.968   1.570  0.6595 -1.6186 -0.9541
26987SOL     OW93019   3.027   8.686   8.336  0.5228 -0.0096  0.0202
26987SOL    HW193020   3.048   8.702   8.433 -0.4762  1.1675  0.0520
26987SOL    HW293021   3.079   8.749   8.279  0.1874  0.1336 -0.1332
26988SOL     OW93022   0.547   2.103   5.706 -0.4717  0.2787 -0.2027
26988SOL    HW193023   0.501   2.032   5.760 -3.0157  2.8328  1.1371
26988SOL    HW293024   0.572   2.065   5.616 -3.9908 -1.6820 -0.4696
26989SOL     OW93025   9.211   9.202   7.914 -0.7012  0.2098 -0.3371
26989SOL    HW193026   9.170   9.123   7.868 -3.1112  0.6686  0.9545
26989SOL    HW293027   9.179   9.286   7.871  0.8196  0.5426 -0.8545
26990SOL     OW93028   1.588   2.184   5.321 -0.8693 -0.0726 -0.2116
26990SOL    HW193029   1.512   2.247   5.336 -1.0320  0.0871 -1.6617
26990SOL    HW293030   1.615   2.144   5.408 -3.4812 -1.1412  0.1484
26991SOL     OW93031   8.169   3.313   3.409 -0.1971  0.1220  0.7227
26991SOL    HW193032   8.094   3.282   3.351 -2.1589  0.2935  3.1321
26991SOL    HW293033   8.248   3.334   3.351 -1.9355 -0.1367 -1.8462
26992SOL     OW93034   2.396   5.697   8.004 -0.6473 -0.4640  0.3297
26992SOL    HW193035   2.408   5.687   8.103 -2.0855  0.3938  0.6141
26992SOL    HW293036   2.467   5.756   7.967 -0.9176  0.3573  1.0994
26993SOL     OW93037   1.071   7.601   4.831  0.5614  0.1208 -0.0857
26993SOL    HW193038   0.985   7.563   4.796  0.6664  1.6043 -2.0869
26993SOL    HW293039   1.148   7.553   4.789  0.6924  0.0416  0.2499
26994SOL     OW93040   8.748   5.272   9.072 -0.0075  0.1685  0.2464
26994SOL    HW193041   8.777   5.323   9.153  1.1591 -0.2072  0.0731
26994SOL    HW293042   8.828   5.236   9.025 -0.5240  2.2153 -2.3033
26995SOL     OW93043   1.273   3.517   1.916 -0.4541 -0.1411 -0.0332
26995SOL    HW193044   1.182   3.478   1.906 -0.3711 -0.2332 -0.4500
26995SOL    HW293045   1.276   3.605   1.868 -1.2856  1.4364  2.6988
26996SOL     OW93046   2.838   1.090   5.656  0.2729  0.1076  0.0674
26996SOL    HW193047   2.757   1.033   5.670 -0.7140  1.4299 -0.1356
26996SOL    HW293048   2.896   1.086   5.738 -0.9745  0.6820  1.0036
26997SOL     OW93049   4.652   9.464   0.573 -0.4226  0.4125 -0.0244
26997SOL    HW193050   4.624   9.381   0.621 -0.1183 -0.0752 -0.6813
26997SOL    HW293051   4.695   9.528   0.637 -0.1002 -0.1944  0.3630
26998SOL     OW93052   8.296   8.694   5.575 -0.2080  0.1397 -0.6918
26998SOL    HW193053   8.273   8.639   5.494 -1.8958  0.4258 -0.4373
26998SOL    HW293054   8.278   8.641   5.658 -1.1011  0.7930 -0.4595
26999SOL     OW93055   8.417   2.998   1.921  0.0277 -1.0803 -0.2033
26999SOL    HW193056   8.362   3.053   1.985 -2.7367 -0.2944 -3.1346
26999SOL    HW293057   8.510   3.036   1.916  0.1057 -0.7605  2.7957
27000SOL     OW93058   0.220   0.113   9.170  0.0200 -0.2507  0.2334
27000SOL    HW193059   0.133   0.155   9.195 -0.9763 -1.9229 -0.3344
27000SOL    HW293060   0.260   0.163   9.093 -1.5127 -0.7748 -0.9325
27001SOL     OW93061   3.986   7.159   1.018  0.2748  0.1216 -0.3597
27001SOL    HW193062   3.974   7.187   1.114  1.9023 -2.7325  0.7404
27001SOL    HW293063   4.056   7.215   0.976 -0.9531  1.8804 -0.1196
27002SOL     OW93064   8.013   0.627   7.153 -0.2964  0.0227 -0.2251
27002SOL    HW193065   8.075   0.564   7.106 -0.5397 -0.8772  0.6183
27002SOL    HW293066   7.921   0.587   7.155 -0.7084  0.9358 -0.6781
27003SOL     OW93067   8.311   4.108   2.109 -0.5844 -0.2806  0.4638
27003SOL    HW193068   8.344   4.201   2.098 -0.3797 -0.5895 -1.7545
27003SOL    HW293069   8.381   4.053   2.154 -0.0920  0.2739  0.3837
27004SOL     OW93070   9.042   1.905   6.107 -0.0774  0.2167 -0.7729
27004SOL    HW193071   9.073   1.998   6.126  0.8340 -0.0396 -1.0194
27004SOL    HW293072   9.116   1.852   6.065 -0.1183 -1.0540  0.6966
27005SOL     OW93073   3.268   9.856   5.604  0.3195  0.1276  0.7461
27005SOL    HW193074   3.197   9.925   5.612  0.6163  0.4923  0.2964
27005SOL    HW293075   3.346   9.882   5.661  1.5929  1.6567 -1.5779
27006SOL     OW93076   7.867   9.631   2.524  0.1527  0.2133 -0.3270
27006SOL    HW193077   7.894   9.535   2.510  1.0538  0.6021 -1.3620
27006SOL    HW293078   7.909   9.666   2.607  1.0148  0.1256 -0.7144
27007SOL     OW93079   9.782   1.757   0.066 -0.2448  0.0157  0.4036
27007SOL    HW193080   9.849   1.789   0.133 -0.2061  1.5287 -0.3366
27007SOL    HW293081   9.818   1.769  -0.026 -0.9440 -0.5290  0.0573
27008SOL     OW93082   8.505   4.634   6.656  0.0278  0.2355 -0.1380
27008SOL    HW193083   8.417   4.588   6.648 -0.0118 -0.1372  1.9953
27008SOL    HW293084   8.563   4.584   6.721  0.7187  2.0782  0.7218
27009SOL     OW93085   9.917   2.286   8.961 -0.0387  0.1821 -0.0710
27009SOL    HW193086  10.007   2.294   8.919  0.6175 -3.2535  0.5190
27009SOL    HW293087   9.924   2.299   9.060  0.1637 -2.0258  0.2205
27010SOL     OW93088   9.977   3.497   1.816 -0.2472  0.2980  0.2006
27010SOL    HW193089  10.077   3.495   1.808 -0.3061 -0.7184 -0.3465
27010SOL    HW293090   9.947   3.422   1.874 -0.5656  1.7543  1.9688
27011SOL     OW93091   0.639   1.845   8.547  0.6471 -0.3052 -0.2531
27011SOL    HW193092   0.592   1.875   8.630  1.3332  1.5457 -0.5214
27011SOL    HW293093   0.607   1.899   8.469  1.2867 -0.8422 -0.8951
27012SOL     OW93094   1.994   2.717   8.888  0.2021  0.0364 -0.5596
27012SOL    HW193095   2.001   2.697   8.790 -0.7246 -1.0404 -0.4175
27012SOL    HW293096   2.047   2.649   8.938  0.4364  0.4177 -0.2879
27013SOL     OW93097   1.985   5.742   3.160 -0.2545  0.5963 -0.4323
27013SOL    HW193098   2.042   5.789   3.092 -0.5869 -0.9090 -1.8033
27013SOL    HW293099   1.891   5.777   3.155 -0.7829 -0.9839 -2.2887
27014SOL     OW93100   8.184   6.637   9.643 -0.0521  0.0370  0.2646
27014SOL    HW193101   8.155   6.563   9.582  0.9196 -0.4925  0.4290
27014SOL    HW293102   8.205   6.718   9.589  0.6983 -0.3976 -0.1055
27015SOL     OW93103   7.927   0.551   2.412 -0.0638  0.0887  0.3523
27015SOL    HW193104   7.951   0.469   2.464 -3.0288 -1.5303 -0.6948
27015SOL    HW293105   7.894   0.621   2.475  0.0449 -0.4497  1.0187
27016SOL     OW93106   0.358   2.249   9.102  0.4452  0.6965  0.3775
27016SOL    HW193107   0.341   2.237   9.200 -0.4639 -0.1246  0.1222
27016SOL    HW293108   0.276   2.285   9.058 -0.4177 -2.5133 -0.7194
27017SOL     OW93109   4.496   3.477   8.610 -0.0933 -0.0406  0.4015
27017SOL    HW193110   4.472   3.452   8.516 -1.6606 -0.3738  0.8707
27017SOL    HW293111   4.595   3.472   8.622  0.3790  2.5930 -1.9765
27018SOL     OW93112   9.637   5.774   6.096  0.3477 -0.2873 -0.2503
27018SOL    HW193113   9.710   5.738   6.154  0.9445  1.3057  0.0136
27018SOL    HW293114   9.677   5.825   6.020 -0.4759  0.2266 -0.3461
27019SOL     OW93115   4.076   2.286   7.454 -0.1340  0.6747 -0.3205
27019SOL    HW193116   4.027   2.220   7.397 -0.6285  0.4406  0.3815
27019SOL    HW293117   4.173   2.260   7.460 -0.5395 -0.6090  0.8627
27020SOL     OW93118   3.452   3.109   3.070 -1.0169  0.4029  0.3725
27020SOL    HW193119   3.532   3.115   3.011 -0.3941  1.3393  1.2853
27020SOL    HW293120   3.423   3.014   3.079  0.5078 -0.0367  0.7160
27021SOL     OW93121   0.436   0.957   7.188 -0.4941  0.1050  0.1657
27021SOL    HW193122   0.426   0.901   7.105  1.3801  1.2341 -0.8550
27021SOL    HW293123   0.384   0.915   7.262 -3.5417 -0.1008 -1.9597
27022SOL     OW93124   9.242   8.426   4.429 -0.3321  0.5108 -0.3463
27022SOL    HW193125   9.217   8.354   4.494 -0.6294  1.8178  1.0139
27022SOL    HW293126   9.190   8.415   4.345 -0.6977 -0.6010  0.0202
27023SOL     OW93127   9.892   5.799   9.167  0.3017  0.1455  0.3804
27023SOL    HW193128   9.839   5.758   9.242  0.3003 -0.1740  0.2075
27023SOL    HW293129   9.988   5.803   9.193  0.5536 -1.4749 -0.2319
27024SOL     OW93130   1.542   6.846   8.674 -0.3830  0.5397 -0.3683
27024SOL    HW193131   1.460   6.874   8.722 -0.9967  1.1880 -1.7640
27024SOL    HW293132   1.522   6.764   8.619 -0.2921  1.0956 -1.2409
27025SOL     OW93133   9.239   3.306   1.669  0.4395  0.1485 -0.1919
27025SOL    HW193134   9.259   3.305   1.767 -2.1474 -4.4144  0.4558
27025SOL    HW293135   9.319   3.275   1.618  0.3614 -2.0170  0.9343
27026SOL     OW93136   3.012   4.834   0.381  0.3476 -0.5279 -0.7291
27026SOL    HW193137   3.048   4.844   0.289  0.5254  1.3257 -0.4800
27026SOL    HW293138   2.992   4.738   0.399 -1.3682 -0.6978 -3.3137
27027SOL     OW93139   9.667   1.295   7.600 -0.1087 -0.0387 -0.0253
27027SOL    HW193140   9.656   1.376   7.658 -0.6737  0.5928 -1.0052
27027SOL    HW293141   9.673   1.323   7.505 -1.7196 -1.2655 -0.4987
27028SOL     OW93142   7.009   3.290   9.574  0.6053  0.3480 -0.7078
27028SOL    HW193143   6.989   3.381   9.611  0.7122 -0.0728  0.4022
27028SOL    HW293144   6.942   3.267   9.504 -0.7201  0.4094  0.5025
27029SOL     OW93145   6.108   0.624   5.885 -0.2827 -0.9212 -0.0476
27029SOL    HW193146   6.182   0.622   5.818  1.0731 -1.1380  1.4102
27029SOL    HW293147   6.049   0.544   5.873  0.0770 -1.0763 -0.8213
27030SOL     OW93148   1.044   2.158   1.701 -0.1781  0.3987 -0.2675
27030SOL    HW193149   1.100   2.212   1.764 -0.3073  0.3266 -0.0913
27030SOL    HW293150   1.096   2.139   1.618 -1.1299  3.2944 -1.5917
27031SOL     OW93151   2.614   5.543   5.360  0.4672  0.6664  0.0161
27031SOL    HW193152   2.528   5.580   5.394 -0.1421  0.5530 -1.4054
27031SOL    HW293153   2.649   5.601   5.287  0.4402 -0.5484 -0.9688
27032SOL     OW93154   2.361   0.553  10.023 -0.1654 -0.2353  0.3385
27032SOL    HW193155   2.369   0.540  10.122  1.5950 -1.0356  0.1029
27032SOL    HW293156   2.376   0.649  10.000 -3.2752  0.4897  1.0941
27033SOL     OW93157   2.329   8.057   9.976 -0.1591  0.1487 -0.1484
27033SOL    HW193158   2.306   8.010  10.062 -0.1848  0.8762  0.2462
27033SOL    HW293159   2.372   7.992   9.913 -1.6475 -0.7865 -0.2151
27034SOL     OW93160   3.223   8.320   7.251 -0.3926  0.3467  0.0239
27034SOL    HW193161   3.302   8.308   7.313  0.3705  1.0838 -0.7944
27034SOL    HW293162   3.256   8.325   7.157 -1.3231  1.8545 -0.2256
27035SOL     OW93163   2.477   4.465   6.980 -0.3517 -0.0212  0.2000
27035SOL    HW193164   2.558   4.408   6.996 -0.0615  0.6745  1.2274
27035SOL    HW293165   2.423   4.472   7.064  0.1976  2.1100  0.4139
27036SOL     OW93166   3.588   1.278   0.419  0.2099 -0.2483  0.2186
27036SOL    HW193167   3.661   1.244   0.478  2.1246  1.3701 -1.1330
27036SOL    HW293168   3.620   1.280   0.324 -1.7903 -0.0347 -0.4772
27037SOL     OW93169   3.829   8.387   7.944  0.0290 -0.2378 -0.6587
27037SOL    HW193170   3.816   8.414   8.039 -1.9787 -0.7246 -0.7700
27037SOL    HW293171   3.845   8.469   7.888 -2.8449  0.4903 -0.5024
27038SOL     OW93172   9.427   1.741   3.166  0.0180 -0.2492  0.4577
27038SOL    HW193173   9.365   1.665   3.184 -1.2286  1.3604  3.2382
27038SOL    HW293174   9.375   1.818   3.128  1.1740 -0.5128 -1.7771
27039SOL     OW93175   6.776   9.267   4.779 -0.4835  0.1359 -0.0376
27039SOL    HW193176   6.698   9.217   4.741 -1.0763  0.0753  1.2414
27039SOL    HW293177   6.803   9.340   4.716  0.6746 -2.0379 -2.1535
27040SOL     OW93178   7.908   8.170   6.449 -0.0326  0.0616  0.8435
27040SOL    HW193179   8.002   8.168   6.484  0.1944 -0.6436  0.2156
27040SOL    HW293180   7.885   8.264   6.422  0.4106  0.2786  1.2102
27041SOL     OW93181   9.158   0.295   2.443  0.0880 -0.6791  0.0133
27041SOL    HW193182   9.166   0.247   2.530 -0.9171 -1.1310 -0.1397
27041SOL    HW293183   9.062   0.314   2.424  0.4640  1.7121  0.2494
27042SOL     OW93184   1.984   8.428   9.000 -0.0195 -0.2736  0.1545
27042SOL    HW193185   1.946   8.419   9.092 -1.5935  0.5018 -0.3939
27042SOL    HW293186   1.968   8.521   8.966  3.7865  0.5614  0.4790
27043SOL     OW93187   2.716   3.423   8.839  0.1686  0.1241 -0.4871
27043SOL    HW193188   2.622   3.458   8.839  0.6304  1.4778  3.3668
27043SOL    HW293189   2.715   3.328   8.870  0.3624  1.1006  2.5937
27044SOL     OW93190   5.917   6.572   1.218  0.2625 -0.3242 -0.1497
27044SOL    HW193191   5.854   6.600   1.146  1.7577  1.7660 -0.6916
27044SOL    HW293192   5.974   6.496   1.186  1.1784  0.8443 -1.3336
27045SOL     OW93193   2.169   5.581   8.548  0.2397  0.4799 -0.0477
27045SOL    HW193194   2.232   5.658   8.558 -0.7916  1.2315  0.8633
27045SOL    HW293195   2.182   5.517   8.623 -0.6242  1.0523  0.6051
27046SOL     OW93196   7.717   2.643   5.262 -0.4156  0.0047 -0.2394
27046SOL    HW193197   7.640   2.579   5.267 -0.9433  0.6521 -0.0961
27046SOL    HW293198   7.728   2.675   5.168 -1.0836  0.8517 -0.0271
27047SOL     OW93199   0.674   3.632   9.253 -0.5184  0.3437  0.0267
27047SOL    HW193200   0.723   3.716   9.231  0.3952 -0.5548 -1.4138
27047SOL    HW293201   0.739   3.562   9.283 -0.7013 -1.2051 -2.9622
27048SOL     OW93202   0.727   7.181   6.749 -0.1357  0.2089 -0.5913
27048SOL    HW193203   0.665   7.124   6.695 -0.5197  1.7096 -1.7840
27048SOL    HW293204   0.719   7.276   6.719 -0.2994  1.0849  2.0570
27049SOL     OW93205   6.647   3.451   8.819 -0.7821 -0.6251 -0.0170
27049SOL    HW193206   6.560   3.433   8.774 -0.4021 -2.2778 -0.1465
27049SOL    HW293207   6.639   3.431   8.917 -0.7453 -0.0811  0.0989
27050SOL     OW93208   9.588   8.011   0.416  0.3416 -0.0699  0.2778
27050SOL    HW193209   9.493   7.986   0.394  1.0667 -2.1902 -0.5774
27050SOL    HW293210   9.645   7.997   0.335  1.4091  1.1290  0.8127
27051SOL     OW93211   3.779   3.181   5.100  0.3559 -0.1102  0.1328
27051SOL    HW193212   3.760   3.278   5.119 -1.2472 -0.3860  0.0246
27051SOL    HW293213   3.710   3.124   5.145  0.1453 -1.0990 -1.3959
27052SOL     OW93214   0.863   3.477   9.400  0.4547 -0.0615 -0.0184
27052SOL    HW193215   0.915   3.392   9.389  1.2678  0.6254 -1.6386
27052SOL    HW293216   0.926   3.550   9.426 -0.0834  0.2731  0.3350
27053SOL     OW93217   4.356   3.788   1.513  0.4424 -0.1318 -0.5614
27053SOL    HW193218   4.275   3.832   1.552 -0.1465 -0.7741 -1.0530
27053SOL    HW293219   4.390   3.843   1.437 -0.3577 -0.5710 -1.2436
27054SOL     OW93220   4.147   9.965   8.098 -0.0137  0.1035  0.7500
27054SOL    HW193221   4.194   9.932   8.016  0.8254 -1.5245  1.8604
27054SOL    HW293222   4.197  10.043   8.136  1.7772 -1.5180  1.8405
27055SOL     OW93223   4.702   2.268   4.203  0.3877 -0.0876  0.2722
27055SOL    HW193224   4.697   2.351   4.258  0.1669  0.2862 -0.3023
27055SOL    HW293225   4.670   2.288   4.110 -0.0603 -0.9144  0.2447
27056SOL     OW93226   3.799   5.824   2.917 -0.2917  0.3799  0.5347
27056SOL    HW193227   3.827   5.762   2.990  1.2491  0.9860  0.4787
27056SOL    HW293228   3.880   5.862   2.873 -1.2205  1.4109 -0.3107
27057SOL     OW93229   0.444   8.153   2.234  0.0757 -0.4067 -0.0495
27057SOL    HW193230   0.470   8.196   2.147  1.3801 -0.6649  0.1917
27057SOL    HW293231   0.347   8.167   2.251  0.4653  2.4515  0.0340
27058SOL     OW93232   7.891   3.135   5.602  0.3081 -0.2130 -0.2322
27058SOL    HW193233   7.821   3.206   5.595  0.1210 -0.3889 -0.1546
27058SOL    HW293234   7.981   3.175   5.587 -0.0030 -0.4357 -2.9438
27059SOL     OW93235   4.697   4.625   8.952  0.2089  0.1666 -0.5405
27059SOL    HW193236   4.699   4.539   8.901 -0.2882 -1.5887  2.3210
27059SOL    HW293237   4.790   4.657   8.968  0.3953  0.1020 -1.4425
27060SOL     OW93238   9.223   1.210   3.818 -0.0122 -0.5336  0.0294
27060SOL    HW193239   9.166   1.275   3.868 -0.8323  0.8195 -2.5567
27060SOL    HW293240   9.171   1.126   3.804 -0.7680  0.0665 -0.8374
27061SOL     OW93241   1.467   2.734   0.111  0.4463  0.0059 -0.3237
27061SOL    HW193242   1.436   2.750   0.017 -1.7970 -0.3707  0.3125
27061SOL    HW293243   1.467   2.635   0.129 -0.6476  0.1388  0.5191
27062SOL     OW93244   3.543   9.199   7.469 -0.0257 -0.0231 -0.2212
27062SOL    HW193245   3.487   9.156   7.540 -3.1879  1.3773 -1.7822
27062SOL    HW293246   3.580   9.285   7.503 -0.4873  0.0396  0.1186
27063SOL     OW93247   8.549   3.998   7.080 -0.1798 -0.2026 -0.5253
27063SOL    HW193248   8.643   4.031   7.089 -0.7259  1.0668  0.5768
27063SOL    HW293249   8.490   4.046   7.144 -1.4943 -1.3931 -0.8136
27064SOL     OW93250   6.924   0.189   1.099  0.4218 -0.1455  0.3151
27064SOL    HW193251   6.836   0.159   1.061  0.2110 -1.4069  1.7445
27064SOL    HW293252   6.924   0.289   1.107 -0.2130  0.0056 -1.2757
27065SOL     OW93253   3.653   4.552   6.115  0.1010  0.1278 -0.1054
27065SOL    HW193254   3.577   4.605   6.078  0.9952  1.3598 -0.2021
27065SOL    HW293255   3.675   4.477   6.053 -1.6782 -0.8493  0.4054
27066SOL     OW93256   8.490   8.536   6.109 -0.0617 -0.5150 -0.0743
27066SOL    HW193257   8.486   8.592   6.192 -1.1084 -0.2281 -0.3123
27066SOL    HW293258   8.497   8.440   6.134  1.5430 -0.3047  0.3381
27067SOL     OW93259   8.078   0.573   4.430 -0.1257  0.0216 -0.5795
27067SOL    HW193260   8.017   0.648   4.453 -0.5526  0.0172 -1.6925
27067SOL    HW293261   8.043   0.523   4.351 -0.3041 -1.9039  0.6800
27068SOL     OW93262   4.098   4.288   5.406 -0.0349  0.3232  0.3055
27068SOL    HW193263   4.117   4.340   5.490 -0.1157  0.5813  0.1638
27068SOL    HW293264   4.175   4.298   5.343  0.2736 -0.3289  0.5745
27069SOL     OW93265   2.507   8.227   0.375 -0.1732  0.5025  0.1496
27069SOL    HW193266   2.595   8.273   0.363 -0.3386  0.1374 -2.7783
27069SOL    HW293267   2.514   8.133   0.341 -1.4525  0.2096  0.7013
27070SOL     OW93268   7.911   4.944   0.125 -0.3059  0.6030  0.1649
27070SOL    HW193269   7.866   5.004   0.059 -0.0237 -0.9092 -1.4432
27070SOL    HW293270   7.843   4.882   0.164 -0.2413  0.6531  0.3549
27071SOL     OW93271   3.334   9.399   2.533  0.4377  0.2681 -0.6742
27071SOL    HW193272   3.257   9.408   2.597 -0.6942 -2.0252 -1.6547
27071SOL    HW293273   3.301   9.405   2.439  0.9206 -3.5763 -1.1986
27072SOL     OW93274   6.889   8.955   7.004 -0.7519  0.5200 -0.5189
27072SOL    HW193275   6.896   8.950   6.904 -1.2339  0.2590 -0.5399
27072SOL    HW293276   6.815   8.896   7.035 -0.8315  0.8715 -0.0356
27073SOL     OW93277   3.038   1.772   9.413 -0.1417 -0.2872  0.4112
27073SOL    HW193278   2.941   1.798   9.415 -0.1349 -0.1717 -0.5818
27073SOL    HW293279   3.092   1.842   9.460 -0.6749 -1.0108  2.1550
27074SOL     OW93280   0.214   8.573   0.860  0.5919  0.4744 -0.6658
27074SOL    HW193281   0.223   8.621   0.947  1.0893  2.3018 -1.7022
27074SOL    HW293282   0.118   8.573   0.832  0.2481 -1.1705  0.4475
27075SOL     OW93283   4.968   0.826   6.480  0.1084  0.7785  0.3764
27075SOL    HW193284   4.917   0.899   6.434 -0.8176  0.7985  1.3973
27075SOL    HW293285   4.940   0.823   6.576  0.0640 -1.0041  0.3121
27076SOL     OW93286   3.182   0.953   8.411  0.6462 -0.3876 -0.0112
27076SOL    HW193287   3.091   0.912   8.421  1.1362 -0.8782  3.0913
27076SOL    HW293288   3.173   1.050   8.393 -0.4983 -0.8474 -2.0135
27077SOL     OW93289   4.678   5.230   8.123 -0.2224 -0.0942  0.0828
27077SOL    HW193290   4.769   5.240   8.164 -0.0900 -0.3111 -0.1560
27077SOL    HW293291   4.617   5.301   8.159  0.0686  0.1162  0.1620
27078SOL     OW93292   8.321   9.621   6.768 -0.6456  0.5861  0.4164
27078SOL    HW193293   8.230   9.643   6.735 -0.9704 -0.4483  0.6140
27078SOL    HW293294   8.314   9.571   6.854  0.0684 -0.5735 -0.1913
27079SOL     OW93295   0.774   2.992   6.772  0.0030 -0.0434 -0.0309
27079SOL    HW193296   0.797   2.946   6.686 -0.2746  0.3687 -0.3270
27079SOL    HW293297   0.746   3.086   6.753 -1.8351 -0.4893  0.3193
27080SOL     OW93298   5.583   6.126   8.871 -0.0468 -0.5673  0.2433
27080SOL    HW193299   5.679   6.142   8.847 -0.1612 -0.0016  0.1716
27080SOL    HW293300   5.540   6.072   8.799 -0.1365  0.3153 -0.3743
27081SOL     OW93301   9.321   6.571   7.770 -0.4520 -0.2084  0.3654
27081SOL    HW193302   9.397   6.527   7.722 -0.2666 -0.2117  0.6633
27081SOL    HW293303   9.324   6.547   7.867 -0.7571 -0.1028  0.4027
27082SOL     OW93304   5.265   0.822   3.520 -0.7140 -0.2733  0.5845
27082SOL    HW193305   5.175   0.785   3.544  0.0273 -0.6532  2.9250
27082SOL    HW293306   5.307   0.766   3.449 -1.3306 -1.5084  1.1823
27083SOL     OW93307   1.734   8.853   1.503  0.0244 -0.0968 -0.1405
27083SOL    HW193308   1.707   8.853   1.600  1.2211  1.4278  0.2050
27083SOL    HW293309   1.665   8.903   1.450 -0.1993 -0.2032  0.0465
27084SOL     OW93310   4.258   8.111   3.519 -0.5658  0.5880 -0.4550
27084SOL    HW193311   4.187   8.169   3.479 -3.4214  0.6115  4.2865
27084SOL    HW293312   4.230   8.015   3.514  0.5338  0.2909 -1.2384
27085SOL     OW93313   4.028   8.540   4.032 -0.1834 -0.0642  0.8035
27085SOL    HW193314   3.975   8.613   3.988 -0.8457 -0.1630  1.4353
27085SOL    HW293315   4.090   8.499   3.965  0.0552  0.9488  0.3898
27086SOL     OW93316   8.846   2.763   2.856 -0.0637 -0.1254 -0.1393
27086SOL    HW193317   8.848   2.835   2.787 -0.4107 -0.8523 -0.9137
27086SOL    HW293318   8.938   2.726   2.869  0.5524  2.0122  1.9272
27087SOL     OW93319   9.231   8.285   2.331 -0.4912 -0.1996  0.0548
27087SOL    HW193320   9.226   8.384   2.318 -0.9322  0.2657  3.3504
27087SOL    HW293321   9.139   8.247   2.331 -0.4108 -0.3854  0.5042
27088SOL     OW93322   8.112   9.907   7.766 -0.2692  0.1259 -0.4879
27088SOL    HW193323   8.127   9.903   7.667 -2.2684  0.7927 -0.8440
27088SOL    HW293324   8.060   9.989   7.789 -0.5837 -0.4772  1.0119
27089SOL     OW93325   8.882   9.401   4.766 -0.7332  0.0146  0.0763
27089SOL    HW193326   8.859   9.304   4.766  1.3705 -0.5116  1.3966
27089SOL    HW293327   8.896   9.432   4.671 -3.8124 -0.3335 -0.5325
27090SOL     OW93328   3.436   0.421   2.323 -0.0271  0.0930  0.1455
27090SOL    HW193329   3.416   0.510   2.364 -0.8079  0.3493 -0.7808
27090SOL    HW293330   3.405   0.420   2.228 -0.4459 -1.3229  0.2848
27091SOL     OW93331   0.709   0.690   4.590 -0.4641  0.3763 -0.1353
27091SOL    HW193332   0.619   0.655   4.616  0.1429  0.9115  2.8397
27091SOL    HW293333   0.712   0.789   4.607  0.3918  0.5360 -1.1416
27092SOL     OW93334   1.011   7.240   7.059 -0.6373 -0.1477 -0.3828
27092SOL    HW193335   0.927   7.184   7.057 -0.8106  0.1030 -0.1973
27092SOL    HW293336   1.000   7.314   7.126 -0.3924  0.0861 -0.6009
27093SOL     OW93337   8.363   3.489   8.582 -0.0698  0.4314 -0.1034
27093SOL    HW193338   8.443   3.431   8.565 -0.5383  0.2642 -1.7714
27093SOL    HW293339   8.369   3.572   8.527 -0.6672  0.7846  0.3524
27094SOL     OW93340   7.872   1.686   0.908 -0.8385 -0.0639  0.1017
27094SOL    HW193341   7.919   1.772   0.890 -1.4979  0.1097 -0.7794
27094SOL    HW293342   7.796   1.702   0.971 -2.6088  0.4837 -2.1056
27095SOL     OW93343   6.257   1.480   3.279  0.6239  0.1989  0.0902
27095SOL    HW193344   6.279   1.407   3.214  2.0218 -0.0880  0.8546
27095SOL    HW293345   6.229   1.439   3.366  0.5652  0.5655  0.2441
27096SOL     OW93346   7.959   8.013   5.899 -0.0240 -0.4104 -0.8231
27096SOL    HW193347   8.054   8.003   5.869 -0.0742  1.2553 -1.5718
27096SOL    HW293348   7.957   8.030   5.998  0.5848  1.4594 -1.1144
27097SOL     OW93349   4.257   4.793   1.885 -0.1291 -0.2401 -0.1828
27097SOL    HW193350   4.231   4.768   1.979  0.1356  0.0662 -0.0246
27097SOL    HW293351   4.175   4.797   1.828 -0.3596  0.1150  0.1657
27098SOL     OW93352   1.944   9.120   4.830 -0.0767 -0.3407 -0.4058
27098SOL    HW193353   1.927   9.025   4.854 -0.3166 -0.3562 -0.6257
27098SOL    HW293354   1.952   9.128   4.730 -0.3704 -0.0819 -0.4088
27099SOL     OW93355   8.765   6.049   2.013  0.0946 -0.0465  0.5299
27099SOL    HW193356   8.718   5.976   2.062  0.2473 -0.2495  0.3719
27099SOL    HW293357   8.859   6.056   2.044 -0.0344  0.3603  0.8443
27100SOL     OW93358   1.889   9.315   4.264 -0.4702  0.9798 -0.7412
27100SOL    HW193359   1.953   9.252   4.307 -1.8406 -0.8785 -1.3714
27100SOL    HW293360   1.861   9.385   4.330  0.4488  0.4552  0.2082
27101SOL     OW93361   2.505   3.159   2.279 -0.7752  0.6742  0.2112
27101SOL    HW193362   2.483   3.256   2.289  0.7238  1.0533 -0.1285
27101SOL    HW293363   2.590   3.148   2.227 -1.1342 -0.8362 -0.1023
27102SOL     OW93364   3.338   2.035   0.985  0.3297  0.2735 -0.2795
27102SOL    HW193365   3.248   2.078   0.971 -0.6564 -1.4999  0.4701
27102SOL    HW293366   3.355   1.971   0.910  1.6905  1.7227 -1.2561
27103SOL     OW93367   3.760   6.212   9.990  0.2056 -0.4863 -0.4481
27103SOL    HW193368   3.776   6.167  10.078  0.2366  2.1226  0.9243
27103SOL    HW293369   3.848   6.239   9.950  0.1359 -0.7090 -0.7472
27104SOL     OW93370   3.642   9.801   8.656  0.4342 -0.0646 -0.1329
27104SOL    HW193371   3.557   9.827   8.610 -0.2006 -1.3308  0.3247
27104SOL    HW293372   3.720   9.839   8.605 -0.3095 -0.5854 -1.6816
27105SOL     OW93373   7.670   9.904   6.135 -0.4389  0.4564  0.3568
27105SOL    HW193374   7.673   9.809   6.103 -1.0663  0.2394  0.9476
27105SOL    HW293375   7.721   9.962   6.071 -1.4930 -0.0198 -0.9347
27106SOL     OW93376   3.073   1.461   5.959  0.4650 -0.1441 -0.8943
27106SOL    HW193377   3.160   1.413   5.946  0.1233 -0.9632 -0.2158
27106SOL    HW293378   3.002   1.394   5.982  0.1659  0.7806  0.9581
27107SOL     OW93379   8.981   3.874   1.337 -0.4498  0.1406 -0.1661
27107SOL    HW193380   8.955   3.876   1.240 -0.9833  2.0697  0.0080
27107SOL    HW293381   8.936   3.796   1.381 -1.7973  0.3941 -1.0446
27108SOL     OW93382   2.122   9.018   3.930 -0.1592  0.2770  0.0341
27108SOL    HW193383   2.123   8.951   4.004  0.3392 -0.6573 -0.7887
27108SOL    HW293384   2.050   9.085   3.946 -0.5199 -0.3234  0.9944
27109SOL     OW93385   1.041   5.923   1.742  0.4997 -0.6363 -0.3390
27109SOL    HW193386   1.104   5.847   1.761  0.5005 -1.1576 -2.3271
27109SOL    HW293387   0.964   5.918   1.805  1.5939 -0.9857  1.0141
27110SOL     OW93388   8.953   6.301   6.005  0.4820 -0.0460  0.1618
27110SOL    HW193389   8.986   6.234   5.939 -1.1401 -0.9462  0.2358
27110SOL    HW293390   9.031   6.345   6.050  1.5761 -1.9157  0.1508
27111SOL     OW93391   0.758   7.703   5.542  0.6353 -0.2142  0.1882
27111SOL    HW193392   0.793   7.790   5.577  0.8865 -0.5602  0.7940
27111SOL    HW293393   0.771   7.700   5.442  0.2293  0.6231  0.1056
27112SOL     OW93394   1.064   3.213   5.491 -0.1343 -0.3633 -0.3096
27112SOL    HW193395   0.967   3.219   5.465 -0.1343 -0.2977 -0.2942
27112SOL    HW293396   1.076   3.254   5.581  0.1024  0.6071 -0.7805
27113SOL     OW93397   1.162   2.195   5.377 -0.1427 -1.3693 -0.0662
27113SOL    HW193398   1.144   2.105   5.416  0.9737 -0.8692  1.6016
27113SOL    HW293399   1.235   2.241   5.427 -1.6059  1.0364 -0.0258
27114SOL     OW93400   2.641   4.778   4.580  0.0288 -0.1478 -0.0571
27114SOL    HW193401   2.683   4.698   4.535 -1.6144 -0.2082 -1.5540
27114SOL    HW293402   2.542   4.777   4.564 -0.6377 -0.1697  3.6638
27115SOL     OW93403   2.017   4.390  10.025 -0.7850  0.3503 -0.3404
27115SOL    HW193404   2.095   4.393  10.088 -0.3814 -0.8955 -0.7721
27115SOL    HW293405   1.941   4.443  10.064  0.0906  1.1345  0.3255
27116SOL     OW93406   8.536   9.330   8.484  0.3455 -0.2222 -0.1805
27116SOL    HW193407   8.442   9.325   8.518  0.1264 -1.0142 -0.8950
27116SOL    HW293408   8.580   9.413   8.520 -1.0995  0.9360 -1.0499
27117SOL     OW93409   6.782   9.877   7.848 -0.3842 -0.1098  0.1386
27117SOL    HW193410   6.750   9.823   7.926 -1.4132 -1.3602 -1.1230
27117SOL    HW293411   6.721   9.954   7.834  0.3815  0.7037  1.1795
27118SOL     OW93412   0.401   4.540   0.247  0.9449  0.2976 -0.4512
27118SOL    HW193413   0.303   4.519   0.245  1.1002 -0.8027  1.9137
27118SOL    HW293414   0.438   4.536   0.154 -1.1278  0.1626 -1.2950
27119SOL     OW93415   7.434   8.841   5.945 -0.3315 -0.0942 -0.2171
27119SOL    HW193416   7.423   8.873   6.039 -0.4527  0.2727 -0.3528
27119SOL    HW293417   7.531   8.836   5.923 -0.2559 -1.7339  0.4421
27120SOL     OW93418   4.432   8.426   4.023  0.2747  0.2569  0.0966
27120SOL    HW193419   4.511   8.368   4.041  1.8959  1.9632 -1.3369
27120SOL    HW293420   4.376   8.385   3.952 -0.9778 -1.7035  2.1498
27121SOL     OW93421   2.060   8.645   0.560 -0.2361  0.2196 -0.3272
27121SOL    HW193422   2.155   8.635   0.592 -0.0869 -1.4204 -1.2270
27121SOL    HW293423   1.998   8.599   0.623 -0.2471 -0.3092 -0.7209
27122SOL     OW93424   3.197   2.124   8.066 -0.3632  0.1717 -0.6375
27122SOL    HW193425   3.233   2.046   8.014 -1.4901 -0.3488 -0.6748
27122SOL    HW293426   3.260   2.201   8.060  0.4212 -0.5077 -1.2087
27123SOL     OW93427   9.655   5.611   2.783 -0.1742  0.2657 -0.1760
27123SOL    HW193428   9.744   5.656   2.772  0.1536  0.1557  1.7689
27123SOL    HW293429   9.666   5.513   2.768  0.1169  0.2106  0.3509
27124SOL     OW93430   8.432   4.081   5.070  0.0533  0.2636 -0.5719
27124SOL    HW193431   8.469   4.053   5.158  0.2045 -0.4263 -0.8490
27124SOL    HW293432   8.467   4.020   4.998 -1.1818 -0.0508 -0.9123
27125SOL     OW93433   7.404   5.827   7.734 -0.4387  0.1771 -0.3484
27125SOL    HW193434   7.485   5.770   7.718  0.0320  0.8575 -0.4240
27125SOL    HW293435   7.383   5.879   7.652 -0.2086  0.9309  0.0646
27126SOL     OW93436   8.703   6.837   2.196  0.1070  0.2803  0.0417
27126SOL    HW193437   8.756   6.835   2.111  0.9270  1.8578  0.4999
27126SOL    HW293438   8.711   6.748   2.242  1.1107  0.0053 -0.6427
27127SOL     OW93439   3.239   1.591   8.650 -0.4220 -0.2423  0.4314
27127SOL    HW193440   3.284   1.509   8.684  0.7662  0.2189  0.0087
27127SOL    HW293441   3.254   1.599   8.552 -1.0653  0.1430  0.3644
27128SOL     OW93442   2.806   3.041   2.247 -0.4456  0.0221  0.0104
27128SOL    HW193443   2.755   3.030   2.162  0.8228 -0.3276 -0.7069
27128SOL    HW293444   2.818   2.951   2.291 -0.1192  0.0503 -0.0184
27129SOL     OW93445   0.806   7.370   6.062 -0.4987 -0.1299 -0.5275
27129SOL    HW193446   0.873   7.426   6.013 -0.6563 -0.6812 -1.3794
27129SOL    HW293447   0.767   7.423   6.137 -0.6552  0.9166 -1.3340
27130SOL     OW93448   1.542   2.412   6.973 -0.1337 -0.2549 -0.4625
27130SOL    HW193449   1.466   2.388   7.032  0.7017  0.8976  1.1218
27130SOL    HW293450   1.603   2.333   6.962  0.0116 -0.3147  0.6977
27131SOL     OW93451   7.141   8.377   6.710 -0.0847 -0.1928  0.1936
27131SOL    HW193452   7.187   8.327   6.636 -2.2085 -0.0938 -1.2284
27131SOL    HW293453   7.137   8.474   6.687 -1.6551 -0.3065 -0.0626
27132SOL     OW93454   7.770   5.363   8.478 -1.0102  0.2821  0.5215
27132SOL    HW193455   7.674   5.347   8.499 -1.3580  1.1373 -0.3879
27132SOL    HW293456   7.788   5.461   8.476  0.1043  0.1042  1.6675
27133SOL     OW93457   1.039   6.670   0.916 -0.5820  0.1075  0.1989
27133SOL    HW193458   1.025   6.577   0.951 -2.5370  0.1351 -0.4358
27133SOL    HW293459   1.128   6.704   0.946 -0.4519 -1.4285  1.6367
27134SOL     OW93460   2.336   5.490   6.974 -0.0333 -0.2167  0.5649
27134SOL    HW193461   2.316   5.400   7.014 -0.3089  0.8810  3.0119
27134SOL    HW293462   2.408   5.535   7.029  0.0355  1.0923 -0.5764
27135SOL     OW93463   6.641   2.045   4.713 -0.2769  0.2463  0.3471
27135SOL    HW193464   6.565   2.020   4.652  0.6336 -1.0607 -0.2916
27135SOL    HW293465   6.618   2.019   4.807 -1.2994  1.3918  0.4258
27136SOL     OW93466   2.251   7.292   7.357  0.2218  0.0005 -0.1647
27136SOL    HW193467   2.341   7.311   7.397  0.3835  0.6892 -0.8586
27136SOL    HW293468   2.261   7.238   7.274  0.1047  1.3138 -1.0550
27137SOL     OW93469   8.373   2.231   8.870  0.3932  0.4955  0.3531
27137SOL    HW193470   8.450   2.250   8.809  0.5483  1.1250  0.7383
27137SOL    HW293471   8.302   2.299   8.857 -0.3100 -0.3524 -0.3323
27138SOL     OW93472   0.645   4.074   9.023 -0.1650  0.9475 -0.1136
27138SOL    HW193473   0.743   4.080   9.041  0.0792  0.9843 -1.4053
27138SOL    HW293474   0.611   3.984   9.050  0.0700  1.1905  1.0156
27139SOL     OW93475   4.060   4.163   2.858 -0.0497 -0.2868  0.0951
27139SOL    HW193476   3.977   4.164   2.803 -1.0670  0.7488  1.6112
27139SOL    HW293477   4.040   4.124   2.948  0.3154  2.8445  1.6029
27140SOL     OW93478   7.182   1.693   0.233  0.4529  0.0675  0.0847
27140SOL    HW193479   7.107   1.711   0.297  0.7307  0.2730  0.3526
27140SOL    HW293480   7.184   1.595   0.212  0.3760 -0.0063  0.4090
27141SOL     OW93481   8.585   7.643   3.517 -0.6487  0.1794 -0.2504
27141SOL    HW193482   8.615   7.710   3.585  0.7570 -0.3559 -0.3383
27141SOL    HW293483   8.545   7.564   3.564  1.0087 -0.5236 -0.0075
27142SOL     OW93484   3.131   0.682   3.038  0.0771 -0.2394  0.0558
27142SOL    HW193485   3.039   0.648   3.060  0.5608 -1.3113  0.4423
27142SOL    HW293486   3.150   0.667   2.941  0.5773 -1.7789  0.3836
27143SOL     OW93487   9.861   9.206   3.183 -0.4629  0.0549 -0.0891
27143SOL    HW193488   9.931   9.147   3.224  0.3566  1.2878  0.3293
27143SOL    HW293489   9.777   9.200   3.237  0.2452  0.7855  1.1282
27144SOL     OW93490   3.900   3.329   0.837  0.1977 -0.3458  0.2258
27144SOL    HW193491   3.807   3.366   0.845  1.1358  2.0110  0.6399
27144SOL    HW293492   3.929   3.292   0.925 -0.5745 -1.6923 -0.0715
27145SOL     OW93493   9.903   0.332  10.023 -0.4223 -0.0181  0.3960
27145SOL    HW193494   9.830   0.264  10.030  0.4200 -0.8432  1.2421
27145SOL    HW293495   9.983   0.291   9.980 -0.8556  1.2254 -1.6556
27146SOL     OW93496   7.755   5.518   7.098 -0.2271 -0.5271 -0.1352
27146SOL    HW193497   7.725   5.486   7.188 -0.1142 -1.6114 -0.4685
27146SOL    HW293498   7.854   5.529   7.098 -0.4723  1.8202  0.5858
27147SOL     OW93499   0.411   9.278   5.898 -0.0053  0.1237 -0.7393
27147SOL    HW193500   0.348   9.302   5.972  0.2468  0.8038 -0.7408
27147SOL    HW293501   0.505   9.280   5.933 -0.0058 -1.2025 -0.6573
27148SOL     OW93502   4.830   9.644   7.586 -0.3776  0.8217 -0.2108
27148SOL    HW193503   4.776   9.674   7.665 -0.9380  1.7729 -0.9481
27148SOL    HW293504   4.806   9.550   7.563 -0.0006  0.4329  0.9293
27149SOL     OW93505   9.665   5.556   4.497 -0.8522  0.3345 -0.4934
27149SOL    HW193506   9.664   5.459   4.520 -1.3705  0.3606 -0.4171
27149SOL    HW293507   9.744   5.575   4.438  0.5615  0.2851  1.3343
27150SOL     OW93508   8.109   2.682   1.099  0.4809 -0.3525 -0.3770
27150SOL    HW193509   8.129   2.711   1.005  0.7191 -2.7982 -1.1088
27150SOL    HW293510   8.097   2.583   1.102  0.2378 -0.2848  2.1508
27151SOL     OW93511   2.690   0.727   1.515  0.5949 -0.5643 -0.5721
27151SOL    HW193512   2.616   0.779   1.557  1.8475  1.6354 -1.0457
27151SOL    HW293513   2.693   0.635   1.556 -0.9887  0.0491  0.9878
27152SOL     OW93514   9.915   3.782   1.816 -0.1880  0.1387 -0.2764
27152SOL    HW193515   9.928   3.683   1.809  2.1943  0.3446  0.5478
27152SOL    HW293516   9.858   3.813   1.740  2.7088 -1.2881 -3.1920
27153SOL     OW93517   7.301   9.821   2.411 -0.1784  0.0579  0.1913
27153SOL    HW193518   7.366   9.866   2.349 -1.7313  1.3242 -0.5601
27153SOL    HW293519   7.302   9.723   2.394  2.2129 -0.0571  0.8503
27154SOL     OW93520   4.169   6.441   7.320 -0.3382 -0.7465 -0.1676
27154SOL    HW193521   4.072   6.458   7.305 -0.5343 -0.8762  0.9632
27154SOL    HW293522   4.202   6.375   7.252 -0.9580 -0.4701 -0.7463
27155SOL     OW93523   8.726   7.831   6.192  0.2790  0.4527 -0.0884
27155SOL    HW193524   8.706   7.736   6.169 -1.2584  0.4773  1.0402
27155SOL    HW293525   8.779   7.873   6.118  0.5928 -1.1488 -0.7902
27156SOL     OW93526   8.755   3.882   7.969  0.3255 -0.3034  0.4861
27156SOL    HW193527   8.684   3.836   8.021 -0.0193  0.6163  0.8338
27156SOL    HW293528   8.787   3.962   8.019  1.6406 -0.7245  0.3549
27157SOL     OW93529   0.747   4.432   6.540  0.2300  0.2994  0.2701
27157SOL    HW193530   0.690   4.374   6.599 -0.6085  1.2248  0.3862
27157SOL    HW293531   0.696   4.513   6.515  0.3561 -0.3699 -2.2505
27158SOL     OW93532   0.970   5.283   1.235  0.1057  0.0450 -0.0160
27158SOL    HW193533   1.043   5.334   1.189 -0.4767  0.6085 -0.3268
27158SOL    HW293534   0.983   5.185   1.221 -1.3356  0.2831 -3.3372
27159SOL     OW93535   0.359   0.355   2.462  0.0150  0.4307  0.2753
27159SOL    HW193536   0.334   0.452   2.461 -0.3573  0.3401 -1.7769
27159SOL    HW293537   0.459   0.347   2.460  0.0239  0.7885 -1.5593
27160SOL     OW93538   1.691   4.828   1.553 -0.0206 -0.4090 -0.5686
27160SOL    HW193539   1.652   4.892   1.618  1.3328 -0.6657  0.5288
27160SOL    HW293540   1.734   4.879   1.478 -3.1252 -0.1365 -2.2547
27161SOL     OW93541   6.666   5.705   8.572 -0.2597 -0.1775 -0.2526
27161SOL    HW193542   6.745   5.735   8.518 -1.0898  2.3094 -0.1570
27161SOL    HW293543   6.682   5.612   8.606  2.2502 -0.0336 -0.9404
27162SOL     OW93544   8.920   6.447   0.846 -0.2384 -0.7080 -0.4743
27162SOL    HW193545   8.878   6.419   0.932  1.7886 -0.2135  0.7246
27162SOL    HW293546   8.884   6.391   0.772 -2.7797 -0.4565  0.5055
27163SOL     OW93547   7.105   5.394   3.379 -0.3403  0.0174 -0.0396
27163SOL    HW193548   7.084   5.387   3.282 -1.0163  1.4353 -0.0048
27163SOL    HW293549   7.067   5.314   3.427 -1.0721 -0.0753 -0.7533
27164SOL     OW93550   3.143   6.690   0.754 -0.4318 -0.7177 -0.2612
27164SOL    HW193551   3.222   6.727   0.802 -1.3403  0.4253  0.3969
27164SOL    HW293552   3.155   6.702   0.656 -0.0336 -0.0582 -0.1338
27165SOL     OW93553   2.684   7.709   4.327 -0.6572 -0.3060 -0.1995
27165SOL    HW193554   2.626   7.667   4.257 -0.7440  1.6429 -1.3483
27165SOL    HW293555   2.644   7.796   4.355 -0.2279 -0.7303  1.7601
27166SOL     OW93556   0.458   8.234   4.196  0.1318  0.0520  0.0560
27166SOL    HW193557   0.419   8.299   4.131 -0.6353  1.8173  2.2199
27166SOL    HW293558   0.534   8.278   4.244 -0.1109 -0.7965  1.2189
27167SOL     OW93559   3.020   3.344   3.796 -0.5434 -0.3322 -0.7615
27167SOL    HW193560   2.993   3.314   3.887  0.4922  2.3494  0.4779
27167SOL    HW293561   3.108   3.303   3.771 -0.2549 -0.1491 -0.0450
27168SOL     OW93562   8.463   7.613   7.703  0.1277  0.0337  0.3980
27168SOL    HW193563   8.426   7.704   7.721  0.1572  0.1223  0.0273
27168SOL    HW293564   8.470   7.599   7.604 -0.0467 -0.4399  0.4504
27169SOL     OW93565   7.280   1.358   1.388 -0.3991 -0.1604  0.0546
27169SOL    HW193566   7.234   1.439   1.350  0.7527  0.1430 -0.7172
27169SOL    HW293567   7.277   1.284   1.321  0.2099 -0.1459  0.0074
27170SOL     OW93568   0.501   9.945   6.437  0.2654  0.3911 -0.3845
27170SOL    HW193569   0.558  10.024   6.414  0.1282  0.6632  0.1982
27170SOL    HW293570   0.416   9.949   6.385  0.2482  0.6406 -0.3360
27171SOL     OW93571   4.068   8.929   5.716  0.0747 -0.5875  0.8769
27171SOL    HW193572   3.972   8.955   5.715  0.3005  0.2223  0.1164
27171SOL    HW293573   4.080   8.847   5.772 -0.7009  0.7064  2.9859
27172SOL     OW93574   4.101   5.251   9.703 -0.0406 -0.0299  0.1510
27172SOL    HW193575   4.178   5.314   9.719  0.7513 -0.8511 -0.4192
27172SOL    HW293576   4.015   5.302   9.711  0.5746  1.0223  0.2000
27173SOL     OW93577   4.510   5.976   9.812  0.3920  0.0059 -0.1691
27173SOL    HW193578   4.604   5.959   9.841 -1.0425 -1.2380  4.2185
27173SOL    HW293579   4.474   6.057   9.860 -1.4343 -0.8209 -0.0950
27174SOL     OW93580   1.905   7.376   3.266  0.2163 -0.0304  0.3523
27174SOL    HW193581   1.928   7.419   3.179 -2.3762  0.0605 -0.3253
27174SOL    HW293582   1.896   7.277   3.252  1.2151 -0.1917  0.8327
27175SOL     OW93583   8.826   1.401   2.706  0.0235  0.1671  0.1654
27175SOL    HW193584   8.805   1.387   2.803 -0.7774  0.9508  0.1062
27175SOL    HW293585   8.904   1.343   2.680 -1.1624 -1.7003  0.7345
27176SOL     OW93586   9.568   4.978   1.677 -0.6931 -0.1915  0.0139
27176SOL    HW193587   9.629   4.935   1.742 -0.4568  0.9499  0.5545
27176SOL    HW293588   9.499   4.912   1.647 -1.1255 -0.5763  1.8190
27177SOL     OW93589   8.006   2.598   9.440  0.1316  0.2487 -0.2599
27177SOL    HW193590   8.026   2.691   9.408 -1.1394  0.3422 -0.8096
27177SOL    HW293591   7.994   2.538   9.361  2.0098 -0.6188  0.1029
27178SOL     OW93592   1.421   6.281   8.694  0.1666 -0.4302 -0.2864
27178SOL    HW193593   1.352   6.314   8.630 -0.2447  0.2661  0.5102
27178SOL    HW293594   1.393   6.191   8.729  0.6140 -1.0168 -1.4160
27179SOL     OW93595   1.029   3.948   3.769 -0.1982 -0.6878 -0.1750
27179SOL    HW193596   1.126   3.926   3.766  0.4037  1.9713 -1.1712
27179SOL    HW293597   0.993   3.930   3.860  1.3873 -1.0282  0.3909
27180SOL     OW93598   8.937   1.290   3.138  0.4401 -0.3135  0.0291
27180SOL    HW193599   8.858   1.295   3.077  1.7687  0.7797 -1.6901
27180SOL    HW293600   9.015   1.250   3.089  1.7116  1.1366  0.8003
27181SOL     OW93601   1.791   5.368   9.363 -0.1987 -0.0257  0.1411
27181SOL    HW193602   1.882   5.365   9.405 -0.9332 -3.0321  1.6373
27181SOL    HW293603   1.752   5.459   9.376  2.4590  1.2130 -0.2626
27182SOL     OW93604   3.409   6.543   5.967 -0.3117  0.1703 -0.1358
27182SOL    HW193605   3.366   6.617   6.019  1.6776  1.8232 -0.7819
27182SOL    HW293606   3.415   6.570   5.871  1.3056 -0.4270 -0.2089
27183SOL     OW93607   6.390   1.329   4.213 -0.1485 -0.4773 -0.7370
27183SOL    HW193608   6.317   1.309   4.279  0.5959 -2.0260 -0.3559
27183SOL    HW293609   6.350   1.370   4.131 -1.1339  1.0982  0.4841
27184SOL     OW93610   0.525   7.427   8.339  0.2649 -0.0819 -0.4558
27184SOL    HW193611   0.582   7.475   8.405 -0.2303 -0.2590  0.0978
27184SOL    HW293612   0.578   7.354   8.295  0.4322 -0.3214  0.1415
27185SOL     OW93613   0.835   2.701   6.871 -0.1029 -0.3627 -0.7377
27185SOL    HW193614   0.736   2.688   6.866 -0.0195 -0.6114 -1.7609
27185SOL    HW293615   0.858   2.797   6.850 -0.3339  0.3799  2.1875
27186SOL     OW93616   2.269   2.198   7.440  0.5697  0.0671 -0.0376
27186SOL    HW193617   2.181   2.235   7.410 -0.8171 -2.7545  0.3567
27186SOL    HW293618   2.296   2.241   7.526 -1.0793  0.0539  0.5021
27187SOL     OW93619   3.198   9.711   1.852 -0.3066 -0.1648  0.0747
27187SOL    HW193620   3.129   9.689   1.783 -0.4234 -0.1560  0.1888
27187SOL    HW293621   3.181   9.802   1.890 -0.7445 -0.5067  0.7194
27188SOL     OW93622   9.313   4.109   5.902 -0.2805  0.3011 -0.1934
27188SOL    HW193623   9.341   4.035   5.963 -0.7773 -0.4790 -0.9018
27188SOL    HW293624   9.214   4.115   5.899 -0.2455  1.1907  0.0750
27189SOL     OW93625   3.221   4.894   3.567  0.2506 -0.2673  0.1224
27189SOL    HW193626   3.287   4.865   3.636 -0.0960  0.3088  0.7086
27189SOL    HW293627   3.134   4.916   3.611  0.2778  0.9305 -0.3810
27190SOL     OW93628   8.817   5.041   9.629 -0.1815 -0.7177  0.0753
27190SOL    HW193629   8.741   5.019   9.569  0.7611 -0.7611 -1.1157
27190SOL    HW293630   8.902   5.040   9.577  0.4477  0.9724  1.0285
27191SOL     OW93631   4.506   4.205   9.463  0.5262  0.0456 -0.1132
27191SOL    HW193632   4.454   4.157   9.534 -0.1739  2.3474  0.9811
27191SOL    HW293633   4.443   4.238   9.393  0.8500  0.3980 -0.2384
27192SOL     OW93634   2.486   8.003   9.735 -0.3759 -0.5302 -0.1288
27192SOL    HW193635   2.441   8.082   9.693 -0.1330 -1.0162 -1.3168
27192SOL    HW293636   2.482   7.926   9.672  2.8982 -0.3434 -0.6314
27193SOL     OW93637   8.372   9.026   9.539 -0.0779 -0.0302 -0.1211
27193SOL    HW193638   8.443   9.094   9.557  0.4326 -0.6183  0.0860
27193SOL    HW293639   8.374   8.956   9.610  0.3663 -1.0628 -1.1425
27194SOL     OW93640   4.962   9.686   9.419  0.2946 -0.3293 -0.5227
27194SOL    HW193641   4.948   9.587   9.414 -2.6564  0.0330 -0.5242
27194SOL    HW293642   4.983   9.721   9.328  0.8581 -0.8847 -0.6116
27195SOL     OW93643   2.524   0.525   3.840  0.3385 -0.2035 -0.0850
27195SOL    HW193644   2.444   0.471   3.812 -0.3066  1.5682 -1.7651
27195SOL    HW293645   2.498   0.621   3.849  1.8324  0.0973  1.3756
27196SOL     OW93646   4.644   3.471   5.563  0.0257  0.6081  0.5351
27196SOL    HW193647   4.693   3.386   5.548  2.1689  1.5344  2.1198
27196SOL    HW293648   4.621   3.513   5.475 -2.2711 -2.2359 -0.2900
27197SOL     OW93649   6.060   4.830   2.563  0.6095  0.0133 -0.7854
27197SOL    HW193650   6.110   4.916   2.568  0.3006  0.0741  2.1347
27197SOL    HW293651   6.124   4.754   2.574  0.4739 -0.0147 -0.1779
27198SOL     OW93652   8.941   2.297   0.648 -0.6821  0.2742  0.1665
27198SOL    HW193653   8.880   2.222   0.623  0.2323 -0.6522  0.7092
27198SOL    HW293654   8.907   2.382   0.607 -1.8349 -0.3886 -0.2769
27199SOL     OW93655   8.620   2.489   4.911  0.0498  0.0390 -0.1899
27199SOL    HW193656   8.557   2.567   4.908 -0.6999 -0.5278  0.6597
27199SOL    HW293657   8.568   2.404   4.921  0.9787 -0.3353  1.7373
27200SOL     OW93658   1.698   9.783   6.607  0.1016 -0.2917 -0.3207
27200SOL    HW193659   1.681   9.691   6.643 -0.1693 -0.7027 -1.4565
27200SOL    HW293660   1.795   9.805   6.615  0.0182 -0.3267  0.7633
27201SOL     OW93661   6.251   8.384   2.408  0.4471 -0.7036 -0.2820
27201SOL    HW193662   6.343   8.346   2.405  0.8799  0.2174  1.0975
27201SOL    HW293663   6.188   8.318   2.449  0.5711 -1.1534 -0.8102
27202SOL     OW93664   8.900   9.147   5.571 -0.1648 -0.1554  0.2301
27202SOL    HW193665   8.864   9.089   5.498  2.2793  1.6983 -2.5128
27202SOL    HW293666   8.853   9.124   5.657 -2.7190 -2.7350 -1.7500
27203SOL     OW93667   3.309   4.431   2.655  0.3142  0.0110  0.0241
27203SOL    HW193668   3.378   4.495   2.688 -1.3669  2.2129 -0.6327
27203SOL    HW293669   3.340   4.388   2.571  0.6656  1.3986 -0.5632
27204SOL     OW93670   8.726   4.806   1.561 -0.4112 -0.3756 -0.0984
27204SOL    HW193671   8.796   4.836   1.496 -0.6219 -0.0813 -0.1892
27204SOL    HW293672   8.739   4.708   1.581  1.0417  0.0483  1.1544
27205SOL     OW93673   8.126   0.040   0.885 -0.4126 -0.2258  0.1481
27205SOL    HW193674   8.198   0.109   0.875 -1.2306  0.6066 -0.0138
27205SOL    HW293675   8.164  -0.050   0.862  0.7179  0.1240  0.5822
27206SOL     OW93676   3.423   6.843   2.732  0.3481 -0.1123  0.1878
27206SOL    HW193677   3.412   6.898   2.650  0.4275 -1.2049 -0.5605
27206SOL    HW293678   3.464   6.756   2.709  1.7897  0.1592  1.6043
27207SOL     OW93679   7.599   9.103   4.238  0.2978 -0.4688 -0.2710
27207SOL    HW193680   7.670   9.122   4.171  1.5080 -3.2604  0.1283
27207SOL    HW293681   7.607   9.166   4.316  1.6417 -0.0654 -0.7376
27208SOL     OW93682   6.907   4.674   0.300  0.0773 -0.9059 -0.0379
27208SOL    HW193683   6.916   4.585   0.256 -0.8316 -0.6210 -0.7921
27208SOL    HW293684   6.837   4.669   0.371  1.2269 -1.2427  1.1167
27209SOL     OW93685   1.248   7.109   0.949  0.4387  0.2163  0.3250
27209SOL    HW193686   1.267   7.173   1.023 -0.9838 -0.2746  1.1252
27209SOL    HW293687   1.153   7.118   0.920  0.5508 -0.6941 -0.3681
27210SOL     OW93688   2.662   3.538   9.892 -0.2931 -0.4544  0.5424
27210SOL    HW193689   2.661   3.561   9.795 -0.3005 -1.9026  0.1812
27210SOL    HW293690   2.574   3.561   9.933 -0.6206 -0.7017 -0.0139
27211SOL     OW93691   2.006   9.051   2.120 -0.0195 -0.3559  0.0222
27211SOL    HW193692   1.947   8.972   2.106  0.1619 -0.1916 -1.8503
27211SOL    HW293693   1.987   9.120   2.050  1.7290  0.0810 -0.0591
27212SOL     OW93694   6.452   9.900   6.475  0.4437  0.0898 -0.5310
27212SOL    HW193695   6.479   9.920   6.570 -1.7927  0.0069  0.1332
27212SOL    HW293696   6.366   9.946   6.454  1.2491  0.6279 -2.7509
27213SOL     OW93697   8.469   9.379   0.057 -0.6475 -0.4726 -0.2282
27213SOL    HW193698   8.537   9.393   0.129  0.3599 -0.5934 -1.1376
27213SOL    HW293699   8.488   9.441  -0.019 -1.7618 -0.2737 -0.3599
27214SOL     OW93700   7.499   6.378   8.659 -0.2496  0.0705  0.2647
27214SOL    HW193701   7.523   6.448   8.726  0.2860  0.7895 -0.6636
27214SOL    HW293702   7.571   6.309   8.655 -0.5424 -0.2746  0.8191
27215SOL     OW93703   2.498   0.411   5.118 -0.0005 -0.1361 -0.3619
27215SOL    HW193704   2.552   0.335   5.152  1.2665  0.3520 -1.2629
27215SOL    HW293705   2.507   0.489   5.179  0.3936 -0.0232 -0.5642
27216SOL     OW93706   0.886   4.446   9.534 -0.3858  0.0707  0.1618
27216SOL    HW193707   0.848   4.514   9.470  1.7490 -0.5483 -1.8264
27216SOL    HW293708   0.863   4.354   9.502 -0.6503 -0.2236  1.1718
27217SOL     OW93709   2.884   6.483   1.554  0.1792  0.4093 -0.4399
27217SOL    HW193710   2.870   6.434   1.468  0.1354 -1.6239  0.7026
27217SOL    HW293711   2.802   6.537   1.574 -0.1761  0.1702 -1.1991
27218SOL     OW93712   8.151   2.231  10.055 -0.4011 -0.4651  0.0226
27218SOL    HW193713   8.151   2.282  10.141  2.5792 -0.7659  0.2610
27218SOL    HW293714   8.232   2.256  10.002 -1.0481 -1.9321 -1.6994
27219SOL     OW93715   8.375   4.795   5.569 -1.2229  0.4833  0.3409
27219SOL    HW193716   8.388   4.856   5.491  0.4411  1.3281  1.2509
27219SOL    HW293717   8.413   4.838   5.651  0.0301 -1.8075  0.9828
27220SOL     OW93718   0.846   4.611   1.246 -0.2301  0.1762 -0.6384
27220SOL    HW193719   0.780   4.536   1.253  1.1544 -0.8232  2.5658
27220SOL    HW293720   0.938   4.573   1.239  0.4823  1.5657  0.9082
27221SOL     OW93721   2.431   2.099   5.215  0.2912  1.2298 -0.4279
27221SOL    HW193722   2.440   2.000   5.224  0.1432  1.2383 -0.1609
27221SOL    HW293723   2.352   2.120   5.157  0.7520  1.1827 -1.0731
27222SOL     OW93724   4.262   7.029   2.417  0.3511 -0.2592 -0.5310
27222SOL    HW193725   4.333   7.090   2.452  1.0568 -0.5830 -1.3966
27222SOL    HW293726   4.282   6.935   2.445 -0.2798 -0.2230  0.0718
27223SOL     OW93727   2.195   9.368   3.950  1.0826 -0.4000  0.3965
27223SOL    HW193728   2.248   9.290   3.983  1.2113 -1.1860 -1.6057
27223SOL    HW293729   2.225   9.392   3.858  0.9282  1.9279  0.9254
27224SOL     OW93730   8.967   7.548   6.371  0.2697 -0.4637 -0.2444
27224SOL    HW193731   8.978   7.537   6.469  0.7894 -0.4080 -0.2991
27224SOL    HW293732   9.039   7.606   6.335  0.5449 -1.1375 -0.7862
27225SOL     OW93733   9.321   2.199   5.370 -0.0004 -0.2174  0.4370
27225SOL    HW193734   9.312   2.192   5.271  0.4731 -3.2474  0.5690
27225SOL    HW293735   9.418   2.195   5.395 -0.2402 -2.3967  1.1601
27226SOL     OW93736   6.631   5.179   0.572 -0.2323 -0.0467  0.6947
27226SOL    HW193737   6.635   5.119   0.652  0.9624 -1.2261 -0.2444
27226SOL    HW293738   6.540   5.175   0.531  0.4338 -2.9009 -0.6245
27227SOL     OW93739   7.540   6.250   9.943 -0.0692  0.0596 -0.2098
27227SOL    HW193740   7.583   6.320   9.999 -0.6090  0.5361 -0.3788
27227SOL    HW293741   7.510   6.290   9.856 -2.6012  0.2120  0.6910
27228SOL     OW93742   1.203   4.922   6.201 -0.1789 -0.8504 -0.4912
27228SOL    HW193743   1.139   4.932   6.277 -0.3415  3.6089 -1.0921
27228SOL    HW293744   1.294   4.903   6.237 -0.3091  0.9356  0.8595
27229SOL     OW93745   7.595   7.265   5.214 -0.3597 -0.1409  0.6451
27229SOL    HW193746   7.562   7.321   5.290 -0.7536 -1.1907  1.2583
27229SOL    HW293747   7.633   7.179   5.250  0.0852 -0.3386 -0.2915
27230SOL     OW93748   3.314   7.404   9.423  0.7149 -0.2234  0.5445
27230SOL    HW193749   3.404   7.401   9.466  0.8056 -2.2800  0.2590
27230SOL    HW293750   3.291   7.314   9.388 -1.7205  0.1474  1.1308
27231SOL     OW93751   1.608   8.919   5.073  0.2291 -0.1470  0.8720
27231SOL    HW193752   1.585   8.824   5.055  0.1712 -0.3690  2.0953
27231SOL    HW293753   1.608   8.936   5.171  1.0814  0.9030  0.7040
27232SOL     OW93754   3.783   7.480   5.482  0.4412 -0.1525 -0.0754
27232SOL    HW193755   3.779   7.454   5.578  1.5495 -1.0296 -0.2614
27232SOL    HW293756   3.747   7.573   5.471 -0.0080 -0.1776  1.1248
27233SOL     OW93757   1.423   2.647   7.879 -0.0766  0.0336  0.3523
27233SOL    HW193758   1.511   2.687   7.852 -0.0031  1.1352  2.0804
27233SOL    HW293759   1.430   2.548   7.880  1.0174  0.1013  0.0183
27234SOL     OW93760   8.561   4.838   8.356  0.1439  0.2299 -0.3865
27234SOL    HW193761   8.464   4.837   8.379 -0.1189 -0.3597 -1.5253
27234SOL    HW293762   8.614   4.807   8.435 -0.6231  0.0476  0.0628
27235SOL     OW93763   4.758   0.385   5.441 -0.3837  0.1523 -0.0186
27235SOL    HW193764   4.672   0.402   5.489  0.5918  0.6065  1.6018
27235SOL    HW293765   4.783   0.466   5.388 -0.6348  0.2422 -0.0008
27236SOL     OW93766   8.218   0.383   1.380  0.4737  0.8686  0.0759
27236SOL    HW193767   8.262   0.302   1.342 -2.1161 -0.9687  0.8672
27236SOL    HW293768   8.150   0.418   1.316  1.4835  2.3717 -0.2063
27237SOL     OW93769   8.240   1.975   3.173  0.3376  0.7289 -0.0265
27237SOL    HW193770   8.198   1.921   3.247 -0.4781  0.0480 -0.9767
27237SOL    HW293771   8.246   1.920   3.091 -0.6704  2.1310 -1.0743
27238SOL     OW93772   7.901   8.802   7.211 -0.2104  0.2241  0.1615
27238SOL    HW193773   7.872   8.771   7.302 -2.4224  3.5644  0.7143
27238SOL    HW293774   7.953   8.887   7.221 -0.0640  0.3512 -1.6739
27239SOL     OW93775   0.520   2.934   5.115 -0.5798 -0.0683 -0.3873
27239SOL    HW193776   0.483   2.884   5.194 -0.1133 -0.0459 -0.1497
27239SOL    HW293777   0.453   3.000   5.083 -0.6988  0.0604  0.1184
27240SOL     OW93778   1.002   9.052   5.072 -0.5686 -0.4908  0.3562
27240SOL    HW193779   1.091   9.066   5.115 -0.0808 -0.1162 -0.7626
27240SOL    HW293780   0.939   9.010   5.138  0.5098 -1.0201  1.0569
27241SOL     OW93781   1.539   7.274   7.901  0.1604  0.7165  0.0594
27241SOL    HW193782   1.466   7.207   7.891 -0.2894  0.8803  2.1220
27241SOL    HW293783   1.510   7.361   7.860 -0.5420  0.6039  0.3139
27242SOL     OW93784   8.938   1.278   7.429  0.0806  0.1895  0.1873
27242SOL    HW193785   8.873   1.328   7.486 -0.2840 -0.2603  0.1655
27242SOL    HW293786   8.973   1.338   7.358  2.0644  1.3773  2.0793
27243SOL     OW93787   7.797   7.558   1.157 -0.2436 -0.0467  0.3066
27243SOL    HW193788   7.725   7.541   1.089  1.7413 -1.8916 -1.3741
27243SOL    HW293789   7.839   7.647   1.139  0.1185 -0.4304 -0.7397
27244SOL     OW93790   4.124   9.432   0.321 -0.2489 -0.3951  0.5591
27244SOL    HW193791   4.163   9.424   0.412  3.2846 -2.4919 -1.0135
27244SOL    HW293792   4.132   9.526   0.289 -0.4270  0.0932  1.9548
27245SOL     OW93793   1.427   7.569  10.073 -0.2234  0.2809 -0.5052
27245SOL    HW193794   1.464   7.545   9.984 -0.9549 -1.2189 -0.4170
27245SOL    HW293795   1.467   7.511  10.144 -0.3832  0.7954  0.0178
27246SOL     OW93796   4.973   8.628   7.980 -0.3405  0.1356 -0.0335
27246SOL    HW193797   4.884   8.626   8.028 -1.6755  0.6584 -2.4229
27246SOL    HW293798   4.958   8.615   7.882  2.2670  0.1273 -0.4542
27247SOL     OW93799   3.230   8.817   3.154  0.0455 -0.7295  0.1328
27247SOL    HW193800   3.314   8.870   3.153 -0.7616  0.6020 -2.0736
27247SOL    HW293801   3.249   8.725   3.118  0.4659 -0.2519 -0.8995
27248SOL     OW93802   2.516   3.672   5.182  0.1856 -0.2347  0.1529
27248SOL    HW193803   2.489   3.732   5.257 -1.2900  1.0297 -1.3327
27248SOL    HW293804   2.612   3.688   5.159  0.5618 -0.4315  1.5771
27249SOL     OW93805   1.952   6.386   8.675 -0.4870  0.3944  0.4766
27249SOL    HW193806   2.021   6.343   8.616  0.3493 -0.2345  1.9055
27249SOL    HW293807   1.862   6.345   8.657 -0.4252  0.8717 -1.0292
27250SOL     OW93808   2.361   8.370   8.819 -0.0036 -0.3100  0.6424
27250SOL    HW193809   2.270   8.332   8.802  0.0735 -0.8348  1.4118
27250SOL    HW293810   2.373   8.386   8.917 -0.4650  2.7424  0.2682
27251SOL     OW93811   0.822   7.066   6.221 -0.4799  0.3608  0.1677
27251SOL    HW193812   0.811   7.072   6.122 -0.8277 -0.5557  0.1546
27251SOL    HW293813   0.917   7.044   6.242 -0.6053 -0.3244  0.0115
27252SOL     OW93814   1.349   4.886   8.002  0.3201  0.3291  0.2245
27252SOL    HW193815   1.262   4.881   7.953  1.3934 -0.5345 -1.6789
27252SOL    HW293816   1.332   4.888   8.100 -1.8709  1.2342 -0.1489
27253SOL     OW93817   2.295   5.824   8.597 -0.0190  0.3818 -0.6157
27253SOL    HW193818   2.203   5.841   8.631  0.2128 -0.0410  0.2449
27253SOL    HW293819   2.310   5.875   8.513 -0.8705  0.8427 -0.4866
27254SOL     OW93820   3.057   1.140   3.712 -0.3300  0.3037  0.2047
27254SOL    HW193821   3.055   1.199   3.793  0.4173  0.5013  0.0801
27254SOL    HW293822   3.100   1.053   3.734 -0.4333  0.2273  0.1078
27255SOL     OW93823   0.494   7.351   4.621 -0.4100  0.2313  0.5156
27255SOL    HW193824   0.505   7.254   4.643 -1.1079 -0.3904 -1.7264
27255SOL    HW293825   0.548   7.373   4.539 -2.0522  1.1984 -0.3196
27256SOL     OW93826   1.700   8.660   1.254  0.3454 -0.0669  0.0206
27256SOL    HW193827   1.723   8.729   1.322  0.9840  0.8386 -1.0901
27256SOL    HW293828   1.742   8.573   1.279 -0.3872 -0.0330  1.3852
27257SOL     OW93829   3.633   6.345   1.821  0.3093 -0.0331 -0.3838
27257SOL    HW193830   3.714   6.316   1.872  0.6484 -0.0467 -0.9274
27257SOL    HW293831   3.628   6.295   1.735  1.1009  1.7520 -1.5004
27258SOL     OW93832   8.725   2.519   5.917 -0.2762 -0.1815  0.3802
27258SOL    HW193833   8.791   2.589   5.941  0.7932 -1.4314  1.1806
27258SOL    HW293834   8.636   2.561   5.898  0.3478  1.3655  0.8599
27259SOL     OW93835   2.466   0.360   2.929  0.1849  0.1929 -0.1822
27259SOL    HW193836   2.475   0.265   2.961 -2.6470 -0.1755 -0.3295
27259SOL    HW293837   2.372   0.376   2.900  0.7651  2.9260 -0.6624
27260SOL     OW93838   0.720   7.001   8.359  0.1785  0.0432  0.1739
27260SOL    HW193839   0.745   6.906   8.376 -0.5081 -0.1049  0.3612
27260SOL    HW293840   0.722   7.052   8.445 -1.4821 -0.2804  0.4065
27261SOL     OW93841   0.933   9.018   4.293  0.2548 -0.2166 -0.0734
27261SOL    HW193842   0.995   9.000   4.217  1.1859 -1.0272  0.8549
27261SOL    HW293843   0.986   9.047   4.373 -0.6553  0.0409  0.4448
27262SOL     OW93844   3.035   1.645   4.339  0.2801  0.0310  0.1368
27262SOL    HW193845   3.075   1.698   4.264 -1.4350  0.6307 -0.3858
27262SOL    HW293846   3.035   1.701   4.422 -0.0475  0.2667 -0.0196
27263SOL     OW93847   8.862   2.299   8.430 -0.1851  0.4625 -0.4451
27263SOL    HW193848   8.961   2.310   8.426  0.2729 -2.8112  0.4463
27263SOL    HW293849   8.822   2.374   8.483  2.1710  0.0515  1.9725
27264SOL     OW93850   9.183   3.953   3.950 -0.2232 -0.1527 -0.2560
27264SOL    HW193851   9.128   4.018   4.004 -0.5837 -0.7762  0.1341
27264SOL    HW293852   9.235   4.003   3.881  0.6718  0.7187  1.0258
27265SOL     OW93853   9.626   3.400   6.255 -0.5433  0.2390 -0.6274
27265SOL    HW193854   9.685   3.456   6.313 -1.4740  1.7906 -1.1558
27265SOL    HW293855   9.630   3.305   6.286  0.9968  0.5959  0.3249
27266SOL     OW93856   4.252   3.050   9.035 -0.3498  0.1871 -0.0761
27266SOL    HW193857   4.199   2.999   9.103  1.7517 -1.3959  0.4107
27266SOL    HW293858   4.341   3.007   9.022  0.4735  2.2425 -1.6042
27267SOL     OW93859   8.639   5.795   7.905 -0.6294 -0.2351  0.1710
27267SOL    HW193860   8.693   5.762   7.983  0.2597  1.6234  0.3825
27267SOL    HW293861   8.690   5.779   7.820 -1.4525 -1.9617 -0.0100
27268SOL     OW93862   0.530   7.000   3.103  0.1999  0.4201 -0.1930
27268SOL    HW193863   0.442   7.017   3.059 -0.0145 -0.2634 -0.0335
27268SOL    HW293864   0.561   7.083   3.149 -0.1329  0.8009 -0.6506
27269SOL     OW93865   8.603   9.667   1.453 -0.1261  0.5552 -0.2105
27269SOL    HW193866   8.702   9.685   1.457 -0.4452  2.1426  1.7982
27269SOL    HW293867   8.572   9.674   1.358  1.8081 -0.7677 -0.9850
27270SOL     OW93868   3.237   2.921   0.925  0.7748  0.7126 -0.8312
27270SOL    HW193869   3.265   3.014   0.902 -1.2660  1.6767  0.4860
27270SOL    HW293870   3.178   2.922   1.005 -0.7145 -1.5344 -1.8294
27271SOL     OW93871   2.962   3.027   3.122  0.0594 -0.1692 -0.2287
27271SOL    HW193872   3.007   3.105   3.165  0.8889 -0.6104 -0.2908
27271SOL    HW293873   3.006   3.007   3.035 -0.8717 -0.0079 -0.7449
27272SOL     OW93874   1.042   3.143   7.859  0.5539  0.1820  0.3770
27272SOL    HW193875   1.071   3.217   7.919  1.0590  2.0030 -2.0436
27272SOL    HW293876   1.084   3.057   7.889  1.4501  1.2100  2.1005
27273SOL     OW93877   8.732   7.848   1.890  0.6750  0.2658 -0.0158
27273SOL    HW193878   8.781   7.827   1.975  1.1654  1.2358 -0.0473
27273SOL    HW293879   8.708   7.763   1.843 -0.6050 -0.3355  1.6548
27274SOL     OW93880   8.640   8.591   9.482 -0.2161  0.1209  0.1442
27274SOL    HW193881   8.554   8.592   9.431 -0.2224 -1.0643  0.1133
27274SOL    HW293882   8.716   8.577   9.419 -0.2533 -1.7093  0.4788
27275SOL     OW93883   2.337   8.623   9.702  0.2137  0.0782  0.5593
27275SOL    HW193884   2.243   8.612   9.670 -0.1641  1.6677  1.0481
27275SOL    HW293885   2.372   8.535   9.734 -0.2954 -0.9964 -1.7394
27276SOL     OW93886   3.899   0.701   3.374 -0.6725  0.4489 -0.4887
27276SOL    HW193887   3.813   0.723   3.327 -1.1088  0.7030  0.4220
27276SOL    HW293888   3.952   0.784   3.387 -0.8732  0.4915  0.0883
27277SOL     OW93889   4.431   0.993   9.598  0.0297 -0.2730  0.3946
27277SOL    HW193890   4.349   1.049   9.590  0.5251  0.2370 -1.2754
27277SOL    HW293891   4.404   0.896   9.602 -0.6536 -0.0985  0.1418
27278SOL     OW93892   0.525   2.947   2.079  0.2213 -0.2427  0.3300
27278SOL    HW193893   0.589   2.952   2.002 -1.3807  0.0083 -0.9949
27278SOL    HW293894   0.531   3.031   2.132  1.6134 -0.5752  0.7194
27279SOL     OW93895   5.801   5.796   8.973 -0.2494 -0.1505 -0.3910
27279SOL    HW193896   5.802   5.861   9.049 -1.1196 -0.6836  0.0870
27279SOL    HW293897   5.871   5.726   8.988 -0.3016 -0.1551 -0.1647
27280SOL     OW93898   2.624   8.495   4.277  0.1080  0.5550 -0.4377
27280SOL    HW193899   2.576   8.458   4.356 -1.7690  0.4834 -1.5942
27280SOL    HW293900   2.682   8.571   4.306  1.0909 -0.8292  1.3398
27281SOL     OW93901   3.151   9.628   7.577  0.2413 -0.0298 -0.0706
27281SOL    HW193902   3.197   9.716   7.565  2.0747 -0.5536  2.4987
27281SOL    HW293903   3.062   9.643   7.620  1.0175  0.5328  1.3864
27282SOL     OW93904   9.894   7.865   3.091  0.7788  0.1380 -0.4488
27282SOL    HW193905   9.942   7.951   3.110 -0.8360  1.1779 -0.9440
27282SOL    HW293906   9.934   7.820   3.012  1.3531  0.6608 -0.4565
27283SOL     OW93907   5.801   7.421   3.074 -0.0000  0.2970 -0.3502
27283SOL    HW193908   5.830   7.370   3.155  0.8721 -0.9315 -1.4189
27283SOL    HW293909   5.878   7.476   3.041  0.8673 -2.1494 -2.5702
27284SOL     OW93910   8.724   0.385   6.697  0.0397 -0.5205 -0.3649
27284SOL    HW193911   8.799   0.415   6.639  0.6582 -1.8391 -0.2728
27284SOL    HW293912   8.710   0.287   6.685 -1.5553 -0.3266 -0.2475
27285SOL     OW93913   2.107   2.949   9.259  0.1077 -0.0412 -0.0559
27285SOL    HW193914   2.104   2.976   9.355  0.9974 -0.6249  0.1453
27285SOL    HW293915   2.193   2.980   9.217 -1.3963  2.4992 -1.3788
27286SOL     OW93916   6.151   5.255   8.887  0.0587  0.1435 -0.3158
27286SOL    HW193917   6.085   5.273   8.960 -0.0406  0.7468 -0.5548
27286SOL    HW293918   6.141   5.324   8.815  0.9730  0.2582 -0.3330
27287SOL     OW93919   3.472   6.839   7.470  0.4126 -0.5800 -0.2698
27287SOL    HW193920   3.463   6.888   7.556  0.6208 -0.7255 -0.1649
27287SOL    HW293921   3.412   6.880   7.402 -0.3588 -0.9689  0.1705
27288SOL     OW93922   3.172   6.859   3.433 -0.3382 -0.6494  0.1806
27288SOL    HW193923   3.164   6.765   3.399  0.2614 -0.0147 -1.7900
27288SOL    HW293924   3.197   6.920   3.357  0.2694  0.9461  1.6270
27289SOL     OW93925   7.874   7.766   2.857  0.1806  0.2805 -0.6819
27289SOL    HW193926   7.936   7.775   2.935 -2.2403 -0.8907  1.4692
27289SOL    HW293927   7.844   7.858   2.829 -0.3787  0.6487  1.0224
27290SOL     OW93928   4.989   6.141   2.957 -0.2726  0.0132  0.6084
27290SOL    HW193929   4.906   6.160   3.009 -0.3150 -2.0095  1.3160
27290SOL    HW293930   4.993   6.201   2.878 -3.4558 -1.2435 -0.5794
27291SOL     OW93931   8.101   5.576   7.735 -1.0302  0.5866  0.2428
27291SOL    HW193932   8.119   5.559   7.638 -2.4430  1.2182 -0.1516
27291SOL    HW293933   8.115   5.492   7.787  1.5891  0.7140 -0.2184
27292SOL     OW93934   9.607   8.611   4.135 -0.2881 -0.8079  0.2643
27292SOL    HW193935   9.581   8.680   4.203 -1.9178 -0.4704 -0.7013
27292SOL    HW293936   9.562   8.630   4.048 -0.8212 -3.1251 -0.0078
27293SOL     OW93937   2.568   3.488   7.637 -0.0725  0.3225  0.4287
27293SOL    HW193938   2.509   3.450   7.566 -1.0884  0.6323  1.0877
27293SOL    HW293939   2.512   3.543   7.700  0.9155  0.5740  1.0915
27294SOL     OW93940   7.112   3.389   0.454  0.4019  0.2436  0.2404
27294SOL    HW193941   7.099   3.463   0.520  1.5265  0.6778 -0.0207
27294SOL    HW293942   7.199   3.343   0.471  0.5579  0.1523 -0.7491
27295SOL     OW93943   4.787   8.740   2.865  0.3282 -0.5192 -0.0530
27295SOL    HW193944   4.838   8.712   2.946 -2.9031  2.0107  2.9945
27295SOL    HW293945   4.829   8.821   2.825  0.7011 -0.5082  0.3639
27296SOL     OW93946   1.483   3.933   2.971  0.4647 -0.5157 -0.4475
27296SOL    HW193947   1.483   3.833   2.979 -0.2150 -0.4596  0.3334
27296SOL    HW293948   1.412   3.962   2.907  0.2522 -0.5023 -0.2072
27297SOL     OW93949   4.595   0.326   3.109  0.6742  0.1593 -0.0442
27297SOL    HW193950   4.583   0.382   3.027  0.4827  0.1866  0.0031
27297SOL    HW293951   4.556   0.373   3.188  1.8471  0.6352  0.2642
27298SOL     OW93952   9.425   3.352   5.969  0.6031  0.6158  0.5008
27298SOL    HW193953   9.471   3.391   5.890  1.4449 -0.7930  0.2913
27298SOL    HW293954   9.476   3.273   6.002 -1.7251 -1.0474  0.1965
27299SOL     OW93955   0.251   1.153   6.279  0.2458 -0.0081 -0.0448
27299SOL    HW193956   0.249   1.175   6.181  0.9421  2.0984  0.3821
27299SOL    HW293957   0.345   1.142   6.309  0.0470 -0.3323  0.4672
27300SOL     OW93958   1.988   0.892   2.068  0.4201  0.0764  0.3066
27300SOL    HW193959   1.915   0.853   2.123 -0.6221  1.3952 -0.1029
27300SOL    HW293960   1.998   0.840   1.983 -0.7805  0.5333 -0.1241
27301SOL     OW93961   3.361   2.537   2.457  0.5695  0.0190 -0.1779
27301SOL    HW193962   3.267   2.527   2.425  0.5223  1.6093 -0.5943
27301SOL    HW293963   3.376   2.632   2.484  1.3768 -0.7170  2.0637
27302SOL     OW93964   0.325   9.950   4.530  0.0733 -0.0819 -0.6174
27302SOL    HW193965   0.354  10.001   4.450 -0.6516  0.2566 -0.6719
27302SOL    HW293966   0.229   9.971   4.550  0.1087 -0.5289  0.0502
27303SOL     OW93967   2.926   3.327   2.940  0.1034 -0.3854  0.1270
27303SOL    HW193968   2.944   3.235   2.974  0.2194 -0.3785  0.0818
27303SOL    HW293969   2.994   3.391   2.976 -0.2392 -0.2362  0.5200
27304SOL     OW93970   0.200   7.653   0.599  0.5554  0.0119  0.3822
27304SOL    HW193971   0.228   7.746   0.619  0.5891 -0.3065  1.9032
27304SOL    HW293972   0.146   7.617   0.675 -0.6966 -0.7177 -0.8104
27305SOL     OW93973   8.371   7.963   3.938 -0.1524  0.0461 -0.4796
27305SOL    HW193974   8.351   8.023   3.860  0.1024  0.8584  0.0713
27305SOL    HW293975   8.327   7.999   4.020  0.2122 -0.3886 -0.0884
27306SOL     OW93976   9.896   5.314   9.138  0.0539 -0.1412  0.2018
27306SOL    HW193977   9.880   5.228   9.089 -1.0157  0.0130  0.2658
27306SOL    HW293978   9.933   5.382   9.076  2.7037 -1.1894  0.5587
27307SOL     OW93979   8.367   9.372   6.629 -0.7977 -0.1602  0.1073
27307SOL    HW193980   8.375   9.309   6.706  0.6930 -0.0409  0.0637
27307SOL    HW293981   8.391   9.465   6.660 -0.7458 -0.0141 -0.3745
27308SOL     OW93982   2.218   7.094   5.564  0.0365 -0.4248  0.1197
27308SOL    HW193983   2.188   7.074   5.471  1.1413  0.2394 -0.3925
27308SOL    HW293984   2.236   7.192   5.573 -1.0244 -0.3271  1.3266
27309SOL     OW93985   2.855   5.997   6.225 -0.4567  0.0782 -0.6371
27309SOL    HW193986   2.934   5.988   6.164 -0.5560 -0.0621 -0.7436
27309SOL    HW293987   2.850   6.091   6.258 -0.7328  0.2917 -1.2830
27310SOL     OW93988   0.820   8.862   1.315  0.0287  0.0691  0.6094
27310SOL    HW193989   0.762   8.823   1.244 -1.3633 -0.6628  2.1292
27310SOL    HW293990   0.837   8.793   1.386  1.9365  0.5852  0.6804
27311SOL     OW93991   3.184   1.289   9.656 -0.1580  0.0874  0.5572
27311SOL    HW193992   3.103   1.274   9.714 -0.5045  0.3465  0.1381
27311SOL    HW293993   3.235   1.368   9.690 -1.2555  1.2600 -0.4663
27312SOL     OW93994   4.386   2.530   0.378 -0.3572 -0.3584 -0.8470
27312SOL    HW193995   4.401   2.433   0.363  0.4145 -0.2275 -0.9632
27312SOL    HW293996   4.325   2.566   0.307 -0.5396 -0.7325 -0.8771
27313SOL     OW93997   9.364   1.904   1.741  0.0121  0.3380 -0.4037
27313SOL    HW193998   9.434   1.854   1.793 -0.7166  0.3703  0.6269
27313SOL    HW293999   9.274   1.889   1.784 -0.4164  1.3745 -0.9372
27314SOL     OW94000   0.461   0.917   0.773  0.4208 -0.0210 -0.1105
27314SOL    HW194001   0.371   0.880   0.751 -0.0837  0.1626  1.5742
27314SOL    HW294002   0.459   0.959   0.864  2.5617 -1.1635  0.4979
27315SOL     OW94003   3.277   3.933   1.497  0.0110  0.0649  0.3714
27315SOL    HW194004   3.184   3.959   1.525  0.0123  2.0636 -1.3720
27315SOL    HW294005   3.280   3.925   1.398  1.3276 -1.6281  0.5313
27316SOL     OW94006   9.290   4.951   4.681 -0.3659  0.0438 -0.3381
27316SOL    HW194007   9.208   4.897   4.701  0.2150 -1.8510 -2.7130
27316SOL    HW294008   9.371   4.898   4.706  0.1706  0.9134 -0.2344
27317SOL     OW94009   8.235   1.193   5.378  0.3887  0.3763 -0.1722
27317SOL    HW194010   8.160   1.145   5.332 -1.1400 -0.1235  2.7257
27317SOL    HW294011   8.200   1.277   5.419  1.0676 -0.5519  2.3882
27318SOL     OW94012   1.311   2.613   4.764  0.4154  0.0456  0.0200
27318SOL    HW194013   1.283   2.576   4.676  0.2298  0.6259 -0.1711
27318SOL    HW294014   1.248   2.686   4.791  1.6380  1.2538 -0.3331
27319SOL     OW94015   9.258   1.127   7.981  0.4452 -0.0465 -0.1381
27319SOL    HW194016   9.281   1.035   7.949  0.2713 -0.7030  1.5985
27319SOL    HW294017   9.270   1.192   7.906  2.4001 -1.2053 -0.8677
27320SOL     OW94018   6.050   2.558   1.782  0.4100  0.3954  0.1429
27320SOL    HW194019   6.049   2.458   1.774  1.5236  0.3141  0.9426
27320SOL    HW294020   6.134   2.593   1.739 -0.6219  1.1029 -1.3387
27321SOL     OW94021   0.595   5.862   5.933 -0.1868  0.3977 -0.1534
27321SOL    HW194022   0.663   5.833   5.866  2.6217 -0.5238  2.9602
27321SOL    HW294023   0.587   5.961   5.933  1.5149  0.5438 -0.2413
27322SOL     OW94024   2.603   1.341   2.284 -0.5437 -0.2959 -0.2600
27322SOL    HW194025   2.672   1.412   2.294 -0.3803  0.0702 -3.4102
27322SOL    HW294026   2.589   1.295   2.371  1.3919  1.7138  1.1533
27323SOL     OW94027   5.802   8.309   2.495  0.1273 -0.0206  0.2721
27323SOL    HW194028   5.775   8.337   2.403  0.3801 -2.2204 -0.5100
27323SOL    HW294029   5.782   8.382   2.560  2.0418  2.4551 -1.8474
27324SOL     OW94030   1.407   3.744   0.470 -0.7992 -0.4977 -0.1658
27324SOL    HW194031   1.377   3.795   0.389 -1.1884 -0.8120 -0.2218
27324SOL    HW294032   1.349   3.664   0.482 -1.5175  0.2012  1.1143
27325SOL     OW94033   7.490   4.269   1.306 -0.1474 -0.5566 -0.8050
27325SOL    HW194034   7.438   4.335   1.251 -2.1297 -0.6763  0.8434
27325SOL    HW294035   7.448   4.178   1.297 -0.1783 -0.6792  0.4487
27326SOL     OW94036   5.354   6.540   2.419  0.2548 -0.1883 -0.0556
27326SOL    HW194037   5.420   6.583   2.480  0.3007 -0.9803  0.4484
27326SOL    HW294038   5.332   6.448   2.451  0.3758 -0.6662 -1.3047
27327SOL     OW94039   9.722   4.313   6.438 -0.0266 -0.5693  0.1939
27327SOL    HW194040   9.727   4.370   6.356  0.2739 -0.6552  0.1519
27327SOL    HW294041   9.795   4.339   6.502  1.2577 -2.1276 -0.6087
27328SOL     OW94042   5.258   2.010   0.566 -0.0721  0.2954  0.1112
27328SOL    HW194043   5.305   2.066   0.497  0.5255  0.5460  0.7194
27328SOL    HW294044   5.313   2.006   0.649  0.4061 -2.0560 -0.2785
27329SOL     OW94045   5.482   2.458   1.302 -0.3064  0.0360  0.1240
27329SOL    HW194046   5.463   2.460   1.204 -1.3886 -0.2689  0.3168
27329SOL    HW294047   5.452   2.544   1.344  0.3714  0.2612  0.1509
27330SOL     OW94048   9.171   9.875   1.682 -0.0759  0.0395 -0.5430
27330SOL    HW194049   9.207   9.922   1.601 -0.8560  2.2338  0.3467
27330SOL    HW294050   9.176   9.776   1.667  3.9237  0.2803 -1.4591
27331SOL     OW94051   3.999   9.829   8.588  0.2489  0.2605  0.2602
27331SOL    HW194052   3.936   9.898   8.551  0.8976  0.5676 -0.2646
27331SOL    HW294053   4.088   9.871   8.607  0.7996 -0.5442 -0.5323
27332SOL     OW94054   0.354   4.365   0.826 -0.5210  0.4493 -0.3996
27332SOL    HW194055   0.336   4.344   0.922  0.1049  1.0669 -0.1457
27332SOL    HW294056   0.407   4.291   0.785  0.8854  1.0700  0.2478
27333SOL     OW94057   0.377   5.711   8.294 -0.4083 -0.0938  0.5110
27333SOL    HW194058   0.436   5.775   8.344  0.4553  0.5264 -1.2714
27333SOL    HW294059   0.378   5.733   8.197 -1.3876 -1.8231  0.0869
27334SOL     OW94060   9.890   1.972   3.069 -0.1235 -0.3570 -0.0986
27334SOL    HW194061   9.883   1.944   3.165 -0.5099 -0.5481 -0.1801
27334SOL    HW294062   9.802   1.958   3.024 -0.9997  3.0521  0.4114
27335SOL     OW94063   5.561   3.427   1.235  0.5103  0.0135  0.2033
27335SOL    HW194064   5.500   3.354   1.265  1.2062 -0.7920 -0.3229
27335SOL    HW294065   5.577   3.419   1.136  2.3335 -0.4474  0.5209
27336SOL     OW94066   8.474   6.924   7.292 -0.1149  0.3899  0.0372
27336SOL    HW194067   8.544   6.870   7.246  0.1296  0.6284  0.1258
27336SOL    HW294068   8.506   7.018   7.303 -1.5003  1.1929 -2.3192
27337SOL     OW94069   7.803   1.596   0.661  0.5544  0.4425 -0.7419
27337SOL    HW194070   7.860   1.640   0.731  0.3967 -1.1751  0.4081
27337SOL    HW294071   7.769   1.509   0.695 -0.6771  0.2867 -2.3234
27338SOL     OW94072   3.675   8.102   6.463  0.4137  0.5830  0.5397
27338SOL    HW194073   3.634   8.085   6.553  1.8406 -1.4182  0.8351
27338SOL    HW294074   3.712   8.017   6.427 -1.2618  1.0937 -2.5500
27339SOL     OW94075   7.766   5.492   3.574  0.3104  0.1908  0.0729
27339SOL    HW194076   7.783   5.559   3.501  1.8011 -1.3015 -1.0119
27339SOL    HW294077   7.848   5.435   3.585 -1.1727 -1.8956  0.4889
27340SOL     OW94078   0.340   5.584   0.282  0.1182 -0.6082 -0.2603
27340SOL    HW194079   0.287   5.636   0.215  0.4142 -0.8129 -0.6525
27340SOL    HW294080   0.319   5.617   0.374  1.2060  1.0290 -0.5846
27341SOL     OW94081   4.293   5.763   0.638  0.4078 -0.3151  0.1732
27341SOL    HW194082   4.368   5.799   0.582  0.5316 -2.4226 -1.0686
27341SOL    HW294083   4.244   5.839   0.680  1.3166  1.2488 -1.4950
27342SOL     OW94084   6.276   8.818   3.480  0.8333  0.1052  0.2926
27342SOL    HW194085   6.345   8.887   3.459  0.7415  0.3466  0.7831
27342SOL    HW294086   6.225   8.845   3.561 -0.8474  0.6912 -0.9177
27343SOL     OW94087   9.799   1.173   2.020  0.3844  0.0379 -0.1509
27343SOL    HW194088   9.734   1.142   2.090 -0.1429  0.2581 -0.5424
27343SOL    HW294089   9.859   1.243   2.059 -1.2569  1.6711 -0.4916
27344SOL     OW94090   8.606   8.221   1.947  0.2913  0.3436 -0.9040
27344SOL    HW194091   8.624   8.316   1.972 -0.2733  0.3587 -0.5514
27344SOL    HW294092   8.637   8.205   1.853 -1.4999  1.4370 -1.7029
27345SOL     OW94093   0.041   4.605   1.477  0.0479 -0.4249  0.5533
27345SOL    HW194094   0.021   4.563   1.389 -2.1576  0.3124  0.6793
27345SOL    HW294095   0.121   4.666   1.467  0.5776 -1.2891 -0.6251
27346SOL     OW94096   2.661   6.549   4.812 -0.6865  0.2577 -0.0674
27346SOL    HW194097   2.600   6.470   4.812 -0.2002 -0.1574  2.0126
27346SOL    HW294098   2.752   6.521   4.782 -0.8105  0.2783 -0.4623
27347SOL     OW94099   8.595   8.182   5.738  0.5660 -0.3401 -0.5976
27347SOL    HW194100   8.674   8.123   5.754 -1.5937 -3.1961 -0.0592
27347SOL    HW294101   8.558   8.162   5.647  0.0433  0.4693 -0.5553
27348SOL     OW94102   2.704   7.755   7.834 -0.5041  0.1891  0.7745
27348SOL    HW194103   2.661   7.669   7.808  0.3614 -0.1992  0.6051
27348SOL    HW294104   2.724   7.809   7.752 -0.4652  0.2614  0.8312
27349SOL     OW94105   3.758   3.537   8.561  0.7452  0.6610 -0.1794
27349SOL    HW194106   3.828   3.470   8.583 -1.6358 -1.7052  0.4930
27349SOL    HW294107   3.706   3.560   8.643 -1.5406 -0.3565 -1.2777
27350SOL     OW94108   3.811   5.852   4.237 -0.6436  0.7027 -0.2249
27350SOL    HW194109   3.724   5.802   4.232 -0.6763  0.5571  1.4631
27350SOL    HW294110   3.805   5.935   4.181 -2.0483  0.9613  0.2900
27351SOL     OW94111   9.086   8.529   6.033  0.6685 -0.4351  0.2846
27351SOL    HW194112   9.084   8.546   5.935  1.5467 -2.5841 -0.1245
27351SOL    HW294113   9.157   8.585   6.075 -1.1949  2.2015  0.0878
27352SOL     OW94114   9.857   4.414   6.113 -0.0952 -0.1868  0.3546
27352SOL    HW194115   9.821   4.482   6.176 -1.5346 -2.0974  1.6689
27352SOL    HW294116   9.927   4.455   6.055 -1.9060  2.7126  0.1627
27353SOL     OW94117   5.591   9.114   5.712 -0.7573 -0.4368 -0.6694
27353SOL    HW194118   5.523   9.098   5.640 -0.1152 -1.4423 -1.0632
27353SOL    HW294119   5.674   9.151   5.671 -1.0860  0.8781 -0.1736
27354SOL     OW94120   3.254   0.096   1.727  0.0080 -0.4638 -0.5440
27354SOL    HW194121   3.271   0.057   1.818 -2.5558 -1.4343 -0.4347
27354SOL    HW294122   3.283   0.191   1.726  1.3170 -0.8152  0.8739
27355SOL     OW94123   8.571   2.880   1.514 -0.0112 -0.3101  0.3245
27355SOL    HW194124   8.600   2.973   1.537 -1.4254  0.3143 -0.3771
27355SOL    HW294125   8.510   2.845   1.585 -1.1180  0.0806 -0.4198
27356SOL     OW94126   3.002   5.914   9.920  0.3263  0.0796  0.0515
27356SOL    HW194127   3.016   5.911   9.821 -0.3934 -0.2336 -0.0425
27356SOL    HW294128   2.934   5.984   9.942 -0.1642 -0.4538  0.2484
27357SOL     OW94129   3.597   3.221   0.113 -0.4881 -0.4082 -0.6043
27357SOL    HW194130   3.656   3.233   0.192 -1.0645  2.2128 -0.5045
27357SOL    HW294131   3.628   3.143   0.059  2.1832  0.0448  0.2043
27358SOL     OW94132   7.166   4.854  10.031  0.2858  0.4109 -0.4906
27358SOL    HW194133   7.173   4.757  10.053 -1.1302  0.4541  0.2033
27358SOL    HW294134   7.091   4.895  10.084  1.4338  2.0757 -0.1108
27359SOL     OW94135   7.823   3.152   5.239  0.3813  0.1513 -0.0786
27359SOL    HW194136   7.773   3.118   5.318  0.2851 -0.2120 -0.2932
27359SOL    HW294137   7.920   3.162   5.262  0.3402  0.1178  0.1074
27360SOL     OW94138   8.867   2.049   9.662 -0.7517  0.0066  0.5863
27360SOL    HW194139   8.861   2.148   9.648 -2.3993  0.1766  2.2358
27360SOL    HW294140   8.780   2.007   9.638 -0.1343 -1.0228  0.1236
27361SOL     OW94141   9.974   0.277   1.036  0.7566 -0.0268 -0.1955
27361SOL    HW194142   9.886   0.306   0.999  0.6177 -2.0391 -1.5673
27361SOL    HW294143  10.043   0.276   0.963  1.2232 -1.0886  0.2359
27362SOL     OW94144   1.334   1.161   4.470  0.2030 -0.3576 -0.5630
27362SOL    HW194145   1.407   1.095   4.488  0.6677 -0.0516 -1.3351
27362SOL    HW294146   1.339   1.192   4.376 -0.2220  0.5428 -0.2929
27363SOL     OW94147   3.907   8.038   7.616  0.1527 -0.1066  0.1961
27363SOL    HW194148   3.965   7.973   7.568 -0.5216 -1.7075  1.5071
27363SOL    HW294149   3.960   8.119   7.641  1.4397 -0.9165  0.0910
27364SOL     OW94150   8.845   2.834   0.565 -0.0765  0.0596 -0.1887
27364SOL    HW194151   8.904   2.902   0.524  1.2315 -0.8494  0.1566
27364SOL    HW294152   8.900   2.769   0.618 -1.2847 -1.2708 -0.5310
27365SOL     OW94153   2.982   1.172   0.282  0.2322 -0.1459  0.1886
27365SOL    HW194154   2.940   1.087   0.315 -0.4693  0.3559  0.5978
27365SOL    HW294155   3.012   1.159   0.187  0.3890 -0.9380  0.3421
27366SOL     OW94156   9.367   7.245   8.847 -0.0554 -0.9668 -0.4287
27366SOL    HW194157   9.374   7.262   8.945  1.6645  1.1313 -0.8618
27366SOL    HW294158   9.273   7.261   8.817 -0.1826  0.2180  0.5698
27367SOL     OW94159   9.681   1.302   0.797 -0.6967 -0.3961 -0.7817
27367SOL    HW194160   9.759   1.365   0.795  1.6477 -3.1005  0.7653
27367SOL    HW294161   9.609   1.341   0.853  0.8248  0.7994  0.4030
27368SOL     OW94162   9.293   6.395   1.222 -0.1547 -0.5368  0.1939
27368SOL    HW194163   9.337   6.392   1.133  0.0385  0.4663  0.2544
27368SOL    HW294164   9.253   6.486   1.237 -1.7601 -1.2473  0.3669
27369SOL     OW94165   9.936   3.868   9.161 -0.3466 -0.2748  0.4169
27369SOL    HW194166   9.905   3.922   9.082  2.1041 -1.3049 -1.3530
27369SOL    HW294167  10.020   3.819   9.136  1.6869  1.0076  4.3596
27370SOL     OW94168   1.789   6.468   1.160 -0.1353  0.2237  0.0022
27370SOL    HW194169   1.721   6.494   1.228 -0.2738  0.8385 -0.3662
27370SOL    HW294170   1.848   6.397   1.198 -1.0681 -0.4170  0.2669
27371SOL     OW94171   9.330   7.978   0.323  0.6248 -0.2761  0.6503
27371SOL    HW194172   9.307   7.919   0.245  0.7730  0.1756  0.2647
27371SOL    HW294173   9.251   7.983   0.385 -0.3793  1.3006 -0.6924
27372SOL     OW94174   6.372   0.780   1.597  0.1016 -0.0947 -0.1609
27372SOL    HW194175   6.362   0.856   1.532 -1.4707  1.1408  1.4617
27372SOL    HW294176   6.292   0.720   1.590  0.6206 -0.7682 -0.3657
27373SOL     OW94177   9.162   3.912   3.203  0.0238  0.5492 -0.5004
27373SOL    HW194178   9.174   3.959   3.290 -1.0914 -2.5632  1.4227
27373SOL    HW294179   9.065   3.913   3.178  0.2076  0.5979 -1.2243
27374SOL     OW94180   4.995   2.989   6.968  0.1652 -0.8592  0.4059
27374SOL    HW194181   4.978   2.892   6.958  0.9761 -0.8543 -1.0941
27374SOL    HW294182   5.004   3.032   6.878  0.1577  0.5424  1.0476
27375SOL     OW94183   0.534   3.352   0.312 -0.5397 -0.5153  0.7068
27375SOL    HW194184   0.608   3.338   0.377 -0.7375 -3.1467  0.4049
27375SOL    HW294185   0.451   3.308   0.345 -1.0608 -0.5164 -0.5671
27376SOL     OW94186   3.693   5.354   3.851 -0.5462  0.2347 -0.6416
27376SOL    HW194187   3.757   5.392   3.784 -0.6958  0.5301 -0.6199
27376SOL    HW294188   3.630   5.292   3.805  0.2505 -0.6733 -0.5283
27377SOL     OW94189   6.232   4.113   0.656  0.2820 -0.0514 -0.2438
27377SOL    HW194190   6.277   4.078   0.738 -0.8071  0.5132  0.6141
27377SOL    HW294191   6.138   4.080   0.653  0.1067  0.4991 -0.9073
27378SOL     OW94192   2.934   5.142   3.349  0.1705 -0.1487  0.3174
27378SOL    HW194193   2.897   5.180   3.264  0.2594 -0.9945 -0.1007
27378SOL    HW294194   2.870   5.076   3.387  0.7350 -0.7611  0.2053
27379SOL     OW94195   2.128   7.026   8.112  0.1928  0.0828 -0.3510
27379SOL    HW194196   2.089   7.031   8.020  0.8926 -2.4449 -0.8086
27379SOL    HW294197   2.060   7.057   8.178 -1.2446 -0.5863 -1.4852
27380SOL     OW94198   8.552   7.178   1.076 -0.2703  0.2555 -0.1657
27380SOL    HW194199   8.622   7.249   1.090 -1.8192  1.1843  3.4299
27380SOL    HW294200   8.597   7.089   1.070  1.3673  1.0147  0.3266
27381SOL     OW94201   3.178   7.628   1.793 -0.0970 -0.0238 -0.2049
27381SOL    HW194202   3.192   7.655   1.888 -3.5097 -0.3564  0.4604
27381SOL    HW294203   3.104   7.682   1.753  0.4754 -0.7295 -2.3112
27382SOL     OW94204   6.623   0.073   2.820  0.2998  0.0523 -0.1966
27382SOL    HW194205   6.626  -0.001   2.753 -1.8384 -1.2984  1.1254
27382SOL    HW294206   6.587   0.156   2.777 -0.5114 -0.6407 -0.8812
27383SOL     OW94207   9.525   8.645   4.854  0.4406 -0.4327  0.1973
27383SOL    HW194208   9.439   8.664   4.806  1.7539  1.9579 -1.2962
27383SOL    HW294209   9.596   8.623   4.787  1.7605  0.7706  1.1781
27384SOL     OW94210   1.067   8.721   7.511  0.3333  0.2710 -0.1891
27384SOL    HW194211   1.128   8.773   7.452 -0.6826 -0.3268 -1.8256
27384SOL    HW294212   1.003   8.782   7.556  1.6540  0.8226  0.9675
27385SOL     OW94213   4.039   3.754   8.363 -0.4624  0.3847 -0.1193
27385SOL    HW194214   3.970   3.683   8.376 -1.3562  1.2726  0.0673
27385SOL    HW294215   4.088   3.738   8.277  1.2914 -2.0568  1.2810
27386SOL     OW94216   9.411   0.631   2.223 -0.6074  0.1791  0.3182
27386SOL    HW194217   9.398   0.535   2.249 -0.9150  0.1613  0.1083
27386SOL    HW294218   9.414   0.638   2.123 -1.1713  0.4601  0.3179
27387SOL     OW94219   7.307   1.220   9.273 -0.0431  0.6024  0.3522
27387SOL    HW194220   7.380   1.282   9.301  1.7148 -1.2969  0.0392
27387SOL    HW294221   7.289   1.231   9.176  0.9677 -0.0954  0.0852
27388SOL     OW94222   9.912   1.141   9.661 -0.3990  0.5518 -0.3423
27388SOL    HW194223   9.852   1.175   9.733 -0.3232  1.8445 -0.8821
27388SOL    HW294224   9.881   1.050   9.631  0.1866 -0.4534  2.0173
27389SOL     OW94225   6.946   2.481   4.859 -0.3882 -0.0001  0.7135
27389SOL    HW194226   7.032   2.446   4.896 -0.1292  0.2576  0.3602
27389SOL    HW294227   6.935   2.576   4.886 -1.7957 -0.7514  2.8995
27390SOL     OW94228   7.963   2.362   5.142  0.5038 -0.1128 -0.0582
27390SOL    HW194229   8.021   2.281   5.149  0.7757  0.1438  0.7076
27390SOL    HW294230   8.019   2.441   5.118  0.1031 -0.3187 -1.7194
27391SOL     OW94231   0.598   8.736   7.379 -0.7121  0.5652 -0.1838
27391SOL    HW194232   0.503   8.712   7.358 -0.8136  1.0388 -0.2838
27391SOL    HW294233   0.643   8.769   7.296 -0.9490  1.9141  0.2086
27392SOL     OW94234   3.733   4.077   3.722 -0.3391  0.3759  0.5532
27392SOL    HW194235   3.667   4.151   3.713 -2.1227 -1.0858  1.2456
27392SOL    HW294236   3.699   4.010   3.789  1.1737 -1.1050 -0.1188
27393SOL     OW94237   9.283   8.949   4.592  0.5922 -0.0788  0.0364
27393SOL    HW194238   9.308   8.944   4.496 -1.7488 -0.1782 -0.6043
27393SOL    HW294239   9.187   8.978   4.600  0.6605 -0.3899  2.3065
27394SOL     OW94240   0.900   5.451   0.049 -0.4522 -0.1056 -0.2803
27394SOL    HW194241   1.000   5.451   0.052 -0.3917  3.3558 -0.2961
27394SOL    HW294242   0.864   5.438   0.142  0.0335  0.5492 -0.0005
27395SOL     OW94243   6.914   6.948   3.713  0.1886  0.3601  0.0797
27395SOL    HW194244   6.872   7.002   3.640  0.3421  2.6127  1.5854
27395SOL    HW294245   6.976   7.007   3.766  3.2854 -2.2234 -0.5069
27396SOL     OW94246   3.820   2.953   9.678  0.0156 -0.2805  0.6382
27396SOL    HW194247   3.824   2.877   9.743 -0.3393  0.4951  1.5632
27396SOL    HW294248   3.830   3.040   9.726 -0.5853  0.3204 -0.2936
27397SOL     OW94249   9.872   7.074   2.027 -0.3381 -0.5495 -0.4630
27397SOL    HW194250   9.882   7.114   2.118 -0.7645 -2.5149  0.4785
27397SOL    HW294251   9.955   7.091   1.974 -0.0350  0.5119  0.3256
27398SOL     OW94252   0.457   6.580   9.584 -0.2847 -0.0798  0.0216
27398SOL    HW194253   0.455   6.509   9.514 -0.3552 -0.5669  0.5130
27398SOL    HW294254   0.473   6.669   9.541 -0.3493 -0.3727 -0.6123
27399SOL     OW94255   3.483   1.344   3.544 -0.5322 -0.6505  0.0799
27399SOL    HW194256   3.422   1.375   3.617 -0.4378 -0.5877  0.1316
27399SOL    HW294257   3.431   1.330   3.460 -0.7563 -1.3277  0.3284
27400SOL     OW94258   9.659   2.625   5.565  0.2141 -0.4826  0.2306
27400SOL    HW194259   9.657   2.584   5.655 -0.1628  0.4300  0.6483
27400SOL    HW294260   9.565   2.644   5.534  0.4036  0.8646  0.4333
27401SOL     OW94261   2.904   6.332   5.473 -0.1170  0.0650  0.2752
27401SOL    HW194262   2.978   6.390   5.438  0.8632  0.7556  3.2848
27401SOL    HW294263   2.940   6.243   5.499 -0.8599 -0.5188 -0.6783
27402SOL     OW94264   3.364   2.115   6.941 -0.4650 -0.7424  0.4008
27402SOL    HW194265   3.316   2.140   7.025 -0.1010 -1.5729  0.8540
27402SOL    HW294266   3.325   2.030   6.904 -1.6812  0.4390 -1.1240
27403SOL     OW94267   2.761   5.080   4.953 -0.2119  0.4242 -0.0345
27403SOL    HW194268   2.719   5.105   4.866  0.6905  0.9864 -0.3194
27403SOL    HW294269   2.844   5.135   4.967  0.6932 -0.9804  0.2748
27404SOL     OW94270   2.789   2.584   5.344  0.0295  0.0441 -0.2199
27404SOL    HW194271   2.718   2.645   5.309  1.9749  0.9716 -2.6562
27404SOL    HW294272   2.810   2.514   5.276 -0.3753 -1.8429  1.5342
27405SOL     OW94273   1.457   8.930   5.593  0.1653  0.0660 -0.0379
27405SOL    HW194274   1.499   8.863   5.531 -1.8674 -1.4427  0.1504
27405SOL    HW294275   1.406   8.997   5.540  0.7894  0.4663 -0.1361
27406SOL     OW94276   1.984   3.897   1.534  0.5457 -0.4668 -0.0597
27406SOL    HW194277   2.067   3.938   1.571  0.3270 -0.0288 -0.0606
27406SOL    HW294278   1.910   3.904   1.600  0.8127 -1.9087  0.4171
27407SOL     OW94279   3.443   5.010   2.225 -0.3204 -0.3658 -0.6497
27407SOL    HW194280   3.429   5.005   2.126  0.9797 -0.3597 -0.8481
27407SOL    HW294281   3.541   5.006   2.244 -0.6310 -1.9071  0.7225
27408SOL     OW94282   0.099   2.294   5.867  0.1496 -0.1013 -0.0216
27408SOL    HW194283   0.177   2.313   5.926  0.9152  1.1648 -1.4125
27408SOL    HW294284   0.104   2.200   5.834  0.1786 -0.5486  1.2040
27409SOL     OW94285   1.004   3.739   7.417  0.6108 -0.5285 -0.8064
27409SOL    HW194286   0.929   3.675   7.395  0.9912 -1.5083  0.6717
27409SOL    HW294287   1.086   3.710   7.368 -0.0234  0.7313 -2.6822
27410SOL     OW94288   0.124   8.158   9.782 -0.2961 -0.2113  0.7003
27410SOL    HW194289   0.147   8.082   9.843 -0.7708  0.2199  1.4322
27410SOL    HW294290   0.153   8.137   9.689  0.7008 -0.7634  1.1286
27411SOL     OW94291   6.541   2.817   1.264 -0.0973  0.3585 -0.2856
27411SOL    HW194292   6.493   2.847   1.181 -0.4029  0.4053 -0.0924
27411SOL    HW294293   6.640   2.817   1.247 -0.1455  0.5923 -0.5770
27412SOL     OW94294   8.507   0.636   1.685 -0.0228 -0.8713  0.5581
27412SOL    HW194295   8.423   0.582   1.679  0.5400 -1.8698  1.4879
27412SOL    HW294296   8.573   0.601   1.620 -1.2260  1.5992 -2.0724
27413SOL     OW94297   3.781   7.512   2.209 -0.4999 -0.0790 -0.3801
27413SOL    HW194298   3.743   7.604   2.214 -0.2240  0.0255 -0.1561
27413SOL    HW294299   3.853   7.509   2.139 -0.4046 -0.0863 -0.2818
27414SOL     OW94300   6.663   9.673   4.844 -0.3588  0.1999  0.5125
27414SOL    HW194301   6.642   9.585   4.801  2.2323 -0.3721  0.3320
27414SOL    HW294302   6.694   9.737   4.774 -1.3969  0.9855  0.7724
27415SOL     OW94303   5.960   9.360   1.661 -0.1953  0.0039 -0.0676
27415SOL    HW194304   5.970   9.295   1.586 -2.7207 -0.0902 -0.3787
27415SOL    HW294305   5.897   9.323   1.729  2.8631 -0.3537  2.6485
27416SOL     OW94306   3.033   4.228   1.627 -0.1581 -0.0274  0.5161
27416SOL    HW194307   3.043   4.242   1.726  0.7616 -1.2717  0.6062
27416SOL    HW294308   3.019   4.131   1.609  1.0359  0.0219 -0.6957
27417SOL     OW94309   1.562   0.736   5.245 -0.0998  0.2844 -0.1621
27417SOL    HW194310   1.641   0.792   5.271 -0.0239  0.4140 -0.6681
27417SOL    HW294311   1.553   0.660   5.309  0.3439  0.3571 -0.0074
27418SOL     OW94312   1.434   9.493   5.737 -0.6315 -0.1103  0.2741
27418SOL    HW194313   1.371   9.479   5.813 -0.3358  0.9516  0.7174
27418SOL    HW294314   1.528   9.496   5.773 -0.3688 -1.1616 -0.3178
27419SOL     OW94315   8.126   8.306   0.767 -0.2548  0.0292 -0.1110
27419SOL    HW194316   8.098   8.210   0.757  1.3324 -0.4828  0.1916
27419SOL    HW294317   8.163   8.339   0.680  2.1417 -0.6317  0.6260
27420SOL     OW94318   0.810   3.844   9.169  0.3571 -0.8276 -0.2720
27420SOL    HW194319   0.775   3.922   9.219  0.4315 -0.5463 -0.6585
27420SOL    HW294320   0.882   3.874   9.106 -1.4189 -0.7927 -2.3317
27421SOL     OW94321   9.624   4.835   5.213  0.1846 -0.1424 -0.1879
27421SOL    HW194322   9.599   4.782   5.132 -0.3928 -0.0791 -0.0565
27421SOL    HW294323   9.680   4.779   5.274 -0.7075 -0.7115  0.1089
27422SOL     OW94324   9.769   5.102   6.162  0.0747 -0.4530 -0.5053
27422SOL    HW194325   9.822   5.138   6.085 -2.4988  1.9871 -1.2119
27422SOL    HW294326   9.707   5.031   6.129 -0.9410  0.5088 -0.7107
27423SOL     OW94327   8.855   4.138   8.050 -0.0589  0.2363 -0.5546
27423SOL    HW194328   8.845   4.198   7.972 -2.0810 -0.0371 -0.5262
27423SOL    HW294329   8.936   4.080   8.038  0.0031  0.6456 -2.1115
27424SOL     OW94330   2.147   1.391   4.305 -0.2344 -0.5507 -0.1399
27424SOL    HW194331   2.082   1.401   4.381 -0.6816 -1.3354 -0.4094
27424SOL    HW294332   2.100   1.351   4.227  0.0219  1.0134 -1.1213
27425SOL     OW94333   8.093   1.867   8.957 -0.4150  0.2548  0.1024
27425SOL    HW194334   8.179   1.825   8.927 -1.0900 -0.2501 -1.1400
27425SOL    HW294335   8.112   1.955   9.000  0.4587  1.5801 -2.8989
27426SOL     OW94336   7.752   5.572   5.362 -0.6083  0.4266 -0.1964
27426SOL    HW194337   7.680   5.607   5.301 -0.0570  1.7879 -0.0736
27426SOL    HW294338   7.720   5.577   5.457 -1.9162 -2.7429 -0.3793
27427SOL     OW94339   7.188   5.550   7.538 -0.0677  0.8030  0.0367
27427SOL    HW194340   7.177   5.451   7.545  0.1068  0.8705  1.3194
27427SOL    HW294341   7.282   5.571   7.512 -0.6865  0.5617 -2.5687
27428SOL     OW94342   7.943   2.663   9.702  0.1715 -0.0485  0.2663
27428SOL    HW194343   7.993   2.606   9.766 -1.6222 -0.6282  1.2013
27428SOL    HW294344   7.966   2.637   9.608  0.7359 -1.0608  0.6864
27429SOL     OW94345   0.116   6.664   3.167  0.0914 -0.4741 -0.1844
27429SOL    HW194346   0.044   6.597   3.149  0.2650 -1.1938  1.6314
27429SOL    HW294347   0.204   6.616   3.175  0.5112  0.1992 -0.7171
27430SOL     OW94348   3.828   4.032   4.637 -0.0253 -0.2214 -0.2266
27430SOL    HW194349   3.740   4.005   4.675 -0.1491 -0.1781 -0.4782
27430SOL    HW294350   3.845   3.980   4.553  0.0419 -0.0002 -0.3509
27431SOL     OW94351   3.071   2.892   1.250 -0.0971 -0.3562 -0.4567
27431SOL    HW194352   3.117   2.810   1.283 -1.9151 -1.0533  0.4452
27431SOL    HW294353   3.033   2.942   1.327  0.2866  0.9054 -1.0730
27432SOL     OW94354   2.620   5.041   6.627 -0.1448 -0.3776  0.3953
27432SOL    HW194355   2.689   5.100   6.584 -0.1737 -0.1592  0.6494
27432SOL    HW294356   2.564   4.999   6.556  0.2313 -0.5321  0.1871
27433SOL     OW94357   7.320   8.925   1.899  0.2462  0.4167 -1.0059
27433SOL    HW194358   7.302   8.847   1.959  1.4504 -1.0294 -2.4857
27433SOL    HW294359   7.367   8.894   1.817  3.0819  3.0586 -0.4649
27434SOL     OW94360   8.750   1.030   4.808  0.1692  0.0869  0.6263
27434SOL    HW194361   8.710   1.092   4.741 -2.3654 -1.0180  1.0839
27434SOL    HW294362   8.681   1.005   4.877  2.3726  0.2670  2.9988
27435SOL     OW94363   5.140   7.443   2.092 -0.0066  0.3239  0.0693
27435SOL    HW194364   5.239   7.440   2.101  0.1123  1.3424 -0.7181
27435SOL    HW294365   5.108   7.535   2.115 -0.5743  0.5062 -1.4259
27436SOL     OW94366   6.059   9.829   2.423  0.7377 -0.5253  0.5292
27436SOL    HW194367   6.138   9.830   2.361 -0.1519  0.9371 -0.6408
27436SOL    HW294368   5.985   9.778   2.381 -0.2642  1.4377 -0.1787
27437SOL     OW94369   1.680   3.037   2.679  0.0930  0.2171 -0.6739
27437SOL    HW194370   1.641   3.061   2.590 -0.9494 -0.2488 -0.3507
27437SOL    HW294371   1.618   2.975   2.727  2.1739 -2.1880 -0.9903
27438SOL     OW94372   5.745   0.483   3.165 -0.3734  0.2985 -0.1623
27438SOL    HW194373   5.649   0.457   3.174  0.2584 -1.9555  0.4199
27438SOL    HW294374   5.765   0.560   3.226 -1.4378 -0.2602  0.9096
27439SOL     OW94375   7.556   0.538   5.727  0.2227 -0.4407  0.4583
27439SOL    HW194376   7.645   0.569   5.693  0.4797 -1.4264  0.2178
27439SOL    HW294377   7.483   0.591   5.683  0.5668 -1.3902 -1.2835
27440SOL     OW94378   4.199   9.728   1.071  0.2552 -0.5016  0.8733
27440SOL    HW194379   4.273   9.790   1.045  1.6641 -2.7238 -0.6186
27440SOL    HW294380   4.237   9.640   1.099 -1.6689 -0.5734  3.4396
27441SOL     OW94381   3.291   1.468   7.579  0.5057  0.4592 -0.1277
27441SOL    HW194382   3.249   1.416   7.504 -0.8403  1.6244 -0.2002
27441SOL    HW294383   3.269   1.424   7.666  0.2796  0.3112 -0.2579
27442SOL     OW94384   6.075   2.023   0.820  0.1747 -0.2470 -0.0560
27442SOL    HW194385   6.068   1.941   0.877 -2.1779  0.7047  1.0560
27442SOL    HW294386   6.007   2.019   0.746 -1.6674  1.7991  1.4652
27443SOL     OW94387   0.837   8.679   3.372  0.9127  0.6579 -0.2641
27443SOL    HW194388   0.782   8.744   3.319  0.1312  0.3667  0.1871
27443SOL    HW294389   0.891   8.729   3.439  0.4186  0.8608 -0.0135
27444SOL     OW94390   1.691   8.977   8.600  0.3172 -0.7722  0.3275
27444SOL    HW194391   1.782   8.940   8.618  0.9850  0.1947 -0.9918
27444SOL    HW294392   1.642   8.988   8.686  1.1133 -2.1376  0.9724
27445SOL     OW94393   1.562   0.878   2.041  0.4513  0.1817  0.1823
27445SOL    HW194394   1.626   0.874   2.118  1.8489 -0.7684 -0.9814
27445SOL    HW294395   1.547   0.786   2.006 -0.8904  0.5063 -0.1127
27446SOL     OW94396   0.222   2.973   8.948  0.2845 -0.3682  0.4759
27446SOL    HW194397   0.174   3.054   8.914  1.8259  0.4856  0.3224
27446SOL    HW294398   0.268   2.995   9.034 -1.2235 -1.7399  1.6700
27447SOL     OW94399   7.947   3.149   8.036 -0.2053 -0.3335 -0.7777
27447SOL    HW194400   7.942   3.049   8.034  1.7195 -0.4470 -0.4733
27447SOL    HW294401   7.936   3.185   7.943 -0.7771 -0.8208 -0.9017
27448SOL     OW94402   9.379   9.406   4.799 -0.4453 -0.2444 -0.4299
27448SOL    HW194403   9.414   9.336   4.737  0.4810  0.3677 -0.5978
27448SOL    HW294404   9.293   9.375   4.839 -0.9848 -0.7068 -1.9188
27449SOL     OW94405   1.831   2.680   6.423  0.5886  0.5755 -0.4020
27449SOL    HW194406   1.834   2.716   6.516  0.5702  0.4745 -0.3624
27449SOL    HW294407   1.878   2.591   6.420 -3.2846 -1.6195  0.4853
27450SOL     OW94408   1.464   5.640   5.996 -0.2485  0.0418 -0.3858
27450SOL    HW194409   1.394   5.706   5.968 -0.0492 -0.6098 -2.4770
27450SOL    HW294410   1.478   5.574   5.923  0.5949 -1.4766  1.1302
27451SOL     OW94411   8.198   8.233   8.941 -0.3481 -0.1360  0.1268
27451SOL    HW194412   8.180   8.164   8.871  1.0993  0.5075 -0.8920
27451SOL    HW294413   8.134   8.309   8.929 -0.7690 -0.4822  0.1430
27452SOL     OW94414   5.379   4.856   9.713 -0.1360  0.2781  0.4249
27452SOL    HW194415   5.333   4.896   9.793  0.0312  1.4850 -0.0650
27452SOL    HW294416   5.472   4.829   9.738 -1.0975 -2.2029  1.4289
27453SOL     OW94417   9.394   5.409   8.231  0.0207  0.1511  0.5313
27453SOL    HW194418   9.407   5.492   8.286  1.3935  0.1459  0.2376
27453SOL    HW294419   9.307   5.414   8.183 -0.2251  1.1136  1.0539
27454SOL     OW94420   0.968   2.827   2.922 -0.1700 -0.0250 -0.0696
27454SOL    HW194421   1.019   2.889   2.863  1.2050 -1.0297  0.0292
27454SOL    HW294422   0.973   2.734   2.885 -1.6297 -0.2136  0.1462
27455SOL     OW94423   5.462   9.118   2.924  0.2553  0.5746 -0.0456
27455SOL    HW194424   5.446   9.066   3.008  0.3736  0.2161 -0.2446
27455SOL    HW294425   5.539   9.078   2.873 -0.6304  0.0114 -0.9590
27456SOL     OW94426   9.674   8.825   3.142 -0.2359 -0.1934 -0.9874
27456SOL    HW194427   9.580   8.825   3.177  0.1700 -2.5014  0.2234
27456SOL    HW294428   9.720   8.909   3.168 -1.7802  0.6913 -1.0664
27457SOL     OW94429   4.563   0.086   0.031  0.4272  0.5138  0.4561
27457SOL    HW194430   4.601   0.005   0.076 -1.9861 -1.4428 -0.8569
27457SOL    HW294431   4.555   0.068  -0.067 -3.1005  1.0574  0.5779
27458SOL     OW94432   4.397   6.210   9.916  0.3045  0.1736  0.6302
27458SOL    HW194433   4.308   6.165   9.903  0.3895 -0.1743  1.2039
27458SOL    HW294434   4.384   6.309   9.921 -0.1806  0.0668  1.6950
27459SOL     OW94435   0.952   5.620   6.075  0.4230  0.2291 -0.1783
27459SOL    HW194436   0.861   5.641   6.040  0.2030  0.0652  0.2961
27459SOL    HW294437   1.011   5.594   5.998 -0.0590 -0.1304 -0.4331
27460SOL     OW94438   3.369   8.386   8.582 -0.5305  0.0037  0.3278
27460SOL    HW194439   3.274   8.360   8.602  0.3494 -1.4533  2.9345
27460SOL    HW294440   3.383   8.390   8.483 -3.1257 -0.4114 -0.0885
27461SOL     OW94441   7.733   3.354   0.197  0.4221 -0.6365 -0.6340
27461SOL    HW194442   7.769   3.308   0.278  1.6424 -1.4083 -1.5988
27461SOL    HW294443   7.634   3.369   0.209  0.7730  0.2235  1.4180
27462SOL     OW94444   6.394   0.197   5.515  0.4797  0.2634  0.2844
27462SOL    HW194445   6.446   0.137   5.576  2.4030  2.0449  0.4656
27462SOL    HW294446   6.318   0.238   5.566  0.7052 -0.0273  0.8618
27463SOL     OW94447   8.803   4.730   5.101 -0.3471  0.3448 -0.1461
27463SOL    HW194448   8.776   4.662   5.033  0.3581  1.2615 -1.3707
27463SOL    HW294449   8.759   4.709   5.188 -1.2741 -0.8484 -0.8766
27464SOL     OW94450   4.556   1.626   5.025  0.3502  0.1476  0.1469
27464SOL    HW194451   4.567   1.604   4.928 -0.7624 -0.0004  0.0502
27464SOL    HW294452   4.640   1.667   5.059  1.0237 -0.5191 -0.6876
27465SOL     OW94453   2.781   8.135   9.963 -0.3750 -0.3415 -0.0553
27465SOL    HW194454   2.691   8.168   9.991 -0.5886  0.3051 -1.4687
27465SOL    HW294455   2.786   8.132   9.863  2.1587  2.4697 -0.0696
27466SOL     OW94456   9.656   6.126   9.752 -0.7589  0.0004  0.1829
27466SOL    HW194457   9.574   6.156   9.799 -0.7865 -0.8456  0.6821
27466SOL    HW294458   9.713   6.073   9.815 -0.3543 -0.3468 -0.4701
27467SOL     OW94459   4.006   4.700   0.202 -0.1907  0.0520 -0.4790
27467SOL    HW194460   4.101   4.692   0.234 -0.3966  1.7345  0.6010
27467SOL    HW294461   3.949   4.635   0.251  0.4772 -1.3643 -1.5279
27468SOL     OW94462   0.136   9.112   2.991  0.0595  0.0063 -0.3568
27468SOL    HW194463   0.130   9.125   3.090  1.4844 -0.1946 -0.2306
27468SOL    HW294464   0.061   9.160   2.946  0.6499  1.9478  0.6741
27469SOL     OW94465   0.360   5.028   6.298  0.7705  0.1378  0.5729
27469SOL    HW194466   0.457   5.053   6.287  0.4873  0.9941 -0.0145
27469SOL    HW294467   0.312   5.103   6.343  0.7873 -1.1108  2.7152
27470SOL     OW94468   8.423   8.367   9.386 -0.1303 -0.1755 -0.8956
27470SOL    HW194469   8.355   8.313   9.338 -0.4110 -0.7833  0.1581
27470SOL    HW294470   8.411   8.464   9.363 -0.1709 -0.4654 -2.1191
27471SOL     OW94471   0.731   3.139   2.951  0.1657 -0.5533 -0.1468
27471SOL    HW194472   0.664   3.213   2.947 -0.3628 -1.0154  0.0984
27471SOL    HW294473   0.776   3.139   3.041 -0.1221 -0.7808 -0.0026
27472SOL     OW94474   8.890   8.550   2.193  0.4774 -0.0047 -0.2069
27472SOL    HW194475   8.898   8.636   2.142 -0.4657 -0.2193 -0.7451
27472SOL    HW294476   8.977   8.528   2.237  1.1569  0.4627 -1.2940
27473SOL     OW94477   9.194   5.370   9.028 -1.1251  0.3694 -0.1536
27473SOL    HW194478   9.121   5.351   9.094 -0.7548  2.5829  0.9334
27473SOL    HW294479   9.278   5.395   9.076  0.2801 -1.7818 -1.4150
27474SOL     OW94480   7.730   8.958   5.980  0.0937  0.5565 -0.5539
27474SOL    HW194481   7.797   8.947   6.052  0.2561  0.6496 -0.6912
27474SOL    HW294482   7.700   9.054   5.976 -1.7839  0.0801  1.0520
27475SOL     OW94483   2.022   2.033   3.814  0.1546  0.0830  0.4838
27475SOL    HW194484   1.984   2.101   3.752 -0.0335  0.4270  0.9799
27475SOL    HW294485   2.087   2.077   3.876  1.6326 -0.5447 -0.5720
27476SOL     OW94486   4.459   3.215   6.935  0.0508 -0.4232  0.4122
27476SOL    HW194487   4.507   3.180   7.016 -1.6727 -1.3576  1.0546
27476SOL    HW294488   4.363   3.189   6.940 -0.7182  2.1947 -0.4369
27477SOL     OW94489   1.199   6.551   3.522  0.1499  0.4171  0.4654
27477SOL    HW194490   1.250   6.496   3.589  0.6230 -0.8720 -0.9262
27477SOL    HW294491   1.114   6.504   3.498 -0.4865  1.3487  0.8942
27478SOL     OW94492   7.785   7.891   9.061 -0.2046  0.3163 -0.1281
27478SOL    HW194493   7.742   7.825   9.000  2.6071 -0.3122 -1.5348
27478SOL    HW294494   7.811   7.845   9.146  1.0527 -0.2234 -0.7945
27479SOL     OW94495   4.914   4.251   6.241  0.3546  0.7831  0.0578
27479SOL    HW194496   4.940   4.162   6.279  0.1263  0.5418 -0.3422
27479SOL    HW294497   4.822   4.275   6.272  1.2414  1.8748  1.8849
27480SOL     OW94498   4.768   6.353   1.316 -0.0574 -0.0555  0.4319
27480SOL    HW194499   4.675   6.326   1.339 -0.1814  0.5128  0.6219
27480SOL    HW294500   4.775   6.453   1.320  0.2622 -0.0287 -0.6909
27481SOL     OW94501   7.567   8.919   3.453 -0.1448  0.4177  0.3745
27481SOL    HW194502   7.635   8.951   3.387  0.0077  2.2309  1.3799
27481SOL    HW294503   7.556   8.988   3.525 -0.8995 -1.1827  1.8029
27482SOL     OW94504   8.982   9.372   1.525 -0.0129  0.0969  0.1767
27482SOL    HW194505   9.063   9.408   1.477 -2.0013  2.5952 -1.4711
27482SOL    HW294506   8.937   9.447   1.574 -2.6760 -0.7165 -0.9582
27483SOL     OW94507   3.030   8.124   2.883  0.7044  0.0921 -0.2299
27483SOL    HW194508   3.106   8.070   2.918  0.1439  0.0320  0.9257
27483SOL    HW294509   2.946   8.069   2.884 -0.0649  1.2489  1.8284
27484SOL     OW94510   3.302   4.036   2.275  0.4016 -0.0738  0.5084
27484SOL    HW194511   3.281   4.063   2.369 -0.7111  0.6331  0.0753
27484SOL    HW294512   3.346   4.112   2.228 -0.3528  0.0893  0.0508
27485SOL     OW94513   4.658   8.040   4.368 -0.2749  0.4958  0.3018
27485SOL    HW194514   4.711   7.956   4.353 -0.9070  0.1413  0.0126
27485SOL    HW294515   4.589   8.023   4.438 -0.9862  0.5113 -0.3872
27486SOL     OW94516   9.753   7.136   3.017  0.1998  0.3289 -0.8843
27486SOL    HW194517   9.714   7.128   3.108 -1.2373  1.1259 -1.4027
27486SOL    HW294518   9.730   7.055   2.963  0.0365  0.3836 -0.8975
27487SOL     OW94519   9.659   7.208   8.385  0.1725  0.4439  0.0519
27487SOL    HW194520   9.743   7.203   8.330  0.7340  0.5346  0.8952
27487SOL    HW294521   9.628   7.115   8.406  1.0899  0.4004  1.2805
27488SOL     OW94522   1.682   9.897   9.941 -0.2886  0.0835  0.1981
27488SOL    HW194523   1.686   9.983   9.890  0.0122 -0.0080  0.0695
27488SOL    HW294524   1.744   9.901  10.019  1.0167 -0.6661 -0.7878
27489SOL     OW94525   4.307   5.095   4.361  0.1848  0.5111 -0.0514
27489SOL    HW194526   4.243   5.041   4.306 -0.9965  2.8835 -1.0894
27489SOL    HW294527   4.398   5.054   4.356 -0.4620 -0.7997 -1.6132
27490SOL     OW94528   4.019   1.568   8.365  0.1479  0.6736  0.0252
27490SOL    HW194529   4.109   1.537   8.332 -0.3046  1.0070 -1.5813
27490SOL    HW294530   3.963   1.488   8.388 -0.0418  0.3730 -1.4445
27491SOL     OW94531   3.475   6.358   9.705  0.3431  0.1832  0.5462
27491SOL    HW194532   3.515   6.363   9.613 -0.0880  0.3025  0.3654
27491SOL    HW294533   3.541   6.393   9.772  0.0893  1.5350  0.1131
27492SOL     OW94534   0.029   7.883   6.317  0.1748  0.6353 -0.2011
27492SOL    HW194535  -0.001   7.799   6.272  1.6127 -0.7075  1.3112
27492SOL    HW294536  -0.030   7.959   6.288 -1.2792 -0.9157 -1.4038
27493SOL     OW94537   9.417   2.771   4.836  0.3335  0.2367  0.5403
27493SOL    HW194538   9.429   2.685   4.886  0.4515  1.5878  2.9188
27493SOL    HW294539   9.419   2.848   4.900  1.6751  2.1467 -1.7049
27494SOL     OW94540   9.349   0.188   9.589 -0.6933  0.0982  0.0543
27494SOL    HW194541   9.360   0.218   9.683  1.4239 -0.0413 -0.1157
27494SOL    HW294542   9.299   0.258   9.537 -1.3310  0.4469  1.1291
27495SOL     OW94543   6.945   9.669   8.170 -0.0834  0.2857  0.6676
27495SOL    HW194544   7.044   9.669   8.164 -0.0711  0.4685  0.8908
27495SOL    HW294545   6.912   9.761   8.193 -0.2675  0.0745  1.2576
27496SOL     OW94546   2.983   4.987   4.137  0.0169 -0.5601 -0.0319
27496SOL    HW194547   3.068   4.935   4.144 -0.2300 -0.9210  0.2705
27496SOL    HW294548   2.925   4.968   4.216 -1.1446 -1.7419 -1.1453
27497SOL     OW94549   9.820   4.603   5.748 -0.7767 -0.0841 -0.3137
27497SOL    HW194550   9.782   4.681   5.799  2.0650  1.2621 -0.1328
27497SOL    HW294551   9.870   4.637   5.668  1.5808 -1.6064  0.4701
27498SOL     OW94552   8.329   1.500   7.908 -0.0534  0.3467  0.4017
27498SOL    HW194553   8.300   1.425   7.968 -0.3238 -0.4842 -0.7560
27498SOL    HW294554   8.428   1.495   7.895  0.1407  1.0919  1.5288
27499SOL     OW94555   6.348   8.053   4.515  0.2667 -0.2536 -0.6404
27499SOL    HW194556   6.278   7.990   4.550  0.9129 -1.6807 -1.8586
27499SOL    HW294557   6.321   8.147   4.535 -1.9218 -0.7842 -0.9445
27500SOL     OW94558   0.253   4.894   0.005 -0.0032 -0.4254 -0.4822
27500SOL    HW194559   0.301   4.973   0.043 -1.2870  0.7610 -1.2630
27500SOL    HW294560   0.189   4.858   0.073 -0.6875  0.3217 -0.7083
27501SOL     OW94561   1.100   3.072   8.493 -0.7381  0.3490  0.7368
27501SOL    HW194562   1.036   3.077   8.416 -1.3512 -0.7029  1.1655
27501SOL    HW294563   1.194   3.074   8.459 -1.0048  0.2060 -0.0116
27502SOL     OW94564   3.825   4.936   1.549  0.0825 -0.0648  0.4694
27502SOL    HW194565   3.812   5.035   1.548  0.8214  0.0368  0.6966
27502SOL    HW294566   3.796   4.897   1.462 -0.5088  0.3136  0.4957
27503SOL     OW94567   3.715   5.321   6.414  0.0528 -0.1320  0.1184
27503SOL    HW194568   3.709   5.309   6.315  0.1244  0.7053  0.0063
27503SOL    HW294569   3.652   5.258   6.459  0.2755 -0.7609 -0.4441
27504SOL     OW94570   8.276   4.229   6.520 -0.2105  0.9484 -0.2458
27504SOL    HW194571   8.261   4.274   6.608  0.4688  0.8714 -0.0810
27504SOL    HW294572   8.269   4.295   6.446 -0.2216  1.1264 -0.0837
27505SOL     OW94573   2.920   4.664   8.203 -0.5165  0.4907  0.1584
27505SOL    HW194574   2.989   4.710   8.147 -1.6067  0.8362 -0.9393
27505SOL    HW294575   2.926   4.565   8.190 -0.3485  0.5326 -0.0762
27506SOL     OW94576   0.905   7.813   8.329 -0.3870  0.3435 -0.1637
27506SOL    HW194577   0.829   7.876   8.341 -0.9736 -0.6329  1.5346
27506SOL    HW294578   0.870   7.719   8.327  0.6474 -0.0362 -0.5919
27507SOL     OW94579   5.061   4.246   0.602 -0.0344  0.2185 -0.4912
27507SOL    HW194580   5.114   4.194   0.534 -1.1739  1.0779 -2.0544
27507SOL    HW294581   5.098   4.338   0.609 -1.6873  1.0148 -2.0390
27508SOL     OW94582   7.601   4.235   5.451 -0.5470 -0.4215 -0.9148
27508SOL    HW194583   7.535   4.161   5.461  0.0928 -1.1170 -1.7127
27508SOL    HW294584   7.692   4.196   5.437 -0.2583  0.5145 -1.6805
27509SOL     OW94585   8.509   5.377   2.081 -0.0539  0.1883  0.1475
27509SOL    HW194586   8.425   5.375   2.135 -0.6300  0.4154 -0.7363
27509SOL    HW294587   8.570   5.447   2.118 -1.2098  1.6276 -0.6257
27510SOL     OW94588   9.659   9.876   8.466  1.0307  0.0694 -0.2564
27510SOL    HW194589   9.559   9.869   8.467  0.7337  3.7137  0.1141
27510SOL    HW294590   9.698   9.801   8.520 -1.4594 -1.4934 -0.5524
27511SOL     OW94591   1.456   3.256   8.035 -0.2804 -0.3366  0.1875
27511SOL    HW194592   1.548   3.288   8.057 -1.0978  2.0441  0.2763
27511SOL    HW294593   1.423   3.305   7.954 -1.6430 -0.8606  0.4228
27512SOL     OW94594   3.883   8.931   9.498 -0.3099 -0.4496  0.0222
27512SOL    HW194595   3.971   8.903   9.536 -0.1646 -0.0131  0.0160
27512SOL    HW294596   3.818   8.948   9.573  0.1214  0.8790  0.1090
27513SOL     OW94597   0.249   7.479   3.677  0.2058  0.0525  0.1201
27513SOL    HW194598   0.251   7.578   3.685  0.3652 -0.0996  2.3313
27513SOL    HW294599   0.243   7.453   3.581 -1.6689  2.2193 -0.3807
27514SOL     OW94600   3.252   0.577   2.797 -0.0193  0.7567  0.6525
27514SOL    HW194601   3.226   0.654   2.738 -2.3876  0.9021  1.8304
27514SOL    HW294602   3.289   0.503   2.741  2.1050  2.6315 -0.5201
27515SOL     OW94603   8.605   0.978   2.423 -0.1921 -0.4177 -0.0054
27515SOL    HW194604   8.680   1.027   2.378 -1.4304 -1.4127 -3.3218
27515SOL    HW294605   8.521   1.032   2.418 -0.4431 -0.7374  0.7014
27516SOL     OW94606   3.214   5.010   3.324  0.3534 -0.2223 -0.1763
27516SOL    HW194607   3.118   5.024   3.299  0.8761  2.4395 -0.8432
27516SOL    HW294608   3.220   4.973   3.416 -1.3937 -3.4780 -1.3090
27517SOL     OW94609   3.614   5.692   1.973 -0.2310 -0.1084 -0.2658
27517SOL    HW194610   3.685   5.738   1.921 -1.2764  1.3489 -0.4201
27517SOL    HW294611   3.531   5.747   1.973 -1.3504 -1.7400 -0.0151
27518SOL     OW94612   5.467   8.986   5.926  0.5959 -0.0475  0.3434
27518SOL    HW194613   5.501   9.047   5.854  1.2814 -0.0909  0.6283
27518SOL    HW294614   5.439   9.040   6.005 -0.2879  0.0092 -0.0069
27519SOL     OW94615   7.078   6.842   4.373  0.0385  0.2574  0.3639
27519SOL    HW194616   7.164   6.797   4.349  1.0673  2.5945 -0.5175
27519SOL    HW294617   7.093   6.900   4.454 -0.5010  1.2652 -0.2498
27520SOL     OW94618   6.564   2.589   0.253  0.0791 -0.2715  0.6739
27520SOL    HW194619   6.593   2.562   0.345  0.0518 -0.6873  0.5640
27520SOL    HW294620   6.619   2.666   0.221  1.0291 -1.0243  0.4839
27521SOL     OW94621   9.155   3.503   3.486  0.0621 -0.5094  0.1989
27521SOL    HW194622   9.117   3.571   3.550  1.0824 -0.9449  1.3002
27521SOL    HW294623   9.174   3.547   3.399  2.7105  1.2003  1.5602
27522SOL     OW94624   2.703   6.135   2.261 -0.3439 -0.1325 -0.7397
27522SOL    HW194625   2.629   6.084   2.217 -1.5149  1.3744 -0.5858
27522SOL    HW294626   2.690   6.134   2.360  0.6820 -1.1069 -0.6079
27523SOL     OW94627   1.790   2.994   0.274  0.7276 -0.2929  0.1635
27523SOL    HW194628   1.888   2.996   0.294  0.5660 -1.2932  1.0462
27523SOL    HW294629   1.777   3.004   0.175  1.8212 -2.0876 -0.1961
27524SOL     OW94630   1.186   0.829   6.685 -0.0050  0.3199 -0.1822
27524SOL    HW194631   1.270   0.882   6.697 -2.0269  3.4176  0.8977
27524SOL    HW294632   1.176   0.803   6.589  2.0297  0.0926 -0.3707
27525SOL     OW94633   3.610   7.644   7.170  0.2281 -0.0826  0.0835
27525SOL    HW194634   3.654   7.653   7.081 -2.0369 -1.9624 -1.2746
27525SOL    HW294635   3.602   7.548   7.194 -0.4996  0.3540  1.6569
27526SOL     OW94636   8.577   9.879   7.702  0.2574  0.3883 -0.3321
27526SOL    HW194637   8.649   9.920   7.757  0.3225  0.4506 -0.4648
27526SOL    HW294638   8.519   9.951   7.663  1.0385  0.4005 -1.4785
27527SOL     OW94639   7.588   8.404   4.864  0.2318  0.0378  0.0868
27527SOL    HW194640   7.671   8.449   4.896 -0.9086  1.5621  0.9840
27527SOL    HW294641   7.569   8.324   4.922 -1.2790  2.2147  2.7694
27528SOL     OW94642   3.991   1.287   5.954 -0.0263  0.1279  0.2815
27528SOL    HW194643   3.892   1.300   5.958  0.1212  0.9946  1.2607
27528SOL    HW294644   4.013   1.220   5.883 -1.1569  1.5016 -1.3988
27529SOL     OW94645   7.308   3.860   0.062  0.0085  0.5680 -0.3938
27529SOL    HW194646   7.263   3.771   0.060  2.3213 -0.6722  0.8597
27529SOL    HW294647   7.378   3.864  -0.010  1.8773  0.2378  1.3354
27530SOL     OW94648   5.473   4.790   7.734 -0.4683 -0.6375 -0.0513
27530SOL    HW194649   5.527   4.712   7.703  1.5690  0.2322  1.2331
27530SOL    HW294650   5.468   4.858   7.661  0.3217 -0.6515 -0.1247
27531SOL     OW94651   9.217   2.186   3.084  0.4071  0.3326 -0.0237
27531SOL    HW194652   9.237   2.158   3.178  0.3692  0.3705 -0.0046
27531SOL    HW294653   9.282   2.143   3.021  3.3990  3.8913  0.4439
27532SOL     OW94654   6.510   8.904   2.069 -0.2274 -0.6689 -0.1180
27532SOL    HW194655   6.496   8.880   1.973  0.8793  0.6830 -0.6319
27532SOL    HW294656   6.422   8.917   2.114 -0.8399 -3.9909 -0.2332
27533SOL     OW94657   9.323   2.976   7.144 -0.3557  0.0916  0.5746
27533SOL    HW194658   9.400   2.914   7.135 -0.6825 -0.2334  0.0001
27533SOL    HW294659   9.323   3.017   7.235 -0.0637 -0.6520  0.9081
27534SOL     OW94660   7.967   0.021   0.125 -0.3992  0.3402 -0.2095
27534SOL    HW194661   7.926   0.105   0.163 -0.7351  0.2054 -0.2670
27534SOL    HW294662   7.896  -0.049   0.116 -0.0844 -0.0129  0.0129
27535SOL     OW94663   2.844   3.889   6.520  0.3214  0.5379  0.0083
27535SOL    HW194664   2.840   3.986   6.499 -0.8304  0.5364  0.1635
27535SOL    HW294665   2.857   3.837   6.435 -0.8375  0.7358 -0.3029
27536SOL     OW94666   6.664   0.504   1.548  0.5389  0.0169  0.0687
27536SOL    HW194667   6.655   0.424   1.608  2.2612  0.2650  0.7087
27536SOL    HW294668   6.753   0.546   1.564 -0.1674  1.7837 -0.6175
27537SOL     OW94669   2.234   9.916   8.410 -0.8886 -0.5823  0.4777
27537SOL    HW194670   2.295   9.932   8.487 -1.8342 -0.3268  1.1850
27537SOL    HW294671   2.267   9.839   8.356  1.9651  1.6787 -1.1390
27538SOL     OW94672   1.216   8.286   9.931 -0.1566 -0.0951  0.4127
27538SOL    HW194673   1.160   8.349   9.984  0.3086  0.2833  0.4574
27538SOL    HW294674   1.169   8.198   9.923 -2.0422  1.0491 -1.8856
27539SOL     OW94675   0.420   8.713   4.829 -0.4599  0.0920 -0.2758
27539SOL    HW194676   0.389   8.655   4.753  0.7168  0.3429 -0.9478
27539SOL    HW294677   0.494   8.667   4.877 -1.3943 -0.1920  0.9155
27540SOL     OW94678   8.117   6.093   0.617  0.0147 -0.0940  0.3661
27540SOL    HW194679   8.078   6.127   0.702 -0.2736  0.2758  0.0873
27540SOL    HW294680   8.048   6.041   0.567  0.2461 -0.4913  0.4598
27541SOL     OW94681   9.500   4.809   8.000  0.2055 -0.3198  0.4489
27541SOL    HW194682   9.462   4.883   8.056 -0.1672 -0.1168 -0.0652
27541SOL    HW294683   9.510   4.840   7.905 -0.3118 -1.0387  0.1450
27542SOL     OW94684   1.212   6.242   4.163 -0.1687  0.0811  0.2097
27542SOL    HW194685   1.114   6.257   4.154  0.0976  1.9121  0.2236
27542SOL    HW294686   1.250   6.309   4.228  1.2488  0.0534 -0.5763
27543SOL     OW94687   3.528   4.533   2.127  0.0732  0.2951  0.3601
27543SOL    HW194688   3.466   4.550   2.051 -0.1517  0.0387  0.4843
27543SOL    HW294689   3.476   4.534   2.213  0.0661 -0.9107  0.3793
27544SOL     OW94690   8.023   0.547   0.205  0.5114 -0.0871  0.6520
27544SOL    HW194691   7.961   0.611   0.251  0.4505  0.3748 -0.0503
27544SOL    HW294692   7.999   0.543   0.108  0.5603 -1.1300  0.6829
27545SOL     OW94693   2.414   0.318   2.146  0.8788 -0.5058 -0.1208
27545SOL    HW194694   2.353   0.290   2.221 -0.2451  2.7200  0.2402
27545SOL    HW294695   2.370   0.296   2.059  0.6964 -1.2142  0.1390
27546SOL     OW94696   3.200   4.076   5.759  0.5455  0.1429  0.4722
27546SOL    HW194697   3.277   4.139   5.751  2.4978 -1.9765  1.8241
27546SOL    HW294698   3.203   4.010   5.684  0.0368  0.0929  0.4974
27547SOL     OW94699   0.914   8.428   9.501  0.4746  0.1763  0.2832
27547SOL    HW194700   0.833   8.486   9.509  0.1583 -0.1283 -0.6686
27547SOL    HW294701   0.925   8.374   9.584 -1.1034 -0.8106 -0.1216
27548SOL     OW94702   1.542   2.885   6.206 -0.2378 -0.3544 -0.0648
27548SOL    HW194703   1.519   2.907   6.301  0.3401 -4.4120  1.1101
27548SOL    HW294704   1.637   2.856   6.201 -0.3007 -0.2645 -1.8609
27549SOL     OW94705   3.747   3.644   2.367  0.2876 -0.6861 -0.1287
27549SOL    HW194706   3.794   3.659   2.454 -0.9923 -1.3604  0.7002
27549SOL    HW294707   3.693   3.725   2.344  1.6638  0.0005 -0.9672
27550SOL     OW94708   2.682   4.318   1.973 -0.0399 -0.4715 -0.2139
27550SOL    HW194709   2.674   4.417   1.962 -1.6787 -0.3899  1.4606
27550SOL    HW294710   2.620   4.272   1.911 -0.0955 -0.4173 -0.1984
27551SOL     OW94711   6.156   1.812   9.160  0.8521  0.0799  0.3991
27551SOL    HW194712   6.178   1.896   9.111  0.8540  0.5955  1.2774
27551SOL    HW294713   6.241   1.765   9.184  0.8633  0.0108  0.2235
27552SOL     OW94714   2.934   2.587   9.106  0.6906 -0.2039 -0.1779
27552SOL    HW194715   2.870   2.615   9.177  2.2545 -2.7495  2.3217
27552SOL    HW294716   2.898   2.508   9.057  1.4946 -1.0864  0.6382
27553SOL     OW94717   3.503   7.435   3.819 -0.2060  0.2917  0.2876
27553SOL    HW194718   3.420   7.465   3.866 -0.3950 -0.4474  0.4384
27553SOL    HW294719   3.478   7.372   3.745  0.1119  1.2077 -0.6118
27554SOL     OW94720   4.661   3.916   7.110 -0.0481  0.4935 -0.2005
27554SOL    HW194721   4.727   3.880   7.045 -0.7571 -0.1821 -0.5553
27554SOL    HW294722   4.606   3.841   7.147 -0.0762  0.9509  0.6925
27555SOL     OW94723   9.784   3.572   6.619  0.0498 -0.4141 -0.0008
27555SOL    HW194724   9.794   3.610   6.527 -0.6221  0.7394  0.3952
27555SOL    HW294725   9.708   3.507   6.620 -0.8665  0.6409  0.0650
27556SOL     OW94726   9.103   5.169   2.932 -0.1362 -0.4944  0.2138
27556SOL    HW194727   9.146   5.259   2.939 -0.1588 -0.5730  1.5773
27556SOL    HW294728   9.171   5.102   2.903  0.5028 -0.4840  1.6373
27557SOL     OW94729   8.162   3.183   9.407  0.1468 -0.9147  0.1957
27557SOL    HW194730   8.078   3.139   9.440 -0.3566 -0.2985 -0.2484
27557SOL    HW294731   8.152   3.205   9.310  0.7967 -0.7603  0.1601
27558SOL     OW94732   5.313   9.156   2.074 -0.0318  0.2136  0.3012
27558SOL    HW194733   5.339   9.252   2.061  2.9882 -0.5364  0.4450
27558SOL    HW294734   5.328   9.130   2.169  1.6061 -1.0808 -0.2883
27559SOL     OW94735   3.038   7.984   6.191 -0.2080 -0.1873  0.1784
27559SOL    HW194736   2.989   7.984   6.278  0.3481 -0.1530  0.4926
27559SOL    HW294737   3.097   7.904   6.186 -1.8383 -1.3427 -1.0823
27560SOL     OW94738   1.786   7.765   4.715  0.2347 -0.2064 -0.1552
27560SOL    HW194739   1.871   7.802   4.676  0.4800 -0.3648  0.2235
27560SOL    HW294740   1.790   7.665   4.715 -0.4356 -0.2329 -1.1921
27561SOL     OW94741   7.951   3.461   0.011  0.0878 -0.6001 -0.0024
27561SOL    HW194742   7.973   3.549  -0.032  0.8835 -1.3627 -1.1762
27561SOL    HW294743   7.902   3.478   0.096  0.3278  0.9904 -0.1533
27562SOL     OW94744   1.348   1.894   4.236  0.2302  0.1822  0.2038
27562SOL    HW194745   1.279   1.966   4.235 -1.4507 -1.4298 -0.4207
27562SOL    HW294746   1.374   1.873   4.330 -2.4096 -1.3598  0.6128
27563SOL     OW94747   8.384   6.474   4.006 -0.2175 -0.2321 -0.4802
27563SOL    HW194748   8.474   6.501   3.971 -0.3077  0.4270 -0.2084
27563SOL    HW294749   8.383   6.375   4.022  0.6191 -0.1737 -0.0230
27564SOL     OW94750   3.395   4.567   6.991 -0.4715  0.1582  0.3414
27564SOL    HW194751   3.424   4.662   7.002  1.7601 -0.5298  0.6845
27564SOL    HW294752   3.455   4.508   7.044  0.9362 -1.8319 -3.3092
27565SOL     OW94753   1.654   4.857   1.848  0.2641 -0.6201 -0.2448
27565SOL    HW194754   1.586   4.828   1.915 -1.2096  1.3195 -0.8630
27565SOL    HW294755   1.661   4.957   1.848  0.1288 -0.5747 -3.0564
27566SOL     OW94756   0.969   4.845   0.055 -0.2866  0.2044 -1.0210
27566SOL    HW194757   0.962   4.940   0.086  0.3351 -0.2516  0.5378
27566SOL    HW294758   0.891   4.824  -0.003 -0.5082  1.6265 -1.2721
27567SOL     OW94759   0.940   2.342   1.019  0.2371  0.0963  0.2184
27567SOL    HW194760   0.847   2.373   1.002 -0.3451 -2.3170 -1.2529
27567SOL    HW294761   0.971   2.285   0.943  2.8038  0.5754  0.8431
27568SOL     OW94762   4.173   6.530   1.662 -0.2496 -0.1801  0.4163
27568SOL    HW194763   4.262   6.523   1.707 -0.1617  0.6558  0.3953
27568SOL    HW294764   4.105   6.480   1.715  0.3982 -1.5669 -0.0410
27569SOL     OW94765   1.647   3.264   7.196 -0.4147  0.2709 -0.2740
27569SOL    HW194766   1.624   3.177   7.153  1.5100 -0.1479 -0.4654
27569SOL    HW294767   1.719   3.310   7.144  0.2436  0.8858  1.1519
27570SOL     OW94768   1.083   7.587   2.211 -0.7725  0.9531  0.7882
27570SOL    HW194769   1.112   7.666   2.158 -0.6367 -0.7939 -1.8586
27570SOL    HW294770   1.124   7.591   2.302  2.7529  1.7503 -0.7517
27571SOL     OW94771   0.372   5.583   6.286  0.1145 -0.5834 -0.0656
27571SOL    HW194772   0.366   5.672   6.241  1.3095  0.2978  1.4791
27571SOL    HW294773   0.304   5.521   6.247  0.4889  0.4413 -2.4143
27572SOL     OW94774   9.940   6.238   8.841  0.1644  0.3808 -0.4471
27572SOL    HW194775   9.915   6.153   8.887 -1.0213  0.6238 -0.6303
27572SOL    HW294776   9.944   6.312   8.907 -0.1821  0.4588 -0.5138
27573SOL     OW94777   5.104   6.622   1.200  0.0812 -0.3232  0.1467
27573SOL    HW194778   5.153   6.645   1.283 -0.4561  0.3815  0.2660
27573SOL    HW294779   5.065   6.530   1.208  0.8286 -0.6252  0.3022
27574SOL     OW94780   8.990   2.380   3.913 -0.2807 -0.0878 -0.1962
27574SOL    HW194781   8.941   2.467   3.902 -3.0675 -1.5087  0.3521
27574SOL    HW294782   8.979   2.326   3.830  1.1191 -0.0848 -0.3897
27575SOL     OW94783   6.886   1.658   3.415  0.1977 -0.1001 -0.2061
27575SOL    HW194784   6.855   1.579   3.363  0.3944  1.6698 -3.0839
27575SOL    HW294785   6.815   1.685   3.480 -1.4452 -0.3067 -1.8890
27576SOL     OW94786   4.082   8.296   0.831  0.4814  0.1749 -0.3995
27576SOL    HW194787   4.067   8.290   0.733 -0.8597 -0.5663 -0.1672
27576SOL    HW294788   4.177   8.274   0.852  0.9053  0.8620 -1.5688
27577SOL     OW94789   9.363   4.601   3.416 -0.1873  0.2470  0.6412
27577SOL    HW194790   9.452   4.556   3.426  0.3404  0.6786 -1.6565
27577SOL    HW294791   9.334   4.638   3.504  1.8997  0.0737  1.4340
27578SOL     OW94792   4.154   1.501   4.108 -0.0335 -0.1037 -0.1720
27578SOL    HW194793   4.177   1.454   4.193  0.1513  0.3198  0.0155
27578SOL    HW294794   4.062   1.474   4.078  0.3208 -1.0629 -0.4078
27579SOL     OW94795   3.045   7.978   6.477  0.1728  0.1971  0.5115
27579SOL    HW194796   2.991   8.061   6.487  0.9990  0.6545  1.2459
27579SOL    HW294797   3.140   7.997   6.502  0.8684 -0.3708 -1.6185
27580SOL     OW94798   8.038   8.132   3.703 -0.5165 -0.2287  0.6178
27580SOL    HW194799   7.959   8.092   3.655 -1.0900  0.6054  0.8497
27580SOL    HW294800   8.013   8.223   3.736  1.1363  0.7781 -0.8732
27581SOL     OW94801   6.378   1.309   0.722  0.3518 -0.5186  0.5001
27581SOL    HW194802   6.341   1.268   0.806 -1.1833  1.7559  0.9978
27581SOL    HW294803   6.456   1.366   0.744 -0.1539  0.2135  0.4185
27582SOL     OW94804   9.719   6.928   6.010 -0.2546 -0.3263 -0.4939
27582SOL    HW194805   9.746   6.836   5.979 -0.7312 -0.5275 -0.3280
27582SOL    HW294806   9.771   6.997   5.959  0.1033 -0.6887 -0.6243
27583SOL     OW94807   9.564   1.893   3.358  0.5920  0.2555  0.1044
27583SOL    HW194808   9.522   1.823   3.301 -1.9006  1.8772 -0.1231
27583SOL    HW294809   9.579   1.976   3.303 -0.0390  1.1769  1.3055
27584SOL     OW94810   3.286   6.791   7.091  0.0898  0.2445 -0.0683
27584SOL    HW194811   3.214   6.802   7.022  1.6633 -0.4672 -1.8719
27584SOL    HW294812   3.276   6.863   7.160 -2.0279  0.4692 -0.5480
27585SOL     OW94813   9.338   9.492   2.332  0.6647 -0.5572 -0.1647
27585SOL    HW194814   9.295   9.582   2.337 -0.2579 -0.9713 -0.4567
27585SOL    HW294815   9.410   9.485   2.401 -0.3613 -0.1793  0.9554
27586SOL     OW94816   0.172   1.113   2.335 -0.0538 -0.0672 -0.2101
27586SOL    HW194817   0.266   1.096   2.365 -0.1261 -0.7497 -0.3683
27586SOL    HW294818   0.147   1.208   2.357  0.5408  0.0058  0.1675
27587SOL     OW94819   8.651   2.599   9.710 -0.2864  0.6618  0.2921
27587SOL    HW194820   8.596   2.615   9.628 -1.7323  1.4008  1.3859
27587SOL    HW294821   8.719   2.527   9.691 -1.6302 -0.2838 -1.0761
27588SOL     OW94822   2.881   4.587   0.978 -0.0720  0.1738 -0.4373
27588SOL    HW194823   2.836   4.506   0.940 -1.3636  0.8921 -0.4778
27588SOL    HW294824   2.848   4.669   0.930  2.4877  0.5804 -1.5439
27589SOL     OW94825   0.025   8.659   3.062  0.3286 -0.0984 -0.2594
27589SOL    HW194826  -0.034   8.738   3.047  0.3987  0.1173  0.5752
27589SOL    HW294827   0.084   8.646   2.982  0.4031  0.7715 -0.3545
27590SOL     OW94828   3.591   7.832   9.887  0.0346  0.2491  0.0286
27590SOL    HW194829   3.684   7.851   9.854  0.9470 -0.9114  1.8247
27590SOL    HW294830   3.544   7.774   9.821  0.2074  1.7199 -1.4023
27591SOL     OW94831   1.064   0.225   3.524 -0.3701 -0.5868  0.0686
27591SOL    HW194832   1.111   0.313   3.517 -0.6267 -0.3508  1.3124
27591SOL    HW294833   1.131   0.152   3.537 -0.1354 -0.6162 -1.2638
27592SOL     OW94834   9.845   9.842   1.199 -0.8272  0.5588  0.3269
27592SOL    HW194835   9.923   9.880   1.149 -1.3651 -1.1163 -1.8882
27592SOL    HW294836   9.864   9.844   1.297  1.2672  1.7720 -0.0795
27593SOL     OW94837   8.047   7.330   7.175 -0.1158  0.7479  0.1684
27593SOL    HW194838   8.074   7.277   7.256  0.0090  1.3517  0.5243
27593SOL    HW294839   8.076   7.282   7.093  1.0846  0.8525  0.5181
27594SOL     OW94840   2.263   5.044   7.773 -0.3428  0.1745  0.8061
27594SOL    HW194841   2.294   5.128   7.818 -1.5667 -0.8297  3.6645
27594SOL    HW294842   2.198   5.067   7.701  1.3364  1.8223 -0.2194
27595SOL     OW94843   9.268   2.980   5.092  0.2941 -0.1590 -0.2451
27595SOL    HW194844   9.349   2.985   5.151 -0.1031 -0.4368  0.3252
27595SOL    HW294845   9.272   3.053   5.024  0.6034  0.3566  0.3208
27596SOL     OW94846   7.933   8.286   3.981 -0.2933 -0.0231  0.4477
27596SOL    HW194847   7.968   8.199   4.015 -0.1865  0.0737  0.5840
27596SOL    HW294848   7.833   8.284   3.979 -0.4197  1.0131  3.5682
27597SOL     OW94849   7.629   0.852   9.572  0.0714  0.1473 -0.7875
27597SOL    HW194850   7.589   0.943   9.557  0.0234 -0.1342 -2.4559
27597SOL    HW294851   7.591   0.813   9.655  0.1771  1.7083  0.0192
27598SOL     OW94852   4.996   9.188   2.203 -0.0873 -0.5256 -0.2109
27598SOL    HW194853   4.988   9.285   2.226  0.9524 -0.1394 -1.3930
27598SOL    HW294854   5.080   9.151   2.241  0.1001 -0.6570 -0.7378
27599SOL     OW94855   9.991   3.390   5.754  0.3067  0.3007 -0.2815
27599SOL    HW194856   9.892   3.372   5.747  0.3984 -0.0826 -0.6191
27599SOL    HW294857  10.031   3.330   5.823  0.3798  0.1526 -0.4537
27600SOL     OW94858   4.498   6.440   0.789  0.0707  0.4348  0.4077
27600SOL    HW194859   4.530   6.423   0.695 -2.8598 -3.6446  0.0018
27600SOL    HW294860   4.573   6.425   0.853  1.3821  0.4588 -1.0892
27601SOL     OW94861   6.285   1.126   5.208 -0.3556  0.6427 -0.1415
27601SOL    HW194862   6.379   1.095   5.223 -0.6407 -0.5972 -0.8564
27601SOL    HW294863   6.222   1.050   5.224 -1.2466  1.4975  0.4479
27602SOL     OW94864   0.957   4.490   5.494 -0.2477  0.2361 -0.2707
27602SOL    HW194865   0.892   4.566   5.489 -0.6533  0.0103  1.2445
27602SOL    HW294866   1.047   4.525   5.522 -0.2450  0.2768 -0.3322
27603SOL     OW94867   1.856   8.532   1.718  0.1332 -0.4611  0.2149
27603SOL    HW194868   1.955   8.531   1.723  0.0969  0.0002  1.4424
27603SOL    HW294869   1.818   8.477   1.793 -0.5352  2.0098  1.7787
27604SOL     OW94870   2.741   9.062   6.851  0.6201  0.4778  0.1594
27604SOL    HW194871   2.723   9.048   6.948  0.9567 -0.9914  0.0176
27604SOL    HW294872   2.775   8.977   6.810  1.7324  1.4453 -0.9679
27605SOL     OW94873   1.617   3.299   6.720 -0.4741 -0.0215  0.5034
27605SOL    HW194874   1.689   3.369   6.715 -0.5185  0.0964  1.3378
27605SOL    HW294875   1.607   3.255   6.631  1.3609 -0.7650  0.6427
27606SOL     OW94876   1.406   9.404  10.040 -0.0624 -0.0346 -0.5759
27606SOL    HW194877   1.355   9.358  10.113  0.1685  0.7287  0.0787
27606SOL    HW294878   1.491   9.441  10.077 -0.2029  0.8436 -1.1018
27607SOL     OW94879   6.717   2.563   9.488 -0.2813  0.3769  0.4994
27607SOL    HW194880   6.627   2.527   9.463  0.4186 -0.3144 -1.1127
27607SOL    HW294881   6.772   2.491   9.529  0.7061 -0.1351 -1.6453
27608SOL     OW94882   3.497   6.804  10.055 -0.9629 -0.4325  0.2521
27608SOL    HW194883   3.545   6.729  10.102 -2.3376 -1.5025 -0.0059
27608SOL    HW294884   3.507   6.793   9.956  0.5347  0.8924  0.2265
27609SOL     OW94885   0.571   5.772   5.345 -0.3788 -0.3991 -0.1859
27609SOL    HW194886   0.592   5.834   5.269  0.3663 -0.4578 -0.0264
27609SOL    HW294887   0.530   5.824   5.420  0.3117 -0.0933 -0.0231
27610SOL     OW94888   1.033   4.986   2.776  0.2131 -0.5468  0.0962
27610SOL    HW194889   1.032   5.061   2.711  0.3055 -1.6148 -1.1630
27610SOL    HW294890   0.990   5.015   2.862 -0.1111  0.8049 -0.5149
27611SOL     OW94891   7.780   1.395   4.852 -0.5774 -0.0883  0.1126
27611SOL    HW194892   7.835   1.435   4.779 -1.7993  0.0007 -0.7647
27611SOL    HW294893   7.774   1.459   4.928  0.2797  0.0221  0.0965
27612SOL     OW94894   7.445   2.784  10.028 -0.4882  0.1577  0.1539
27612SOL    HW194895   7.401   2.841  10.097 -0.0031  1.1085 -0.3167
27612SOL    HW294896   7.477   2.841   9.952 -1.0673 -0.8865 -0.8876
27613SOL     OW94897   0.736   8.714   1.101 -0.3171 -0.1471  0.0158
27613SOL    HW194898   0.780   8.697   1.013 -0.6755  0.2428 -0.2391
27613SOL    HW294899   0.708   8.627   1.141 -1.3574 -0.2367 -0.8793
27614SOL     OW94900   9.765   6.031   2.589  0.3602 -0.3049 -0.6557
27614SOL    HW194901   9.863   6.034   2.570  0.4246  0.5944 -0.2325
27614SOL    HW294902   9.714   6.041   2.504  0.6463  1.6249 -0.6257
27615SOL     OW94903   8.781   9.657   2.132  0.3017 -0.1897  0.2186
27615SOL    HW194904   8.714   9.639   2.060  2.4202  0.0912 -1.8843
27615SOL    HW294905   8.789   9.756   2.145 -0.6034 -0.2621  1.3762
27616SOL     OW94906   1.404   0.411   2.460 -0.2489 -0.4825  0.7348
27616SOL    HW194907   1.498   0.445   2.470 -0.0476 -0.9733  0.5259
27616SOL    HW294908   1.352   0.433   2.543 -0.2681  0.7897  0.3938
27617SOL     OW94909   2.344   0.493   1.711  0.2741 -0.3131 -0.1950
27617SOL    HW194910   2.443   0.503   1.708  0.1997 -0.1288 -3.4836
27617SOL    HW294911   2.304   0.574   1.755  1.3953  1.2750 -2.0251
27618SOL     OW94912   1.312   8.229   4.423 -0.3593  0.8115 -0.5340
27618SOL    HW194913   1.335   8.169   4.346  2.0304  0.3424  0.4786
27618SOL    HW294914   1.217   8.214   4.450 -1.1537  0.8145 -3.2186
27619SOL     OW94915   9.378   1.254   3.358 -1.2619 -0.0414  0.2674
27619SOL    HW194916   9.460   1.312   3.350 -0.7222 -1.1151 -2.7990
27619SOL    HW294917   9.354   1.244   3.454 -0.3474  3.8363  1.0158
27620SOL     OW94918   1.456   3.060   5.991  0.3897 -0.5254  0.1818
27620SOL    HW194919   1.405   2.995   5.933 -0.9530  0.0796  0.6609
27620SOL    HW294920   1.497   3.011   6.067  0.1352 -0.9550  0.0464
27621SOL     OW94921   8.610   3.235   8.158  0.0158  0.0027  0.1521
27621SOL    HW194922   8.555   3.250   8.240 -0.1405 -0.2666  0.0980
27621SOL    HW294923   8.675   3.161   8.175  0.6928  0.6497  0.3744
27622SOL     OW94924   4.436   3.841   9.769  0.1919 -0.1463  0.3374
27622SOL    HW194925   4.528   3.834   9.733  0.4457  0.6849  0.7989
27622SOL    HW294926   4.431   3.794   9.858 -0.0028 -0.7655 -0.0011
27623SOL     OW94927   3.766   9.137   7.318 -0.3725 -0.3437  0.3679
27623SOL    HW194928   3.686   9.177   7.363  0.0796  2.1247 -0.9386
27623SOL    HW294929   3.743   9.114   7.224  1.1537  2.9116 -0.8631
27624SOL     OW94930   7.412   1.036   8.879  0.0550  0.0617  0.2440
27624SOL    HW194931   7.436   1.053   8.783  0.4152 -2.4356 -0.1667
27624SOL    HW294932   7.496   1.026   8.933 -0.1460  1.0869  0.7504
27625SOL     OW94933   4.829   6.670   2.935  0.0204  0.4648 -0.7811
27625SOL    HW194934   4.857   6.689   2.840 -1.6058  0.8207 -1.1983
27625SOL    HW294935   4.741   6.712   2.953  0.8775  1.4359  1.3071
27626SOL     OW94936   8.086   9.541   5.412 -0.0870  0.1745 -0.1774
27626SOL    HW194937   8.037   9.455   5.408  0.5924 -0.3374  1.9676
27626SOL    HW294938   8.180   9.525   5.444 -0.5039  1.9065  2.0456
27627SOL     OW94939   7.316   7.968   5.092 -0.2290 -0.3832 -0.3551
27627SOL    HW194940   7.398   7.920   5.060  0.8285  0.7988  0.5741
27627SOL    HW294941   7.253   7.981   5.015  1.2262  0.2759 -1.4566
27628SOL     OW94942   1.155   4.013   1.151 -0.5857 -0.7997  0.2470
27628SOL    HW194943   1.130   4.023   1.247  0.1333 -1.4202  0.4979
27628SOL    HW294944   1.254   4.013   1.141 -0.6568 -0.3014 -0.5469
27629SOL     OW94945   7.568   2.858   5.031 -0.0894 -0.3191 -0.8947
27629SOL    HW194946   7.585   2.864   4.932  0.8269  1.6757 -0.6314
27629SOL    HW294947   7.587   2.946   5.074 -0.6398 -1.1232  1.0578
27630SOL     OW94948   9.416   0.624   5.547  0.5153  0.0512  0.3039
27630SOL    HW194949   9.488   0.677   5.502  0.0346  0.2650 -0.2112
27630SOL    HW294950   9.457   0.566   5.618  1.1916  0.1842  0.0242
27631SOL     OW94951   9.346   0.888   7.848 -0.1925  0.2021 -0.1255
27631SOL    HW194952   9.424   0.864   7.906 -0.1273 -1.7462 -0.9559
27631SOL    HW294953   9.278   0.815   7.852 -2.5145  2.3737  1.4406
27632SOL     OW94954   2.351   8.751   2.279 -0.0669 -0.2595  0.4532
27632SOL    HW194955   2.298   8.687   2.335 -1.2203 -0.1606 -0.5055
27632SOL    HW294956   2.401   8.700   2.210 -2.3827 -0.0234 -1.4564
27633SOL     OW94957   2.995   5.575   7.636  0.1053  0.3156 -0.1355
27633SOL    HW194958   3.009   5.655   7.694 -1.2159  0.1620  0.4234
27633SOL    HW294959   3.074   5.514   7.642  0.6285  1.0300  0.3134
27634SOL     OW94960   0.804   5.416   7.710 -0.1457  0.8053 -0.2515
27634SOL    HW194961   0.894   5.374   7.710 -0.7721 -0.6078  1.5905
27634SOL    HW294962   0.757   5.395   7.624  1.6526  2.4537 -1.6768
27635SOL     OW94963   3.344   2.152   9.554  0.3724  0.1372 -0.0596
27635SOL    HW194964   3.283   2.074   9.540  0.3802 -0.0145  0.7261
27635SOL    HW294965   3.373   2.188   9.465  0.3662 -0.7542 -0.4301
27636SOL     OW94966   7.868   0.309   5.390  0.5122  0.8251  0.3558
27636SOL    HW194967   7.860   0.296   5.291  2.5165  0.5768  0.2155
27636SOL    HW294968   7.790   0.363   5.422 -1.0356 -0.4846 -1.0909
27637SOL     OW94969   4.710   5.228   1.712  0.1226  0.4613  0.1493
27637SOL    HW194970   4.767   5.194   1.787  1.7463 -0.5925 -1.5398
27637SOL    HW294971   4.625   5.175   1.708  0.7514 -0.5602  0.2214
27638SOL     OW94972   0.937   8.674   8.397 -0.4907  0.5442  0.4107
27638SOL    HW194973   0.955   8.615   8.476  0.5096  0.6816  0.2886
27638SOL    HW294974   0.983   8.761   8.409 -0.8293  0.7888 -0.0551
27639SOL     OW94975   9.859   8.535   8.171 -0.8093 -0.1871  0.4820
27639SOL    HW194976   9.849   8.633   8.189 -2.1451 -0.2132 -0.0888
27639SOL    HW294977   9.826   8.514   8.079 -1.0213 -1.2615  0.7948
27640SOL     OW94978   3.626   2.035   5.003 -0.0998 -0.1158 -0.2340
27640SOL    HW194979   3.571   2.116   4.979  0.1482  0.4584  1.0687
27640SOL    HW294980   3.573   1.977   5.065 -0.0130 -0.6194 -0.6285
27641SOL     OW94981   5.545   1.314   6.530  0.3247 -0.0627 -0.1758
27641SOL    HW194982   5.574   1.393   6.583  1.0853 -1.3643  1.3910
27641SOL    HW294983   5.458   1.333   6.486  1.4916  2.3752 -1.4978
27642SOL     OW94984   3.376   2.978   7.974  0.2759  0.9639 -0.0749
27642SOL    HW194985   3.438   2.938   7.906 -0.1843 -1.1793  0.7463
27642SOL    HW294986   3.282   2.972   7.942 -0.4362 -3.9508  2.4649
27643SOL     OW94987   0.268   0.044   0.292  0.2099 -0.3881 -0.1280
27643SOL    HW194988   0.182   0.095   0.285  0.9083  0.8407  0.1270
27643SOL    HW294989   0.264  -0.018   0.370  0.1437  0.8029  0.8117
27644SOL     OW94990   2.181   6.958   1.243 -0.0912  0.2651 -0.2462
27644SOL    HW194991   2.241   7.032   1.214 -0.5573  0.5673 -0.4429
27644SOL    HW294992   2.150   6.975   1.336 -2.4636  1.7890 -1.2683
27645SOL     OW94993   5.447   8.035   6.264 -0.0261 -0.5177 -0.2031
27645SOL    HW194994   5.363   8.007   6.218 -0.0437 -0.1683 -0.3786
27645SOL    HW294995   5.523   7.980   6.230  0.0468  0.0656 -1.0046
27646SOL     OW94996   0.114   0.421   7.244 -0.1389  0.0999 -0.1236
27646SOL    HW194997   0.139   0.446   7.151 -1.8134 -0.5556 -0.7766
27646SOL    HW294998   0.025   0.376   7.244  0.5995 -1.4501  1.5958
27647SOL     OW94999   8.157   6.373   8.911  0.0494  0.8353  0.3766
27647SOL    HW195000   8.137   6.445   8.978 -0.0375  1.8339 -0.6981
27647SOL    HW295001   8.242   6.396   8.862  0.6766 -0.4115  0.8541
27648SOL     OW95002   9.485   4.974   0.012  0.1063  0.9163  0.1387
27648SOL    HW195003   9.446   4.899  -0.041  0.8687  0.4377  0.2660
27648SOL    HW295004   9.576   4.996  -0.022  0.8136  0.2733  1.5640
27649SOL     OW95005   1.341   9.771   5.415 -0.4498  0.0777 -0.0779
27649SOL    HW195006   1.262   9.711   5.402 -0.2795 -0.4796  1.4813
27649SOL    HW295007   1.325   9.830   5.494 -0.1699  1.3861 -0.9777
27650SOL     OW95008   1.622   5.921   8.401  0.1627  0.4488 -0.3334
27650SOL    HW195009   1.643   6.019   8.396  2.7900 -0.0200  0.6900
27650SOL    HW295010   1.627   5.890   8.496 -0.0797 -0.8093 -0.7146
27651SOL     OW95011   7.372   5.838   5.720 -0.0086  0.5101 -0.1161
27651SOL    HW195012   7.331   5.885   5.798 -0.5737 -0.9202  0.4616
27651SOL    HW295013   7.362   5.740   5.731  0.1301  0.2793 -1.8880
27652SOL     OW95014   0.930   5.783   3.754  0.4541  0.5286  0.2548
27652SOL    HW195015   0.852   5.724   3.731  1.6714 -1.6450  1.5334
27652SOL    HW295016   1.006   5.762   3.692  1.3000 -0.1402  1.5026
27653SOL     OW95017   2.617   2.567   1.893  0.1944 -0.2864  0.3030
27653SOL    HW195018   2.698   2.509   1.894  2.0460  2.2245  1.8647
27653SOL    HW295019   2.547   2.529   1.953  0.6368 -1.8796 -0.1851
27654SOL     OW95020   7.773   9.490   4.318  0.6600 -0.0231  0.5564
27654SOL    HW195021   7.783   9.501   4.219  1.6679 -1.2482  0.5154
27654SOL    HW295022   7.862   9.474   4.359  0.1366 -0.4566  1.5434
27655SOL     OW95023   9.829   9.750   8.214  0.3267 -0.1242  0.0489
27655SOL    HW195024   9.845   9.840   8.255 -1.5639 -0.1563  0.9288
27655SOL    HW295025   9.916   9.712   8.182  1.5483  0.8407  2.1107
27656SOL     OW95026   7.008   1.853   2.056  0.0072  0.2507 -0.1701
27656SOL    HW195027   7.062   1.929   2.094 -1.7007  0.8440  1.1475
27656SOL    HW295028   7.068   1.793   2.004  1.6953  1.6299  0.1111
27657SOL     OW95029   0.655   6.925   1.389  0.2096 -0.0652  0.2430
27657SOL    HW195030   0.571   6.876   1.363 -0.0252  0.0206  0.8158
27657SOL    HW295031   0.642   6.966   1.480 -0.1271  2.2630 -0.7994
27658SOL     OW95032   0.667   3.148   1.189 -0.2656  0.1974  0.3584
27658SOL    HW195033   0.720   3.170   1.107  0.0536 -1.7175  0.0107
27658SOL    HW295034   0.724   3.094   1.251 -0.1018  2.6525  2.4185
27659SOL     OW95035   7.183   1.239   3.910  0.5940  0.1903 -0.9412
27659SOL    HW195036   7.207   1.303   3.837  1.0226 -2.3380 -3.1179
27659SOL    HW295037   7.262   1.224   3.969  1.4303 -0.5778 -2.2193
27660SOL     OW95038   2.187   0.894   3.662 -0.5324  0.3487 -0.2047
27660SOL    HW195039   2.138   0.864   3.581  0.7514  0.4156 -1.0260
27660SOL    HW295040   2.153   0.983   3.691 -0.1466  0.9011 -1.4271
27661SOL     OW95041   0.324   1.913   5.656 -0.2220  0.4184 -0.0123
27661SOL    HW195042   0.330   1.975   5.578  0.1262  1.4884  0.8583
27661SOL    HW295043   0.237   1.928   5.703 -0.4960 -0.3280 -0.2828
27662SOL     OW95044   3.029   8.465   0.310  0.2067 -0.5321 -0.1123
27662SOL    HW195045   3.022   8.476   0.211  0.8007 -0.1056 -0.1064
27662SOL    HW295046   3.109   8.514   0.343 -0.8267  0.5953  0.7737
27663SOL     OW95047   1.567   2.619   3.892 -0.7088 -0.4106  0.0045
27663SOL    HW195048   1.593   2.686   3.823 -2.5436  0.2235 -0.0708
27663SOL    HW295049   1.631   2.624   3.969  0.4403 -0.0807 -0.9628
27664SOL     OW95050   5.367   4.043   0.556  0.2479 -0.3952  0.5801
27664SOL    HW195051   5.462   4.062   0.528  0.3947 -0.5134  0.9948
27664SOL    HW295052   5.304   4.084   0.490  0.5765  0.5336  0.8381
27665SOL     OW95053   4.359   3.854   2.789  0.4570  0.4809 -0.2260
27665SOL    HW195054   4.443   3.821   2.746  0.3692  0.3352 -0.2873
27665SOL    HW295055   4.301   3.776   2.812  0.9709  0.4813  1.1321
27666SOL     OW95056   8.416   8.343   1.171  0.8831 -0.2609  0.4130
27666SOL    HW195057   8.461   8.271   1.118  2.0610  0.5750  0.2595
27666SOL    HW295058   8.347   8.387   1.114  0.0113 -1.3963  0.5715
27667SOL     OW95059   2.309   4.757   9.890 -0.0814 -0.1695  0.0651
27667SOL    HW195060   2.303   4.702   9.806 -0.8819 -1.6515  1.0697
27667SOL    HW295061   2.397   4.804   9.893  0.5133 -1.1876 -0.9481
27668SOL     OW95062   2.322   6.784   9.737  0.1464 -0.7804 -0.7045
27668SOL    HW195063   2.261   6.829   9.673  0.2598  0.4826  0.0664
27668SOL    HW295064   2.413   6.826   9.733 -1.1853  2.9639  4.0414
27669SOL     OW95065   9.171   6.879   0.595  0.1901  0.0595 -0.5760
27669SOL    HW195066   9.108   6.885   0.517  1.5765  3.0666 -1.5312
27669SOL    HW295067   9.120   6.891   0.680 -1.3423 -3.2356 -0.9455
27670SOL     OW95068   1.206   6.970   0.670 -0.0736  0.4530  0.1910
27670SOL    HW195069   1.263   6.990   0.590  0.4441  0.7775  0.6374
27670SOL    HW295070   1.137   7.041   0.681 -0.4793  0.1258 -0.2807
27671SOL     OW95071   4.777   3.034   8.259  0.3070 -0.4202 -0.6952
27671SOL    HW195072   4.862   3.018   8.209  0.3659  0.9013 -1.0595
27671SOL    HW295073   4.774   2.976   8.340  1.8265 -0.0809 -0.3755
27672SOL     OW95074   4.751   8.112   5.076 -0.4725  0.1044 -0.6995
27672SOL    HW195075   4.797   8.182   5.131  0.0980 -0.3006 -0.6605
27672SOL    HW295076   4.730   8.149   4.986 -0.2612  0.3630 -0.6428
27673SOL     OW95077   2.136   4.770   3.406  0.6563  0.1789 -0.1168
27673SOL    HW195078   2.213   4.831   3.385  1.0198  0.3205  1.6079
27673SOL    HW295079   2.149   4.684   3.357  2.0740  0.0855  0.3870
27674SOL     OW95080   4.531   0.065   6.744 -0.2687  0.1486  0.1193
27674SOL    HW195081   4.573   0.152   6.717  1.3390  0.1298  2.3350
27674SOL    HW295082   4.569  -0.009   6.690  0.2102  0.5316 -0.0730
27675SOL     OW95083   2.980   7.329   5.295 -0.0584  0.3784  0.1132
27675SOL    HW195084   2.993   7.423   5.325 -0.9129  0.7908 -0.7975
27675SOL    HW295085   2.883   7.313   5.275 -0.1192 -1.0356  1.3937
27676SOL     OW95086   4.546   1.391   7.682  0.4998 -0.1743  0.2364
27676SOL    HW195087   4.556   1.454   7.758 -0.7570 -0.9573  1.0839
27676SOL    HW295088   4.613   1.412   7.611  2.0427  0.2253  1.7861
27677SOL     OW95089   4.470   2.325   5.400  0.0397  0.5889  0.3740
27677SOL    HW195090   4.538   2.323   5.474  0.4848  0.3697 -0.0356
27677SOL    HW295091   4.457   2.233   5.364 -0.0671  0.7176  0.0810
27678SOL     OW95092   4.548   4.572   0.254  0.4258  0.0305 -0.7847
27678SOL    HW195093   4.520   4.528   0.168  0.3790 -1.7373  0.1140
27678SOL    HW295094   4.628   4.525   0.291  0.8113  1.1587 -0.1515
27679SOL     OW95095   2.401   8.831   7.300  0.0848 -0.3584 -0.2795
27679SOL    HW195096   2.346   8.750   7.280  0.8752 -0.6159 -1.4867
27679SOL    HW295097   2.423   8.834   7.397  0.8034 -2.0790 -0.3834
27680SOL     OW95098   3.604   0.936   5.565  0.3839  0.4427 -0.6409
27680SOL    HW195099   3.638   1.005   5.629  0.7292 -1.3076  1.1190
27680SOL    HW295100   3.504   0.942   5.559  0.4839  1.6441 -1.1582
27681SOL     OW95101   9.301   5.550   1.515 -0.0321  0.2146 -0.0041
27681SOL    HW195102   9.214   5.512   1.545 -0.0498  0.1696 -0.1127
27681SOL    HW295103   9.290   5.589   1.423 -0.1240  0.8690  0.2782
27682SOL     OW95104   3.741   5.987   1.849  0.1962  0.5660 -0.4533
27682SOL    HW195105   3.745   6.050   1.771  1.4730  2.1359  0.8409
27682SOL    HW295106   3.739   6.040   1.934  2.6285 -1.1558  0.7131
27683SOL     OW95107   9.653   8.240   9.606  0.0313  0.2729 -0.2233
27683SOL    HW195108   9.732   8.199   9.652 -0.3392  2.5988  2.5913
27683SOL    HW295109   9.570   8.189   9.630  0.1608  0.0954 -0.1530
27684SOL     OW95110   2.311   7.522   2.782  0.5569  0.5029 -0.6102
27684SOL    HW195111   2.314   7.608   2.732 -1.1940  1.1718  0.3992
27684SOL    HW295112   2.304   7.540   2.880 -0.6470 -0.7792 -0.4482
27685SOL     OW95113   6.629   8.642   2.338 -0.4608  0.2633 -0.0487
27685SOL    HW195114   6.683   8.559   2.329 -0.7120  0.2196 -1.3451
27685SOL    HW295115   6.682   8.720   2.307 -1.8340 -0.0714 -3.5939
27686SOL     OW95116   4.255   1.149   7.101 -0.0625  0.1536  0.3004
27686SOL    HW195117   4.192   1.201   7.045 -1.7060 -2.4114 -0.2964
27686SOL    HW295118   4.349   1.168   7.073 -0.7140  1.5369 -0.9581
27687SOL     OW95119   1.597   8.742   5.448 -0.0160  0.2933 -0.4393
27687SOL    HW195120   1.656   8.672   5.488  1.7802  1.1288 -1.5534
27687SOL    HW295121   1.569   8.714   5.356  0.3376  0.8383 -0.7141
27688SOL     OW95122   0.661   1.795   7.037 -1.0838  0.0799 -0.0969
27688SOL    HW195123   0.650   1.838   7.127 -1.5626  1.7106 -0.9194
27688SOL    HW295124   0.751   1.817   7.001 -1.9763  1.8720 -1.2782
27689SOL     OW95125   8.668   5.172   5.721  0.4592 -0.3322 -0.0507
27689SOL    HW195126   8.587   5.179   5.662 -1.0781  2.9261  2.2973
27689SOL    HW295127   8.736   5.239   5.692  0.2631  0.3306  1.0029
27690SOL     OW95128   7.908   9.392   1.876  0.0042  0.4206  0.3845
27690SOL    HW195129   7.843   9.317   1.861  0.0557  0.2356  1.0480
27690SOL    HW295130   7.981   9.387   1.808 -0.0240 -0.1061  0.3848
27691SOL     OW95131   7.959   4.237   2.788  0.3325  0.4468 -0.5118
27691SOL    HW195132   7.994   4.168   2.726  0.3687 -0.1329  0.1478
27691SOL    HW295133   8.024   4.314   2.792 -0.9801  1.7383 -3.2723
27692SOL     OW95134   2.694   1.171   7.733 -0.0543 -0.2979  0.1400
27692SOL    HW195135   2.783   1.127   7.723 -1.1475 -2.1041 -2.1342
27692SOL    HW295136   2.703   1.270   7.720  1.4840 -0.5804 -1.0160
27693SOL     OW95137   9.172   6.172   9.396 -0.2863 -0.6104  0.9337
27693SOL    HW195138   9.104   6.242   9.374  0.0732 -0.3310  0.7129
27693SOL    HW295139   9.143   6.084   9.359  0.3020 -0.1592 -0.6406
27694SOL     OW95140   3.472   7.272   4.175  0.6523  0.6088 -0.3819
27694SOL    HW195141   3.536   7.284   4.251  0.5435 -1.2807  0.0543
27694SOL    HW295142   3.408   7.349   4.172  0.7159  0.7457  1.4023
27695SOL     OW95143   8.308   6.758   7.008 -0.1679 -0.1250 -0.3288
27695SOL    HW195144   8.401   6.728   6.987  0.3740  1.2315  0.0998
27695SOL    HW295145   8.257   6.770   6.922  0.0309 -0.9339 -0.5623
27696SOL     OW95146   4.272   2.322   1.788  0.0756 -0.6015  0.0128
27696SOL    HW195147   4.321   2.384   1.849  0.3560 -2.2412  1.4991
27696SOL    HW295148   4.188   2.291   1.832 -0.2746 -0.9539 -0.8919
27697SOL     OW95149   6.744   4.051   1.247  0.3122  1.0720  0.3524
27697SOL    HW195150   6.754   3.989   1.325  2.4749  0.8315 -0.0793
27697SOL    HW295151   6.746   3.999   1.162  0.2806  1.5504  0.0568
27698SOL     OW95152   5.266   5.140   8.761 -0.2636 -0.1138 -0.2339
27698SOL    HW195153   5.196   5.163   8.693 -0.9232  0.5846  0.6603
27698SOL    HW295154   5.351   5.113   8.714 -0.7360  0.2597 -1.3268
27699SOL     OW95155   3.226   3.271   7.563 -0.0106 -0.5613 -0.5266
27699SOL    HW195156   3.324   3.260   7.550  0.1785  1.2914 -0.8794
27699SOL    HW295157   3.179   3.257   7.476  0.2748  1.6405 -1.0852
27700SOL     OW95158   0.217   7.928   4.782 -0.3403 -0.1038  0.4626
27700SOL    HW195159   0.277   7.931   4.702  1.2566  0.6738  1.6745
27700SOL    HW295160   0.226   7.840   4.828  1.1125  0.6167  1.5756
27701SOL     OW95161   2.072   1.579   8.707  0.5883 -0.3675  0.5423
27701SOL    HW195162   1.975   1.594   8.727  0.5957  0.3210  0.0777
27701SOL    HW295163   2.101   1.639   8.632  1.1074 -1.3375 -0.0528
27702SOL     OW95164   0.779   8.618   7.833 -0.6742  0.0221 -0.2311
27702SOL    HW195165   0.879   8.612   7.841 -0.6870  0.1853  0.0426
27702SOL    HW295166   0.739   8.626   7.924 -0.7872  2.4961 -0.4620
27703SOL     OW95167   7.759   6.481   2.243  0.4332  0.4860  0.1173
27703SOL    HW195168   7.794   6.488   2.149  0.6458  0.1621  0.1696
27703SOL    HW295169   7.743   6.572   2.279 -0.0722  0.6018 -0.3927
27704SOL     OW95170   6.018   1.805   0.979  0.5289 -0.2462  0.3484
27704SOL    HW195171   6.091   1.739   0.994 -0.5003 -1.2673  1.0018
27704SOL    HW295172   5.972   1.823   1.066  0.1631  0.5695 -0.0125
27705SOL     OW95173   4.276   0.905   5.937 -0.3749 -0.0198  0.4560
27705SOL    HW195174   4.260   0.997   5.973  1.7851  0.3996  0.4103
27705SOL    HW295175   4.316   0.847   6.008 -0.2165 -0.4512  0.0255
27706SOL     OW95176   1.625   7.429   8.718 -0.2927  0.3564  0.2622
27706SOL    HW195177   1.674   7.513   8.695  0.8489 -0.2182  0.5687
27706SOL    HW295178   1.619   7.371   8.637  3.3998 -1.5004  1.1774
27707SOL     OW95179   2.423   4.950   2.235 -0.1511  0.1399 -0.1566
27707SOL    HW195180   2.365   4.896   2.174 -0.5073  1.8416 -1.3460
27707SOL    HW295181   2.490   5.002   2.181 -0.2684  1.4341  0.9122
27708SOL     OW95182   5.277   2.650   0.520 -0.2758  0.3092  0.4340
27708SOL    HW195183   5.216   2.578   0.553  1.3182 -1.0380  0.4716
27708SOL    HW295184   5.241   2.687   0.434 -0.6315 -1.1349 -0.0441
27709SOL     OW95185   8.862   2.628   2.450 -0.4337 -0.3430  0.4980
27709SOL    HW195186   8.794   2.691   2.413  0.3441  0.0570 -0.2824
27709SOL    HW295187   8.925   2.678   2.510 -0.9038 -0.7377  1.3330
27710SOL     OW95188   2.103   2.802   5.799  0.4139 -0.0038  0.1543
27710SOL    HW195189   2.130   2.858   5.720 -1.2651  1.0509  0.3009
27710SOL    HW295190   2.045   2.727   5.768 -0.7922  0.7967  0.4499
27711SOL     OW95191   9.187   5.586   6.235  0.1716  0.2656 -0.3825
27711SOL    HW195192   9.172   5.625   6.326  0.0023 -1.2867  0.2728
27711SOL    HW295193   9.284   5.597   6.211  0.3596  0.0904  0.2700
27712SOL     OW95194   3.616   8.400   5.678 -0.1995 -0.5028  0.4407
27712SOL    HW195195   3.687   8.435   5.617 -1.3378 -2.9458 -2.3611
27712SOL    HW295196   3.659   8.369   5.763  1.5585  1.6934  0.4200
27713SOL     OW95197   4.112   3.011   1.480  0.3453 -0.6260 -0.2502
27713SOL    HW195198   4.093   3.086   1.416 -1.0040 -0.8236 -0.0910
27713SOL    HW295199   4.131   2.927   1.428  1.5376 -0.2528 -0.4230
27714SOL     OW95200   9.153   5.658   2.507  0.2217  0.5219 -0.4097
27714SOL    HW195201   9.246   5.653   2.470 -0.3710  0.1312 -1.9165
27714SOL    HW295202   9.134   5.575   2.559  0.4242  0.2083 -0.8284
27715SOL     OW95203   2.765   9.683   1.507  0.3787 -0.3242  0.4324
27715SOL    HW195204   2.733   9.637   1.590 -0.9081 -1.0252 -0.4376
27715SOL    HW295205   2.740   9.780   1.510 -0.6249 -0.5746  0.3901
27716SOL     OW95206   5.191   3.038   5.045 -0.0303  0.6681 -0.7002
27716SOL    HW195207   5.162   3.023   4.951 -2.9628 -1.5304  0.4374
27716SOL    HW295208   5.266   2.976   5.067 -2.0218 -1.7789 -0.4916
27717SOL     OW95209   1.317   8.857   4.078 -0.4361 -0.4122  0.8574
27717SOL    HW195210   1.399   8.857   4.135 -0.3546 -1.0444  0.7412
27717SOL    HW295211   1.255   8.785   4.109 -0.3084 -0.8800  0.0152
27718SOL     OW95212   6.788   3.484   2.687  0.6284  0.2887 -0.0491
27718SOL    HW195213   6.734   3.399   2.691 -0.0821  0.7187 -0.3455
27718SOL    HW295214   6.872   3.467   2.636 -0.2705  0.1596 -1.5037
27719SOL     OW95215   4.441   5.029   7.842  0.0160  0.2429  1.1229
27719SOL    HW195216   4.487   4.971   7.774 -0.0724 -0.4441  1.6376
27719SOL    HW295217   4.431   5.121   7.806 -0.9157 -0.3547 -0.2054
27720SOL     OW95218   3.064   0.639   7.220  0.0812  0.2923  0.2906
27720SOL    HW195219   3.006   0.688   7.155  0.1589 -0.3776 -0.2963
27720SOL    HW295220   3.025   0.548   7.237 -0.1419  0.6032  1.4761
27721SOL     OW95221   7.224   3.864   3.935 -0.0016 -0.1216  0.9375
27721SOL    HW195222   7.179   3.933   3.878  1.3320 -0.2587 -0.3526
27721SOL    HW295223   7.173   3.778   3.930 -0.4118  0.1345  0.6782
27722SOL     OW95224   9.720   2.933   4.640 -0.0408  0.6326 -0.1917
27722SOL    HW195225   9.735   2.834   4.641 -0.9013  0.4820 -1.1889
27722SOL    HW295226   9.739   2.971   4.731  1.2099 -0.2980 -0.0538
27723SOL     OW95227   6.594   8.430   6.573  0.4152  0.5108  0.6912
27723SOL    HW195228   6.650   8.511   6.554  1.1608 -0.2287 -0.3292
27723SOL    HW295229   6.635   8.350   6.528 -0.9676 -0.2169  0.7085
27724SOL     OW95230   1.774   0.200   6.304 -0.1374 -0.2478  0.2572
27724SOL    HW195231   1.769   0.194   6.403  2.7157 -2.4175  0.3252
27724SOL    HW295232   1.792   0.294   6.277 -1.9116  0.5421  1.7047
27725SOL     OW95233   3.232   8.605   8.141 -0.4522 -0.1710  0.0547
27725SOL    HW195234   3.202   8.569   8.229  0.6018  0.5534  0.7231
27725SOL    HW295235   3.180   8.561   8.068 -0.6887 -1.4660  0.9723
27726SOL     OW95236   8.167   7.446   6.344 -0.1621  0.5057 -0.6697
27726SOL    HW195237   8.210   7.479   6.259 -0.2371 -1.3824 -1.4696
27726SOL    HW295238   8.238   7.433   6.414  0.0745  0.8358 -0.8444
27727SOL     OW95239   6.993   5.383   1.269  0.7896  0.0031 -0.5477
27727SOL    HW195240   6.947   5.315   1.326 -1.1526  1.7200 -0.0006
27727SOL    HW295241   7.088   5.393   1.298  0.1866 -0.1060  1.5381
27728SOL     OW95242   8.476   4.807   0.608 -0.1484 -0.2175  0.3189
27728SOL    HW195243   8.432   4.869   0.673 -0.8548 -0.7401  0.3388
27728SOL    HW295244   8.542   4.859   0.553  0.0744  0.3245  1.0964
27729SOL     OW95245   4.026   9.671   5.415  0.8001  0.1521  0.0598
27729SOL    HW195246   4.001   9.763   5.383  1.4079  1.4944  3.2631
27729SOL    HW295247   4.105   9.677   5.476 -0.6526 -2.1993  2.2584
27730SOL     OW95248   3.227   1.431   1.825 -0.3655  0.1098  0.4064
27730SOL    HW195249   3.164   1.496   1.782  0.4243  0.8735  0.3889
27730SOL    HW295250   3.294   1.481   1.879 -0.4396 -0.7644  1.3292
27731SOL     OW95251   3.909   2.432   7.013  0.4503  0.3386 -0.0599
27731SOL    HW195252   3.825   2.383   6.989 -0.1236  0.3103  1.9102
27731SOL    HW295253   3.893   2.530   7.004 -0.1938  0.3912  1.4437
27732SOL     OW95254   4.421   9.264   7.437 -0.1938 -0.0675  0.6297
27732SOL    HW195255   4.457   9.348   7.477  1.1522 -0.7314  0.8246
27732SOL    HW295256   4.493   9.218   7.386 -0.7787 -1.4179  1.0138
27733SOL     OW95257   8.657   4.981   7.169  0.4619 -0.1035 -0.2297
27733SOL    HW195258   8.695   5.018   7.254  1.1943 -1.1576 -0.0904
27733SOL    HW295259   8.599   4.903   7.190  0.9890 -0.6316 -0.7306
27734SOL     OW95260   9.430   8.530   9.267 -0.3245 -0.2576  0.4444
27734SOL    HW195261   9.528   8.517   9.283  0.1298  1.4919 -0.7610
27734SOL    HW295262   9.400   8.469   9.194  0.1067 -0.0216  0.0680
27735SOL     OW95263   0.756   4.039   1.082  0.2586  0.0211 -0.2836
27735SOL    HW195264   0.701   3.995   1.011  1.4963 -2.0458 -0.0166
27735SOL    HW295265   0.851   4.046   1.051  0.2026  1.9422 -0.0485
27736SOL     OW95266   9.111   7.618  10.052  0.3412 -0.0161 -0.2100
27736SOL    HW195267   9.106   7.536   9.995 -1.7328 -0.1607  0.1736
27736SOL    HW295268   9.049   7.688  10.016 -1.3331 -0.2742  2.1274
27737SOL     OW95269   1.860   6.539   4.701 -0.5362  0.1079  0.3932
27737SOL    HW195270   1.938   6.518   4.643 -0.7646 -1.4025  0.6055
27737SOL    HW295271   1.791   6.587   4.647  0.1038  0.5263 -0.0598
27738SOL     OW95272   5.062   9.635   6.150  0.2827  0.1685  0.2515
27738SOL    HW195273   5.124   9.659   6.224  0.4700  0.1102  0.1131
27738SOL    HW295274   5.088   9.684   6.067 -0.5204  0.9906  0.4768
27739SOL     OW95275   7.794   4.602   0.802  0.6032 -0.2702  0.1351
27739SOL    HW195276   7.800   4.543   0.883  1.2534 -0.6405 -0.1831
27739SOL    HW295277   7.882   4.603   0.755  0.1463 -0.2612 -0.7189
27740SOL     OW95278   7.698   1.116   8.882 -0.1608  0.3625  0.5467
27740SOL    HW195279   7.764   1.047   8.854 -2.4157 -1.6606  0.0436
27740SOL    HW295280   7.637   1.138   8.805 -0.5605  1.6335  1.1993
27741SOL     OW95281   0.074   2.101   5.403  0.1161  0.7259 -0.0286
27741SOL    HW195282   0.040   2.152   5.324 -0.8561  1.7124  1.0157
27741SOL    HW295283   0.004   2.036   5.433  0.7030 -0.0460 -0.3154
27742SOL     OW95284   4.898   0.878   9.319  0.2858 -0.2372  0.3750
27742SOL    HW195285   4.951   0.816   9.261  0.9157  0.6744 -0.0505
27742SOL    HW295286   4.957   0.915   9.391 -0.0205  0.0418  0.4862
27743SOL     OW95287   9.269   1.156   8.328  0.8861 -0.4433  0.0755
27743SOL    HW195288   9.215   1.095   8.271  0.0980  0.2137  0.1107
27743SOL    HW295289   9.250   1.251   8.303  0.3817 -0.1366  1.5456
27744SOL     OW95290   3.734   9.211   0.336 -0.0679 -0.5681  0.2366
27744SOL    HW195291   3.805   9.272   0.370  0.3503 -0.9497  0.0471
27744SOL    HW295292   3.774   9.143   0.275 -1.1691  1.5811 -3.0006
27745SOL     OW95293   0.269   1.050   5.440  0.6760  0.3464  0.0364
27745SOL    HW195294   0.308   1.043   5.532  1.1114  0.3004 -0.1484
27745SOL    HW295295   0.252   0.958   5.404 -0.0667  0.3726  0.3072
27746SOL     OW95296   6.977   3.136   0.088  0.2194 -0.0521 -0.0656
27746SOL    HW195297   6.887   3.178   0.093  0.4815  0.4465  0.5346
27746SOL    HW295298   6.973   3.054   0.031 -0.7039 -0.2686  0.3024
27747SOL     OW95299   7.429   8.334   8.309  0.8862  0.8351  0.2995
27747SOL    HW195300   7.444   8.281   8.226  1.2993  0.0836  0.8507
27747SOL    HW295301   7.504   8.319   8.373 -0.5171 -0.3666  1.7253
27748SOL     OW95302   8.761   2.037   8.518  0.7332 -0.1819 -0.2189
27748SOL    HW195303   8.760   2.104   8.444  1.1202 -3.3573 -3.2200
27748SOL    HW295304   8.855   2.020   8.548  0.5725  1.1446  1.1050
27749SOL     OW95305   9.560   1.854   6.961 -0.3014 -0.0152  0.0147
27749SOL    HW195306   9.581   1.757   6.969 -0.6487 -0.3407 -2.4056
27749SOL    HW295307   9.463   1.869   6.982 -0.0151 -0.0220  1.3768
27750SOL     OW95308   4.142   6.000   0.175  0.0755  0.0294 -0.4148
27750SOL    HW195309   4.123   5.949   0.258 -0.2972  0.2147 -0.3875
27750SOL    HW295310   4.096   5.957   0.097  0.8862 -0.4780 -0.6271
27751SOL     OW95311   1.438   3.592   0.917  0.0136  0.1643  0.0049
27751SOL    HW195312   1.339   3.588   0.905 -0.1113  0.4992  0.8612
27751SOL    HW295313   1.481   3.515   0.869 -0.6645  0.0026 -0.3435
27752SOL     OW95314   0.179   0.130   4.207  0.5409 -0.0897  0.1904
27752SOL    HW195315   0.174   0.217   4.255  0.8898  0.0769 -0.0717
27752SOL    HW295316   0.262   0.082   4.234 -0.4853 -1.0915  1.5934
27753SOL     OW95317   5.760   9.648   7.938 -0.3959 -0.4981 -0.3704
27753SOL    HW195318   5.801   9.641   7.847  1.5969 -0.1608  0.4704
27753SOL    HW295319   5.780   9.566   7.991 -0.2320 -0.0409  0.2873
27754SOL     OW95320   1.755   2.203   6.871 -0.1342 -0.0650  0.6436
27754SOL    HW195321   1.733   2.238   6.780 -0.9151  1.9794  1.6092
27754SOL    HW295322   1.718   2.110   6.881 -2.3354  0.7016 -0.1863
27755SOL     OW95323   9.032   2.128   1.887  0.1115  0.3710 -0.3028
27755SOL    HW195324   9.047   2.032   1.865  1.0478  0.4710 -0.1184
27755SOL    HW295325   9.029   2.182   1.803 -1.1696  0.0818 -0.4513
27756SOL     OW95326   8.758   5.816   6.253 -0.8817  0.2163 -0.7102
27756SOL    HW195327   8.842   5.860   6.221 -0.3783  0.9200  1.5088
27756SOL    HW295328   8.684   5.883   6.258 -0.6863  0.3554  0.5517
27757SOL     OW95329   5.739   4.625   1.047 -0.1128  0.0381 -0.5306
27757SOL    HW195330   5.824   4.678   1.041 -0.4765  0.9002  1.4424
27757SOL    HW295331   5.754   4.544   1.104  0.0311 -1.1756 -2.2610
27758SOL     OW95332   9.650   8.513   8.781 -0.5637 -0.3177 -0.0610
27758SOL    HW195333   9.737   8.551   8.749 -1.0135  0.0538 -0.8565
27758SOL    HW295334   9.587   8.504   8.704 -1.0448 -1.1076  0.4123
27759SOL     OW95335   1.127   3.920   3.160 -0.4050  1.0172 -0.3512
27759SOL    HW195336   1.145   3.855   3.086 -1.6992  2.7250 -2.2260
27759SOL    HW295337   1.214   3.959   3.191  0.1755  0.1434 -0.8436
27760SOL     OW95338   9.171   8.695   3.685  0.5238  0.4207  0.1500
27760SOL    HW195339   9.189   8.735   3.774 -1.5035  0.5588  0.5357
27760SOL    HW295340   9.134   8.602   3.696 -2.0334  1.3290 -0.3994
27761SOL     OW95341   7.223   5.737   1.462 -0.0715  0.3160 -0.1433
27761SOL    HW195342   7.289   5.690   1.520 -0.4505  0.4501  0.4055
27761SOL    HW295343   7.215   5.690   1.374  1.5532  0.9292 -0.6182
27762SOL     OW95344   2.847   5.205   4.430 -0.4271 -0.2458  0.0472
27762SOL    HW195345   2.809   5.293   4.403 -0.6558 -0.4565 -0.3299
27762SOL    HW295346   2.828   5.137   4.358  0.8210 -0.3061 -0.2282
27763SOL     OW95347   0.186   9.637   0.366 -0.1802 -0.5674 -0.3450
27763SOL    HW195348   0.159   9.585   0.446 -0.3634 -0.4563 -0.3349
27763SOL    HW295349   0.108   9.645   0.303 -1.1244  2.4890  1.1395
27764SOL     OW95350   6.105   2.760   9.108 -0.3062  0.1399 -0.1745
27764SOL    HW195351   6.162   2.705   9.169 -0.6731 -1.4904 -1.2474
27764SOL    HW295352   6.128   2.738   9.013 -1.9186  0.2795 -0.6184
27765SOL     OW95353   6.569   3.761   9.090 -0.7080 -0.1736  0.3136
27765SOL    HW195354   6.656   3.779   9.043  0.2915  0.2810  2.3070
27765SOL    HW295355   6.497   3.748   9.021  0.8395 -0.1933 -1.3643
27766SOL     OW95356   0.285   4.340   7.001  0.4862 -0.1599  0.2252
27766SOL    HW195357   0.232   4.409   6.952 -0.6487 -1.5060 -0.4797
27766SOL    HW295358   0.258   4.339   7.097 -1.0839 -1.0930 -0.2002
27767SOL     OW95359   3.271   7.101   2.041  0.0323 -0.4721 -0.2699
27767SOL    HW195360   3.241   7.105   2.137 -0.5531 -0.9934 -0.4204
27767SOL    HW295361   3.219   7.029   1.994  0.7259 -0.6022 -0.8351
27768SOL     OW95362   2.355   8.004   2.598 -0.7151  0.0715 -0.7231
27768SOL    HW195363   2.446   8.034   2.627 -0.3512  0.3361 -2.1247
27768SOL    HW295364   2.334   8.042   2.508 -2.0046 -0.4101 -0.6355
27769SOL     OW95365   5.566   2.722   0.150 -0.4002  0.0230 -0.1338
27769SOL    HW195366   5.600   2.628   0.159 -0.8374 -0.1058  0.2128
27769SOL    HW295367   5.639   2.786   0.171 -0.3853 -0.2501  0.6906
27770SOL     OW95368   2.267   9.097   0.762 -0.3092 -0.3502  0.2384
27770SOL    HW195369   2.272   9.061   0.855  0.8170 -0.7826  0.0240
27770SOL    HW295370   2.309   9.031   0.699 -0.1261  0.4080 -0.4365
27771SOL     OW95371   9.147   6.127   7.358 -0.1127  0.1501 -0.3085
27771SOL    HW195372   9.192   6.179   7.430 -1.2135  0.4396  0.1723
27771SOL    HW295373   9.116   6.189   7.286 -0.7016  0.0662 -0.1255
27772SOL     OW95374   2.023   3.491   8.205 -0.1430 -0.3949 -0.5741
27772SOL    HW195375   2.103   3.484   8.265  0.3151 -1.7166 -1.3314
27772SOL    HW295376   2.035   3.431   8.126 -1.1289  0.6806 -1.5629
27773SOL     OW95377   3.391   3.997   3.963 -0.3131 -0.0056 -0.0351
27773SOL    HW195378   3.301   3.996   3.920  0.1711  1.4806 -1.1563
27773SOL    HW295379   3.389   3.944   4.048 -2.7988  1.7736  1.0611
27774SOL     OW95380   3.321   8.754   3.910  0.1763  0.3336  0.1245
27774SOL    HW195381   3.336   8.690   3.835  1.3180 -0.6466  1.1731
27774SOL    HW295382   3.224   8.754   3.935 -0.6555  2.3603 -2.8271
27775SOL     OW95383   9.025   1.327   3.403 -0.5621 -0.2103 -0.2035
27775SOL    HW195384   8.980   1.243   3.432 -0.2414 -0.9386 -1.7115
27775SOL    HW295385   9.006   1.343   3.306  1.7626 -0.1239 -0.6849
27776SOL     OW95386   9.540   4.074   7.430 -0.3351  0.2972 -0.3584
27776SOL    HW195387   9.470   4.023   7.481  1.0639  1.9365  3.3999
27776SOL    HW295388   9.505   4.165   7.407 -0.8932 -0.3709 -2.2418
27777SOL     OW95389   8.419   5.539   1.866 -0.1885  0.2743  0.1692
27777SOL    HW195390   8.338   5.481   1.856 -2.0225  2.3793  2.0467
27777SOL    HW295391   8.463   5.520   1.954 -0.6712  1.5303  0.6969
27778SOL     OW95392   7.687   1.594   4.990  0.0081  0.2884 -0.1642
27778SOL    HW195393   7.666   1.608   5.087  0.4846 -3.2549  0.5046
27778SOL    HW295394   7.612   1.546   4.946  1.6182 -1.9999 -0.4911
27779SOL     OW95395   4.177   9.152   9.544 -0.0305 -0.1782  0.5343
27779SOL    HW195396   4.181   9.249   9.564  1.7021 -0.4122  1.3707
27779SOL    HW295397   4.221   9.134   9.455 -1.3446 -0.0705 -0.1523
27780SOL     OW95398   3.810   7.341   8.658 -0.6698 -0.6120  0.2893
27780SOL    HW195399   3.776   7.416   8.715 -0.6225 -0.2325 -0.1839
27780SOL    HW295400   3.741   7.317   8.591  0.6719  1.3866 -1.8788
27781SOL     OW95401   0.814   1.982   4.722 -0.5403 -0.1978  0.3212
27781SOL    HW195402   0.760   2.055   4.679 -1.3893 -0.0960  1.5416
27781SOL    HW295403   0.911   2.008   4.723 -0.6223  0.1668 -0.7603
27782SOL     OW95404   9.395   8.988   9.542 -0.2226 -0.0904  0.5794
27782SOL    HW195405   9.328   9.061   9.531 -0.7241 -0.3437  1.9577
27782SOL    HW295406   9.445   8.976   9.456  0.1433  2.1529  0.4529
27783SOL     OW95407   1.777   4.140   9.561  0.1840 -0.7129 -0.5720
27783SOL    HW195408   1.757   4.078   9.637 -0.5733 -1.3468 -1.2763
27783SOL    HW295409   1.819   4.223   9.596 -1.3436 -0.4542  0.6782
27784SOL     OW95410   7.511   0.856   0.726  0.4342  0.2402  0.2795
27784SOL    HW195411   7.483   0.886   0.817  2.2008  0.7789  0.6764
27784SOL    HW295412   7.556   0.766   0.734 -0.1290 -0.0828 -0.1737
27785SOL     OW95413   8.063   7.227   2.926 -0.3315  0.1500  0.2262
27785SOL    HW195414   8.064   7.319   2.887  1.4104  0.3744  0.7540
27785SOL    HW295415   8.075   7.159   2.854 -0.3520  0.4043 -0.0136
27786SOL     OW95416   2.569   7.346   1.794  0.3577 -0.3909 -0.0280
27786SOL    HW195417   2.663   7.369   1.768 -1.0963  2.6640 -2.9025
27786SOL    HW295418   2.530   7.284   1.727 -0.2859 -0.1692  0.1394
27787SOL     OW95419   4.556   2.641   5.975 -0.4519 -0.0410 -0.2390
27787SOL    HW195420   4.634   2.625   5.914  0.9728  0.2395  1.4687
27787SOL    HW295421   4.549   2.567   6.041 -0.1465  1.1220  1.1361
27788SOL     OW95422   4.797   9.135   9.365  0.0908  0.4627  0.5849
27788SOL    HW195423   4.732   9.130   9.441 -0.1104  0.8511  0.4368
27788SOL    HW295424   4.755   9.098   9.282  0.6439 -0.8803  0.8809
27789SOL     OW95425   0.317   6.042   8.458  0.2438  0.4649  0.6632
27789SOL    HW195426   0.263   5.970   8.502  1.7334 -0.3435  1.1696
27789SOL    HW295427   0.255   6.112   8.423 -1.3410 -1.6367 -0.9166
27790SOL     OW95428   8.190   7.053   5.445  0.1734 -0.7776  0.2755
27790SOL    HW195429   8.219   7.063   5.540  1.2427 -1.8083  0.0705
27790SOL    HW295430   8.112   6.991   5.440  0.5140 -1.2234  0.4261
27791SOL     OW95431   8.309   0.447   3.388  0.0077 -0.2734 -0.2093
27791SOL    HW195432   8.385   0.437   3.453  1.2396 -0.8329 -1.6915
27791SOL    HW295433   8.255   0.528   3.412  0.5765 -0.3368  1.3573
27792SOL     OW95434   1.280   8.850   7.394  0.2073 -0.0340  0.6418
27792SOL    HW195435   1.350   8.875   7.461  1.6408  1.2281 -1.2462
27792SOL    HW295436   1.254   8.931   7.341 -1.6024 -0.8056  0.3052
27793SOL     OW95437   8.675   8.819   8.228  0.1826 -0.4506  0.4629
27793SOL    HW195438   8.599   8.869   8.185 -0.3700  0.6550  2.6553
27793SOL    HW295439   8.652   8.723   8.236 -1.0294 -0.1081  1.1624
27794SOL     OW95440   2.418   3.993   1.860  0.0738 -0.1723 -0.4657
27794SOL    HW195441   2.419   4.009   1.959 -2.0027 -1.4491 -0.1886
27794SOL    HW295442   2.461   3.904   1.841 -0.4047 -0.3790 -0.5938
27795SOL     OW95443   5.620   7.757   5.319  0.2140  0.2106 -0.4337
27795SOL    HW195444   5.698   7.814   5.346 -0.3257  1.7507 -2.0706
27795SOL    HW295445   5.539   7.785   5.369  0.4824 -0.7967  0.5974
27796SOL     OW95446   0.085   4.950   7.272 -0.5973 -0.5161 -0.1185
27796SOL    HW195447   0.070   4.978   7.367 -2.9700 -1.2294 -0.2533
27796SOL    HW295448   0.032   4.868   7.253 -1.2169  0.3918 -2.4558
27797SOL     OW95449   2.080   1.535   3.348  0.1650  0.1706 -0.1171
27797SOL    HW195450   2.140   1.528   3.428  0.4922  0.5897 -0.3221
27797SOL    HW295451   2.019   1.614   3.359  0.3746  0.3702 -0.3893
27798SOL     OW95452   6.174   8.508   4.278  0.2552 -0.4307 -0.9875
27798SOL    HW195453   6.102   8.440   4.268 -2.3391  1.7858  1.7196
27798SOL    HW295454   6.165   8.577   4.206 -0.6851  0.1139 -0.3626
27799SOL     OW95455   0.706   0.646   3.908 -0.2255  0.3782 -0.2194
27799SOL    HW195456   0.793   0.684   3.940  1.2099 -1.9823 -1.1839
27799SOL    HW295457   0.662   0.710   3.845  0.2773  2.0535  1.0957
27800SOL     OW95458   3.861   9.220   3.278  0.0634  0.0865  0.1123
27800SOL    HW195459   3.832   9.248   3.369 -0.5255 -1.0124  0.2786
27800SOL    HW295460   3.879   9.122   3.278 -0.3034  0.0104 -1.0360
27801SOL     OW95461   3.855   3.405   3.833  0.6232  0.4001 -0.3082
27801SOL    HW195462   3.776   3.465   3.837 -0.1212 -0.5899  0.1741
27801SOL    HW295463   3.829   3.313   3.864  1.7577 -0.1496 -0.9340
27802SOL     OW95464   3.569   2.226   7.583  0.6758  0.3745 -0.2575
27802SOL    HW195465   3.573   2.292   7.509 -0.6991 -0.3463 -1.0031
27802SOL    HW295466   3.512   2.261   7.657  0.4444  0.2872 -0.3928
27803SOL     OW95467   2.079   4.698   0.448  0.3646 -0.5791 -0.2266
27803SOL    HW195468   2.054   4.754   0.527  1.3349 -0.1172 -0.2459
27803SOL    HW295469   2.149   4.633   0.474  2.3935  1.1262 -1.2519
27804SOL     OW95470   1.736   9.932   0.810  0.5940  0.2695  0.1714
27804SOL    HW195471   1.651   9.885   0.833  1.5938 -0.4629  2.4601
27804SOL    HW295472   1.796   9.870   0.758  0.8412 -0.1291  0.9277
27805SOL     OW95473   9.583   9.297   5.263  0.2081  0.9154  1.1413
27805SOL    HW195474   9.628   9.245   5.190 -1.3586  0.2903  0.6116
27805SOL    HW295475   9.583   9.243   5.347  0.4873  0.9468  1.1642
27806SOL     OW95476   0.378   7.697   6.649 -0.4050  0.2427  0.4525
27806SOL    HW195477   0.351   7.739   6.561 -1.5603 -1.0527  0.1653
27806SOL    HW295478   0.296   7.662   6.694 -0.2412  3.4464  3.4418
27807SOL     OW95479   0.670   4.259   5.083 -0.5432  0.3835 -0.0754
27807SOL    HW195480   0.739   4.316   5.038 -0.1910  0.3271  0.4027
27807SOL    HW295481   0.631   4.195   5.016  0.3287 -0.0333 -0.1837
27808SOL     OW95482   4.262   0.538   9.981 -0.0590 -0.4888 -0.7218
27808SOL    HW195483   4.342   0.480   9.992 -0.5250 -1.1735 -0.9146
27808SOL    HW295484   4.180   0.489  10.013 -0.6997 -0.5848 -2.4733
27809SOL     OW95485   2.356   1.434   5.056 -0.1248  0.0787  0.6331
27809SOL    HW195486   2.267   1.462   5.021 -0.7336 -1.5085  0.8497
27809SOL    HW295487   2.380   1.344   5.018  2.1463  1.2353 -0.7317
27810SOL     OW95488   9.049   2.813   6.560  0.5950  0.0733  0.2170
27810SOL    HW195489   8.955   2.847   6.559  0.5624 -0.0183  0.0422
27810SOL    HW295490   9.097   2.847   6.480  0.3624 -0.8434 -0.3211
27811SOL     OW95491   9.181   2.959   9.349 -0.3094 -0.2457  0.0315
27811SOL    HW195492   9.275   2.945   9.320 -0.3255 -0.5800  0.1433
27811SOL    HW295493   9.143   3.039   9.303 -0.0531 -0.2634 -0.2067
27812SOL     OW95494   6.805   6.032   0.288 -0.6422  0.2276 -0.0409
27812SOL    HW195495   6.808   5.932   0.292 -1.3035  0.2294  0.7625
27812SOL    HW295496   6.880   6.065   0.232  0.2240 -0.6707  0.5574
27813SOL     OW95497   8.454   3.097   2.592  0.4162 -0.4519  0.7857
27813SOL    HW195498   8.363   3.072   2.623 -0.0686  0.9081  0.4945
27813SOL    HW295499   8.507   3.014   2.573 -1.7642 -1.3184 -1.9584
27814SOL     OW95500   3.167   4.448   5.506 -0.1179  0.0177 -0.8669
27814SOL    HW195501   3.233   4.429   5.579  1.3625 -0.9481 -2.4195
27814SOL    HW295502   3.076   4.418   5.535  0.5597 -0.9180  0.3607
27815SOL     OW95503   3.315   7.599   2.486 -0.0272  0.1762 -0.0363
27815SOL    HW195504   3.254   7.554   2.422 -0.5120 -0.7193  1.0552
27815SOL    HW295505   3.299   7.565   2.578  2.1514 -0.1167  0.2645
27816SOL     OW95506   4.689   8.426   3.407  0.4814  0.7263 -0.4705
27816SOL    HW195507   4.664   8.425   3.310 -3.1191 -1.6613  0.3696
27816SOL    HW295508   4.650   8.508   3.451 -0.3567  0.3619 -0.5128
27817SOL     OW95509   3.448   7.640   9.713 -0.2006 -0.4467 -0.2775
27817SOL    HW195510   3.430   7.568   9.781 -1.0527 -0.5165 -0.5674
27817SOL    HW295511   3.504   7.602   9.639 -0.5398 -0.7745 -0.3665
27818SOL     OW95512   5.106   2.055   5.009  0.0811  0.6504 -0.0399
27818SOL    HW195513   5.096   1.966   4.965  0.5616 -0.3240  1.7744
27818SOL    HW295514   5.167   2.113   4.954  0.5125 -0.4654 -0.7473
27819SOL     OW95515   8.615   0.707   2.489  0.1737  0.3823  0.1178
27819SOL    HW195516   8.607   0.788   2.431 -2.8364  0.3764  0.4330
27819SOL    HW295517   8.711   0.691   2.510  1.4061  0.4158 -4.7860
27820SOL     OW95518   8.964   3.093   4.254 -0.1627 -0.4878  0.3844
27820SOL    HW195519   8.982   3.048   4.342 -1.4416 -0.0278  0.8898
27820SOL    HW295520   8.888   3.047   4.208  0.4769 -0.7036 -0.4713
27821SOL     OW95521   6.905   1.158   4.659 -0.2545 -0.3002  1.0462
27821SOL    HW195522   6.967   1.169   4.737  0.0554  0.9576  0.6414
27821SOL    HW295523   6.955   1.115   4.584  0.6268  2.1279  0.1791
27822SOL     OW95524   7.598   6.478   1.570 -0.0531 -0.2803 -0.2985
27822SOL    HW195525   7.545   6.479   1.654  2.6576  1.3508  1.4820
27822SOL    HW295526   7.661   6.400   1.570  1.2813  0.7739  0.0927
27823SOL     OW95527   3.913   5.422   2.799  0.3640  0.0179 -0.5462
27823SOL    HW195528   3.927   5.324   2.810 -3.5811 -0.6493 -0.7480
27823SOL    HW295529   3.912   5.466   2.889 -0.4379 -0.5617 -0.2636
27824SOL     OW95530   7.022   9.247   3.635 -0.3342  0.3475  0.2003
27824SOL    HW195531   6.948   9.203   3.687 -2.2872  1.1382 -1.8134
27824SOL    HW295532   6.988   9.332   3.594  1.3612  0.1475 -1.6910
27825SOL     OW95533   4.864   2.402   9.311 -0.0146  0.3059 -0.3836
27825SOL    HW195534   4.834   2.497   9.317  0.6454  0.4767  0.3439
27825SOL    HW295535   4.848   2.367   9.219  1.5452  1.7286 -1.2194
27826SOL     OW95536   6.561   5.077   2.620 -0.6913 -0.4029  0.4640
27826SOL    HW195537   6.556   5.124   2.532  0.3022  0.8927  1.0694
27826SOL    HW295538   6.598   4.985   2.607  1.9661  0.6907 -0.1869
27827SOL     OW95539   6.588   2.326   4.123 -0.0988 -0.2409  0.2161
27827SOL    HW195540   6.661   2.389   4.097 -1.1125  0.2217 -1.6267
27827SOL    HW295541   6.539   2.363   4.202 -0.2639  0.9717 -0.4379
27828SOL     OW95542   4.699   0.919   0.114  0.6092 -0.3221  0.0828
27828SOL    HW195543   4.717   1.014   0.088  0.8006 -0.2911  0.3303
27828SOL    HW295544   4.622   0.884   0.060  0.9726 -0.2435 -0.4953
27829SOL     OW95545   3.151   2.586   0.648 -0.0612 -0.0516 -0.6602
27829SOL    HW195546   3.059   2.590   0.688  0.5153 -0.5395  0.7568
27829SOL    HW295547   3.197   2.673   0.662  0.6984 -0.7284  1.1337
27830SOL     OW95548   3.681   5.818   3.251  0.8211  0.9393 -0.2956
27830SOL    HW195549   3.747   5.759   3.203 -1.3876 -0.5383 -1.6631
27830SOL    HW295550   3.661   5.779   3.341 -1.7892 -1.3870 -1.7905
27831SOL     OW95551   4.919   3.787   0.700 -0.0817 -0.1307  0.0351
27831SOL    HW195552   4.841   3.740   0.742 -0.9735 -0.3148 -1.8102
27831SOL    HW295553   4.929   3.877   0.742 -0.7292 -0.4522  0.9106
27832SOL     OW95554   6.079   9.695   4.242  0.4864 -0.0012  0.0789
27832SOL    HW195555   6.056   9.676   4.146  1.2022 -0.4750 -0.0027
27832SOL    HW295556   6.150   9.631   4.272  0.3862  0.2601  0.8748
27833SOL     OW95557   2.744   1.572   3.646 -0.2179 -0.6680  0.1415
27833SOL    HW195558   2.783   1.481   3.637  0.9518 -0.1216 -0.3664
27833SOL    HW295559   2.774   1.613   3.732  0.7975 -0.0233 -0.5184
27834SOL     OW95560   3.912   1.379   3.680 -0.2420  0.0454 -0.6325
27834SOL    HW195561   3.828   1.391   3.733  0.4694 -0.6436  0.6914
27834SOL    HW295562   3.889   1.354   3.586 -1.5534  2.4811 -0.9940
27835SOL     OW95563   0.669   8.468   1.176  0.1388 -0.0824  0.0972
27835SOL    HW195564   0.622   8.433   1.257  2.8003 -0.9032  1.3335
27835SOL    HW295565   0.698   8.392   1.117 -1.4756  0.4906 -1.4778
27836SOL     OW95566   4.359   9.104   6.455  0.2464  0.3680 -0.2516
27836SOL    HW195567   4.365   9.030   6.522 -2.0944 -1.0683 -1.5687
27836SOL    HW295568   4.322   9.186   6.499  0.3629 -0.0250  0.5969
27837SOL     OW95569   7.332   2.389   9.651 -0.5118 -0.1855 -0.1142
27837SOL    HW195570   7.348   2.482   9.683  0.6409 -0.1789 -0.7136
27837SOL    HW295571   7.272   2.391   9.571 -0.2449  0.0572 -0.3080
27838SOL     OW95572   3.072   3.187   5.091 -0.0043 -0.3160 -0.0551
27838SOL    HW195573   2.990   3.242   5.075 -1.4650 -1.8951  1.6438
27838SOL    HW295574   3.118   3.170   5.004 -0.4556  2.1180 -0.8101
27839SOL     OW95575   8.816   2.596   3.106 -0.7498  0.6788 -0.1674
27839SOL    HW195576   8.868   2.519   3.070 -2.2219 -1.4506  2.1207
27839SOL    HW295577   8.793   2.659   3.032 -0.4449 -1.6110 -2.2580
27840SOL     OW95578   3.663   3.589   3.889  0.0375  0.1341 -0.2139
27840SOL    HW195579   3.684   3.687   3.889 -1.2846  0.4491  2.0564
27840SOL    HW295580   3.578   3.573   3.839 -0.2712  0.3051  0.2409
27841SOL     OW95581   7.253   1.742   5.100 -0.3583 -0.1054 -0.4577
27841SOL    HW195582   7.275   1.794   5.182  2.0024  0.3252 -1.3206
27841SOL    HW295583   7.258   1.644   5.120 -1.4050 -0.0114  0.3021
27842SOL     OW95584   1.567   6.814   7.740 -0.1924  0.0739  0.4727
27842SOL    HW195585   1.662   6.784   7.725 -0.3994  0.8477 -2.7738
27842SOL    HW295586   1.529   6.766   7.819  2.5571 -1.0513  1.1629
27843SOL     OW95587   7.109   4.790   0.432 -0.6117  0.7460  0.1147
27843SOL    HW195588   7.202   4.812   0.404 -0.7116  1.3573  0.2426
27843SOL    HW295589   7.058   4.753   0.355 -0.4956  1.1748 -0.1701
27844SOL     OW95590   0.466   9.533   5.593 -0.1057 -0.5120  0.1018
27844SOL    HW195591   0.464   9.588   5.677  0.4069  0.1322 -0.2999
27844SOL    HW295592   0.484   9.593   5.515 -0.4896 -1.1230 -0.4590
27845SOL     OW95593   2.735   9.333   6.320  0.4932 -0.3383  0.4157
27845SOL    HW195594   2.737   9.241   6.358  0.2787 -0.5425 -0.0614
27845SOL    HW295595   2.732   9.328   6.220  0.5509  0.1841  0.3867
27846SOL     OW95596   1.519   7.283   1.990  0.2016 -0.3653 -0.3756
27846SOL    HW195597   1.590   7.213   2.001  1.6624  1.4031  2.0310
27846SOL    HW295598   1.436   7.254   2.037  0.5739 -0.7740  0.0347
27847SOL     OW95599   9.131   9.325   1.076 -0.5553  0.3610  0.2519
27847SOL    HW195600   9.105   9.411   1.120  0.2275 -0.0997  1.6599
27847SOL    HW295601   9.138   9.253   1.145  1.2549 -0.2513 -0.5274
27848SOL     OW95602   7.448   8.080   4.039 -0.0798  0.1149 -0.0166
27848SOL    HW195603   7.439   8.003   3.977  1.0620  0.1839 -0.2867
27848SOL    HW295604   7.537   8.124   4.025 -0.7520  1.5391  0.0582
27849SOL     OW95605   9.872   6.272   1.324 -0.0775  0.1358  0.2619
27849SOL    HW195606   9.805   6.219   1.375  0.7502  0.0682  1.3079
27849SOL    HW295607   9.913   6.341   1.385 -0.3976  1.2874 -0.8017
27850SOL     OW95608   7.872   7.635   6.716  0.5549 -0.2718 -0.3145
27850SOL    HW195609   7.772   7.637   6.715  0.5467  2.6070 -2.4961
27850SOL    HW295610   7.906   7.642   6.622  2.7670  1.9572  0.5817
27851SOL     OW95611   9.700   7.557   7.655  0.1563 -0.1331 -0.3459
27851SOL    HW195612   9.719   7.586   7.562  0.9384 -1.6520 -0.6741
27851SOL    HW295613   9.716   7.633   7.718  0.1890  0.7245 -1.3756
27852SOL     OW95614   6.834   1.304   9.326  0.1093 -0.3880 -0.0500
27852SOL    HW195615   6.745   1.279   9.289 -0.3945 -0.6711  1.3359
27852SOL    HW295616   6.899   1.231   9.307  0.0578 -0.1865 -1.0502
27853SOL     OW95617   3.354   4.148   0.972  0.0226 -0.2696 -0.0038
27853SOL    HW195618   3.452   4.170   0.971  0.4870 -1.8544  3.3717
27853SOL    HW295619   3.332   4.092   0.892  1.8222  0.2744 -0.9052
27854SOL     OW95620   8.461   2.282   3.832 -0.0816 -0.0880 -0.1359
27854SOL    HW195621   8.472   2.347   3.907  1.7450 -0.8865  0.3314
27854SOL    HW295622   8.519   2.310   3.755 -1.3536  0.3031 -0.9609
27855SOL     OW95623   1.637   6.404   2.916 -0.6931 -0.1368  1.0977
27855SOL    HW195624   1.716   6.448   2.874 -1.3460  0.5464  0.5556
27855SOL    HW295625   1.558   6.464   2.908 -1.1632 -0.6255  2.0312
27856SOL     OW95626   3.502   5.515   4.714 -0.0064  0.0541  0.1651
27856SOL    HW195627   3.559   5.596   4.704  0.2104  0.1898  2.2937
27856SOL    HW295628   3.414   5.530   4.669 -0.3734  1.8887  1.4630
27857SOL     OW95629   1.339   8.815   3.028 -0.0161 -0.0621 -0.2794
27857SOL    HW195630   1.253   8.764   3.028  0.3220 -0.6564  0.9976
27857SOL    HW295631   1.336   8.887   3.096  0.4138  0.0563 -0.3812
27858SOL     OW95632   4.704   2.796   6.225  0.2780  0.3622  0.4806
27858SOL    HW195633   4.738   2.799   6.319  0.8601 -1.2041  0.3422
27858SOL    HW295634   4.652   2.711   6.211 -1.6357  1.5665 -0.0165
27859SOL     OW95635   2.498   5.197   3.036  0.3261  0.1034  0.5938
27859SOL    HW195636   2.436   5.119   3.048 -1.2749  1.2702  0.0122
27859SOL    HW295637   2.521   5.206   2.939  2.9793 -1.4846  1.0192
27860SOL     OW95638   2.900   4.035  10.028 -0.5357 -0.9927  0.0901
27860SOL    HW195639   2.949   4.068   9.948  1.9574 -0.8043  1.6489
27860SOL    HW295640   2.818   4.090  10.042  0.3092  0.5415 -0.9117
27861SOL     OW95641   3.586   1.421   8.787  0.1200 -0.5281  0.0947
27861SOL    HW195642   3.669   1.421   8.843  0.0887  1.0136  0.1730
27861SOL    HW295643   3.591   1.496   8.721 -0.5048 -1.4242 -0.9783
27862SOL     OW95644   4.648   1.990   6.293 -0.1252  0.1974 -0.4651
27862SOL    HW195645   4.677   1.898   6.266 -0.1696 -0.4068  1.4542
27862SOL    HW295646   4.601   2.034   6.217 -1.5766 -1.9952 -0.8772
27863SOL     OW95647   5.661   5.552   2.213 -0.3441 -0.0995  0.5028
27863SOL    HW195648   5.622   5.591   2.130  1.9007 -0.8153 -0.9436
27863SOL    HW295649   5.654   5.452   2.209 -0.6850 -0.1137  1.4181
27864SOL     OW95650   9.109   4.525   6.683  0.4229 -0.1042  0.5874
27864SOL    HW195651   9.161   4.444   6.710  0.7830  0.5577  1.9706
27864SOL    HW295652   9.062   4.562   6.763  0.4652  1.1835  0.0301
27865SOL     OW95653   6.019   2.009   0.431 -0.5140 -0.7301 -0.4575
27865SOL    HW195654   5.945   1.966   0.483 -0.4434 -1.4592 -0.9446
27865SOL    HW295655   6.099   1.950   0.431  0.6553  0.8034  1.4655
27866SOL     OW95656   6.193   7.698   3.744  0.0326  0.3547 -0.2597
27866SOL    HW195657   6.165   7.787   3.780  0.2812  0.0018  0.8414
27866SOL    HW295658   6.259   7.711   3.670  1.3972  1.0552  1.0632
27867SOL     OW95659   8.905   8.835   0.833  0.0177  0.2874  0.0984
27867SOL    HW195660   8.979   8.832   0.765  0.5262  0.9579  0.6168
27867SOL    HW295661   8.817   8.843   0.786  0.0137 -3.2119 -0.6743
27868SOL     OW95662   4.336   4.344   4.613 -0.0776  0.6354 -0.4202
27868SOL    HW195663   4.360   4.271   4.549  1.2027  0.5773  0.1034
27868SOL    HW295664   4.332   4.307   4.705  0.1985  1.1454 -0.2015
27869SOL     OW95665   3.731   3.310   9.485  0.3168  0.4623 -0.8747
27869SOL    HW195666   3.659   3.286   9.420  0.9208 -1.3886 -0.8701
27869SOL    HW295667   3.689   3.337   9.572 -0.4118  0.6703 -1.2873
27870SOL     OW95668   8.377   3.670   0.171 -0.1824  0.3243 -0.1966
27870SOL    HW195669   8.412   3.749   0.121 -0.3518  0.0429 -0.7705
27870SOL    HW295670   8.447   3.598   0.173 -0.0597  0.4515  0.2481
27871SOL     OW95671   4.080   7.561   9.980  0.3155 -0.2402 -0.4554
27871SOL    HW195672   4.052   7.613   9.899 -1.3718 -0.7529 -0.2203
27871SOL    HW295673   4.087   7.464   9.956 -1.0889 -0.5141  0.2345
27872SOL     OW95674   4.987   5.244   7.900  0.1351  0.0523  0.0080
27872SOL    HW195675   4.919   5.263   7.971  1.9291  1.1698  1.5109
27872SOL    HW295676   5.048   5.323   7.892  2.3847 -1.6387  0.0485
27873SOL     OW95677   9.415   1.769   4.443 -0.1005  0.4478 -0.5420
27873SOL    HW195678   9.407   1.802   4.537  0.8739  0.0368 -0.3148
27873SOL    HW295679   9.324   1.748   4.408 -0.4642  0.5361  0.3309
27874SOL     OW95680   2.880   0.565   3.059  0.0578  0.0410  0.1452
27874SOL    HW195681   2.812   0.626   3.099 -3.3065 -1.8073 -2.4982
27874SOL    HW295682   2.886   0.481   3.113  1.2961  0.7470  1.1414
27875SOL     OW95683   2.929   8.295   3.715 -0.4924  0.1511 -0.3661
27875SOL    HW195684   2.839   8.335   3.730  0.0167  0.7886  1.0100
27875SOL    HW295685   2.970   8.337   3.634  0.1655  2.6965  1.2224
27876SOL     OW95686   7.224   5.939   0.057  0.1399  0.1516 -0.1291
27876SOL    HW195687   7.276   6.024   0.063  0.8641 -0.1520 -1.9436
27876SOL    HW295688   7.287   5.861   0.062 -0.5353 -0.3159  1.7538
27877SOL     OW95689   9.005   9.627   0.668 -0.3211 -0.0966  0.2276
27877SOL    HW195690   9.101   9.613   0.641  0.4310  2.2510  1.5733
27877SOL    HW295691   8.953   9.658   0.589  0.9884  2.7844  0.4530
27878SOL     OW95692   4.021   9.181   4.971  0.1577 -0.1391 -0.0496
27878SOL    HW195693   4.066   9.216   5.053 -3.4949  1.7371  1.2784
27878SOL    HW295694   4.061   9.223   4.890  1.8819  0.1873  0.9613
27879SOL     OW95695   8.329   4.876   5.960 -0.1623 -0.3846  0.5434
27879SOL    HW195696   8.370   4.918   6.041  0.5647 -0.2303  0.1023
27879SOL    HW295697   8.394   4.879   5.884 -0.9832 -0.1809 -0.1596
27880SOL     OW95698   5.863   0.402   1.785  0.0389  0.0092  0.0920
27880SOL    HW195699   5.943   0.434   1.835 -0.8928  1.5389  0.6389
27880SOL    HW295700   5.834   0.313   1.821  0.9960 -0.1593  0.4383
27881SOL     OW95701   7.379   0.169   0.471 -0.1977  0.4342 -0.1631
27881SOL    HW195702   7.435   0.097   0.431 -0.8679 -0.0946 -0.1480
27881SOL    HW295703   7.373   0.157   0.570  1.0523  1.4620  0.0508
27882SOL     OW95704   6.652   1.009   7.796 -0.2656 -0.3588  0.2095
27882SOL    HW195705   6.707   1.002   7.880  0.3665 -0.1446 -0.1849
27882SOL    HW295706   6.610   0.921   7.776 -1.9997  0.0692  1.8238
27883SOL     OW95707   9.500   1.214   9.407  0.3316 -0.2987 -0.2202
27883SOL    HW195708   9.541   1.133   9.365 -0.6246 -0.5616 -0.6631
27883SOL    HW295709   9.400   1.210   9.397  0.2755  0.9182 -0.2279
27884SOL     OW95710   7.211   1.801   0.682 -0.5106 -0.9371 -0.4973
27884SOL    HW195711   7.306   1.831   0.673 -0.2636 -2.1109 -2.0358
27884SOL    HW295712   7.150   1.873   0.652 -0.1128 -0.1661  0.5181
27885SOL     OW95713   7.960   3.629   2.154 -0.1674  0.2183  0.3980
27885SOL    HW195714   7.897   3.702   2.128 -0.6494 -0.4342 -0.2633
27885SOL    HW295715   7.993   3.645   2.248  0.6040  1.8910 -0.1367
27886SOL     OW95716   6.347   5.935   8.749 -0.8476 -0.6145  0.1227
27886SOL    HW195717   6.315   6.015   8.698 -0.3082 -0.9689 -0.7831
27886SOL    HW295718   6.373   5.863   8.685 -1.1778 -1.4608  0.9327
27887SOL     OW95719   1.119   8.550   9.383 -0.3201 -0.3888 -0.0583
27887SOL    HW195720   1.040   8.506   9.427 -0.3750  0.1714  0.4097
27887SOL    HW295721   1.184   8.578   9.453  1.2668 -2.6903 -0.5718
27888SOL     OW95722   1.636   1.054   1.277 -0.1596 -0.9542  0.2338
27888SOL    HW195723   1.648   0.956   1.294 -2.3412 -0.9421  2.0182
27888SOL    HW295724   1.551   1.069   1.227 -0.3806  0.1135  0.9140
27889SOL     OW95725   2.989   1.946   1.918  0.0024  0.0498 -0.2232
27889SOL    HW195726   3.051   1.983   1.849 -0.8622  0.2156 -0.9140
27889SOL    HW295727   2.931   1.876   1.877  0.4645 -0.8825  0.6829
27890SOL     OW95728   7.073   7.753   3.596 -0.0097 -0.1231  0.5748
27890SOL    HW195729   7.039   7.682   3.658  0.1005 -2.0614 -1.5311
27890SOL    HW295730   7.165   7.730   3.565 -1.3779 -1.0897 -3.0675
27891SOL     OW95731   7.249   9.521   3.299 -0.1027 -0.7814 -0.0629
27891SOL    HW195732   7.190   9.506   3.378 -1.4910 -2.8249 -1.4571
27891SOL    HW295733   7.223   9.607   3.255 -0.8357 -0.7727  0.3730
27892SOL     OW95734   3.000   1.264   8.160 -0.0712 -0.0813  0.3274
27892SOL    HW195735   3.067   1.248   8.232 -0.2369 -0.7850  0.3358
27892SOL    HW295736   2.932   1.190   8.161 -0.3955  0.2058 -0.1833
27893SOL     OW95737   7.534   2.355   8.115 -0.0137 -0.5111  0.2250
27893SOL    HW195738   7.455   2.397   8.070  1.0009  0.7901 -0.3819
27893SOL    HW295739   7.513   2.342   8.212 -0.5790  0.9047  0.3126
27894SOL     OW95740   7.783   7.035   6.936  0.1100  0.2559 -0.3600
27894SOL    HW195741   7.787   7.133   6.915 -0.4867  0.0562 -1.4337
27894SOL    HW295742   7.692   7.001   6.916  0.2119 -0.4440  0.3812
27895SOL     OW95743   2.078   3.268   9.670  0.3762 -0.2317  0.1007
27895SOL    HW195744   2.097   3.361   9.638  1.6300 -1.3442 -2.4820
27895SOL    HW295745   2.148   3.241   9.737 -0.1338  0.7448  1.0454
27896SOL     OW95746   2.408   8.982   2.816 -0.3088  0.0812 -0.2862
27896SOL    HW195747   2.378   9.067   2.772 -0.6665 -0.5478 -1.2817
27896SOL    HW295748   2.332   8.941   2.866 -0.7355 -0.7549 -1.5919
27897SOL     OW95749   8.999   3.569   4.825 -0.0926  0.0875  0.3108
27897SOL    HW195750   9.033   3.508   4.753  0.0209 -0.6691  1.0050
27897SOL    HW295751   8.932   3.633   4.785 -0.7381 -0.9428 -0.2805
27898SOL     OW95752   8.387   6.095  10.055  0.0570 -0.4018  0.0151
27898SOL    HW195753   8.433   6.111  10.142  2.5866  1.7262 -1.6108
27898SOL    HW295754   8.392   6.178   9.999 -0.6238 -2.0156 -2.5441
27899SOL     OW95755   0.044   5.482   1.548 -0.2655 -0.4977 -0.3300
27899SOL    HW195756  -0.044   5.442   1.525  1.1221 -2.9767 -1.4830
27899SOL    HW295757   0.082   5.527   1.467  0.2609 -0.8488 -0.2802
27900SOL     OW95758   0.785   2.953   1.348  0.0632  0.3441  0.0926
27900SOL    HW195759   0.871   2.957   1.297  0.5339 -1.1980  0.7245
27900SOL    HW295760   0.744   2.862   1.336 -0.9368  0.7196  0.6529
27901SOL     OW95761   7.714   7.743   7.705 -0.7803  0.0357 -0.2266
27901SOL    HW195762   7.669   7.780   7.787 -0.0932  2.4617 -0.9026
27901SOL    HW295763   7.788   7.804   7.678 -0.6104 -1.0669 -2.3368
27902SOL     OW95764   2.371   2.197   3.232  0.4035  0.0725  0.0634
27902SOL    HW195765   2.342   2.111   3.275  2.0434 -1.1111 -1.1090
27902SOL    HW295766   2.462   2.222   3.266 -0.8157  2.3933  1.8085
27903SOL     OW95767   4.560   6.078   1.247 -0.0024  0.0537 -0.1668
27903SOL    HW195768   4.529   6.050   1.337  2.2614 -0.1065  0.5812
27903SOL    HW295769   4.482   6.082   1.185 -1.8676  1.9253  2.2200
27904SOL     OW95770   1.228   8.004   8.922 -0.6856 -0.6349  0.4676
27904SOL    HW195771   1.294   7.930   8.910  0.4707  0.5154 -0.3602
27904SOL    HW295772   1.242   8.048   9.010  0.1517  0.0920 -0.0247
27905SOL     OW95773   4.208   3.951   5.400  0.0535 -0.3301  0.5487
27905SOL    HW195774   4.212   4.045   5.433  1.4232 -0.6501  1.3414
27905SOL    HW295775   4.233   3.889   5.474 -0.8948 -1.3301  0.0434
27906SOL     OW95776   0.278   6.142   2.261  0.0812 -0.6022  0.5494
27906SOL    HW195777   0.215   6.163   2.335  0.6023  0.8519  0.5851
27906SOL    HW295778   0.289   6.042   2.254 -0.7257 -0.7859  1.7738
27907SOL     OW95779   4.084   0.109   1.187 -0.0594  0.1666 -0.1194
27907SOL    HW195780   4.134   0.195   1.180 -1.4529  0.9407 -0.8202
27907SOL    HW295781   4.057   0.078   1.096 -0.9803 -0.1465  0.2525
27908SOL     OW95782   1.346   6.359   9.229  0.1711 -0.4177  0.2013
27908SOL    HW195783   1.402   6.431   9.189  2.1562 -1.2113  1.4609
27908SOL    HW295784   1.405   6.293   9.275 -1.7017 -2.1555  0.1955
27909SOL     OW95785   8.839   6.060   1.522  0.3364 -0.0656  0.1523
27909SOL    HW195786   8.861   6.017   1.610 -1.5172 -0.6057  0.3837
27909SOL    HW295787   8.743   6.088   1.522  0.0664 -0.8911 -2.0242
27910SOL     OW95788   8.958   3.943   6.067  0.5807  0.6082 -0.1907
27910SOL    HW195789   8.922   4.033   6.043 -0.8030  0.4205  1.0742
27910SOL    HW295790   9.043   3.953   6.119  0.0404  1.2173  0.5814
27911SOL     OW95791   7.813   1.070   7.765 -0.1219  0.1145 -0.5966
27911SOL    HW195792   7.835   0.974   7.749 -0.9684 -0.3109  0.8026
27911SOL    HW295793   7.891   1.116   7.807  0.5348  0.2236 -1.8912
27912SOL     OW95794   1.318   1.591   2.772  0.3290 -0.2537 -0.0669
27912SOL    HW195795   1.319   1.595   2.672  1.1371  0.9378 -0.0145
27912SOL    HW295796   1.296   1.498   2.800 -0.7893 -0.4100 -1.3446
27913SOL     OW95797   4.241   4.808   2.441  0.6835  0.0448 -1.0906
27913SOL    HW195798   4.234   4.740   2.514  0.2300  1.3291  0.0864
27913SOL    HW295799   4.308   4.878   2.467 -0.3662  1.1633 -1.3423
27914SOL     OW95800   2.852   8.128   5.563  0.3028 -0.0875 -0.1807
27914SOL    HW195801   2.837   8.034   5.533  0.5325  0.2265 -1.3227
27914SOL    HW295802   2.935   8.133   5.619  0.2044 -0.5915  0.0020
27915SOL     OW95803   0.894   9.534   3.431  0.4780 -0.4760 -0.0667
27915SOL    HW195804   0.954   9.607   3.464  0.5365 -0.3051 -0.5490
27915SOL    HW295805   0.918   9.511   3.337 -1.6038  1.0908 -1.0126
27916SOL     OW95806   7.751   0.201   9.512  0.2515 -0.6362 -0.8225
27916SOL    HW195807   7.701   0.116   9.492  0.7291 -1.1305  0.0426
27916SOL    HW295808   7.816   0.220   9.438  0.9728 -1.6597 -0.4630
27917SOL     OW95809   5.115   0.126   2.778 -0.4124  0.2893 -0.0417
27917SOL    HW195810   5.067   0.211   2.761 -0.1206  0.7516  1.4142
27917SOL    HW295811   5.061   0.067   2.838 -0.2289 -0.1936 -0.3390
27918SOL     OW95812   2.058   5.272   3.789  0.0034  0.2816 -0.0474
27918SOL    HW195813   2.132   5.337   3.770  0.2499 -0.8070 -3.0585
27918SOL    HW295814   1.975   5.302   3.743  0.1206 -1.4765 -1.4769
27919SOL     OW95815   7.809   1.088   9.690 -0.0518  0.3512  0.6922
27919SOL    HW195816   7.817   1.029   9.770 -1.3162  0.4515  0.9053
27919SOL    HW295817   7.713   1.110   9.674  0.1115 -0.2140 -1.2520
27920SOL     OW95818   4.816   0.855   4.947  0.0072  0.1621  0.1177
27920SOL    HW195819   4.720   0.848   4.918  0.0511  0.7667 -0.1984
27920SOL    HW295820   4.874   0.860   4.866  0.2730  0.2085  0.3129
27921SOL     OW95821   4.065   9.946   5.823 -0.2323 -0.0587 -0.4137
27921SOL    HW195822   4.035  10.036   5.792  1.5616 -0.0766 -2.2766
27921SOL    HW295823   4.162   9.948   5.846 -0.0369 -1.6270 -0.9731
27922SOL     OW95824   1.372   0.203   8.999  0.2627  0.4401  0.0658
27922SOL    HW195825   1.385   0.151   8.915  2.0377  0.0268  0.5655
27922SOL    HW295826   1.352   0.140   9.074 -0.5494  0.7464  0.1161
27923SOL     OW95827   6.212   8.732   5.283 -0.2383 -0.4442 -0.6759
27923SOL    HW195828   6.229   8.718   5.381  2.3163  2.3511 -0.6642
27923SOL    HW295829   6.245   8.652   5.232 -0.5062 -1.4031  0.6208
27924SOL     OW95830   3.010   2.041   5.869  0.3274 -0.5967  0.2576
27924SOL    HW195831   3.044   2.035   5.963  1.0432  1.9076  0.1712
27924SOL    HW295832   2.911   2.032   5.869  0.1844  0.9262  1.4123
27925SOL     OW95833   9.541   3.159   7.804  0.4697  0.4907 -0.5249
27925SOL    HW195834   9.634   3.192   7.821  0.5206  0.1483 -0.1261
27925SOL    HW295835   9.542   3.059   7.798  0.2495  0.5310 -1.2789
27926SOL     OW95836   5.260   8.728   7.752 -0.1120  0.0354 -0.7065
27926SOL    HW195837   5.205   8.664   7.806 -1.1315  1.1573 -0.3845
27926SOL    HW295838   5.200   8.790   7.702  0.8445  1.0239 -0.6612
27927SOL     OW95839   2.056   2.121   3.367 -0.3928 -0.2003  0.1660
27927SOL    HW195840   1.989   2.112   3.293 -0.6212 -2.1596  0.5888
27927SOL    HW295841   2.135   2.063   3.348  0.6573  1.1812  0.2657
27928SOL     OW95842   4.040   6.357   3.689  0.6724  0.1148  0.3462
27928SOL    HW195843   4.071   6.384   3.781  1.5068 -0.6467  0.2989
27928SOL    HW295844   3.942   6.370   3.682  0.6554  0.5194  1.2394
27929SOL     OW95845   1.099   2.049   4.801  0.2421 -0.0179 -0.5445
27929SOL    HW195846   1.060   2.134   4.766  1.8484  0.5138 -1.0747
27929SOL    HW295847   1.167   2.069   4.871  0.9177 -0.8370 -0.9509
27930SOL     OW95848   6.591   2.005   3.733 -0.1977  0.0152  0.0866
27930SOL    HW195849   6.535   1.924   3.718  1.4637 -1.1926  0.2087
27930SOL    HW295850   6.537   2.076   3.777 -1.4780 -1.3080  0.6830
27931SOL     OW95851   9.315   0.822   3.515  0.1857 -0.0975 -0.1961
27931SOL    HW195852   9.363   0.759   3.576 -1.4452 -0.6164  0.5716
27931SOL    HW295853   9.382   0.875   3.463  1.5848 -2.1855 -0.5883
27932SOL     OW95854   1.755   4.688   6.385 -0.1201  0.2363  0.1248
27932SOL    HW195855   1.837   4.676   6.441 -0.9616 -1.4591  1.0297
27932SOL    HW295856   1.740   4.785   6.368  1.3523  0.6332  1.0253
27933SOL     OW95857   9.940   6.114   4.953 -0.5626 -0.5829  0.1570
27933SOL    HW195858   9.973   6.114   5.048  1.2567  0.5709 -0.4499
27933SOL    HW295859   9.871   6.042   4.942 -1.2665 -0.3110  2.5073
27934SOL     OW95860   9.623   1.541   7.386 -0.2581  0.6953 -0.2505
27934SOL    HW195861   9.722   1.555   7.376 -0.2429  1.0147  0.3271
27934SOL    HW295862   9.598   1.453   7.347  1.0136 -1.5925  3.8291
27935SOL     OW95863   3.991   7.608   4.690  0.1149  0.2844  0.4020
27935SOL    HW195864   4.065   7.654   4.641 -0.9186  0.4540 -1.0445
27935SOL    HW295865   3.975   7.654   4.777  3.2722 -1.1906  1.8363
27936SOL     OW95866   1.995   2.346   8.114 -0.0977 -0.0484  0.1747
27936SOL    HW195867   1.959   2.390   8.032  0.0638 -1.2392 -0.5303
27936SOL    HW295868   1.998   2.413   8.189  1.8266  1.6559 -1.3564
27937SOL     OW95869   8.595   2.586   0.510  0.4684 -0.7516 -0.0659
27937SOL    HW195870   8.581   2.515   0.579 -1.5688 -0.1088  0.2238
27937SOL    HW295871   8.534   2.664   0.530  1.4191  0.3391 -1.3609
27938SOL     OW95872   3.446   9.674   5.501  0.1065 -0.5617  0.6676
27938SOL    HW195873   3.529   9.725   5.477 -0.0301  1.0252  3.4099
27938SOL    HW295874   3.388   9.730   5.560 -2.3345 -2.1439 -0.1676
27939SOL     OW95875   3.419   2.699   5.108  0.0385  0.3722 -0.0811
27939SOL    HW195876   3.487   2.688   5.036  1.9668  3.0555  1.2534
27939SOL    HW295877   3.398   2.609   5.147  0.4098 -0.8673 -2.6328
27940SOL     OW95878   8.862   1.525   5.345 -0.6762 -0.2392  0.3773
27940SOL    HW195879   8.809   1.537   5.429  0.9927  0.6866  1.3346
27940SOL    HW295880   8.936   1.460   5.362  0.3506  0.8048 -0.0411
27941SOL     OW95881   6.854   2.449   4.081  0.4932  0.2818  0.1234
27941SOL    HW195882   6.905   2.511   4.140  1.6878  0.8599 -1.4690
27941SOL    HW295883   6.870   2.354   4.110 -0.0623  0.6285  1.5812
27942SOL     OW95884   1.992   3.989   4.385 -0.0830  0.0421  0.1033
27942SOL    HW195885   1.994   3.977   4.485  0.1752  2.4006  0.4194
27942SOL    HW295886   1.897   3.997   4.355 -0.1153  1.3694  0.4775
27943SOL     OW95887   5.927   3.364   1.475 -0.1691 -0.4441  0.6513
27943SOL    HW195888   6.002   3.416   1.516 -0.3001  0.3494 -0.0984
27943SOL    HW295889   5.870   3.325   1.547  1.1554 -1.3522  1.2270
27944SOL     OW95890   2.700   1.270   9.574  0.2074 -0.5507  0.3467
27944SOL    HW195891   2.740   1.184   9.541 -1.5963 -1.1914 -0.2113
27944SOL    HW295892   2.648   1.313   9.500  2.1777  1.7062  0.2292
27945SOL     OW95893   3.296   5.866   3.356  0.1468  0.3144 -0.0741
27945SOL    HW195894   3.385   5.831   3.324  0.6553  1.6548 -0.1350
27945SOL    HW295895   3.251   5.795   3.410  2.3822  0.5124  2.1457
27946SOL     OW95896   2.710   3.112   6.246 -0.2919 -0.4675  0.4123
27946SOL    HW195897   2.715   3.209   6.270 -1.7829 -0.1213 -0.6322
27946SOL    HW295898   2.754   3.058   6.318  0.7349  0.9824  0.9051
27947SOL     OW95899   8.869   8.825   2.132 -0.1916 -0.6127 -0.1362
27947SOL    HW195900   8.923   8.907   2.112 -0.5713 -0.0974  0.9346
27947SOL    HW295901   8.785   8.827   2.078 -0.2418 -0.2545 -0.0442
27948SOL     OW95902   0.131   2.593   8.872  0.0563  0.1502 -0.0760
27948SOL    HW195903   0.168   2.500   8.869 -1.7018 -0.5402 -1.3986
27948SOL    HW295904   0.176   2.645   8.944  1.0169 -1.7508  0.7155
27949SOL     OW95905   9.749   8.483   9.569 -0.7001  0.0829  0.0553
27949SOL    HW195906   9.805   8.496   9.651 -2.5865  0.3861  1.3271
27949SOL    HW295907   9.712   8.390   9.568 -0.8975  0.1659 -0.3248
27950SOL     OW95908   7.605   3.669   2.813  0.1400  0.0613  0.4061
27950SOL    HW195909   7.511   3.703   2.824 -0.1594 -0.1446 -1.3986
27950SOL    HW295910   7.665   3.745   2.785  0.8126  0.4921  2.8804
27951SOL     OW95911   6.216   4.265   2.087 -0.5631 -0.1099 -0.2456
27951SOL    HW195912   6.250   4.251   1.994  0.0376 -1.6099  0.1934
27951SOL    HW295913   6.182   4.178   2.123  2.0795 -0.2291  2.0949
27952SOL     OW95914   0.832   9.562   2.770 -0.1437 -0.0340 -0.7427
27952SOL    HW195915   0.838   9.462   2.766  0.7088  0.0176 -0.8905
27952SOL    HW295916   0.899   9.602   2.707 -0.4381  0.6316 -0.6423
27953SOL     OW95917   6.255   1.963   5.506  0.7480 -0.0012  0.2184
27953SOL    HW195918   6.291   1.888   5.451  1.3657 -1.0716  2.0349
27953SOL    HW295919   6.265   2.049   5.456  0.3060 -1.0728 -1.7646
27954SOL     OW95920   9.845   9.822   0.447  0.5807 -0.0389 -0.0923
27954SOL    HW195921   9.865   9.727   0.423  0.0121 -0.0743 -0.4451
27954SOL    HW295922   9.886   9.882   0.379  1.2265 -0.0177  0.3182
27955SOL     OW95923   9.332   8.561   2.584  0.3783 -0.0838 -0.0369
27955SOL    HW195924   9.276   8.603   2.655  0.3748  1.1964 -0.7805
27955SOL    HW295925   9.420   8.607   2.579  0.2749  0.0269 -1.0464
27956SOL     OW95926   1.894   3.749   5.079  0.3841 -0.4045 -0.1736
27956SOL    HW195927   1.979   3.748   5.130  0.6911 -0.2294 -0.6759
27956SOL    HW295928   1.832   3.678   5.114  0.7694 -0.5888  0.1272
27957SOL     OW95929   8.509   6.955   6.441 -0.5501 -0.2986  0.3931
27957SOL    HW195930   8.602   6.991   6.454 -0.3950 -0.2901 -0.7199
27957SOL    HW295931   8.443   7.022   6.475 -0.1385 -0.4764  1.5539
27958SOL     OW95932   2.019   2.400   0.486 -0.5808 -0.4413  0.4645
27958SOL    HW195933   1.944   2.341   0.515 -1.0399 -0.2473 -0.3244
27958SOL    HW295934   2.043   2.380   0.391  0.9010 -1.0611  0.9482
27959SOL     OW95935   5.959   2.001   5.272 -0.2812  0.2076 -0.2035
27959SOL    HW195936   5.962   1.902   5.264  0.4807 -0.0476  2.5752
27959SOL    HW295937   5.936   2.026   5.367  1.1619  2.6658 -0.4563
27960SOL     OW95938   2.335   5.137   7.011  0.0147 -0.3182  0.2432
27960SOL    HW195939   2.386   5.159   6.928 -0.4894  0.0060  0.0207
27960SOL    HW295940   2.389   5.073   7.067  1.3974  1.3020  0.7931
27961SOL     OW95941   1.541   8.174   2.002 -0.0019 -0.5927 -0.2896
27961SOL    HW195942   1.572   8.091   2.049 -0.0659 -0.5268 -0.1327
27961SOL    HW295943   1.590   8.183   1.915  1.6378  0.3722  0.6920
27962SOL     OW95944   2.710   0.954   9.324 -0.3895  0.6337 -0.2427
27962SOL    HW195945   2.735   0.958   9.227 -0.0453 -1.8123 -0.2661
27962SOL    HW295946   2.790   0.931   9.379 -0.7715  1.1720  0.5606
27963SOL     OW95947   9.846   1.189   5.391  0.6047  0.1458  0.2412
27963SOL    HW195948   9.752   1.190   5.427  0.8792  0.3887  0.9640
27963SOL    HW295949   9.883   1.097   5.398  1.3108  0.5666  2.3339
27964SOL     OW95950   5.238   4.691   1.042 -0.8979  0.0359 -0.6223
27964SOL    HW195951   5.233   4.791   1.040 -1.2393  0.0421  0.2537
27964SOL    HW295952   5.328   4.662   1.075 -0.9177  0.0579 -0.5505
27965SOL     OW95953   3.133   9.124   4.085  0.0318 -0.0869 -0.2419
27965SOL    HW195954   3.153   9.064   4.162 -0.5446 -0.9497 -0.7526
27965SOL    HW295955   3.034   9.136   4.077  0.1525  1.2788  0.1044
27966SOL     OW95956   8.023   6.793   3.875  0.9672 -0.6003 -0.7295
27966SOL    HW195957   7.972   6.868   3.918  0.6874 -1.1400 -0.1090
27966SOL    HW295958   7.975   6.707   3.891  0.5073 -0.7393 -2.7020
27967SOL     OW95959   8.135   0.452   9.214 -0.4589 -0.4468 -0.0596
27967SOL    HW195960   8.122   0.473   9.117  0.4911  0.0756 -0.0811
27967SOL    HW295961   8.217   0.498   9.247 -1.1387 -0.0962  1.1634
27968SOL     OW95962   7.087   0.137   4.510 -0.0223  0.3432  0.2243
27968SOL    HW195963   7.130   0.180   4.589 -0.7653  0.4135  0.5933
27968SOL    HW295964   7.111   0.040   4.507 -0.3137  0.2543  0.7639
27969SOL     OW95965   8.693   5.075   7.456 -0.4919  0.0699 -0.0913
27969SOL    HW195966   8.631   5.141   7.499 -0.9480  0.6953 -1.6737
27969SOL    HW295967   8.675   4.984   7.493 -0.6550  0.6439  1.2720
27970SOL     OW95968   1.151   2.352   5.156  0.3044 -0.0689 -0.1461
27970SOL    HW195969   1.136   2.448   5.178  0.5216  0.1200 -0.8105
27970SOL    HW295970   1.177   2.302   5.239  4.1243  1.2305 -0.4302
27971SOL     OW95971   3.725   0.824   7.636 -0.0332  0.0105  0.1101
27971SOL    HW195972   3.691   0.790   7.548 -0.8357 -0.7403  0.6920
27971SOL    HW295973   3.653   0.816   7.704  1.2764 -1.4836  1.3546
27972SOL     OW95974   2.536   7.388   0.970 -0.5466 -0.0530  0.0826
27972SOL    HW195975   2.613   7.441   1.006 -1.0493  0.7817 -0.0661
27972SOL    HW295976   2.459   7.393   1.034 -0.1337 -1.7384  0.7303
27973SOL     OW95977   0.184   0.697   6.764 -0.8353  0.3917  0.1764
27973SOL    HW195978   0.129   0.625   6.721  0.7364 -0.9311  0.3231
27973SOL    HW295979   0.218   0.759   6.694 -0.7428 -0.0241 -0.1466
27974SOL     OW95980   6.638   4.793   2.596  0.4098 -0.6449  0.6942
27974SOL    HW195981   6.673   4.739   2.519  2.0613  0.2849  0.7640
27974SOL    HW295982   6.653   4.744   2.681 -2.0991 -2.0126  0.3936
27975SOL     OW95983   6.838   5.819   1.727  0.5559  0.1260  0.3219
27975SOL    HW195984   6.815   5.725   1.754 -2.3807  0.2447 -1.5474
27975SOL    HW295985   6.781   5.846   1.650  2.7966  2.7723 -0.4865
27976SOL     OW95986   0.992   2.349   9.554  0.0753 -0.5651  0.1665
27976SOL    HW195987   0.940   2.270   9.587 -2.0582  1.0827  0.8668
27976SOL    HW295988   1.086   2.321   9.536 -1.2286 -3.8474 -1.9991
27977SOL     OW95989   8.580   2.862   2.548 -0.5574  0.2232 -0.0993
27977SOL    HW195990   8.527   2.864   2.463 -1.3630  0.8005  0.4165
27977SOL    HW295991   8.581   2.769   2.584  0.4330 -0.1902 -1.1346
27978SOL     OW95992   0.064   0.446   9.292 -0.1038 -0.2445  0.4717
27978SOL    HW195993   0.057   0.505   9.212  0.2241 -2.3162 -1.1298
27978SOL    HW295994   0.127   0.486   9.359 -0.2648  1.4256 -0.3710
27979SOL     OW95995   5.915   5.577   2.295 -0.6534  0.2290  0.1831
27979SOL    HW195996   5.818   5.558   2.279 -0.8756  1.0809  0.5048
27979SOL    HW295997   5.968   5.493   2.280 -1.3118  0.0192 -1.0605
27980SOL     OW95998   1.688   1.477   5.979 -0.5097  0.3981 -0.4811
27980SOL    HW195999   1.609   1.452   6.035  0.4376 -0.3237  0.5536
27980SOL    HW296000   1.694   1.576   5.972 -0.5994  0.4992  0.7695
27981SOL     OW96001   9.278   2.787   4.210 -0.1374 -0.5783 -0.2061
27981SOL    HW196002   9.319   2.870   4.172  0.0565  1.3712  3.9591
27981SOL    HW296003   9.178   2.797   4.211 -0.1529 -0.7141 -0.3340
27982SOL     OW96004   8.682   0.842   4.060 -0.3023 -0.4139 -0.1405
27982SOL    HW196005   8.754   0.792   4.012 -0.5418  0.4021 -1.3663
27982SOL    HW296006   8.720   0.925   4.101  0.0663 -1.5043  1.7659
27983SOL     OW96007   1.846   3.826   5.772 -0.0721  0.2708  0.3903
27983SOL    HW196008   1.946   3.825   5.774 -0.0696  0.8092  1.5814
27983SOL    HW296009   1.815   3.907   5.722  0.0893 -0.1504 -0.3877
27984SOL     OW96010   3.261   3.911   1.893 -0.2156  0.4802 -0.1233
27984SOL    HW196011   3.205   3.987   1.924  0.2005  1.6327 -2.1414
27984SOL    HW296012   3.353   3.943   1.871  0.7078 -1.0529  1.3270
27985SOL     OW96013   9.770   2.194   7.453  0.2440 -0.1092 -0.2115
27985SOL    HW196014   9.735   2.185   7.359 -1.3542 -0.0712  0.3665
27985SOL    HW296015   9.869   2.181   7.453  0.1940 -0.5877 -1.8401
27986SOL     OW96016   9.852   8.013   7.379 -0.0123 -0.0775  0.1581
27986SOL    HW196017   9.820   7.947   7.447 -1.8511 -0.1221 -0.7097
27986SOL    HW296018   9.822   7.984   7.288 -1.9683  2.5921 -0.1070
27987SOL     OW96019   4.797   0.059   7.568  0.1764 -0.4181  0.3835
27987SOL    HW196020   4.863  -0.009   7.536 -0.1846 -0.8005  0.4477
27987SOL    HW296021   4.719   0.060   7.506  0.7275  0.7995 -0.3134
27988SOL     OW96022   1.735   2.250   6.357  0.7467 -0.1006  0.0032
27988SOL    HW196023   1.725   2.159   6.318  1.9625 -0.9892  1.6975
27988SOL    HW296024   1.807   2.300   6.308  0.5995 -0.3314 -0.4432
27989SOL     OW96025   9.917   5.916   0.096  0.1039 -0.2088  0.0715
27989SOL    HW196026   9.823   5.893   0.068  0.5715 -2.1525 -0.0056
27989SOL    HW296027   9.927   6.015   0.102 -1.6063  0.0581 -1.1242
27990SOL     OW96028   1.055   5.472   1.427  0.0390 -0.0947  0.2333
27990SOL    HW196029   0.973   5.432   1.385 -0.1036  0.0934  0.3342
27990SOL    HW296030   1.126   5.402   1.434  0.2412 -0.0051 -0.7890
27991SOL     OW96031   0.923   8.037   8.087  0.2051  0.3104  0.0594
27991SOL    HW196032   0.984   8.115   8.073  0.0404  0.1063 -1.8851
27991SOL    HW296033   0.967   7.970   8.147  0.7573  1.4049  0.8990
27992SOL     OW96034   6.452   1.877   4.027  0.1953  0.1469  0.7553
27992SOL    HW196035   6.434   1.920   4.115 -0.1510  0.4172  0.5514
27992SOL    HW296036   6.393   1.917   3.957 -2.0401 -2.4407  1.0401
27993SOL     OW96037   2.717   4.546   2.344 -0.3847  0.0767 -0.0680
27993SOL    HW196038   2.664   4.617   2.389 -0.1439  0.4389 -0.3564
27993SOL    HW296039   2.765   4.585   2.265 -1.2224 -0.6606 -0.9572
27994SOL     OW96040   1.291   7.301   4.991  0.6555  0.0923 -0.1072
27994SOL    HW196041   1.347   7.314   5.073 -0.9820  1.3740  0.8431
27994SOL    HW296042   1.214   7.365   4.993 -1.6847 -2.6096 -0.6320
27995SOL     OW96043   4.910   0.385   1.984  0.6051  0.0630 -0.0552
27995SOL    HW196044   4.881   0.304   1.932  1.1892  0.1773 -0.5658
27995SOL    HW296045   4.862   0.466   1.948  1.8397  0.3138 -1.1656
27996SOL     OW96046   9.695   0.132   6.387  0.5387  0.2741  0.3059
27996SOL    HW196047   9.597   0.117   6.402  0.6185 -1.2959 -0.5761
27996SOL    HW296048   9.710   0.153   6.291  1.1781 -0.4815  0.2433
27997SOL     OW96049   6.646   1.231   6.514 -0.0859 -0.3258 -0.0693
27997SOL    HW196050   6.599   1.207   6.598  0.6629  0.9154  0.7259
27997SOL    HW296051   6.580   1.263   6.446 -0.2840  3.2967  1.6955
27998SOL     OW96052   3.467   6.555   8.766 -0.4194  0.1797 -0.6970
27998SOL    HW196053   3.526   6.553   8.847 -0.3319 -1.5873 -0.7777
27998SOL    HW296054   3.371   6.546   8.795 -0.5079  1.1750 -0.6842
27999SOL     OW96055   5.173   0.682   8.127  0.4509 -0.1086  0.5162
27999SOL    HW196056   5.091   0.739   8.116  0.7370 -0.1749 -2.2419
27999SOL    HW296057   5.153   0.589   8.099  0.5483 -0.9739  3.1535
28000SOL     OW96058   3.348   8.197   3.465  0.7207 -0.0128 -0.0990
28000SOL    HW196059   3.265   8.184   3.411  0.7894  1.5297 -0.5883
28000SOL    HW296060   3.323   8.207   3.562  0.4172 -0.4532 -0.1279
28001SOL     OW96061   3.280   1.619   2.656 -0.5199 -0.2975  0.3413
28001SOL    HW196062   3.302   1.715   2.673 -1.1107  0.2649 -1.8806
28001SOL    HW296063   3.181   1.606   2.663 -0.3126 -1.0709  2.0834
28002SOL     OW96064   3.712   8.105   2.855  1.0109  0.1663 -1.0308
28002SOL    HW196065   3.758   8.174   2.910  2.7215 -0.5937 -1.4640
28002SOL    HW296066   3.616   8.130   2.844  1.0010  1.1457  0.9470
28003SOL     OW96067   2.743   3.156   5.981  0.1353  0.6531  0.5567
28003SOL    HW196068   2.734   3.101   6.064  0.4621 -1.2539 -0.6466
28003SOL    HW296069   2.742   3.253   6.006  0.0726  0.1234  2.7664
28004SOL     OW96070   0.694   2.309   4.396  0.3827 -0.8047 -0.3918
28004SOL    HW196071   0.683   2.254   4.479  0.7965 -0.1862  0.0759
28004SOL    HW296072   0.672   2.404   4.415 -1.5309 -0.9974 -1.5096
28005SOL     OW96073   1.744   9.284   3.058  0.9105 -0.4146 -0.4063
28005SOL    HW196074   1.658   9.232   3.062  0.3582  0.3668 -1.7227
28005SOL    HW296075   1.753   9.339   3.141 -1.8075  2.4415 -1.8619
28006SOL     OW96076   3.906   8.754   3.480  0.1248 -0.5285  0.1982
28006SOL    HW196077   3.948   8.816   3.546  0.2224 -0.0064 -0.3465
28006SOL    HW296078   3.970   8.681   3.458  0.8799  0.4358 -0.8604
28007SOL     OW96079   8.855   0.696   3.954 -0.3426  0.1747  0.9653
28007SOL    HW196080   8.952   0.695   3.930  0.4210 -1.0463  3.8718
28007SOL    HW296081   8.822   0.602   3.965 -1.4235  0.6166  1.5597
28008SOL     OW96082   8.361   4.598   5.781  0.1049  0.5650 -0.3127
28008SOL    HW196083   8.365   4.662   5.704 -0.6903  1.8876  0.7090
28008SOL    HW296084   8.266   4.575   5.801  0.3131  0.1288  0.1922
28009SOL     OW96085   3.141   2.200   9.060  0.2089  0.2318  0.3137
28009SOL    HW196086   3.069   2.134   9.083  0.6081 -0.5202 -0.5912
28009SOL    HW296087   3.100   2.279   9.016 -0.1186  0.0096  0.2123
28010SOL     OW96088   8.715   2.464   9.425  0.6289 -0.0238  0.4152
28010SOL    HW196089   8.760   2.474   9.336  0.7219 -0.3198  0.4274
28010SOL    HW296090   8.652   2.540   9.440 -1.3755 -1.3301 -1.0580
28011SOL     OW96091   7.736   7.192   3.335  0.1400 -0.8923 -0.3061
28011SOL    HW196092   7.785   7.221   3.416  0.0262 -0.7291 -0.2948
28011SOL    HW296093   7.662   7.130   3.361  0.1499 -0.8994 -0.2933
28012SOL     OW96094   9.436   9.204   4.008  0.0174 -0.7509 -0.4095
28012SOL    HW196095   9.390   9.117   4.023 -2.1044  0.1192 -1.5743
28012SOL    HW296096   9.393   9.251   3.930  1.2527  1.2248  0.0691
28013SOL     OW96097   8.781   2.004   7.463  0.4046  0.0544  0.1995
28013SOL    HW196098   8.876   2.011   7.432  0.3308 -1.5802 -0.4433
28013SOL    HW296099   8.749   2.094   7.493  3.5652 -0.0627  4.5182
28014SOL     OW96100   2.621   7.101   1.176  0.1521  0.2252  0.2289
28014SOL    HW196101   2.689   7.035   1.208  0.9924  0.5995 -0.7436
28014SOL    HW296102   2.632   7.188   1.225  0.7493  0.4595 -0.3046
28015SOL     OW96103   5.967   0.162   7.207  1.1898 -0.4251  0.1817
28015SOL    HW196104   6.030   0.087   7.189  1.4491 -0.7245  2.1776
28015SOL    HW296105   5.873   0.127   7.211  1.2704 -0.5941  0.7070
28016SOL     OW96106   9.934   2.439   6.019  0.0914 -0.0752  0.6968
28016SOL    HW196107   9.876   2.503   5.968 -0.3837 -1.1018 -0.0857
28016SOL    HW296108   9.986   2.383   5.954  0.4933 -0.4822  1.3681
28017SOL     OW96109   1.122   9.871   7.186  0.6113 -0.3525  0.3591
28017SOL    HW196110   1.055   9.941   7.213  0.3500 -0.9625  1.3154
28017SOL    HW296111   1.198   9.872   7.251  0.7894 -0.7040  0.1560
28018SOL     OW96112   0.909   6.453   5.775  0.5700 -0.1020  0.3645
28018SOL    HW196113   0.991   6.401   5.748  0.8823 -0.4431  1.9537
28018SOL    HW296114   0.855   6.473   5.693  2.7711  1.0712 -0.8630
28019SOL     OW96115   4.692   4.426   1.965 -1.0066  0.1007  0.3305
28019SOL    HW196116   4.669   4.508   2.017  0.7276 -0.0134  1.3334
28019SOL    HW296117   4.754   4.369   2.019 -0.7365 -0.9866 -1.0896
28020SOL     OW96118   2.357   6.985   1.978 -0.1820  0.3301 -0.1691
28020SOL    HW196119   2.351   6.989   1.878 -4.4331 -2.4430 -0.1450
28020SOL    HW296120   2.340   7.077   2.015  1.3249  1.3705 -1.9326
28021SOL     OW96121   7.649   3.843   7.498  0.2534 -0.4422 -0.0790
28021SOL    HW196122   7.627   3.933   7.461  0.2657  0.0342  1.0513
28021SOL    HW296123   7.602   3.772   7.445 -0.1789  0.2582 -0.6373
28022SOL     OW96124   0.370   3.930   8.697 -0.7318  0.2749  0.0114
28022SOL    HW196125   0.312   3.932   8.615 -1.4509 -1.8967  0.4203
28022SOL    HW296126   0.330   3.988   8.768  0.1325  2.5329 -1.2862
28023SOL     OW96127   2.280   1.756   5.016  0.2414 -0.2347 -0.4480
28023SOL    HW196128   2.212   1.685   5.032 -1.0125  1.1588  0.5747
28023SOL    HW296129   2.300   1.763   4.919 -0.0209 -1.6044 -0.6050
28024SOL     OW96130   7.443   5.078   7.781 -0.0991  0.2734  0.2937
28024SOL    HW196131   7.483   4.994   7.743  1.5517  1.0434  0.2849
28024SOL    HW296132   7.493   5.157   7.746  0.0405  1.1231  2.3560
28025SOL     OW96133   0.011   8.695   6.464  0.0339 -0.4383  0.2138
28025SOL    HW196134   0.029   8.777   6.518 -2.3885 -0.5589  1.2412
28025SOL    HW296135   0.098   8.655   6.436  1.2672  2.0379  0.3332
28026SOL     OW96136   2.367   6.376   2.135  0.1630  0.3970  0.1633
28026SOL    HW196137   2.361   6.408   2.040 -1.2761  1.0112  0.4522
28026SOL    HW296138   2.310   6.434   2.193 -1.1647 -1.6928  0.9619
28027SOL     OW96139   3.433   2.297   7.292  0.1458 -1.1259 -0.3661
28027SOL    HW196140   3.457   2.359   7.366 -0.6761 -1.4079  0.1475
28027SOL    HW296141   3.516   2.254   7.255  0.5299 -1.1964  0.5822
28028SOL     OW96142   4.821   6.965   0.833  0.1259 -0.5593 -0.2274
28028SOL    HW196143   4.919   6.972   0.812  0.2810 -0.5258  0.5067
28028SOL    HW296144   4.777   7.053   0.813  0.4471 -0.2350  0.4918
28029SOL     OW96145   4.734   5.206   9.778 -0.0086  0.7729  0.1723
28029SOL    HW196146   4.683   5.192   9.692  0.3547 -1.9357  0.3742
28029SOL    HW296147   4.810   5.269   9.761 -1.3719  2.1869 -0.9145
28030SOL     OW96148   2.185   8.673   2.962 -0.1427  0.1500  0.2309
28030SOL    HW196149   2.269   8.650   2.913  0.4617  1.3134  0.7004
28030SOL    HW296150   2.124   8.594   2.962  1.7435 -1.3560  1.5328
28031SOL     OW96151   9.396   9.600   1.183 -0.8621 -0.5669  0.0962
28031SOL    HW196152   9.425   9.510   1.151 -3.0661 -0.9888 -0.8619
28031SOL    HW296153   9.317   9.630   1.130  0.2565  2.2614 -0.0562
28032SOL     OW96154   0.838   5.777   0.911  0.3651  0.1017  0.0504
28032SOL    HW196155   0.849   5.750   0.815 -1.3024  0.6268 -0.2919
28032SOL    HW296156   0.757   5.834   0.921  2.1789  2.5398  1.2893
28033SOL     OW96157   7.290   4.542   1.368 -0.6013  0.1008  0.0010
28033SOL    HW196158   7.374   4.597   1.372 -0.3612  0.0053 -3.0555
28033SOL    HW296159   7.300   4.462   1.428  0.8910  0.9029  0.8404
28034SOL     OW96160   0.156   9.582   2.627  0.0320  0.1067  0.2525
28034SOL    HW196161   0.206   9.658   2.669 -0.8303  1.0741 -0.4728
28034SOL    HW296162   0.221   9.522   2.579  0.4716  1.5050 -0.9199
28035SOL     OW96163   2.162   2.210   7.831  0.0627  0.1440 -0.4907
28035SOL    HW196164   2.168   2.308   7.849 -0.8745  0.0764  0.2742
28035SOL    HW296165   2.126   2.163   7.913 -0.1518 -0.7402 -1.0789
28036SOL     OW96166   7.435   1.052   7.174 -0.0277 -0.2728  0.4217
28036SOL    HW196167   7.416   1.136   7.223  3.6793  1.7110 -1.3193
28036SOL    HW296168   7.401   1.059   7.080 -0.5801 -1.1303  0.5506
28037SOL     OW96169   2.116   5.793   2.207 -0.0769 -0.3611 -0.6272
28037SOL    HW196170   2.150   5.863   2.144  1.3077 -0.7897 -0.3782
28037SOL    HW296171   2.181   5.781   2.282 -1.2347 -0.5520  0.3741
28038SOL     OW96172   0.944   0.435   8.909 -0.6213 -0.0766 -0.0720
28038SOL    HW196173   1.010   0.363   8.929 -1.4720 -1.4171 -1.9909
28038SOL    HW296174   0.948   0.459   8.812 -2.9650 -0.2037 -0.2348
28039SOL     OW96175   3.019   3.757   6.649 -0.2515  0.1033 -0.1857
28039SOL    HW196176   2.938   3.811   6.626 -0.1709  0.4577  0.3423
28039SOL    HW296177   3.037   3.690   6.577 -1.2470 -0.2469 -0.1136
28040SOL     OW96178   7.002   9.990   7.338 -0.2432 -0.2281  0.1072
28040SOL    HW196179   7.067   9.918   7.363 -0.0886 -0.3675 -0.7053
28040SOL    HW296180   7.050  10.077   7.332 -0.1990 -0.2670 -0.1166
28041SOL     OW96181   3.686   0.780   3.227  0.3261  1.2765 -0.3962
28041SOL    HW196182   3.624   0.855   3.202 -0.3418  0.5053 -1.0394
28041SOL    HW296183   3.682   0.708   3.159 -1.7024 -0.9779  1.9864
28042SOL     OW96184   9.228   1.081   9.364  0.0319  0.5189 -0.4962
28042SOL    HW196185   9.216   0.985   9.392 -0.3421  0.6895 -0.0556
28042SOL    HW296186   9.242   1.085   9.265  0.2591 -0.0090 -0.4880
28043SOL     OW96187   1.441   1.696   6.116  0.2893  0.0502  0.3847
28043SOL    HW196188   1.394   1.618   6.158  0.7188 -0.1016  0.5894
28043SOL    HW296189   1.429   1.692   6.017 -0.6113  0.3315  0.4774
28044SOL     OW96190   0.468   0.122   7.039 -0.1688 -0.3968  0.0198
28044SOL    HW196191   0.369   0.109   7.046 -0.4913  2.0325  0.3072
28044SOL    HW296192   0.506   0.139   7.129  0.4160 -0.6422 -0.1784
28045SOL     OW96193   9.049   4.780   4.727 -0.0684 -0.2347 -0.2166
28045SOL    HW196194   9.039   4.683   4.706 -0.0645  0.1052 -1.8732
28045SOL    HW296195   8.993   4.834   4.663  0.1750  0.8683  0.4831
28046SOL     OW96196   3.947   3.012   0.057  0.0385  0.7441  0.3750
28046SOL    HW196197   3.977   3.101   0.022 -0.3986  0.2323 -1.3354
28046SOL    HW296198   3.852   2.997   0.032 -0.6957  0.8911  2.8861
28047SOL     OW96199   3.011   2.972   0.748 -0.5468  0.4713  0.3868
28047SOL    HW196200   2.980   2.901   0.811 -1.0177 -1.2011 -1.6840
28047SOL    HW296201   3.103   2.951   0.717 -0.2870  1.3317  0.5597
28048SOL     OW96202   3.216   7.826   3.870 -0.5531  0.1227  0.1589
28048SOL    HW196203   3.177   7.856   3.782  1.0217  0.0799 -0.5640
28048SOL    HW296204   3.307   7.865   3.881  0.0542 -1.4770  0.8815
28049SOL     OW96205   3.259   1.313   1.211 -0.1458 -0.6263  0.1602
28049SOL    HW196206   3.195   1.307   1.287 -0.6100 -2.0749 -0.3345
28049SOL    HW296207   3.212   1.348   1.130 -0.4469 -2.1786 -0.3428
28050SOL     OW96208   1.769   8.051   3.373 -0.5302 -0.2129 -1.1247
28050SOL    HW196209   1.766   7.969   3.430 -1.3662 -1.2661 -2.6410
28050SOL    HW296210   1.729   8.128   3.423 -1.4670 -1.1758 -0.3688
28051SOL     OW96211   2.771   4.282   3.367 -0.0567 -0.3086 -0.0661
28051SOL    HW196212   2.737   4.357   3.423 -0.6039 -2.2746  2.3659
28051SOL    HW296213   2.751   4.300   3.270 -0.8712  2.2631  0.5445
28052SOL     OW96214   7.666   3.440   4.418  0.2456 -0.3085 -0.5102
28052SOL    HW196215   7.756   3.475   4.392  0.8238 -0.5614  1.0909
28052SOL    HW296216   7.646   3.468   4.512 -2.0666  1.1547 -1.3985
28053SOL     OW96217   6.011   1.028   2.369 -0.3699  0.1306  0.1072
28053SOL    HW196218   6.000   1.080   2.284  3.0389 -1.1541 -1.2539
28053SOL    HW296219   6.078   1.075   2.427 -0.3305 -0.6159  0.6604
28054SOL     OW96220   2.463   9.820   5.437 -0.5426  0.5142  0.5855
28054SOL    HW196221   2.442   9.722   5.435  0.7302  0.2450  0.0347
28054SOL    HW296222   2.378   9.872   5.437 -1.2542 -0.6013  1.7693
28055SOL     OW96223   1.809   1.981   7.182 -0.4032 -0.0147  0.3270
28055SOL    HW196224   1.876   1.913   7.213 -0.6857  0.1092  1.2342
28055SOL    HW296225   1.857   2.065   7.156 -0.1638 -0.0981  0.4923
28056SOL     OW96226   9.220   6.508   9.592  0.0586 -0.4560 -0.1883
28056SOL    HW196227   9.192   6.603   9.582 -0.7617 -0.6941 -0.1827
28056SOL    HW296228   9.279   6.482   9.515 -0.0317 -0.0598 -0.3883
28057SOL     OW96229   7.299   9.682   1.279  0.1357  0.5437 -0.4951
28057SOL    HW196230   7.252   9.632   1.207 -0.3796  1.2832 -0.6760
28057SOL    HW296231   7.294   9.780   1.261 -0.8170  0.7961  1.0247
28058SOL     OW96232   9.389   8.197   0.143 -0.3717  0.1783 -0.2756
28058SOL    HW196233   9.376   8.199   0.044  3.2781  0.9202 -0.8347
28058SOL    HW296234   9.358   8.109   0.180  0.0347 -0.8707 -2.3773
28059SOL     OW96235   2.465   5.169   4.179 -0.0491  0.1768  0.0279
28059SOL    HW196236   2.505   5.120   4.102 -1.3144  0.8434 -1.0748
28059SOL    HW296237   2.500   5.263   4.180  0.6906 -0.1003  0.8348
28060SOL     OW96238   3.376   3.473   6.515  0.9464  0.8147 -0.4757
28060SOL    HW196239   3.383   3.503   6.420  0.0312 -0.2333 -0.8763
28060SOL    HW296240   3.328   3.543   6.568 -0.5437  0.4212 -1.2629
28061SOL     OW96241   1.932   8.962   1.233  0.4314 -0.2948 -0.0584
28061SOL    HW196242   1.979   8.891   1.181  0.9166  0.7275 -1.0295
28061SOL    HW296243   1.948   8.947   1.331 -0.0784 -1.9328 -0.2063
28062SOL     OW96244   0.383   2.121   9.399  0.3807  0.5344  0.0317
28062SOL    HW196245   0.323   2.179   9.454  0.8379  1.7398 -0.7191
28062SOL    HW296246   0.343   2.030   9.391 -0.3624  0.7441  1.2012
28063SOL     OW96247   7.996   7.319   5.952  0.5302 -0.2562  0.6567
28063SOL    HW196248   7.989   7.252   5.879 -1.5305 -0.2310  0.8201
28063SOL    HW296249   8.058   7.392   5.924 -0.0025 -0.4038 -0.9484
28064SOL     OW96250   3.578   3.593   1.575  0.0228  0.2026  0.0791
28064SOL    HW196251   3.674   3.595   1.550 -0.1114 -0.5198 -0.5013
28064SOL    HW296252   3.568   3.626   1.669  0.7518  0.9210 -0.0875
28065SOL     OW96253   1.395   9.720   9.184 -0.5331 -0.0821  0.4754
28065SOL    HW196254   1.362   9.793   9.244  1.2375  0.4469  0.8489
28065SOL    HW296255   1.344   9.723   9.098 -1.3586  0.7782  0.9764
28066SOL     OW96256   2.234   7.358   5.588 -0.4643 -0.2853  0.1889
28066SOL    HW196257   2.278   7.368   5.677  0.0070 -0.6793  0.0048
28066SOL    HW296258   2.231   7.446   5.541  2.2271 -0.6501 -0.7705
28067SOL     OW96259   1.704   5.905   7.023 -0.0774  0.4766  0.1429
28067SOL    HW196260   1.611   5.869   7.024 -0.5551  1.6872  0.3157
28067SOL    HW296261   1.768   5.831   7.001 -1.2762  0.1136 -2.3021
28068SOL     OW96262   8.879   7.936   3.797  0.2813  0.2965 -0.9110
28068SOL    HW196263   8.794   7.888   3.779  0.0876 -0.2624  1.3429
28068SOL    HW296264   8.951   7.870   3.818  0.7378  0.8465 -0.7296
28069SOL     OW96265   4.787   3.541   9.698 -0.6739 -0.5403  0.0769
28069SOL    HW196266   4.884   3.529   9.673 -0.7410 -0.6342 -0.1403
28069SOL    HW296267   4.748   3.452   9.722 -0.5717 -0.4334  0.6620
28070SOL     OW96268   4.824   4.814   1.822  0.1875 -0.6575  0.2170
28070SOL    HW196269   4.730   4.781   1.829 -0.1717  0.0101 -1.3026
28070SOL    HW296270   4.878   4.751   1.767 -0.1033  0.4433 -1.3496
28071SOL     OW96271   8.982   9.013   2.628 -0.1429  0.4525 -0.5141
28071SOL    HW196272   8.974   9.054   2.719  0.0372 -0.6665  0.0216
28071SOL    HW296273   8.906   9.043   2.571  0.4731  2.2315 -0.4301
28072SOL     OW96274   3.571   8.210   9.146  0.4373 -0.2912 -0.3672
28072SOL    HW196275   3.655   8.167   9.180  0.4423 -0.7793 -1.0095
28072SOL    HW296276   3.517   8.241   9.224 -0.2270 -2.6869  0.1489
28073SOL     OW96277   9.137   4.677   8.131 -0.1263  0.7639  0.0819
28073SOL    HW196278   9.207   4.678   8.202 -0.0020 -0.6389 -0.0123
28073SOL    HW296279   9.176   4.710   8.045  0.3125  0.3789  0.1306
28074SOL     OW96280   8.677   8.716   3.259  0.0154  0.2432 -0.7040
28074SOL    HW196281   8.578   8.710   3.250  0.0428 -0.8946 -0.3380
28074SOL    HW296282   8.703   8.808   3.290 -1.1024 -0.2208  1.7037
28075SOL     OW96283   7.819   9.910   2.444  0.0559  0.1922 -0.3294
28075SOL    HW196284   7.824   9.811   2.456 -0.4939  0.2594  0.5058
28075SOL    HW296285   7.743   9.946   2.499  0.3699  1.0944 -0.4819
28076SOL     OW96286   1.296   0.628   7.606 -0.1436  0.3136  0.0510
28076SOL    HW196287   1.299   0.676   7.694 -0.3816  0.1434  0.1505
28076SOL    HW296288   1.328   0.690   7.534  1.6882 -0.0669  0.4967
28077SOL     OW96289   2.415   1.757   3.234 -0.6633 -0.2987  0.2100
28077SOL    HW196290   2.356   1.691   3.188 -1.4326 -0.1069  0.8891
28077SOL    HW296291   2.500   1.713   3.262  0.1882 -0.2044 -2.1252
28078SOL     OW96292   1.927   0.142   3.870  0.1301 -0.4314 -0.0112
28078SOL    HW196293   1.838   0.185   3.887 -0.8553 -1.5305 -2.2134
28078SOL    HW296294   1.933   0.057   3.921 -0.3275 -0.6409 -0.2988
28079SOL     OW96295   6.113   7.352   3.133 -0.4255  0.2876  0.2625
28079SOL    HW196296   6.213   7.356   3.124 -0.4854  1.7780  0.1756
28079SOL    HW296297   6.071   7.406   3.060 -1.2451  1.5226  1.6330
28080SOL     OW96298   1.076   5.695   9.431  0.6394 -0.1805  0.0625
28080SOL    HW196299   1.089   5.671   9.527  2.5933  1.2901  0.2098
28080SOL    HW296300   1.163   5.687   9.383 -0.1249  0.0030 -1.3649
28081SOL     OW96301   7.475   3.472   7.965 -0.0789  0.3392  0.9446
28081SOL    HW196302   7.404   3.415   8.005  1.1971 -0.0986  2.6894
28081SOL    HW296303   7.486   3.555   8.020 -0.1382  1.0241 -0.0637
28082SOL     OW96304   9.408   2.376   4.075  0.3794 -0.1293  0.1580
28082SOL    HW196305   9.403   2.457   4.016 -0.7263 -0.5408 -0.3092
28082SOL    HW296306   9.379   2.295   4.025 -2.1117 -0.2506  1.7157
28083SOL     OW96307   9.403   6.544   3.508 -0.2959 -0.2941 -0.1616
28083SOL    HW196308   9.447   6.471   3.560  0.3757  0.5339  0.4518
28083SOL    HW296309   9.470   6.586   3.446 -0.4401  0.3863  0.1363
28084SOL     OW96310   5.287   5.654   9.818  0.1596 -0.0619  0.1197
28084SOL    HW196311   5.214   5.678   9.882  0.5209  0.9740  0.1504
28084SOL    HW296312   5.251   5.589   9.750 -0.9729  0.9014 -0.2298
28085SOL     OW96313   2.831   1.689   3.873  0.0083 -0.2830 -0.6513
28085SOL    HW196314   2.922   1.710   3.910  0.8304 -3.6299 -0.6502
28085SOL    HW296315   2.764   1.687   3.947  0.2045  0.7085 -0.4433
28086SOL     OW96316   9.113   6.042   0.396  0.2984 -0.1411  0.3471
28086SOL    HW196317   9.198   6.078   0.434 -0.9707  1.3241  1.8373
28086SOL    HW296318   9.101   5.947   0.425  2.0362 -0.7658 -0.9158
28087SOL     OW96319   3.473   4.808   0.076  0.4344  0.1010  0.0760
28087SOL    HW196320   3.417   4.828   0.156 -1.3302 -0.2499 -1.0340
28087SOL    HW296321   3.563   4.851   0.086  1.1576 -1.9715  3.3502
28088SOL     OW96322   4.175   6.755   3.303 -0.1231  0.3516  0.3155
28088SOL    HW196323   4.128   6.682   3.351 -0.1984  0.5904  0.6090
28088SOL    HW296324   4.250   6.718   3.249 -0.0321  0.0850  0.6286
28089SOL     OW96325   1.902   5.277   0.686 -0.4266 -0.3395 -0.6708
28089SOL    HW196326   1.807   5.305   0.698 -0.5820 -0.6146 -1.2133
28089SOL    HW296327   1.910   5.178   0.703 -0.2936 -0.3679 -0.8987
28090SOL     OW96328   2.977   0.529   1.752 -0.0081 -0.0899 -0.5054
28090SOL    HW196329   3.057   0.589   1.745 -0.7740  1.2975  2.1459
28090SOL    HW296330   2.990   0.464   1.826 -2.0904  1.3823  1.2032
28091SOL     OW96331   8.737   9.170   7.808 -0.6185 -0.3201  0.2403
28091SOL    HW196332   8.672   9.110   7.762  0.7348 -0.8423 -1.0577
28091SOL    HW296333   8.742   9.147   7.905 -1.5856 -0.9685  0.1428
28092SOL     OW96334   1.164   2.715   9.234 -0.3570 -0.0671  0.0155
28092SOL    HW196335   1.074   2.757   9.217  0.2175  1.2575  0.2162
28092SOL    HW296336   1.224   2.781   9.280  1.4538 -0.1808 -2.1160
28093SOL     OW96337   3.606   0.627   5.681  0.9638  0.1519  0.1722
28093SOL    HW196338   3.690   0.578   5.659  1.3130  0.2176  1.3007
28093SOL    HW296339   3.611   0.720   5.647  0.2929 -0.5845 -1.9938
28094SOL     OW96340   9.032   1.536   8.578 -0.1500  0.4076 -0.5424
28094SOL    HW196341   9.084   1.452   8.593 -0.2316  0.3923 -0.3503
28094SOL    HW296342   9.084   1.597   8.518 -0.4894 -0.1600 -1.4354
28095SOL     OW96343   0.339   8.962   5.243 -0.6796 -1.0071  0.6554
28095SOL    HW196344   0.265   8.929   5.184  1.8430  0.5792 -3.6016
28095SOL    HW296345   0.405   8.888   5.257 -0.0372 -0.7083 -0.6602
28096SOL     OW96346   9.133   3.048   9.595 -0.2594 -0.0657 -0.2161
28096SOL    HW196347   9.192   2.991   9.653  2.5878  1.6220 -1.3267
28096SOL    HW296348   9.136   3.014   9.501  0.8475  1.3964 -0.7331
28097SOL     OW96349   8.654   9.648   3.248 -0.0952  0.0861 -0.2268
28097SOL    HW196350   8.733   9.660   3.309  0.2736 -1.7532 -0.3011
28097SOL    HW296351   8.572   9.681   3.294  0.3143 -0.5061  0.9688
28098SOL     OW96352   2.743   5.756   7.138  0.6290  0.2104  0.2394
28098SOL    HW196353   2.792   5.685   7.088  0.7215  0.1153  0.4644
28098SOL    HW296354   2.651   5.724   7.160  0.7883  0.0215  0.6475
28099SOL     OW96355   9.489   3.927   3.954  0.4622  0.0449  0.0078
28099SOL    HW196356   9.445   3.940   4.043 -0.2545  0.0650 -0.3393
28099SOL    HW296357   9.485   3.831   3.928 -0.8538  0.2912 -0.7624
28100SOL     OW96358   7.718   4.222   1.733  0.2508 -0.8689 -0.4540
28100SOL    HW196359   7.806   4.263   1.754  0.8414 -1.9895 -0.7021
28100SOL    HW296360   7.647   4.262   1.791  1.1734 -1.0253  0.7920
28101SOL     OW96361   7.007   5.486   7.074  0.5439  0.5768 -0.4232
28101SOL    HW196362   7.103   5.508   7.089 -0.1301  1.5826  2.8316
28101SOL    HW296363   6.995   5.387   7.078  1.0295  0.5803  2.3500
28102SOL     OW96364   7.300   7.004   7.702 -0.4055  0.5078  0.1367
28102SOL    HW196365   7.241   7.083   7.684 -1.6439 -0.5878 -0.7271
28102SOL    HW296366   7.314   6.994   7.800 -1.6594  0.8030  0.3508
28103SOL     OW96367   3.040   3.992   9.093 -0.0150  0.3113 -0.0173
28103SOL    HW196368   3.104   3.953   9.027  0.0136 -0.4639  0.4646
28103SOL    HW296369   2.968   3.926   9.113  2.0394 -0.9594  3.5840
28104SOL     OW96370   9.658   7.318   6.707  0.8555  0.2589  0.1866
28104SOL    HW196371   9.610   7.342   6.623  0.2538 -0.1558  0.4095
28104SOL    HW296372   9.660   7.219   6.717  1.3760  0.2889  0.4005
28105SOL     OW96373   8.613   9.608   9.350 -0.9319 -0.4282  0.3577
28105SOL    HW196374   8.671   9.579   9.426 -0.1645 -0.9583 -0.4103
28105SOL    HW296375   8.525   9.638   9.384 -0.1198  0.6057  1.5792
28106SOL     OW96376   7.860   7.129   7.513 -0.2531  0.3207 -0.1644
28106SOL    HW196377   7.943   7.104   7.562  0.4757  1.5588 -0.7363
28106SOL    HW296378   7.864   7.094   7.419  0.4353  1.8803 -0.7381
28107SOL     OW96379   3.872   9.980   0.703 -0.0465  0.2383 -0.3047
28107SOL    HW196380   3.776   9.976   0.672  0.1349  1.3718 -1.0464
28107SOL    HW296381   3.921  10.049   0.650  1.5119 -1.2217 -0.8002
28108SOL     OW96382   2.410   5.603   1.458  0.3723  0.1438 -0.5825
28108SOL    HW196383   2.379   5.671   1.525 -2.2098 -0.4783 -1.0959
28108SOL    HW296384   2.463   5.532   1.505 -0.4364  0.3287  0.6514
28109SOL     OW96385   8.967   9.236   8.926  0.0258 -0.3297 -0.4210
28109SOL    HW196386   9.015   9.188   8.852 -1.3706  0.6490 -1.9972
28109SOL    HW296387   9.033   9.263   8.996  1.6652  0.2199 -2.1265
28110SOL     OW96388   2.876   6.040   0.171  0.4369  0.1614  0.2214
28110SOL    HW196389   2.946   6.088   0.118  0.5188 -0.9782 -0.7266
28110SOL    HW296390   2.790   6.040   0.121 -0.0637  0.9190  1.0586
28111SOL     OW96391   1.488   3.052   5.562 -0.3123  0.0694 -0.9278
28111SOL    HW196392   1.579   3.086   5.586  0.1478 -1.0119 -1.1491
28111SOL    HW296393   1.420   3.118   5.593  0.4921  0.4831 -0.0057
28112SOL     OW96394   6.554   1.685   2.277 -0.4544 -0.2610  0.1607
28112SOL    HW196395   6.606   1.755   2.228 -1.3038 -0.8426 -1.6121
28112SOL    HW296396   6.617   1.626   2.327  0.4355  0.3740 -0.1949
28113SOL     OW96397   8.842   0.355   4.033  0.1726 -0.4932 -0.4459
28113SOL    HW196398   8.772   0.309   3.978 -1.1064  0.8989 -0.0076
28113SOL    HW296399   8.823   0.340   4.130  0.9554 -0.7778 -0.3321
28114SOL     OW96400   7.904   3.585   4.356 -0.1661  0.1370 -0.2630
28114SOL    HW196401   7.930   3.493   4.329  0.9647  0.7319 -1.2683
28114SOL    HW296402   7.946   3.651   4.294 -1.0727  1.3246  0.3617
28115SOL     OW96403   8.577   1.344   2.618  0.4800 -0.3243 -0.6370
28115SOL    HW196404   8.508   1.414   2.635 -0.9707 -1.7016 -0.7988
28115SOL    HW296405   8.667   1.379   2.644 -0.2930  1.4221 -0.2749
28116SOL     OW96406   4.118   0.747   1.561 -0.8387 -0.3265  0.3396
28116SOL    HW196407   4.179   0.825   1.545 -0.7674 -0.6961 -1.2559
28116SOL    HW296408   4.148   0.699   1.643 -0.4847  0.9412  0.9674
28117SOL     OW96409   4.961   9.754   7.214 -0.7287  0.0265 -0.2629
28117SOL    HW196410   5.059   9.744   7.227 -0.6590 -0.7369 -1.4010
28117SOL    HW296411   4.919   9.777   7.302  0.0792 -2.6623  0.8824
28118SOL     OW96412   4.311   4.688   1.210  0.4275 -0.0338  0.1518
28118SOL    HW196413   4.378   4.761   1.220 -2.3326  2.7747 -0.8865
28118SOL    HW296414   4.257   4.681   1.293  0.2644 -0.4485  0.0122
28119SOL     OW96415   9.653   6.823   8.782 -0.1050  0.3255  0.8273
28119SOL    HW196416   9.569   6.876   8.795  0.2721  1.2151 -0.2859
28119SOL    HW296417   9.629   6.728   8.761 -0.8810  0.7976 -0.5250
28120SOL     OW96418   0.234   2.282   9.559 -0.2769 -0.2319  0.2472
28120SOL    HW196419   0.138   2.273   9.530  0.0044 -0.9741 -0.4734
28120SOL    HW296420   0.240   2.348   9.634 -1.3858 -0.3492  0.4520
28121SOL     OW96421   4.940   1.065   1.065  0.0802  0.5193 -0.5175
28121SOL    HW196422   4.938   1.125   1.145 -1.6245  0.3711 -0.4314
28121SOL    HW296423   4.861   1.085   1.007  0.3938 -0.5355 -1.3169
28122SOL     OW96424   7.349   4.036   3.330 -0.0557 -0.1713  0.7584
28122SOL    HW196425   7.339   4.025   3.429  0.2963 -0.7316  0.7353
28122SOL    HW296426   7.405   4.117   3.311 -0.3127  0.0691  1.0073
28123SOL     OW96427   0.484   2.462   7.648  0.6080  0.1204 -0.2021
28123SOL    HW196428   0.401   2.500   7.607  0.7134 -1.2194 -1.7225
28123SOL    HW296429   0.562   2.522   7.627 -0.0293  1.5935  1.5775
28124SOL     OW96430   1.346   7.335   5.428 -0.3638 -0.3399  0.0171
28124SOL    HW196431   1.412   7.325   5.353 -1.6157  2.5262 -1.5453
28124SOL    HW296432   1.355   7.426   5.468 -3.0601 -0.0592  0.0621
28125SOL     OW96433   9.411   1.839   8.304  0.1883 -0.2726 -0.5873
28125SOL    HW196434   9.503   1.800   8.301  0.5481  0.5456 -0.4019
28125SOL    HW296435   9.378   1.856   8.211  0.6020  0.2870 -0.6350
28126SOL     OW96436   0.348   7.194   8.836  0.2640  0.8816  0.2112
28126SOL    HW196437   0.258   7.158   8.863  0.3810  0.6164  0.2462
28126SOL    HW296438   0.335   7.264   8.766  0.0192  0.9317  0.3052
28127SOL     OW96439   8.106   1.984   5.809 -0.2671 -0.2351 -0.6760
28127SOL    HW196440   8.174   2.009   5.879  0.1833  1.0094 -1.5431
28127SOL    HW296441   8.074   1.891   5.826 -0.4660  0.1792  1.4288
28128SOL     OW96442   3.594   6.132   2.691  0.1577 -0.6113  0.5563
28128SOL    HW196443   3.524   6.071   2.654  1.0869 -1.3068 -0.0900
28128SOL    HW296444   3.684   6.092   2.675  0.8570  1.5213 -0.9858
28129SOL     OW96445   8.278   2.464   0.436  0.2905  0.0846  0.0234
28129SOL    HW196446   8.360   2.420   0.400 -0.1193 -1.0024  0.4119
28129SOL    HW296447   8.303   2.550   0.481  1.2819 -0.5222  0.6412
28130SOL     OW96448   5.185   1.354   6.141 -0.2291 -0.4400  0.0495
28130SOL    HW196449   5.244   1.429   6.172  0.1130  0.4985 -2.7101
28130SOL    HW296450   5.104   1.348   6.200 -0.4011  2.2911  0.1494
28131SOL     OW96451   3.947   5.867   7.638 -0.0839 -0.0005  0.1084
28131SOL    HW196452   3.883   5.836   7.569 -0.1274 -1.5502  0.8252
28131SOL    HW296453   4.010   5.793   7.662  0.1215  0.5977  1.5064
28132SOL     OW96454   7.250   1.580   1.617 -0.1491 -0.5073  0.1746
28132SOL    HW196455   7.155   1.602   1.593  0.0780  0.7095  0.3246
28132SOL    HW296456   7.269   1.485   1.594 -1.0902 -0.4582 -0.8767
28133SOL     OW96457   9.099   2.405   2.186 -0.0948 -0.3899  0.8030
28133SOL    HW196458   9.117   2.444   2.096 -0.5315 -1.1659  0.3751
28133SOL    HW296459   9.133   2.467   2.256  2.4087 -0.8736  0.0741
28134SOL     OW96460   4.065   3.435   4.062 -0.5312 -0.3568 -0.0756
28134SOL    HW196461   3.996   3.391   4.120 -0.0142 -1.5119 -0.3294
28134SOL    HW296462   4.028   3.449   3.971 -0.3286 -1.2795 -0.3054
28135SOL     OW96463   8.717   3.528   0.669  0.2182  0.3832 -0.0457
28135SOL    HW196464   8.738   3.434   0.641 -0.4977  0.2289 -0.0543
28135SOL    HW296465   8.640   3.563   0.616  2.0264  1.8464 -1.7796
28136SOL     OW96466   0.780   1.787   5.700 -0.1905 -0.2553 -0.0245
28136SOL    HW196467   0.853   1.822   5.641 -0.2419 -0.4634 -0.2099
28136SOL    HW296468   0.801   1.694   5.728 -0.4663 -0.3742 -0.2118
28137SOL     OW96469   4.164   3.582   7.240  0.3384 -0.4446  0.0050
28137SOL    HW196470   4.141   3.657   7.179 -1.5051 -0.3546  0.7847
28137SOL    HW296471   4.255   3.547   7.218  1.3310  2.1903 -0.1617
28138SOL     OW96472   3.079   1.960   3.066 -0.0508 -0.3400 -0.3913
28138SOL    HW196473   3.093   1.909   2.981 -0.4182 -0.8133 -0.1716
28138SOL    HW296474   3.165   1.964   3.117  0.0969 -0.3201 -0.6411
28139SOL     OW96475   3.865   2.665   9.325 -0.9578 -0.1353 -0.3869
28139SOL    HW196476   3.857   2.640   9.228  3.2714 -1.5535 -0.4630
28139SOL    HW296477   3.825   2.593   9.381 -1.1292 -0.5085 -0.9812
28140SOL     OW96478   2.556   9.540   9.435  0.7936  0.0975 -0.4401
28140SOL    HW196479   2.624   9.472   9.460  0.3902  0.1567  0.8477
28140SOL    HW296480   2.579   9.628   9.477 -0.0351  0.1350 -0.0514
28141SOL     OW96481   3.334   2.269   9.293 -0.1670  0.5291 -0.1208
28141SOL    HW196482   3.427   2.289   9.263  0.9937 -1.8774  1.6776
28141SOL    HW296483   3.274   2.262   9.214  1.4163  0.8909 -1.3761
28142SOL     OW96484   6.442   1.947   1.476  0.3898 -0.2063  0.1819
28142SOL    HW196485   6.476   1.868   1.425 -1.0842 -0.4003 -0.5215
28142SOL    HW296486   6.342   1.947   1.475  0.3266 -0.0229  2.8137
28143SOL     OW96487   3.066   7.810   8.249  0.1735  0.2138 -0.0779
28143SOL    HW196488   3.027   7.870   8.319 -0.1338 -0.1804  0.0915
28143SOL    HW296489   3.110   7.731   8.294 -2.4857 -1.5231 -0.4081
28144SOL     OW96490   1.594   3.709   3.487  0.0615 -0.0333 -0.2338
28144SOL    HW196491   1.496   3.707   3.464 -0.0934  0.2661  0.3895
28144SOL    HW296492   1.623   3.804   3.500 -0.4198 -0.2734  3.1216
28145SOL     OW96493   1.936   4.755   1.158 -0.0747  0.3059  1.0165
28145SOL    HW196494   2.020   4.747   1.104 -0.4031 -0.5853  0.6210
28145SOL    HW296495   1.863   4.793   1.102 -0.0414  0.7011  1.2419
28146SOL     OW96496   9.455   2.378   6.768  0.0922  0.0962  0.1020
28146SOL    HW196497   9.521   2.435   6.719  0.1052  2.2264  2.4730
28146SOL    HW296498   9.369   2.427   6.776 -0.8361 -1.4315 -0.3008
28147SOL     OW96499   7.769   0.251   4.594  0.3383  0.2217  0.4429
28147SOL    HW196500   7.844   0.283   4.652  1.8580 -1.9946 -0.2671
28147SOL    HW296501   7.736   0.163   4.629 -1.0024  0.5009 -0.0957
28148SOL     OW96502   5.557   5.699   8.221 -0.0286 -0.5121 -0.3433
28148SOL    HW196503   5.635   5.718   8.280 -0.0860 -1.1750 -0.0481
28148SOL    HW296504   5.581   5.719   8.125 -0.6745  2.8427  0.1103
28149SOL     OW96505   5.838   8.813   2.024  0.2072 -0.0610 -0.5969
28149SOL    HW196506   5.767   8.791   2.092  0.7843 -1.6961 -0.4979
28149SOL    HW296507   5.855   8.732   1.967  1.2818  0.6297 -1.2647
28150SOL     OW96508   0.413   9.151   5.057 -0.5055 -0.0458 -0.4323
28150SOL    HW196509   0.450   9.095   4.983 -0.1274 -2.2807  1.3816
28150SOL    HW296510   0.398   9.093   5.138 -1.9165  2.1174  0.8934
28151SOL     OW96511   1.507   4.871   0.456  0.1040 -0.2887 -0.0526
28151SOL    HW196512   1.512   4.785   0.406 -1.3392  0.4252 -1.4606
28151SOL    HW296513   1.495   4.947   0.391 -0.3503  0.8055  1.2835
28152SOL     OW96514   1.973   0.206   9.858 -0.1159 -0.1696  0.6000
28152SOL    HW196515   2.064   0.245   9.843  0.2701 -1.3442 -0.1878
28152SOL    HW296516   1.913   0.233   9.782  0.4425 -1.9327 -0.5065
28153SOL     OW96517   8.236   8.416   7.638 -0.1875  0.2886 -0.1245
28153SOL    HW196518   8.236   8.479   7.561 -0.4254 -0.1980 -0.5302
28153SOL    HW296519   8.330   8.387   7.658 -0.1512  0.2446 -0.3685
28154SOL     OW96520   3.152   6.588   3.319  0.2269 -0.4417 -0.7705
28154SOL    HW196521   3.197   6.588   3.230  1.6215 -0.7626 -0.0852
28154SOL    HW296522   3.175   6.504   3.368  1.1446  0.6548  0.7135
28155SOL     OW96523   2.459   9.709   4.613 -0.4097 -0.4941  0.9133
28155SOL    HW196524   2.471   9.635   4.546 -1.3563  1.3101 -1.3170
28155SOL    HW296525   2.546   9.728   4.658  0.7097 -0.4184 -1.2363
28156SOL     OW96526   8.810   6.051   3.528  0.3796 -0.9719 -0.3666
28156SOL    HW196527   8.722   6.050   3.481  0.0695 -1.2269  0.2043
28156SOL    HW296528   8.816   6.133   3.585  1.1774 -0.1434 -1.6310
28157SOL     OW96529   2.862   2.560   3.398  0.3762 -0.4165 -0.1178
28157SOL    HW196530   2.933   2.512   3.346  2.6477  0.3174  2.2148
28157SOL    HW296531   2.855   2.654   3.365  0.7289 -0.3922 -0.1257
28158SOL     OW96532   8.524   1.539   1.287  0.2910  0.6394 -0.1373
28158SOL    HW196533   8.505   1.441   1.282  1.1306  0.4466  0.2478
28158SOL    HW296534   8.623   1.554   1.278  0.2153  1.4133  0.2751
28159SOL     OW96535   2.769   3.048   7.502 -0.7193 -0.4639 -0.1442
28159SOL    HW196536   2.800   3.124   7.559 -2.2657 -1.3353  1.9489
28159SOL    HW296537   2.847   2.990   7.478  0.0335  0.1521  0.7806
28160SOL     OW96538   8.485   5.886   4.092  0.1740  0.0508 -0.5187
28160SOL    HW196539   8.472   5.898   4.191  2.9419  0.8911 -0.2211
28160SOL    HW296540   8.489   5.975   4.048 -3.7310 -0.3465 -1.8215
28161SOL     OW96541   9.859   6.090   7.517 -0.1930 -0.5844 -0.7124
28161SOL    HW196542   9.789   6.090   7.447  0.6073 -0.4816 -1.5278
28161SOL    HW296543   9.921   6.013   7.504  0.6070  0.0553 -0.7910
28162SOL     OW96544   1.224   6.414   3.017  0.1262  0.3236  0.3709
28162SOL    HW196545   1.276   6.369   3.089  0.4075 -0.6183 -0.4114
28162SOL    HW296546   1.140   6.452   3.055 -0.9996 -2.4283  0.7359
28163SOL     OW96547   6.221   8.673   4.524  0.2807  0.0174  0.0070
28163SOL    HW196548   6.292   8.625   4.575  0.1972  0.4486  0.5309
28163SOL    HW296549   6.148   8.609   4.501  0.4784 -0.2525  0.1348
28164SOL     OW96550   9.476   8.696   3.928  0.2313  0.2365 -0.1538
28164SOL    HW196551   9.480   8.795   3.938  0.6713  0.2059 -0.0411
28164SOL    HW296552   9.536   8.667   3.853 -0.8751  0.1828 -1.0371
28165SOL     OW96553   8.717   6.701   7.637  0.5081  0.4649  0.0762
28165SOL    HW196554   8.693   6.796   7.660  0.1734  0.3112  0.3582
28165SOL    HW296555   8.716   6.646   7.720  1.2261  0.3259 -0.0036
28166SOL     OW96556   7.075   5.362   3.079 -0.4874  0.1654 -0.1810
28166SOL    HW196557   7.006   5.380   3.010  0.4776  0.8487 -0.9880
28166SOL    HW296558   7.146   5.433   3.074  0.2532 -0.5045  0.6445
28167SOL     OW96559   7.434   0.362   0.291  0.0836  0.0354 -0.0195
28167SOL    HW196560   7.424   0.291   0.360  0.3096  0.1777  0.1625
28167SOL    HW296561   7.356   0.424   0.295  0.7034  0.7629  0.9494
28168SOL     OW96562   9.815   1.848   9.402  0.1624 -0.5462  0.8887
28168SOL    HW196563   9.864   1.843   9.315 -0.6214 -0.9512  0.4660
28168SOL    HW296564   9.735   1.788   9.399  0.2041 -0.6748  1.9407
28169SOL     OW96565   5.959   9.883   4.408  0.1517 -0.7854  0.1911
28169SOL    HW196566   6.007   9.813   4.354  1.0073  0.4134 -0.6317
28169SOL    HW296567   5.907   9.942   4.346  0.5759  0.1735  0.7385
28170SOL     OW96568   8.245   6.104   4.228  0.4987 -0.2559  0.3450
28170SOL    HW196569   8.186   6.182   4.211  1.2774  0.0260 -1.1632
28170SOL    HW296570   8.289   6.114   4.317 -4.1552 -2.0643  2.9940
28171SOL     OW96571   0.552   1.358   8.034  0.1640  0.1197  0.3629
28171SOL    HW196572   0.496   1.425   7.985  1.8210  1.3972  0.1686
28171SOL    HW296573   0.543   1.373   8.132  1.3228  1.3421  0.3063
28172SOL     OW96574   7.868   1.701   6.152 -0.1121 -0.0046  0.0351
28172SOL    HW196575   7.812   1.618   6.144 -0.0324 -0.0973  0.4632
28172SOL    HW296576   7.929   1.693   6.230  3.2136 -1.5009 -2.5875
28173SOL     OW96577   8.178   0.779   0.664 -0.4809  0.5538 -0.2016
28173SOL    HW196578   8.181   0.679   0.659 -3.1586  0.4072  0.5698
28173SOL    HW296579   8.266   0.813   0.696  1.2359 -1.3953 -2.5724
28174SOL     OW96580   6.826   2.814   1.296 -0.5200 -0.0154 -0.1312
28174SOL    HW196581   6.860   2.788   1.387  1.0419  0.2265 -0.6314
28174SOL    HW296582   6.813   2.913   1.292 -1.6336 -0.1426  0.1643
28175SOL     OW96583   0.578   5.957   2.465 -0.3989  0.2811  0.3422
28175SOL    HW196584   0.636   5.880   2.494  0.6883  0.9743  0.0643
28175SOL    HW296585   0.601   6.038   2.520 -1.9510  0.2557  1.0321
28176SOL     OW96586   3.285   3.580   7.000  0.3311  0.8090 -0.7146
28176SOL    HW196587   3.221   3.646   7.041  0.8086  1.4285 -0.9634
28176SOL    HW296588   3.367   3.628   6.969  0.1372  0.2809 -2.0553
28177SOL     OW96589   5.954   1.304   3.505 -0.2107 -0.1559 -0.3252
28177SOL    HW196590   5.944   1.228   3.441  0.6892  0.9503 -1.7858
28177SOL    HW296591   5.890   1.377   3.481 -0.0099  0.1871  0.1589
28178SOL     OW96592   7.643   7.055   1.996 -0.7547  0.4649  0.1488
28178SOL    HW196593   7.659   7.125   1.926  0.4861  0.7924  0.7353
28178SOL    HW296594   7.680   7.087   2.083  3.6195 -2.6048 -0.4346
28179SOL     OW96595   2.844   2.187   8.511  0.0914  0.3212 -0.3912
28179SOL    HW196596   2.908   2.261   8.493  1.7724 -1.7623 -3.4703
28179SOL    HW296597   2.771   2.188   8.443 -0.2912 -0.3641  0.0004
28180SOL     OW96598   9.860   1.896   3.371 -0.0684  0.2536  0.1456
28180SOL    HW196599   9.763   1.912   3.353 -0.6198 -1.0767  1.7928
28180SOL    HW296600   9.888   1.809   3.331  0.3272  0.4281  0.0422
28181SOL     OW96601   8.731   6.851   5.786  0.3006  0.2156 -0.6314
28181SOL    HW196602   8.765   6.882   5.697  0.3864 -2.6706 -1.6587
28181SOL    HW296603   8.809   6.826   5.844  0.1460 -0.7081 -0.8185
28182SOL     OW96604   0.067   5.863   5.418 -0.4524 -0.4766 -0.6856
28182SOL    HW196605   0.127   5.804   5.471 -0.1641  1.1604  0.8571
28182SOL    HW296606   0.008   5.915   5.480  0.3339  1.9669 -1.9263
28183SOL     OW96607   4.629   1.182   9.582  0.2985  0.0735 -0.0274
28183SOL    HW196608   4.554   1.116   9.588 -0.5460  0.8447 -1.6475
28183SOL    HW296609   4.600   1.269   9.622  1.3196 -0.4461  1.8748
28184SOL     OW96610   5.044   9.882   3.589  0.0830  0.0307  0.1696
28184SOL    HW196611   5.100   9.952   3.634  1.2468 -0.5288 -0.3834
28184SOL    HW296612   4.990   9.834   3.657  0.0690  0.7599  0.6805
28185SOL     OW96613   3.490   0.639   7.250 -0.0296  0.5127 -0.2750
28185SOL    HW196614   3.516   0.557   7.200  1.2477  1.6215 -1.4662
28185SOL    HW296615   3.493   0.718   7.189 -0.3332  1.5875  1.0679
28186SOL     OW96616   5.486   4.659   1.151 -0.2474 -0.1021  0.1113
28186SOL    HW196617   5.572   4.653   1.100 -0.0645 -2.7643  0.6374
28186SOL    HW296618   5.506   4.670   1.249 -0.4742 -1.1574  0.2840
28187SOL     OW96619   2.012   4.598   9.310  0.5561 -0.0963 -0.0232
28187SOL    HW196620   1.981   4.506   9.290 -1.5222  0.1552  1.8301
28187SOL    HW296621   1.933   4.659   9.320  1.8688  1.8059 -0.8137
28188SOL     OW96622   7.287   8.732   2.502  0.3336  0.5124  0.2039
28188SOL    HW196623   7.240   8.777   2.578  1.5687  0.5235  0.9775
28188SOL    HW296624   7.228   8.732   2.421 -2.0280 -1.7438  1.8617
28189SOL     OW96625   3.916   2.372   8.663 -0.4042  0.6047  0.1710
28189SOL    HW196626   3.925   2.396   8.566 -0.0376  0.5636  0.1919
28189SOL    HW296627   3.857   2.438   8.709 -0.8082  0.4610 -0.1433
28190SOL     OW96628   2.334   0.773   5.424  0.3010 -0.8351  0.2162
28190SOL    HW196629   2.345   0.867   5.456 -0.5307 -0.5246 -0.3790
28190SOL    HW296630   2.237   0.751   5.420  0.5218 -2.5315  2.6494
28191SOL     OW96631   8.568   8.571   7.949  0.9886  0.2520  0.2525
28191SOL    HW196632   8.617   8.483   7.953 -1.8174 -1.4265 -0.7609
28191SOL    HW296633   8.523   8.580   7.860 -1.6839  1.0323  1.6280
28192SOL     OW96634   1.936   2.195   2.869 -0.6661 -0.1097  0.1872
28192SOL    HW196635   2.000   2.128   2.905 -1.0636 -0.5996 -0.0197
28192SOL    HW296636   1.950   2.283   2.915  0.7556  0.0188 -0.4827
28193SOL     OW96637   0.770   3.324   6.469 -0.3064 -0.6968 -0.1962
28193SOL    HW196638   0.719   3.320   6.383  0.6468  0.3053 -0.8086
28193SOL    HW296639   0.819   3.411   6.475  0.5848 -1.2607  0.8252
28194SOL     OW96640   0.702   8.360   2.078  0.4002  0.1725 -0.2923
28194SOL    HW196641   0.624   8.423   2.073 -0.1319 -0.4619 -0.0042
28194SOL    HW296642   0.697   8.294   2.003  0.5729  0.0269 -0.1760
28195SOL     OW96643   9.402   5.540   1.906  0.0853 -0.3241 -0.0072
28195SOL    HW196644   9.442   5.468   1.963 -1.3517 -0.6402  0.6225
28195SOL    HW296645   9.311   5.513   1.877  0.5453  0.1267 -1.9472
28196SOL     OW96646   1.889   9.853   3.048 -0.4245 -0.3333 -0.0400
28196SOL    HW196647   1.834   9.899   2.978  0.4428 -0.3826 -0.7670
28196SOL    HW296648   1.962   9.801   3.003 -0.1401 -0.7294  0.8842
28197SOL     OW96649   7.944   8.991   2.854 -0.1980  0.3477  0.1037
28197SOL    HW196650   7.980   9.034   2.771 -2.7077  2.0060 -0.1982
28197SOL    HW296651   7.927   9.061   2.923 -0.2647 -0.7335  1.2016
28198SOL     OW96652   4.873   7.962   6.195  0.5854  0.4631  0.2782
28198SOL    HW196653   4.875   7.929   6.100  1.9628 -1.7341  1.0545
28198SOL    HW296654   4.967   7.974   6.228  0.1244  2.9252  0.8207
28199SOL     OW96655   3.932   0.156   5.383 -0.1659  0.0707  0.3191
28199SOL    HW196656   4.030   0.138   5.378  0.1915  1.9998 -0.1682
28199SOL    HW296657   3.898   0.185   5.293 -0.7205  1.4997  0.9626
28200SOL     OW96658   0.076   6.397   0.569 -0.4180  0.0293 -0.4880
28200SOL    HW196659   0.087   6.455   0.650 -0.0891 -0.3891 -0.2258
28200SOL    HW296660   0.004   6.434   0.510  1.3122  1.9897 -1.4459
28201SOL     OW96661   1.385   3.326   7.791  0.0362 -0.4760  0.4566
28201SOL    HW196662   1.433   3.413   7.801 -1.5296  0.1835  2.6833
28201SOL    HW296663   1.321   3.332   7.715  0.7244 -0.0845 -0.1045
28202SOL     OW96664   2.240   9.288   6.659  0.0470 -0.0493 -0.3578
28202SOL    HW196665   2.304   9.258   6.589 -0.9416  0.5357 -1.5218
28202SOL    HW296666   2.192   9.208   6.697  0.4096 -0.3403 -0.5129
28203SOL     OW96667   0.857   2.053   8.354 -0.6128 -0.0352 -0.3235
28203SOL    HW196668   0.879   2.113   8.277 -0.7773  0.7617  0.2492
28203SOL    HW296669   0.934   1.991   8.370  0.2576  1.1534  0.1553
28204SOL     OW96670   2.629   6.830   5.758  0.1635 -0.0634 -0.5162
28204SOL    HW196671   2.723   6.859   5.739  0.1828  0.4370  0.3337
28204SOL    HW296672   2.629   6.767   5.836 -0.4554  1.7791  1.0031
28205SOL     OW96673   0.672   9.347   5.975  0.1209  0.5021 -0.5188
28205SOL    HW196674   0.734   9.283   5.929 -2.8738 -2.8802 -0.0780
28205SOL    HW296675   0.703   9.361   6.069  2.2050  1.7461 -1.3530
28206SOL     OW96676   2.349   3.797   0.491 -0.5469  0.3946  0.1774
28206SOL    HW196677   2.305   3.876   0.534 -2.1648 -0.7748  0.7434
28206SOL    HW296678   2.301   3.713   0.519  0.0963 -0.6382 -1.7163
28207SOL     OW96679   1.934   1.068   4.781 -0.4729 -0.6088 -0.0748
28207SOL    HW196680   1.867   1.110   4.720 -1.0269  1.1722  1.6895
28207SOL    HW296681   1.904   1.080   4.876  2.2982  0.1774  0.7476
28208SOL     OW96682   7.169   0.090   6.513  0.0954  0.4591 -0.1757
28208SOL    HW196683   7.178   0.111   6.416  1.5622  1.2898  0.1232
28208SOL    HW296684   7.236   0.021   6.539 -0.8199 -0.3491  0.0954
28209SOL     OW96685   4.917   3.177   9.738 -0.0130 -0.0266  0.6212
28209SOL    HW196686   4.921   3.142   9.831  1.3339  0.1516  0.6344
28209SOL    HW296687   4.827   3.219   9.722 -0.0648  0.4191  2.0130
28210SOL     OW96688   0.591   9.457   8.008 -0.0479 -0.5216  0.2605
28210SOL    HW196689   0.682   9.439   7.970  0.2615  0.0702  0.7136
28210SOL    HW296690   0.565   9.381   8.068 -0.4319 -1.3344 -0.9255
28211SOL     OW96691   1.151   2.119   1.455  0.1708 -0.0706  0.0562
28211SOL    HW196692   1.099   2.142   1.373  0.0544 -1.8182 -0.3946
28211SOL    HW296693   1.237   2.169   1.456 -0.2591  0.6888 -0.6403
28212SOL     OW96694   1.686   6.343   5.264  0.9924 -0.1653  0.3130
28212SOL    HW196695   1.751   6.418   5.265  0.6102  0.1677  1.4220
28212SOL    HW296696   1.684   6.300   5.355 -0.5433  0.0153  0.3757
28213SOL     OW96697   5.900   7.688   4.258 -0.2125  0.3004 -0.7915
28213SOL    HW196698   5.892   7.718   4.162 -3.2249 -0.3065 -0.7677
28213SOL    HW296699   5.925   7.591   4.260  0.8338  0.5512 -0.9136
28214SOL     OW96700   1.046   4.711   2.362  0.5146 -0.2277  0.1776
28214SOL    HW196701   0.981   4.649   2.318  0.9802 -1.0332  0.6062
28214SOL    HW296702   0.999   4.762   2.434 -0.0008  0.3238 -0.5487
28215SOL     OW96703   8.846   1.710   2.437 -0.5247  0.0353  0.4078
28215SOL    HW196704   8.797   1.655   2.370 -2.0207 -1.0026  2.3062
28215SOL    HW296705   8.817   1.684   2.529  2.7239  0.2450  1.5404
28216SOL     OW96706   4.800   1.184   7.822 -0.2796  0.0079 -0.6260
28216SOL    HW196707   4.771   1.251   7.890 -0.5363 -2.1732  1.4845
28216SOL    HW296708   4.751   1.098   7.836 -1.5822 -0.0341 -4.6435
28217SOL     OW96709   7.863   3.371   2.131  0.0296 -0.2736 -0.1038
28217SOL    HW196710   7.862   3.363   2.031 -0.6956 -1.4069 -0.0020
28217SOL    HW296711   7.913   3.454   2.156 -2.0491  1.4564 -1.4886
28218SOL     OW96712   0.206   9.366   3.209 -0.7432  0.1751 -0.0017
28218SOL    HW196713   0.190   9.386   3.305 -0.9480  1.1302 -0.2268
28218SOL    HW296714   0.275   9.430   3.173 -1.4400  0.5121 -0.7515
28219SOL     OW96715   2.470   2.441   7.381  0.3288 -0.5441 -0.3289
28219SOL    HW196716   2.558   2.395   7.395 -0.1256 -1.5012 -0.5898
28219SOL    HW296717   2.424   2.401   7.302  0.0794  0.5971 -0.7651
28220SOL     OW96718   0.960   1.761   6.979 -0.0931 -0.3165  0.0432
28220SOL    HW196719   1.055   1.732   6.963 -1.2680 -3.0450 -2.6308
28220SOL    HW296720   0.943   1.847   6.932  1.4660  1.0857  1.9499
28221SOL     OW96721   0.330   1.818   1.968 -0.4281 -0.2002 -0.2812
28221SOL    HW196722   0.261   1.885   1.940 -1.0166 -1.2089 -1.2917
28221SOL    HW296723   0.349   1.829   2.066  0.9832  2.7801 -0.8138
28222SOL     OW96724   2.942   1.819   4.887 -0.1641 -0.2813 -0.1899
28222SOL    HW196725   2.955   1.766   4.971  0.6659 -0.8790 -0.6897
28222SOL    HW296726   2.861   1.876   4.896  0.9924  1.1075  1.7667
28223SOL     OW96727   8.445   3.065   0.497  0.1092 -0.1048  0.1613
28223SOL    HW196728   8.422   2.973   0.466  2.4910 -1.3348  1.9628
28223SOL    HW296729   8.497   3.061   0.582 -0.6358  2.9597  0.8560
28224SOL     OW96730   7.138   6.751   7.201 -0.2498 -0.0723 -0.2380
28224SOL    HW196731   7.160   6.842   7.165 -0.2023 -0.4605 -1.1942
28224SOL    HW296732   7.180   6.740   7.291  2.9256 -0.5566 -1.7261
28225SOL     OW96733   4.370   9.421   4.823 -0.5782 -0.8201 -0.1156
28225SOL    HW196734   4.431   9.349   4.854 -0.8825 -1.3902 -0.8143
28225SOL    HW296735   4.276   9.387   4.821 -0.7904 -0.2526  0.0152
28226SOL     OW96736   4.066   3.570   4.839 -0.5233 -0.2354  0.6026
28226SOL    HW196737   4.163   3.546   4.840 -0.6601 -0.7651  1.8923
28226SOL    HW296738   4.039   3.604   4.929 -1.3138  0.8374 -0.0201
28227SOL     OW96739   1.310   5.525   5.199 -0.2013  0.2580 -0.7541
28227SOL    HW196740   1.259   5.439   5.207  1.0239 -0.3883  0.3763
28227SOL    HW296741   1.246   5.601   5.190 -1.4362 -0.3943  2.0087
28228SOL     OW96742   8.649   1.605   8.582 -0.5347 -0.0730  0.0148
28228SOL    HW196743   8.666   1.506   8.576 -1.2347 -0.1836 -0.1876
28228SOL    HW296744   8.643   1.643   8.489 -0.8148  0.0693  0.0923
28229SOL     OW96745   3.326   0.313   5.132 -0.1130  0.3701 -0.5408
28229SOL    HW196746   3.321   0.412   5.122 -0.7947  0.6239  1.8691
28229SOL    HW296747   3.405   0.290   5.190  0.4671 -0.5444 -1.6841
28230SOL     OW96748   6.770   4.804   7.973 -0.2254  0.2450  0.0046
28230SOL    HW196749   6.833   4.851   7.911 -0.4049  0.1970 -0.2146
28230SOL    HW296750   6.687   4.859   7.984  0.9885  1.6406  2.4703
28231SOL     OW96751   4.676   1.437   5.825 -0.2780  0.0316  0.1701
28231SOL    HW196752   4.591   1.458   5.777 -0.1673 -0.1599 -0.1161
28231SOL    HW296753   4.664   1.352   5.878 -0.6933  0.7499  1.2434
28232SOL     OW96754   5.842   4.013   2.214 -0.3326  0.3191 -0.5204
28232SOL    HW196755   5.803   4.040   2.302  0.4654 -0.2750  0.0290
28232SOL    HW296756   5.770   3.976   2.155 -0.8570  0.6422 -0.0825
28233SOL     OW96757   8.495   1.737   5.106 -0.2621  0.2601  0.3330
28233SOL    HW196758   8.530   1.683   5.182 -1.1768 -2.4150 -1.0952
28233SOL    HW296759   8.395   1.742   5.112 -0.4003 -0.6439 -1.1301
28234SOL     OW96760   6.743   7.988   6.156 -0.7889  0.2256 -0.1859
28234SOL    HW196761   6.660   8.024   6.115 -0.5598 -0.1344 -0.9787
28234SOL    HW296762   6.807   7.959   6.084 -0.5463 -0.7767  0.4112
28235SOL     OW96763   3.681   0.926   0.726 -0.7807  0.2540  0.5283
28235SOL    HW196764   3.705   0.913   0.630 -1.6507 -0.1030  0.3561
28235SOL    HW296765   3.635   0.844   0.760 -0.2406  0.2701  1.3255
28236SOL     OW96766   5.229   8.486   4.460  0.2209 -0.0520 -0.2771
28236SOL    HW196767   5.304   8.419   4.459  0.7328  0.5113 -0.6343
28236SOL    HW296768   5.268   8.578   4.465 -0.5221  0.1677  1.6933
28237SOL     OW96769   3.182   9.244   8.487  0.0752  0.1613  0.2909
28237SOL    HW196770   3.236   9.190   8.423 -1.9909 -2.3274  0.5488
28237SOL    HW296771   3.098   9.275   8.442  0.0794  1.0492  0.8786
28238SOL     OW96772   9.277   9.610   3.597 -0.4480  0.0479  0.6812
28238SOL    HW196773   9.317   9.521   3.574 -1.3264 -0.0465 -0.4784
28238SOL    HW296774   9.187   9.597   3.637  0.4755  0.2921  2.9275
28239SOL     OW96775   0.943   8.965   1.100 -0.4242  0.2852 -0.0500
28239SOL    HW196776   1.041   8.947   1.113 -0.1759  0.4067 -1.6231
28239SOL    HW296777   0.892   8.931   1.179  0.9265  0.5884  0.9674
28240SOL     OW96778   6.721   5.128   9.958  0.0669 -0.5863  0.4632
28240SOL    HW196779   6.728   5.063   9.882 -0.7668 -1.3161  1.0012
28240SOL    HW296780   6.762   5.088  10.040  1.2368  0.3227  0.3249
28241SOL     OW96781   1.109   5.370   9.018 -0.9437 -0.0315 -0.2082
28241SOL    HW196782   1.060   5.283   9.016  0.8612 -1.1336  1.2477
28241SOL    HW296783   1.157   5.384   8.932 -0.7286 -0.8024 -0.2175
28242SOL     OW96784   1.158   2.746   1.901  0.2457  0.1264  0.8345
28242SOL    HW196785   1.238   2.801   1.879  0.4547  0.5104  2.4741
28242SOL    HW296786   1.077   2.787   1.860  0.7403  0.2903  0.0075
28243SOL     OW96787   4.121   8.059   2.143 -0.2321  0.0941 -0.2516
28243SOL    HW196788   4.064   7.985   2.180  0.4683  0.2945  1.2800
28243SOL    HW296789   4.063   8.127   2.099 -1.2613  0.6101  1.8452
28244SOL     OW96790   9.393   3.922   9.296 -0.0486 -0.1400  0.6723
28244SOL    HW196791   9.449   3.839   9.291 -0.9285 -0.7968  1.6179
28244SOL    HW296792   9.409   3.967   9.384 -2.6550 -1.5220  1.9004
28245SOL     OW96793   6.553   5.004   8.817  0.0188  0.1569 -0.2630
28245SOL    HW196794   6.612   5.002   8.898  0.3754  1.4248 -0.4830
28245SOL    HW296795   6.540   4.911   8.783  1.4395 -0.1937  0.1158
28246SOL     OW96796   1.849   1.217   1.461  0.6324 -0.0429  0.3933
28246SOL    HW196797   1.849   1.215   1.561 -1.4114 -0.5277  0.3886
28246SOL    HW296798   1.827   1.127   1.425  0.2516  0.3933 -0.4835
28247SOL     OW96799   2.009   0.023   6.328 -0.2429  0.5721  0.5156
28247SOL    HW196800   1.933   0.081   6.300  0.9252  1.1842 -1.4798
28247SOL    HW296801   2.077   0.078   6.376  0.9218  0.9125 -1.4846
28248SOL     OW96802   7.983   7.370   1.612  0.3870  0.4264 -0.3072
28248SOL    HW196803   8.033   7.323   1.539  1.8552  0.2946  0.7743
28248SOL    HW296804   7.917   7.306   1.653 -0.3822  0.4744 -1.4431
28249SOL     OW96805   3.853   5.454   6.719 -0.2877 -0.4741  0.0646
28249SOL    HW196806   3.835   5.460   6.620  1.9441  0.4865 -0.2991
28249SOL    HW296807   3.782   5.397   6.762 -1.6745 -0.3445 -1.9732
28250SOL     OW96808   4.622   8.788   6.210 -0.3064  0.3577 -0.1295
28250SOL    HW196809   4.674   8.739   6.141  1.6755  2.8109 -0.4499
28250SOL    HW296810   4.670   8.783   6.298 -1.1039  0.0473  0.2924
28251SOL     OW96811   7.690   0.948   6.663 -0.0554  0.7603  0.4567
28251SOL    HW196812   7.718   0.921   6.755  1.1143 -2.0553 -0.6612
28251SOL    HW296813   7.770   0.982   6.612 -0.2826  0.4374 -0.1257
28252SOL     OW96814   0.261   1.714   5.136  0.4263 -0.0336 -0.4951
28252SOL    HW196815   0.314   1.790   5.175  1.0712 -0.2889 -0.8619
28252SOL    HW296816   0.187   1.751   5.081  0.4613  0.3337 -0.3017
28253SOL     OW96817   1.382   2.286   9.022 -0.2360 -0.2656 -0.2823
28253SOL    HW196818   1.303   2.235   9.056 -0.7928  0.6242 -0.2310
28253SOL    HW296819   1.356   2.339   8.942  0.6505 -1.0161 -1.0848
28254SOL     OW96820   0.808   7.042   8.633  0.1868 -0.2097  0.2150
28254SOL    HW196821   0.816   6.965   8.696  1.2446 -0.8660 -0.7053
28254SOL    HW296822   0.730   7.099   8.659  0.3389 -0.7304  1.8301
28255SOL     OW96823   8.554   8.111   2.877  0.3386  0.4213 -0.2243
28255SOL    HW196824   8.606   8.027   2.864  2.4603  1.5726  0.4549
28255SOL    HW296825   8.556   8.137   2.974 -1.5527  0.4679 -0.1890
28256SOL     OW96826   0.090   9.047   3.287 -0.2771 -0.1641  0.0798
28256SOL    HW196827   0.112   8.952   3.310 -0.0498 -0.4728 -1.3972
28256SOL    HW296828   0.121   9.106   3.361  1.4070 -1.0471  0.1120
28257SOL     OW96829   3.043   1.430   8.526  0.0847 -0.4908  0.0742
28257SOL    HW196830   3.089   1.436   8.615  0.9041  0.0812 -0.3783
28257SOL    HW296831   3.013   1.521   8.499  2.6274 -0.1127 -1.6714
28258SOL     OW96832   2.079   5.284   0.478 -0.3098  0.2201  0.0730
28258SOL    HW196833   2.048   5.240   0.394  0.3954  1.0090 -0.6017
28258SOL    HW296834   2.011   5.269   0.550 -0.7530 -0.7510 -0.5353
28259SOL     OW96835   4.283   5.350   6.863  0.1282  0.2969 -0.7109
28259SOL    HW196836   4.332   5.262   6.862  0.0879  0.2680 -0.0443
28259SOL    HW296837   4.230   5.358   6.779 -2.3932 -1.7621  0.6151
28260SOL     OW96838   0.790   8.371   0.101  0.2004  0.0800  0.2823
28260SOL    HW196839   0.712   8.361   0.162  0.0909 -1.4440 -0.0620
28260SOL    HW296840   0.865   8.314   0.135 -0.3962 -2.0443 -1.8103
28261SOL     OW96841   1.442   9.559   4.223 -0.0051 -0.3219 -0.1085
28261SOL    HW196842   1.507   9.530   4.294 -0.2105 -1.5937 -0.4328
28261SOL    HW296843   1.359   9.593   4.267  0.0493 -0.6709  0.2660
28262SOL     OW96844   5.433   0.255   6.044  1.0316  0.5455 -0.1569
28262SOL    HW196845   5.339   0.226   6.025  2.3174 -2.4917 -2.2528
28262SOL    HW296846   5.440   0.354   6.032 -1.5325  0.5832 -1.6671
28263SOL     OW96847   5.065   9.938   5.316  0.3356  0.4828 -0.7868
28263SOL    HW196848   5.114   9.851   5.317  1.1886  0.9696 -0.4731
28263SOL    HW296849   5.088   9.991   5.397  0.3136  1.2852 -1.2973
28264SOL     OW96850   4.601   5.970   0.937 -0.2401 -0.0697 -0.3210
28264SOL    HW196851   4.583   6.012   0.848 -0.9172 -0.0522 -0.1763
28264SOL    HW296852   4.675   6.019   0.983  0.2438 -0.1980 -0.9581
28265SOL     OW96853   2.376   8.638   6.297 -0.4866  0.4255  0.4694
28265SOL    HW196854   2.408   8.648   6.202 -0.2399 -2.7835  0.1454
28265SOL    HW296855   2.278   8.616   6.297 -0.6143  1.0048  0.9814
28266SOL     OW96856   4.523   6.556   2.686  0.1713  0.1648  0.5423
28266SOL    HW196857   4.434   6.588   2.717  1.2185  2.5081  1.2389
28266SOL    HW296858   4.548   6.472   2.734 -1.5420 -0.3989  0.4813
28267SOL     OW96859   4.744   1.090   3.886  0.3989  0.7170 -0.2443
28267SOL    HW196860   4.738   1.039   3.972  0.2358  0.1004 -0.6217
28267SOL    HW296861   4.654   1.094   3.843  0.6497  0.2551 -0.8267
28268SOL     OW96862   1.970   9.787   3.308  0.5918  0.3485  0.4550
28268SOL    HW196863   1.921   9.831   3.233 -1.8979 -2.2554  0.4779
28268SOL    HW296864   2.035   9.852   3.349 -2.0026  3.5338 -0.3261
28269SOL     OW96865   7.174   4.718   8.049 -0.3553 -0.4484  0.0849
28269SOL    HW196866   7.249   4.699   8.113 -0.3651 -0.4361  0.0993
28269SOL    HW296867   7.098   4.761   8.098  0.1359  0.7236 -0.1772
28270SOL     OW96868   8.472   4.014   3.819  0.5954 -0.2616  0.3629
28270SOL    HW196869   8.440   4.094   3.770  0.0664 -1.0247 -0.5567
28270SOL    HW296870   8.458   3.932   3.763  2.2747 -0.8512  0.7805
28271SOL     OW96871   9.192   0.510   0.264  0.1397 -0.0243 -0.3511
28271SOL    HW196872   9.173   0.510   0.166  1.5035 -1.1993 -0.6333
28271SOL    HW296873   9.277   0.461   0.281  1.0246  2.0101  1.2245
28272SOL     OW96874   8.954   5.740   0.646 -0.1798  0.3439  0.4689
28272SOL    HW196875   9.047   5.708   0.667 -0.0493 -0.0979 -0.6884
28272SOL    HW296876   8.929   5.814   0.707  0.7567  0.1357  1.1137
28273SOL     OW96877   3.138   6.472   8.573  0.1571  0.0268 -0.1264
28273SOL    HW196878   3.091   6.402   8.519  0.8716  0.2460 -1.0396
28273SOL    HW296879   3.113   6.462   8.669 -0.0254 -1.2581 -0.2988
28274SOL     OW96880   5.875   9.648   5.568  0.3363  0.1853  0.5161
28274SOL    HW196881   5.952   9.668   5.628 -0.3597  0.4524  1.3409
28274SOL    HW296882   5.888   9.692   5.480  0.9405  0.5541  0.7864
28275SOL     OW96883   3.643   2.541   3.595  0.1596  0.0926 -0.2008
28275SOL    HW196884   3.688   2.629   3.611  1.0636 -0.4906  0.5721
28275SOL    HW296885   3.584   2.547   3.515 -0.1812  1.5462  0.1439
28276SOL     OW96886   8.806   5.200   9.369  0.2013  0.2519  0.1845
28276SOL    HW196887   8.744   5.227   9.442  0.3974  1.4628 -0.0964
28276SOL    HW296888   8.819   5.101   9.372  0.0917  0.2732  1.7039
28277SOL     OW96889   9.403   4.715   2.514 -0.2352  0.5833 -0.0092
28277SOL    HW196890   9.378   4.637   2.457 -1.0233  0.5506  0.3706
28277SOL    HW296891   9.437   4.683   2.603  0.9229  0.6352 -0.4225
28278SOL     OW96892   5.338   1.587   6.745 -0.3680  0.0169  0.1231
28278SOL    HW196893   5.354   1.589   6.844  0.7466  0.6238 -0.0627
28278SOL    HW296894   5.304   1.497   6.719  0.6262 -0.5905  0.8717
28279SOL     OW96895   3.529   6.212   3.696  0.0820 -0.5301 -0.0148
28279SOL    HW196896   3.542   6.115   3.720  2.5591  0.7260  4.0926
28279SOL    HW296897   3.473   6.256   3.765 -1.6216  0.9144 -2.2428
28280SOL     OW96898   8.214   2.856   5.546  0.5706  0.3361 -0.0679
28280SOL    HW196899   8.182   2.916   5.473 -0.6008  0.3780  0.4729
28280SOL    HW296900   8.143   2.846   5.615  2.7210  2.6835  2.5800
28281SOL     OW96901   1.161   7.153   4.811 -0.3019  0.0409 -0.4661
28281SOL    HW196902   1.217   7.178   4.732 -1.5132  0.4400 -1.2135
28281SOL    HW296903   1.183   7.214   4.888  3.1138 -2.3377  0.5215
28282SOL     OW96904   5.384   9.224   7.658  0.0433  0.0555  0.0105
28282SOL    HW196905   5.445   9.292   7.617  0.2951  0.9216  1.7677
28282SOL    HW296906   5.289   9.256   7.651  0.1000  0.2732  0.1863
28283SOL     OW96907   9.251   2.554   4.636  0.4474  0.6299 -0.4918
28283SOL    HW196908   9.302   2.469   4.626 -0.3809  0.2660 -1.6202
28283SOL    HW296909   9.224   2.565   4.732  0.6815 -0.3106 -0.3121
28284SOL     OW96910   0.382   7.842   4.040 -0.1549  0.0670  0.2776
28284SOL    HW196911   0.423   7.894   3.965  0.9076 -0.2047  0.6646
28284SOL    HW296912   0.341   7.759   4.003  0.4883 -0.1375  0.0146
28285SOL     OW96913   2.595   9.349   2.654  0.4968 -0.2969  0.1069
28285SOL    HW196914   2.527   9.302   2.709  1.1681 -1.2053  0.1888
28285SOL    HW296915   2.631   9.427   2.704  0.8693 -0.9253  0.8272
28286SOL     OW96916   8.063   4.955   2.612 -0.0035 -0.0360  0.8405
28286SOL    HW196917   8.160   4.952   2.636 -0.4774 -0.5803  2.8035
28286SOL    HW296918   8.018   4.871   2.642 -1.7512  1.6179  3.0454
28287SOL     OW96919   6.129   8.973   6.321  0.4912 -0.3497  0.0785
28287SOL    HW196920   6.144   8.874   6.311 -2.6868 -0.9939  1.2015
28287SOL    HW296921   6.070   8.990   6.400  0.7743  2.4577 -0.2702
28288SOL     OW96922   5.665   2.322   9.258 -0.3035 -0.2337 -0.5661
28288SOL    HW196923   5.689   2.321   9.161 -0.1893 -0.3480 -0.5376
28288SOL    HW296924   5.663   2.228   9.293  0.3080 -0.1569 -0.3031
28289SOL     OW96925   9.862   7.698   9.335  0.3101 -0.0355 -0.0506
28289SOL    HW196926   9.898   7.740   9.252  1.7276 -3.7905 -1.4238
28289SOL    HW296927   9.910   7.735   9.414  0.9487  1.4992 -1.1317
28290SOL     OW96928   0.900   2.351   3.575 -0.5339 -0.4651 -0.1026
28290SOL    HW196929   0.956   2.277   3.612  1.4897  0.3481 -1.4773
28290SOL    HW296930   0.956   2.411   3.518 -2.3484  1.6096  0.2070
28291SOL     OW96931   6.296   3.626   9.600 -0.1352 -0.2222  0.4235
28291SOL    HW196932   6.349   3.645   9.517 -2.1173  1.9131 -0.3853
28291SOL    HW296933   6.337   3.673   9.677  0.6548 -0.7356  0.3283
28292SOL     OW96934   4.914   9.490   1.625  0.5338  0.4170 -0.9118
28292SOL    HW196935   4.978   9.489   1.548  0.1728  1.2236 -1.2288
28292SOL    HW296936   4.887   9.584   1.644 -0.5339  0.0912 -0.7664
28293SOL     OW96937   2.421   4.438   8.021  0.0451 -0.3663  0.2932
28293SOL    HW196938   2.424   4.339   8.028 -3.1617 -0.8094 -3.2986
28293SOL    HW296939   2.327   4.469   8.033  0.3126  1.8279 -2.7019
28294SOL     OW96940   9.109   7.060   7.965 -0.5718 -0.0436  0.0001
28294SOL    HW196941   9.152   7.150   7.969 -1.7209  0.6118 -1.9223
28294SOL    HW296942   9.050   7.048   8.045  0.7578  0.2869  1.0434
28295SOL     OW96943   8.124   7.067   2.715 -0.3150 -0.1088  0.3114
28295SOL    HW196944   8.104   6.969   2.707  1.1333 -0.4467  0.5995
28295SOL    HW296945   8.065   7.118   2.653 -1.9191 -1.0531  1.0218
28296SOL     OW96946   4.247   3.221   0.935  0.3737  0.1479 -0.3123
28296SOL    HW196947   4.174   3.234   1.002  0.0338 -0.6656 -0.5328
28296SOL    HW296948   4.220   3.263   0.848 -0.9814 -2.5099 -1.2022
28297SOL     OW96949   3.260   1.657   0.695 -0.2592 -0.2482  0.0828
28297SOL    HW196950   3.181   1.603   0.723 -0.3398 -0.3121 -0.2685
28297SOL    HW296951   3.324   1.599   0.645  0.9934 -0.6969  2.1639
28298SOL     OW96952   0.552   8.254   3.783 -0.0778  0.3048 -0.1271
28298SOL    HW196953   0.511   8.306   3.708 -1.4961  0.4974  0.7627
28298SOL    HW296954   0.626   8.306   3.824  0.3057  0.4539 -0.9999
28299SOL     OW96955   5.623   1.798   4.340 -0.2663  0.6968  0.2220
28299SOL    HW196956   5.667   1.880   4.378  0.7903 -0.0151  0.5590
28299SOL    HW296957   5.687   1.751   4.279 -1.3332  0.8470 -1.0363
28300SOL     OW96958   8.196   0.572   9.629 -0.1584 -0.3032  0.5072
28300SOL    HW196959   8.263   0.645   9.646 -0.3178 -0.7144  3.0948
28300SOL    HW296960   8.117   0.610   9.581  1.5632  0.3399 -1.9101
28301SOL     OW96961   0.755   4.428   3.929 -0.1079 -0.0159  0.0104
28301SOL    HW196962   0.659   4.439   3.957 -0.5386 -1.0652 -1.0564
28301SOL    HW296963   0.794   4.518   3.909 -1.0986  0.3506 -0.3014
28302SOL     OW96964   8.907   9.242   6.356 -0.0329 -0.5016  0.2432
28302SOL    HW196965   8.884   9.332   6.318 -0.7224  0.1069  2.0376
28302SOL    HW296966   8.924   9.178   6.281  0.2576  1.0579 -1.0757
28303SOL     OW96967   4.865   4.943   7.099  0.2921  0.1516  0.5187
28303SOL    HW196968   4.806   4.883   7.154 -2.1306  3.1681  1.3683
28303SOL    HW296969   4.808   5.007   7.048  2.8272  2.2615  0.2542
28304SOL     OW96970   0.307   0.732   9.026  0.1821  0.2344 -0.4781
28304SOL    HW196971   0.402   0.701   9.034  0.7709  1.9987 -0.3488
28304SOL    HW296972   0.299   0.797   8.950 -0.8864  0.2201 -0.3857
28305SOL     OW96973   2.186   8.002   4.293 -0.0261  0.2933  0.1247
28305SOL    HW196974   2.247   7.930   4.325  0.6501  0.7082 -0.1982
28305SOL    HW296975   2.144   7.974   4.206 -1.8360 -0.8171  1.3259
28306SOL     OW96976   2.094   9.595   5.407 -0.2350 -0.4024 -0.6416
28306SOL    HW196977   2.025   9.636   5.467 -1.3787  1.7811 -3.3205
28306SOL    HW296978   2.110   9.500   5.434 -4.5105 -1.0533 -0.1008
28307SOL     OW96979   0.066   1.292   7.520 -0.6348 -0.1023 -0.2043
28307SOL    HW196980   0.097   1.199   7.537  2.9673  1.3206  1.5772
28307SOL    HW296981   0.105   1.324   7.433 -1.0522  0.1081 -0.3160
28308SOL     OW96982   8.919   8.913   9.131 -0.4097  0.3289 -0.1966
28308SOL    HW196983   8.986   8.874   9.067  0.0146  0.9288 -0.1242
28308SOL    HW296984   8.956   8.909   9.224 -0.3561  0.9276 -0.1929
28309SOL     OW96985   3.048   9.908   0.048 -0.1321 -0.7406 -0.0103
28309SOL    HW196986   3.085   9.908  -0.045 -1.4632  2.9785 -0.6406
28309SOL    HW296987   2.969   9.847   0.053 -2.2156  1.5962 -2.3492
28310SOL     OW96988   7.449   6.470   1.806 -0.2097 -0.5003  0.3254
28310SOL    HW196989   7.530   6.473   1.864  0.5514  0.7785 -0.7677
28310SOL    HW296990   7.369   6.499   1.858 -0.0226 -2.0487  1.4935
28311SOL     OW96991   7.669   6.829   5.739  0.3505  0.0829  0.4972
28311SOL    HW196992   7.580   6.830   5.693  0.4185  0.6776  0.3704
28311SOL    HW296993   7.684   6.740   5.781  0.0341 -0.2760 -0.1408
28312SOL     OW96994   3.548   5.485   1.533 -0.4517 -0.2945 -0.0485
28312SOL    HW196995   3.547   5.468   1.435  1.5868  4.0999 -0.9553
28312SOL    HW296996   3.477   5.552   1.556  0.0012 -0.2357  1.2212
28313SOL     OW96997   5.540   4.226   9.882 -0.3233 -0.4483  0.0630
28313SOL    HW196998   5.505   4.228   9.975 -1.2271 -0.1890 -0.2800
28313SOL    HW296999   5.512   4.141   9.837 -0.0704 -0.4752 -0.0480
28314SOL     OW97000   2.429   5.233   6.117 -0.7590 -0.7577  0.1391
28314SOL    HW197001   2.405   5.138   6.137 -0.3133 -0.9821 -0.3904
28314SOL    HW297002   2.399   5.291   6.193 -0.8125 -1.3530  0.5793
28315SOL     OW97003   7.101   3.226   9.267 -0.8205 -0.0648 -0.5524
28315SOL    HW197004   7.003   3.222   9.289 -0.7597 -0.1951 -0.3148
28315SOL    HW297005   7.122   3.157   9.197 -0.4130 -1.7408  1.1948
28316SOL     OW97006   3.789   5.731   6.759 -0.1330 -0.0849 -0.1765
28316SOL    HW197007   3.817   5.636   6.750  0.8415  0.4108 -3.1147
28316SOL    HW297008   3.689   5.737   6.751 -0.1015 -0.7526 -1.1819
28317SOL     OW97009   3.647   3.906   3.898 -0.4701 -0.6013  0.0331
28317SOL    HW197010   3.547   3.914   3.895 -0.6632 -2.0590  2.0718
28317SOL    HW297011   3.678   3.901   3.993  1.5060 -0.8003 -0.5888
28318SOL     OW97012   5.157   8.822   4.438  0.1352 -1.0279  0.2702
28318SOL    HW197013   5.169   8.857   4.531 -0.8768  0.7380 -0.2417
28318SOL    HW297014   5.068   8.776   4.431 -0.8760  0.9833 -0.4405
28319SOL     OW97015   2.460   6.606   3.452  0.0028  0.0587  0.4728
28319SOL    HW197016   2.488   6.554   3.533  1.1843  2.0536  1.3806
28319SOL    HW297017   2.382   6.664   3.475 -0.4653 -0.3075 -0.1726
28320SOL     OW97018   4.949   3.637  10.062 -0.5995  0.0638 -0.4256
28320SOL    HW197019   4.966   3.730  10.030 -0.8322 -0.6891 -2.8839
28320SOL    HW297020   4.850   3.620  10.062 -0.7930  0.8101  3.0983
28321SOL     OW97021   2.803   3.859   5.804  0.6772  0.0691 -0.5392
28321SOL    HW197022   2.703   3.868   5.806  0.6808 -0.0105  1.2638
28321SOL    HW297023   2.844   3.941   5.842  1.2409 -0.5985  0.3014
28322SOL     OW97024   0.245   4.017   1.127  0.3737  0.1167  0.7114
28322SOL    HW197025   0.280   3.924   1.131 -0.8144 -0.4508 -1.2296
28322SOL    HW297026   0.158   4.023   1.175  0.1005  0.0440  0.2325
28323SOL     OW97027   0.528   3.596   7.169 -0.4283 -0.0259  0.6680
28323SOL    HW197028   0.477   3.518   7.134 -1.6064  1.5367 -1.2053
28323SOL    HW297029   0.465   3.657   7.218 -0.5988  2.2596 -2.2482
28324SOL     OW97030   0.176   2.169   0.549 -0.1687 -0.8557  0.3520
28324SOL    HW197031   0.158   2.187   0.645 -1.2847 -0.0749  0.0079
28324SOL    HW297032   0.247   2.231   0.516  1.5544 -2.3433  1.1042
28325SOL     OW97033   1.924   2.814   4.662  0.6702 -0.0298 -0.3226
28325SOL    HW197034   1.835   2.790   4.625  0.5196  2.1545 -1.4619
28325SOL    HW297035   1.994   2.755   4.621  0.2761  1.1427 -2.7861
28326SOL     OW97036   2.368   3.949   6.670  0.1601 -0.1349  0.0371
28326SOL    HW197037   2.395   4.033   6.716 -1.2444  0.3389  0.0024
28326SOL    HW297038   2.433   3.876   6.693  0.7449  0.6680  0.9561
28327SOL     OW97039   0.372   7.560   9.490  0.2383  0.4769  0.2755
28327SOL    HW197040   0.413   7.552   9.399  0.4286 -0.6365  0.4430
28327SOL    HW297041   0.413   7.638   9.539  1.6781 -0.1928  0.1824
28328SOL     OW97042   4.252   1.161   4.185 -0.4874 -0.0610 -0.4313
28328SOL    HW197043   4.195   1.117   4.254 -1.3863 -1.1453 -1.8455
28328SOL    HW297044   4.197   1.181   4.104  0.1716  2.6342 -0.2730
28329SOL     OW97045   6.470   0.749   6.958  1.0942 -0.1906 -0.0365
28329SOL    HW197046   6.470   0.701   6.871 -1.7555  1.0259 -0.7644
28329SOL    HW297047   6.502   0.843   6.945 -0.9141  0.5106 -0.1343
28330SOL     OW97048   0.156   4.098   6.105 -0.1144 -0.2006  0.3294
28330SOL    HW197049   0.083   4.141   6.158  0.0862  0.4844  0.0559
28330SOL    HW297050   0.126   4.007   6.076 -0.0886 -0.7327  1.9039
28331SOL     OW97051   7.958   4.113   1.276  0.1636  0.6874 -0.0534
28331SOL    HW197052   7.947   4.031   1.221  2.5884 -0.2563  0.7851
28331SOL    HW297053   7.876   4.129   1.330 -0.5558 -0.8346 -0.6728
28332SOL     OW97054   1.274   6.373   3.695 -0.0443  0.3304  0.1405
28332SOL    HW197055   1.349   6.341   3.754 -0.6334 -0.8089  0.2725
28332SOL    HW297056   1.187   6.340   3.730 -0.2862 -1.7130 -2.2356
28333SOL     OW97057   4.376   8.723   4.815 -0.0188  0.0058 -0.1079
28333SOL    HW197058   4.439   8.653   4.848 -1.2223 -0.9422  0.2202
28333SOL    HW297059   4.356   8.708   4.719  0.9029  0.8118 -0.4375
28334SOL     OW97060   6.630   9.442   4.301  0.1968 -0.5708 -0.2055
28334SOL    HW197061   6.728   9.456   4.311 -0.0957  0.0700  1.8427
28334SOL    HW297062   6.596   9.500   4.226  1.4714 -1.3317 -1.4059
28335SOL     OW97063   8.916   9.618   2.411 -0.1227  0.1600  0.0844
28335SOL    HW197064   8.863   9.676   2.349  0.6589  1.1284  0.3135
28335SOL    HW297065   8.892   9.640   2.506 -0.2556 -0.3108  0.1637
28336SOL     OW97066   1.764   1.402   4.906 -0.2913 -0.4744 -0.7263
28336SOL    HW197067   1.738   1.422   4.812  3.0503 -0.3749 -1.7155
28336SOL    HW297068   1.851   1.352   4.906 -0.3378 -0.6468  2.3021
28337SOL     OW97069   1.622   3.639   4.486  0.3276  0.7114  0.7601
28337SOL    HW197070   1.643   3.543   4.468  0.9722  0.6542  1.8062
28337SOL    HW297071   1.536   3.645   4.537 -0.1789  0.7485 -0.0763
28338SOL     OW97072   9.524   9.554   9.154 -0.0667  0.1678  0.1534
28338SOL    HW197073   9.540   9.641   9.201  1.4150 -0.2433  0.4452
28338SOL    HW297074   9.580   9.550   9.071 -0.6728 -0.2106 -0.2426
28339SOL     OW97075   3.315   0.160   8.338  0.8060 -0.3151 -0.0075
28339SOL    HW197076   3.296   0.065   8.364  0.9223 -0.3517 -0.0571
28339SOL    HW297077   3.314   0.218   8.419  1.4422 -0.4731  0.1153
28340SOL     OW97078   7.236   5.690   9.037 -0.5372  0.2901  0.6381
28340SOL    HW197079   7.316   5.746   9.015 -0.5232  0.0612  0.0893
28340SOL    HW297080   7.266   5.596   9.054 -0.9908 -0.4187 -2.3439
28341SOL     OW97081   2.366   7.486   9.438  0.3199 -0.0254  0.1781
28341SOL    HW197082   2.322   7.574   9.420  0.1831 -0.4335 -1.5726
28341SOL    HW297083   2.452   7.501   9.486 -1.4805  0.8199  3.3029
28342SOL     OW97084   1.683   5.625   1.959  0.0082  0.1450 -0.2902
28342SOL    HW197085   1.598   5.676   1.968  1.2135  1.9416  1.4861
28342SOL    HW297086   1.760   5.683   1.986  1.6498 -1.9384 -0.3065
28343SOL     OW97087   4.999   4.041   0.827  0.0694  0.0344  0.1441
28343SOL    HW197088   4.974   4.074   0.736  0.8775 -0.5382 -0.2980
28343SOL    HW297089   5.097   4.057   0.842 -0.0324 -0.0016  0.8597
28344SOL     OW97090   6.860   9.861   3.956  0.6751  0.1944 -0.8115
28344SOL    HW197091   6.786   9.878   3.891 -0.5409  1.1716  0.7964
28344SOL    HW297092   6.916   9.785   3.923 -3.1008 -2.9444 -0.3690
28345SOL     OW97093   3.038   0.106   4.806  0.4254 -0.0829 -0.2036
28345SOL    HW197094   3.011   0.051   4.885  0.4691 -0.2485 -0.3039
28345SOL    HW297095   2.962   0.110   4.741  0.4156 -0.0086 -0.1873
28346SOL     OW97096   8.275   7.385   2.472 -0.6850  0.2126 -0.3970
28346SOL    HW197097   8.344   7.440   2.425 -0.2049  0.3891  0.4987
28346SOL    HW297098   8.284   7.289   2.446 -0.0228  0.2165 -0.1954
28347SOL     OW97099   9.576   2.860  10.021 -0.0048 -0.0479 -0.4959
28347SOL    HW197100   9.646   2.869   9.949 -2.2475 -0.0270 -2.7475
28347SOL    HW297101   9.530   2.772  10.012 -0.2918 -0.0475  0.9471
  10.00000  10.00000  10.08169
