chitosan Film  in water:acetic acid 2%
15641
    1CHTO  H203    1   5.838   7.197   2.034  0.3301  0.1761 -0.0881
    1CHTO   O82    2   5.850   7.110   2.066 -0.6661  0.0330 -0.0830
    1CHTO  C123    3   5.974   7.082   2.142 -0.4673  0.2831  0.5799
    1CHTO  H227    4   5.982   7.157   2.222  1.3952  0.9254 -0.1884
    1CHTO   O77    5   5.957   6.944   2.187 -0.0687  0.3164  0.2580
    1CHTO  C118    6   6.066   6.886   2.257  0.5909  0.4945  0.0963
    1CHTO  H222    7   6.078   6.951   2.345  0.7183  0.5560  0.0347
    1CHTO  C125    8   6.023   6.740   2.305  0.2328  0.4099 -0.8492
    1CHTO   O84    9   5.913   6.763   2.402  0.1435 -0.0225  0.2986
    1CHTO  H205   10   5.832   6.747   2.359  0.3815 -0.4870  0.0189
    1CHTO  C114   11   6.190   6.876   2.172  0.8828  0.2273  0.1253
    1CHTO  H218   12   6.167   6.818   2.083 -1.4659  0.2060  0.7248
    1CHTO  C116   13   6.223   7.024   2.119  0.2352  0.1240 -0.2540
    1CHTO  H220   14   6.252   7.084   2.208 -1.8835  1.3455 -0.3780
    1CHTO   O79   15   6.337   7.014   2.032 -0.5944  0.0143 -0.6642
    1CHTO  H201   16   6.360   7.100   2.004 -0.7562  0.0554 -0.6707
    1CHTO  C120   17   6.104   7.096   2.049  0.1621 -0.4246  0.2995
    1CHTO  H224   18   6.091   7.052   1.948  3.1013 -0.1128 -0.2660
    1CHTO   N21   19   6.125   7.240   2.029  0.1743 -0.8689  0.3140
    1CHTO  H211   20   6.229   7.265   2.014 -0.2464  0.7895  0.0324
    1CHTO  H212   21   6.046   7.278   1.965  0.0477 -1.2771  0.2280
    1CHTO   O75   22   6.291   6.811   2.252 -0.2732 -0.8792  0.0803
    1CHTO  C112   23   6.344   6.664   2.212 -0.1906 -0.0760 -0.4663
    1CHTO  H216   24   6.333   6.655   2.103  2.5618  0.0120 -0.7924
    1CHTO   O73   25   6.265   6.568   2.283 -0.4714 -0.0015  0.6879
    1CHTO  C113   26   6.288   6.428   2.254  0.7464 -0.4540 -0.4172
    1CHTO  H217   27   6.278   6.405   2.146 -2.3909 -0.2395 -0.1989
    1CHTO  C124   28   6.175   6.346   2.320 -0.0841 -0.3316  0.2459
    1CHTO   O83   29   6.051   6.408   2.315 -0.0761 -0.4758  0.0444
    1CHTO  H204   30   6.029   6.442   2.399  0.7567  0.4940 -0.1054
    1CHTO  C109   31   6.431   6.393   2.295  0.5313 -0.2798  0.2657
    1CHTO  H213   32   6.429   6.383   2.405 -3.2657  1.6826  0.4556
    1CHTO  C110   33   6.544   6.494   2.239  0.8621  0.4796  1.1069
    1CHTO  H214   34   6.560   6.468   2.134 -0.1617 -0.2380  1.1187
    1CHTO   O78   35   6.666   6.480   2.307 -0.0957  0.4017  0.6829
    1CHTO  H200   36   6.649   6.516   2.392  0.5121  0.1680  0.9037
    1CHTO  C111   37   6.496   6.639   2.252 -0.0621 -0.0094 -0.2178
    1CHTO  H215   38   6.498   6.666   2.359 -2.0253 -2.5831  0.5337
    1CHTO   N19   39   6.577   6.737   2.180  0.2728 -0.2375  0.3006
    1CHTO  H207   40   6.566   6.703   2.078 -0.1956 -0.9395  0.5844
    1CHTO  H208   41   6.681   6.758   2.201  0.2844 -0.8617  0.8575
    1CHTO   O74   42   6.469   6.268   2.235 -0.1100 -0.0777 -0.7886
    1CHTO  C115   43   6.582   6.163   2.307  0.0550 -0.3496 -0.0398
    1CHTO  H219   44   6.607   6.197   2.407 -1.1643  0.9361 -0.1537
    1CHTO   O76   45   6.531   6.012   2.315  0.2150  0.9255 -0.1492
    1CHTO  C122   46   6.498   5.959   2.186 -0.0023  0.1504 -0.9806
    1CHTO  H226   47   6.403   6.006   2.165 -1.1888  0.5233  4.3731
    1CHTO  C126   48   6.467   5.801   2.201  0.3006 -0.4826  0.7650
    1CHTO   O85   49   6.432   5.733   2.079  0.3244  0.0942 -0.1349
    1CHTO  H206   50   6.503   5.694   2.033 -0.3271 -2.4375  0.9287
    1CHTO  C121   51   6.607   5.982   2.069 -0.1842  0.1993 -0.1240
    1CHTO  H225   52   6.626   5.886   2.017 -1.8137 -1.1162  1.5968
    1CHTO   O81   53   6.563   6.075   1.977  0.4444  0.7924 -0.2229
    1CHTO  H202   54   6.497   6.047   1.917 -0.5200  2.3232  0.0803
    1CHTO  C119   55   6.740   6.028   2.138 -0.1759  0.0123  0.1363
    1CHTO  H223   56   6.767   5.956   2.215  0.1687  1.2737  1.1835
    1CHTO  C117   57   6.716   6.166   2.221 -0.6226 -0.4790 -0.0543
    1CHTO  H221   58   6.710   6.256   2.159  1.4477  0.7621  1.4905
    1CHTO   N20   59   6.836   6.203   2.308 -0.4421  0.5407 -0.3165
    1CHTO  H209   60   6.813   6.180   2.411  0.3738 -0.2751 -0.3046
    1CHTO  H210   61   6.924   6.155   2.268 -0.3413 -0.7360  1.3766
    1CHTO   O80   62   6.856   6.015   2.049 -0.0318 -0.2420  0.1585
    1CHTO  C103   63   6.964   5.927   2.086 -1.4182 -0.1868  0.2765
    1CHTO  H190   64   6.989   5.920   2.192 -2.5570 -0.0412  0.5578
    1CHTO  C101   65   6.950   5.786   2.025 -0.2826  0.3359  0.4483
    1CHTO  H188   66   6.940   5.789   1.916  3.8466 -1.4870 -0.0477
    1CHTO   O68   67   6.842   5.717   2.108  0.0843  0.0840 -0.0265
    1CHTO  H168   68   6.756   5.749   2.090 -0.3376 -0.9555  0.1522
    1CHTO   C99   69   7.083   5.692   2.045 -0.4119 -0.7289 -0.6247
    1CHTO  H186   70   7.103   5.687   2.154 -1.8989  0.2658 -0.2955
    1CHTO   N17   71   7.069   5.551   1.986  0.0006 -0.2527  0.4663
    1CHTO  H174   72   6.987   5.502   2.035 -0.2507 -2.4916 -2.0305
    1CHTO  H175   73   7.040   5.556   1.882 -2.0987  1.8266  1.1302
    1CHTO   C97   74   7.207   5.765   1.985 -0.1362  0.4640 -0.2226
    1CHTO  H184   75   7.203   5.765   1.875 -0.8076  1.7627 -0.2157
    1CHTO   O64   76   7.210   5.903   2.038  0.0328  0.1726  0.1146
    1CHTO  C104   77   7.093   5.984   2.015  0.3128 -0.7538  0.1311
    1CHTO  H191   78   7.074   5.985   1.907  1.0530  0.2732  0.0060
    1CHTO  C108   79   7.130   6.128   2.057  0.2992 -0.3075 -0.1031
    1CHTO   O71   80   7.219   6.199   1.963  0.3873 -0.1604 -0.2139
    1CHTO  H171   81   7.236   6.277   2.012  2.6016 -2.1690  2.3951
    1CHTO   O62   82   7.326   5.703   2.038  0.7265 -0.1849  0.5084
    1CHTO   C91   83   7.434   5.665   1.956  0.3066  0.0557  0.8443
    1CHTO  H178   84   7.410   5.628   1.856 -0.7840  0.2514  1.0384
    1CHTO   C92   85   7.510   5.536   2.021 -0.2035 -0.5192  0.5890
    1CHTO  H179   86   7.522   5.549   2.129 -0.8890  1.4571  0.4482
    1CHTO   O66   87   7.413   5.422   2.006 -0.6950  0.0018 -0.7733
    1CHTO  H166   88   7.380   5.395   2.089 -1.4020 -3.1264 -2.0161
    1CHTO   C93   89   7.655   5.504   1.955  0.9199  0.1758  0.0269
    1CHTO  H180   90   7.633   5.483   1.849 -2.0666  1.4418  0.3511
    1CHTO   N16   91   7.711   5.381   2.014  0.3766  0.4384 -0.2658
    1CHTO  H172   92   7.790   5.336   1.956  1.4467  1.9807 -0.0466
    1CHTO  H173   93   7.638   5.305   2.036 -0.8509  1.2138 -1.5366
    1CHTO   C94   94   7.741   5.628   1.957  0.0940 -0.2850  0.8317
    1CHTO  H181   95   7.759   5.665   2.058  1.5501 -0.0534  0.4985
    1CHTO   O61   96   7.673   5.737   1.889 -0.5354  0.0017 -0.1062
    1CHTO   C95   97   7.541   5.780   1.930  0.2624  0.2626 -0.1765
    1CHTO  H182   98   7.546   5.839   2.022  0.5138  1.9860 -1.2724
    1CHTO  C106   99   7.505   5.884   1.812 -0.6079  0.1050  0.2337
    1CHTO   O69  100   7.612   5.970   1.770 -0.0503 -0.0708  0.0275
    1CHTO  H169  101   7.598   5.979   1.677  2.8196 -1.1662 -0.5782
    1CHTO   O63  102   7.870   5.607   1.864 -0.2771 -0.6816 -0.8125
    1CHTO   C96  103   8.001   5.694   1.919 -0.5716 -0.0719  0.0356
    1CHTO  H183  104   7.956   5.778   1.972 -1.0334 -1.1160  1.3287
    1CHTO   C98  105   8.094   5.758   1.807  0.2846 -0.0630 -0.0039
    1CHTO  H185  106   8.041   5.815   1.731  1.2896 -0.3924 -0.9698
    1CHTO   O67  107   8.196   5.849   1.866 -0.1700  0.7355  0.3511
    1CHTO  H167  108   8.167   5.928   1.907 -0.9919  0.9239 -0.5688
    1CHTO  C102  109   8.172   5.644   1.734 -0.2016 -0.4949  0.2945
    1CHTO  H189  110   8.261   5.693   1.693 -1.0743  1.0626  0.2043
    1CHTO   N18  111   8.102   5.583   1.621  0.4002 -0.4718  0.4033
    1CHTO  H176  112   8.185   5.580   1.551  0.7483  1.4066  0.7066
    1CHTO  H177  113   8.064   5.486   1.651 -0.9243 -0.3007 -0.7168
    1CHTO  C105  114   8.223   5.533   1.834  0.0170  0.1221  0.0483
    1CHTO  H192  115   8.154   5.449   1.829 -0.4224  0.4812  0.0014
    1CHTO   O65  116   8.225   5.575   1.970  0.3322  0.2813  0.0972
    1CHTO  C100  117   8.084   5.595   2.010 -0.3536 -0.0802 -0.2215
    1CHTO  H187  118   8.034   5.497   2.006  0.6813 -0.6728  0.9003
    1CHTO  C107  119   8.098   5.641   2.153  0.2107 -0.8309  0.2553
    1CHTO   O70  120   7.980   5.658   2.231  0.0311 -0.4701  0.1590
    1CHTO  H170  121   7.957   5.584   2.283 -1.0361  0.1546  0.5982
    1CHTO   O57  122   8.367   5.481   1.786  0.5204 -0.0529 -0.4258
    1CHTO   C85  123   8.375   5.344   1.754  1.2711  0.0709 -0.5321
    1CHTO  H157  124   8.276   5.332   1.705  1.1384 -0.4694 -0.1390
    1CHTO   C83  125   8.365   5.249   1.875  0.6923  0.6850 -0.7140
    1CHTO  H155  126   8.275   5.276   1.931  1.0797 -1.4405  0.9997
    1CHTO   O56  127   8.479   5.261   1.963  0.3816  0.2057 -0.3638
    1CHTO  H135  128   8.464   5.323   2.031  0.4705  0.8249 -0.9060
    1CHTO   C81  129   8.339   5.103   1.825  0.1698 -0.0591  0.3634
    1CHTO  H153  130   8.260   5.106   1.750  0.4317  0.4009  0.1013
    1CHTO   N14  131   8.301   4.995   1.921 -0.4896  0.2229  0.3570
    1CHTO  H141  132   8.293   4.901   1.871 -0.0993  0.6312 -0.4909
    1CHTO  H142  133   8.367   4.982   2.005 -0.2999 -1.5079 -0.0378
    1CHTO   C79  134   8.473   5.069   1.742  0.8145 -0.1100  0.9338
    1CHTO  H151  135   8.451   4.975   1.692 -1.8763  1.4976 -1.0557
    1CHTO   O52  136   8.502   5.161   1.633  0.1280 -0.2677 -0.4794
    1CHTO   C86  137   8.494   5.310   1.653  0.0459 -0.0938  0.3947
    1CHTO  H158  138   8.592   5.348   1.689 -0.4115  0.4846  1.0534
    1CHTO   C90  139   8.479   5.373   1.515 -0.3267 -0.1053 -0.1756
    1CHTO   O60  140   8.482   5.512   1.509  0.0161 -0.0658 -0.2542
    1CHTO  H138  141   8.546   5.550   1.566  0.8212  0.4297 -1.4751
    1CHTO   O50  142   8.598   5.056   1.810 -0.8268  0.5032  0.5199
    1CHTO   C73  143   8.726   4.995   1.780 -0.0101  0.2893  0.6477
    1CHTO  H145  144   8.754   5.037   1.682 -1.2573  1.0847  0.6186
    1CHTO   C74  145   8.720   4.841   1.802 -1.0370 -0.9623  0.2683
    1CHTO  H146  146   8.644   4.801   1.734 -2.0789 -0.2530  0.9960
    1CHTO   O54  147   8.852   4.798   1.760  0.5374  0.3318  0.5680
    1CHTO  H133  148   8.867   4.707   1.776  0.7539 -0.0711 -1.7822
    1CHTO   C75  149   8.680   4.815   1.957  0.4938 -0.2941 -0.2472
    1CHTO  H147  150   8.584   4.862   1.983  1.0857  0.5588  0.4046
    1CHTO   N13  151   8.663   4.673   1.989  0.4073  0.9030 -0.1681
    1CHTO  H139  152   8.641   4.656   2.093  2.1352 -2.7313 -0.2945
    1CHTO  H140  153   8.581   4.632   1.931 -0.1975  2.0230 -0.1134
    1CHTO   C76  154   8.786   4.876   2.057  0.5790  0.2755  0.6470
    1CHTO  H148  155   8.881   4.827   2.035 -1.1591 -2.8510 -0.2257
    1CHTO   O49  156   8.797   5.027   2.023 -0.0849 -0.0688  0.0920
    1CHTO   C77  157   8.828   5.055   1.887 -0.0382  0.5963 -0.2303
    1CHTO  H149  158   8.927   5.018   1.862 -0.6026 -0.2510 -1.2328
    1CHTO   C88  159   8.843   5.206   1.869  0.5907  0.6158  0.0157
    1CHTO   O58  160   8.937   5.244   1.971  0.0901  0.3482 -0.7473
    1CHTO  H136  161   8.914   5.330   1.999 -0.7885  0.3889 -1.6125
    1CHTO   O51  162   8.744   4.862   2.227  0.4918 -0.0435 -0.4505
    1CHTO   C78  163   8.715   4.987   2.300 -0.4816 -0.8841 -0.2324
    1CHTO  H150  164   8.704   5.076   2.235 -0.5180 -2.0156 -1.8087
    1CHTO   C80  165   8.826   5.024   2.402  0.4526 -0.1055 -0.5726
    1CHTO  H152  166   8.838   4.938   2.472  2.7018 -0.2370 -1.0925
    1CHTO   O55  167   8.941   5.040   2.318  0.3589  0.0024  0.0883
    1CHTO  H134  168   9.019   5.038   2.370 -1.4470  1.8009  3.0109
    1CHTO   C84  169   8.783   5.147   2.490  0.5079 -0.2387 -1.0585
    1CHTO  H156  170   8.782   5.236   2.427 -0.1099 -1.4154 -2.7482
    1CHTO   N15  171   8.886   5.175   2.599 -0.2706  0.2201  0.1259
    1CHTO  H143  172   8.988   5.169   2.569  0.7797  0.3848  3.5287
    1CHTO  H144  173   8.867   5.268   2.648  1.2533  0.2579  0.6503
    1CHTO   C87  174   8.638   5.115   2.541  0.2464 -0.2817  0.0288
    1CHTO  H159  175   8.666   5.027   2.598  0.9701 -0.1286 -0.0798
    1CHTO   O53  176   8.539   5.087   2.435  0.1420  0.2933  0.0378
    1CHTO   C82  177   8.578   4.967   2.364 -0.3288  0.3353  0.0463
    1CHTO  H154  178   8.572   4.882   2.433  0.7927 -0.0832 -0.3579
    1CHTO   C89  179   8.475   4.940   2.255  0.0466  0.0934  0.2221
    1CHTO   O59  180   8.341   4.909   2.297 -0.3827  0.1631  0.2179
    1CHTO  H137  181   8.283   4.889   2.226 -0.9172  2.3039  0.0114
    1CHTO   O45  182   8.569   5.241   2.633 -0.0574 -0.4263 -0.1953
    1CHTO   C67  183   8.607   5.376   2.594 -0.1410 -0.6495 -0.1552
    1CHTO  H124  184   8.715   5.388   2.604 -0.3055 -0.4860  1.6504
    1CHTO   C65  185   8.562   5.404   2.447  0.3782 -0.0900  0.3787
    1CHTO  H122  186   8.599   5.324   2.383  1.5122  1.6646 -1.1957
    1CHTO   O44  187   8.609   5.530   2.395 -0.4552 -0.2778  0.1808
    1CHTO  H102  188   8.702   5.526   2.396 -0.4673 -1.2778  2.4348
    1CHTO   C63  189   8.407   5.397   2.447 -0.0054  0.1023  0.4405
    1CHTO  H120  190   8.373   5.305   2.495  0.4661 -0.6158 -0.5881
    1CHTO   N11  191   8.340   5.383   2.312  0.3018 -0.9003 -0.0391
    1CHTO  H108  192   8.380   5.298   2.261  2.9565  0.1089  0.2574
    1CHTO  H109  193   8.358   5.469   2.250 -1.1770 -0.6056 -0.0911
    1CHTO   C61  194   8.361   5.509   2.547  0.6678 -0.1033 -0.0718
    1CHTO  H118  195   8.255   5.480   2.551  0.8708 -0.6916  1.0311
    1CHTO   O40  196   8.402   5.506   2.673 -0.0185  0.1095 -0.2929
    1CHTO   C68  197   8.542   5.476   2.699  0.2118 -0.6889 -0.5025
    1CHTO  H125  198   8.545   5.412   2.790  0.4046  0.2256  0.1445
    1CHTO   C72  199   8.623   5.598   2.727 -0.0083  0.2813  0.5554
    1CHTO   O48  200   8.588   5.661   2.847  0.1423  0.3227  0.9572
    1CHTO  H105  201   8.557   5.746   2.821 -1.2741 -0.3827  0.2564
    1CHTO   O38  202   8.373   5.642   2.487  0.2801 -0.0036  0.3543
    1CHTO   C55  203   8.296   5.745   2.546  0.4126 -0.0290 -0.1318
    1CHTO  H112  204   8.350   5.765   2.640  2.0872  0.1534 -1.1185
    1CHTO   C56  205   8.145   5.730   2.565  0.9505 -0.1571 -0.4448
    1CHTO  H113  206   8.105   5.697   2.468 -3.0651 -0.0033  1.0508
    1CHTO   O42  207   8.119   5.622   2.650  0.1946 -0.1990 -0.0959
    1CHTO  H100  208   8.141   5.539   2.611 -1.0638 -0.5386 -0.1054
    1CHTO   C57  209   8.076   5.859   2.618  0.3111 -0.3360 -0.4669
    1CHTO  H114  210   8.120   5.881   2.715  0.5669 -0.1680 -0.6214
    1CHTO   N10  211   7.926   5.854   2.625 -0.0750  0.7886 -0.8050
    1CHTO  H106  212   7.883   5.756   2.638  0.9534  0.4933  0.3938
    1CHTO  H107  213   7.887   5.919   2.702 -2.1021 -0.8673 -0.3944
    1CHTO   C58  214   8.121   5.978   2.532 -0.4583 -0.4043 -0.1619
    1CHTO  H115  215   8.073   5.969   2.432  0.4334 -0.3125 -0.5999
    1CHTO   O37  216   8.262   5.980   2.532 -0.0357 -0.4648  0.0537
    1CHTO   C59  217   8.324   5.872   2.456  0.1074 -0.8629 -0.3936
    1CHTO  H116  218   8.281   5.879   2.357  0.2226  0.3587 -0.3633
    1CHTO   C70  219   8.478   5.907   2.468  0.3048  0.2718 -0.1783
    1CHTO   O46  220   8.515   5.975   2.347  0.5031 -0.3631 -0.4287
    1CHTO  H103  221   8.585   6.037   2.355 -0.0786  0.1531  0.6609
    1CHTO   O39  222   8.090   6.134   2.594  0.3800  0.2321 -0.7463
    1CHTO   C60  223   8.076   6.239   2.495 -0.3819 -0.6384 -0.1504
    1CHTO  H117  224   8.117   6.206   2.399  1.3810  0.9734  0.0160
    1CHTO   C62  225   7.925   6.277   2.471 -0.3592 -0.2865  0.1255
    1CHTO  H119  226   7.887   6.181   2.430 -1.1123  0.6698 -1.4657
    1CHTO   O43  227   7.866   6.303   2.598 -0.2652 -0.3401 -0.2330
    1CHTO  H101  228   7.893   6.381   2.642  0.4759 -0.6763 -0.0903
    1CHTO   C66  229   7.898   6.394   2.373 -0.6922  0.0557 -0.7072
    1CHTO  H123  230   7.939   6.368   2.275 -1.6471 -0.4241 -0.9814
    1CHTO   N12  231   7.753   6.415   2.339  0.1199  0.0817 -0.1112
    1CHTO  H110  232   7.714   6.513   2.314  0.0075 -0.9789 -4.5682
    1CHTO  H111  233   7.692   6.378   2.420  0.5559  0.9666  0.6290
    1CHTO   C69  234   7.963   6.520   2.431  0.6063  0.2860  0.6149
    1CHTO  H126  235   7.925   6.535   2.534  1.1781 -2.0745  1.2169
    1CHTO   O41  236   8.134   6.490   2.456 -0.0986  0.0581  0.2248
    1CHTO   C64  237   8.171   6.355   2.537  0.2723  0.5270  0.7980
    1CHTO  H121  238   8.156   6.363   2.647 -0.0898 -0.8260  0.8553
    1CHTO   C71  239   8.326   6.330   2.520  0.2841  0.5454  0.6482
    1CHTO   O47  240   8.382   6.242   2.615  0.0341  0.4787  0.5903
    1CHTO  H104  241   8.468   6.265   2.643 -0.4555  1.3730  1.3804
    1CHTO   O34  242   7.933   6.661   2.329 -0.1320  0.4527  0.2841
    1CHTO   C49  243   7.886   6.782   2.419  0.3747  0.1072  0.1730
    1CHTO   H91  244   7.854   6.740   2.514  1.1820 -1.1560 -0.0977
    1CHTO   C47  245   7.766   6.847   2.352  0.4741  0.2164  0.3857
    1CHTO   H89  246   7.715   6.923   2.415 -1.4346  0.2065 -1.1237
    1CHTO   O33  247   7.669   6.751   2.323 -0.3991 -0.0582  0.4287
    1CHTO   H70  248   7.630   6.718   2.402 -1.7463 -0.0055 -0.2115
    1CHTO   C45  249   7.819   6.934   2.218  0.4061  0.4003 -0.1547
    1CHTO   H87  250   7.875   6.865   2.154  0.7149  0.9731 -0.5049
    1CHTO    N8  251   7.708   6.991   2.141  0.0865 -0.2694 -0.1493
    1CHTO   H75  252   7.633   7.038   2.203  0.0969  0.7718 -0.9027
    1CHTO   H76  253   7.746   7.068   2.075  0.6110  0.0237  0.4872
    1CHTO   C43  254   7.921   7.046   2.268  0.3706 -0.0991  0.1691
    1CHTO   H85  255   7.957   7.103   2.183 -0.3380  0.6187  0.3408
    1CHTO   O29  256   8.030   6.979   2.340  0.0916  0.1443  0.6707
    1CHTO   C50  257   7.995   6.891   2.447  0.2937 -0.3103 -0.1784
    1CHTO   H92  258   8.081   6.825   2.467  0.1495  0.2797  2.4966
    1CHTO   C54  259   7.974   6.971   2.580 -0.4750 -0.4229 -0.2822
    1CHTO   O36  260   8.096   7.008   2.647  0.2281  0.4607 -0.0232
    1CHTO   H72  261   8.082   7.047   2.731 -0.5794  0.1541 -0.0022
    1CHTO   O27  262   7.849   7.142   2.353  0.0643 -0.0582 -0.1198
    1CHTO   C37  263   7.761   7.258   2.360  0.1535  0.2407 -0.2928
    1CHTO   H79  264   7.730   7.281   2.257 -1.4112  0.6122  0.2506
    1CHTO   C38  265   7.626   7.233   2.443  0.1599  0.1437  0.0049
    1CHTO   H80  266   7.651   7.181   2.537  1.7205  0.5529 -0.1639
    1CHTO   O31  267   7.534   7.147   2.369  0.2208  0.2967 -0.4365
    1CHTO   H68  268   7.583   7.079   2.328 -0.2931 -0.5355  0.3325
    1CHTO   C39  269   7.559   7.375   2.473 -0.1736 -0.2113 -0.0306
    1CHTO   H81  270   7.511   7.406   2.380  1.0997 -0.8731 -0.9189
    1CHTO    N7  271   7.448   7.356   2.572  0.5937 -0.1159 -0.0337
    1CHTO   H73  272   7.491   7.345   2.670  1.7539 -1.4045 -0.6712
    1CHTO   H74  273   7.363   7.422   2.563 -0.2604 -1.2925 -0.8065
    1CHTO   C40  274   7.658   7.484   2.533  0.2550 -0.0106  0.3591
    1CHTO   H82  275   7.694   7.454   2.632  2.2776 -1.2787 -0.7220
    1CHTO   O26  276   7.767   7.493   2.442 -0.2432  0.8580  0.4931
    1CHTO   C41  277   7.851   7.371   2.429 -0.2481 -0.3000 -0.2233
    1CHTO   H83  278   7.873   7.339   2.532 -1.8395 -0.2959  0.1357
    1CHTO   C52  279   7.983   7.407   2.361 -0.3880 -0.5093  0.8505
    1CHTO   O35  280   8.100   7.362   2.446 -0.4004  0.0301 -0.1142
    1CHTO   H71  281   8.106   7.422   2.518  1.0279  1.4142 -1.3274
    1CHTO   O28  282   7.610   7.620   2.556  0.2090 -0.2868  0.0484
    1CHTO   C42  283   7.607   7.728   2.452 -0.4290  0.1969 -0.4403
    1CHTO   H84  284   7.638   7.685   2.356  1.2760  1.3799 -0.4347
    1CHTO   C44  285   7.714   7.843   2.478  0.7114 -0.0194 -0.0955
    1CHTO   H86  286   7.681   7.908   2.559 -0.1080  1.3252 -1.4864
    1CHTO   O32  287   7.842   7.787   2.515 -0.2900  0.5373 -0.2631
    1CHTO   H69  288   7.921   7.838   2.517  1.1114 -1.5451 -0.7275
    1CHTO   C48  289   7.720   7.937   2.353 -0.2363  0.7951 -0.7655
    1CHTO   H90  290   7.757   7.876   2.270  1.2095 -1.1679  1.2568
    1CHTO    N9  291   7.828   8.047   2.369  0.3338  0.2660  0.2046
    1CHTO   H77  292   7.791   8.120   2.440  0.5173  1.1129 -0.5639
    1CHTO   H78  293   7.922   8.004   2.400 -0.5182  0.6301  3.4277
    1CHTO   C51  294   7.577   7.997   2.317 -0.0052  0.0148  0.0213
    1CHTO   H93  295   7.558   8.074   2.392  1.6165 -2.1721  2.7092
    1CHTO   O30  296   7.469   7.897   2.318 -0.3063  0.7368  0.4313
    1CHTO   C46  297   7.464   7.790   2.430  0.7328  0.8617 -0.3895
    1CHTO   H88  298   7.426   7.835   2.521  0.0372 -1.1695  0.3688
    1CHTO   C53  299   7.373   7.677   2.383 -0.0421 -0.0254 -0.4237
    1CHTO   O72  300   7.231   7.709   2.377 -0.6534 -0.3365 -0.6041
    1CHTO  H199  301   7.217   7.764   2.303  1.4680  1.4364  0.2463
    1CHTO   O22  302   7.572   8.059   2.183  0.0519  0.1112 -0.4191
    1CHTO   C31  303   7.467   8.138   2.137  0.2269  0.0255  0.2702
    1CHTO   H59  304   7.388   8.132   2.214 -0.8703  1.0305 -0.7458
    1CHTO   C29  305   7.505   8.286   2.113 -0.0694 -0.2433 -0.2466
    1CHTO   H57  306   7.598   8.283   2.054 -0.1005  1.7426 -0.4186
    1CHTO   O21  307   7.541   8.362   2.237 -0.2373  0.3137  0.5923
    1CHTO   H37  308   7.483   8.338   2.306 -0.8500 -1.1662 -0.3999
    1CHTO   C27  309   7.404   8.369   2.033  0.1230 -0.5848  0.3627
    1CHTO   H55  310   7.320   8.396   2.099 -0.3447  0.2877 -0.5739
    1CHTO    N5  311   7.460   8.497   1.972 -0.5703 -0.0070  0.2735
    1CHTO   H43  312   7.549   8.526   2.025 -0.7403 -2.0226  1.7202
    1CHTO   H44  313   7.394   8.583   1.968  0.5807  0.7934 -1.6932
    1CHTO   C25  314   7.350   8.288   1.914  0.3360 -0.0081  0.1238
    1CHTO   H53  315   7.433   8.277   1.842  0.3446 -2.6240  0.4733
    1CHTO   O17  316   7.299   8.160   1.960 -0.0752 -0.2096 -0.4371
    1CHTO   C32  317   7.405   8.078   2.007 -0.0826  0.1055  0.3243
    1CHTO   H60  318   7.484   8.074   1.932  0.7925 -0.4616  1.2618
    1CHTO   C36  319   7.335   7.937   2.035  0.2085 -0.1422 -0.0969
    1CHTO   O25  320   7.300   7.882   1.907  0.2922  0.2479  0.0151
    1CHTO   H40  321   7.380   7.887   1.858 -0.5032  0.2270 -1.3061
    1CHTO   O15  322   7.227   8.341   1.817  1.0271 -0.3594 -0.6084
    1CHTO   C19  323   7.181   8.263   1.700 -0.2380 -0.4599  0.0648
    1CHTO   H47  324   7.100   8.321   1.654 -0.8162 -2.1172 -1.0842
    1CHTO   C20  325   7.293   8.243   1.602 -0.4369 -0.4020 -0.1091
    1CHTO   H48  326   7.377   8.186   1.645 -0.6178 -1.8794 -1.6774
    1CHTO   O19  327   7.344   8.374   1.576  0.1087 -0.1079  0.3485
    1CHTO   H35  328   7.423   8.372   1.526  2.4568  0.8952  3.7949
    1CHTO   C21  329   7.243   8.177   1.463 -0.6608 -0.2218  0.2110
    1CHTO   H49  330   7.177   8.250   1.418  1.9207  2.9805  1.3798
    1CHTO    N4  331   7.351   8.163   1.359 -0.6835  0.1754  0.6412
    1CHTO   H41  332   7.437   8.112   1.401 -0.6428 -0.8761 -0.7061
    1CHTO   H42  333   7.383   8.255   1.312 -1.8330 -0.2723 -1.0396
    1CHTO   C22  334   7.174   8.044   1.503  0.4831  0.0121  0.1342
    1CHTO   H50  335   7.253   7.984   1.548 -0.1827 -1.5304 -0.7326
    1CHTO   O14  336   7.064   8.064   1.599  0.1290 -0.1564  0.3182
    1CHTO   C23  337   7.113   8.120   1.722 -0.1438  0.4651  0.0171
    1CHTO   H51  338   7.184   8.048   1.765  2.5790  2.4208 -1.0303
    1CHTO   C34  339   7.015   8.140   1.839 -0.4025 -0.1427  0.3022
    1CHTO   O23  340   7.009   8.012   1.897  0.2325 -0.3386 -0.0824
    1CHTO   H38  341   7.091   7.969   1.915  0.3661  0.6517  1.7865
    1CHTO   O16  342   7.118   7.979   1.384 -0.7496 -0.4128 -0.0709
    1CHTO   C24  343   7.218   7.853   1.324 -0.5146  0.0160 -0.2466
    1CHTO   H52  344   7.320   7.861   1.361 -0.8571  1.4570  0.4060
    1CHTO   C26  345   7.228   7.853   1.172  0.6876 -0.1356  0.9573
    1CHTO   H54  346   7.129   7.826   1.131 -0.0737  0.5313  2.3314
    1CHTO   O20  347   7.272   7.980   1.120  0.1170  0.2790 -0.4161
    1CHTO   H36  348   7.244   7.997   1.033  0.6686 -0.1555 -0.6831
    1CHTO   C30  349   7.316   7.738   1.118  0.1459  0.1509  0.2399
    1CHTO   H58  350   7.420   7.754   1.148 -0.0972  0.6223  0.8365
    1CHTO    N6  351   7.308   7.739   0.966 -0.5520 -0.0736 -0.0560
    1CHTO   H45  352   7.335   7.837   0.931  3.3170 -1.0893 -0.1310
    1CHTO   H46  353   7.381   7.667   0.932  1.3258  1.6541  0.2789
    1CHTO   C33  354   7.273   7.601   1.179  0.6909 -0.8427 -0.3759
    1CHTO   H61  355   7.175   7.579   1.135  0.6475 -0.0156 -0.7058
    1CHTO   O18  356   7.258   7.616   1.319  0.4690  0.7051 -0.3834
    1CHTO   C28  357   7.170   7.717   1.371  0.0091  0.0217 -0.2533
    1CHTO   H56  358   7.067   7.700   1.338 -1.7931 -0.8278  5.3648
    1CHTO   C35  359   7.168   7.700   1.523  0.1332 -0.1165  0.3255
    1CHTO   O24  360   7.297   7.716   1.583 -0.0003  0.0004 -0.2885
    1CHTO   H39  361   7.340   7.637   1.557  1.1484  0.0947  1.2140
    1CHTO    O9  362   7.357   7.491   1.137  0.3013  0.2160 -0.4402
    1CHTO   C13  363   7.276   7.356   1.160 -0.3670 -0.0378  0.0927
    1CHTO   H26  364   7.168   7.382   1.166 -0.6484 -1.1247 -0.1991
    1CHTO   C11  365   7.334   7.290   1.302  0.3399 -0.4138  0.4022
    1CHTO   H24  366   7.300   7.350   1.387  0.8227  0.1814  0.1782
    1CHTO    O8  367   7.480   7.290   1.310  0.3688  0.0599 -0.0091
    1CHTO    H3  368   7.519   7.373   1.290  1.5706 -0.6092 -0.5530
    1CHTO    C9  369   7.269   7.158   1.311 -0.3492  0.5701  0.3930
    1CHTO   H22  370   7.162   7.181   1.302 -0.1681 -0.0349 -4.9321
    1CHTO    N2  371   7.295   7.097   1.446 -0.5385 -0.4953 -0.0775
    1CHTO   H10  372   7.345   7.002   1.434  0.6775  0.1825 -0.4051
    1CHTO   H11  373   7.203   7.093   1.502 -0.0542 -1.0174  0.6917
    1CHTO    C7  374   7.312   7.067   1.191  0.9692  0.6248  0.1630
    1CHTO   H20  375   7.242   6.982   1.204  0.5808  1.3027  2.7974
    1CHTO    O4  376   7.268   7.126   1.069  0.6203 -0.5792 -0.2817
    1CHTO   C14  377   7.294   7.263   1.041  0.2582 -0.9251 -0.4757
    1CHTO   H27  378   7.221   7.285   0.961 -2.8025  1.6859  2.8949
    1CHTO   C18  379   7.433   7.260   0.976 -0.2737  0.8005  0.1157
    1CHTO   O13  380   7.416   7.197   0.847  0.1803  0.3006 -0.5273
    1CHTO    H7  381   7.377   7.258   0.788  0.0929 -0.6490 -1.4557
    1CHTO    O2  382   7.475   7.040   1.179 -0.0129  0.1900  0.2818
    1CHTO    C1  383   7.505   6.903   1.137 -0.1879 -0.1269  0.0188
    1CHTO   H14  384   7.436   6.871   1.057  0.4345 -1.4326  0.0012
    1CHTO    C2  385   7.493   6.794   1.252  0.2455  0.0797 -0.2958
    1CHTO   H15  386   7.550   6.829   1.339  0.1862 -1.8517  0.5452
    1CHTO    O6  387   7.357   6.774   1.297  0.0439 -0.1142  0.4443
    1CHTO    H1  388   7.306   6.853   1.298  1.9870  1.1714  0.0674
    1CHTO    C3  389   7.555   6.648   1.218 -0.8102  0.3445 -0.3126
    1CHTO   H16  390   7.486   6.589   1.156 -1.4461 -0.4728  1.1488
    1CHTO    N1  391   7.586   6.563   1.338  0.5744  0.5010 -0.1893
    1CHTO    H8  392   7.663   6.610   1.397  0.4361  1.1564 -0.5243
    1CHTO    H9  393   7.495   6.545   1.394  1.3415  1.9039  1.5706
    1CHTO    C4  394   7.684   6.671   1.134 -0.0139  0.2685  0.7789
    1CHTO   H17  395   7.766   6.703   1.198  0.9334  0.1933 -0.3667
    1CHTO    O1  396   7.657   6.762   1.024  0.0981 -0.2335  0.1122
    1CHTO    C5  397   7.642   6.894   1.076  0.7363 -0.2365  0.5022
    1CHTO   H18  398   7.711   6.902   1.160  1.1145  0.3702  0.1362
    1CHTO   C16  399   7.675   7.003   0.976  0.1154  0.5392  0.5989
    1CHTO   O11  400   7.584   6.978   0.864 -0.2592 -0.7236 -0.3664
    1CHTO    H5  401   7.514   7.036   0.886  0.6716 -0.2409  1.4378
    1CHTO    O3  402   7.733   6.550   1.072  0.8567 -0.2770 -0.3614
    1CHTO    C6  403   7.859   6.563   1.007  0.8610 -0.4050  0.4842
    1CHTO   H19  404   7.874   6.663   0.968 -1.9189  0.0423  0.4836
    1CHTO    C8  405   7.986   6.525   1.096  0.8016 -0.0615  0.3987
    1CHTO   H21  406   7.982   6.424   1.136  1.4167 -0.1014  0.3689
    1CHTO    O7  407   7.991   6.631   1.195 -0.1580  0.7096 -0.3348
    1CHTO    H2  408   7.995   6.589   1.278  1.3708 -0.9040 -1.1974
    1CHTO   C12  409   8.115   6.523   1.013  0.0192  0.0118 -0.1258
    1CHTO   H25  410   8.127   6.629   0.982 -2.6846  0.2096 -0.6064
    1CHTO    N3  411   8.242   6.485   1.083 -0.0301  0.3142  0.5897
    1CHTO   H12  412   8.313   6.488   1.003 -1.6570  1.5292 -0.8497
    1CHTO   H13  413   8.262   6.560   1.159  1.0587  0.3864  0.2339
    1CHTO   C15  414   8.086   6.434   0.880 -0.2648 -0.1824  0.8473
    1CHTO   H28  415   8.068   6.329   0.904  4.5205 -0.2376  5.2060
    1CHTO   O10  416   8.204   6.438   0.779  0.1426 -0.0071 -0.6280
    1CHTO    H4  417   8.244   6.523   0.771 -0.1022  0.0788 -1.0039
    1CHTO    O5  418   7.984   6.485   0.807 -0.4218 -0.9763 -0.2126
    1CHTO   C10  419   7.861   6.474   0.885  0.4140  0.1813 -0.3917
    1CHTO   H23  420   7.845   6.370   0.915 -0.6458  0.5245  0.2858
    1CHTO   C17  421   7.750   6.509   0.786 -0.1245 -0.0621  0.1679
    1CHTO   O12  422   7.705   6.404   0.704 -0.2117 -0.0269  0.0991
    1CHTO    H6  423   7.783   6.365   0.669  0.1635 -1.8607  2.9140
    2CHTO  H203  424   7.051   4.764   2.226  0.8532  0.7753  0.9173
    2CHTO   O82  425   6.996   4.774   2.301 -0.6088  0.3274 -0.0726
    2CHTO  C123  426   6.872   4.839   2.274  0.4252  0.4655  0.3504
    2CHTO  H227  427   6.891   4.911   2.194  0.4045 -0.1265 -0.1860
    2CHTO   O77  428   6.784   4.739   2.224 -0.1439  0.5269 -0.5473
    2CHTO  C118  429   6.669   4.801   2.166  0.5794 -0.4663  0.4893
    2CHTO  H222  430   6.696   4.892   2.110 -0.3954  0.6750  1.8348
    2CHTO  C125  431   6.600   4.692   2.061  0.3255 -0.1137 -0.2020
    2CHTO   O84  432   6.506   4.774   1.982 -0.1410  0.4306  0.6181
    2CHTO  H205  433   6.518   4.748   1.893 -1.6933  1.1269  0.1910
    2CHTO  C114  434   6.579   4.839   2.285  0.3877  0.4087 -0.2396
    2CHTO  H218  435   6.573   4.752   2.351  1.7458  1.0672  0.7713
    2CHTO  C116  436   6.663   4.947   2.376 -0.1063 -0.2057 -0.3315
    2CHTO  H220  437   6.662   5.045   2.324  1.7475  1.0590  1.9442
    2CHTO   O79  438   6.596   4.959   2.500 -0.2438  0.2217 -1.2752
    2CHTO  H201  439   6.616   5.045   2.530  1.2833 -0.6637  0.3273
    2CHTO  C120  440   6.814   4.908   2.401 -0.6100  0.8973 -0.2775
    2CHTO  H224  441   6.819   4.833   2.483  1.3067 -0.4630 -1.6048
    2CHTO   N21  442   6.899   5.021   2.455 -0.2211  0.2384  0.6046
    2CHTO  H211  443   6.886   5.042   2.561  2.4443  1.9437  0.6553
    2CHTO  H212  444   7.001   4.992   2.434 -0.1507  0.7277  0.2564
    2CHTO   O75  445   6.452   4.889   2.237 -0.3399  0.1244 -0.2335
    2CHTO  C112  446   6.315   4.813   2.313 -0.1931 -0.3176  0.1158
    2CHTO  H216  447   6.354   4.762   2.403  0.1043 -0.4256 -0.0745
    2CHTO   O73  448   6.259   4.721   2.216 -0.3352  0.0276  0.6043
    2CHTO  C113  449   6.146   4.653   2.255 -0.2117  0.0729  0.1704
    2CHTO  H217  450   6.175   4.592   2.343 -1.6535  1.3026  1.5047
    2CHTO  C124  451   6.090   4.559   2.140  0.7524 -0.6236  0.0453
    2CHTO   O83  452   6.159   4.432   2.135  0.2170 -0.4762 -0.4538
    2CHTO  H204  453   6.244   4.441   2.097  1.7588 -0.2106  2.8570
    2CHTO  C109  454   6.041   4.761   2.285  0.5376  0.2048  0.1117
    2CHTO  H213  455   6.029   4.814   2.189 -0.2459  0.8577  0.5524
    2CHTO  C110  456   6.080   4.860   2.397  0.6132  0.2876 -0.6497
    2CHTO  H214  457   6.089   4.802   2.488  4.4188  0.9657 -0.4869
    2CHTO   O78  458   5.972   4.948   2.429  0.2250  0.1013  0.1051
    2CHTO  H200  459   5.957   5.008   2.358 -0.0276 -0.8132 -0.6253
    2CHTO  C111  460   6.214   4.923   2.361  0.5650 -0.5745  0.1704
    2CHTO  H215  461   6.191   4.993   2.279 -0.2958  1.0832  1.7995
    2CHTO   N19  462   6.267   5.002   2.478  0.1951  0.1399 -0.4000
    2CHTO  H207  463   6.213   5.093   2.496 -1.5234 -0.6568 -1.4094
    2CHTO  H208  464   6.371   5.027   2.462 -0.0539  0.6184 -1.3340
    2CHTO   O74  465   5.913   4.696   2.316 -0.3833  1.1168  0.4153
    2CHTO  C115  466   5.781   4.717   2.223 -0.2246  0.3860  0.3150
    2CHTO  H219  467   5.797   4.796   2.149  1.0438  0.2866  0.4730
    2CHTO   O76  468   5.743   4.569   2.131 -0.4915 -0.4612  0.4927
    2CHTO  C122  469   5.636   4.498   2.199  0.1770  0.1515 -0.9735
    2CHTO  H226  470   5.676   4.479   2.298  1.3490  1.0191 -1.2705
    2CHTO  C126  471   5.608   4.358   2.132  0.8177 -0.2169  0.4583
    2CHTO   O85  472   5.514   4.282   2.210 -0.0913 -0.3078 -0.0696
    2CHTO  H206  473   5.486   4.196   2.183 -2.2697  1.2673 -3.1076
    2CHTO  C121  474   5.498   4.588   2.212  0.3921  0.1837 -0.1058
    2CHTO  H225  475   5.446   4.573   2.115  2.1600  3.2425 -1.6143
    2CHTO   O81  476   5.425   4.543   2.322  0.1532 -0.5015  0.2484
    2CHTO  H202  477   5.365   4.484   2.281  0.5135 -0.6305 -0.0971
    2CHTO  C119  478   5.520   4.746   2.218 -0.1464  0.0934 -0.7173
    2CHTO  H223  479   5.532   4.784   2.117 -1.8915  0.7961 -0.6719
    2CHTO  C117  480   5.653   4.765   2.302  0.1572  0.3826 -0.9085
    2CHTO  H221  481   5.660   4.707   2.394  2.1211  0.5015 -0.9704
    2CHTO   N20  482   5.677   4.898   2.352 -0.3097  0.2028  0.3576
    2CHTO  H209  483   5.761   4.897   2.420  1.2613 -0.7662 -1.5674
    2CHTO  H210  484   5.588   4.945   2.393 -1.6485 -3.1210  1.4995
    2CHTO   O80  485   5.392   4.819   2.263  0.1214 -0.4490 -0.3343
    2CHTO  C103  486   5.291   4.860   2.162 -0.2944 -0.6061 -0.0134
    2CHTO  H190  487   5.321   4.833   2.061 -1.3458 -1.3253 -0.1388
    2CHTO  C101  488   5.148   4.808   2.184  0.3515  0.2858  0.9928
    2CHTO  H188  489   5.122   4.836   2.286  0.1722  1.7195  0.5603
    2CHTO   O68  490   5.159   4.651   2.174 -0.1851  0.1662 -0.0574
    2CHTO  H168  491   5.231   4.619   2.225 -0.7190 -1.1898 -0.1179
    2CHTO   C99  492   5.041   4.878   2.083  0.1881  0.5294  0.1472
    2CHTO  H186  493   5.080   4.872   1.979  2.0219  5.4590  0.4178
    2CHTO   N17  494   4.899   4.826   2.093 -0.0303 -0.3696 -0.1537
    2CHTO  H174  495   4.841   4.866   2.175 -1.4557 -0.1495 -1.2461
    2CHTO  H175  496   4.892   4.719   2.096 -1.3873 -0.3290 -1.3114
    2CHTO   C97  497   5.044   5.034   2.109 -0.4528  0.3105 -0.1320
    2CHTO  H184  498   5.005   5.055   2.209 -1.3585  0.6918 -0.5552
    2CHTO   O64  499   5.179   5.083   2.093  0.2576 -0.0833  0.3390
    2CHTO  C104  500   5.285   5.024   2.176  0.3903  0.1356  0.3947
    2CHTO  H191  501   5.267   5.044   2.282  0.6733  0.2735  0.4188
    2CHTO  C108  502   5.415   5.092   2.137  0.7852 -0.3994 -0.1707
    2CHTO   O71  503   5.392   5.235   2.160  0.4007  0.4054  0.4606
    2CHTO  H171  504   5.473   5.271   2.189  0.7532 -0.8073  1.0270
    2CHTO   O62  505   4.966   5.104   2.012  0.1179 -0.2169  0.1823
    2CHTO   C91  506   4.929   5.238   2.047  0.0162 -0.7131 -0.4286
    2CHTO  H178  507   5.022   5.276   2.091  0.9673 -1.3411 -1.8514
    2CHTO   C92  508   4.817   5.234   2.155  0.1862  0.0267 -0.8153
    2CHTO  H179  509   4.810   5.140   2.212  2.5148  1.0866  1.3273
    2CHTO   O66  510   4.845   5.333   2.255 -0.9826  0.2645  0.3838
    2CHTO  H166  511   4.811   5.297   2.335  3.1784 -0.1777  2.0727
    2CHTO   C93  512   4.673   5.264   2.100 -0.1733 -0.0857  0.0578
    2CHTO  H180  513   4.610   5.270   2.190 -0.2465  2.8796 -0.1424
    2CHTO   N16  514   4.611   5.157   2.023 -0.4173 -0.2466  0.5940
    2CHTO  H172  515   4.515   5.180   1.978  0.3148  1.0320 -0.3517
    2CHTO  H173  516   4.622   5.067   2.081 -0.1307 -0.0368  0.8715
    2CHTO   C94  517   4.681   5.402   2.019  0.8455 -0.1226  0.5193
    2CHTO  H181  518   4.597   5.408   1.949  1.6311  0.2841 -0.3959
    2CHTO   O61  519   4.803   5.438   1.956  0.1492 -0.0693  0.0284
    2CHTO   C95  520   4.889   5.329   1.922  0.2014 -0.1723  0.0405
    2CHTO  H182  521   4.840   5.261   1.853  1.4640 -1.2138  0.1381
    2CHTO  C106  522   5.025   5.367   1.852 -0.4534 -0.6119 -0.4454
    2CHTO   O69  523   5.009   5.455   1.735 -0.1289  0.8562  0.3506
    2CHTO  H169  524   5.058   5.414   1.666  0.9105  2.8179 -0.1042
    2CHTO   O63  525   4.662   5.512   2.128 -0.0319 -1.2980  0.1424
    2CHTO   C96  526   4.574   5.651   2.095 -0.0154  0.0604 -0.2106
    2CHTO  H183  527   4.604   5.724   2.170  3.2668 -0.7691 -0.6606
    2CHTO   C98  528   4.413   5.641   2.108  0.1022 -0.3383 -0.3563
    2CHTO  H185  529   4.382   5.547   2.060  1.7278 -1.4474  0.7391
    2CHTO   O67  530   4.388   5.618   2.248 -0.2913 -0.2044  0.2925
    2CHTO  H167  531   4.446   5.664   2.306 -0.8600  1.3462 -0.3180
    2CHTO  C102  532   4.343   5.777   2.059 -0.1191 -0.7680  0.0295
    2CHTO  H189  533   4.355   5.849   2.142  0.0099 -0.2410 -0.4390
    2CHTO   N18  534   4.197   5.764   2.040  0.3968 -0.3223  0.2871
    2CHTO  H176  535   4.173   5.673   2.092 -2.3829 -0.8407 -1.7599
    2CHTO  H177  536   4.149   5.854   2.075  0.7914 -0.7219  1.9091
    2CHTO  C105  537   4.410   5.844   1.938 -0.1438  0.5661 -0.4214
    2CHTO  H192  538   4.336   5.857   1.859 -0.3932  1.5934 -0.0304
    2CHTO   O65  539   4.511   5.760   1.881 -0.0886  0.3592  1.1003
    2CHTO  C100  540   4.618   5.699   1.953 -0.3408 -0.1485 -0.0392
    2CHTO  H187  541   4.643   5.612   1.890 -3.3896 -0.7250 -0.5466
    2CHTO  C107  542   4.741   5.793   1.961 -0.1241  0.0438  0.1116
    2CHTO   O70  543   4.858   5.721   1.999  0.3077 -0.1607 -0.5520
    2CHTO  H170  544   4.912   5.768   2.059  0.4841 -3.4413  1.9819
    2CHTO   O57  545   4.469   5.972   1.985 -0.3174  0.2554  0.0236
    2CHTO   C85  546   4.436   6.094   1.914  0.3053  0.2134 -0.5470
    2CHTO  H157  547   4.336   6.072   1.870  0.7562 -0.2340 -1.3661
    2CHTO   C83  548   4.529   6.128   1.794  0.4131  0.3961 -0.2968
    2CHTO  H155  549   4.517   6.052   1.716  0.7689  0.0449 -0.0156
    2CHTO   O56  550   4.664   6.122   1.844  0.0255  0.3631 -0.4917
    2CHTO  H135  551   4.684   6.038   1.880 -2.6837 -0.2346 -0.3104
    2CHTO   C81  552   4.503   6.271   1.734 -0.5111 -0.1747 -0.1176
    2CHTO  H153  553   4.406   6.266   1.686 -0.2563  1.0192 -0.7705
    2CHTO   N14  554   4.598   6.290   1.616 -0.0446 -0.6043 -0.8205
    2CHTO  H141  555   4.672   6.360   1.648 -1.0508 -0.3868  1.1230
    2CHTO  H142  556   4.541   6.332   1.535  0.1665 -0.8654 -1.1027
    2CHTO   C79  557   4.498   6.378   1.848  0.4550 -0.2951  0.4421
    2CHTO  H151  558   4.462   6.466   1.795 -0.6944 -1.5416 -0.8719
    2CHTO   O52  559   4.406   6.344   1.954 -0.4097 -0.2344  0.7551
    2CHTO   C86  560   4.433   6.219   2.018  0.0314  0.7132 -0.1239
    2CHTO  H158  561   4.531   6.242   2.065 -0.2875 -0.0912  0.9401
    2CHTO   C90  562   4.339   6.195   2.136 -0.4976  0.4256  0.3676
    2CHTO   O60  563   4.375   6.285   2.242 -0.3815  0.2253  0.4606
    2CHTO  H138  564   4.466   6.277   2.263 -0.7786 -3.8858  1.0942
    2CHTO   O50  565   4.628   6.416   1.897  0.1261 -0.3815  0.5699
    2CHTO   C73  566   4.686   6.532   1.962  1.0765  0.1094 -0.4479
    2CHTO  H145  567   4.603   6.557   2.031 -0.2429  1.3234 -2.4217
    2CHTO   C74  568   4.714   6.650   1.862  0.6215 -0.9901  0.0152
    2CHTO  H146  569   4.624   6.676   1.804 -0.2107  0.8354  2.0643
    2CHTO   O54  570   4.749   6.763   1.947 -0.4928  0.6835  0.2070
    2CHTO  H133  571   4.828   6.751   1.997 -2.6750 -0.8040  3.4588
    2CHTO   C75  572   4.842   6.604   1.771 -0.0158  0.7903  0.0579
    2CHTO  H147  573   4.806   6.519   1.709 -0.4059 -0.5663  2.0959
    2CHTO   N13  574   4.887   6.713   1.687 -0.0211  0.5810 -0.2779
    2CHTO  H139  575   4.905   6.790   1.761  1.2822 -0.3080  0.3481
    2CHTO  H140  576   4.807   6.745   1.621 -0.1418  0.6286 -0.1084
    2CHTO   C76  577   4.963   6.539   1.868  0.4292 -0.1082 -0.1569
    2CHTO  H148  578   5.000   6.621   1.928  1.4114  1.2109 -2.4954
    2CHTO   O49  579   4.908   6.440   1.955  0.3852 -0.2667  0.5671
    2CHTO   C77  580   4.809   6.489   2.043 -0.4072  0.0507  0.0377
    2CHTO  H149  581   4.848   6.575   2.099 -1.5104 -0.3704  1.4847
    2CHTO   C88  582   4.780   6.382   2.150  0.5051  0.3939  0.2120
    2CHTO   O58  583   4.702   6.419   2.259  0.2421  0.1420 -0.1908
    2CHTO  H136  584   4.708   6.346   2.318  0.6164  0.6125  0.3596
    2CHTO   O51  585   5.072   6.464   1.765 -0.1510  0.1413 -0.8023
    2CHTO   C78  586   5.182   6.367   1.847 -0.4709  1.0100 -0.0829
    2CHTO  H150  587   5.170   6.388   1.955  1.8033  1.1111  0.1823
    2CHTO   C80  588   5.328   6.403   1.802  0.0718  0.2481 -0.3529
    2CHTO  H152  589   5.346   6.372   1.696 -2.8695 -0.3524 -0.6969
    2CHTO   O55  590   5.337   6.546   1.806  0.6022  0.3302  0.6042
    2CHTO  H134  591   5.416   6.582   1.768 -0.8040 -0.7271 -3.6450
    2CHTO   C84  592   5.429   6.327   1.895 -0.3763 -0.2761  0.4785
    2CHTO  H156  593   5.424   6.379   1.990 -1.4868  1.6442 -0.5996
    2CHTO   N15  594   5.576   6.340   1.861 -0.3358 -0.0088  0.3276
    2CHTO  H143  595   5.630   6.282   1.933  0.7245  0.5810  0.0067
    2CHTO  H144  596   5.590   6.300   1.763  0.6227 -0.1869  0.5305
    2CHTO   C87  597   5.391   6.177   1.908 -0.4525  0.0535  0.6810
    2CHTO  H159  598   5.416   6.115   1.822  0.6328 -0.5008  1.3898
    2CHTO   O53  599   5.247   6.158   1.929  0.4322  0.2305 -0.6178
    2CHTO   C82  600   5.156   6.219   1.831 -0.0298 -0.2741 -0.3570
    2CHTO  H154  601   5.182   6.197   1.727  0.0875 -0.2161 -0.3398
    2CHTO   C89  602   5.006   6.177   1.848  0.4908  0.5593 -0.5194
    2CHTO   O59  603   4.947   6.052   1.800  0.3859 -0.2766  0.6917
    2CHTO  H137  604   4.933   6.067   1.709 -1.0594 -0.9979  0.7844
    2CHTO   O45  605   5.470   6.101   2.038  0.3353 -0.0489  0.0208
    2CHTO   C67  606   5.403   5.997   2.108  0.8927 -0.2078 -0.0943
    2CHTO  H124  607   5.297   6.022   2.105  0.1568 -3.1610 -0.2709
    2CHTO   C65  608   5.432   5.856   2.057  0.3341  0.7658  0.0032
    2CHTO  H122  609   5.535   5.843   2.025  0.8346 -1.3998  2.4039
    2CHTO   O44  610   5.359   5.833   1.934  0.0838  0.0240 -0.6044
    2CHTO  H102  611   5.274   5.799   1.954  0.1236  0.7851  0.9877
    2CHTO   C63  612   5.411   5.742   2.168  1.0215 -0.2460 -0.9440
    2CHTO  H120  613   5.502   5.733   2.227 -0.0391  1.0492  0.9687
    2CHTO   N11  614   5.396   5.599   2.119 -0.0747 -0.3143  0.5842
    2CHTO  H108  615   5.365   5.600   2.017  1.7265 -0.4211  0.0298
    2CHTO  H109  616   5.489   5.547   2.128  0.0764 -0.0125  0.7833
    2CHTO   C61  617   5.298   5.787   2.267 -0.0239  0.7085  0.0771
    2CHTO  H118  618   5.299   5.714   2.350 -2.5423  0.1790 -0.3238
    2CHTO   O40  619   5.334   5.920   2.330  0.3735  0.2005  0.1972
    2CHTO   C68  620   5.437   5.995   2.260  0.4422  0.0601  0.3657
    2CHTO  H125  621   5.537   5.949   2.266  0.9456  1.1433  0.3503
    2CHTO   C72  622   5.444   6.135   2.335 -0.6126  0.1685  0.0818
    2CHTO   O48  623   5.577   6.180   2.359 -0.0935 -0.3102 -0.1640
    2CHTO  H105  624   5.633   6.116   2.399 -0.0347  0.0007  0.2570
    2CHTO   O38  625   5.164   5.790   2.215  0.1140 -0.2007  0.2412
    2CHTO   C55  626   5.066   5.814   2.316 -0.2029  0.2178 -0.4220
    2CHTO  H112  627   5.108   5.865   2.404 -2.6445  0.1576  0.8239
    2CHTO   C56  628   4.999   5.677   2.353 -0.4825 -0.8401  0.0468
    2CHTO  H113  629   4.942   5.639   2.267 -1.9984 -2.4444  1.7374
    2CHTO   O42  630   5.099   5.576   2.385  0.3706  0.6863 -0.6760
    2CHTO  H100  631   5.055   5.500   2.417 -1.8707  1.0895 -2.6611
    2CHTO   C57  632   4.892   5.698   2.460  0.7159 -0.5511 -0.0607
    2CHTO  H114  633   4.953   5.738   2.541 -0.3258 -1.0712  0.9824
    2CHTO   N10  634   4.811   5.578   2.494  0.7770  0.0982 -0.7304
    2CHTO  H106  635   4.721   5.563   2.435  0.8731 -2.9246 -0.1437
    2CHTO  H107  636   4.789   5.577   2.599  2.3476 -0.5192 -0.4050
    2CHTO   C58  637   4.794   5.811   2.415 -0.7207  0.5881  0.1535
    2CHTO  H115  638   4.721   5.779   2.338  0.2622  1.4287 -1.1622
    2CHTO   O37  639   4.858   5.929   2.363 -0.1300  0.3600  0.0910
    2CHTO   C59  640   4.964   5.905   2.259 -0.2260  0.2578  0.3906
    2CHTO  H116  641   4.916   5.870   2.168 -0.0110 -0.3087  0.4973
    2CHTO   C70  642   5.037   6.035   2.230 -0.2585 -0.8572  0.5525
    2CHTO   O46  643   4.969   6.129   2.155  0.1140  0.0523 -0.4575
    2CHTO  H103  644   4.890   6.153   2.200  0.0817 -2.1266  0.6713
    2CHTO   O39  645   4.705   5.863   2.547  0.1084 -0.5513  0.2515
    2CHTO   C60  646   4.580   5.929   2.519 -0.6111 -0.4695  0.4637
    2CHTO  H117  647   4.571   5.958   2.414  1.5929  0.2253  0.4340
    2CHTO   C62  648   4.465   5.840   2.564 -0.9793 -0.0454 -0.4116
    2CHTO  H119  649   4.478   5.738   2.523  1.1623 -0.0017  0.1012
    2CHTO   O43  650   4.473   5.821   2.710 -0.7681 -0.0826 -0.6915
    2CHTO  H101  651   4.401   5.867   2.749 -0.6174  0.0034 -0.5139
    2CHTO   C66  652   4.325   5.906   2.511 -1.2264  0.4279 -0.4402
    2CHTO  H123  653   4.340   5.929   2.406  1.5547 -0.2266 -0.2182
    2CHTO   N12  654   4.214   5.814   2.517  0.1148 -0.2527 -0.4187
    2CHTO  H110  655   4.188   5.767   2.423  0.3173 -2.9149  0.8260
    2CHTO  H111  656   4.221   5.747   2.601  0.9736  1.8697  1.2444
    2CHTO   C69  657   4.308   6.037   2.589 -0.0108 -0.4975  0.0861
    2CHTO  H126  658   4.306   6.021   2.699 -1.0608  0.4869  0.2335
    2CHTO   O41  659   4.441   6.135   2.560 -0.3556  0.8540 -0.1313
    2CHTO   C64  660   4.575   6.062   2.597 -0.0523 -0.0193 -0.3313
    2CHTO  H121  661   4.586   6.048   2.707  1.5365 -0.6887 -0.5553
    2CHTO   C71  662   4.702   6.153   2.572  0.2768 -0.5311  0.1733
    2CHTO   O47  663   4.726   6.187   2.435 -0.5237 -0.2325  0.2328
    2CHTO  H104  664   4.673   6.261   2.413  0.8526  0.7170  0.0890
    2CHTO   O34  665   4.184   6.112   2.532  0.1586  0.3586  0.3920
    2CHTO   C49  666   4.098   6.220   2.570  0.2548  0.1541 -0.1415
    2CHTO   H91  667   4.092   6.214   2.679 -0.4710  2.9447 -0.0080
    2CHTO   C47  668   3.966   6.181   2.498 -0.0165  0.3401  0.2159
    2CHTO   H89  669   3.891   6.244   2.550 -1.7762 -0.4027 -1.3599
    2CHTO   O33  670   3.930   6.048   2.524 -0.1203  0.3057 -0.0986
    2CHTO   H70  671   3.845   6.042   2.564  0.3410  0.2846  0.8767
    2CHTO   C45  672   3.978   6.208   2.339 -0.3173 -0.5428  0.1097
    2CHTO   H87  673   4.063   6.150   2.302  1.4236  0.3353  2.6154
    2CHTO    N8  674   3.860   6.163   2.259 -0.2203 -0.0161 -0.4490
    2CHTO   H75  675   3.793   6.101   2.316 -1.6915  1.5151 -0.4795
    2CHTO   H76  676   3.887   6.123   2.162  2.6916 -0.5824  0.5475
    2CHTO   C43  677   4.006   6.358   2.315 -0.7187 -0.5564  0.3514
    2CHTO   H85  678   4.013   6.373   2.207 -2.4358  2.5442  0.5989
    2CHTO   O29  679   4.129   6.385   2.379  0.2587 -0.5191  0.5319
    2CHTO   C50  680   4.137   6.359   2.518 -0.0791 -0.0094 -0.4024
    2CHTO   H92  681   4.245   6.370   2.537 -0.0212 -2.6461  1.0810
    2CHTO   C54  682   4.070   6.465   2.614  0.1526  0.2578 -0.2127
    2CHTO   O36  683   4.102   6.602   2.572 -0.1857  0.1532 -0.2550
    2CHTO   H72  684   4.083   6.655   2.647 -1.9765 -0.3040 -0.3621
    2CHTO   O27  685   3.902   6.450   2.355 -0.3988  0.0598  0.2653
    2CHTO   C37  686   3.822   6.557   2.299 -0.4847  0.1780 -0.9901
    2CHTO   H79  687   3.836   6.566   2.190 -1.0462  2.4511 -0.8995
    2CHTO   C38  688   3.673   6.525   2.327  0.0255 -0.5214  0.2851
    2CHTO   H80  689   3.659   6.519   2.436 -1.0833  0.0164  0.1892
    2CHTO   O31  690   3.638   6.399   2.262 -0.8757 -0.1956  0.3952
    2CHTO   H68  691   3.560   6.406   2.209  0.9129  0.5827 -2.2361
    2CHTO   C39  692   3.584   6.651   2.287  0.1234 -0.0942  0.0483
    2CHTO   H81  693   3.590   6.661   2.178  1.2692 -0.8000  0.0384
    2CHTO    N7  694   3.436   6.649   2.317 -0.3176 -0.2747  0.6138
    2CHTO   H73  695   3.400   6.576   2.388 -2.7640  1.3496  1.0750
    2CHTO   H74  696   3.396   6.749   2.326 -2.0206 -0.9630  0.9522
    2CHTO   C40  697   3.641   6.789   2.349  0.0588  0.0561 -0.1254
    2CHTO   H82  698   3.626   6.770   2.455  1.9470 -0.2673  0.1078
    2CHTO   O26  699   3.775   6.799   2.320  0.1078  0.6072  0.1817
    2CHTO   C41  700   3.866   6.693   2.358 -0.5035 -0.4062 -0.5541
    2CHTO   H83  701   3.868   6.677   2.467  0.0476 -0.6180 -0.5942
    2CHTO   C52  702   3.996   6.740   2.306  0.2131 -0.0343  0.0164
    2CHTO   O35  703   4.043   6.857   2.360 -0.2438  0.2187  0.0091
    2CHTO   H71  704   4.069   6.854   2.451  0.2153  2.7758  0.0124
    2CHTO   O28  705   3.583   6.917   2.326  0.0947  0.1458 -0.1763
    2CHTO   C42  706   3.608   7.036   2.408  0.3727  0.2449  0.4144
    2CHTO   H84  707   3.563   7.116   2.348  2.1924  1.4093  0.5678
    2CHTO   C44  708   3.758   7.082   2.427  0.0282 -0.2155  0.1403
    2CHTO   H86  709   3.815   7.005   2.477  0.5686  1.5909  2.3509
    2CHTO   O32  710   3.817   7.105   2.291 -0.2296  0.2385  0.1149
    2CHTO   H69  711   3.754   7.105   2.222 -0.0596  0.6545 -0.0457
    2CHTO   C48  712   3.757   7.214   2.515  0.6476 -0.1423 -0.8330
    2CHTO   H90  713   3.706   7.298   2.467  3.0094  1.0981 -1.2233
    2CHTO    N9  714   3.888   7.261   2.541 -0.3113  0.3902 -0.1524
    2CHTO   H77  715   3.921   7.333   2.468  0.6936  2.0148  1.8516
    2CHTO   H78  716   3.890   7.306   2.639 -1.6493  1.0620 -0.4239
    2CHTO   C51  717   3.681   7.184   2.651 -0.7312 -0.3788  0.1627
    2CHTO   H93  718   3.728   7.092   2.684 -0.2066 -0.3746 -0.5705
    2CHTO   O30  719   3.548   7.159   2.614 -0.4592 -0.2654 -0.4084
    2CHTO   C46  720   3.531   7.029   2.546  0.1390 -0.1363 -0.1258
    2CHTO   H88  721   3.574   6.949   2.606 -1.1192 -1.8345 -1.4180
    2CHTO   C53  722   3.376   6.991   2.530 -0.3928  0.3756  0.1977
    2CHTO   O72  723   3.299   7.032   2.644 -0.0712  0.2316  0.4838
    2CHTO  H199  724   3.213   6.995   2.631  0.0118  0.8344 -1.9250
    2CHTO   O22  725   3.683   7.289   2.755  0.2770  0.7032 -0.6106
    2CHTO   C31  726   3.656   7.255   2.898 -1.1448 -0.2711 -0.7262
    2CHTO   H59  727   3.650   7.352   2.951 -0.8244  0.2060 -1.5713
    2CHTO   C29  728   3.525   7.187   2.919  0.6867  0.3845 -0.5570
    2CHTO   H57  729   3.511   7.089   2.871 -0.8759 -0.1791  1.0126
    2CHTO   O21  730   3.431   7.279   2.859  0.1781 -0.3540 -0.2402
    2CHTO   H37  731   3.426   7.358   2.910  0.2329 -0.4561 -0.0769
    2CHTO   C27  732   3.497   7.161   3.074 -0.1992 -0.3126  0.0820
    2CHTO   H55  733   3.505   7.258   3.124  2.7707 -0.4951  0.0567
    2CHTO    N5  734   3.366   7.096   3.103 -1.3753  0.3399  0.0289
    2CHTO   H43  735   3.378   7.025   3.183 -1.0140 -0.8452 -1.0481
    2CHTO   H44  736   3.308   7.059   3.020 -0.2256 -0.3533 -0.4806
    2CHTO   C25  737   3.609   7.078   3.140 -0.3086  0.6605  1.3297
    2CHTO   H53  738   3.610   6.977   3.096  1.9079  1.6216 -0.9499
    2CHTO   O17  739   3.744   7.127   3.108 -0.5929 -0.2826 -0.4824
    2CHTO   C32  740   3.773   7.167   2.968  0.0253  0.3955 -0.2329
    2CHTO   H60  741   3.780   7.073   2.914  0.6354  0.7387 -0.7615
    2CHTO   C36  742   3.911   7.237   2.960  0.0602  0.5642  0.6238
    2CHTO   O25  743   3.915   7.377   3.012  0.3680  0.6002 -0.0855
    2CHTO   H40  744   3.992   7.377   3.065  0.7654 -2.0413 -0.5566
    2CHTO   O15  745   3.597   7.067   3.299 -0.8929 -0.0714 -0.5231
    2CHTO   C19  746   3.632   6.952   3.388 -0.8446 -0.4375  0.1008
    2CHTO   H47  747   3.568   6.871   3.350  0.3243 -1.4573  0.2567
    2CHTO   C20  748   3.777   6.904   3.382  0.2393  0.6589  0.6092
    2CHTO   H48  749   3.851   6.983   3.402  0.1726  0.9400 -0.2359
    2CHTO   O19  750   3.803   6.864   3.246  0.0986 -0.4397 -0.3241
    2CHTO   H35  751   3.791   6.941   3.194  0.2281 -1.6646 -2.2388
    2CHTO   C21  752   3.807   6.786   3.478  0.4382 -0.0134 -0.0213
    2CHTO   H49  753   3.758   6.699   3.434  0.8928  1.9868 -4.7458
    2CHTO    N4  754   3.947   6.748   3.484 -0.0675  0.3094  0.5424
    2CHTO   H41  755   3.956   6.641   3.497 -0.2137 -0.1977 -3.0185
    2CHTO   H42  756   3.991   6.775   3.389 -2.0997 -0.3332 -0.6168
    2CHTO   C22  757   3.750   6.826   3.617 -0.1273  1.1640 -0.4104
    2CHTO   H50  758   3.814   6.897   3.671 -1.0888 -1.1613  4.0475
    2CHTO   O14  759   3.614   6.871   3.622  0.8200  0.1804  0.3376
    2CHTO   C23  760   3.593   6.982   3.534 -0.1195  0.2884 -0.7266
    2CHTO   H51  761   3.652   7.064   3.578  0.4234 -1.2212  1.4659
    2CHTO   C34  762   3.447   7.032   3.534  0.0354 -0.3343  0.0138
    2CHTO   O23  763   3.426   7.118   3.646 -0.1356  0.3572 -0.5653
    2CHTO   H38  764   3.445   7.071   3.725  2.2429  2.7052  0.2831
    2CHTO   O16  765   3.732   6.708   3.696 -0.7374  0.4806  0.5847
    2CHTO   C24  766   3.727   6.720   3.862  0.3277  0.2834 -0.1400
    2CHTO   H52  767   3.711   6.822   3.896  0.6843 -0.3244  1.8752
    2CHTO   C26  768   3.860   6.670   3.923  0.0208 -0.2602  0.0971
    2CHTO   H54  769   3.888   6.577   3.868  1.9894 -0.6301  1.6654
    2CHTO   O20  770   3.970   6.758   3.883  0.6008  0.1694  0.5926
    2CHTO   H36  771   3.978   6.777   3.791  2.8933 -2.4041  0.2090
    2CHTO   C30  772   3.867   6.642   4.078  0.4819 -0.1724  0.2596
    2CHTO   H58  773   3.884   6.742   4.120  2.7061 -1.3157  2.2121
    2CHTO    N6  774   3.984   6.566   4.121 -0.0004  0.3739 -0.2869
    2CHTO   H45  775   4.079   6.617   4.114 -0.2484  1.2506  2.3640
    2CHTO   H46  776   3.977   6.527   4.221  4.7080  0.9481  0.3891
    2CHTO   C33  777   3.737   6.584   4.134 -0.2133  0.5242 -0.3826
    2CHTO   H61  778   3.726   6.475   4.123  1.6766  0.3157 -0.2956
    2CHTO   O18  779   3.618   6.635   4.067 -0.2277  0.1925 -0.1758
    2CHTO   C28  780   3.615   6.632   3.923 -0.0023  0.0499  0.1366
    2CHTO   H56  781   3.620   6.530   3.884  0.7531  0.2361 -0.2491
    2CHTO   C35  782   3.479   6.689   3.872 -0.4429 -0.4243  0.2069
    2CHTO   O24  783   3.456   6.828   3.913 -0.1426 -0.3224  0.5841
    2CHTO   H39  784   3.516   6.856   3.980 -0.5026  0.1127  0.7307
    2CHTO    O9  785   3.731   6.602   4.276  0.0340 -0.5427  0.1782
    2CHTO   C13  786   3.620   6.730   4.344 -0.2166  0.1303 -0.3926
    2CHTO   H26  787   3.513   6.704   4.335  0.0871 -2.1309  1.7456
    2CHTO   C11  788   3.647   6.872   4.279 -0.1964  0.0569  0.0875
    2CHTO   H24  789   3.624   6.861   4.172 -1.4978 -0.6768  0.4250
    2CHTO    O8  790   3.787   6.898   4.289  0.3728 -0.5281  0.2777
    2CHTO    H3  791   3.799   6.979   4.335 -0.6891 -1.2262  1.8402
    2CHTO    C9  792   3.546   6.972   4.335  0.1151  0.0972 -0.3564
    2CHTO   H22  793   3.446   6.928   4.319  0.0203 -0.6997  2.2119
    2CHTO    N2  794   3.556   7.100   4.266  0.0070  0.3699 -0.1762
    2CHTO   H10  795   3.463   7.148   4.240 -0.2623 -0.2016 -0.2785
    2CHTO   H11  796   3.633   7.166   4.305  0.5901 -0.5741  0.2903
    2CHTO    C7  797   3.566   6.978   4.496  1.0166  0.6774 -0.1124
    2CHTO   H20  798   3.475   7.032   4.528  2.0145  2.9997 -1.0573
    2CHTO    O4  799   3.564   6.845   4.562  0.1324 -0.1303 -0.3772
    2CHTO   C14  800   3.639   6.735   4.498  0.0882 -0.1256 -0.1823
    2CHTO   H27  801   3.592   6.644   4.540  1.1069 -0.5827 -0.0477
    2CHTO   C18  802   3.787   6.735   4.543 -0.1373  0.3665  0.1593
    2CHTO   O13  803   3.799   6.694   4.672 -0.3062 -0.7003 -0.7654
    2CHTO    H7  804   3.890   6.710   4.685  0.0307 -2.8351 -0.2482
    2CHTO    O2  805   3.688   7.056   4.543  0.3117 -0.5339  0.0280
    2CHTO    C1  806   3.700   7.124   4.671 -0.3727 -0.1370 -0.2192
    2CHTO   H14  807   3.718   7.043   4.745  0.9778  0.3582  0.0245
    2CHTO    C2  808   3.575   7.206   4.722  0.3176 -0.1721 -0.1988
    2CHTO   H15  809   3.544   7.266   4.635 -0.9166 -0.4727  0.0276
    2CHTO    O6  810   3.468   7.123   4.775 -0.1803  0.5089  0.0411
    2CHTO    H1  811   3.430   7.084   4.699  1.3429  0.9525 -0.9610
    2CHTO    C3  812   3.609   7.325   4.830  0.3506 -0.3932 -0.1609
    2CHTO   H16  813   3.619   7.272   4.925 -0.2464  0.4357  0.3670
    2CHTO    N1  814   3.485   7.417   4.843 -0.4645 -0.1977  0.4551
    2CHTO    H8  815   3.404   7.354   4.875 -0.8058  0.6107  1.1850
    2CHTO    H9  816   3.508   7.477   4.929 -1.5207 -3.0517  2.8070
    2CHTO    C4  817   3.751   7.394   4.814  0.8142  0.1368 -0.4660
    2CHTO   H17  818   3.747   7.461   4.728 -0.6111  2.1503  1.1254
    2CHTO    O1  819   3.845   7.289   4.787 -0.3594 -0.1649  0.6999
    2CHTO    C5  820   3.827   7.215   4.664  0.1951  0.6562 -0.7693
    2CHTO   H18  821   3.806   7.285   4.583 -1.6274 -0.0876 -0.9661
    2CHTO   C16  822   3.957   7.137   4.627 -0.1908 -0.5479  0.3910
    2CHTO   O11  823   3.999   7.052   4.735  0.0095  0.2344 -0.1446
    2CHTO    H5  824   4.051   6.980   4.706 -0.9747 -0.0870 -1.1751
    2CHTO    O3  825   3.797   7.464   4.928 -0.1756 -0.4483  0.1404
    2CHTO    C6  826   3.865   7.589   4.915  0.3436 -0.8950 -0.3872
    2CHTO   H19  827   3.883   7.621   4.813  1.4578  0.8578  0.3403
    2CHTO    C8  828   3.799   7.705   4.993  0.2807 -0.1679  0.6059
    2CHTO   H21  829   3.773   7.671   5.093 -1.2118 -0.9389 -0.0205
    2CHTO    O7  830   3.679   7.736   4.912  0.2770  0.0220 -0.0854
    2CHTO    H2  831   3.595   7.712   4.947 -1.3245  2.2003 -2.3125
    2CHTO   C12  832   3.887   7.836   5.000 -0.3341  0.5408  0.3653
    2CHTO   H25  833   3.905   7.875   4.898 -1.1002 -1.2055 -0.4586
    2CHTO    N3  834   3.820   7.945   5.078  0.3968  0.2390 -0.1050
    2CHTO   H12  835   3.899   8.018   5.093 -0.3481  0.6742  1.9616
    2CHTO   H13  836   3.785   7.925   5.178 -1.2283  0.3372 -0.6490
    2CHTO   C15  837   4.023   7.787   5.055 -1.0151 -0.1056 -0.6207
    2CHTO   H28  838   4.021   7.770   5.163 -0.3966 -2.8503 -1.0075
    2CHTO   O10  839   4.136   7.901   5.035 -0.1940 -0.1943  0.1150
    2CHTO    H4  840   4.188   7.912   5.112 -1.3796 -1.4956  1.1305
    2CHTO    O5  841   4.081   7.677   4.984 -0.1048  0.1999 -0.0783
    2CHTO   C10  842   4.007   7.559   4.982  0.0004  0.0098  1.1779
    2CHTO   H23  843   3.989   7.529   5.085  0.8271 -0.3608  1.2238
    2CHTO   C17  844   4.101   7.451   4.920  0.5712 -0.1990 -0.2227
    2CHTO   O12  845   4.224   7.445   4.992  0.3354 -0.1864 -0.4126
    2CHTO    H6  846   4.291   7.392   4.952  1.0393  0.1992  0.2374
    3CHTO  H203  847   8.058   1.888   1.310  0.6000 -1.9644  1.1819
    3CHTO   O82  848   7.996   1.892   1.379 -0.0574 -0.7961  0.5399
    3CHTO  C123  849   7.945   1.767   1.434  0.7056  0.1599 -0.5301
    3CHTO  H227  850   8.007   1.725   1.515 -1.2406  0.5004  1.1983
    3CHTO   O77  851   7.817   1.802   1.494  0.4339  0.5337  0.3158
    3CHTO  C118  852   7.757   1.687   1.557 -0.4440  0.3250 -1.0440
    3CHTO  H222  853   7.838   1.633   1.609 -0.7496  0.2523 -0.6448
    3CHTO  C125  854   7.648   1.718   1.661  0.5339  0.1737  0.4484
    3CHTO   O84  855   7.693   1.809   1.765 -0.1274  0.0950 -0.0838
    3CHTO  H205  856   7.629   1.874   1.788  1.5459  0.3545  4.1601
    3CHTO  C114  857   7.715   1.587   1.453  0.0465 -0.1608 -0.0485
    3CHTO  H218  858   7.642   1.638   1.390 -0.3322 -0.8732 -0.1825
    3CHTO  C116  859   7.838   1.537   1.367 -0.5989 -0.4952  0.1857
    3CHTO  H220  860   7.894   1.466   1.432  0.3610 -1.1099 -1.2660
    3CHTO   O79  861   7.793   1.470   1.245 -0.3253  0.0199 -0.1865
    3CHTO  H201  862   7.745   1.389   1.242  1.3386 -1.0418  0.6297
    3CHTO  C120  863   7.919   1.664   1.315 -0.0528 -0.3599 -0.4212
    3CHTO  H224  864   7.855   1.711   1.238 -0.5720 -2.2075 -1.1675
    3CHTO   N21  865   8.051   1.621   1.251 -0.5775 -0.0997 -0.5888
    3CHTO  H211  866   8.040   1.595   1.147  0.9518  1.2249 -1.1038
    3CHTO  H212  867   8.126   1.699   1.263 -0.2120 -0.7000  1.2280
    3CHTO   O75  868   7.657   1.478   1.522 -0.2991  0.1250 -0.1367
    3CHTO  C112  869   7.551   1.375   1.450  0.5514 -0.1279  0.4562
    3CHTO  H216  870   7.591   1.315   1.368  3.7693  0.3940  1.5705
    3CHTO   O73  871   7.446   1.463   1.406 -0.0583  0.4719 -0.1443
    3CHTO  C113  872   7.324   1.398   1.360  0.6684 -0.3974  0.0266
    3CHTO  H217  873   7.344   1.345   1.264  0.4732  0.5893 -0.5614
    3CHTO  C124  874   7.231   1.509   1.319  0.6627 -0.3515  0.3518
    3CHTO   O83  875   7.268   1.559   1.188 -0.1926  0.3639  0.2680
    3CHTO  H204  876   7.221   1.635   1.160  1.4677  1.8198  1.2662
    3CHTO  C109  877   7.257   1.296   1.453  0.5771 -0.2330  0.5168
    3CHTO  H213  878   7.208   1.356   1.531  0.7189  0.1830  0.2886
    3CHTO  C110  879   7.368   1.200   1.518  0.3478  0.0630  0.0928
    3CHTO  H214  880   7.396   1.124   1.444  1.1735  0.7001 -0.2646
    3CHTO   O78  881   7.309   1.140   1.626  0.1081  0.3953 -0.8258
    3CHTO  H200  882   7.355   1.060   1.646 -3.2137 -1.1659  1.2055
    3CHTO  C111  883   7.496   1.276   1.563 -0.0838  0.3855  0.6984
    3CHTO  H215  884   7.469   1.344   1.645  0.2172  0.6599  0.5689
    3CHTO   N19  885   7.601   1.180   1.614 -0.5281 -0.1967  0.0110
    3CHTO  H207  886   7.694   1.234   1.603 -0.5577 -0.3673 -1.1703
    3CHTO  H208  887   7.585   1.142   1.714 -2.1766 -0.2001 -0.2365
    3CHTO   O74  888   7.155   1.221   1.381 -0.3177 -0.0650 -0.3133
    3CHTO  C115  889   7.001   1.255   1.433 -0.4155  0.2094 -0.0774
    3CHTO  H219  890   6.999   1.286   1.537  1.4828  1.7856 -0.4857
    3CHTO   O76  891   6.940   1.375   1.349 -0.3198 -0.9522 -0.2156
    3CHTO  C122  892   6.803   1.397   1.402 -0.6938  0.2490  0.0323
    3CHTO  H226  893   6.763   1.463   1.326 -0.5203 -2.3833 -2.4205
    3CHTO  C126  894   6.824   1.488   1.534  0.0132 -0.0102 -0.0153
    3CHTO   O85  895   6.695   1.515   1.590 -0.2804 -0.5540 -0.1560
    3CHTO  H206  896   6.653   1.442   1.631 -1.0043  0.7591  1.4872
    3CHTO  C121  897   6.711   1.271   1.405  0.8323  0.2086 -0.2210
    3CHTO  H225  898   6.619   1.303   1.459  0.2272 -0.2824 -0.9424
    3CHTO   O81  899   6.667   1.232   1.274 -0.2789 -0.3444 -0.8152
    3CHTO  H202  900   6.606   1.161   1.279 -0.8181  0.1182 -0.7244
    3CHTO  C119  901   6.772   1.155   1.491  1.1417 -0.0994  1.0033
    3CHTO  H223  902   6.785   1.203   1.588 -2.4440  0.0573  1.4431
    3CHTO  C117  903   6.913   1.126   1.423  1.1750  0.3963 -0.2866
    3CHTO  H221  904   6.911   1.097   1.318 -2.1737  1.2023 -0.5309
    3CHTO   N20  905   6.984   1.018   1.494 -0.3562 -0.0884  0.7874
    3CHTO  H209  906   6.914   0.936   1.504 -0.4806 -0.0440  0.2868
    3CHTO  H210  907   7.010   1.057   1.591 -0.0007 -0.2916  0.7763
    3CHTO   O80  908   6.672   1.032   1.527  0.0578  0.2253  0.5761
    3CHTO  C103  909   6.535   1.069   1.637 -0.0291  0.3626  0.5826
    3CHTO  H190  910   6.576   1.103   1.732  2.9769  2.1016 -1.2504
    3CHTO  C101  911   6.426   1.164   1.590  0.3156  0.6275 -0.0016
    3CHTO  H188  912   6.426   1.175   1.481 -0.0177  1.1928  0.0541
    3CHTO   O68  913   6.462   1.324   1.653 -0.7097 -0.0822 -0.1396
    3CHTO  H168  914   6.518   1.378   1.601  0.6455 -0.8303  0.5189
    3CHTO   C99  915   6.277   1.126   1.616  0.4231  0.2313  0.1068
    3CHTO  H186  916   6.258   1.149   1.722 -0.3498  1.0075 -0.1997
    3CHTO   N17  917   6.168   1.203   1.547 -0.0676 -0.2988  0.1210
    3CHTO  H174  918   6.199   1.306   1.556 -0.6135 -0.2251  1.2515
    3CHTO  H175  919   6.069   1.187   1.587  0.0331 -3.1126 -0.6859
    3CHTO   C97  920   6.251   0.979   1.601 -0.1267  0.8081  0.4102
    3CHTO  H184  921   6.283   0.954   1.499  1.1677  0.6949  0.8275
    3CHTO   O64  922   6.339   0.922   1.699 -0.6411  0.3382 -0.0948
    3CHTO  C104  923   6.480   0.918   1.656  0.1090 -0.4174 -0.4749
    3CHTO  H191  924   6.489   0.863   1.563  0.1523 -1.0924 -0.0792
    3CHTO  C108  925   6.555   0.837   1.757 -0.1189  0.3049 -0.0404
    3CHTO   O71  926   6.681   0.778   1.703  0.0981 -0.2743 -0.1564
    3CHTO  H171  927   6.748   0.810   1.761  1.6609 -1.9018 -1.0127
    3CHTO   O62  928   6.120   0.924   1.643 -0.2490  0.5170  0.2866
    3CHTO   C91  929   6.076   0.798   1.575 -0.4378  0.6020  0.3465
    3CHTO  H178  930   6.112   0.803   1.472 -2.1242  1.1092 -0.2249
    3CHTO   C92  931   5.926   0.811   1.556  0.0216  0.4850 -0.4112
    3CHTO  H179  932   5.877   0.844   1.649 -0.5679  0.6865 -0.7929
    3CHTO   O66  933   5.906   0.928   1.470  0.0582 -0.0588  0.4877
    3CHTO  H166  934   5.943   0.901   1.388 -0.2725  0.0963  0.2865
    3CHTO   C93  935   5.871   0.680   1.481  0.0112 -0.2596 -0.1836
    3CHTO  H180  936   5.909   0.682   1.378 -2.4183  1.3471 -1.0683
    3CHTO   N16  937   5.727   0.687   1.463 -0.8248  0.1074 -0.1030
    3CHTO  H172  938   5.709   0.781   1.412  0.5260  0.5631  0.2335
    3CHTO  H173  939   5.682   0.606   1.407 -0.0706  0.1306 -0.7489
    3CHTO   C94  940   5.910   0.548   1.556 -0.1490  0.0888  0.2099
    3CHTO  H181  941   5.839   0.524   1.636 -0.0415 -2.1085 -0.3189
    3CHTO   O61  942   6.042   0.550   1.614 -0.0348 -0.6016  0.3177
    3CHTO   C95  943   6.113   0.668   1.660 -0.8875 -0.4368 -0.5217
    3CHTO  H182  944   6.088   0.679   1.765  0.2976  1.4897 -0.4233
    3CHTO  C106  945   6.261   0.618   1.642  0.0144 -0.7822  0.2650
    3CHTO   O69  946   6.298   0.579   1.510  0.7340  0.1384  0.4050
    3CHTO  H169  947   6.251   0.501   1.487 -1.1010  1.3501 -0.0383
    3CHTO   O63  948   5.910   0.409   1.454 -0.0957 -0.5288 -0.7887
    3CHTO   C96  949   5.834   0.294   1.488  0.2352  0.3070  0.4751
    3CHTO  H183  950   5.842   0.222   1.406  1.1333 -0.4758  1.2436
    3CHTO   C98  951   5.684   0.317   1.498 -0.1520 -0.0187  0.2139
    3CHTO  H185  952   5.659   0.404   1.561  1.7080  1.8996 -1.5977
    3CHTO   O67  953   5.644   0.342   1.363  0.0457 -0.5019 -0.6076
    3CHTO  H167  954   5.715   0.384   1.319  1.6875 -1.4604  1.0183
    3CHTO  C102  955   5.610   0.185   1.548 -0.8329 -0.0077  0.2852
    3CHTO  H189  956   5.614   0.110   1.467 -0.9510 -0.7545  0.9622
    3CHTO   N18  957   5.470   0.213   1.582  0.0635 -0.1864 -0.1873
    3CHTO  H176  958   5.410   0.223   1.492 -0.1824  1.6356  0.1494
    3CHTO  H177  959   5.458   0.303   1.641  1.1696  2.1706 -3.3801
    3CHTO  C105  960   5.686   0.125   1.669 -0.3814 -0.1374  0.2924
    3CHTO  H192  961   5.676   0.196   1.752  1.0608  3.1108 -2.1983
    3CHTO   O65  962   5.826   0.114   1.653  0.3526 -0.2373  0.2686
    3CHTO  C100  963   5.890   0.240   1.621 -0.5493  0.0565  0.2088
    3CHTO  H187  964   5.866   0.307   1.705  0.3540  1.4260 -0.6202
    3CHTO  C107  965   6.042   0.210   1.612  0.6560  0.5022  0.1715
    3CHTO   O70  966   6.102   0.201   1.746  0.3331 -0.0441 -0.1506
    3CHTO  H170  967   6.063   0.133   1.798  0.8102  0.1940  0.5243
    3CHTO   O57  968   5.618  -0.025   1.703  0.9485  0.5190  0.2334
    3CHTO   C85  969   5.620  -0.078   1.832  0.0871  0.4322  0.7292
    3CHTO  H157  970   5.597  -0.185   1.812  0.8780  0.2153  0.9934
    3CHTO   C83  971   5.488  -0.051   1.921 -0.2646 -0.5725  0.4768
    3CHTO  H155  972   5.402  -0.100   1.875 -0.8705 -0.0391  1.0237
    3CHTO   O56  973   5.458   0.092   1.929 -0.3188 -0.1030 -0.7917
    3CHTO  H135  974   5.418   0.121   1.849  1.7741  2.7557 -0.8708
    3CHTO   C81  975   5.519  -0.112   2.061  0.4622 -0.0053  0.0649
    3CHTO  H153  976   5.548  -0.216   2.045  1.1827 -0.0081  1.3224
    3CHTO   N14  977   5.404  -0.109   2.154 -0.3232 -0.0320 -0.7855
    3CHTO  H141  978   5.371  -0.200   2.200  1.2949  0.1184  0.7024
    3CHTO  H142  979   5.319  -0.053   2.121 -0.0461 -1.1889 -3.6691
    3CHTO   C79  980   5.646  -0.047   2.124 -0.0728 -0.2940  0.1642
    3CHTO  H151  981   5.657  -0.096   2.221 -1.6522 -0.0217  0.4889
    3CHTO   O52  982   5.769  -0.077   2.051 -0.2948  0.2075  0.1494
    3CHTO   C86  983   5.757  -0.062   1.906 -0.0262  0.0324  0.4371
    3CHTO  H158  984   5.790   0.043   1.890  1.0766 -0.4449 -0.4597
    3CHTO   C90  985   5.864  -0.148   1.826 -0.0458 -0.3862  0.0643
    3CHTO   O60  986   5.848  -0.285   1.869  0.8763  0.1480  0.1869
    3CHTO  H138  987   5.763  -0.317   1.847  1.1180 -0.2026 -0.2494
    3CHTO   O50  988   5.636   0.093   2.132  0.1589 -0.2483 -0.3528
    3CHTO   C73  989   5.638   0.191   2.236  0.3174  0.0715 -0.2333
    3CHTO  H145  990   5.719   0.166   2.306  0.9216 -1.7579 -1.5568
    3CHTO   C74  991   5.502   0.205   2.320 -0.0414 -0.0286  0.8261
    3CHTO  H146  992   5.473   0.115   2.377 -3.0513 -0.2805 -1.0168
    3CHTO   O54  993   5.527   0.304   2.426  0.2149  0.3470 -0.1829
    3CHTO  H133  994   5.462   0.309   2.493  1.8064 -0.6801  1.4738
    3CHTO   C75  995   5.390   0.250   2.225 -0.1797 -0.0686 -0.1453
    3CHTO  H147  996   5.375   0.176   2.145 -2.0022 -0.7046  0.7480
    3CHTO   N13  997   5.254   0.273   2.285  0.3191  0.1348  0.0348
    3CHTO  H139  998   5.192   0.186   2.264  0.6093  0.0725 -0.5895
    3CHTO  H140  999   5.256   0.308   2.387  1.0282  0.4578 -0.0869
    3CHTO   C76 1000   5.436   0.384   2.150 -0.6045 -0.2132  0.8934
    3CHTO  H148 1001   5.458   0.454   2.231  2.5593 -0.8691  0.6403
    3CHTO   O49 1002   5.558   0.364   2.074 -0.6354 -0.2435 -0.1169
    3CHTO   C77 1003   5.673   0.327   2.161 -0.4980 -0.2743  0.7247
    3CHTO  H149 1004   5.694   0.410   2.228 -2.0435 -0.2285  1.1851
    3CHTO   C88 1005   5.794   0.324   2.071 -0.4926 -0.4586 -0.8116
    3CHTO   O58 1006   5.913   0.277   2.137  0.2540  0.5738 -0.1026
    3CHTO  H136 1007   5.963   0.349   2.172 -0.1987  0.9154 -0.1601
    3CHTO   O51 1008   5.344   0.435   2.036 -0.0839  0.1840  0.5445
    3CHTO   C78 1009   5.379   0.604   2.001  0.1345  0.2298 -0.3933
    3CHTO  H150 1010   5.476   0.636   2.045 -0.1146  0.7583 -0.2265
    3CHTO   C80 1011   5.268   0.691   2.062  0.0446  0.3417  0.2093
    3CHTO  H152 1012   5.170   0.649   2.029  0.5127  0.3250 -1.2264
    3CHTO   O55 1013   5.273   0.672   2.203 -0.3971  0.3315  0.4230
    3CHTO  H134 1014   5.223   0.732   2.256  0.4586 -0.2679  1.9355
    3CHTO   C84 1015   5.289   0.839   2.026 -0.2265 -0.3440 -0.2167
    3CHTO  H156 1016   5.371   0.890   2.077 -2.5169  2.6647  0.6064
    3CHTO   N15 1017   5.171   0.921   2.063  0.0650 -0.1856 -0.5433
    3CHTO  H143 1018   5.092   0.906   1.992 -0.3231  1.3575 -0.4540
    3CHTO  H144 1019   5.185   1.025   2.080  0.2472 -0.2133 -0.5211
    3CHTO   C87 1020   5.323   0.863   1.876  0.0774  0.7037  0.0080
    3CHTO  H159 1021   5.231   0.846   1.820  0.2289  2.8116 -0.9397
    3CHTO   O53 1022   5.431   0.767   1.832 -0.7539 -0.1582 -0.1200
    3CHTO   C82 1023   5.384   0.632   1.850 -0.1643  0.0559 -0.3410
    3CHTO  H154 1024   5.287   0.609   1.806 -0.0957  0.4883 -0.7174
    3CHTO   C89 1025   5.487   0.537   1.786 -0.6913  0.4650  0.0647
    3CHTO   O59 1026   5.473   0.557   1.643  0.0327 -0.4280  0.1440
    3CHTO  H137 1027   5.542   0.513   1.596  0.7857  0.1330  0.7053
    3CHTO   O45 1028   5.363   1.004   1.848 -0.0348 -0.2383 -0.2123
    3CHTO   C67 1029   5.492   1.054   1.841  0.4749 -0.2199 -0.3643
    3CHTO  H124 1030   5.558   0.975   1.875  0.8260  0.5762  0.8674
    3CHTO   C65 1031   5.538   1.092   1.700  0.0000  1.0276 -0.0648
    3CHTO  H122 1032   5.461   1.152   1.652  1.1314  1.7456 -1.0341
    3CHTO   O44 1033   5.557   0.967   1.627 -0.0661  0.4598 -0.2509
    3CHTO  H102 1034   5.482   0.912   1.615 -0.2039  0.9233 -1.5431
    3CHTO   C63 1035   5.661   1.196   1.690  0.1978  0.4356 -0.1850
    3CHTO  H120 1036   5.624   1.298   1.693 -1.8635 -0.3078  0.1585
    3CHTO   N11 1037   5.737   1.192   1.566 -0.6464  0.0429 -0.3025
    3CHTO  H108 1038   5.812   1.268   1.552  0.2588 -0.6379  0.7386
    3CHTO  H109 1039   5.683   1.157   1.481 -2.2600  2.1684 -0.1916
    3CHTO   C61 1040   5.750   1.177   1.822  0.1378 -0.6010  0.4485
    3CHTO  H118 1041   5.829   1.253   1.824 -1.9619  1.6971 -0.4462
    3CHTO   O40 1042   5.672   1.193   1.939  0.0494  0.3113 -0.1473
    3CHTO   C68 1043   5.526   1.174   1.929  0.0930 -0.4118  0.0208
    3CHTO  H125 1044   5.496   1.269   1.881  0.0440 -1.0392 -1.2163
    3CHTO   C72 1045   5.462   1.168   2.065  0.5194 -0.4729  0.2076
    3CHTO   O48 1046   5.468   1.284   2.150  0.0741  0.1692 -0.2254
    3CHTO  H105 1047   5.391   1.338   2.143  0.4178  0.3463 -3.4229
    3CHTO   O38 1048   5.813   1.046   1.823 -0.0461  0.6095  0.0124
    3CHTO   C55 1049   5.892   1.018   1.940 -0.4809 -0.1061 -0.1958
    3CHTO  H112 1050   5.848   1.049   2.036 -1.0666 -3.5221  0.6826
    3CHTO   C56 1051   6.041   1.076   1.918  0.6600 -0.3723  0.4041
    3CHTO  H113 1052   6.079   1.038   1.822 -0.2913 -0.7983  0.1822
    3CHTO   O42 1053   6.038   1.219   1.918  0.3019  0.1967  0.7122
    3CHTO  H100 1054   5.968   1.252   1.865  0.7399 -0.9744 -0.6154
    3CHTO   C57 1055   6.139   1.025   2.022  0.5788  0.1078 -0.3508
    3CHTO  H114 1056   6.111   1.078   2.114  1.9244 -0.1312  0.2043
    3CHTO   N10 1057   6.279   1.063   1.995 -0.2496 -0.4480 -0.1641
    3CHTO  H106 1058   6.299   1.073   1.890 -1.2647  1.7619 -0.1835
    3CHTO  H107 1059   6.304   1.157   2.042 -0.3886 -0.0258 -0.9418
    3CHTO   C58 1060   6.109   0.874   2.046  0.0629 -0.0273 -0.0496
    3CHTO  H115 1061   6.148   0.818   1.959  0.5357  1.6677 -0.9535
    3CHTO   O37 1062   5.972   0.838   2.072 -0.4943  0.3768  0.3529
    3CHTO   C59 1063   5.897   0.867   1.952  0.5771 -0.1076 -0.1091
    3CHTO  H116 1064   5.940   0.826   1.860 -3.0743 -0.3641 -1.8099
    3CHTO   C70 1065   5.759   0.802   1.961  0.9359 -0.0042 -0.0870
    3CHTO   O46 1066   5.758   0.664   1.920  0.0074  0.4336  0.0653
    3CHTO  H103 1067   5.676   0.633   1.954 -0.1823  1.4042  0.5222
    3CHTO   O39 1068   6.198   0.823   2.183  0.2695  0.1242  0.2192
    3CHTO   C60 1069   6.213   0.677   2.168  0.0327 -0.6870 -0.4097
    3CHTO  H117 1070   6.122   0.641   2.121 -0.0975 -0.9692  0.0512
    3CHTO   C62 1071   6.330   0.644   2.074  0.5662 -0.4837 -0.5188
    3CHTO  H119 1072   6.313   0.699   1.978 -1.6128 -1.0479 -0.4865
    3CHTO   O43 1073   6.442   0.712   2.125 -0.7141 -0.3387  0.0929
    3CHTO  H101 1074   6.462   0.788   2.074  0.4397  1.8392  3.6205
    3CHTO   C66 1075   6.340   0.486   2.056  0.1218 -0.4340  0.0320
    3CHTO  H123 1076   6.246   0.450   2.012 -0.3395  0.7347  0.0386
    3CHTO   N12 1077   6.460   0.449   1.974  0.7802 -0.1563 -0.5580
    3CHTO  H110 1078   6.489   0.535   1.915  4.9835 -1.6420 -0.8253
    3CHTO  H111 1079   6.430   0.373   1.904 -0.1907 -0.0835 -0.2275
    3CHTO   C69 1080   6.353   0.406   2.184  0.6320  0.2554 -0.4133
    3CHTO  H126 1081   6.448   0.425   2.239  0.2194  1.8470 -0.2210
    3CHTO   O41 1082   6.227   0.449   2.276  0.6151  0.8450 -0.0065
    3CHTO   C64 1083   6.226   0.596   2.299  0.3237 -0.3172  0.2401
    3CHTO  H121 1084   6.323   0.630   2.341  1.2393  0.5035 -2.4501
    3CHTO   C71 1085   6.112   0.634   2.397  0.3305 -0.6521 -0.3415
    3CHTO   O47 1086   5.988   0.577   2.357  0.1983 -0.0115  0.1460
    3CHTO  H104 1087   5.949   0.528   2.426 -3.1904 -0.3614 -1.9287
    3CHTO   O34 1088   6.334   0.254   2.162 -0.6487 -0.4295 -0.5353
    3CHTO   C49 1089   6.392   0.125   2.074  0.2801  0.4191 -0.0290
    3CHTO   H91 1090   6.468   0.168   2.008  0.9100  0.9293  1.0117
    3CHTO   C47 1091   6.281   0.065   1.990 -0.2343  0.1914  0.2958
    3CHTO   H89 1092   6.283   0.126   1.898 -0.3220  0.0293  0.1869
    3CHTO   O33 1093   6.150   0.082   2.051  0.4360  0.1772 -0.4900
    3CHTO   H70 1094   6.130   0.007   2.104  1.9587  0.3728  0.3969
    3CHTO   C45 1095   6.304  -0.083   1.954 -0.0364 -0.0420 -0.4127
    3CHTO   H87 1096   6.266  -0.149   2.033 -3.8014 -0.6022 -2.5488
    3CHTO    N8 1097   6.233  -0.118   1.831 -0.1368 -0.2125  0.3013
    3CHTO   H75 1098   6.283  -0.082   1.743 -0.5143 -0.1007  0.1338
    3CHTO   H76 1099   6.130  -0.087   1.839  0.6452  2.6693 -0.3343
    3CHTO   C43 1100   6.458  -0.125   1.961  0.2702  0.5056 -0.1313
    3CHTO   H85 1101   6.470  -0.228   1.929  0.9158  0.1601  1.1620
    3CHTO   O29 1102   6.512  -0.104   2.099  0.1245 -0.0917  0.3186
    3CHTO   C50 1103   6.452   0.014   2.166 -1.0077  0.4628 -0.2975
    3CHTO   H92 1104   6.373  -0.017   2.235  0.3257 -0.0658  1.0238
    3CHTO   C54 1105   6.555   0.074   2.261 -0.0520 -0.0893  0.0881
    3CHTO   O36 1106   6.604  -0.024   2.356  0.7122  0.2220 -0.6787
    3CHTO   H72 1107   6.649  -0.091   2.310  1.2965  1.2669 -1.6546
    3CHTO   O27 1108   6.535  -0.046   1.875  0.7438  0.0275 -0.0977
    3CHTO   C37 1109   6.659   0.021   1.845 -0.0227  0.1624 -0.5637
    3CHTO   H79 1110   6.658   0.115   1.902  0.3651 -0.4651  0.4904
    3CHTO   C38 1111   6.785  -0.068   1.892  0.0325 -1.1696 -0.1094
    3CHTO   H80 1112   6.771  -0.172   1.860 -0.7897 -0.9162 -0.5856
    3CHTO   O31 1113   6.768  -0.068   2.033  0.0368 -0.4683  0.3705
    3CHTO   H68 1114   6.815  -0.141   2.068 -0.6625 -0.9284  0.3440
    3CHTO   C39 1115   6.912  -0.000   1.839 -0.1321 -0.0084  0.4528
    3CHTO   H81 1116   6.903   0.091   1.899  0.7106  0.0126  0.5496
    3CHTO    N7 1117   7.038  -0.064   1.882  0.0861  0.2921  0.2213
    3CHTO   H73 1118   7.106   0.015   1.911 -1.1600  1.3683  0.2751
    3CHTO   H74 1119   7.014  -0.110   1.977 -0.3305  2.1659  1.0529
    3CHTO   C40 1120   6.914   0.034   1.683 -1.3069 -0.0014 -0.4553
    3CHTO   H82 1121   6.919  -0.066   1.641 -0.4939 -1.3080  2.5907
    3CHTO   O26 1122   6.799   0.105   1.647  0.3873 -0.3476 -0.0706
    3CHTO   C41 1123   6.667   0.058   1.693 -0.0290  0.6014  0.0506
    3CHTO   H83 1124   6.661  -0.038   1.639 -0.9300 -0.2637  1.6428
    3CHTO   C52 1125   6.560   0.162   1.645 -0.0163 -0.0702 -0.7045
    3CHTO   O35 1126   6.441   0.124   1.671 -0.3744  0.1714  0.8623
    3CHTO   H71 1127   6.389   0.202   1.676 -1.1474 -0.1459 -1.7594
    3CHTO   O28 1128   7.029   0.106   1.634 -0.5319 -0.2530 -0.2929
    3CHTO   C42 1129   7.038   0.242   1.573  0.7448  0.3553 -0.2400
    3CHTO   H84 1130   7.144   0.261   1.561  0.4162  0.2091 -3.7077
    3CHTO   C44 1131   6.982   0.364   1.658  0.2927 -0.2437  0.0167
    3CHTO   H86 1132   6.875   0.357   1.679  0.1065 -0.1247 -0.9020
    3CHTO   O32 1133   7.042   0.344   1.790  0.3515  0.3964 -0.0780
    3CHTO   H69 1134   7.134   0.360   1.778  0.4533 -0.7627 -0.9490
    3CHTO   C48 1135   6.996   0.504   1.596 -0.4532  1.1805 -0.0431
    3CHTO   H90 1136   7.098   0.533   1.571 -0.5078  1.1664 -0.2802
    3CHTO    N9 1137   6.937   0.614   1.672  0.8135  0.0544 -0.3862
    3CHTO   H77 1138   6.993   0.594   1.762 -1.5532 -5.0656  0.1152
    3CHTO   H78 1139   6.831   0.599   1.681  0.9394 -0.6661 -0.0654
    3CHTO   C51 1140   6.936   0.491   1.454  0.2278  0.2226 -0.0839
    3CHTO   H93 1141   6.831   0.467   1.472  0.0636 -1.2229 -2.6215
    3CHTO   O30 1142   6.997   0.385   1.384 -0.0934  0.3082  0.3315
    3CHTO   C46 1143   6.979   0.246   1.432  0.5839 -0.2791 -0.4598
    3CHTO   H88 1144   6.871   0.230   1.438  0.6595 -0.1138  1.8971
    3CHTO   C53 1145   7.046   0.143   1.338 -0.5647  0.3815 -0.1253
    3CHTO   O72 1146   6.995   0.121   1.201 -0.3307 -0.1750 -0.3104
    3CHTO  H199 1147   7.015   0.193   1.145 -1.9305 -0.0733 -0.7630
    3CHTO   O22 1148   6.948   0.611   1.376 -0.0833 -0.5745  0.6042
    3CHTO   C31 1149   6.843   0.643   1.279  0.1444 -0.1546 -0.4947
    3CHTO   H59 1150   6.818   0.550   1.225 -0.0335  1.0851 -2.6114
    3CHTO   C29 1151   6.705   0.700   1.343  0.0232 -0.9160  0.0241
    3CHTO   H57 1152   6.726   0.781   1.415 -3.0155  0.3580 -0.4599
    3CHTO   O21 1153   6.643   0.600   1.422  0.0088  0.2421  0.5915
    3CHTO   H37 1154   6.570   0.636   1.470 -3.4667 -1.0805 -3.4353
    3CHTO   C27 1155   6.613   0.758   1.217  0.2931 -0.6754 -0.1656
    3CHTO   H55 1156   6.571   0.673   1.160  0.2279 -0.1717 -0.8782
    3CHTO    N5 1157   6.494   0.838   1.265  0.8231 -0.0949  0.2095
    3CHTO   H43 1158   6.514   0.944   1.272  0.3935 -0.0368  0.5552
    3CHTO   H44 1159   6.409   0.826   1.199 -1.3961 -1.4340  3.1892
    3CHTO   C25 1160   6.704   0.843   1.118 -0.1951 -0.2912 -0.7785
    3CHTO   H53 1161   6.730   0.940   1.164  0.7127 -1.3360  0.9272
    3CHTO   O17 1162   6.818   0.778   1.068  0.4474 -0.3793 -0.3844
    3CHTO   C32 1163   6.909   0.738   1.178 -0.1051  0.1707 -0.0534
    3CHTO   H60 1164   6.939   0.831   1.226 -2.0233  1.2692 -0.9566
    3CHTO   C36 1165   7.036   0.680   1.112  0.2632 -0.2526 -0.1597
    3CHTO   O25 1166   7.010   0.567   1.032  0.1963  0.2654 -0.4784
    3CHTO   H40 1167   7.032   0.582   0.942  2.2055  1.4075  0.1640
    3CHTO   O15 1168   6.628   0.882   0.982 -0.1790 -0.2160 -0.3423
    3CHTO   C19 1169   6.615   1.000   0.890  1.1925  0.1085  0.0985
    3CHTO   H47 1170   6.549   0.964   0.809 -0.9368  1.9088  0.9824
    3CHTO   C20 1171   6.545   1.129   0.946  0.2420  0.7317  0.3140
    3CHTO   H48 1172   6.617   1.191   1.002  0.0600  0.9881  0.2646
    3CHTO   O19 1173   6.426   1.086   1.017 -0.0755  0.1100 -0.3930
    3CHTO   H35 1174   6.366   1.155   1.037  1.4915  1.7168 -1.1422
    3CHTO   C21 1175   6.509   1.231   0.829  0.0185 -0.1972 -0.1570
    3CHTO   H49 1176   6.447   1.184   0.752 -0.5385  0.6332 -0.2243
    3CHTO    N4 1177   6.445   1.359   0.876 -0.2729  0.2164  0.7353
    3CHTO   H41 1178   6.380   1.350   0.962  0.3993 -1.7628  1.0573
    3CHTO   H42 1179   6.514   1.441   0.887  0.9815 -0.7144 -0.1793
    3CHTO   C22 1180   6.642   1.257   0.751 -0.1467  0.7303  0.1538
    3CHTO   H50 1181   6.699   1.335   0.800  0.8336  0.8338 -1.1246
    3CHTO   O14 1182   6.716   1.136   0.721  0.5733  0.0723 -0.6010
    3CHTO   C23 1183   6.745   1.039   0.823 -0.1983  0.1420  0.4698
    3CHTO   H51 1184   6.815   1.086   0.893  0.5427 -0.0534 -0.1244
    3CHTO   C34 1185   6.815   0.929   0.745 -0.0347  0.3130  0.2059
    3CHTO   O23 1186   6.945   0.967   0.703  0.1653  0.0663 -0.0580
    3CHTO   H38 1187   6.999   0.955   0.778  1.9489 -1.9092 -1.5982
    3CHTO   O16 1188   6.604   1.297   0.621 -0.4973 -0.6468 -0.0402
    3CHTO   C24 1189   6.669   1.429   0.566 -0.2476  0.2884 -1.1470
    3CHTO   H52 1190   6.712   1.495   0.641 -0.3584  0.2667 -1.0642
    3CHTO   C26 1191   6.557   1.496   0.486  0.2579 -0.2319  0.0074
    3CHTO   H54 1192   6.522   1.424   0.409 -0.3889  0.6740 -0.5654
    3CHTO   O20 1193   6.455   1.536   0.579  0.2104 -0.2177  0.1324
    3CHTO   H36 1194   6.389   1.594   0.545 -2.5755 -3.8165 -0.9942
    3CHTO   C30 1195   6.616   1.614   0.406  0.1839  0.3864  0.4144
    3CHTO   H58 1196   6.634   1.699   0.474  0.4895  1.3944 -0.8772
    3CHTO    N6 1197   6.518   1.667   0.297  0.0756  0.1948 -0.2940
    3CHTO   H45 1198   6.559   1.642   0.201 -0.0619 -1.5711  0.0785
    3CHTO   H46 1199   6.522   1.774   0.314 -0.5612 -0.0314  1.3672
    3CHTO   C33 1200   6.748   1.582   0.336 -0.7050 -0.0612 -0.3552
    3CHTO   H61 1201   6.731   1.516   0.249 -0.2141  0.9830 -1.2470
    3CHTO   O18 1202   6.837   1.508   0.427  0.0117  0.4661  0.2403
    3CHTO   C28 1203   6.781   1.383   0.477  0.1053  1.0506 -0.3114
    3CHTO   H56 1204   6.748   1.316   0.398  0.1741 -1.0944  1.4380
    3CHTO   C35 1205   6.897   1.309   0.559  0.4620 -0.0514 -0.1468
    3CHTO   O24 1206   7.011   1.280   0.484  0.7010 -1.2484 -0.2188
    3CHTO   H39 1207   7.081   1.305   0.540  0.7383 -0.9196 -0.4101
    3CHTO    O9 1208   6.805   1.709   0.297  0.4732 -0.3258 -0.2116
    3CHTO   C13 1209   6.890   1.783   0.419  0.4996  0.3458 -0.5786
    3CHTO   H26 1210   6.839   1.765   0.516  0.2888 -0.9168 -0.9174
    3CHTO   C11 1211   6.902   1.933   0.381 -0.6900  0.1944 -0.4645
    3CHTO   H24 1212   6.802   1.974   0.399 -0.3988  0.6907  0.0607
    3CHTO    O8 1213   6.934   1.953   0.245 -0.2112 -0.2722 -0.5928
    3CHTO    H3 1214   6.908   2.037   0.214  2.8535  0.8214 -0.4053
    3CHTO    C9 1215   6.994   2.013   0.480 -0.7413  0.3273  0.5379
    3CHTO   H22 1216   6.957   1.985   0.579 -1.2507  0.4857  0.3945
    3CHTO    N2 1217   6.981   2.157   0.477  0.1810 -0.1334  0.3550
    3CHTO   H10 1218   7.063   2.208   0.524 -0.2223  0.1942  0.7074
    3CHTO   H11 1219   6.888   2.194   0.518  0.1186 -0.1199  0.2035
    3CHTO    C7 1220   7.136   1.954   0.465 -0.1408 -0.6445  0.3718
    3CHTO   H20 1221   7.192   2.001   0.548 -1.1410  2.5207 -0.6542
    3CHTO    O4 1222   7.136   1.814   0.487  0.3353  0.4690 -0.4194
    3CHTO   C14 1223   7.040   1.726   0.424 -0.2960 -0.0048  0.3054
    3CHTO   H27 1224   7.025   1.634   0.484 -1.9732 -0.2863 -0.5283
    3CHTO   C18 1225   7.085   1.678   0.282 -0.0274 -0.0633 -0.1119
    3CHTO   O13 1226   7.199   1.594   0.284 -0.0094 -0.4601  0.4942
    3CHTO    H7 1227   7.271   1.641   0.245 -0.4674 -0.8240 -0.8083
    3CHTO    O2 1228   7.202   1.995   0.299 -0.1784 -0.2382 -0.0739
    3CHTO    C1 1229   7.329   1.937   0.277  0.0872  0.4564 -0.3921
    3CHTO   H14 1230   7.321   1.826   0.287  2.7216  0.2975  0.2045
    3CHTO    C2 1231   7.445   1.991   0.372  0.1065  0.2623  0.3173
    3CHTO   H15 1232   7.444   2.100   0.361  0.8209  0.4329  1.8111
    3CHTO    O6 1233   7.421   1.955   0.512  0.1769  0.3728 -0.1834
    3CHTO    H1 1234   7.367   2.019   0.554 -1.0148 -0.9132  0.3132
    3CHTO    C3 1235   7.579   1.918   0.322 -0.1947  0.1878  0.3519
    3CHTO   H16 1236   7.560   1.812   0.344 -1.2285  0.2569 -0.1541
    3CHTO    N1 1237   7.697   1.978   0.396  0.2345  0.1109  0.5757
    3CHTO    H8 1238   7.673   2.058   0.465  2.3012 -0.0677  1.5274
    3CHTO    H9 1239   7.732   1.900   0.462  3.1905  0.9260  0.0263
    3CHTO    C4 1240   7.599   1.931   0.165  0.1857 -1.0962 -0.0430
    3CHTO   H17 1241   7.612   2.035   0.135  0.3040 -0.6220  1.6434
    3CHTO    O1 1242   7.486   1.886   0.098  0.1609  0.2256  0.2808
    3CHTO    C5 1243   7.370   1.963   0.134  0.1953 -0.8966  0.1988
    3CHTO   H18 1244   7.404   2.066   0.134 -1.1525 -0.4468 -0.8161
    3CHTO   C16 1245   7.264   1.947   0.020 -0.1956  0.3950  1.1225
    3CHTO   O11 1246   7.156   2.043   0.039  0.4816 -0.2218  0.8165
    3CHTO    H5 1247   7.123   2.036   0.126  2.3133 -2.5603  1.4004
    3CHTO    O3 1248   7.713   1.852   0.112  0.5782 -0.2845 -0.6125
    3CHTO    C6 1249   7.797   1.911   0.009 -0.1002 -0.7088 -1.1071
    3CHTO   H19 1250   7.745   1.973  -0.064  0.2735 -1.1021 -1.7125
    3CHTO    C8 1251   7.912   1.985   0.077  0.1591 -0.7771  0.2247
    3CHTO   H21 1252   7.959   1.911   0.142 -0.1723 -2.4784 -1.4134
    3CHTO    O7 1253   7.857   2.098   0.150  0.2800 -0.1353  0.0575
    3CHTO    H2 1254   7.928   2.157   0.167 -0.1791  0.2504  0.6217
    3CHTO   C12 1255   8.027   2.025  -0.021  0.4020 -0.3907 -0.7585
    3CHTO   H25 1256   7.974   2.084  -0.098  0.1685  1.2320  0.6041
    3CHTO    N3 1257   8.134   2.106   0.044  0.1006 -0.4150  0.1911
    3CHTO   H12 1258   8.117   2.119   0.150 -0.3951 -1.1921  0.2122
    3CHTO   H13 1259   8.142   2.200  -0.008  1.0740 -1.2833 -1.2841
    3CHTO   C15 1260   8.080   1.899  -0.094  0.0318  0.1891 -0.6341
    3CHTO   H28 1261   8.135   1.828  -0.032 -2.6885 -3.6346 -2.3835
    3CHTO   O10 1262   8.180   1.949  -0.220  0.0783 -0.5679 -0.2044
    3CHTO    H4 1263   8.152   2.013  -0.282  2.8381  0.4766 -0.4622
    3CHTO    O5 1264   7.968   1.838  -0.160 -0.4047 -0.3380  0.1938
    3CHTO   C10 1265   7.859   1.798  -0.072 -0.8103  0.4743  0.2285
    3CHTO   H23 1266   7.898   1.725  -0.001 -1.9734 -0.5240 -0.1435
    3CHTO   C17 1267   7.750   1.725  -0.154  0.0506 -0.1436 -0.3939
    3CHTO   O12 1268   7.809   1.606  -0.212 -0.2726 -0.8057 -0.0913
    3CHTO    H6 1269   7.763   1.524  -0.212  0.8624 -1.5430  2.7382
    4CHTO  H203 1270   6.781   7.417   2.051  0.8164 -0.3100 -0.6018
    4CHTO   O82 1271   6.741   7.483   1.997  0.1876  0.3909  0.6790
    4CHTO  C123 1272   6.668   7.585   2.067 -0.1777 -0.2217  0.0133
    4CHTO  H227 1273   6.622   7.539   2.156 -0.0005  0.1919  0.3240
    4CHTO   O77 1274   6.775   7.667   2.120  0.4592  0.0202 -0.1142
    4CHTO  C118 1275   6.738   7.785   2.198 -0.0155 -0.5767  1.2439
    4CHTO  H222 1276   6.679   7.746   2.282 -2.4675 -1.5923 -0.8858
    4CHTO  C125 1277   6.877   7.841   2.247  0.2065 -0.3687 -0.6359
    4CHTO   O84 1278   6.962   7.880   2.139  1.3773  0.3851 -0.3098
    4CHTO  H205 1279   7.042   7.832   2.138  1.0270 -0.1588 -2.1758
    4CHTO  C114 1280   6.653   7.881   2.109 -0.9560  0.2855  0.3837
    4CHTO  H218 1281   6.707   7.918   2.022 -0.6935 -0.5292  0.1987
    4CHTO  C116 1282   6.532   7.803   2.052 -0.4424 -0.5638  0.5473
    4CHTO  H220 1283   6.465   7.770   2.134 -0.7633  2.2962  1.4978
    4CHTO   O79 1284   6.445   7.890   1.969 -0.1524  0.1436 -0.5945
    4CHTO  H201 1285   6.393   7.944   2.025  1.0521  0.9551 -0.2380
    4CHTO  C120 1286   6.583   7.674   1.971  0.4001 -0.3521  0.6724
    4CHTO  H224 1287   6.636   7.715   1.883  0.1506 -1.4194  0.0079
    4CHTO   N21 1288   6.465   7.595   1.919  0.3358  0.5058  0.3440
    4CHTO  H211 1289   6.493   7.492   1.928  0.0754  0.4228  0.2029
    4CHTO  H212 1290   6.375   7.621   1.973  0.2083  1.0933 -0.1464
    4CHTO   O75 1291   6.635   7.989   2.204  0.1610 -0.0666 -0.5434
    4CHTO  C112 1292   6.708   8.132   2.161  0.1653  0.3676 -0.0275
    4CHTO  H216 1293   6.755   8.133   2.061  0.6707  0.9081  0.2080
    4CHTO   O73 1294   6.801   8.172   2.260 -0.7095 -0.1920 -0.2640
    4CHTO  C113 1295   6.894   8.271   2.220  0.3174 -0.4341 -0.0073
    4CHTO  H217 1296   6.928   8.256   2.116 -1.6743  1.0115 -0.8986
    4CHTO  C124 1297   7.016   8.293   2.314  0.4575 -0.1621  0.0126
    4CHTO   O83 1298   7.082   8.171   2.328  0.0783 -0.1294  0.1764
    4CHTO  H204 1299   7.129   8.145   2.251  0.2193 -1.9651  0.8569
    4CHTO  C109 1300   6.810   8.397   2.218 -0.1919  0.6935 -0.2598
    4CHTO  H213 1301   6.789   8.423   2.323 -1.9494  0.0085 -0.4238
    4CHTO  C110 1302   6.670   8.396   2.143 -0.4798  0.6953 -0.6592
    4CHTO  H214 1303   6.684   8.434   2.042  1.9796  0.1460 -0.5756
    4CHTO   O78 1304   6.591   8.501   2.199  0.3951 -0.7646  0.2572
    4CHTO  H200 1305   6.608   8.586   2.164 -0.8205  0.0536  1.6057
    4CHTO  C111 1306   6.604   8.256   2.158 -0.0274 -0.5053 -0.2292
    4CHTO  H215 1307   6.555   8.252   2.257 -0.8843 -0.7995 -0.6582
    4CHTO   N19 1308   6.496   8.230   2.056  0.5780 -0.2540 -0.0131
    4CHTO  H207 1309   6.489   8.315   1.990  0.5812 -1.4101 -1.5625
    4CHTO  H208 1310   6.402   8.219   2.107  0.0867 -1.6187 -1.1521
    4CHTO   O74 1311   6.883   8.500   2.158  0.2328  0.0674  0.2967
    4CHTO  C115 1312   6.859   8.662   2.227 -0.1652  0.4173  0.9839
    4CHTO  H219 1313   6.779   8.659   2.301 -0.9718 -0.5990  0.0871
    4CHTO   O76 1314   6.995   8.715   2.315 -0.1987  0.3101  0.2961
    4CHTO  C122 1315   7.113   8.710   2.225 -0.6293  0.3531  0.8669
    4CHTO  H226 1316   7.129   8.606   2.198  1.1998  0.5136  1.3040
    4CHTO  C126 1317   7.244   8.748   2.294 -0.1847  0.7077  0.3925
    4CHTO   O85 1318   7.230   8.871   2.363  0.6260  0.1346  0.1180
    4CHTO  H206 1319   7.260   8.948   2.318 -2.4955  0.1106 -2.1871
    4CHTO  C121 1320   7.097   8.796   2.094  0.1710 -0.6407  0.2625
    4CHTO  H225 1321   7.170   8.879   2.094 -0.4329 -0.1050  0.3657
    4CHTO   O81 1322   7.127   8.716   1.981  0.1747 -0.2210 -0.5653
    4CHTO  H202 1323   7.146   8.764   1.902  5.2794  1.8830  1.7687
    4CHTO  C119 1324   6.954   8.863   2.084 -0.2163 -0.1401  0.5848
    4CHTO  H223 1325   6.952   8.927   2.172  1.1398 -0.3618  0.7825
    4CHTO  C117 1326   6.836   8.758   2.105 -0.0092  0.2463  0.0825
    4CHTO  H221 1327   6.820   8.685   2.025 -1.4671 -0.1915  0.7671
    4CHTO   N20 1328   6.709   8.831   2.122  0.4618 -0.5790  0.2575
    4CHTO  H209 1329   6.681   8.875   2.027  1.5165 -1.3434 -0.4138
    4CHTO  H210 1330   6.716   8.922   2.181  3.3511 -0.3879 -0.3319
    4CHTO   O80 1331   6.941   8.958   1.954  0.6768 -0.4191  0.4530
    4CHTO  C103 1332   6.924   9.119   1.971  0.1915 -1.0045 -0.0322
    4CHTO  H190 1333   6.862   9.140   2.058 -1.4749  1.0591 -1.6557
    4CHTO  C101 1334   7.053   9.202   1.992  0.0731 -0.2229 -0.4757
    4CHTO  H188 1335   7.123   9.185   1.911  1.6284 -2.5598  1.2926
    4CHTO   O68 1336   7.132   9.168   2.129 -0.0911  0.7633  0.4736
    4CHTO  H168 1337   7.124   9.077   2.151 -0.4120  0.1744 -1.9260
    4CHTO   C99 1338   7.006   9.355   1.988 -1.0937  0.7620  0.1565
    4CHTO  H186 1339   6.935   9.374   2.071 -0.3323  0.7073  0.8332
    4CHTO   N17 1340   7.116   9.466   2.008 -0.2670 -0.4251  0.1710
    4CHTO  H174 1341   7.172   9.443   2.097  0.9492 -2.3891 -1.0794
    4CHTO  H175 1342   7.171   9.459   1.915 -0.2563 -1.7723  0.2758
    4CHTO   C97 1343   6.934   9.379   1.851 -0.5040  0.2616  0.2205
    4CHTO  H184 1344   7.000   9.370   1.764  0.1931  3.1049  0.4048
    4CHTO   O64 1345   6.821   9.294   1.841 -0.2556 -0.8097 -0.0744
    4CHTO  C104 1346   6.842   9.153   1.851 -0.2789 -0.2968  0.6592
    4CHTO  H191 1347   6.879   9.101   1.763 -2.7813  0.1893 -0.7512
    4CHTO  C108 1348   6.696   9.108   1.860  0.5158 -0.1712  0.2192
    4CHTO   O71 1349   6.632   9.119   1.731  0.3761 -0.2941 -0.4565
    4CHTO  H171 1350   6.571   9.190   1.740 -2.4080 -2.4296 -2.0037
    4CHTO   O62 1351   6.876   9.511   1.838  0.6842 -0.1943 -0.1766
    4CHTO   C91 1352   6.843   9.558   1.699 -0.3943  0.2452 -0.0474
    4CHTO  H178 1353   6.849   9.469   1.638  2.2894  0.5139 -0.2227
    4CHTO   C92 1354   6.959   9.643   1.651  0.1869  0.1339  0.3592
    4CHTO  H179 1355   6.970   9.728   1.719  0.5148 -1.3420  2.2059
    4CHTO   O66 1356   7.079   9.559   1.657  0.1118  0.0022 -0.1741
    4CHTO  H166 1357   7.158   9.608   1.642  1.9960 -2.5924  0.7353
    4CHTO   C93 1358   6.943   9.682   1.501 -0.0518  0.1625  0.1286
    4CHTO  H180 1359   6.965   9.598   1.434 -0.5853  2.4323 -3.0264
    4CHTO   N16 1360   7.036   9.786   1.454  0.8469 -0.1126  0.1719
    4CHTO  H172 1361   6.987   9.838   1.373  0.6106 -0.0321  0.3639
    4CHTO  H173 1362   7.120   9.726   1.422 -0.6469 -2.9302  1.3239
    4CHTO   C94 1363   6.793   9.726   1.473 -0.2481  0.0323 -0.6346
    4CHTO  H181 1364   6.788   9.822   1.422  1.2070  2.5297  3.6822
    4CHTO   O61 1365   6.718   9.739   1.598  0.1949 -0.0765 -0.2293
    4CHTO   C95 1366   6.708   9.630   1.690  1.1538 -0.4783 -0.3741
    4CHTO  H182 1367   6.683   9.670   1.788  1.2928  1.0189 -0.9285
    4CHTO  C106 1368   6.585   9.534   1.662  0.7906 -0.1869  0.0495
    4CHTO   O69 1369   6.539   9.464   1.776 -0.2190 -0.3217 -0.4497
    4CHTO  H169 1370   6.464   9.410   1.761 -0.5858 -0.4577  1.6190
    4CHTO   O63 1371   6.714   9.615   1.382  0.6067 -0.1675 -0.6914
    4CHTO   C96 1372   6.764   9.560   1.248  0.2855  0.1197  0.2094
    4CHTO  H183 1373   6.873   9.559   1.242  0.2670  1.9821 -0.6317
    4CHTO   C98 1374   6.708   9.624   1.123  0.5578 -0.4448 -0.4721
    4CHTO  H185 1375   6.598   9.616   1.129  0.5752 -0.0856  0.4201
    4CHTO   O67 1376   6.738   9.761   1.143 -0.3780 -0.4358 -0.1025
    4CHTO  H167 1377   6.763   9.807   1.065 -1.4909 -2.5107 -1.7181
    4CHTO  C102 1378   6.778   9.558   0.992 -0.5399 -0.0152  1.3299
    4CHTO  H189 1379   6.881   9.597   0.992 -1.0087  1.2655 -0.0717
    4CHTO   N18 1380   6.717   9.602   0.864  0.5558 -0.2050 -0.1210
    4CHTO  H176 1381   6.660   9.523   0.818  0.1541  0.6304 -1.0544
    4CHTO  H177 1382   6.798   9.623   0.795 -2.0339  1.6352 -2.6919
    4CHTO  C105 1383   6.770   9.403   1.007  0.2354  0.2364  0.0988
    4CHTO  H192 1384   6.687   9.365   0.947  0.7994  0.2365 -0.6859
    4CHTO   O65 1385   6.774   9.336   1.140 -0.1005 -0.5854  0.3559
    4CHTO  C100 1386   6.720   9.410   1.247  0.2134 -0.5711  0.6063
    4CHTO  H187 1387   6.611   9.397   1.247  0.1001  0.2165  2.2968
    4CHTO  C107 1388   6.786   9.350   1.370 -0.3039  0.2501 -0.2530
    4CHTO   O70 1389   6.713   9.236   1.424  0.5189 -0.2261  0.2015
    4CHTO  H170 1390   6.772   9.179   1.469  2.1246  0.2873 -1.1953
    4CHTO   O57 1391   6.912   9.366   0.929  0.0547 -0.1495 -0.2475
    4CHTO   C85 1392   6.916   9.277   0.820  0.6005  0.3492  0.4710
    4CHTO  H157 1393   6.832   9.318   0.761  0.4080 -2.1648 -1.0594
    4CHTO   C83 1394   6.881   9.129   0.870  0.2795 -0.7691 -0.2257
    4CHTO  H155 1395   6.782   9.127   0.914 -0.1889  1.8323 -1.0679
    4CHTO   O56 1396   6.964   9.085   0.982 -0.4650 -0.1559 -0.1155
    4CHTO  H135 1397   6.919   9.047   1.056 -0.1562 -1.6426 -0.6634
    4CHTO   C81 1398   6.899   9.029   0.749  0.0372  0.0352  0.0015
    4CHTO  H153 1399   6.821   9.053   0.677  1.5740 -2.9646 -2.7521
    4CHTO   N14 1400   6.869   8.883   0.770  0.3461  0.1812 -1.2483
    4CHTO  H141 1401   6.954   8.839   0.819  0.1598 -1.5770 -2.4677
    4CHTO  H142 1402   6.848   8.829   0.680 -2.0689 -2.0061  0.5653
    4CHTO   C79 1403   7.036   9.050   0.685  0.7805 -0.1886  0.2089
    4CHTO  H151 1404   7.037   8.993   0.592 -2.9786  1.6727 -1.1076
    4CHTO   O52 1405   7.053   9.191   0.633 -0.1064  0.2639 -0.8196
    4CHTO   C86 1406   7.055   9.286   0.740  1.2534 -0.7571 -0.0172
    4CHTO  H158 1407   7.141   9.255   0.803  0.6405 -1.8506  0.2906
    4CHTO   C90 1408   7.086   9.430   0.684 -0.6196  0.2403  0.1323
    4CHTO   O60 1409   7.166   9.420   0.567  0.1988  0.4420  0.5442
    4CHTO  H138 1410   7.124   9.477   0.506 -2.4838 -2.0047 -0.0051
    4CHTO   O50 1411   7.149   9.021   0.770  0.5993  0.1595 -0.1082
    4CHTO   C73 1412   7.282   8.979   0.791 -0.2464  0.6589 -0.9013
    4CHTO  H145 1413   7.320   9.007   0.890 -2.2707 -0.6869  0.2958
    4CHTO   C74 1414   7.379   9.047   0.693 -0.8602 -0.4573  0.5567
    4CHTO  H146 1415   7.364   9.156   0.689  1.8066 -0.0772 -0.5486
    4CHTO   O54 1416   7.511   9.019   0.754 -0.2032 -0.4173 -0.2884
    4CHTO  H133 1417   7.529   8.928   0.764 -3.6179 -1.1885 -0.2575
    4CHTO   C75 1418   7.364   8.986   0.549  0.3254 -0.4066  0.3957
    4CHTO  H147 1419   7.260   9.002   0.519  0.3236  2.8773  1.8742
    4CHTO   N13 1420   7.455   9.059   0.461 -0.4283 -0.0376  0.0671
    4CHTO  H139 1421   7.402   9.095   0.374  0.7685  0.2214 -0.5836
    4CHTO  H140 1422   7.530   8.984   0.439  0.6088  0.5945  1.4262
    4CHTO   C76 1423   7.385   8.829   0.560 -0.7893  0.5890  0.1271
    4CHTO  H148 1424   7.479   8.807   0.612 -1.7762 -0.1257  1.6456
    4CHTO   O49 1425   7.276   8.784   0.639 -0.3656  0.4005  0.0994
    4CHTO   C77 1426   7.297   8.820   0.773 -0.4532 -0.6690 -0.6610
    4CHTO  H149 1427   7.395   8.788   0.808 -1.3412  0.2072  2.8311
    4CHTO   C88 1428   7.207   8.732   0.856  0.1887  0.3328  0.0186
    4CHTO   O58 1429   7.206   8.786   1.004  0.0551  0.2676  0.2776
    4CHTO  H136 1430   7.155   8.864   1.015 -0.5634  0.3050 -2.5107
    4CHTO   O51 1431   7.368   8.746   0.428 -0.3444 -0.5095 -0.1431
    4CHTO   C78 1432   7.511   8.699   0.365  0.4258 -0.0928  0.3905
    4CHTO  H150 1433   7.599   8.761   0.394  2.1414 -1.6284 -1.3318
    4CHTO   C80 1434   7.487   8.713   0.207 -0.3903 -0.3780 -0.0495
    4CHTO  H152 1435   7.388   8.668   0.186  0.0293 -2.7288  2.6843
    4CHTO   O55 1436   7.499   8.850   0.181  0.2918  0.1317  0.0200
    4CHTO  H134 1437   7.450   8.900   0.244  0.6782 -0.5840  0.8993
    4CHTO   C84 1438   7.604   8.643   0.130 -0.3340  0.9305 -0.2925
    4CHTO  H156 1439   7.692   8.697   0.163  0.2504 -1.5161  2.2642
    4CHTO   N15 1440   7.599   8.644  -0.021  0.0506 -0.0283  0.3122
    4CHTO  H143 1441   7.541   8.725  -0.060 -0.1004 -0.8455 -1.1883
    4CHTO  H144 1442   7.698   8.645  -0.063 -0.2175 -0.1675 -0.3270
    4CHTO   C87 1443   7.633   8.493   0.180  0.1768  1.2476  0.1035
    4CHTO  H159 1444   7.547   8.430   0.156 -0.2433  1.7685  0.2128
    4CHTO   O53 1445   7.656   8.497   0.327  0.0296  0.2562 -0.2181
    4CHTO   C82 1446   7.544   8.552   0.390 -0.6604 -0.1208  0.2567
    4CHTO  H154 1447   7.452   8.500   0.364 -1.5841  1.7068 -0.1641
    4CHTO   C89 1448   7.549   8.556   0.544  0.4985  0.5188 -0.6728
    4CHTO   O59 1449   7.561   8.425   0.602  0.1853  0.3473 -0.0652
    4CHTO  H137 1450   7.645   8.388   0.583 -0.1063  0.8184 -2.4847
    4CHTO   O45 1451   7.762   8.420   0.091 -0.1147  0.1424  0.2813
    4CHTO   C67 1452   7.830   8.304   0.143  0.0903 -0.1308 -0.2291
    4CHTO  H124 1453   7.891   8.259   0.065  0.8355  0.9820 -0.3001
    4CHTO   C65 1454   7.931   8.336   0.261  0.3132 -0.2773  0.0483
    4CHTO  H122 1455   7.927   8.444   0.279 -1.4492 -0.3461  0.1412
    4CHTO   O44 1456   8.062   8.301   0.218  0.1365  0.0980 -0.0259
    4CHTO  H102 1457   8.053   8.217   0.178 -0.4348  0.2920 -0.3087
    4CHTO   C63 1458   7.885   8.279   0.402 -0.6940 -0.3885  0.3325
    4CHTO  H120 1459   7.797   8.335   0.432  0.9609  1.9827  0.8114
    4CHTO   N11 1460   7.972   8.308   0.517  0.4009 -0.3915  0.2349
    4CHTO  H108 1461   7.957   8.408   0.550  2.1020 -0.6386  1.8492
    4CHTO  H109 1462   7.963   8.237   0.597 -0.0545  0.4747  0.9561
    4CHTO   C61 1463   7.857   8.123   0.385  0.4111  0.4300 -0.0079
    4CHTO  H118 1464   7.795   8.097   0.472  1.4240 -1.4351  0.1726
    4CHTO   O40 1465   7.777   8.082   0.266 -0.5103 -0.0478  0.5719
    4CHTO   C68 1466   7.725   8.189   0.186 -0.4637 -0.6125 -0.5117
    4CHTO  H125 1467   7.649   8.227   0.257  0.6237 -3.1595  2.1362
    4CHTO   C72 1468   7.650   8.137   0.060  0.8371 -0.8111  0.1997
    4CHTO   O48 1469   7.586   8.243  -0.014 -0.4432  0.2323  0.3987
    4CHTO  H105 1470   7.627   8.245  -0.099 -1.6853 -1.6393 -0.2653
    4CHTO   O38 1471   7.983   8.047   0.379  0.0656  0.4860  0.6003
    4CHTO   C55 1472   7.979   7.908   0.425  0.5836  0.5052 -0.4170
    4CHTO  H112 1473   7.875   7.878   0.444 -0.0293  1.6301 -1.8741
    4CHTO   C56 1474   8.070   7.893   0.557  0.2808 -0.4293  0.0921
    4CHTO  H113 1475   8.172   7.930   0.539  1.6666 -3.1626  1.9401
    4CHTO   O42 1476   8.018   7.982   0.661  0.1505 -0.6015 -0.2471
    4CHTO  H100 1477   8.021   7.936   0.742 -0.8805  1.1476  0.8063
    4CHTO   C57 1478   8.083   7.742   0.597  0.1239  0.0649  0.7059
    4CHTO  H114 1479   7.980   7.724   0.630 -1.0533  0.3008 -2.5804
    4CHTO   N10 1480   8.189   7.719   0.699 -0.3924  0.1712  0.0318
    4CHTO  H106 1481   8.145   7.709   0.797  1.8062  0.2665  1.0559
    4CHTO  H107 1482   8.236   7.625   0.675 -0.4194  0.6948 -2.1595
    4CHTO   C58 1483   8.107   7.653   0.472 -0.2331  0.3950  0.3113
    4CHTO  H115 1484   8.203   7.682   0.424  0.7368  0.6106  2.3333
    4CHTO   O37 1485   8.010   7.682   0.378  0.2893  0.1918  0.0722
    4CHTO   C59 1486   8.020   7.808   0.317 -0.1244 -0.2295  0.2594
    4CHTO  H116 1487   8.122   7.822   0.282 -0.5194 -0.2136 -0.9108
    4CHTO   C70 1488   7.924   7.820   0.205 -0.0219 -0.2295  1.0795
    4CHTO   O46 1489   7.939   7.718   0.103 -0.6611 -0.0426 -0.2623
    4CHTO  H103 1490   8.025   7.704   0.069  0.6329  0.1358  2.7964
    4CHTO   O39 1491   8.090   7.491   0.488  0.4170 -0.2536 -0.0131
    4CHTO   C60 1492   7.962   7.434   0.475 -1.1331 -0.0859 -0.2277
    4CHTO  H117 1493   7.885   7.505   0.504 -1.2417 -0.5915  0.7345
    4CHTO   C62 1494   7.930   7.393   0.332 -0.4165  0.3888  0.1085
    4CHTO  H119 1495   7.927   7.487   0.274 -3.1700  1.4348  1.8429
    4CHTO   O43 1496   8.035   7.313   0.286 -0.1310 -0.0225 -0.0244
    4CHTO  H101 1497   8.036   7.298   0.194  0.2260  0.7274 -0.1389
    4CHTO   C66 1498   7.780   7.338   0.323  0.5770  0.2146  0.7105
    4CHTO  H123 1499   7.710   7.397   0.382  1.1656 -0.7276  2.3873
    4CHTO   N12 1500   7.742   7.326   0.180 -0.4827 -0.4353  0.3836
    4CHTO  H110 1501   7.642   7.362   0.162  0.6072  3.8507  2.2378
    4CHTO  H111 1502   7.758   7.225   0.146  1.6733 -0.2699  0.8180
    4CHTO   C69 1503   7.773   7.209   0.411  0.2629  0.6742 -0.3797
    4CHTO  H126 1504   7.821   7.116   0.374 -2.2166 -1.2683  1.0996
    4CHTO   O41 1505   7.816   7.216   0.540  0.0688  0.1105 -0.5392
    4CHTO   C64 1506   7.948   7.310   0.567 -0.7987 -0.3670  0.0835
    4CHTO  H121 1507   8.037   7.246   0.556 -2.0120 -1.8774 -1.1956
    4CHTO   C71 1508   7.939   7.353   0.713  0.0431 -0.2032 -0.5682
    4CHTO   O47 1509   8.063   7.407   0.769 -1.1128  0.0954 -0.4824
    4CHTO  H104 1510   8.131   7.345   0.784  0.1869  1.4661 -0.6221
    4CHTO   O34 1511   7.619   7.153   0.411 -0.5357 -0.4037  0.1509
    4CHTO   C49 1512   7.566   7.010   0.335 -0.3559  0.5084 -0.2474
    4CHTO   H91 1513   7.656   6.950   0.324 -1.0838 -0.9345  1.3257
    4CHTO   C47 1514   7.516   7.031   0.190  0.2609  0.1753 -0.1224
    4CHTO   H89 1515   7.604   7.069   0.133  0.3697 -2.2132 -1.6186
    4CHTO   O33 1516   7.418   7.128   0.181 -0.4668  0.0793 -0.0158
    4CHTO   H70 1517   7.433   7.198   0.243  0.4684 -0.4398  0.3439
    4CHTO   C45 1518   7.455   6.893   0.126 -0.3133 -0.0824  0.2431
    4CHTO   H87 1519   7.345   6.894   0.127 -0.3102  1.7251 -0.7018
    4CHTO    N8 1520   7.494   6.877  -0.015 -0.5923  0.4710 -0.9203
    4CHTO   H75 1521   7.414   6.899  -0.084 -1.8729  1.4096  0.8250
    4CHTO   H76 1522   7.542   6.781  -0.026  1.0059  0.8563  2.1838
    4CHTO   C43 1523   7.489   6.768   0.223 -0.5308  0.6436 -0.3083
    4CHTO   H85 1524   7.436   6.686   0.174 -1.6700  1.0504  0.2100
    4CHTO   O29 1525   7.440   6.794   0.356  0.0478  0.0113  0.1792
    4CHTO   C50 1526   7.458   6.924   0.418 -0.2436 -0.2250 -0.6673
    4CHTO   H92 1527   7.360   6.974   0.419 -0.7172 -1.1580  0.1582
    4CHTO   C54 1528   7.500   6.925   0.562 -0.3711 -0.0949  0.1411
    4CHTO   O36 1529   7.629   6.869   0.578 -0.3705  0.3703 -0.6021
    4CHTO   H72 1530   7.667   6.900   0.658 -0.1193  1.5615 -1.1644
    4CHTO   O27 1531   7.627   6.713   0.229  0.1735 -0.3022  0.4589
    4CHTO   C37 1532   7.718   6.601   0.228 -0.1083 -0.2978 -0.3302
    4CHTO   H79 1533   7.690   6.530   0.148  2.2772 -0.8983 -0.6950
    4CHTO   C38 1534   7.864   6.643   0.201  0.4361  0.1667  0.0672
    4CHTO   H80 1535   7.889   6.719   0.276  2.1855  1.0258 -1.3585
    4CHTO   O31 1536   7.865   6.702   0.067  0.1469 -0.4491 -0.1443
    4CHTO   H68 1537   7.866   6.640  -0.003 -0.0443  0.1844 -0.7125
    4CHTO   C39 1538   7.957   6.514   0.200  0.3033  0.9946 -0.1328
    4CHTO   H81 1539   7.923   6.459   0.112  1.6800 -2.3286  1.3364
    4CHTO    N7 1540   8.105   6.552   0.183 -0.4411 -0.4677  0.1590
    4CHTO   H73 1541   8.122   6.553   0.077  1.8280 -1.4172  0.4832
    4CHTO   H74 1542   8.174   6.475   0.214 -1.1777 -1.4020 -0.4670
    4CHTO   C40 1543   7.933   6.412   0.326  0.8915 -0.1253  0.5569
    4CHTO   H82 1544   7.985   6.446   0.415  3.8004 -2.2853 -0.2411
    4CHTO   O26 1545   7.791   6.404   0.341  0.3720 -0.4093 -0.0509
    4CHTO   C41 1546   7.718   6.530   0.362  0.5204  1.0153  0.3947
    4CHTO   H83 1547   7.759   6.588   0.446  1.9025  0.2321  0.2773
    4CHTO   C52 1548   7.575   6.491   0.415 -0.1231 -0.5225  0.3531
    4CHTO   O35 1549   7.513   6.590   0.499  0.1109 -0.0031 -0.1303
    4CHTO   H71 1550   7.421   6.573   0.490 -0.0166 -0.6860  2.1866
    4CHTO   O28 1551   7.965   6.274   0.301 -1.2584  0.0047 -0.3985
    4CHTO   C42 1552   8.068   6.201   0.374  0.1495 -0.2068  0.3038
    4CHTO   H84 1553   8.137   6.278   0.408 -0.0581 -0.3272  0.9963
    4CHTO   C44 1554   8.158   6.105   0.289  0.8508 -0.4059 -0.9899
    4CHTO   H86 1555   8.096   6.027   0.245  1.4215  0.0136 -2.5640
    4CHTO   O32 1556   8.227   6.173   0.179 -0.0864  0.3741  0.7841
    4CHTO   H69 1557   8.297   6.227   0.209  0.8870 -0.8840  0.8572
    4CHTO   C48 1558   8.267   6.034   0.380 -0.3335  0.0195  0.2610
    4CHTO   H90 1559   8.341   6.112   0.399 -0.6224  0.6166 -1.0238
    4CHTO    N9 1560   8.349   5.930   0.304 -0.6807 -0.1908 -0.0350
    4CHTO   H77 1561   8.421   5.872   0.360 -0.8619  1.4924  2.0080
    4CHTO   H78 1562   8.394   5.960   0.211 -0.4207  0.3860  0.2747
    4CHTO   C51 1563   8.206   5.972   0.507  0.0214  0.3750 -0.6848
    4CHTO   H93 1564   8.146   5.884   0.483 -0.8791  0.5675  0.7982
    4CHTO   O30 1565   8.130   6.070   0.576  0.5376 -0.3603  0.5075
    4CHTO   C46 1566   8.016   6.134   0.505 -0.1702 -0.8838 -0.7863
    4CHTO   H88 1567   7.943   6.057   0.479 -3.2992  1.3359  1.0505
    4CHTO   C53 1568   7.953   6.232   0.606  0.0888  0.5434  0.1307
    4CHTO   O72 1569   7.911   6.173   0.735 -0.3718  0.0865 -0.1197
    4CHTO  H199 1570   7.828   6.206   0.762 -0.6515  0.1165 -0.9875
    4CHTO   O22 1571   8.319   5.925   0.592 -0.8396  0.2159  0.0541
    4CHTO   C31 1572   8.296   5.899   0.735 -0.3079  0.0656 -0.1959
    4CHTO   H59 1573   8.199   5.948   0.758 -0.9723 -1.3600  0.1636
    4CHTO   C29 1574   8.279   5.755   0.774 -0.1566 -0.3493  0.4215
    4CHTO   H57 1575   8.374   5.700   0.767 -1.1446 -2.2371  1.6029
    4CHTO   O21 1576   8.190   5.693   0.684  0.4793  0.6036 -0.2157
    4CHTO   H37 1577   8.220   5.605   0.671  0.6425  0.7732 -1.0452
    4CHTO   C27 1578   8.221   5.735   0.917  0.8634 -0.0320 -0.7228
    4CHTO   H55 1579   8.120   5.777   0.915  1.1196  0.5738 -1.0024
    4CHTO    N5 1580   8.217   5.594   0.971  0.5880  0.2760  0.0433
    4CHTO   H43 1581   8.113   5.567   0.981  0.8058 -0.1600  1.1820
    4CHTO   H44 1582   8.269   5.522   0.910 -0.9901 -1.5372  0.7928
    4CHTO   C25 1583   8.306   5.823   1.016 -0.6501 -0.5111  0.3827
    4CHTO   H53 1584   8.397   5.773   1.054 -2.4001 -0.8699  4.3629
    4CHTO   O17 1585   8.345   5.954   0.961 -0.6701  0.3584  0.2518
    4CHTO   C32 1586   8.408   5.947   0.833  0.1452 -0.4276  0.5487
    4CHTO   H60 1587   8.489   5.874   0.828  0.3773 -0.0858 -0.8170
    4CHTO   C36 1588   8.472   6.079   0.791  0.1964  0.1508  0.4936
    4CHTO   O25 1589   8.372   6.174   0.752  0.3879  0.4440 -0.1950
    4CHTO   H40 1590   8.387   6.262   0.781 -3.8975  1.6824 -1.4352
    4CHTO   O15 1591   8.221   5.859   1.125 -0.4079 -0.2998 -0.4238
    4CHTO   C19 1592   8.192   5.938   1.242  0.1117  1.0569 -0.8834
    4CHTO   H47 1593   8.089   5.914   1.274  1.3509  0.4237  2.8230
    4CHTO   C20 1594   8.291   5.905   1.350 -0.2669 -0.1235  0.4751
    4CHTO   H48 1595   8.393   5.926   1.315 -0.9734  2.6068 -0.0164
    4CHTO   O19 1596   8.276   5.763   1.366  0.3646 -0.0620  0.0892
    4CHTO   H35 1597   8.318   5.734   1.444  0.6714  0.6815  0.2081
    4CHTO   C21 1598   8.260   6.005   1.473 -0.0471 -0.0373  0.0740
    4CHTO   H49 1599   8.159   5.982   1.507 -0.5098  1.1089 -0.5117
    4CHTO    N4 1600   8.359   5.991   1.588  0.0879 -0.4207 -0.0843
    4CHTO   H41 1601   8.302   5.928   1.654 -2.1422  0.8062 -0.7855
    4CHTO   H42 1602   8.443   5.931   1.556 -1.9285 -1.7758 -3.0143
    4CHTO   C22 1603   8.264   6.154   1.436  0.1751  0.1697 -0.2872
    4CHTO   H50 1604   8.365   6.180   1.405  0.8481  0.5694  2.1752
    4CHTO   O14 1605   8.172   6.174   1.324  0.0618 -0.4512  0.4442
    4CHTO   C23 1606   8.186   6.087   1.201  0.5872  0.0594  0.2171
    4CHTO   H51 1607   8.279   6.118   1.150 -0.3802 -1.0124 -2.2564
    4CHTO   C34 1608   8.063   6.113   1.119  1.0311 -0.3503 -0.8559
    4CHTO   O23 1609   8.075   6.082   0.982  0.7622 -0.2128  0.6148
    4CHTO   H38 1610   8.163   6.059   0.959  0.5140 -1.1634  0.6098
    4CHTO   O16 1611   8.227   6.244   1.544  0.5912 -0.2659 -0.2814
    4CHTO   C24 1612   8.212   6.402   1.514  0.2787 -0.6385  0.2031
    4CHTO   H52 1613   8.241   6.430   1.412 -0.4562 -1.7488 -0.3216
    4CHTO   C26 1614   8.304   6.483   1.602 -0.0036  0.3344  0.2889
    4CHTO   H54 1615   8.273   6.472   1.709 -0.7450  1.6138  0.2081
    4CHTO   O20 1616   8.441   6.435   1.578 -0.4786 -0.2632 -0.4194
    4CHTO   H36 1617   8.458   6.343   1.591 -1.2493 -0.1902  1.1684
    4CHTO   C30 1618   8.293   6.633   1.583 -0.6663  0.2954 -0.5801
    4CHTO   H58 1619   8.337   6.666   1.487  0.5992 -0.9311 -0.4348
    4CHTO    N6 1620   8.369   6.707   1.695 -0.1080 -0.6052 -0.0358
    4CHTO   H45 1621   8.474   6.690   1.674 -0.0834 -1.4047  0.6855
    4CHTO   H46 1622   8.346   6.811   1.680  0.8941 -0.3071  0.4438
    4CHTO   C33 1623   8.142   6.688   1.580  0.6312  0.0838  0.7486
    4CHTO   H61 1624   8.107   6.686   1.685  2.0044  0.0165  1.2136
    4CHTO   O18 1625   8.054   6.597   1.505  0.8265 -0.1616  0.3765
    4CHTO   C28 1626   8.062   6.458   1.541 -0.3174 -0.1232  0.5426
    4CHTO   H56 1627   8.035   6.432   1.643 -0.3543 -3.0024 -0.1578
    4CHTO   C35 1628   7.950   6.394   1.453  0.8055  0.1092 -0.7455
    4CHTO   O24 1629   7.852   6.335   1.538  0.0547  0.1919  0.3815
    4CHTO   H39 1630   7.823   6.254   1.501  1.3794  1.1867 -3.0255
    4CHTO    O9 1631   8.127   6.827   1.536  0.2065 -0.2299 -0.0077
    4CHTO   C13 1632   7.996   6.889   1.552 -0.2142 -0.9265  0.6174
    4CHTO   H26 1633   7.912   6.817   1.542  0.3573 -1.3579 -1.2395
    4CHTO   C11 1634   7.986   7.012   1.437  0.9120  0.1380  0.9343
    4CHTO   H24 1635   7.969   6.962   1.341  2.3277  1.3431  0.0424
    4CHTO    O8 1636   8.111   7.084   1.425 -0.1079 -0.1349  0.1451
    4CHTO    H3 1637   8.115   7.125   1.341 -0.6882  2.0991  1.1696
    4CHTO    C9 1638   7.857   7.088   1.468 -0.3791  0.1170  0.2699
    4CHTO   H22 1639   7.776   7.013   1.467  0.6005 -0.9588  0.3301
    4CHTO    N2 1640   7.828   7.185   1.363 -0.1721  0.2272  0.6175
    4CHTO   H10 1641   7.806   7.286   1.396 -3.3414 -1.0202  2.5312
    4CHTO   H11 1642   7.758   7.147   1.291 -1.1548  1.0785  1.1104
    4CHTO    C7 1643   7.871   7.151   1.617  0.7752 -0.2098  0.4460
    4CHTO   H20 1644   7.777   7.208   1.630  1.9528  2.0991 -0.8912
    4CHTO    O4 1645   7.884   7.046   1.720  0.0803  0.1996  0.1200
    4CHTO   C14 1646   7.991   6.955   1.704  0.0745 -0.0645 -0.0778
    4CHTO   H27 1647   7.959   6.870   1.767  1.5674  0.6538  1.6949
    4CHTO   C18 1648   8.123   7.014   1.762  0.0814  0.0396  0.0167
    4CHTO   O13 1649   8.113   7.036   1.899  0.0191 -0.6043  0.1728
    4CHTO    H7 1650   8.038   7.089   1.916 -0.0166 -1.0143  1.2946
    4CHTO    O2 1651   8.022   7.273   1.624 -0.6211 -0.2120  0.1298
    4CHTO    C1 1652   7.992   7.410   1.653  0.2626  0.1911 -0.4452
    4CHTO   H14 1653   7.881   7.423   1.658  0.1011 -1.1211 -0.5331
    4CHTO    C2 1654   8.050   7.505   1.545 -0.3875 -0.6077  0.8669
    4CHTO   H15 1655   8.154   7.475   1.529 -0.9371 -2.1979  0.1439
    4CHTO    O6 1656   7.987   7.479   1.418 -0.0660 -0.6312  0.6206
    4CHTO    H1 1657   7.893   7.480   1.424 -0.0745  0.3152  0.3777
    4CHTO    C3 1658   8.031   7.655   1.582  0.1299  0.3467 -0.1168
    4CHTO   H16 1659   7.930   7.694   1.563 -0.0279  0.6747  1.3743
    4CHTO    N1 1660   8.126   7.740   1.497  0.2234  1.2370 -0.0238
    4CHTO    H8 1661   8.116   7.844   1.528 -1.7005  0.4435  2.2051
    4CHTO    H9 1662   8.106   7.731   1.392  2.4803  0.0094 -0.3794
    4CHTO    C4 1663   8.057   7.687   1.735 -0.1846  0.4007  0.3153
    4CHTO   H17 1664   8.164   7.700   1.751 -0.1669 -0.1140  0.6358
    4CHTO    O1 1665   8.002   7.587   1.820  0.0961 -0.3470 -0.1376
    4CHTO    C5 1666   8.043   7.455   1.790 -0.1372 -0.1915  0.0797
    4CHTO   H18 1667   8.151   7.446   1.780 -0.1012  0.7438 -0.4857
    4CHTO   C16 1668   7.987   7.359   1.899  0.2183 -0.0101  0.3367
    4CHTO   O11 1669   8.072   7.376   2.016  0.6334 -0.4721  0.3075
    4CHTO    H5 1670   8.025   7.386   2.097  0.1113 -2.3440  0.2663
    4CHTO    O3 1671   7.981   7.804   1.776 -0.0612  0.8500  0.2371
    4CHTO    C6 1672   8.042   7.901   1.868 -0.4400 -0.2653 -0.1770
    4CHTO   H19 1673   8.147   7.879   1.888 -0.8088 -0.6856  1.3522
    4CHTO    C8 1674   8.023   8.044   1.802 -0.0425  0.6861 -0.0798
    4CHTO   H21 1675   7.916   8.067   1.793  0.0470  0.4184 -2.0712
    4CHTO    O7 1676   8.096   8.039   1.676  0.3785 -0.2274  0.4944
    4CHTO    H2 1677   8.135   8.120   1.651  2.7081 -1.1959  0.8980
    4CHTO   C12 1678   8.092   8.164   1.883 -0.0937  0.2970  0.8319
    4CHTO   H25 1679   8.199   8.135   1.887 -0.0026  0.7351  1.7569
    4CHTO    N3 1680   8.075   8.296   1.816  0.3709  0.0357 -0.3103
    4CHTO   H12 1681   8.146   8.306   1.735  0.1094  0.3453 -0.5034
    4CHTO   H13 1682   7.979   8.325   1.778  1.0465  1.0302 -1.2951
    4CHTO   C15 1683   8.030   8.152   2.025  0.8095  0.3025 -0.9616
    4CHTO   H28 1684   7.926   8.184   2.032  1.8235  3.0413  2.2775
    4CHTO   O10 1685   8.115   8.226   2.142 -0.0030  0.1428  0.2485
    4CHTO    H4 1686   8.138   8.315   2.120  0.2565 -0.0994 -0.4678
    4CHTO    O5 1687   8.030   8.018   2.084 -0.5731 -0.3521  0.2791
    4CHTO   C10 1688   7.971   7.903   2.012  0.2812  0.1912  0.0617
    4CHTO   H23 1689   7.863   7.915   2.002  0.6351  2.8279 -1.2066
    4CHTO   C17 1690   8.001   7.773   2.093 -0.8024 -0.0005  1.0010
    4CHTO   O12 1691   8.137   7.725   2.091  0.0630  0.1613 -0.4182
    4CHTO    H6 1692   8.162   7.679   2.013  0.6027 -0.5483  0.1735
    5CHTO  H203 1693   8.567   3.588   0.678  0.3672  1.3907  0.1689
    5CHTO   O82 1694   8.479   3.596   0.710  0.1557  0.1314 -0.0825
    5CHTO  C123 1695   8.445   3.500   0.808 -0.4750  0.0995  0.0419
    5CHTO  H227 1696   8.503   3.411   0.782  0.9739  1.0076  0.0892
    5CHTO   O77 1697   8.493   3.553   0.938 -0.3913 -0.2441  0.4372
    5CHTO  C118 1698   8.482   3.471   1.053 -0.7292  0.0728  0.0136
    5CHTO  H222 1699   8.540   3.379   1.041  0.4630  0.7535  0.4789
    5CHTO  C125 1700   8.543   3.556   1.179  0.4342  0.1313  0.1560
    5CHTO   O84 1701   8.685   3.541   1.171  0.9442  0.3385  0.5246
    5CHTO  H205 1702   8.717   3.457   1.198 -0.3675 -1.0646 -2.1140
    5CHTO  C114 1703   8.333   3.444   1.076  0.6054  0.4837  0.1485
    5CHTO  H218 1704   8.280   3.539   1.084 -0.2391  0.1506 -1.3772
    5CHTO  C116 1705   8.277   3.365   0.947  0.1954 -0.3141  0.2330
    5CHTO  H220 1706   8.333   3.270   0.930  0.8851 -0.0632  1.0782
    5CHTO   O79 1707   8.148   3.319   0.978  0.2730  0.1876  0.4638
    5CHTO  H201 1708   8.147   3.284   1.064 -0.2434 -0.6093  0.1374
    5CHTO  C120 1709   8.287   3.466   0.823 -0.1960 -0.4815 -0.2500
    5CHTO  H224 1710   8.225   3.555   0.846  0.0680 -0.9867  2.5921
    5CHTO   N21 1711   8.235   3.401   0.695 -0.4214  0.3178 -0.7120
    5CHTO  H211 1712   8.160   3.329   0.726  1.4670 -1.5364 -0.3022
    5CHTO  H212 1713   8.184   3.475   0.636 -0.5386  0.9061  0.1183
    5CHTO   O75 1714   8.332   3.372   1.201  0.6550  0.5387 -0.8764
    5CHTO  C112 1715   8.204   3.397   1.291 -0.2014  0.2918 -0.7404
    5CHTO  H216 1716   8.113   3.370   1.236  1.1324  0.7509 -3.2642
    5CHTO   O73 1717   8.209   3.538   1.321 -0.7931  0.1445  0.2773
    5CHTO  C113 1718   8.093   3.585   1.394  0.6219 -0.1774  0.1189
    5CHTO  H217 1719   8.000   3.549   1.344 -0.2176 -1.0094  2.2212
    5CHTO  C124 1720   8.101   3.739   1.411  0.0648 -0.2430 -0.4010
    5CHTO   O83 1721   8.108   3.807   1.290 -0.4984  0.4450 -0.2846
    5CHTO  H204 1722   8.079   3.896   1.291  1.2404  1.0743 -2.4227
    5CHTO  C109 1723   8.082   3.520   1.529 -0.5503  0.4429  0.7946
    5CHTO  H213 1724   8.157   3.568   1.593 -0.7736  0.9247  0.6990
    5CHTO  C110 1725   8.096   3.362   1.527 -0.2101  0.3891 -0.2814
    5CHTO  H214 1726   8.001   3.315   1.500 -0.3416 -1.2590  2.7955
    5CHTO   O78 1727   8.120   3.315   1.666 -0.3736  0.4475 -0.2303
    5CHTO  H200 1728   8.115   3.222   1.668 -0.7518  0.4218 -1.4184
    5CHTO  C111 1729   8.207   3.312   1.426 -0.5390  0.6393  0.1957
    5CHTO  H215 1730   8.305   3.334   1.471 -0.6385 -0.4198  0.9319
    5CHTO   N19 1731   8.206   3.167   1.405  0.1523 -0.2793 -0.1741
    5CHTO  H207 1732   8.241   3.121   1.496  0.7421 -1.4714 -1.0004
    5CHTO  H208 1733   8.261   3.138   1.317 -1.9048 -0.3642 -1.4563
    5CHTO   O74 1734   7.950   3.561   1.576 -0.0139  0.3847 -0.9814
    5CHTO  C115 1735   7.934   3.561   1.715  0.4584 -0.0840  0.4524
    5CHTO  H219 1736   8.006   3.494   1.763 -1.2780 -1.1612  1.6383
    5CHTO   O76 1737   7.960   3.693   1.775 -0.6749 -0.3399  0.0418
    5CHTO  C122 1738   7.848   3.778   1.771  0.3167 -0.0740 -0.1077
    5CHTO  H226 1739   7.837   3.793   1.663 -0.7871 -2.1543 -0.3122
    5CHTO  C126 1740   7.886   3.917   1.834 -0.5410 -0.1764  0.0863
    5CHTO   O85 1741   7.832   4.033   1.771 -0.0480 -0.0697 -0.3553
    5CHTO  H206 1742   7.850   4.109   1.823 -1.8971  0.3105 -0.2432
    5CHTO  C121 1743   7.706   3.726   1.825 -0.1677 -0.0512  0.4892
    5CHTO  H225 1744   7.688   3.781   1.919  0.4298  0.2417  0.4409
    5CHTO   O81 1745   7.611   3.766   1.730  0.2139 -1.2083  0.0996
    5CHTO  H202 1746   7.526   3.749   1.768 -0.9643  2.2303 -0.8326
    5CHTO  C119 1747   7.703   3.572   1.849  0.7876 -0.1339 -0.1991
    5CHTO  H223 1748   7.749   3.553   1.946 -0.7036 -1.8929  0.1929
    5CHTO  C117 1749   7.788   3.498   1.738  0.5175 -0.4699 -0.3102
    5CHTO  H221 1750   7.745   3.507   1.638  1.3528  1.4745 -0.5129
    5CHTO   N20 1751   7.793   3.347   1.765 -0.3959  0.1499  0.0645
    5CHTO  H209 1752   7.816   3.291   1.675  1.4141 -1.4457  1.4743
    5CHTO  H210 1753   7.698   3.312   1.802 -0.3879  1.1308  1.0390
    5CHTO   O80 1754   7.545   3.509   1.873 -0.3594 -0.2351  0.0698
    5CHTO  C103 1755   7.442   3.507   1.755  0.1968 -0.9114  0.1079
    5CHTO  H190 1756   7.444   3.597   1.693 -0.1308  0.9958  2.7768
    5CHTO  C101 1757   7.445   3.380   1.659 -0.2833 -0.2555 -0.9682
    5CHTO  H188 1758   7.476   3.301   1.727  0.4759  0.6899 -0.2049
    5CHTO   O68 1759   7.543   3.391   1.554  0.1729  0.2346  0.2014
    5CHTO  H168 1760   7.578   3.477   1.536 -0.3916  0.0198 -2.0969
    5CHTO   C99 1761   7.298   3.334   1.597  0.0553  0.4052 -0.5253
    5CHTO  H186 1762   7.280   3.399   1.508  1.1640 -0.1352 -1.1560
    5CHTO   N17 1763   7.289   3.189   1.550  0.3973 -0.5720 -0.2667
    5CHTO  H174 1764   7.373   3.137   1.594 -0.4928 -0.5959  1.4609
    5CHTO  H175 1765   7.203   3.127   1.569  1.0264 -0.8337  1.9142
    5CHTO   C97 1766   7.184   3.372   1.698  0.0927  0.8964 -0.2325
    5CHTO  H184 1767   7.199   3.300   1.779  1.0465 -0.1589 -1.3159
    5CHTO   O64 1768   7.198   3.507   1.738 -0.1733 -0.0614  0.3894
    5CHTO  C104 1769   7.304   3.516   1.833  0.4887  1.2310  0.7416
    5CHTO  H191 1770   7.307   3.438   1.909  0.1045  1.0329  0.5599
    5CHTO  C108 1771   7.283   3.644   1.913  0.1347 -0.3927 -0.6444
    5CHTO   O71 1772   7.160   3.651   1.988  0.0277 -0.5408  0.4553
    5CHTO  H171 1773   7.183   3.679   2.074 -0.2594 -1.7063  0.9206
    5CHTO   O62 1774   7.047   3.378   1.650  0.7591 -0.0448  0.1218
    5CHTO   C91 1775   6.940   3.338   1.737  0.5362 -0.6698  0.4478
    5CHTO  H178 1776   6.975   3.356   1.839 -1.1120 -0.8808  1.0656
    5CHTO   C92 1777   6.917   3.184   1.718 -0.3376 -0.0575 -0.2615
    5CHTO  H179 1778   6.922   3.157   1.611  1.5805 -1.0909  0.0620
    5CHTO   O66 1779   7.028   3.110   1.780  0.6079  0.1730  0.6989
    5CHTO  H166 1780   7.108   3.131   1.735  1.0287  0.1927  1.4600
    5CHTO   C93 1781   6.775   3.136   1.777  0.4074  0.0432  0.7770
    5CHTO  H180 1782   6.782   3.134   1.887 -0.3546  4.6007  0.9878
    5CHTO   N16 1783   6.736   2.995   1.747  0.0676  0.0004  0.0527
    5CHTO  H172 1784   6.660   3.004   1.672  1.0269  1.9217 -0.6978
    5CHTO  H173 1785   6.824   2.938   1.721  0.4221  0.2146  0.7614
    5CHTO   C94 1786   6.658   3.240   1.743 -0.4067 -0.3808  0.5852
    5CHTO  H181 1787   6.633   3.241   1.637 -2.2900 -1.1491  1.0097
    5CHTO   O61 1788   6.696   3.377   1.784 -0.1684  0.2245  0.2036
    5CHTO   C95 1789   6.807   3.420   1.702  0.5256  0.2196 -0.1887
    5CHTO  H182 1790   6.771   3.409   1.599  0.5030 -2.0898  0.0557
    5CHTO  C106 1791   6.827   3.577   1.728 -0.5319  1.2925 -0.2494
    5CHTO   O69 1792   6.925   3.634   1.633  0.2837  0.3146 -0.7602
    5CHTO  H169 1793   6.887   3.635   1.547 -3.3659 -1.3100  0.7389
    5CHTO   O63 1794   6.529   3.209   1.819 -0.4098 -0.0794 -0.6019
    5CHTO   C96 1795   6.400   3.187   1.724 -0.0740  0.1769 -0.6643
    5CHTO  H183 1796   6.441   3.143   1.632 -0.9052  1.3141 -1.5927
    5CHTO   C98 1797   6.317   3.313   1.688  0.3658  0.1357 -0.4534
    5CHTO  H185 1798   6.271   3.353   1.780 -1.2773 -0.4725 -0.9941
    5CHTO   O67 1799   6.397   3.414   1.633  0.1269  0.5509  0.0770
    5CHTO  H167 1800   6.332   3.471   1.596 -0.5538 -0.2182  0.0879
    5CHTO  C102 1801   6.196   3.271   1.590 -0.2461  0.1190 -0.5102
    5CHTO  H189 1802   6.244   3.258   1.492 -2.4001  0.3202 -1.6294
    5CHTO   N18 1803   6.096   3.381   1.572 -0.7717  0.2977 -0.0852
    5CHTO  H176 1804   6.020   3.361   1.497 -0.5016 -0.7740 -0.0828
    5CHTO  H177 1805   6.052   3.440   1.651 -0.0639 -0.4088  0.8520
    5CHTO  C105 1806   6.123   3.145   1.640 -0.3777  0.0661  0.0367
    5CHTO  H192 1807   6.047   3.169   1.716  0.1467 -1.0941  0.9472
    5CHTO   O65 1808   6.204   3.040   1.683 -0.0023 -0.4738  0.0149
    5CHTO  C100 1809   6.299   3.084   1.786  0.5815  0.3619 -0.2552
    5CHTO  H187 1810   6.249   3.141   1.865  1.2541 -0.6094  0.9007
    5CHTO  C107 1811   6.377   2.960   1.858  0.3404 -0.5419 -0.4226
    5CHTO   O70 1812   6.284   2.860   1.886 -0.2848  0.5063 -0.0449
    5CHTO  H170 1813   6.210   2.875   1.942 -0.2456 -0.6228  0.3208
    5CHTO   O57 1814   6.048   3.090   1.504 -0.2657  0.0128 -0.8121
    5CHTO   C85 1815   5.926   3.014   1.497 -0.1020  0.5773  0.0618
    5CHTO  H157 1816   5.861   3.080   1.558 -1.2353  0.6940 -1.2696
    5CHTO   C83 1817   5.938   2.880   1.579  0.7825 -0.2019  0.5551
    5CHTO  H155 1818   5.939   2.908   1.684  3.5193  0.0931  0.5060
    5CHTO   O56 1819   6.061   2.816   1.558 -0.4237  0.7056 -0.1761
    5CHTO  H135 1820   6.069   2.752   1.626 -2.6917  0.3799 -0.1997
    5CHTO   C81 1821   5.814   2.785   1.554  0.7270 -0.2806 -0.0020
    5CHTO  H153 1822   5.725   2.842   1.580  1.6461  1.0984  0.1647
    5CHTO   N14 1823   5.812   2.667   1.645  1.0087 -0.3475  0.6042
    5CHTO  H141 1824   5.830   2.699   1.746 -2.5296  0.5877  1.0162
    5CHTO  H142 1825   5.885   2.596   1.614  1.3945  0.0586  0.5725
    5CHTO   C79 1826   5.801   2.767   1.400  0.4498 -0.7543 -0.3866
    5CHTO  H151 1827   5.716   2.701   1.380  0.0699 -0.0500 -1.1056
    5CHTO   O52 1828   5.766   2.896   1.329 -0.6085 -0.0927 -0.1591
    5CHTO   C86 1829   5.870   2.996   1.347 -0.4247 -0.3744  0.7954
    5CHTO  H158 1830   5.946   2.963   1.274 -2.0273 -0.2953 -0.9346
    5CHTO   C90 1831   5.821   3.125   1.287  0.0547  0.8816  0.1658
    5CHTO   O60 1832   5.906   3.237   1.303 -0.5203 -0.2655  0.3504
    5CHTO  H138 1833   5.972   3.226   1.238 -2.0765  2.4698 -1.7992
    5CHTO   O50 1834   5.918   2.706   1.345  0.2282  0.4743 -0.3340
    5CHTO   C73 1835   5.931   2.617   1.232  0.2531  0.3762  0.5976
    5CHTO  H145 1836   5.858   2.634   1.152  2.4468 -1.1731 -1.8456
    5CHTO   C74 1837   5.911   2.465   1.275  0.2488  0.3313 -0.2398
    5CHTO  H146 1838   5.812   2.470   1.321  0.0490 -0.5359 -0.5690
    5CHTO   O54 1839   5.901   2.376   1.162  0.2009 -0.4440  0.4570
    5CHTO  H133 1840   5.824   2.389   1.111 -0.1868 -0.3652  1.0574
    5CHTO   C75 1841   6.018   2.420   1.381  0.1133  0.2175  0.4987
    5CHTO  H147 1842   5.998   2.476   1.473  1.7178 -0.6208  1.3849
    5CHTO   N13 1843   6.010   2.279   1.424  0.0461 -0.3422  0.2090
    5CHTO  H139 1844   6.014   2.212   1.340 -1.4101  1.2506 -1.1641
    5CHTO  H140 1845   5.925   2.268   1.490  0.5276 -0.4856  0.8107
    5CHTO   C76 1846   6.168   2.458   1.328 -0.6391  0.1728  0.1102
    5CHTO  H148 1847   6.195   2.383   1.253 -2.2629 -0.5375  0.2107
    5CHTO   O49 1848   6.179   2.592   1.260  0.1740  0.0879 -0.2414
    5CHTO   C77 1849   6.074   2.634   1.168  0.4375  0.0170  0.0496
    5CHTO  H149 1850   6.074   2.581   1.073  0.3672 -0.7021  0.4460
    5CHTO   C88 1851   6.103   2.779   1.128  0.3456  0.2674  0.2764
    5CHTO   O58 1852   6.018   2.816   1.053 -0.0372 -0.2026 -0.3310
    5CHTO  H136 1853   6.029   2.909   1.046  0.2979 -0.3106 -1.4056
    5CHTO   O51 1854   6.271   2.459   1.447  0.6762 -0.3441 -0.5627
    5CHTO   C78 1855   6.412   2.481   1.402  0.3419  0.4181  0.5796
    5CHTO  H150 1856   6.414   2.530   1.302  0.9539  0.8964  0.8308
    5CHTO   C80 1857   6.487   2.350   1.401 -0.3216 -0.0697  0.7938
    5CHTO  H152 1858   6.484   2.303   1.501 -2.2341  1.0485  1.2883
    5CHTO   O55 1859   6.404   2.257   1.319 -0.5787  0.6246 -0.5006
    5CHTO  H134 1860   6.435   2.169   1.316 -1.7359  0.1140  1.7219
    5CHTO   C84 1861   6.640   2.362   1.337  0.1349  0.4823  0.5016
    5CHTO  H156 1862   6.628   2.375   1.230 -1.4557 -0.4039  0.5501
    5CHTO   N15 1863   6.712   2.235   1.342  0.1643 -0.1231  0.6052
    5CHTO  H143 1864   6.805   2.244   1.289  0.5822  0.0885  1.3658
    5CHTO  H144 1865   6.736   2.198   1.439 -0.2395 -0.8642  0.4251
    5CHTO   C87 1866   6.704   2.468   1.435 -0.1479  0.2799 -0.3187
    5CHTO  H159 1867   6.724   2.427   1.534 -0.8436  2.7190  0.8758
    5CHTO   O53 1868   6.616   2.598   1.442  0.4831  0.2604 -0.1478
    5CHTO   C82 1869   6.482   2.581   1.495  0.0473 -0.0002 -0.0437
    5CHTO  H154 1870   6.483   2.546   1.599  0.6071 -0.3217 -0.1591
    5CHTO   C89 1871   6.409   2.718   1.499  0.5220  0.2306  0.4990
    5CHTO   O59 1872   6.494   2.819   1.563  0.3276 -0.1261 -0.7469
    5CHTO  H137 1873   6.494   2.897   1.510 -1.5708 -0.2037 -0.8737
    5CHTO   O45 1874   6.847   2.509   1.363  0.2556 -0.4273  0.1347
    5CHTO   C67 1875   6.951   2.548   1.461  0.3771  0.1535 -0.2206
    5CHTO  H124 1876   6.905   2.568   1.558 -1.0834 -3.3755 -0.0939
    5CHTO   C65 1877   7.057   2.435   1.475 -0.3847  0.1612 -0.3338
    5CHTO  H122 1878   7.054   2.373   1.385 -3.3118 -1.2761  0.6857
    5CHTO   O44 1879   7.014   2.357   1.589 -0.4529 -0.4082  0.1751
    5CHTO  H102 1880   6.927   2.360   1.625 -0.8837  0.0990 -0.9057
    5CHTO   C63 1881   7.208   2.485   1.467  0.0866 -0.4624 -0.9125
    5CHTO  H120 1882   7.225   2.503   1.361 -1.3689  0.2797 -1.0364
    5CHTO   N11 1883   7.306   2.381   1.503 -0.2912  0.6049  0.1341
    5CHTO  H108 1884   7.272   2.357   1.602 -1.7141 -0.7362 -0.6593
    5CHTO  H109 1885   7.405   2.418   1.517 -0.6497  1.6072  0.0391
    5CHTO   C61 1886   7.220   2.613   1.551 -0.3968 -0.0793 -0.1618
    5CHTO  H118 1887   7.323   2.651   1.539  0.7331 -2.2799  1.9962
    5CHTO   O40 1888   7.137   2.710   1.492  0.3709  0.4499 -0.2397
    5CHTO   C68 1889   7.013   2.684   1.419  0.3724 -0.2196  0.3121
    5CHTO  H125 1890   7.043   2.691   1.312 -0.5116 -3.1846 -0.2083
    5CHTO   C72 1891   6.915   2.798   1.450  0.2602  0.0637 -0.6485
    5CHTO   O48 1892   6.964   2.923   1.398  0.3670  0.0042  0.2915
    5CHTO  H105 1893   7.051   2.937   1.431  0.0388  1.3612  0.6089
    5CHTO   O38 1894   7.192   2.594   1.692 -0.5233 -0.1238 -0.3084
    5CHTO   C55 1895   7.169   2.700   1.786  0.2082  0.0594 -0.2131
    5CHTO  H112 1896   7.095   2.761   1.732 -0.5460  0.8760  1.6844
    5CHTO   C56 1897   7.296   2.780   1.824  0.6724  0.3193  0.2308
    5CHTO  H113 1898   7.364   2.703   1.864 -0.1547 -0.3050  0.4625
    5CHTO   O42 1899   7.354   2.828   1.706 -0.4385 -0.0932 -0.7345
    5CHTO  H100 1900   7.427   2.883   1.725  1.8370 -2.9710 -0.7941
    5CHTO   C57 1901   7.266   2.888   1.937  0.3840  0.0610 -0.7297
    5CHTO  H114 1902   7.206   2.967   1.892 -1.7455 -1.0207  0.1514
    5CHTO   N10 1903   7.383   2.945   2.003 -0.2730  0.2827  0.4552
    5CHTO  H106 1904   7.462   2.964   1.932  0.4383 -2.5361  0.3962
    5CHTO  H107 1905   7.358   3.036   2.055 -1.3410  1.2781 -1.7479
    5CHTO   C58 1906   7.179   2.825   2.053  0.6268 -0.0714 -0.6258
    5CHTO  H115 1907   7.244   2.755   2.109 -1.5645 -1.2888  0.4555
    5CHTO   O37 1908   7.061   2.764   2.001 -0.1461 -0.1938  0.3149
    5CHTO   C59 1909   7.097   2.654   1.915  0.0872 -0.4532 -0.3036
    5CHTO  H116 1910   7.167   2.585   1.962  1.9197  0.6153 -1.4064
    5CHTO   C70 1911   6.968   2.587   1.874  0.0728  0.5911  0.6237
    5CHTO   O46 1912   6.887   2.542   1.976 -0.0838  0.0640 -0.6101
    5CHTO  H103 1913   6.799   2.525   1.947 -0.4015 -2.0612  1.4349
    5CHTO   O39 1914   7.135   2.957   2.159 -0.1367  0.4336 -0.1122
    5CHTO   C60 1915   7.005   3.023   2.136  0.2584  0.1218  0.5060
    5CHTO  H117 1916   6.976   2.991   2.036 -0.9002  0.7825  0.6201
    5CHTO   C62 1917   6.900   2.962   2.231 -0.0143  0.4564 -0.0751
    5CHTO  H119 1918   6.906   2.852   2.212 -0.1563  0.5560 -0.6998
    5CHTO   O43 1919   6.934   2.986   2.371 -0.2184  0.5355  0.1757
    5CHTO  H101 1920   6.887   2.925   2.424  0.3642  0.0130  0.0942
    5CHTO   C66 1921   6.756   3.025   2.193  0.4604 -0.6569  0.1041
    5CHTO  H123 1922   6.739   2.993   2.090 -0.8337 -0.4985  0.2587
    5CHTO   N12 1923   6.656   2.963   2.275 -0.0065 -0.2157 -0.0973
    5CHTO  H110 1924   6.561   3.010   2.256 -0.9836 -2.3202 -0.5263
    5CHTO  H111 1925   6.683   2.973   2.379  0.0392  1.9778 -0.2999
    5CHTO   C69 1926   6.768   3.179   2.210 -0.3487  0.7034  0.0262
    5CHTO  H126 1927   6.799   3.213   2.311  0.5156  1.7852 -0.6050
    5CHTO   O41 1928   6.875   3.223   2.109 -0.7074  0.3372 -0.2655
    5CHTO   C64 1929   7.010   3.176   2.139  0.2659 -0.2815  0.1010
    5CHTO  H121 1930   7.041   3.204   2.242 -2.1201  0.6725  0.6092
    5CHTO   C71 1931   7.120   3.234   2.051  0.4984  0.0574  0.6225
    5CHTO   O47 1932   7.122   3.374   2.057 -0.4551  0.6040  0.6563
    5CHTO  H104 1933   7.047   3.410   2.013 -0.1432  1.3624  0.7407
    5CHTO   O34 1934   6.645   3.256   2.180  0.0153  0.0343 -0.4007
    5CHTO   C49 1935   6.577   3.386   2.161 -0.4630  1.1013 -0.4006
    5CHTO   H91 1936   6.612   3.424   2.065  0.4114  0.8404 -0.1847
    5CHTO   C47 1937   6.629   3.477   2.276  0.3397  0.1289  0.7974
    5CHTO   H89 1938   6.585   3.576   2.251  2.2615  1.3215  1.9783
    5CHTO   O33 1939   6.769   3.486   2.254 -0.4970  0.0980  0.3702
    5CHTO   H70 1940   6.792   3.546   2.186  2.3014 -0.0225  1.1727
    5CHTO   C45 1941   6.582   3.422   2.415  0.2607  0.1353  0.4950
    5CHTO   H87 1942   6.611   3.318   2.432 -0.5332 -0.3956 -1.3066
    5CHTO    N8 1943   6.636   3.502   2.525  0.2049 -0.5080  0.2819
    5CHTO   H75 1944   6.743   3.518   2.526  0.0311  0.9435  4.1922
    5CHTO   H76 1945   6.591   3.601   2.528  0.1293 -0.5761  1.6255
    5CHTO   C43 1946   6.417   3.431   2.413 -0.3369 -0.7467 -0.1531
    5CHTO   H85 1947   6.385   3.394   2.510 -1.7679 -0.3821 -0.4852
    5CHTO   O29 1948   6.365   3.353   2.301  0.2917  0.0533  0.5110
    5CHTO   C50 1949   6.424   3.371   2.168  0.6019 -0.1923  0.4104
    5CHTO   H92 1950   6.409   3.279   2.111 -0.5929 -0.2078  0.7325
    5CHTO   C54 1951   6.355   3.476   2.079 -0.1525 -0.4673  0.1575
    5CHTO   O36 1952   6.401   3.612   2.100  0.2879  0.9026  0.3703
    5CHTO   H72 1953   6.491   3.634   2.086  0.0611  0.7629 -1.4547
    5CHTO   O27 1954   6.382   3.574   2.404 -0.7259 -0.0402 -0.8140
    5CHTO   C37 1955   6.273   3.660   2.416  0.4542  0.7689  0.3454
    5CHTO   H79 1956   6.260   3.708   2.318 -1.6369  0.5894  0.5022
    5CHTO   C38 1957   6.147   3.572   2.448  0.0360 -0.1502 -0.4708
    5CHTO   H80 1958   6.167   3.512   2.538  1.4940  0.8984 -0.0853
    5CHTO   O31 1959   6.099   3.487   2.338 -0.2865  0.0203  0.1059
    5CHTO   H68 1960   6.158   3.414   2.332 -2.2782 -1.5606 -0.6317
    5CHTO   C39 1961   6.030   3.677   2.484 -0.2650 -0.4934  0.1650
    5CHTO   H81 1962   6.027   3.743   2.397  1.2293  0.4216  0.7798
    5CHTO    N7 1963   5.897   3.608   2.526  0.0080 -0.6312 -0.3894
    5CHTO   H73 1964   5.820   3.608   2.450  1.2505 -1.6602 -1.6893
    5CHTO   H74 1965   5.915   3.512   2.573  1.5364 -1.1473 -1.9780
    5CHTO   C40 1966   6.074   3.773   2.608 -0.2348 -0.2504 -0.0531
    5CHTO   H82 1967   6.090   3.699   2.686  0.3695 -0.4363 -0.3437
    5CHTO   O26 1968   6.199   3.839   2.578 -0.3454 -0.3990  0.4114
    5CHTO   C41 1969   6.309   3.763   2.525 -0.8792  0.0041 -0.1003
    5CHTO   H83 1970   6.340   3.710   2.616 -0.9638  0.3905  0.1535
    5CHTO   C52 1971   6.412   3.856   2.475 -0.0778 -0.6915 -0.6676
    5CHTO   O35 1972   6.478   3.932   2.584 -0.7537  0.0444 -0.4176
    5CHTO   H71 1973   6.544   3.877   2.621 -0.4625  1.3280  1.0277
    5CHTO   O28 1974   5.987   3.887   2.640  0.4837 -0.0037 -0.6903
    5CHTO   C42 1975   5.992   3.958   2.767 -0.4356 -0.1374  0.2755
    5CHTO   H84 1976   5.914   4.031   2.750 -1.3818 -1.0795  0.5296
    5CHTO   C44 1977   6.120   4.041   2.798 -0.1436 -0.2329  0.2576
    5CHTO   H86 1978   6.177   4.039   2.706  0.2554 -0.1599  0.5046
    5CHTO   O32 1979   6.083   4.182   2.826 -0.2969  0.4442  0.1595
    5CHTO   H69 1980   6.156   4.239   2.841 -0.6729  1.1922 -0.7940
    5CHTO   C48 1981   6.197   3.983   2.923 -0.0336  0.6497  0.6152
    5CHTO   H90 1982   6.155   4.018   3.018 -1.1428  0.7207  0.1048
    5CHTO    N9 1983   6.337   4.025   2.912 -0.2726 -0.0430  0.1917
    5CHTO   H77 1984   6.390   3.952   2.853 -0.6693 -1.2366  1.2805
    5CHTO   H78 1985   6.392   4.047   3.002 -0.3383  0.9357 -0.0013
    5CHTO   C51 1986   6.180   3.819   2.921  0.6141 -0.6267  0.6832
    5CHTO   H93 1987   6.232   3.779   2.834 -0.7025 -0.7060 -0.0798
    5CHTO   O30 1988   6.039   3.785   2.918 -0.6511  0.7389  0.6692
    5CHTO   C46 1989   5.944   3.865   2.884  0.3826  0.4141 -0.5455
    5CHTO   H88 1990   5.861   3.803   2.850  0.0325  0.1693  0.6990
    5CHTO   C53 1991   5.891   3.945   3.004  0.5031 -0.2823  0.2383
    5CHTO   O72 1992   5.860   3.873   3.122 -0.3807  0.0500  0.0140
    5CHTO  H199 1993   5.857   3.928   3.198  1.1460  2.6290 -1.7242
    5CHTO   O22 1994   6.244   3.753   3.030  0.2085  0.2255  0.0010
    5CHTO   C31 1995   6.265   3.607   3.029 -0.5079 -0.2153  0.4028
    5CHTO   H59 1996   6.348   3.589   3.100  1.2521  1.7996 -1.1016
    5CHTO   C29 1997   6.143   3.536   3.082  0.2172  0.8544  0.5874
    5CHTO   H57 1998   6.053   3.560   3.023 -1.1305  0.3893  2.3906
    5CHTO   O21 1999   6.110   3.590   3.208 -0.6236  0.2109  0.2862
    5CHTO   H37 2000   6.042   3.655   3.208 -2.2082 -1.3938  1.2411
    5CHTO   C27 2001   6.152   3.372   3.081  0.1967  0.2178  0.3499
    5CHTO   H55 2002   6.230   3.340   3.152  1.5887  1.0347 -0.7757
    5CHTO    N5 2003   6.020   3.304   3.114 -0.1396  0.8056 -0.2585
    5CHTO   H43 2004   5.977   3.230   3.048 -0.0764  1.3557 -0.9288
    5CHTO   H44 2005   5.988   3.309   3.217  0.6562 -1.3060  0.1206
    5CHTO   C25 2006   6.208   3.324   2.941 -0.1037  0.0006  1.2245
    5CHTO   H53 2007   6.136   3.351   2.863  0.3439  1.0938  1.1730
    5CHTO   O17 2008   6.331   3.393   2.913  0.1130  0.1914 -0.1398
    5CHTO   C32 2009   6.313   3.538   2.897  0.2446  0.8777  0.9004
    5CHTO   H60 2010   6.242   3.559   2.818  0.0713  0.8172  1.0397
    5CHTO   C36 2011   6.450   3.589   2.848 -0.0646  0.1752 -0.1043
    5CHTO   O25 2012   6.553   3.567   2.949 -0.1844 -0.1441  0.1219
    5CHTO   H40 2013   6.633   3.536   2.910 -0.4917 -0.7975  0.0044
    5CHTO   O15 2014   6.230   3.166   2.938 -0.1726 -0.3965 -0.4453
    5CHTO   C19 2015   6.338   3.067   2.951 -0.3824  0.2309 -0.3032
    5CHTO   H47 2016   6.410   3.117   3.018 -2.9086  3.3793  0.1826
    5CHTO   C20 2017   6.304   2.926   3.008 -0.2846 -0.0251 -0.0487
    5CHTO   H48 2018   6.215   2.887   2.957 -0.0413  1.2139 -1.4601
    5CHTO   O19 2019   6.264   2.948   3.142 -0.0879 -0.1199 -0.4115
    5CHTO   H35 2020   6.174   2.975   3.149  0.0217 -0.1278  1.0905
    5CHTO   C21 2021   6.425   2.824   3.020  1.0666  0.2501 -0.4397
    5CHTO   H49 2022   6.484   2.841   3.111  2.9270 -0.7908 -1.4143
    5CHTO    N4 2023   6.387   2.685   3.033 -0.6444  0.5533  0.1197
    5CHTO   H41 2024   6.333   2.673   2.941 -0.0709  1.8237 -0.3932
    5CHTO   H42 2025   6.327   2.665   3.120 -1.4159 -1.0955 -0.7607
    5CHTO   C22 2026   6.529   2.852   2.908 -0.1728 -0.1705  1.0279
    5CHTO   H50 2027   6.491   2.794   2.824 -1.6082  1.4472  0.5242
    5CHTO   O14 2028   6.539   2.991   2.866  0.0927 -0.1354 -0.4761
    5CHTO   C23 2029   6.415   3.047   2.813 -0.6125  0.6385  0.7329
    5CHTO   H51 2030   6.366   2.970   2.750  1.0272  0.9464 -0.9330
    5CHTO   C34 2031   6.434   3.173   2.725  0.2498  0.2538 -0.2349
    5CHTO   O23 2032   6.511   3.132   2.607  0.4535  0.0485  0.7768
    5CHTO   H38 2033   6.497   3.041   2.588 -0.0857  0.7545 -2.3764
    5CHTO   O16 2034   6.667   2.813   2.947  0.1045 -0.2700 -0.4049
    5CHTO   C24 2035   6.743   2.724   2.834 -0.0121 -0.4412 -0.1915
    5CHTO   H52 2036   6.677   2.703   2.750  0.3768 -0.0245 -0.6030
    5CHTO   C26 2037   6.793   2.589   2.890 -0.3681 -0.8596 -0.7375
    5CHTO   H54 2038   6.859   2.605   2.979 -3.7339  1.5282  1.4476
    5CHTO   O20 2039   6.672   2.518   2.924 -0.1317  0.4111  0.3409
    5CHTO   H36 2040   6.700   2.431   2.942  1.0481  0.9807  1.3482
    5CHTO   C30 2041   6.883   2.508   2.793 -0.2009  0.7378  0.2722
    5CHTO   H58 2042   6.822   2.498   2.702 -1.2993 -0.0453  1.0798
    5CHTO    N6 2043   6.933   2.377   2.844 -0.2127  0.2146  0.5232
    5CHTO   H45 2044   6.974   2.385   2.943 -1.9359  0.9277  1.1960
    5CHTO   H46 2045   7.007   2.327   2.783 -1.4598 -2.2722  0.9826
    5CHTO   C33 2046   6.998   2.604   2.749  0.4572  0.2147  0.8705
    5CHTO   H61 2047   7.044   2.642   2.841  1.0929  3.1862 -0.6184
    5CHTO   O18 2048   6.937   2.721   2.689  0.1715 -0.2871  0.2770
    5CHTO   C28 2049   6.861   2.808   2.779  0.4820  0.3049 -0.1182
    5CHTO   H56 2050   6.919   2.850   2.861 -1.8275 -0.0606  1.7638
    5CHTO   C35 2051   6.816   2.929   2.698 -0.1200 -0.4325  0.4848
    5CHTO   O24 2052   6.723   2.902   2.593  0.3713  0.3934  0.2174
    5CHTO   H39 2053   6.777   2.878   2.521  0.4848  0.8940  0.1343
    5CHTO    O9 2054   7.101   2.552   2.668  0.1715  0.0688 -0.0940
    5CHTO   C13 2055   7.055   2.492   2.510  0.1647  0.4482 -0.0719
    5CHTO   H26 2056   6.944   2.486   2.520  0.1718 -0.9698 -0.6756
    5CHTO   C11 2057   7.120   2.353   2.497  0.5783  0.3305 -0.0075
    5CHTO   H24 2058   7.068   2.287   2.567  0.4725 -0.0362 -0.4365
    5CHTO    O8 2059   7.263   2.361   2.541 -0.0742 -0.5899  0.3977
    5CHTO    H3 2060   7.321   2.392   2.473  0.4673  1.5049  1.7637
    5CHTO    C9 2061   7.089   2.300   2.357  0.4179 -0.5760 -0.5501
    5CHTO   H22 2062   6.981   2.306   2.339  0.1516  0.0947  1.2376
    5CHTO    N2 2063   7.112   2.153   2.344  0.1224 -0.0254  0.7467
    5CHTO   H10 2064   7.214   2.125   2.321 -0.1300 -0.8556  0.6052
    5CHTO   H11 2065   7.087   2.105   2.437  0.4075 -2.8172 -0.5457
    5CHTO    C7 2066   7.165   2.389   2.249 -0.2968  0.5390 -0.6460
    5CHTO   H20 2067   7.122   2.346   2.157  0.1684  1.4805 -1.3169
    5CHTO    O4 2068   7.138   2.536   2.267  0.2880 -0.3064 -0.1074
    5CHTO   C14 2069   7.099   2.596   2.399 -0.0693  0.1092 -0.1378
    5CHTO   H27 2070   7.019   2.672   2.387  1.6337  1.8688 -0.6970
    5CHTO   C18 2071   7.222   2.677   2.448 -0.3617 -0.2588 -0.8858
    5CHTO   O13 2072   7.246   2.777   2.355 -0.1243 -0.3505  0.3400
    5CHTO    H7 2073   7.252   2.863   2.392 -3.0509  0.1389 -0.1910
    5CHTO    O2 2074   7.312   2.364   2.239  0.0871 -0.0442  0.1397
    5CHTO    C1 2075   7.379   2.387   2.118 -0.1137  0.4311 -0.6837
    5CHTO   H14 2076   7.339   2.480   2.072 -0.6125  1.4295  1.7093
    5CHTO    C2 2077   7.374   2.270   2.011 -0.1993  0.2783 -0.0016
    5CHTO   H15 2078   7.379   2.178   2.070  2.1079 -0.3403 -1.1392
    5CHTO    O6 2079   7.243   2.287   1.948  0.4234 -0.4193  0.2675
    5CHTO    H1 2080   7.231   2.252   1.862  0.8396  0.6200 -0.2221
    5CHTO    C3 2081   7.494   2.280   1.896 -0.0912 -0.2990  0.3030
    5CHTO   H16 2082   7.463   2.362   1.830  2.2384  0.7980  0.5453
    5CHTO    N1 2083   7.498   2.155   1.817 -0.5024  0.4612  0.1205
    5CHTO    H8 2084   7.576   2.086   1.846 -0.8920  0.6348  1.5984
    5CHTO    H9 2085   7.508   2.166   1.710 -1.4432  0.4845  0.0308
    5CHTO    C4 2086   7.629   2.320   1.965 -0.8777 -0.3858 -0.0699
    5CHTO   H17 2087   7.657   2.237   2.029  0.4898  0.8853  1.0342
    5CHTO    O1 2088   7.619   2.436   2.044 -0.1495  0.4647 -0.0312
    5CHTO    C5 2089   7.535   2.420   2.160  0.7456 -0.0072  0.3053
    5CHTO   H18 2090   7.568   2.342   2.229  0.9908  1.3413  1.7554
    5CHTO   C16 2091   7.535   2.547   2.240 -0.2580 -0.8206 -1.0313
    5CHTO   O11 2092   7.654   2.555   2.323  0.8657  0.6462  0.5410
    5CHTO    H5 2093   7.731   2.550   2.270 -0.1053 -1.6099 -0.7081
    5CHTO    O3 2094   7.727   2.358   1.866 -0.4786  0.8458 -0.0239
    5CHTO    C6 2095   7.874   2.344   1.883  0.0038  0.5366 -0.3766
    5CHTO   H19 2096   7.903   2.305   1.981  1.4334 -0.1136 -1.0345
    5CHTO    C8 2097   7.926   2.227   1.781 -0.6421 -0.1286  0.2657
    5CHTO   H21 2098   7.881   2.243   1.683 -0.0613 -0.4902 -0.0615
    5CHTO    O7 2099   7.871   2.103   1.828  0.0705  0.2444  0.0406
    5CHTO    H2 2100   7.779   2.117   1.833  0.0020 -0.6755  1.7363
    5CHTO   C12 2101   8.082   2.222   1.787  0.3052  0.0818 -0.3741
    5CHTO   H25 2102   8.097   2.195   1.894  0.6161  3.2108  0.4191
    5CHTO    N3 2103   8.137   2.123   1.691 -0.0419 -0.2025 -0.4957
    5CHTO   H12 2104   8.103   2.140   1.590  0.6723  1.6223 -0.4505
    5CHTO   H13 2105   8.113   2.026   1.730  1.1759 -0.4733 -0.3942
    5CHTO   C15 2106   8.142   2.369   1.771  0.2066  0.0862  0.6016
    5CHTO   H28 2107   8.128   2.399   1.667 -1.4732 -2.5398  0.0078
    5CHTO   O10 2108   8.279   2.382   1.795  0.2368  0.1238 -0.1146
    5CHTO    H4 2109   8.337   2.351   1.729  0.5937  1.6580 -0.5276
    5CHTO    O5 2110   8.091   2.457   1.873 -0.4779  0.4622 -0.5491
    5CHTO   C10 2111   7.953   2.476   1.858 -0.1161 -0.2711 -0.6657
    5CHTO   H23 2112   7.928   2.513   1.758 -0.1236  2.4446  0.3026
    5CHTO   C17 2113   7.908   2.582   1.954 -0.4714  0.0034 -0.1897
    5CHTO   O12 2114   7.914   2.720   1.922  0.0205 -0.0076 -1.1515
    5CHTO    H6 2115   7.850   2.774   1.965  0.4282  1.3304 -2.1742
    6CHTO  H203 2116   7.593   4.767   0.291  0.8222 -1.3756 -0.3451
    6CHTO   O82 2117   7.620   4.787   0.204  0.1851  0.2654 -0.2031
    6CHTO  C123 2118   7.577   4.916   0.172  0.1068 -0.1986  0.7883
    6CHTO  H227 2119   7.654   4.971   0.116 -0.3262  2.3847  2.6278
    6CHTO   O77 2120   7.465   4.893   0.080  0.7080  0.2621  0.4264
    6CHTO  C118 2121   7.389   5.012   0.042  0.2356  0.1889 -0.3882
    6CHTO  H222 2122   7.458   5.085  -0.005  0.0390 -1.4417 -3.3227
    6CHTO  C125 2123   7.276   4.964  -0.064 -0.4485  0.5364 -0.1606
    6CHTO   O84 2124   7.340   4.936  -0.192  0.0337  0.1271 -0.0474
    6CHTO  H205 2125   7.431   4.934  -0.167  0.2289  1.2514 -0.6496
    6CHTO  C114 2126   7.324   5.078   0.163 -0.1905 -0.0985  0.0281
    6CHTO  H218 2127   7.269   4.999   0.214  1.2657 -1.2010 -0.0630
    6CHTO  C116 2128   7.431   5.126   0.260 -0.1301 -0.2042 -0.2093
    6CHTO  H220 2129   7.480   5.208   0.204  1.0186  0.4104  1.6433
    6CHTO   O79 2130   7.377   5.192   0.376 -0.2067 -0.5078 -0.1128
    6CHTO  H201 2131   7.307   5.253   0.365 -0.8205 -1.0646  0.6044
    6CHTO  C120 2132   7.531   5.004   0.298  0.7236  0.8033 -0.3290
    6CHTO  H224 2133   7.481   4.942   0.376 -0.0759 -0.2580 -1.6492
    6CHTO   N21 2134   7.646   5.057   0.374  0.1251  0.4372 -0.4506
    6CHTO  H211 2135   7.607   5.131   0.441  1.0270  0.5178 -0.0028
    6CHTO  H212 2136   7.720   5.105   0.312 -1.8602  2.7683 -1.0696
    6CHTO   O75 2137   7.236   5.178   0.112 -0.1150 -0.0773 -0.0244
    6CHTO  C112 2138   7.102   5.189   0.187  0.0966  0.0616  0.3914
    6CHTO  H216 2139   7.110   5.169   0.295 -0.5110  0.6961  0.5592
    6CHTO   O73 2140   7.015   5.098   0.118  0.2654 -0.4567  0.3086
    6CHTO  C113 2141   6.883   5.092   0.178 -0.3936 -0.2866  0.6848
    6CHTO  H217 2142   6.892   5.073   0.287  1.2222 -2.0839  0.2567
    6CHTO  C124 2143   6.826   4.964   0.119 -0.2558  0.2473  0.2530
    6CHTO   O83 2144   6.698   4.926   0.164  0.1556 -0.6695  0.5561
    6CHTO  H204 2145   6.677   4.987   0.232  0.6823  1.1999 -0.9060
    6CHTO  C109 2146   6.805   5.221   0.139 -0.4318 -0.4260  0.1743
    6CHTO  H213 2147   6.806   5.223   0.029 -0.7184 -0.8352  0.1629
    6CHTO  C110 2148   6.888   5.331   0.207 -0.0802  0.2335 -0.3846
    6CHTO  H214 2149   6.899   5.325   0.316  2.1535 -1.1311 -0.6586
    6CHTO   O78 2150   6.815   5.455   0.184 -0.1931  0.5785  0.2475
    6CHTO  H200 2151   6.867   5.527   0.156  2.0370 -0.8394  0.6688
    6CHTO  C111 2152   7.037   5.333   0.156  0.6943  0.0505  0.0965
    6CHTO  H215 2153   7.036   5.345   0.047  2.4674 -0.4768  0.0175
    6CHTO   N19 2154   7.116   5.447   0.208 -0.2668 -0.5382  0.1813
    6CHTO  H207 2155   7.159   5.426   0.304  0.6252  0.9138  0.1158
    6CHTO  H208 2156   7.065   5.542   0.217 -0.2901 -0.3959 -1.2898
    6CHTO   O74 2157   6.662   5.221   0.193  0.0867  0.3088  0.9070
    6CHTO  C115 2158   6.646   5.232   0.365 -0.3518 -0.7259 -0.2474
    6CHTO  H219 2159   6.740   5.211   0.416 -1.7634 -3.4342  1.3312
    6CHTO   O76 2160   6.604   5.374   0.410 -0.1217  0.3704  0.3125
    6CHTO  C122 2161   6.481   5.429   0.363 -0.6393  0.2365 -0.4693
    6CHTO  H226 2162   6.484   5.456   0.258  2.2017  0.5433 -0.3529
    6CHTO  C126 2163   6.486   5.567   0.439 -0.6655 -0.5268 -0.7628
    6CHTO   O85 2164   6.445   5.675   0.356 -0.4007 -0.3773  0.4560
    6CHTO  H206 2165   6.355   5.671   0.333 -0.7631 -2.5976  2.0970
    6CHTO  C121 2166   6.361   5.329   0.397  0.2298 -0.2628  0.3010
    6CHTO  H225 2167   6.305   5.392   0.469  1.5192 -0.1289  1.2023
    6CHTO   O81 2168   6.291   5.290   0.283 -0.2211 -0.1492  0.2013
    6CHTO  H202 2169   6.220   5.232   0.305 -1.6245  1.4598 -0.0189
    6CHTO  C119 2170   6.407   5.198   0.476 -0.0891 -0.9379 -0.7225
    6CHTO  H223 2171   6.430   5.228   0.578  1.7814 -2.2241 -0.7377
    6CHTO  C117 2172   6.535   5.130   0.416  1.1749  0.0335 -0.4529
    6CHTO  H221 2173   6.510   5.076   0.325 -2.3820  0.1895  0.3491
    6CHTO   N20 2174   6.586   5.027   0.511 -0.8038  0.3789 -0.2182
    6CHTO  H209 2175   6.570   4.933   0.461  1.5209  1.1235 -2.5116
    6CHTO  H210 2176   6.691   5.041   0.528 -0.6163 -0.1558 -0.9277
    6CHTO   O80 2177   6.296   5.093   0.502 -0.1296 -0.0433  0.2788
    6CHTO  C103 2178   6.234   5.064   0.659 -0.0522 -0.3308  0.2031
    6CHTO  H190 2179   6.308   5.044   0.736 -0.4440  1.6700  1.1306
    6CHTO  C101 2180   6.145   5.185   0.714 -0.0145 -0.0729 -0.1177
    6CHTO  H188 2181   6.067   5.201   0.640  0.3646  0.1953 -0.4597
    6CHTO   O68 2182   6.236   5.307   0.727  0.0903 -0.3864 -0.1359
    6CHTO  H168 2183   6.219   5.361   0.652  2.0141 -0.7574 -0.8724
    6CHTO   C99 2184   6.084   5.145   0.853 -0.1938  0.0355  0.6857
    6CHTO  H186 2185   6.173   5.127   0.916  0.3800  1.7718  0.3794
    6CHTO   N17 2186   5.996   5.248   0.913 -0.6947  0.3568 -0.0427
    6CHTO  H174 2187   5.976   5.333   0.850 -0.3358  1.3891  1.2117
    6CHTO  H175 2188   6.027   5.287   1.009 -0.4228 -1.0713  0.4655
    6CHTO   C97 2189   6.009   5.008   0.847  0.7308  0.3291 -1.0175
    6CHTO  H184 2190   5.906   5.017   0.809 -0.1746  1.0522  1.5382
    6CHTO   O64 2191   6.086   4.913   0.776 -0.1442  0.4228  0.1703
    6CHTO  C104 2192   6.141   4.941   0.648  0.1445  0.3900 -0.0460
    6CHTO  H191 2193   6.065   4.963   0.574  2.4483 -1.0719 -2.9867
    6CHTO  C108 2194   6.209   4.814   0.602 -0.4110  1.2387 -0.4853
    6CHTO   O71 2195   6.106   4.717   0.570 -0.1903 -0.0530 -0.4180
    6CHTO  H171 2196   6.109   4.694   0.479 -3.6883  0.4866 -0.7460
    6CHTO   O62 2197   5.998   4.947   0.972  0.2957 -0.1176 -0.3294
    6CHTO   C91 2198   5.877   4.877   1.014 -0.3091  0.0403  0.6232
    6CHTO  H178 2199   5.803   4.957   1.009 -0.1914  0.0628 -0.9833
    6CHTO   C92 2200   5.896   4.837   1.161 -0.2709 -0.0356  0.1604
    6CHTO  H179 2201   5.952   4.918   1.210  1.1115  0.1221 -1.6618
    6CHTO   O66 2202   5.765   4.825   1.211  0.0082  0.5605  0.5582
    6CHTO  H166 2203   5.764   4.801   1.301  0.3675  1.7034  0.8840
    6CHTO   C93 2204   5.977   4.698   1.187 -0.4501 -0.1627  0.2150
    6CHTO  H180 2205   5.951   4.660   1.287 -0.6322 -1.4273 -0.3033
    6CHTO   N16 2206   6.129   4.695   1.194 -0.3270 -0.4765  0.1378
    6CHTO  H172 2207   6.170   4.726   1.100  2.7216 -1.6018  1.0363
    6CHTO  H173 2208   6.163   4.760   1.274  0.4806  0.9588 -1.3341
    6CHTO   C94 2209   5.932   4.587   1.084  0.1076 -0.6536  0.0382
    6CHTO  H181 2210   6.010   4.559   1.013 -0.9420 -1.1437 -0.9340
    6CHTO   O61 2211   5.828   4.628   0.999  0.3902 -0.1335  0.2066
    6CHTO   C95 2212   5.833   4.750   0.926 -0.3272 -0.4100  0.3770
    6CHTO  H182 2213   5.910   4.749   0.848  0.5235 -1.4102  1.2169
    6CHTO  C106 2214   5.696   4.774   0.860 -0.4513 -0.6189 -0.7662
    6CHTO   O69 2215   5.590   4.752   0.949  0.0338  0.5180 -0.8619
    6CHTO  H169 2216   5.528   4.819   0.929  2.4280  3.0671 -0.1196
    6CHTO   O63 2217   5.888   4.472   1.166 -0.2693  0.2250  0.3962
    6CHTO   C96 2218   5.925   4.331   1.111 -0.4336 -0.0390  0.8110
    6CHTO  H183 2219   5.984   4.348   1.021  0.9699 -0.3791  1.6455
    6CHTO   C98 2220   5.814   4.237   1.069  0.4230  0.3437  0.8929
    6CHTO  H185 2221   5.750   4.234   1.158  0.5786  0.1504  1.0002
    6CHTO   O67 2222   5.734   4.302   0.971  0.2201  0.0048 -0.2274
    6CHTO  H167 2223   5.707   4.249   0.899 -1.5541  2.8314 -1.7079
    6CHTO  C102 2224   5.857   4.093   1.028  0.2898  0.5014  0.3163
    6CHTO  H189 2225   5.860   4.082   0.918  0.8375 -1.9342  0.5519
    6CHTO   N18 2226   5.761   3.984   1.073 -0.5309  0.1241 -0.0847
    6CHTO  H176 2227   5.753   3.990   1.180 -1.3489 -1.7005 -0.0317
    6CHTO  H177 2228   5.808   3.890   1.050 -0.8843  0.2514 -1.4025
    6CHTO  C105 2229   6.002   4.055   1.065 -0.4550 -0.2536  0.3884
    6CHTO  H192 2230   6.013   3.947   1.068 -0.0317 -0.2161  0.1047
    6CHTO   O65 2231   6.028   4.102   1.202  0.8410  0.1428 -0.5035
    6CHTO  C100 2232   6.017   4.249   1.224  0.5324  0.1438  0.6755
    6CHTO  H187 2233   5.962   4.261   1.318  0.8158  0.4594  0.8048
    6CHTO  C107 2234   6.149   4.324   1.252 -0.3493 -0.3755  0.0179
    6CHTO   O70 2235   6.233   4.301   1.139  0.5216  0.1151 -0.2616
    6CHTO  H170 2236   6.313   4.270   1.178  0.5382  2.0056  1.2568
    6CHTO   O57 2237   6.083   4.109   0.964 -0.3101 -0.4855 -0.0144
    6CHTO   C85 2238   6.131   4.041   0.848 -1.0453 -0.1713  0.6182
    6CHTO  H157 2239   6.048   3.985   0.800 -1.6579  0.3847  1.0066
    6CHTO   C83 2240   6.239   3.926   0.882 -0.1556 -1.0359  0.1081
    6CHTO  H155 2241   6.200   3.852   0.951 -1.4899  0.1264  0.6258
    6CHTO   O56 2242   6.346   3.982   0.955 -0.2409 -0.4865 -0.2885
    6CHTO  H135 2243   6.317   4.029   1.031  0.4821  0.6211 -0.6696
    6CHTO   C81 2244   6.287   3.849   0.753  0.7436 -0.0043  0.3910
    6CHTO  H153 2245   6.199   3.814   0.698 -0.2063  0.3534  1.6579
    6CHTO   N14 2246   6.371   3.730   0.792 -0.1246 -0.1195 -0.2218
    6CHTO  H141 2247   6.422   3.681   0.712  0.1994 -1.9813  1.0932
    6CHTO  H142 2248   6.439   3.757   0.871 -1.7818  1.5933  0.6608
    6CHTO   C79 2249   6.359   3.951   0.666 -0.0771 -0.0195  0.4190
    6CHTO  H151 2250   6.389   3.902   0.573 -1.0073  1.1572 -0.5216
    6CHTO   O52 2251   6.275   4.064   0.631 -0.1332  0.5725 -0.5177
    6CHTO   C86 2252   6.211   4.131   0.741  0.0831 -0.5963 -0.1065
    6CHTO  H158 2253   6.300   4.172   0.793 -0.2204 -0.9516  0.7020
    6CHTO   C90 2254   6.130   4.253   0.695 -0.5784 -0.4657 -0.2949
    6CHTO   O60 2255   6.093   4.346   0.798  0.2439  0.1045 -0.0292
    6CHTO  H138 2256   6.008   4.342   0.838  0.9508  1.0869  1.6671
    6CHTO   O50 2257   6.480   4.016   0.720 -0.3034  0.2291  0.2871
    6CHTO   C73 2258   6.609   3.963   0.709  0.2166 -0.6483 -0.8522
    6CHTO  H145 2259   6.607   3.856   0.686 -1.1562 -1.6161  3.2689
    6CHTO   C74 2260   6.694   3.963   0.844  0.7850  0.1691 -0.5712
    6CHTO  H146 2261   6.635   3.903   0.914  3.6193 -1.0403  0.8522
    6CHTO   O54 2262   6.819   3.895   0.814  0.4398  0.3913 -0.1367
    6CHTO  H133 2263   6.859   3.916   0.732  1.0017 -3.3623 -0.9407
    6CHTO   C75 2264   6.716   4.112   0.891  0.7627  0.0399 -0.2341
    6CHTO  H147 2265   6.617   4.151   0.921  1.2870  3.2329 -2.4003
    6CHTO   N13 2266   6.793   4.142   1.011  0.4098  0.5029 -0.5070
    6CHTO  H139 2267   6.781   4.244   1.043 -2.7025  0.4929 -1.5216
    6CHTO  H140 2268   6.796   4.065   1.086 -1.8001 -0.8289 -1.7280
    6CHTO   C76 2269   6.763   4.208   0.771  0.1089  0.6227 -0.0203
    6CHTO  H148 2270   6.871   4.204   0.759  0.5071  1.0568  2.8546
    6CHTO   O49 2271   6.690   4.177   0.642  0.4560  0.1546  0.0981
    6CHTO   C77 2272   6.679   4.041   0.598 -0.8123 -0.2480  0.3107
    6CHTO  H149 2273   6.780   4.002   0.588 -0.5401  0.4144  0.4403
    6CHTO   C88 2274   6.613   4.040   0.461  0.2864 -0.2690  0.4169
    6CHTO   O58 2275   6.605   3.943   0.420 -0.0785  0.2984  0.1379
    6CHTO  H136 2276   6.681   3.922   0.370 -0.5782 -0.3757 -0.3494
    6CHTO   O51 2277   6.707   4.367   0.789  0.1161  0.5344 -0.0942
    6CHTO   C78 2278   6.755   4.475   0.913  0.0696 -0.0325  0.5361
    6CHTO  H150 2279   6.797   4.419   0.999  0.0582 -0.5649  0.1972
    6CHTO   C80 2280   6.618   4.539   0.963 -0.0803  0.2445  0.2227
    6CHTO  H152 2281   6.553   4.559   0.875  0.9037 -3.2295 -1.3785
    6CHTO   O55 2282   6.547   4.431   1.021 -0.3249  0.6059 -0.0281
    6CHTO  H134 2283   6.609   4.384   1.073  0.5892 -0.8037 -2.3335
    6CHTO   C84 2284   6.637   4.667   1.050  0.0563 -1.1299 -0.3296
    6CHTO  H156 2285   6.668   4.635   1.149  1.0514 -1.4776 -0.7508
    6CHTO   N15 2286   6.510   4.737   1.071 -0.0288 -0.3206  0.8399
    6CHTO  H143 2287   6.518   4.818   1.140 -1.7400  1.3702 -0.8936
    6CHTO  H144 2288   6.475   4.779   0.979 -1.3308 -0.2838  1.3412
    6CHTO   C87 2289   6.746   4.752   0.979  0.0923 -0.3282  0.0004
    6CHTO  H159 2290   6.701   4.776   0.882 -0.3771 -0.0309  0.2899
    6CHTO   O53 2291   6.870   4.685   0.968 -0.2744  0.7459  0.3948
    6CHTO   C82 2292   6.855   4.582   0.865  0.5778 -0.6206  0.0386
    6CHTO  H154 2293   6.829   4.630   0.770 -1.1296 -1.2103  0.1889
    6CHTO   C89 2294   6.993   4.503   0.847  0.9825  0.1545 -0.1692
    6CHTO   O59 2295   7.088   4.581   0.780 -0.2135 -0.2621  0.3959
    6CHTO  H137 2296   7.174   4.551   0.803 -0.2653  0.1467  1.1503
    6CHTO   O45 2297   6.780   4.907   1.062 -0.1596 -0.3479 -0.3942
    6CHTO   C67 2298   6.888   4.978   0.989  0.1515  0.3210  0.4525
    6CHTO  H124 2299   6.984   4.927   0.992 -0.1446 -0.3753 -1.3431
    6CHTO   C65 2300   6.865   5.010   0.838  0.3101 -0.6223 -0.4576
    6CHTO  H122 2301   6.756   5.002   0.833  0.0800  0.7114  1.8031
    6CHTO   O44 2302   6.931   4.903   0.763 -0.0302 -0.2545 -0.4473
    6CHTO  H102 2303   6.877   4.830   0.783 -1.2313  0.7105 -0.1163
    6CHTO   C63 2304   6.915   5.153   0.792  0.2892  0.1022  0.3719
    6CHTO  H120 2305   6.841   5.224   0.829 -0.5175  0.4583 -1.8299
    6CHTO   N11 2306   6.916   5.180   0.640 -0.5299  0.2387 -0.2924
    6CHTO  H108 2307   6.960   5.275   0.618  1.5051 -0.8104 -0.8271
    6CHTO  H109 2308   6.938   5.087   0.591 -0.5243  0.7810 -1.3325
    6CHTO   C61 2309   7.050   5.184   0.856 -0.5720  0.1010  0.1534
    6CHTO  H118 2310   7.074   5.289   0.832 -0.5529  0.0533 -0.0345
    6CHTO   O40 2311   7.047   5.179   0.998  0.8955 -0.8332  0.5711
    6CHTO   C68 2312   6.929   5.115   1.070  0.5051  0.6287 -0.4844
    6CHTO  H125 2313   6.849   5.192   1.073 -0.5770 -0.4786 -0.7081
    6CHTO   C72 2314   6.976   5.090   1.211 -0.1588  0.1066  0.0027
    6CHTO   O48 2315   6.994   5.218   1.279  0.4093 -0.5809  0.2176
    6CHTO  H105 2316   7.053   5.275   1.234 -1.0028  0.6154 -0.1676
    6CHTO   O38 2317   7.154   5.101   0.814 -0.0725  0.5128 -0.3021
    6CHTO   C55 2318   7.286   5.152   0.837  0.2143  0.2623  0.4191
    6CHTO  H112 2319   7.287   5.215   0.927 -1.6439 -2.0877  2.1536
    6CHTO   C56 2320   7.342   5.233   0.711 -0.1663 -0.2802  0.2260
    6CHTO  H113 2321   7.352   5.168   0.623  2.1175 -2.6202  2.1193
    6CHTO   O42 2322   7.254   5.341   0.672  0.1432  0.7091  0.1567
    6CHTO  H100 2323   7.238   5.397   0.745  1.5736  0.3206  0.7901
    6CHTO   C57 2324   7.488   5.283   0.741 -0.2778  0.2345  0.2450
    6CHTO  H114 2325   7.478   5.361   0.817  1.4554  1.1448 -0.4175
    6CHTO   N10 2326   7.550   5.350   0.629  0.4241 -0.7278 -0.2215
    6CHTO  H106 2327   7.627   5.423   0.649 -2.2299  2.4049 -0.9487
    6CHTO  H107 2328   7.480   5.398   0.562 -1.4661 -1.7607  0.9601
    6CHTO   C58 2329   7.576   5.165   0.796 -0.0100  0.3124 -0.1884
    6CHTO  H115 2330   7.609   5.095   0.716  1.3684  1.4983 -0.6827
    6CHTO   O37 2331   7.512   5.089   0.904  0.4202  0.0349 -0.6504
    6CHTO   C59 2332   7.384   5.041   0.865 -0.0244  0.3376 -0.2742
    6CHTO  H116 2333   7.388   4.961   0.791  1.3792 -0.3147  0.4908
    6CHTO   C70 2334   7.336   4.956   0.982 -0.3194  0.1302 -0.1933
    6CHTO   O46 2335   7.235   4.860   0.948 -0.3198  0.6099 -1.1156
    6CHTO  H103 2336   7.274   4.779   0.920 -0.6401  0.6764 -1.7780
    6CHTO   O39 2337   7.706   5.234   0.859  0.0376 -0.1146 -0.7067
    6CHTO   C60 2338   7.825   5.159   0.835 -0.5016  0.5108  0.0379
    6CHTO  H117 2339   7.802   5.053   0.823  1.0071  0.3058 -1.1110
    6CHTO   C62 2340   7.892   5.196   0.702  0.0217 -0.2102 -0.2753
    6CHTO  H119 2341   7.829   5.170   0.614 -1.8098 -0.4293  1.0795
    6CHTO   O43 2342   7.904   5.340   0.701  0.2199 -0.1320  0.4802
    6CHTO  H101 2343   7.969   5.361   0.766 -0.2783  0.1317  0.8945
    6CHTO   C66 2344   8.030   5.121   0.689 -0.7191  0.4937 -0.1186
    6CHTO  H123 2345   8.017   5.015   0.708 -0.1661  0.4486  0.0430
    6CHTO   N12 2346   8.081   5.133   0.550  0.5671  0.4320 -0.5533
    6CHTO  H110 2347   8.176   5.083   0.555 -0.6495 -1.8016  1.6570
    6CHTO  H111 2348   8.016   5.090   0.476 -0.1096  1.5426 -0.6080
    6CHTO   C69 2349   8.126   5.168   0.798 -0.3704  0.4235 -0.1070
    6CHTO  H126 2350   8.139   5.278   0.804  0.8069  0.2064  1.6753
    6CHTO   O41 2351   8.078   5.120   0.929 -0.0956 -0.1395 -0.2900
    6CHTO   C64 2352   7.914   5.181   0.957  0.0937  0.1855 -0.2199
    6CHTO  H121 2353   7.922   5.289   0.981 -0.4987  0.0937  0.3883
    6CHTO   C71 2354   7.851   5.114   1.081 -0.3126 -0.0505  0.0549
    6CHTO   O47 2355   7.893   4.975   1.079  0.2233 -0.5839 -0.1183
    6CHTO  H104 2356   7.818   4.923   1.056 -0.5220 -0.1217  1.1407
    6CHTO   O34 2357   8.281   5.104   0.781 -0.3318  0.7114 -0.8812
    6CHTO   C49 2358   8.389   5.162   0.706 -0.7655  0.3607 -0.0858
    6CHTO   H91 2359   8.369   5.135   0.602  1.2852  1.1325 -0.7133
    6CHTO   C47 2360   8.516   5.086   0.738 -0.1284  0.3193 -0.1636
    6CHTO   H89 2361   8.592   5.137   0.675  1.6512 -0.9661  0.9036
    6CHTO   O33 2362   8.506   4.945   0.702  0.2588 -0.0424  0.4842
    6CHTO   H70 2363   8.510   4.949   0.608 -1.8071 -0.7325  0.3354
    6CHTO   C45 2364   8.562   5.107   0.887 -0.0131  0.4766  0.0050
    6CHTO   H87 2365   8.486   5.055   0.947 -0.0768  1.5092  0.8377
    6CHTO    N8 2366   8.692   5.047   0.926  0.0936  0.1606 -0.3621
    6CHTO   H75 2367   8.735   5.113   0.999 -0.8803 -0.2980  0.6411
    6CHTO   H76 2368   8.752   5.043   0.836 -0.5354 -1.3979 -0.7324
    6CHTO   C43 2369   8.546   5.269   0.924 -0.2631 -0.1753  1.0331
    6CHTO   H85 2370   8.452   5.269   0.980 -1.6484 -1.7651 -1.2103
    6CHTO   O29 2371   8.534   5.351   0.811 -0.2217 -0.7767  0.1096
    6CHTO   C50 2372   8.424   5.310   0.723 -0.3793  0.4914 -0.4117
    6CHTO   H92 2373   8.336   5.366   0.759  0.1806  1.0390  0.1113
    6CHTO   C54 2374   8.464   5.365   0.582  0.3657 -0.5322  0.4389
    6CHTO   O36 2375   8.476   5.507   0.568 -0.5936  0.1867  0.0565
    6CHTO   H72 2376   8.404   5.543   0.616 -1.6518 -1.6380 -0.1107
    6CHTO   O27 2377   8.631   5.319   1.031  0.4375  0.2999 -0.0908
    6CHTO   C37 2378   8.714   5.424   1.072  0.1634  0.6139  0.3228
    6CHTO   H79 2379   8.811   5.421   1.020 -0.2563  0.1558 -0.4338
    6CHTO   C38 2380   8.655   5.568   1.052  0.1944  0.1388  0.3436
    6CHTO   H80 2381   8.547   5.570   1.072  0.1233 -1.3877  0.1667
    6CHTO   O31 2382   8.675   5.596   0.913  0.4496  0.0067 -0.1660
    6CHTO   H68 2383   8.606   5.639   0.866 -1.0445 -1.3683  0.7046
    6CHTO   C39 2384   8.732   5.677   1.141  0.3677  0.1590  1.5866
    6CHTO   H81 2385   8.830   5.698   1.096 -1.0047 -1.2228 -2.2456
    6CHTO    N7 2386   8.661   5.815   1.143 -0.1493  0.3555  0.8832
    6CHTO   H73 2387   8.564   5.807   1.189  0.5326  0.8596  2.4592
    6CHTO   H74 2388   8.730   5.895   1.166 -0.8046  0.7335  1.5370
    6CHTO   C40 2389   8.768   5.635   1.286 -0.2625 -0.0280 -0.1387
    6CHTO   H82 2390   8.680   5.633   1.350  0.5432  0.0377  0.9757
    6CHTO   O26 2391   8.833   5.507   1.279  0.3238 -0.5107  0.2614
    6CHTO   C41 2392   8.739   5.405   1.225  0.3406  0.4152  0.0129
    6CHTO   H83 2393   8.647   5.408   1.286  1.4680 -1.1633  1.8342
    6CHTO   C52 2394   8.800   5.272   1.267  0.1743 -0.4047 -0.8515
    6CHTO   O35 2395   8.832   5.256   1.393  0.3549 -0.0874  0.1583
    6CHTO   H71 2396   8.762   5.292   1.445  1.1092 -0.8539  1.7390
    6CHTO   O28 2397   8.862   5.721   1.359 -0.3886 -0.3768  0.0113
    6CHTO   C42 2398   8.849   5.742   1.508 -0.0550 -0.5375 -0.3502
    6CHTO   H84 2399   8.953   5.767   1.530 -0.5330  0.9427  0.3289
    6CHTO   C44 2400   8.806   5.633   1.600  0.0971 -0.6136  0.5962
    6CHTO   H86 2401   8.709   5.593   1.569  1.0399 -2.5888  0.1136
    6CHTO   O32 2402   8.894   5.522   1.573  0.6128 -0.1839 -0.5500
    6CHTO   H69 2403   8.885   5.464   1.647 -2.4123  0.0021 -0.6885
    6CHTO   C48 2404   8.806   5.670   1.755 -1.1497 -0.0811  0.3881
    6CHTO   H90 2405   8.908   5.689   1.789 -1.0079  0.3738 -0.2785
    6CHTO    N9 2406   8.749   5.550   1.835  0.3494  0.3535 -0.1550
    6CHTO   H77 2407   8.672   5.579   1.905  1.4526 -0.5264  1.4677
    6CHTO   H78 2408   8.823   5.489   1.885  0.7096 -0.8118 -2.0738
    6CHTO   C51 2409   8.727   5.803   1.783  0.2133  0.7144 -0.3789
    6CHTO   H93 2410   8.621   5.789   1.763  0.4631 -0.8745 -0.6351
    6CHTO   O30 2411   8.788   5.901   1.704 -0.8066  0.1442 -0.4046
    6CHTO   C46 2412   8.765   5.868   1.549  0.6316 -0.6306 -0.2957
    6CHTO   H88 2413   8.661   5.856   1.517  1.5422  1.8242 -4.5813
    6CHTO   C53 2414   8.819   5.998   1.479  0.0119  0.7092  0.3192
    6CHTO   O72 2415   8.728   6.102   1.494 -0.5121 -0.0688 -0.0071
    6CHTO  H199 2416   8.739   6.150   1.574  2.3200 -1.0044  0.2180
    6CHTO   O22 2417   8.734   5.852   1.918 -0.1749 -0.3524  0.0335
    6CHTO   C31 2418   8.643   5.949   1.979 -0.7127 -0.2016  0.4908
    6CHTO   H59 2419   8.679   5.962   2.083  0.1439  1.4748  0.0005
    6CHTO   C29 2420   8.642   6.086   1.908  0.2171  0.5458 -0.3142
    6CHTO   H57 2421   8.621   6.075   1.801  2.3087  1.6103 -0.8633
    6CHTO   O21 2422   8.781   6.137   1.913  0.2040 -0.4948 -0.8356
    6CHTO   H37 2423   8.811   6.153   2.000  1.8375 -1.6447 -1.1620
    6CHTO   C27 2424   8.539   6.178   1.973 -0.6371  1.1674  0.0369
    6CHTO   H55 2425   8.569   6.205   2.076 -2.0651  2.0053  0.2499
    6CHTO    N5 2426   8.532   6.308   1.892 -0.7085 -0.2138 -0.1465
    6CHTO   H43 2427   8.432   6.347   1.894 -0.5097  0.2910 -0.0064
    6CHTO   H44 2428   8.592   6.382   1.942  1.4147 -2.6649  1.1100
    6CHTO   C25 2429   8.394   6.116   1.977 -0.6052  0.1236  0.4712
    6CHTO   H53 2430   8.363   6.089   1.875  2.6763 -0.0168 -0.5423
    6CHTO   O17 2431   8.404   5.987   2.048  0.1778  0.3654 -0.0732
    6CHTO   C32 2432   8.497   5.894   1.992 -0.3355  0.2452 -0.2580
    6CHTO   H60 2433   8.461   5.873   1.891  0.1680  0.7299 -0.5413
    6CHTO   C36 2434   8.486   5.774   2.086 -0.5916 -0.5806  0.5275
    6CHTO   O25 2435   8.552   5.650   2.051  0.3467  0.0798 -0.0935
    6CHTO   H40 2436   8.542   5.629   1.961  1.4132 -0.7124 -0.0330
    6CHTO   O15 2437   8.297   6.209   2.059  0.6574 -0.1638  0.1832
    6CHTO   C19 2438   8.173   6.292   2.070 -0.1040 -0.4926 -0.2981
    6CHTO   H47 2439   8.146   6.283   2.176  0.7281 -0.9888 -0.1215
    6CHTO   C20 2440   8.202   6.434   2.017  1.0568  0.3583  0.1191
    6CHTO   H48 2441   8.228   6.434   1.910  0.8894  3.9572  0.0163
    6CHTO   O19 2442   8.307   6.479   2.104  0.2047 -0.3436  0.1016
    6CHTO   H35 2443   8.295   6.505   2.193  1.8520  0.5179  0.1106
    6CHTO   C21 2444   8.073   6.521   2.035  0.8662 -0.5836  0.2122
    6CHTO   H49 2445   8.043   6.526   2.140 -0.1876  1.8889 -0.1783
    6CHTO    N4 2446   8.085   6.661   1.981  0.0966  0.2881 -0.2693
    6CHTO   H41 2447   8.144   6.728   2.043  0.3776  2.0155 -2.3329
    6CHTO   H42 2448   8.136   6.648   1.887 -0.1567 -1.2476 -0.2137
    6CHTO   C22 2449   7.959   6.443   1.966 -0.2213  0.2820  0.0935
    6CHTO   H50 2450   7.977   6.438   1.859 -0.9767  1.1219 -0.0766
    6CHTO   O14 2451   7.937   6.311   2.018  0.2728 -0.2222 -0.4529
    6CHTO   C23 2452   8.056   6.237   1.998  0.4735 -0.1252  0.3226
    6CHTO   H51 2453   8.073   6.234   1.889 -0.1481 -1.6217  0.2573
    6CHTO   C34 2454   8.013   6.096   2.043 -0.0216  0.5957 -0.1993
    6CHTO   O23 2455   7.998   6.073   2.183  0.1263 -0.7004  0.3814
    6CHTO   H38 2456   7.914   6.099   2.217  0.9764 -1.0570  2.8382
    6CHTO   O16 2457   7.836   6.512   1.985  0.2626 -0.0517  0.0912
    6CHTO   C24 2458   7.724   6.508   1.870  0.6000 -0.2812 -0.1820
    6CHTO   H52 2459   7.744   6.425   1.802 -0.0799 -0.8982  0.3571
    6CHTO   C26 2460   7.723   6.639   1.788 -0.6607  0.6452 -0.1640
    6CHTO   H54 2461   7.731   6.718   1.866 -0.2200 -0.3225  0.7869
    6CHTO   O20 2462   7.841   6.633   1.708 -0.1465  1.1368 -0.1551
    6CHTO   H36 2463   7.848   6.712   1.656 -0.4927  0.2026 -1.6480
    6CHTO   C30 2464   7.597   6.678   1.704  0.0988 -0.1862 -0.2170
    6CHTO   H58 2465   7.584   6.613   1.616 -1.8431 -0.1777  0.0283
    6CHTO    N6 2466   7.596   6.820   1.658 -0.2521  0.2533  0.0821
    6CHTO   H45 2467   7.683   6.834   1.596 -1.8967 -0.1401 -2.3576
    6CHTO   H46 2468   7.606   6.885   1.744 -1.6916  1.6586 -0.7879
    6CHTO   C33 2469   7.478   6.637   1.794 -1.1800 -0.0998 -0.1761
    6CHTO   H61 2470   7.480   6.697   1.886 -3.4422 -3.0318  1.8694
    6CHTO   O18 2471   7.480   6.498   1.836  0.2695 -0.1142 -0.1311
    6CHTO   C28 2472   7.591   6.476   1.932  0.7233 -0.8649  0.0143
    6CHTO   H56 2473   7.580   6.527   2.028  0.0580  0.9128 -0.9721
    6CHTO   C35 2474   7.595   6.333   1.988  0.1905 -0.0414 -0.6271
    6CHTO   O24 2475   7.599   6.227   1.885 -0.2482 -0.6672  0.1639
    6CHTO   H39 2476   7.512   6.193   1.881 -0.1522 -0.8918 -0.0028
    6CHTO    O9 2477   7.350   6.664   1.731 -0.0248  0.0888  0.3192
    6CHTO   C13 2478   7.232   6.729   1.815  0.4395 -0.7572  0.7548
    6CHTO   H26 2479   7.277   6.812   1.873  1.4461  0.5264 -1.7882
    6CHTO   C11 2480   7.174   6.612   1.909 -0.6448  0.0708  0.5119
    6CHTO   H24 2481   7.252   6.591   1.984 -0.6149 -0.5022  0.3252
    6CHTO    O8 2482   7.154   6.486   1.834 -0.0670 -0.2275 -0.1972
    6CHTO    H3 2483   7.163   6.492   1.741  3.5620 -0.3488  0.0890
    6CHTO    C9 2484   7.043   6.664   1.974 -0.1608  0.1340  0.0062
    6CHTO   H22 2485   7.068   6.760   2.022 -2.0500 -0.3244  1.9524
    6CHTO    N2 2486   6.991   6.570   2.075 -0.1512 -0.3752  0.8503
    6CHTO   H10 2487   7.067   6.494   2.090  1.7079  0.5939 -2.9685
    6CHTO   H11 2488   6.977   6.614   2.172 -2.5466  0.9781 -0.0831
    6CHTO    C7 2489   6.938   6.696   1.860  0.2685  0.4647  0.1768
    6CHTO   H20 2490   6.854   6.742   1.915 -1.7234 -2.2473 -0.4992
    6CHTO    O4 2491   6.978   6.790   1.758  0.6867  0.4081  0.5582
    6CHTO   C14 2492   7.117   6.784   1.712  0.0770 -0.2564  0.3376
    6CHTO   H27 2493   7.153   6.886   1.687 -0.4193 -0.1741 -0.0597
    6CHTO   C18 2494   7.110   6.709   1.573  0.6711  0.1704  0.3125
    6CHTO   O13 2495   7.056   6.785   1.468 -0.1631  0.1373  0.0764
    6CHTO    H7 2496   6.974   6.821   1.497  1.5173  2.8353  1.6086
    6CHTO    O2 2497   6.885   6.542   1.785 -1.1561 -0.0084 -0.5288
    6CHTO    C1 2498   6.752   6.530   1.757  0.2354  1.0304  0.4238
    6CHTO   H14 2499   6.740   6.463   1.669  2.3321  0.4827  0.5222
    6CHTO    C2 2500   6.678   6.661   1.718  0.0753 -0.0111 -0.3729
    6CHTO   H15 2501   6.689   6.743   1.792 -1.6969 -2.5269  2.8099
    6CHTO    O6 2502   6.741   6.704   1.598  0.2190  0.5428  0.3430
    6CHTO    H1 2503   6.830   6.717   1.624 -0.3085  0.3775  2.3072
    6CHTO    C3 2504   6.529   6.617   1.683  0.6050 -0.1549  0.2496
    6CHTO   H16 2505   6.524   6.549   1.597  0.3584  0.0067  0.1357
    6CHTO    N1 2506   6.444   6.730   1.636 -0.3942 -0.9867 -0.7416
    6CHTO    H8 2507   6.493   6.825   1.654 -2.3323 -0.0305 -0.4598
    6CHTO    H9 2508   6.347   6.728   1.682  0.6260 -5.5692  1.5721
    6CHTO    C4 2509   6.463   6.540   1.802 -0.0105  0.3281 -0.2124
    6CHTO   H17 2510   6.461   6.607   1.887  2.0946  1.3419 -0.9278
    6CHTO    O1 2511   6.534   6.422   1.833  0.1244 -0.1711  0.6023
    6CHTO    C5 2512   6.674   6.452   1.865  0.1611  0.2340 -0.8528
    6CHTO   H18 2513   6.680   6.518   1.952 -1.2368 -1.0752  0.2720
    6CHTO   C16 2514   6.754   6.330   1.903 -0.2480 -0.0809 -0.5667
    6CHTO   O11 2515   6.768   6.225   1.811 -0.4881  0.3856  0.4646
    6CHTO    H5 2516   6.784   6.139   1.846  0.4027 -1.2397 -3.7319
    6CHTO    O3 2517   6.331   6.492   1.763 -0.2420 -0.3560 -0.2080
    6CHTO    C6 2518   6.244   6.472   1.873 -0.1135 -0.1596 -0.4077
    6CHTO   H19 2519   6.283   6.492   1.973  1.3339  1.6701 -1.3345
    6CHTO    C8 2520   6.125   6.577   1.851 -0.2458  0.6744 -0.6836
    6CHTO   H21 2521   6.093   6.573   1.747  1.3390 -0.4141 -1.1666
    6CHTO    O7 2522   6.190   6.706   1.870 -0.3172 -0.2844 -0.3147
    6CHTO    H2 2523   6.137   6.780   1.847  0.0359  0.7005  1.8830
    6CHTO   C12 2524   6.008   6.545   1.955 -0.1728  0.4079  0.1461
    6CHTO   H25 2525   6.047   6.553   2.058 -0.0188  0.4320  0.0853
    6CHTO    N3 2526   5.903   6.649   1.945 -0.0010 -0.1327  0.1798
    6CHTO   H12 2527   5.863   6.642   1.845 -1.9584 -0.5182  0.9720
    6CHTO   H13 2528   5.957   6.742   1.951 -0.8508  0.2958  1.3434
    6CHTO   C15 2529   5.960   6.396   1.926 -0.8055 -0.5907  0.5077
    6CHTO   H28 2530   5.921   6.376   1.826 -1.6039  1.5039  0.3864
    6CHTO   O10 2531   5.846   6.347   2.033 -0.5755  0.3704 -0.1735
    6CHTO    H4 2532   5.810   6.262   2.014  0.9756  0.1597 -2.3910
    6CHTO    O5 2533   6.069   6.312   1.958 -0.9786 -0.3897 -0.6191
    6CHTO   C10 2534   6.189   6.326   1.876  0.0399  0.7633  0.3986
    6CHTO   H23 2535   6.175   6.292   1.774 -0.4994 -1.6815  1.2433
    6CHTO   C17 2536   6.295   6.230   1.942 -0.2740  0.0369 -0.8556
    6CHTO   O12 2537   6.243   6.090   1.945  0.1625 -0.1893  0.2317
    6CHTO    H6 2538   6.202   6.076   2.028 -1.4510  1.9075 -0.1845
    7CHTO  H203 2539   5.277   2.703   2.289  0.2972 -0.1046 -1.7545
    7CHTO   O82 2540   5.327   2.624   2.296  0.4607  0.1726  0.5872
    7CHTO  C123 2541   5.466   2.650   2.273 -1.0965 -0.1118  0.6866
    7CHTO  H227 2542   5.479   2.751   2.317 -1.7499 -0.0612  0.7675
    7CHTO   O77 2543   5.537   2.542   2.343 -0.7090  0.0070 -0.0333
    7CHTO  C118 2544   5.666   2.578   2.379 -0.4436  0.4705 -0.3117
    7CHTO  H222 2545   5.660   2.682   2.414 -2.7193 -0.0681  0.9733
    7CHTO  C125 2546   5.718   2.490   2.499  0.0800 -0.4229  0.6581
    7CHTO   O84 2547   5.839   2.543   2.558  0.2831 -0.6091 -0.0870
    7CHTO  H205 2548   5.854   2.516   2.647 -1.0219 -2.4018 -0.3703
    7CHTO  C114 2549   5.745   2.570   2.250  0.2061  0.5667  0.8408
    7CHTO  H218 2550   5.759   2.466   2.221  0.4197  0.3044  1.8670
    7CHTO  C116 2551   5.676   2.653   2.128 -1.0510  0.3711 -1.0854
    7CHTO  H220 2552   5.699   2.762   2.136  0.8487 -0.0421 -0.7209
    7CHTO   O79 2553   5.742   2.615   2.005 -0.2681  0.0835 -0.3920
    7CHTO  H201 2554   5.795   2.538   2.011 -0.2538  0.1733  0.6906
    7CHTO  C120 2555   5.519   2.626   2.127  1.1698  0.0716 -0.0497
    7CHTO  H224 2556   5.491   2.523   2.097 -0.4946  0.0188  1.6138
    7CHTO   N21 2557   5.449   2.711   2.030  1.1293  0.6840 -0.0727
    7CHTO  H211 2558   5.358   2.662   2.001  1.0879 -0.5915  2.1226
    7CHTO  H212 2559   5.435   2.812   2.066  0.1959  0.1311  1.1393
    7CHTO   O75 2560   5.868   2.632   2.290 -0.6313  0.3352 -0.5800
    7CHTO  C112 2561   5.986   2.557   2.227  0.0657  0.2533  0.3088
    7CHTO  H216 2562   5.959   2.517   2.128  0.1234  1.2711 -0.1303
    7CHTO   O73 2563   6.017   2.454   2.324  0.2419 -0.2049  0.1332
    7CHTO  C113 2564   6.136   2.376   2.312  0.1273  1.0140 -0.2442
    7CHTO  H217 2565   6.127   2.314   2.220 -1.0506  1.9171 -0.7379
    7CHTO  C124 2566   6.150   2.282   2.434  0.9241 -0.3696 -0.2944
    7CHTO   O83 2567   6.035   2.196   2.446  0.1723 -0.7720  0.0115
    7CHTO  H204 2568   5.973   2.246   2.496 -0.6440  1.0787 -2.7252
    7CHTO  C109 2569   6.260   2.466   2.298  0.4937  0.4862  0.6757
    7CHTO  H213 2570   6.270   2.528   2.388  0.2558  0.8625  0.4452
    7CHTO  C110 2571   6.244   2.566   2.183  0.9403  0.0049  0.1732
    7CHTO  H214 2572   6.237   2.506   2.092 -1.5283 -0.7493  0.8400
    7CHTO   O78 2573   6.355   2.651   2.161 -0.0309 -0.0567  0.2781
    7CHTO  H200 2574   6.428   2.602   2.126  2.1351  3.6233 -0.6500
    7CHTO  C111 2575   6.110   2.656   2.206 -0.1760  0.6704 -0.7191
    7CHTO  H215 2576   6.118   2.716   2.298  0.2156  1.9684 -1.5880
    7CHTO   N19 2577   6.081   2.750   2.098  0.1477  0.3304  0.1365
    7CHTO  H207 2578   6.146   2.835   2.092 -0.8778  1.2688  1.9270
    7CHTO  H208 2579   5.988   2.795   2.129 -0.4962 -1.4004  0.7998
    7CHTO   O74 2580   6.377   2.373   2.284 -0.3804  0.0431  0.0777
    7CHTO  C115 2581   6.504   2.434   2.343  0.1975  0.0316 -1.3807
    7CHTO  H219 2582   6.513   2.541   2.320 -1.3432  0.4091 -0.3633
    7CHTO   O76 2583   6.503   2.431   2.504 -0.3915 -0.2185  0.2923
    7CHTO  C122 2584   6.515   2.298   2.557  0.2588  0.1423 -0.4395
    7CHTO  H226 2585   6.435   2.237   2.515  2.9197 -3.0175 -1.1055
    7CHTO  C126 2586   6.492   2.300   2.707 -0.2032  0.3806  0.2788
    7CHTO   O85 2587   6.537   2.199   2.790 -0.4723  0.2152 -0.4102
    7CHTO  H206 2588   6.628   2.186   2.769 -0.0615 -1.4498  2.1486
    7CHTO  C121 2589   6.658   2.242   2.512  0.8779 -0.6756  0.0788
    7CHTO  H225 2590   6.733   2.319   2.543  2.0711 -1.5101 -0.7103
    7CHTO   O81 2591   6.678   2.111   2.568 -0.0715  0.3784 -0.2090
    7CHTO  H202 2592   6.714   2.049   2.508 -0.1464 -0.6605  0.8022
    7CHTO  C119 2593   6.655   2.234   2.362  0.0269  0.3062 -0.0299
    7CHTO  H223 2594   6.757   2.203   2.342  0.2148  1.3224 -0.7190
    7CHTO  C117 2595   6.632   2.365   2.284  0.5607 -0.4469  0.1511
    7CHTO  H221 2596   6.618   2.359   2.176  2.0129  0.7715 -0.1351
    7CHTO   N20 2597   6.754   2.464   2.295 -0.1611 -0.3059 -0.0884
    7CHTO  H209 2598   6.731   2.546   2.362  0.5524  0.1530 -0.4038
    7CHTO  H210 2599   6.774   2.508   2.198  0.4362  0.7434  0.5028
    7CHTO   O80 2600   6.578   2.114   2.308  0.5886 -0.1240  0.1423
    7CHTO  C103 2601   6.613   2.048   2.173  0.5331  0.5443  0.6288
    7CHTO  H190 2602   6.609   2.119   2.090  0.6679  1.9712  1.8382
    7CHTO  C101 2603   6.752   1.976   2.166 -0.1552  0.0724 -0.6812
    7CHTO  H188 2604   6.773   1.951   2.270  1.3571 -1.9569 -1.4352
    7CHTO   O68 2605   6.849   2.074   2.129 -0.1202  0.1423  0.1375
    7CHTO  H168 2606   6.821   2.113   2.049 -0.5843  0.5339  0.4909
    7CHTO   C99 2607   6.758   1.843   2.070  0.1327 -0.1836  0.4273
    7CHTO  H186 2608   6.775   1.883   1.967 -0.7973 -2.4717 -0.6458
    7CHTO   N17 2609   6.877   1.765   2.102 -0.3242  0.1514  0.0297
    7CHTO  H174 2610   6.956   1.809   2.160  1.3992 -2.6003 -0.1354
    7CHTO  H175 2611   6.846   1.671   2.145  0.5230 -0.3040 -0.3520
    7CHTO   C97 2612   6.626   1.763   2.070  0.3335  0.0408 -0.3854
    7CHTO  H184 2613   6.628   1.724   2.173  1.3414  0.9514 -0.0407
    7CHTO   O64 2614   6.519   1.849   2.048 -0.2233 -0.4209  0.9361
    7CHTO  C104 2615   6.497   1.944   2.151  0.2569  0.5082 -0.2709
    7CHTO  H191 2616   6.486   1.888   2.243 -1.9263  1.0144 -0.1991
    7CHTO  C108 2617   6.360   2.014   2.120  0.2145 -0.1398 -0.3630
    7CHTO   O71 2618   6.255   1.918   2.133  0.5230 -0.0940 -0.1251
    7CHTO  H171 2619   6.227   1.915   2.223  0.4083  2.7662 -0.0159
    7CHTO   O62 2620   6.624   1.663   1.959 -0.5101  0.0986 -0.0623
    7CHTO   C91 2621   6.515   1.567   1.951  0.9978 -0.0444 -0.3744
    7CHTO  H178 2622   6.552   1.473   1.911 -1.6659 -1.3753  0.1665
    7CHTO   C92 2623   6.417   1.629   1.844 -1.0250 -0.4692 -0.5712
    7CHTO  H179 2624   6.398   1.737   1.854  1.2979  0.0478 -1.2564
    7CHTO   O66 2625   6.491   1.618   1.724  0.4315  0.2909  0.2513
    7CHTO  H166 2626   6.550   1.689   1.710  0.7096  0.3634  1.6847
    7CHTO   C93 2627   6.281   1.551   1.847 -0.7707 -0.1269  0.4944
    7CHTO  H180 2628   6.294   1.452   1.800  0.6845  0.0718  0.4370
    7CHTO   N16 2629   6.183   1.611   1.761 -0.3202  0.0315 -0.3727
    7CHTO  H172 2630   6.164   1.708   1.805  3.8394  0.2795  1.1552
    7CHTO  H173 2631   6.091   1.555   1.762  0.3217 -1.0431 -0.2494
    7CHTO   C94 2632   6.232   1.537   1.997 -0.2366 -0.1215  0.1112
    7CHTO  H181 2633   6.230   1.631   2.051 -2.6473 -0.8482  1.3529
    7CHTO   O61 2634   6.320   1.454   2.066 -0.2623  0.0446 -0.3833
    7CHTO   C95 2635   6.451   1.516   2.091  0.3850 -0.0137  0.1786
    7CHTO  H182 2636   6.436   1.600   2.160  2.7165  0.6817 -0.1080
    7CHTO  C106 2637   6.547   1.411   2.165 -0.0030  0.0523 -0.0242
    7CHTO   O69 2638   6.614   1.314   2.088  0.4193  0.7291 -0.2331
    7CHTO  H169 2639   6.669   1.345   2.018  0.9383  0.4126  0.0288
    7CHTO   O63 2640   6.087   1.478   2.017  1.0930 -0.2539  0.0093
    7CHTO   C96 2641   5.997   1.549   2.103  0.8598 -0.0616  0.1897
    7CHTO  H183 2642   5.989   1.654   2.075 -1.2804 -0.4720 -0.8260
    7CHTO   C98 2643   6.032   1.546   2.249 -0.3700 -0.2701  0.2900
    7CHTO  H185 2644   6.128   1.595   2.271  0.2160 -1.5457  0.5949
    7CHTO   O67 2645   5.931   1.628   2.318  0.0879  0.1363 -0.1496
    7CHTO  H167 2646   5.972   1.706   2.351 -0.6978  0.5834 -0.2075
    7CHTO  C102 2647   6.025   1.398   2.305  0.2085 -0.5512  0.0666
    7CHTO  H189 2648   6.006   1.411   2.412  2.3739  0.8583  0.3181
    7CHTO   N18 2649   6.143   1.307   2.297 -0.3035  0.1445 -0.9072
    7CHTO  H176 2650   6.211   1.322   2.380  0.8867 -0.5279 -1.7485
    7CHTO  H177 2651   6.198   1.306   2.204  1.9677  0.6900  0.3697
    7CHTO  C105 2652   5.902   1.328   2.244 -0.4005  0.6039 -0.1018
    7CHTO  H192 2653   5.936   1.265   2.162  0.1774  2.1387 -1.0743
    7CHTO   O65 2654   5.805   1.413   2.194 -0.0436  0.3294 -0.0141
    7CHTO  C100 2655   5.847   1.490   2.081 -0.5141 -0.1709  0.7923
    7CHTO  H187 2656   5.838   1.412   2.004 -0.2823  0.6273 -0.0522
    7CHTO  C107 2657   5.738   1.597   2.043 -0.0430  0.4106 -0.0296
    7CHTO   O70 2658   5.611   1.525   2.023  0.0196 -0.1839  0.4495
    7CHTO  H170 2659   5.542   1.587   2.036 -0.9442 -1.0870 -0.2932
    7CHTO   O57 2660   5.828   1.222   2.369  0.2765  0.2080  0.3627
    7CHTO   C85 2661   5.855   1.081   2.381  0.7235 -0.2994 -0.4600
    7CHTO  H157 2662   5.922   1.059   2.294 -0.8198  0.4011 -1.8487
    7CHTO   C83 2663   5.718   1.010   2.348  0.2874 -0.3562  0.4266
    7CHTO  H155 2664   5.690   1.042   2.248 -1.7876 -0.2785  0.9954
    7CHTO   O56 2665   5.620   1.048   2.446 -0.4410 -0.6017 -0.3290
    7CHTO  H135 2666   5.602   1.140   2.441  0.4279 -0.2838  1.9801
    7CHTO   C81 2667   5.742   0.859   2.361  0.1891  0.1585  0.7731
    7CHTO  H153 2668   5.813   0.833   2.282  0.0029 -0.8737  0.9328
    7CHTO   N14 2669   5.625   0.782   2.329  0.4956  0.3099  0.1781
    7CHTO  H141 2670   5.644   0.677   2.332 -0.4440  0.1812  2.6766
    7CHTO  H142 2671   5.595   0.810   2.230 -0.8077 -0.5957  0.3073
    7CHTO   C79 2672   5.806   0.808   2.502 -0.2637  0.2038  0.2135
    7CHTO  H151 2673   5.837   0.704   2.487 -0.2922 -0.0261  1.6632
    7CHTO   O52 2674   5.923   0.884   2.531 -0.2247 -0.4118 -0.0221
    7CHTO   C86 2675   5.910   1.025   2.518  0.2247 -0.0362  0.2766
    7CHTO  H158 2676   5.839   1.051   2.599  0.0310  0.9025 -0.1931
    7CHTO   C90 2677   6.046   1.087   2.549  0.2579  0.4309 -0.1551
    7CHTO   O60 2678   6.082   1.067   2.687  0.0677 -0.1887 -0.2358
    7CHTO  H138 2679   6.086   1.149   2.732  0.7701 -0.2717 -0.1368
    7CHTO   O50 2680   5.716   0.808   2.616 -0.0917 -0.1721  0.1637
    7CHTO   C73 2681   5.721   0.686   2.694  0.2025  0.5451 -0.2470
    7CHTO  H145 2682   5.824   0.649   2.698  0.5264  1.5567  0.8917
    7CHTO   C74 2683   5.631   0.573   2.638 -0.6654  0.5589  0.2750
    7CHTO  H146 2684   5.673   0.549   2.539  0.9222 -0.9325  1.2716
    7CHTO   O54 2685   5.648   0.453   2.723  0.2413  0.5032  0.5421
    7CHTO  H133 2686   5.577   0.394   2.710  2.3223 -1.4302 -2.6495
    7CHTO   C75 2687   5.487   0.637   2.634 -0.3669 -0.3012  0.1964
    7CHTO  H147 2688   5.495   0.732   2.579 -0.4960  1.2410  2.7456
    7CHTO   N13 2689   5.387   0.545   2.574 -0.0550 -0.6650 -0.4493
    7CHTO  H139 2690   5.421   0.518   2.475 -4.3969 -1.5532 -1.8024
    7CHTO  H140 2691   5.292   0.593   2.556  0.9071  1.7778  0.7557
    7CHTO   C76 2692   5.441   0.672   2.780 -0.2488 -0.2347 -0.9290
    7CHTO  H148 2693   5.440   0.584   2.845  1.4618  0.5551  0.1988
    7CHTO   O49 2694   5.539   0.761   2.846  0.0681  0.6500  0.1396
    7CHTO   C77 2695   5.673   0.717   2.842  0.1547  0.1406 -0.4277
    7CHTO  H149 2696   5.689   0.628   2.903  1.0475 -0.1832 -1.1301
    7CHTO   C88 2697   5.768   0.812   2.909 -0.2040 -0.2552  1.2731
    7CHTO   O58 2698   5.725   0.843   3.048  0.1418  0.0969 -0.9310
    7CHTO  H136 2699   5.782   0.811   3.115 -0.9691  1.1249  0.5443
    7CHTO   O51 2700   5.314   0.766   2.784 -0.2274 -0.0242 -0.3553
    7CHTO   C78 2701   5.261   0.793   2.923 -0.6496  0.0054  0.2590
    7CHTO  H150 2702   5.340   0.761   2.994  1.3671  0.3090 -1.7871
    7CHTO   C80 2703   5.127   0.728   2.956 -0.1583 -0.1090  0.2197
    7CHTO  H152 2704   5.048   0.764   2.888 -0.8489 -2.1917 -0.1150
    7CHTO   O55 2705   5.131   0.584   2.933  0.3575  0.4008  1.0555
    7CHTO  H134 2706   5.192   0.530   2.978  0.8057 -0.1212 -0.1456
    7CHTO   C84 2707   5.080   0.754   3.111 -0.6315  0.2538 -0.5054
    7CHTO  H156 2708   5.171   0.734   3.168 -0.9627 -0.1533 -0.1224
    7CHTO   N15 2709   4.960   0.684   3.160 -0.2846  0.2045  0.0008
    7CHTO  H143 2710   4.921   0.635   3.073  1.0285 -2.0027  0.6122
    7CHTO  H144 2711   4.975   0.614   3.239 -0.5796 -1.4243 -1.3453
    7CHTO   C87 2712   5.066   0.904   3.130  0.0908 -0.5270  0.3304
    7CHTO  H159 2713   4.982   0.949   3.076 -1.1896 -2.0666  0.9968
    7CHTO   O53 2714   5.208   0.975   3.080 -0.3950 -0.3623 -0.1818
    7CHTO   C82 2715   5.247   0.949   2.944 -0.7810  0.8390 -0.1150
    7CHTO  H154 2716   5.170   1.000   2.886 -0.5180  2.0592  0.5996
    7CHTO   C89 2717   5.380   1.026   2.924  0.0418 -0.4547 -0.4718
    7CHTO   O59 2718   5.436   1.040   2.799  0.8396 -0.6426 -0.3179
    7CHTO  H137 2719   5.525   1.070   2.804  0.9154 -0.9764  0.4208
    7CHTO   O45 2720   5.030   0.956   3.262  0.4213 -0.8673  0.6162
    7CHTO   C67 2721   5.101   1.065   3.335  0.3754 -0.4742  0.7795
    7CHTO  H124 2722   5.206   1.061   3.305 -0.1783 -1.1050 -1.1725
    7CHTO   C65 2723   5.040   1.209   3.295  0.0910 -0.5096 -0.1248
    7CHTO  H122 2724   4.933   1.194   3.280 -0.2288  0.8638  0.7463
    7CHTO   O44 2725   5.091   1.239   3.167  0.1687 -0.1373  0.5316
    7CHTO  H102 2726   5.040   1.201   3.097  1.9299 -3.3334  0.8610
    7CHTO   C63 2727   5.056   1.309   3.413  0.5637  0.4503  0.5169
    7CHTO  H120 2728   4.974   1.295   3.483  0.4474  0.7989  0.4515
    7CHTO   N11 2729   5.046   1.460   3.380  0.1032  0.0750  0.3454
    7CHTO  H108 2730   5.023   1.474   3.276  1.1649 -0.6132  0.0021
    7CHTO  H109 2731   4.961   1.501   3.429  1.6584 -0.7067  3.8051
    7CHTO   C61 2732   5.192   1.280   3.492 -0.5163  0.3199  0.4248
    7CHTO  H118 2733   5.203   1.347   3.578 -0.4651 -0.3871  0.9727
    7CHTO   O40 2734   5.199   1.145   3.545 -0.2478  0.0846  0.1299
    7CHTO   C68 2735   5.108   1.050   3.493  0.2500  0.0406 -0.6035
    7CHTO  H125 2736   5.007   1.068   3.536  1.5459 -2.0690  3.6267
    7CHTO   C72 2737   5.149   0.913   3.523 -0.5376  0.0290 -0.7702
    7CHTO   O48 2738   5.139   0.878   3.659 -0.5012  0.6560 -0.8483
    7CHTO  H105 2739   5.134   0.785   3.668  0.0497  0.6198 -0.8628
    7CHTO   O38 2740   5.308   1.304   3.408  0.4771 -0.2249 -0.4957
    7CHTO   C55 2741   5.443   1.288   3.461 -0.5196 -0.4151 -0.8559
    7CHTO  H112 2742   5.430   1.207   3.535 -0.3405  1.1495  0.9383
    7CHTO   C56 2743   5.479   1.420   3.527  0.1748  0.0313 -0.2557
    7CHTO  H113 2744   5.464   1.502   3.455  0.6656 -0.0409 -0.4384
    7CHTO   O42 2745   5.402   1.449   3.648 -0.3689 -0.0395  0.1959
    7CHTO  H100 2746   5.309   1.436   3.643 -0.1997 -1.0703 -0.5774
    7CHTO   C57 2747   5.636   1.431   3.556 -0.3910  0.5176  0.7198
    7CHTO  H114 2748   5.652   1.371   3.646 -0.9250 -1.3225 -0.3821
    7CHTO   N10 2749   5.672   1.574   3.582  0.1317 -0.4356 -1.3128
    7CHTO  H106 2750   5.662   1.611   3.683  0.5405 -0.0098 -1.4265
    7CHTO  H107 2751   5.768   1.606   3.544  0.9142  0.1145  1.0534
    7CHTO   C58 2752   5.718   1.371   3.445  0.1198 -0.3313  0.4839
    7CHTO  H115 2753   5.708   1.438   3.357 -1.1926  0.9341  1.5739
    7CHTO   O37 2754   5.672   1.241   3.406 -0.1076 -0.3320  0.6298
    7CHTO   C59 2755   5.543   1.248   3.347  0.6757  0.2949  0.4017
    7CHTO  H116 2756   5.543   1.319   3.264 -3.3915  1.9284  1.7038
    7CHTO   C70 2757   5.495   1.117   3.288 -1.1622  0.3129  0.6086
    7CHTO   O46 2758   5.586   1.065   3.189 -0.3642  0.3075 -0.0625
    7CHTO  H103 2759   5.622   0.984   3.221 -0.4562  1.2366  2.4461
    7CHTO   O39 2760   5.889   1.367   3.506  0.1350  0.1834 -0.4239
    7CHTO   C60 2761   5.968   1.257   3.447  0.3212 -0.2370  0.2070
    7CHTO  H117 2762   5.917   1.167   3.481 -0.2167 -0.6813 -1.6782
    7CHTO   C62 2763   5.979   1.284   3.289  0.5829  0.8124 -0.2505
    7CHTO  H119 2764   5.878   1.289   3.244  1.1765 -1.0924 -1.8291
    7CHTO   O43 2765   6.045   1.413   3.273  0.3942  0.1415  0.0635
    7CHTO  H101 2766   5.985   1.479   3.246  0.4917  0.0710 -0.3261
    7CHTO   C66 2767   6.065   1.163   3.221  0.0691 -0.1484  0.0850
    7CHTO  H123 2768   6.022   1.071   3.260  2.6826 -2.7866 -2.9223
    7CHTO   N12 2769   6.045   1.168   3.074  0.6335 -0.6211 -0.0668
    7CHTO  H110 2770   6.068   1.266   3.034 -0.9100 -1.0426 -2.0436
    7CHTO  H111 2771   5.946   1.131   3.056 -0.1247  0.6304  1.4140
    7CHTO   C69 2772   6.208   1.170   3.269  0.1419 -0.0695 -0.2097
    7CHTO  H126 2773   6.251   1.268   3.238 -2.4566  0.6107 -1.8689
    7CHTO   O41 2774   6.206   1.159   3.427  0.0930  0.0176  0.7803
    7CHTO   C64 2775   6.110   1.249   3.506  0.2133 -0.3294 -0.7508
    7CHTO  H121 2776   6.151   1.352   3.508 -0.9680  0.1193  2.0760
    7CHTO   C71 2777   6.109   1.207   3.649  0.5017 -0.1396  0.5102
    7CHTO   O47 2778   6.102   1.066   3.670 -0.0592  0.1249  0.2824
    7CHTO  H104 2779   6.143   1.023   3.597  0.8859  1.1063  0.2244
    7CHTO   O34 2780   6.301   1.054   3.198 -0.3166 -0.5221 -0.2224
    7CHTO   C49 2781   6.381   0.977   3.152 -0.9450  0.4713  0.0008
    7CHTO   H91 2782   6.411   0.908   3.231 -0.4552 -1.9066 -2.1995
    7CHTO   C47 2783   6.504   1.055   3.103 -0.0182 -0.0733  0.1636
    7CHTO   H89 2784   6.554   1.091   3.196  0.9877 -2.7556  0.7154
    7CHTO   O33 2785   6.458   1.178   3.028 -0.0062  0.6309 -0.0895
    7CHTO   H70 2786   6.533   1.222   2.994  0.1876  0.5303  0.2080
    7CHTO   C45 2787   6.594   0.968   2.997 -0.3466 -0.1224 -0.5967
    7CHTO   H87 2788   6.566   1.005   2.898  0.0775 -1.7027 -1.3311
    7CHTO    N8 2789   6.735   1.003   3.016  0.1611 -0.2379 -0.0831
    7CHTO   H75 2790   6.766   1.091   2.963  2.7818 -0.5546  0.8594
    7CHTO   H76 2791   6.796   0.915   3.015 -1.3157 -1.3288  1.7968
    7CHTO   C43 2792   6.556   0.815   3.000 -0.0228 -0.4372 -0.4901
    7CHTO   H85 2793   6.623   0.765   2.929 -2.5706 -1.7612 -2.0392
    7CHTO   O29 2794   6.416   0.799   2.969  0.2353 -0.2254  0.8086
    7CHTO   C50 2795   6.327   0.883   3.034  0.6483  0.0164 -0.1562
    7CHTO   H92 2796   6.293   0.943   2.948 -2.1316 -2.1734 -0.6534
    7CHTO   C54 2797   6.211   0.800   3.086  0.2717  0.2638 -0.3113
    7CHTO   O36 2798   6.114   0.779   2.989 -0.5050 -0.0742  0.4341
    7CHTO   H72 2799   6.100   0.688   2.975 -1.0238  0.1806 -0.7680
    7CHTO   O27 2800   6.577   0.744   3.127  0.5081 -1.1327 -0.0351
    7CHTO   C37 2801   6.615   0.606   3.150 -0.0204 -0.6793  0.3469
    7CHTO   H79 2802   6.622   0.580   3.257 -0.4837 -0.4093  0.4432
    7CHTO   C38 2803   6.511   0.517   3.087  0.4168 -0.4067  0.2253
    7CHTO   H80 2804   6.505   0.538   2.979 -0.0639  4.2174  1.0406
    7CHTO   O31 2805   6.389   0.553   3.153  0.1710  0.2227  0.6625
    7CHTO   H68 2806   6.359   0.498   3.222 -3.1926  0.0975 -0.8042
    7CHTO   C39 2807   6.541   0.356   3.109  0.6367  0.5246 -0.3535
    7CHTO   H81 2808   6.532   0.326   3.213 -1.8227 -0.7773 -0.9228
    7CHTO    N7 2809   6.447   0.257   3.042 -0.1998  0.0500  0.6488
    7CHTO   H73 2810   6.432   0.174   3.110  3.3319 -1.1820 -0.0096
    7CHTO   H74 2811   6.360   0.311   3.006  0.2867 -0.5467 -1.4713
    7CHTO   C40 2812   6.684   0.321   3.068  0.0548 -0.3341  0.4278
    7CHTO   H82 2813   6.701   0.294   2.964  1.0061 -0.2258  0.5538
    7CHTO   O26 2814   6.776   0.431   3.109 -0.0200 -0.2135 -0.2921
    7CHTO   C41 2815   6.750   0.574   3.084 -0.4540  1.2413  0.4524
    7CHTO   H83 2816   6.756   0.586   2.975 -0.2638 -0.5548  0.2561
    7CHTO   C52 2817   6.859   0.659   3.151 -1.0104 -0.3754 -0.1313
    7CHTO   O35 2818   7.003   0.634   3.109 -0.2020  0.2382 -0.4825
    7CHTO   H71 2819   7.017   0.544   3.133 -0.0274  0.5607  0.6537
    7CHTO   O28 2820   6.746   0.225   3.152 -0.2650 -0.0073 -0.5039
    7CHTO   C42 2821   6.873   0.161   3.107 -0.0166 -0.2166 -0.4643
    7CHTO   H84 2822   6.879   0.080   3.179  1.4037 -0.8174 -1.2376
    7CHTO   C44 2823   7.008   0.231   3.121 -0.0420 -0.0550 -0.0044
    7CHTO   H86 2824   7.002   0.334   3.089 -0.4255  0.0127  0.2793
    7CHTO   O32 2825   7.013   0.256   3.260 -0.0148  0.2523  0.7764
    7CHTO   H69 2826   7.055   0.340   3.270 -0.3967  0.2200  2.8951
    7CHTO   C48 2827   7.138   0.170   3.062 -0.8903 -0.8432  0.5756
    7CHTO   H90 2828   7.172   0.081   3.116 -0.4853 -0.9691  0.1246
    7CHTO    N9 2829   7.257   0.265   3.069  0.2102  0.4485  0.2313
    7CHTO   H77 2830   7.212   0.357   3.034 -0.2297 -0.1058 -0.6859
    7CHTO   H78 2831   7.293   0.272   3.170  0.0515  1.4535  0.2249
    7CHTO   C51 2832   7.099   0.128   2.914  0.0107 -0.0907 -0.4954
    7CHTO   H93 2833   7.059   0.221   2.872 -1.0311 -2.0308 -3.9598
    7CHTO   O30 2834   7.002   0.024   2.927  0.1109  0.0470  0.0638
    7CHTO   C46 2835   6.866   0.088   2.966  0.4163  0.3606  0.2564
    7CHTO   H88 2836   6.841   0.163   2.892  0.0549  0.6898  0.7076
    7CHTO   C53 2837   6.750  -0.019   2.969 -0.0172 -0.2885  0.3953
    7CHTO   O72 2838   6.745  -0.109   3.075  0.4101  0.2003  0.2290
    7CHTO  H199 2839   6.704  -0.062   3.145 -2.8298 -0.5407 -1.0720
    7CHTO   O22 2840   7.203   0.066   2.831  0.7097  0.5974 -0.1283
    7CHTO   C31 2841   7.197   0.077   2.688 -1.0869 -0.1736 -0.2679
    7CHTO   H59 2842   7.294   0.041   2.650 -0.8175 -2.0816  2.1039
    7CHTO   C29 2843   7.086  -0.003   2.620  0.4196  0.1861  0.1288
    7CHTO   H57 2844   6.997   0.034   2.673  1.1456  1.7563  0.2910
    7CHTO   O21 2845   7.111  -0.144   2.655 -0.0354 -0.0694  0.2066
    7CHTO   H37 2846   7.049  -0.174   2.719 -0.3516 -0.9721 -0.5046
    7CHTO   C27 2847   7.066   0.021   2.465 -0.0269  0.7174 -0.0736
    7CHTO   H55 2848   7.160  -0.009   2.416  0.6776 -3.2895  3.4171
    7CHTO    N5 2849   6.951  -0.053   2.400 -0.3200 -0.7456 -0.3427
    7CHTO   H43 2850   6.959  -0.033   2.294  2.4756 -1.5440 -0.3230
    7CHTO   H44 2851   6.965  -0.160   2.408  0.2608 -0.5359  1.7518
    7CHTO   C25 2852   7.071   0.174   2.430  0.1857 -0.3872  0.6364
    7CHTO   H53 2853   6.981   0.216   2.479  0.4551 -0.6716  1.3774
    7CHTO   O17 2854   7.193   0.233   2.489  0.3736 -0.1410 -0.1371
    7CHTO   C32 2855   7.184   0.230   2.631 -0.0770 -0.4644 -0.3977
    7CHTO   H60 2856   7.105   0.283   2.685  0.4421 -1.2768  1.1893
    7CHTO   C36 2857   7.294   0.325   2.687 -0.8694 -0.2441 -0.1366
    7CHTO   O25 2858   7.294   0.455   2.629 -0.1309  0.6174 -0.5720
    7CHTO   H40 2859   7.221   0.476   2.574 -0.6970  0.2194  0.0283
    7CHTO   O15 2860   7.063   0.202   2.273 -0.6925  0.1036 -0.5603
    7CHTO   C19 2861   7.044   0.310   2.172  0.9601 -0.0190 -0.3103
    7CHTO   H47 2862   7.046   0.254   2.077 -1.4133  0.4335 -0.6443
    7CHTO   C20 2863   6.913   0.388   2.176 -0.0097  0.1807  0.1259
    7CHTO   H48 2864   6.902   0.440   2.273 -1.1194  0.2736 -0.0408
    7CHTO   O19 2865   6.809   0.292   2.162 -0.1424  0.3092 -0.4600
    7CHTO   H35 2866   6.793   0.247   2.242  1.5154  2.4748  1.1602
    7CHTO   C21 2867   6.911   0.503   2.063  0.2235  0.7186 -0.2914
    7CHTO   H49 2868   6.925   0.455   1.966  3.2303 -1.6699  1.2326
    7CHTO    N4 2869   6.782   0.576   2.049  0.5862 -0.1784  0.6202
    7CHTO   H41 2870   6.741   0.585   2.148  2.7209  0.5301  1.4773
    7CHTO   H42 2871   6.708   0.530   1.985  2.6617 -3.2312  0.2763
    7CHTO   C22 2872   7.030   0.593   2.087  0.0067  0.8183 -0.0040
    7CHTO   H50 2873   7.012   0.642   2.183 -0.8541  0.6242 -0.0676
    7CHTO   O14 2874   7.155   0.520   2.078 -0.1012 -0.6368 -0.1342
    7CHTO   C23 2875   7.170   0.410   2.171 -0.9644  0.3190 -0.1191
    7CHTO   H51 2876   7.186   0.454   2.271 -1.0034  0.1361 -0.0328
    7CHTO   C34 2877   7.302   0.346   2.129 -0.0992  0.3019 -0.1310
    7CHTO   O23 2878   7.332   0.233   2.209 -0.4141  0.0266  0.3061
    7CHTO   H38 2879   7.277   0.158   2.199  1.0519 -0.8150 -1.6684
    7CHTO   O16 2880   7.053   0.679   1.975  0.2991 -0.5041  0.1122
    7CHTO   C24 2881   7.062   0.838   2.021  0.3238 -0.0870 -0.3066
    7CHTO   H52 2882   7.024   0.852   2.123 -1.1329 -0.6650 -0.7568
    7CHTO   C26 2883   6.973   0.924   1.934 -0.3062 -0.0967  1.0078
    7CHTO   H54 2884   7.000   0.902   1.829  1.4192 -2.5901  1.9395
    7CHTO   O20 2885   6.830   0.895   1.947  0.5176  0.3969 -0.3933
    7CHTO   H36 2886   6.818   0.803   1.952  0.2759  0.3794 -1.1715
    7CHTO   C30 2887   7.000   1.076   1.963  0.6637  0.4615  0.6637
    7CHTO   H58 2888   6.957   1.109   2.059  0.9480 -0.2603  1.0364
    7CHTO    N6 2889   6.928   1.169   1.868 -0.0120  0.3066 -0.4724
    7CHTO   H45 2890   6.826   1.170   1.903  0.5919  0.4797  1.3502
    7CHTO   H46 2891   6.932   1.145   1.763  1.0728 -0.8373 -0.1828
    7CHTO   C33 2892   7.147   1.110   1.972 -0.3652  0.5826 -0.0734
    7CHTO   H61 2893   7.187   1.098   1.870  2.3723  1.0818  0.8799
    7CHTO   O18 2894   7.213   1.012   2.060  0.4895 -0.1131  0.3089
    7CHTO   C28 2895   7.206   0.885   2.012  0.7045 -1.3485  0.4428
    7CHTO   H56 2896   7.232   0.871   1.907 -0.6857  0.4289 -0.1557
    7CHTO   C35 2897   7.306   0.793   2.091  0.2567 -0.0372  0.5135
    7CHTO   O24 2898   7.371   0.682   2.018  0.0963 -0.1780 -0.0071
    7CHTO   H39 2899   7.322   0.602   2.027 -1.4102  0.7203 -0.1365
    7CHTO    O9 2900   7.182   1.242   2.010  0.2122 -0.1174  0.0755
    7CHTO   C13 2901   7.340   1.279   1.975  0.0645 -0.3872  0.0303
    7CHTO   H26 2902   7.379   1.215   1.893  0.5575 -0.2599  0.1698
    7CHTO   C11 2903   7.428   1.271   2.105  0.6587  0.4293  0.2110
    7CHTO   H24 2904   7.422   1.167   2.139  0.1882  0.1257 -0.7911
    7CHTO    O8 2905   7.359   1.340   2.210  0.0711 -0.2445  0.8433
    7CHTO    H3 2906   7.390   1.428   2.204  0.5624 -0.4760 -0.2266
    7CHTO    C9 2907   7.575   1.319   2.070 -0.4843  1.0017 -0.6474
    7CHTO   H22 2908   7.604   1.253   1.987 -1.3025  0.5466 -0.5734
    7CHTO    N2 2909   7.666   1.300   2.182 -0.6965 -0.3134  0.5105
    7CHTO   H10 2910   7.649   1.377   2.256 -0.9696  0.4055 -0.2938
    7CHTO   H11 2911   7.770   1.291   2.153 -0.8397  1.7311 -0.7978
    7CHTO    C7 2912   7.570   1.464   2.010 -0.3861 -0.4321  0.4060
    7CHTO   H20 2913   7.667   1.481   1.958 -0.0186 -2.9633  0.1613
    7CHTO    O4 2914   7.481   1.475   1.906 -0.5931 -0.8189 -0.1250
    7CHTO   C14 2915   7.349   1.422   1.917 -0.5454 -0.1897 -0.4789
    7CHTO   H27 2916   7.313   1.408   1.814  0.6904 -1.0043 -0.8141
    7CHTO   C18 2917   7.267   1.524   1.990 -0.0638 -0.2649  0.8523
    7CHTO   O13 2918   7.227   1.636   1.911  0.1187  0.0249  0.3597
    7CHTO    H7 2919   7.134   1.643   1.916  0.0217  0.1043 -1.1104
    7CHTO    O2 2920   7.554   1.599   2.125 -0.2422 -0.3962 -0.0865
    7CHTO    C1 2921   7.602   1.732   2.088  0.4823  0.8214 -0.4167
    7CHTO   H14 2922   7.593   1.758   1.981  0.3173 -0.3562 -0.6921
    7CHTO    C2 2923   7.755   1.745   2.126 -0.3443  0.6169 -0.4592
    7CHTO   H15 2924   7.757   1.712   2.231  1.6456  0.3912 -0.5474
    7CHTO    O6 2925   7.835   1.667   2.042 -0.5919  0.6608  0.3446
    7CHTO    H1 2926   7.911   1.634   2.086 -2.4652 -2.6137  1.2172
    7CHTO    C3 2927   7.794   1.900   2.126 -0.6740 -0.3919  0.5798
    7CHTO   H16 2928   7.776   1.939   2.025  3.4767  0.8778  0.2312
    7CHTO    N1 2929   7.938   1.925   2.164 -0.1405 -0.0832  0.0766
    7CHTO    H8 2930   7.967   2.028   2.151 -0.6394 -0.0686 -1.0699
    7CHTO    H9 2931   7.997   1.861   2.100  0.8015  2.5864 -1.8602
    7CHTO    C4 2932   7.696   1.975   2.221  0.1026  0.0255 -0.0872
    7CHTO   H17 2933   7.711   1.937   2.322  0.2751  0.2070 -0.0441
    7CHTO    O1 2934   7.560   1.963   2.172 -0.2014 -0.0222 -0.0733
    7CHTO    C5 2935   7.522   1.825   2.173  0.0931  0.0997  0.0587
    7CHTO   H18 2936   7.532   1.786   2.274 -1.4089  0.2616  0.2877
    7CHTO   C16 2937   7.369   1.818   2.139 -0.9546  0.4439 -0.5852
    7CHTO   O11 2938   7.299   1.884   2.244  0.6639 -0.3550  0.2329
    7CHTO    H5 2939   7.294   1.828   2.319 -0.5762  0.3014  0.6686
    7CHTO    O3 2940   7.724   2.116   2.225 -0.5466  0.4728  0.1949
    7CHTO    C6 2941   7.791   2.165   2.351 -0.2004  0.1175  0.5718
    7CHTO   H19 2942   7.849   2.087   2.400 -0.2494 -0.0414  0.3746
    7CHTO    C8 2943   7.886   2.285   2.310 -0.1622 -0.7367 -0.3531
    7CHTO   H21 2944   7.828   2.368   2.268  0.9086  0.6327  0.8261
    7CHTO    O7 2945   7.976   2.246   2.204  0.2828  0.1692 -0.6005
    7CHTO    H2 2946   8.029   2.318   2.177  0.2362 -0.0389 -1.2483
    7CHTO   C12 2947   7.965   2.338   2.446  0.9510  0.8423  0.3756
    7CHTO   H25 2948   8.036   2.254   2.463  2.0718  1.9246  1.1566
    7CHTO    N3 2949   8.044   2.458   2.421  0.2844  0.6185 -0.8018
    7CHTO   H12 2950   8.100   2.488   2.508  1.6489  2.3719 -2.2465
    7CHTO   H13 2951   8.116   2.429   2.346  1.0514 -0.0103  0.1754
    7CHTO   C15 2952   7.865   2.354   2.565  0.3768  0.1175  0.1484
    7CHTO   H28 2953   7.812   2.449   2.563  0.9696  0.4328 -1.4294
    7CHTO   O10 2954   7.927   2.348   2.691 -0.5015 -0.0894  0.2060
    7CHTO    H4 2955   7.959   2.431   2.721  1.0493 -1.7373  3.4722
    7CHTO    O5 2956   7.775   2.245   2.575  0.6349 -0.4062  0.6290
    7CHTO   C10 2957   7.693   2.224   2.456 -0.2430  0.5201 -0.0234
    7CHTO   H23 2958   7.653   2.319   2.418  0.2732  1.2497  1.2168
    7CHTO   C17 2959   7.580   2.129   2.489 -0.4611 -0.4395 -0.3253
    7CHTO   O12 2960   7.462   2.144   2.406 -0.1897 -0.1750  0.4375
    7CHTO    H6 2961   7.476   2.115   2.318 -1.3046 -0.0903  0.2248
    8CHTO  H203 2962   7.640   8.702   0.973  0.0608  0.9642 -1.0642
    8CHTO   O82 2963   7.592   8.778   1.001 -0.2339  0.3127  0.2712
    8CHTO  C123 2964   7.551   8.785   1.140 -0.4807  0.9349 -0.0021
    8CHTO  H227 2965   7.631   8.833   1.197  2.4548 -1.6944 -1.7415
    8CHTO   O77 2966   7.445   8.877   1.134 -0.1889  0.2026 -0.0885
    8CHTO  C118 2967   7.376   8.903   1.262  0.2168  0.0901 -0.3303
    8CHTO  H222 2968   7.454   8.922   1.337  0.1068  1.6728 -0.5895
    8CHTO  C125 2969   7.287   9.026   1.248  0.2203  0.1910 -0.0689
    8CHTO   O84 2970   7.352   9.147   1.221  0.4723 -0.1919 -0.1783
    8CHTO  H205 2971   7.351   9.196   1.301 -0.5283  0.4354 -0.5623
    8CHTO  C114 2972   7.302   8.779   1.313  0.1082 -0.2555 -0.1190
    8CHTO  H218 2973   7.227   8.753   1.238 -1.5880 -0.2808  1.5347
    8CHTO  C116 2974   7.406   8.663   1.326  0.3145 -1.2817 -0.0549
    8CHTO  H220 2975   7.452   8.673   1.426  0.4350 -0.5000 -0.1870
    8CHTO   O79 2976   7.330   8.546   1.346 -0.2316  0.3801  0.1473
    8CHTO  H201 2977   7.273   8.536   1.272 -0.2700  4.3194 -0.4198
    8CHTO  C120 2978   7.504   8.648   1.202  0.1929 -1.7435  0.1627
    8CHTO  H224 2979   7.451   8.592   1.122 -0.7111  0.2156 -0.6261
    8CHTO   N21 2980   7.630   8.572   1.227  0.1791 -0.0462  0.0315
    8CHTO  H211 2981   7.667   8.601   1.324  0.5966  0.8797 -0.4075
    8CHTO  H212 2982   7.606   8.467   1.236 -1.1025  0.2887  0.7198
    8CHTO   O75 2983   7.235   8.819   1.435 -0.0420 -0.7132  0.2561
    8CHTO  C112 2984   7.070   8.769   1.430  0.0936 -0.1748  0.3305
    8CHTO  H216 2985   7.060   8.673   1.376  1.7225 -0.7550  1.0178
    8CHTO   O73 2986   6.995   8.870   1.372 -0.1479 -0.1484  0.3408
    8CHTO  C113 2987   6.860   8.845   1.338  0.9619 -1.1202 -0.5195
    8CHTO  H217 2988   6.850   8.748   1.286  0.4538 -1.7136  0.6709
    8CHTO  C124 2989   6.825   8.954   1.235 -0.1456 -0.1842 -0.1388
    8CHTO   O83 2990   6.699   8.924   1.172  0.2389  0.3890 -0.1790
    8CHTO  H204 2991   6.663   9.008   1.150  1.8531  1.3592  0.7847
    8CHTO  C109 2992   6.800   8.862   1.490 -0.0181  0.2631  0.6169
    8CHTO  H213 2993   6.841   8.955   1.531 -2.7527  2.3406 -1.2165
    8CHTO  C110 2994   6.858   8.744   1.579  0.4648 -1.0336 -0.2339
    8CHTO  H214 2995   6.814   8.648   1.553 -0.4441 -0.5921 -0.3384
    8CHTO   O78 2996   6.818   8.767   1.717 -0.3738 -0.0876 -0.2583
    8CHTO  H200 2997   6.733   8.736   1.744  1.0790 -1.8219  2.5332
    8CHTO  C111 2998   7.013   8.746   1.576  0.5272  0.5727  0.1580
    8CHTO  H215 2999   7.045   8.827   1.643  2.8785  1.6417 -2.1469
    8CHTO   N19 3000   7.082   8.629   1.625 -0.1080  0.1852 -0.4793
    8CHTO  H207 3001   7.114   8.621   1.727  0.1049 -2.3497 -0.7187
    8CHTO  H208 3002   7.078   8.545   1.557  0.1627  0.5233 -0.9202
    8CHTO   O74 3003   6.656   8.871   1.506 -0.2291 -0.8579 -0.7882
    8CHTO  C115 3004   6.567   8.735   1.464 -0.2531 -0.7110  0.0658
    8CHTO  H219 3005   6.624   8.673   1.395 -0.5523  1.1062 -1.8696
    8CHTO   O76 3006   6.533   8.636   1.599 -0.0646  0.5723  0.0938
    8CHTO  C122 3007   6.467   8.722   1.695  0.7082  0.2503 -1.3243
    8CHTO  H226 3008   6.539   8.800   1.720 -0.5843  0.3013  2.4832
    8CHTO  C126 3009   6.460   8.633   1.827  0.3311  0.0829  0.1582
    8CHTO   O85 3010   6.412   8.688   1.949  0.6470  0.7637  0.2897
    8CHTO  H206 3011   6.321   8.666   1.954  0.6155  0.0805 -2.7037
    8CHTO  C121 3012   6.329   8.777   1.636  0.1593  0.4077 -0.0819
    8CHTO  H225 3013   6.255   8.698   1.613 -0.7727  1.0269  0.7571
    8CHTO   O81 3014   6.258   8.855   1.733  0.0115 -0.0411 -0.1595
    8CHTO  H202 3015   6.165   8.855   1.718 -0.1436 -0.1728  0.7710
    8CHTO  C119 3016   6.356   8.862   1.508 -0.6516  0.0252  0.6369
    8CHTO  H223 3017   6.259   8.879   1.462 -0.6819 -1.8667 -0.0526
    8CHTO  C117 3018   6.433   8.790   1.396 -0.2805  0.0254 -0.4880
    8CHTO  H221 3019   6.467   8.847   1.309  0.7237  1.5613  0.8735
    8CHTO   N20 3020   6.345   8.681   1.336  0.3178 -0.2107 -0.4740
    8CHTO  H209 3021   6.361   8.595   1.400 -2.6088 -0.2116  0.3207
    8CHTO  H210 3022   6.238   8.695   1.331  0.2281 -0.8285 -0.3284
    8CHTO   O80 3023   6.399   8.991   1.540 -0.1250 -0.3067  0.3141
    8CHTO  C103 3024   6.298   9.124   1.503  0.2355 -0.4724 -0.0398
    8CHTO  H190 3025   6.205   9.080   1.466 -0.0598  0.6319 -0.6376
    8CHTO  C101 3026   6.270   9.244   1.613  0.0128 -0.2142 -0.1869
    8CHTO  H188 3027   6.366   9.278   1.650 -0.6682  1.0219  0.4789
    8CHTO   O68 3028   6.194   9.189   1.743 -0.0206 -0.6719 -0.2470
    8CHTO  H168 3029   6.200   9.097   1.761 -3.6130 -0.7975  0.7026
    8CHTO   C99 3030   6.191   9.358   1.542  0.0493 -0.8170  0.2645
    8CHTO  H186 3031   6.092   9.339   1.496  0.4848 -1.1730 -0.5334
    8CHTO   N17 3032   6.168   9.476   1.642  0.0682  0.0025  0.7950
    8CHTO  H174 3033   6.196   9.440   1.739 -0.0329  0.1120  0.8666
    8CHTO  H175 3034   6.069   9.520   1.636  0.1179 -0.1305 -1.3817
    8CHTO   C97 3035   6.279   9.411   1.422 -0.4278  0.0332  0.0070
    8CHTO  H184 3036   6.377   9.440   1.462  0.5687 -0.3718 -2.0606
    8CHTO   O64 3037   6.291   9.299   1.330  0.0899 -0.0274  0.1906
    8CHTO  C104 3038   6.368   9.187   1.373 -0.0975  0.1172 -0.2992
    8CHTO  H191 3039   6.471   9.218   1.393 -0.3057  0.8422 -0.3540
    8CHTO  C108 3040   6.372   9.083   1.259 -0.1156 -0.0415  0.0919
    8CHTO   O71 3041   6.409   9.141   1.136 -0.4882  0.3429 -0.4898
    8CHTO  H171 3042   6.338   9.134   1.074  0.6889  1.0330 -1.9583
    8CHTO   O62 3043   6.217   9.512   1.339 -0.2243  0.4852  0.4343
    8CHTO   C91 3044   6.297   9.613   1.274  0.0479  0.0779 -0.1462
    8CHTO  H178 3045   6.396   9.577   1.248 -0.3785 -1.3979  0.2085
    8CHTO   C92 3046   6.305   9.745   1.357 -0.7109  0.2039 -0.0415
    8CHTO  H179 3047   6.208   9.769   1.402 -0.3626 -1.1265  1.4542
    8CHTO   O66 3048   6.386   9.728   1.478 -0.1351 -0.0740  0.6283
    8CHTO  H166 3049   6.366   9.800   1.534 -1.6212  1.4542 -1.8205
    8CHTO   C93 3050   6.370   9.867   1.272 -0.5368  0.1330 -0.3715
    8CHTO  H180 3051   6.479   9.855   1.270 -0.2573  2.3383  0.0615
    8CHTO   N16 3052   6.345   9.998   1.335  0.3344  0.4404 -0.9088
    8CHTO  H172 3053   6.240  10.014   1.353  0.7682  1.4395  0.8913
    8CHTO  H173 3054   6.370  10.076   1.265 -3.4543  0.1912 -2.6534
    8CHTO   C94 3055   6.311   9.868   1.123  0.4413 -0.2823 -0.5161
    8CHTO  H181 3056   6.204   9.889   1.123  0.0647 -2.1509 -1.6431
    8CHTO   O61 3057   6.323   9.736   1.063 -0.2085 -0.6950 -0.1564
    8CHTO   C95 3058   6.239   9.641   1.131  0.2578  0.4256  0.7772
    8CHTO  H182 3059   6.136   9.676   1.138 -0.7328 -2.0882 -0.2081
    8CHTO  C106 3060   6.224   9.515   1.043 -0.3129  0.3073  0.0215
    8CHTO   O69 3061   6.353   9.467   0.998 -0.1231  0.2028 -0.0958
    8CHTO  H169 3062   6.362   9.380   0.963 -2.8246  0.8349 -2.5358
    8CHTO   O63 3063   6.387   9.965   1.033  0.5512  0.8016  0.1525
    8CHTO   C96 3064   6.335   9.971   0.889  0.1107 -0.2388 -0.3744
    8CHTO  H183 3065   6.266   9.888   0.873  2.2028 -2.1054 -0.0078
    8CHTO   C98 3066   6.435   9.949   0.765  0.0611 -0.3240 -0.8197
    8CHTO  H185 3067   6.509  10.029   0.772 -1.4766  1.0687 -0.1244
    8CHTO   O67 3068   6.501   9.832   0.789  0.1873 -0.2176  0.6035
    8CHTO  H167 3069   6.577   9.827   0.735 -0.1576  0.2085  0.0749
    8CHTO  C102 3070   6.364   9.937   0.627  0.8534 -0.4465 -0.3648
    8CHTO  H189 3071   6.299   9.849   0.638  1.7976 -0.9472  1.2042
    8CHTO   N18 3072   6.441   9.912   0.506 -0.0395  0.6294 -0.5217
    8CHTO  H176 3073   6.378   9.867   0.431 -1.5147  1.3955  0.2380
    8CHTO  H177 3074   6.482  10.005   0.470  0.8489  0.5833  0.3679
    8CHTO  C105 3075   6.271  10.066   0.613 -0.1104  0.4448  0.0979
    8CHTO  H192 3076   6.336  10.151   0.595 -2.1833  1.4290 -3.2376
    8CHTO   O65 3077   6.196  10.099   0.733 -0.2598  0.3109 -0.1627
    8CHTO  C100 3078   6.272  10.107   0.854  0.0932 -0.2444  0.1344
    8CHTO  H187 3079   6.351  10.183   0.847 -0.0987 -0.0445  0.1313
    8CHTO  C107 3080   6.175  10.159   0.963  0.8936 -0.7031  0.6991
    8CHTO   O70 3081   6.066  10.075   0.986  0.2051  0.3767  0.4871
    8CHTO  H170 3082   5.987  10.126   0.990 -1.6509 -2.4479  0.8184
    8CHTO   O57 3083   6.159  10.041   0.481 -0.0903  0.9431 -0.5364
    8CHTO   C85 3084   6.090  10.143   0.423  0.2310 -0.1878  0.3986
    8CHTO  H157 3085   6.166  10.212   0.381  1.0549 -1.8249 -0.8454
    8CHTO   C83 3086   6.013  10.231   0.521 -0.0050  0.0742  1.4847
    8CHTO  H155 3087   6.083  10.269   0.596  1.8961 -0.9102  0.2287
    8CHTO   O56 3088   5.920  10.154   0.592 -0.4233  0.6820 -0.2251
    8CHTO  H135 3089   5.953  10.137   0.678 -2.6104  2.6101  1.0636
    8CHTO   C81 3090   5.957  10.352   0.446 -0.2136 -0.3080 -0.4582
    8CHTO  H153 3091   6.044  10.402   0.403 -0.6135  0.2650 -0.5983
    8CHTO   N14 3092   5.900  10.460   0.540 -0.2740 -0.1120  0.1865
    8CHTO  H141 3093   5.824  10.428   0.608 -1.1199 -0.0572 -0.7272
    8CHTO  H142 3094   5.874  10.547   0.484  0.7156 -1.0447 -1.7644
    8CHTO   C79 3095   5.857  10.308   0.332  0.3313  1.1259 -0.5783
    8CHTO  H151 3096   5.841  10.396   0.270 -0.4405  1.6892  0.4024
    8CHTO   O52 3097   5.915  10.206   0.247  0.4037 -0.1584  0.4227
    8CHTO   C86 3098   5.983  10.097   0.311 -0.3064 -0.1448 -0.9524
    8CHTO  H158 3099   5.906  10.029   0.353  1.0166 -0.2751  1.3412
    8CHTO   C90 3100   6.057  10.006   0.209  0.0583 -0.1617  0.3654
    8CHTO   O60 3101   5.979   9.978   0.090  0.6808  0.6763 -0.2352
    8CHTO  H138 3102   5.894   9.942   0.107  0.8936  0.8304  1.1998
    8CHTO   O50 3103   5.730  10.254   0.383  0.1192 -0.1922  0.5324
    8CHTO   C73 3104   5.597  10.221   0.329 -0.3436 -0.4369  0.5285
    8CHTO  H145 3105   5.602  10.175   0.229  1.6096 -0.0060  0.4114
    8CHTO   C74 3106   5.512  10.346   0.326 -0.1688  0.1739  0.0466
    8CHTO  H146 3107   5.568  10.411   0.256 -0.0559 -1.6171 -1.5568
    8CHTO   O54 3108   5.384  10.321   0.264 -0.4877  0.4030 -0.6167
    8CHTO  H133 3109   5.322  10.392   0.268 -0.6301  0.2165  0.7717
    8CHTO   C75 3110   5.508  10.409   0.472  0.7237 -0.5192  0.7873
    8CHTO  H147 3111   5.610  10.435   0.504  2.4165 -1.5992 -3.3851
    8CHTO   N13 3112   5.436  10.541   0.478 -0.4049 -0.2997  0.3921
    8CHTO  H139 3113   5.332  10.519   0.458 -1.0473  3.9999 -1.5166
    8CHTO  H140 3114   5.475  10.605   0.400  0.2281  0.1897  1.1114
    8CHTO   C76 3115   5.450  10.301   0.574 -0.5473  0.0670  0.2480
    8CHTO  H148 3116   5.343  10.282   0.567 -0.5037 -1.2488  2.5823
    8CHTO   O49 3117   5.527  10.176   0.562  0.5724  0.6635  0.4072
    8CHTO   C77 3118   5.530  10.123   0.430  0.8262  0.1547  0.6280
    8CHTO  H149 3119   5.433  10.088   0.394 -1.4358  2.1707  4.4923
    8CHTO   C88 3120   5.609   9.992   0.429 -1.0024  0.0367 -0.1238
    8CHTO   O58 3121   5.599   9.927   0.292  0.2188  0.6973 -0.7696
    8CHTO  H136 3122   5.673   9.948   0.238 -0.6303 -0.6258 -2.5020
    8CHTO   O51 3123   5.480  10.355   0.728  0.3187  0.2705 -0.1172
    8CHTO   C78 3124   5.486  10.251   0.835 -0.5435  0.8862 -0.2152
    8CHTO  H150 3125   5.520  10.155   0.791 -0.9963  1.2656 -1.4178
    8CHTO   C80 3126   5.338  10.227   0.889 -0.0984  1.0316 -0.4856
    8CHTO  H152 3127   5.285  10.323   0.905 -0.3130  1.4730 -3.4826
    8CHTO   O55 3128   5.273  10.169   0.782 -0.0539 -0.8310  0.5634
    8CHTO  H134 3129   5.185  10.166   0.813 -0.3428  4.0604  0.6181
    8CHTO   C84 3130   5.337  10.143   1.022  0.9671 -0.5030  0.0244
    8CHTO  H156 3131   5.365  10.041   0.995  1.1402 -0.0518 -1.5194
    8CHTO   N15 3132   5.202  10.152   1.083  0.3696  0.0180 -0.2992
    8CHTO  H143 3133   5.130  10.208   1.028  1.0433 -0.0253 -1.2302
    8CHTO  H144 3134   5.191  10.176   1.187  2.0834 -0.1121 -0.0708
    8CHTO   C87 3135   5.450  10.188   1.116 -0.1303  0.6563 -0.5975
    8CHTO  H159 3136   5.426  10.270   1.184 -1.6360  0.2864 -0.6618
    8CHTO   O53 3137   5.586  10.212   1.050  0.2125 -0.1132  0.0040
    8CHTO   C82 3138   5.583  10.302   0.945 -0.1788  0.3085  0.1269
    8CHTO  H154 3139   5.547  10.398   0.984  1.2318  1.4487 -1.3461
    8CHTO   C89 3140   5.725  10.324   0.893 -0.2386 -0.3829  0.3148
    8CHTO   O59 3141   5.790  10.207   0.843 -0.5956  0.1477 -0.2496
    8CHTO  H137 3142   5.883  10.220   0.841 -0.1989 -2.5027 -1.3931
    8CHTO   O45 3143   5.463  10.073   1.238  0.0851 -0.0843  0.2255
    8CHTO   C67 3144   5.537   9.948   1.229  0.2621 -0.0014  0.0257
    8CHTO  H124 3145   5.509   9.896   1.137 -0.2914  0.6949 -0.1998
    8CHTO   C65 3146   5.696   9.951   1.233 -0.9003 -0.0437  0.1496
    8CHTO  H122 3147   5.722  10.054   1.257  1.9614 -1.1651  2.1271
    8CHTO   O44 3148   5.730   9.916   1.097 -0.0425 -0.0821 -0.0209
    8CHTO  H102 3149   5.822   9.922   1.079  0.2644 -1.7565  0.8662
    8CHTO   C63 3150   5.759   9.868   1.350  0.1336  0.4885 -0.4777
    8CHTO  H120 3151   5.743   9.920   1.445  1.9936  1.6458 -0.7848
    8CHTO   N11 3152   5.914   9.867   1.349  0.0271  0.3179 -0.4824
    8CHTO  H108 3153   5.949   9.853   1.249  0.7168 -2.4044  0.1169
    8CHTO  H109 3154   5.955   9.787   1.407  1.2433  0.5898 -0.9486
    8CHTO   C61 3155   5.686   9.728   1.358 -0.2724  0.2101  0.1031
    8CHTO  H118 3156   5.728   9.670   1.441  0.6891 -1.9619 -1.8592
    8CHTO   O40 3157   5.545   9.728   1.373 -0.3909 -0.2507  0.4828
    8CHTO   C68 3158   5.478   9.857   1.343  0.7332  0.0932 -0.0330
    8CHTO  H125 3159   5.492   9.908   1.441 -2.7614 -0.1515  0.6604
    8CHTO   C72 3160   5.323   9.831   1.337 -0.4132  0.2147 -0.1674
    8CHTO   O48 3161   5.284   9.793   1.466 -0.2218  0.4339 -0.0010
    8CHTO  H105 3162   5.296   9.702   1.489  1.4602  0.0855 -2.1072
    8CHTO   O38 3163   5.711   9.652   1.240 -0.3490  0.1212  0.2580
    8CHTO   C55 3164   5.690   9.510   1.253 -0.3274 -0.2555  0.5335
    8CHTO  H112 3165   5.614   9.479   1.326  1.0912 -0.3878  1.9958
    8CHTO   C56 3166   5.834   9.436   1.283  0.2187  0.4028  0.3277
    8CHTO  H113 3167   5.899   9.459   1.197  0.8234 -0.5216  0.5233
    8CHTO   O42 3168   5.894   9.489   1.395  0.3633 -0.4435 -0.4122
    8CHTO  H100 3169   5.949   9.420   1.429  2.2500  0.1233 -2.2074
    8CHTO   C57 3170   5.815   9.280   1.290  0.9298  0.7175 -0.0091
    8CHTO  H114 3171   5.764   9.267   1.385  0.4396  0.5248 -0.2969
    8CHTO   N10 3172   5.944   9.208   1.304 -0.2071  0.0736  0.5629
    8CHTO  H106 3173   5.922   9.110   1.263 -3.5539  0.7480  0.6173
    8CHTO  H107 3174   5.987   9.196   1.403  0.0349 -2.1196  0.2063
    8CHTO   C58 3175   5.720   9.226   1.180 -0.0780  0.6735  0.8925
    8CHTO  H115 3176   5.775   9.196   1.089 -0.0815  1.6807  0.5600
    8CHTO   O37 3177   5.605   9.310   1.141  0.1963 -0.3442  0.4092
    8CHTO   C59 3178   5.641   9.450   1.119 -0.4104  0.3484  0.4123
    8CHTO  H116 3179   5.714   9.455   1.038 -0.7963 -0.5480 -0.0024
    8CHTO   C70 3180   5.526   9.536   1.068  0.5885 -0.7528  0.4949
    8CHTO   O46 3181   5.396   9.496   1.094  0.3332  0.7793 -0.1758
    8CHTO  H103 3182   5.379   9.436   1.023 -1.0968 -1.4895  2.0147
    8CHTO   O39 3183   5.655   9.092   1.240  0.6200  0.2817 -0.5419
    8CHTO   C60 3184   5.509   9.095   1.286  0.4091 -0.1600  0.3158
    8CHTO  H117 3185   5.487   9.195   1.322  0.3738 -0.3647  0.8704
    8CHTO   C62 3186   5.416   9.045   1.173  0.1926 -0.3879  0.6462
    8CHTO  H119 3187   5.433   9.114   1.088 -1.3012  0.1325  0.7617
    8CHTO   O43 3188   5.456   8.918   1.122  0.1701 -0.9655  0.3681
    8CHTO  H101 3189   5.525   8.926   1.059 -0.0296 -1.4325  0.0915
    8CHTO   C66 3190   5.265   9.051   1.226  1.2042  0.1137 -0.4171
    8CHTO  H123 3191   5.243   9.151   1.265 -1.4053 -0.8210  0.6056
    8CHTO   N12 3192   5.164   9.019   1.127 -0.0276  0.3412 -0.1150
    8CHTO  H110 3193   5.065   9.048   1.160  0.4740  1.2829  0.5829
    8CHTO  H111 3194   5.161   8.912   1.113 -3.2447  0.6850 -2.6474
    8CHTO   C69 3195   5.243   8.958   1.354  0.0939 -0.5571  0.4819
    8CHTO  H126 3196   5.243   8.848   1.338  0.4900 -0.3847 -0.7412
    8CHTO   O41 3197   5.352   9.006   1.476  0.6566  0.0031  0.1835
    8CHTO   C64 3198   5.497   9.006   1.414 -0.1499  0.5993 -0.0809
    8CHTO  H121 3199   5.547   8.909   1.391  2.5668  1.6984  1.0227
    8CHTO   C71 3200   5.587   9.054   1.524  0.2711 -0.7158  0.3213
    8CHTO   O47 3201   5.586   8.956   1.632  0.2723  0.1087  0.1683
    8CHTO  H104 3202   5.674   8.931   1.654  0.7038 -0.0278 -1.6814
    8CHTO   O34 3203   5.101   8.996   1.415 -0.1777  0.2121 -0.6940
    8CHTO   C49 3204   5.047   9.108   1.525  0.0180 -0.3024 -0.3916
    8CHTO   H91 3205   5.109   9.087   1.612 -2.3406 -2.0991  0.9170
    8CHTO   C47 3206   4.905   9.077   1.565  0.1365 -0.1380 -0.7606
    8CHTO   H89 3207   4.879   9.142   1.651 -0.9858 -0.7398 -0.6353
    8CHTO   O33 3208   4.898   8.941   1.606 -0.9429 -0.0891  0.2918
    8CHTO   H70 3209   4.916   8.923   1.696  0.3434  2.2113  0.5557
    8CHTO   C45 3210   4.811   9.111   1.439  0.1546  0.1382  0.1403
    8CHTO   H87 3211   4.845   9.055   1.351  0.8080  0.7438  0.0043
    8CHTO    N8 3212   4.668   9.075   1.460  0.4548  0.6671 -0.0845
    8CHTO   H75 3213   4.658   8.968   1.468 -0.4822  0.6491 -1.3074
    8CHTO   H76 3214   4.610   9.139   1.524 -2.6176 -1.8749 -0.2139
    8CHTO   C43 3215   4.835   9.264   1.385 -0.3550 -0.2755 -0.9175
    8CHTO   H85 3216   4.796   9.262   1.283 -1.0269 -0.1127 -0.6702
    8CHTO   O29 3217   4.977   9.305   1.391  0.1174  0.0081 -0.3559
    8CHTO   C50 3218   5.076   9.252   1.476  0.4864  0.3010  0.3253
    8CHTO   H92 3219   5.174   9.251   1.426  0.5893  2.1480  0.4357
    8CHTO   C54 3220   5.103   9.349   1.591 -0.3153  0.0829  0.3050
    8CHTO   O36 3221   5.164   9.472   1.541 -0.2768 -0.0160  0.1400
    8CHTO   H72 3222   5.146   9.535   1.609  0.6452 -1.8386  2.1432
    8CHTO   O27 3223   4.752   9.365   1.447  0.1617 -0.1960 -0.6168
    8CHTO   C37 3224   4.699   9.502   1.458 -0.1784 -0.6045 -0.5897
    8CHTO   H79 3225   4.643   9.507   1.553  0.3832  0.8611 -0.3295
    8CHTO   C38 3226   4.800   9.615   1.469  0.3988  0.4278 -0.0586
    8CHTO   H80 3227   4.872   9.614   1.387  1.7621 -0.0805  1.1225
    8CHTO   O31 3228   4.869   9.585   1.590 -0.2210 -0.5546  0.2406
    8CHTO   H68 3229   4.859   9.495   1.615 -1.4142 -0.4173  0.3001
    8CHTO   C39 3230   4.722   9.754   1.471  0.1886 -0.2152 -0.4940
    8CHTO   H81 3231   4.653   9.761   1.555 -2.6727 -3.8862 -2.3985
    8CHTO    N7 3232   4.818   9.869   1.479  0.3791 -1.1614 -0.2026
    8CHTO   H73 3233   4.870   9.863   1.573 -0.1528  1.8671  0.3168
    8CHTO   H74 3234   4.777   9.968   1.466 -1.9037 -1.7418  2.0483
    8CHTO   C40 3235   4.639   9.766   1.338  1.0056  0.2881  0.5941
    8CHTO   H82 3236   4.704   9.757   1.251  0.1567 -7.1476  0.3479
    8CHTO   O26 3237   4.539   9.664   1.335  0.0993 -0.1921 -0.4576
    8CHTO   C41 3238   4.606   9.531   1.332  0.0688 -0.8078 -0.3581
    8CHTO   H83 3239   4.654   9.515   1.234 -0.7230 -0.1594 -0.8558
    8CHTO   C52 3240   4.494   9.419   1.324  0.1340 -0.1751 -0.1821
    8CHTO   O35 3241   4.397   9.444   1.210 -0.1682  0.2341 -0.2237
    8CHTO   H71 3242   4.334   9.375   1.202  2.4647 -2.2587 -0.6827
    8CHTO   O28 3243   4.555   9.878   1.329 -0.0393 -0.0732 -0.0722
    8CHTO   C42 3244   4.506   9.937   1.200  0.1216  0.2712 -0.8332
    8CHTO   H84 3245   4.431  10.013   1.225  1.3374  1.3637 -0.4426
    8CHTO   C44 3246   4.437   9.846   1.103 -0.0929 -0.4821 -0.0752
    8CHTO   H86 3247   4.507   9.768   1.074  0.6062 -0.1485  0.7062
    8CHTO   O32 3248   4.328   9.791   1.177 -0.1429 -0.4527 -0.5801
    8CHTO   H69 3249   4.353   9.726   1.239  0.7049  1.0630  0.7178
    8CHTO   C48 3250   4.384   9.931   0.985  0.2775  0.0396  0.2977
    8CHTO   H90 3251   4.323  10.016   1.013  1.2403  1.0013 -0.4841
    8CHTO    N9 3252   4.314   9.850   0.885  0.6441 -0.0932 -0.2550
    8CHTO   H77 3253   4.363   9.758   0.856  0.7926  0.3162 -1.3133
    8CHTO   H78 3254   4.304   9.900   0.790  1.5567 -1.4196 -1.0783
    8CHTO   C51 3255   4.507   9.996   0.917 -0.1113  0.1362  0.0389
    8CHTO   H93 3256   4.574   9.920   0.879 -1.0195 -0.8989  0.4893
    8CHTO   O30 3257   4.572  10.090   1.002 -0.3763  0.3280  0.3623
    8CHTO   C46 3258   4.623  10.013   1.129  0.9122 -0.1394  0.7548
    8CHTO   H88 3259   4.701   9.943   1.098  0.9479  0.5369 -0.7071
    8CHTO   C53 3260   4.680  10.121   1.223 -0.1805  0.2587 -0.0243
    8CHTO   O72 3261   4.787  10.195   1.159 -0.1085 -0.0034 -0.7709
    8CHTO  H199 3262   4.748  10.243   1.088 -1.6574 -1.9697 -1.3022
    8CHTO   O22 3263   4.462  10.085   0.814 -0.2469 -0.0571  0.4858
    8CHTO   C31 3264   4.543  10.126   0.700 -0.1114 -0.0920 -0.8221
    8CHTO   H59 3265   4.481  10.198   0.644 -1.1624 -1.1771 -1.0967
    8CHTO   C29 3266   4.674  10.196   0.747  0.2623 -0.3019  0.9156
    8CHTO   H57 3267   4.736  10.126   0.803  1.6789  1.2146  1.2867
    8CHTO   O21 3268   4.634  10.312   0.831  0.1644 -0.2819  0.0185
    8CHTO   H37 3269   4.705  10.370   0.851  1.0415 -0.8820 -1.2725
    8CHTO   C27 3270   4.748  10.243   0.609  0.0562 -0.2634 -0.3404
    8CHTO   H55 3271   4.676  10.302   0.550  0.1343 -1.0315 -1.2099
    8CHTO    N5 3272   4.869  10.316   0.646  0.1991 -0.1754 -0.1120
    8CHTO   H43 3273   4.932  10.315   0.558  2.5603  0.2558  1.5069
    8CHTO   H44 3274   4.926  10.266   0.723  2.4630 -1.2331 -2.3783
    8CHTO   C25 3275   4.776  10.114   0.524  0.1697 -0.2163  0.5639
    8CHTO   H53 3276   4.830  10.043   0.588  0.6088  0.5838  1.0912
    8CHTO   O17 3277   4.655  10.042   0.485 -0.4584  0.4691  0.3936
    8CHTO   C32 3278   4.579  10.010   0.603 -0.7278 -0.7081  0.0828
    8CHTO   H60 3279   4.630   9.933   0.661 -0.3462 -0.9407 -0.5532
    8CHTO   C36 3280   4.442   9.960   0.549 -0.1423  0.2023 -0.2728
    8CHTO   O25 3281   4.452   9.817   0.517 -0.0758  0.3472 -0.3277
    8CHTO   H40 3282   4.500   9.805   0.438  1.6962 -0.2093  0.8274
    8CHTO   O15 3283   4.863  10.143   0.400 -0.1298 -1.0518 -0.0603
    8CHTO   C19 3284   4.927  10.090   0.279 -0.8257  0.2040 -0.4984
    8CHTO   H47 3285   4.853  10.034   0.220  0.9347 -3.8870  0.9364
    8CHTO   C20 3286   5.004  10.207   0.208  0.3588 -0.2728  0.1305
    8CHTO   H48 3287   5.080  10.253   0.273 -0.0754  0.8288 -0.1312
    8CHTO   O19 3288   4.906  10.310   0.181  0.0945  0.1181  0.0909
    8CHTO   H35 3289   4.920  10.389   0.229  1.1605  1.0164 -1.6399
    8CHTO   C21 3290   5.071  10.149   0.078 -0.3898  0.1833 -0.0217
    8CHTO   H49 3291   4.990  10.127   0.007 -1.1820  3.0931 -0.0792
    8CHTO    N4 3292   5.139  10.252  -0.004 -0.3145  0.7310  0.3320
    8CHTO   H41 3293   5.232  10.275   0.046 -0.4537  0.3635  0.7594
    8CHTO   H42 3294   5.165  10.219  -0.103  2.8862  2.6606  0.4558
    8CHTO   C22 3295   5.163  10.027   0.116  0.3395  0.2606  0.9773
    8CHTO   H50 3296   5.256  10.058   0.163  1.2300 -4.4247  2.5105
    8CHTO   O14 3297   5.098   9.931   0.200 -0.3988 -0.2144  0.1885
    8CHTO   C23 3298   5.034   9.977   0.318 -1.2038  0.1788  0.3473
    8CHTO   H51 3299   5.108  10.009   0.393  1.4192 -1.7541 -1.3024
    8CHTO   C34 3300   4.965   9.853   0.376  0.1498  0.1553 -0.1680
    8CHTO   O23 3301   5.047   9.779   0.469  0.4465 -0.0637  0.3653
    8CHTO   H38 3302   5.137   9.779   0.441 -0.3154 -1.1454 -2.2150
    8CHTO   O16 3303   5.198   9.958   0.003 -0.2841 -0.0533 -0.0976
    8CHTO   C24 3304   5.347   9.880   0.020 -0.3380 -0.1927  1.4284
    8CHTO   H52 3305   5.367   9.859   0.125 -2.2389 -0.0911  1.8297
    8CHTO   C26 3306   5.463   9.970  -0.029 -0.1027  0.0502  0.2745
    8CHTO   H54 3307   5.430  10.015  -0.125 -3.1056  0.6974  1.5724
    8CHTO   O20 3308   5.469  10.081   0.058  0.1768  0.1770  0.1155
    8CHTO   H36 3309   5.532  10.150   0.049 -1.6992  2.1395  1.7057
    8CHTO   C30 3310   5.596   9.895  -0.060 -0.9985  0.7240  0.4870
    8CHTO   H58 3311   5.649   9.860   0.030 -0.6398 -0.3204 -0.1241
    8CHTO    N6 3312   5.694   9.984  -0.133  0.6488 -0.3935  0.3777
    8CHTO   H45 3313   5.648  10.047  -0.208 -0.6659 -1.5091  0.2284
    8CHTO   H46 3314   5.748  10.045  -0.062 -0.4323 -0.1332  0.9828
    8CHTO   C33 3315   5.555   9.767  -0.139 -0.4649 -0.1523  0.4727
    8CHTO   H61 3316   5.498   9.809  -0.223 -0.5080  0.0693  0.6113
    8CHTO   O18 3317   5.469   9.690  -0.063  0.5892 -0.1645 -0.1782
    8CHTO   C28 3318   5.338   9.749  -0.056  0.7288 -0.4362  0.2997
    8CHTO   H56 3319   5.310   9.771  -0.159 -0.5987 -1.7441  0.3605
    8CHTO   C35 3320   5.248   9.649   0.012  0.4921  0.6573  0.3506
    8CHTO   O24 3321   5.265   9.510  -0.031 -0.3478 -0.3878  0.1884
    8CHTO   H39 3322   5.352   9.483  -0.010  0.6623  2.5734 -0.0303
    8CHTO    O9 3323   5.660   9.694  -0.190  0.2730 -0.1937  0.2458
    8CHTO   C13 3324   5.628   9.592  -0.318 -0.1208 -0.3783 -0.1232
    8CHTO   H26 3325   5.538   9.632  -0.368 -1.1008 -1.2566  0.8939
    8CHTO   C11 3326   5.596   9.447  -0.259  0.2207  0.0581  0.6582
    8CHTO   H24 3327   5.496   9.458  -0.214  0.2383  0.1133  0.6840
    8CHTO    O8 3328   5.673   9.427  -0.140 -0.2114 -0.3427  0.1596
    8CHTO    H3 3329   5.702   9.338  -0.142  1.5713  0.2427 -2.6276
    8CHTO    C9 3330   5.613   9.338  -0.364 -0.7965 -0.4194  0.1038
    8CHTO   H22 3331   5.544   9.364  -0.446 -0.2522 -0.1537 -0.2754
    8CHTO    N2 3332   5.560   9.206  -0.319  0.4204  0.1159  0.0042
    8CHTO   H10 3333   5.611   9.169  -0.232  1.7326  3.4021  0.6926
    8CHTO   H11 3334   5.574   9.140  -0.403  0.9931  0.6530 -0.3316
    8CHTO    C7 3335   5.766   9.334  -0.407  0.1214  0.6661 -0.8265
    8CHTO   H20 3336   5.761   9.284  -0.506 -1.1612  0.4834 -0.6686
    8CHTO    O4 3337   5.834   9.467  -0.414 -0.0698 -0.0228  0.1670
    8CHTO   C14 3338   5.750   9.587  -0.430 -0.0490  0.6843  0.1083
    8CHTO   H27 3339   5.697   9.587  -0.527 -2.8568 -3.3782  1.4442
    8CHTO   C18 3340   5.840   9.710  -0.423  0.3243 -0.0450 -0.5896
    8CHTO   O13 3341   5.939   9.699  -0.528  0.0744 -0.3339 -0.1722
    8CHTO    H7 3342   6.021   9.667  -0.495  0.9607  1.3647 -0.6671
    8CHTO    O2 3343   5.858   9.227  -0.279 -0.1545  0.0042  0.8764
    8CHTO    C1 3344   5.998   9.238  -0.280 -0.1178  0.4417 -0.2355
    8CHTO   H14 3345   6.026   9.345  -0.266  0.8206  0.4067 -1.7232
    8CHTO    C2 3346   6.073   9.183  -0.413 -0.1286  0.7953 -0.1001
    8CHTO   H15 3347   6.029   9.083  -0.424 -0.2923  0.5949  2.1484
    8CHTO    O6 3348   6.029   9.258  -0.524  0.1482  0.4585  0.9033
    8CHTO    H1 3349   6.025   9.350  -0.505  0.7475  0.5234  0.7203
    8CHTO    C3 3350   6.234   9.173  -0.388  0.0668 -0.2491 -1.2259
    8CHTO   H16 3351   6.280   9.273  -0.390 -0.1762 -0.1329 -1.0265
    8CHTO    N1 3352   6.295   9.094  -0.499 -0.1427  0.0569  0.1519
    8CHTO    H8 3353   6.301   9.161  -0.583 -0.4625 -1.6216 -1.2519
    8CHTO    H9 3354   6.394   9.063  -0.469  0.3812  0.9258 -0.6690
    8CHTO    C4 3355   6.273   9.116  -0.248 -0.4908 -0.1805 -0.9874
    8CHTO   H17 3356   6.257   9.008  -0.245 -5.1348  0.4172  0.4623
    8CHTO    O1 3357   6.189   9.186  -0.155 -0.6064  0.5366  0.4399
    8CHTO    C5 3358   6.050   9.174  -0.154 -0.0937  0.6057 -0.2150
    8CHTO   H18 3359   6.013   9.071  -0.160 -1.8647  1.2130 -0.0025
    8CHTO   C16 3360   5.992   9.233  -0.023  0.5356 -0.5289  0.4700
    8CHTO   O11 3361   5.850   9.222  -0.013  0.3690 -0.4366 -0.2647
    8CHTO    H5 3362   5.824   9.271   0.063  2.6459  0.9145 -0.3076
    8CHTO    O3 3363   6.409   9.147  -0.214  0.1182 -0.0496  0.7542
    8CHTO    C6 3364   6.464   9.053  -0.113  0.0647 -0.5355 -0.1118
    8CHTO   H19 3365   6.390   8.985  -0.072  2.2026 -3.5000 -0.9690
    8CHTO    C8 3366   6.572   8.964  -0.173  0.8826  0.7138  0.8908
    8CHTO   H21 3367   6.645   9.027  -0.226 -0.7872  0.9064 -1.2589
    8CHTO    O7 3368   6.508   8.874  -0.271  0.2270  0.5778  0.3473
    8CHTO    H2 3369   6.450   8.917  -0.331 -0.7690 -2.5471 -1.0463
    8CHTO   C12 3370   6.647   8.883  -0.066  0.4772  0.5140 -0.5742
    8CHTO   H25 3371   6.580   8.802  -0.030 -0.5446  1.4197 -0.4293
    8CHTO    N3 3372   6.770   8.821  -0.117  0.0301  0.3315  0.4968
    8CHTO   H12 3373   6.733   8.738  -0.176  1.0365  0.3466 -0.1668
    8CHTO   H13 3374   6.831   8.774  -0.041  1.0354  1.2313  0.2627
    8CHTO   C15 3375   6.688   8.975   0.061 -0.1324  0.5540 -0.1270
    8CHTO   H28 3376   6.763   9.052   0.040 -0.7252  1.8785  2.4675
    8CHTO   O10 3377   6.730   8.900   0.192 -0.0387  0.2299  0.7682
    8CHTO    H4 3378   6.652   8.875   0.238 -0.6719 -0.4475 -0.6268
    8CHTO    O5 3379   6.573   9.041   0.105 -0.2017 -0.2128  0.3814
    8CHTO   C10 3380   6.524   9.135   0.011 -0.0303 -0.2278  0.4630
    8CHTO   H23 3381   6.599   9.210  -0.015 -0.2160  0.1027  0.8695
    8CHTO   C17 3382   6.413   9.205   0.082 -0.0119 -0.7787 -0.5338
    8CHTO   O12 3383   6.468   9.305   0.173  0.4244 -0.2258 -0.5636
    8CHTO    H6 3384   6.398   9.339   0.225  0.2304 -0.5982 -0.5790
    9CHTO  H203 3385   8.225   3.704   0.947 -0.9191  0.5066 -0.8531
    9CHTO   O82 3386   8.201   3.760   1.019 -0.3862 -0.4333  0.0754
    9CHTO  C123 3387   8.271   3.886   1.019  0.1190 -0.4129  1.2582
    9CHTO  H227 3388   8.260   3.940   1.114  1.1485  1.3016  0.4092
    9CHTO   O77 3389   8.410   3.852   0.998 -0.7432 -0.4611  0.0694
    9CHTO  C118 3390   8.500   3.965   0.984  0.3221 -0.2284  0.0666
    9CHTO  H222 3391   8.497   4.043   1.062 -1.4277  0.5569 -0.7493
    9CHTO  C125 3392   8.636   3.898   0.988 -0.3344 -0.2028  0.3155
    9CHTO   O84 3393   8.756   3.979   1.011 -0.0137  0.2421  0.1102
    9CHTO  H205 3394   8.798   3.968   1.094 -1.6786  2.0340  1.2385
    9CHTO  C114 3395   8.467   4.035   0.848 -0.0155  0.2643  0.0662
    9CHTO  H218 3396   8.462   3.957   0.773 -0.0571  0.0636  0.2774
    9CHTO  C116 3397   8.326   4.096   0.865 -0.5433 -0.0237 -0.1733
    9CHTO  H220 3398   8.342   4.171   0.945  0.3096 -1.4282  1.0088
    9CHTO   O79 3399   8.288   4.169   0.749 -0.4402 -0.2525  0.3072
    9CHTO  H201 3400   8.303   4.132   0.664  0.7940 -1.3104  0.9657
    9CHTO  C120 3401   8.215   3.976   0.901 -0.1585  0.0734  0.3496
    9CHTO  H224 3402   8.225   3.914   0.809  1.4429 -2.5265  2.1855
    9CHTO   N21 3403   8.082   4.033   0.926  0.4881 -0.0266  0.1708
    9CHTO  H211 3404   8.071   4.123   0.867  2.0305 -0.0293 -0.1514
    9CHTO  H212 3405   8.081   4.055   1.032 -0.3454 -1.5330  0.4779
    9CHTO   O75 3406   8.572   4.132   0.816  0.2896 -0.4574 -0.0398
    9CHTO  C112 3407   8.609   4.141   0.677 -0.1509  0.3720  0.1498
    9CHTO  H216 3408   8.522   4.173   0.619  0.0959  0.5084 -0.1451
    9CHTO   O73 3409   8.655   4.012   0.638 -0.0062 -0.5118 -0.1159
    9CHTO  C113 3410   8.665   3.988   0.497  0.3479 -0.5331 -0.0550
    9CHTO  H217 3411   8.564   4.010   0.454 -0.1242 -2.6545 -0.0741
    9CHTO  C124 3412   8.693   3.838   0.476 -0.7418  0.1319  0.1880
    9CHTO   O83 3413   8.814   3.790   0.532  0.0922 -0.8186 -0.5714
    9CHTO  H204 3414   8.810   3.699   0.511 -0.7768 -0.4176 -2.2280
    9CHTO  C109 3415   8.777   4.075   0.438 -0.3286 -0.6277 -0.2138
    9CHTO  H213 3416   8.872   4.035   0.477  0.8669  1.3682 -0.9490
    9CHTO  C110 3417   8.746   4.220   0.483  0.7715 -1.0220 -0.8335
    9CHTO  H214 3418   8.654   4.249   0.432 -0.8338  0.0136  2.4947
    9CHTO   O78 3419   8.846   4.302   0.423 -0.1090 -0.4629  0.0824
    9CHTO  H200 3420   8.825   4.393   0.430  1.8538  0.1876 -1.9119
    9CHTO  C111 3421   8.728   4.235   0.633  0.0369 -0.0827  0.6652
    9CHTO  H215 3422   8.820   4.197   0.679  2.0794  1.8382 -1.6926
    9CHTO   N19 3423   8.700   4.369   0.691 -0.5587  0.3739  0.5265
    9CHTO  H207 3424   8.608   4.408   0.650 -0.5196  1.7260  1.6564
    9CHTO  H208 3425   8.774   4.446   0.677 -0.2129 -0.6233 -3.8736
    9CHTO   O74 3426   8.773   4.056   0.291 -0.4091  0.1540 -0.1164
    9CHTO  C115 3427   8.922   4.031   0.228  0.3634 -0.3736 -0.2144
    9CHTO  H219 3428   8.995   4.090   0.284 -1.6176  1.0380  0.9483
    9CHTO   O76 3429   8.967   3.885   0.250  0.2206 -0.5619  0.2854
    9CHTO  C122 3430   8.922   3.787   0.152 -0.1959 -0.1433 -0.3491
    9CHTO  H226 3431   8.814   3.775   0.146 -0.4780  2.4456 -1.2585
    9CHTO  C126 3432   8.984   3.654   0.197  0.3767 -0.1095 -0.1133
    9CHTO   O85 3433   9.124   3.675   0.187 -0.4155  0.1525  0.5383
    9CHTO  H206 3434   9.148   3.679   0.096  0.6238  0.4186  0.8151
    9CHTO  C121 3435   8.965   3.836   0.005 -0.0312  0.3079  0.2567
    9CHTO  H225 3436   9.074   3.854   0.002 -0.2390  1.4993 -0.4777
    9CHTO   O81 3437   8.920   3.738  -0.090  0.0864 -0.7416 -0.1433
    9CHTO  H202 3438   8.968   3.748  -0.170 -2.1390  0.3450 -1.4010
    9CHTO  C119 3439   8.884   3.967  -0.021  0.7034  0.6037  0.2611
    9CHTO  H223 3440   8.903   3.990  -0.126  1.0642  0.7678  0.3593
    9CHTO  C117 3441   8.921   4.086   0.078 -0.6314 -0.5656 -0.0815
    9CHTO  H221 3442   8.846   4.163   0.062  1.3181  1.3874  0.0468
    9CHTO   N20 3443   9.058   4.140   0.039 -0.2696 -0.1278 -0.2539
    9CHTO  H209 3444   9.128   4.114   0.117  0.2044 -0.8158 -0.8969
    9CHTO  H210 3445   9.055   4.248   0.033  0.9407 -0.0651  0.0878
    9CHTO   O80 3446   8.740   3.943  -0.025  0.4531 -0.2221 -0.7924
    9CHTO  C103 3447   8.638   4.026  -0.141 -0.3882  0.2675 -0.4200
    9CHTO  H190 3448   8.542   4.050  -0.096 -0.0964  0.4954  0.0897
    9CHTO  C101 3449   8.698   4.152  -0.214 -0.2402  0.1405  0.0941
    9CHTO  H188 3450   8.791   4.125  -0.264  0.5227 -0.4442  1.7773
    9CHTO   O68 3451   8.726   4.245  -0.124  0.0754  0.0443 -0.0858
    9CHTO  H168 3452   8.773   4.316  -0.162  0.9327 -0.2481  0.4212
    9CHTO   C99 3453   8.602   4.204  -0.335  0.1087 -0.6643  0.2224
    9CHTO  H186 3454   8.499   4.219  -0.295  0.5766 -1.8493  1.9333
    9CHTO   N17 3455   8.644   4.333  -0.391 -0.2237 -0.0816  0.2670
    9CHTO  H174 3456   8.600   4.423  -0.352  1.4772  0.4275  1.0981
    9CHTO  H175 3457   8.671   4.331  -0.496  0.0458  1.0995  0.3143
    9CHTO   C97 3458   8.596   4.088  -0.441 -0.3275 -0.5821  0.5494
    9CHTO  H184 3459   8.701   4.072  -0.467  0.0961 -0.9229  2.4080
    9CHTO   O64 3460   8.542   3.976  -0.373  0.3716  0.4070 -0.3421
    9CHTO  C104 3461   8.618   3.920  -0.264 -0.2537 -0.3878 -0.6830
    9CHTO  H191 3462   8.713   3.892  -0.310  0.6189  0.2206  0.7355
    9CHTO  C108 3463   8.559   3.793  -0.212  0.4234 -0.2555 -1.0536
    9CHTO   O71 3464   8.435   3.829  -0.148 -0.1281 -0.3198  0.2495
    9CHTO  H171 3465   8.410   3.757  -0.094  0.3515 -0.8734 -0.2666
    9CHTO   O62 3466   8.504   4.118  -0.552 -0.1228  0.3290 -0.0113
    9CHTO   C91 3467   8.516   4.052  -0.679  0.2993  0.0665  0.3493
    9CHTO  H178 3468   8.564   3.957  -0.657 -0.0707  0.0056  0.9092
    9CHTO   C92 3469   8.612   4.127  -0.768  0.3587 -0.1114 -0.8674
    9CHTO  H179 3470   8.678   4.186  -0.702 -0.0414 -0.5384 -0.0739
    9CHTO   O66 3471   8.699   4.031  -0.836  0.0256  0.8214  0.0044
    9CHTO  H166 3472   8.781   4.062  -0.869  1.0652 -0.6851  1.1023
    9CHTO   C93 3473   8.541   4.222  -0.877  0.4629 -0.0404 -0.2806
    9CHTO  H180 3474   8.521   4.162  -0.967  0.3251 -0.0784 -0.2250
    9CHTO   N16 3475   8.628   4.331  -0.921 -0.1631  0.0902  0.7344
    9CHTO  H172 3476   8.605   4.429  -0.882  0.5789  0.4739  0.2198
    9CHTO  H173 3477   8.649   4.332  -1.027  0.1875 -1.8140  0.7703
    9CHTO   C94 3478   8.401   4.269  -0.815  0.0632  0.0353 -0.5382
    9CHTO  H181 3479   8.416   4.300  -0.711  1.1647 -1.1273 -0.3293
    9CHTO   O61 3480   8.322   4.149  -0.802  0.0831  0.6331 -0.8451
    9CHTO   C95 3481   8.373   4.029  -0.752  0.2107  0.0552  0.0563
    9CHTO  H182 3482   8.299   3.988  -0.685  1.9001 -0.6270  1.5430
    9CHTO  C106 3483   8.390   3.921  -0.866  0.4944 -0.2699  0.0826
    9CHTO   O69 3484   8.262   3.896  -0.921  0.4759  0.1848 -0.1841
    9CHTO  H169 3485   8.238   3.811  -0.890  1.3077  0.6914  1.9711
    9CHTO   O63 3486   8.326   4.377  -0.895 -0.0853 -0.3384 -0.1754
    9CHTO   C96 3487   8.190   4.418  -0.839 -0.1432  0.6542  0.6501
    9CHTO  H183 3488   8.169   4.376  -0.741  0.3481 -0.5046  0.2638
    9CHTO   C98 3489   8.065   4.390  -0.931  0.9120  0.5140 -0.5101
    9CHTO  H185 3490   8.074   4.432  -1.033  0.2021  0.8050 -0.4518
    9CHTO   O67 3491   8.073   4.245  -0.943  0.2042 -0.3265  0.5698
    9CHTO  H167 3492   7.990   4.219  -0.977  0.6148  1.1420 -1.6524
    9CHTO  C102 3493   7.927   4.432  -0.857 -0.3544  0.0292  0.1854
    9CHTO  H189 3494   7.917   4.367  -0.768 -3.5972  0.5915  0.3023
    9CHTO   N18 3495   7.811   4.403  -0.941  0.3389  0.2271 -0.1666
    9CHTO  H176 3496   7.814   4.299  -0.971  5.0361  0.5363 -1.1353
    9CHTO  H177 3497   7.820   4.457  -1.034 -2.2547 -2.1925 -1.9062
    9CHTO  C105 3498   7.944   4.581  -0.818  0.1411 -0.1117  0.6128
    9CHTO  H192 3499   7.942   4.640  -0.909 -2.3280  0.9540  1.3279
    9CHTO   O65 3500   8.066   4.606  -0.757 -0.1461 -0.1056  0.0546
    9CHTO  C100 3501   8.197   4.578  -0.813  0.4823 -0.1110  0.7095
    9CHTO  H187 3502   8.206   4.625  -0.912  0.1195  0.3170  0.8762
    9CHTO  C107 3503   8.312   4.620  -0.717 -0.5708  0.1073 -0.4222
    9CHTO   O70 3504   8.303   4.556  -0.589 -0.0923  0.3670  0.0559
    9CHTO  H170 3505   8.375   4.591  -0.539  0.7006  2.6934 -2.5668
    9CHTO   O57 3506   7.829   4.631  -0.730  0.1393 -0.2363  0.3604
    9CHTO   C85 3507   7.780   4.765  -0.730 -0.3950  0.0905 -0.5558
    9CHTO  H157 3508   7.763   4.793  -0.836  0.0151  1.2004 -0.3393
    9CHTO   C83 3509   7.898   4.862  -0.682  0.4171  0.3347 -0.4846
    9CHTO  H155 3510   7.984   4.859  -0.749  1.1909  1.2328  0.4450
    9CHTO   O56 3511   7.956   4.819  -0.556  0.3646 -0.4476  0.0497
    9CHTO  H135 3512   7.888   4.773  -0.510 -0.1634  0.7445  0.4840
    9CHTO   C81 3513   7.847   5.010  -0.671 -0.0649 -0.0777 -0.5559
    9CHTO  H153 3514   7.814   5.041  -0.770 -0.4168  0.0335 -0.4047
    9CHTO   N14 3515   7.961   5.097  -0.633  0.1673  0.4226  0.5739
    9CHTO  H141 3516   8.027   5.111  -0.717  0.7437  0.9854  1.1155
    9CHTO  H142 3517   7.933   5.195  -0.599 -0.9115 -0.2290  1.6007
    9CHTO   C79 3518   7.719   5.026  -0.575  0.5279 -0.0481 -0.4825
    9CHTO  H151 3519   7.682   5.127  -0.593  0.4534 -0.1539 -0.9426
    9CHTO   O52 3520   7.612   4.929  -0.620 -0.0562  0.0260 -0.4652
    9CHTO   C86 3521   7.652   4.788  -0.639  0.4725 -0.4017  0.3512
    9CHTO  H158 3522   7.665   4.751  -0.535 -1.0831 -2.1604 -0.0570
    9CHTO   C90 3523   7.529   4.713  -0.689  0.1238 -0.4150 -0.0889
    9CHTO   O60 3524   7.485   4.782  -0.802  0.1137 -0.3069  0.1141
    9CHTO  H138 3525   7.481   4.726  -0.877 -0.3090 -2.0604  1.4156
    9CHTO   O50 3526   7.748   5.015  -0.437  0.0058 -0.0016 -0.2147
    9CHTO   C73 3527   7.671   5.038  -0.321 -0.2210 -0.1611  0.0633
    9CHTO  H145 3528   7.563   5.021  -0.336 -0.4627  1.8970 -0.6694
    9CHTO   C74 3529   7.693   5.188  -0.278 -0.8648 -0.0064  0.4255
    9CHTO  H146 3530   7.655   5.257  -0.355 -1.4138 -1.6856 -0.8402
    9CHTO   O54 3531   7.616   5.208  -0.157  0.1533  0.0827  0.6864
    9CHTO  H133 3532   7.525   5.200  -0.177 -0.5544 -3.4535  4.6350
    9CHTO   C75 3533   7.850   5.210  -0.251 -0.1835  0.3563 -0.4298
    9CHTO  H147 3534   7.900   5.186  -0.346 -0.8839 -1.3804 -0.3777
    9CHTO   N13 3535   7.884   5.353  -0.222 -0.5851 -0.1562 -0.4818
    9CHTO  H139 3536   7.842   5.387  -0.129  0.2239 -0.3194 -0.0499
    9CHTO  H140 3537   7.845   5.408  -0.307 -0.1678 -1.1991 -1.3692
    9CHTO   C76 3538   7.916   5.104  -0.143 -0.0844 -0.1358 -0.2613
    9CHTO  H148 3539   7.873   5.135  -0.047  0.7718  1.4512 -0.3709
    9CHTO   O49 3540   7.875   4.971  -0.174  0.3801 -0.2224 -0.6758
    9CHTO   C77 3541   7.733   4.943  -0.208  0.1371 -0.0848 -0.1965
    9CHTO  H149 3542   7.675   4.955  -0.117 -0.5319 -3.2552 -0.1390
    9CHTO   C88 3543   7.719   4.797  -0.250 -0.1190 -0.5062 -0.2237
    9CHTO   O58 3544   7.576   4.755  -0.265 -0.0001 -0.0049 -0.2438
    9CHTO  H136 3545   7.567   4.664  -0.244 -0.0267  0.1626  0.4818
    9CHTO   O51 3546   8.068   5.102  -0.145  0.0494 -0.4745 -0.6069
    9CHTO   C78 3547   8.128   5.040  -0.021 -0.3453 -0.1764 -0.5450
    9CHTO  H150 3548   8.048   5.011   0.050 -0.9924 -0.2843 -1.3008
    9CHTO   C80 3549   8.213   5.152   0.047 -0.1740 -0.2655 -0.2246
    9CHTO  H152 3550   8.278   5.192  -0.033  0.3351 -0.1155  0.2603
    9CHTO   O55 3551   8.127   5.267   0.080 -0.1834  0.2794 -0.0095
    9CHTO  H134 3552   8.085   5.295   0.001 -1.0172  2.4499  1.1469
    9CHTO   C84 3553   8.304   5.108   0.165 -0.4608  0.7164 -0.0235
    9CHTO  H156 3554   8.243   5.069   0.247 -0.3490 -0.3104 -0.4140
    9CHTO   N15 3555   8.386   5.212   0.227 -0.3686 -0.0258  0.0078
    9CHTO  H143 3556   8.440   5.268   0.153  0.3926 -0.1832  0.4407
    9CHTO  H144 3557   8.459   5.180   0.299  0.9712  3.4750  0.2809
    9CHTO   C87 3558   8.377   4.986   0.121 -0.0414 -0.3193 -0.3133
    9CHTO  H159 3559   8.443   5.009   0.037  0.5636  0.0957  0.2713
    9CHTO   O53 3560   8.275   4.875   0.072  1.3322 -0.2406  0.1657
    9CHTO   C82 3561   8.218   4.920  -0.054 -0.2654  0.8463  0.0583
    9CHTO  H154 3562   8.297   4.946  -0.125 -0.0191 -0.1249 -0.0362
    9CHTO   C89 3563   8.135   4.801  -0.120  0.4985  0.3566 -0.0563
    9CHTO   O59 3564   8.103   4.841  -0.258  0.0417  0.1752 -0.2341
    9CHTO  H137 3565   8.037   4.780  -0.286  2.8286 -2.8831 -0.3639
    9CHTO   O45 3566   8.472   4.920   0.238 -0.6053 -0.5330 -0.1794
    9CHTO   C67 3567   8.505   4.780   0.220 -0.7608  0.3054 -0.6349
    9CHTO  H124 3568   8.429   4.731   0.159 -1.2120 -1.4013  1.2383
    9CHTO   C65 3569   8.652   4.750   0.168  0.8250  0.1450  0.0542
    9CHTO  H122 3570   8.704   4.840   0.197  0.5485  0.5688 -0.7445
    9CHTO   O44 3571   8.635   4.754   0.026 -0.8442  0.1978  0.2773
    9CHTO  H102 3572   8.570   4.694  -0.005 -2.4426  0.6892  2.5582
    9CHTO   C63 3573   8.722   4.627   0.236  0.1371  0.2779 -0.2506
    9CHTO  H120 3574   8.754   4.664   0.334  2.6488  0.0498 -0.9560
    9CHTO   N11 3575   8.849   4.584   0.170 -0.2536  0.8224  1.2040
    9CHTO  H108 3576   8.893   4.502   0.223 -0.7158 -1.9945 -2.4780
    9CHTO  H109 3577   8.830   4.554   0.068  0.8606  0.5844  1.0624
    9CHTO   C61 3578   8.618   4.508   0.259 -0.2907 -0.1032 -0.2003
    9CHTO  H118 3579   8.665   4.432   0.323  0.9767  0.3090 -0.6261
    9CHTO   O40 3580   8.496   4.557   0.335  0.2967 -0.0009  0.1788
    9CHTO   C68 3581   8.486   4.705   0.357  0.1488  0.8469  0.3631
    9CHTO  H125 3582   8.556   4.742   0.435  1.7510  1.7620 -1.4492
    9CHTO   C72 3583   8.343   4.726   0.411 -0.0567 -0.3346  0.4445
    9CHTO   O48 3584   8.237   4.688   0.320  0.0621 -0.0655 -0.6462
    9CHTO  H105 3585   8.219   4.596   0.328 -4.1131  0.6156 -0.9873
    9CHTO   O38 3586   8.587   4.446   0.135 -0.5959  0.4360 -0.5113
    9CHTO   C55 3587   8.455   4.390   0.106 -0.8689  0.5271  0.1223
    9CHTO  H112 3588   8.371   4.448   0.147 -0.2093  2.1010 -0.6865
    9CHTO   C56 3589   8.456   4.240   0.146 -0.3224 -0.4337  0.3474
    9CHTO  H113 3590   8.547   4.193   0.104  1.5358  0.2078  3.4789
    9CHTO   O42 3591   8.471   4.229   0.286 -0.3391 -0.1213  0.5952
    9CHTO  H100 3592   8.550   4.269   0.319  0.3050 -0.3723 -0.6165
    9CHTO   C57 3593   8.321   4.173   0.097 -0.3813  0.1035 -0.8352
    9CHTO  H114 3594   8.240   4.207   0.162  1.6432  2.1446  0.7035
    9CHTO   N10 3595   8.320   4.028   0.117  0.8550  0.8622  0.4702
    9CHTO  H106 3596   8.258   3.981   0.042  1.9758 -1.0314  0.7176
    9CHTO  H107 3597   8.414   3.977   0.125  0.1214 -0.5674  0.1633
    9CHTO   C58 3598   8.288   4.206  -0.055 -1.1676 -0.4012 -0.3284
    9CHTO  H115 3599   8.367   4.162  -0.119 -0.1631  1.4128 -0.3471
    9CHTO   O37 3600   8.301   4.350  -0.073 -0.1117 -0.1742  0.1070
    9CHTO   C59 3601   8.430   4.402  -0.054 -0.2363 -0.0402 -0.2233
    9CHTO  H116 3602   8.500   4.340  -0.109 -0.4509 -1.2208  0.7991
    9CHTO   C70 3603   8.429   4.550  -0.097  0.1052  0.1477  0.6143
    9CHTO   O46 3604   8.380   4.576  -0.226 -0.3366  0.4068  0.3263
    9CHTO  H103 3605   8.396   4.665  -0.253  1.4496 -0.5462 -1.8969
    9CHTO   O39 3606   8.141   4.172  -0.111  0.6716 -0.3733 -0.3082
    9CHTO   C60 3607   8.123   4.042  -0.168  0.3329 -0.2856 -0.6281
    9CHTO  H117 3608   8.209   3.976  -0.163 -1.2210 -2.3987 -0.9933
    9CHTO   C62 3609   8.009   3.964  -0.095 -0.4824  0.7588 -0.1225
    9CHTO  H119 3610   8.035   3.971   0.013 -0.8028 -1.5371  0.1284
    9CHTO   O43 3611   7.881   4.042  -0.089  0.6021  0.2310 -0.0755
    9CHTO  H101 3612   7.804   3.999  -0.059  1.0014 -0.9049 -0.6738
    9CHTO   C66 3613   8.002   3.815  -0.148  0.6115 -0.8383  0.3719
    9CHTO  H123 3614   8.102   3.775  -0.134  0.7542 -0.5400  0.2044
    9CHTO   N12 3615   7.906   3.726  -0.070  0.0800  0.7765 -0.7130
    9CHTO  H110 3616   7.860   3.777   0.013 -1.0177 -1.2467 -0.0449
    9CHTO  H111 3617   7.947   3.627  -0.055 -2.9371 -0.2558  1.3336
    9CHTO   C69 3618   7.969   3.813  -0.291 -0.0882 -0.2417 -0.1716
    9CHTO  H126 3619   7.862   3.842  -0.302 -1.0304 -3.0821  0.9550
    9CHTO   O41 3620   8.061   3.904  -0.374 -0.0785  0.1450 -0.5646
    9CHTO   C64 3621   8.076   4.049  -0.317 -0.9349  0.3236  0.1702
    9CHTO  H121 3622   7.980   4.104  -0.324 -0.5823  0.6537 -3.1105
    9CHTO   C71 3623   8.189   4.122  -0.391  0.7432  0.0412  0.1411
    9CHTO   O47 3624   8.156   4.114  -0.529 -0.1733  0.1090 -0.5711
    9CHTO  H104 3625   8.238   4.113  -0.576 -0.4603  0.0317 -1.0683
    9CHTO   O34 3626   7.990   3.658  -0.361 -0.3033 -0.4580  0.8458
    9CHTO   C49 3627   8.101   3.606  -0.444 -0.7745  0.1137 -0.6005
    9CHTO   H91 3628   8.103   3.653  -0.542 -1.0328 -2.3418 -1.8300
    9CHTO   C47 3629   8.087   3.449  -0.448 -0.3712 -0.2362 -0.5666
    9CHTO   H89 3630   8.171   3.425  -0.517  1.5359 -1.6374  2.1061
    9CHTO   O33 3631   7.959   3.422  -0.505  0.8287 -0.0862  0.3091
    9CHTO   H70 3632   7.883   3.412  -0.450 -2.4950 -0.7105 -4.0859
    9CHTO   C45 3633   8.121   3.376  -0.308 -0.0909  0.0147  0.5044
    9CHTO   H87 3634   8.026   3.359  -0.255 -1.6826  1.1359 -1.8874
    9CHTO    N8 3635   8.185   3.246  -0.344  0.3868 -0.1301  0.4348
    9CHTO   H75 3636   8.181   3.213  -0.446  0.9098 -1.3307  0.7985
    9CHTO   H76 3637   8.281   3.235  -0.296 -0.5448  0.6720  2.5578
    9CHTO   C43 3638   8.213   3.479  -0.216 -0.1805 -0.0014 -0.3035
    9CHTO   H85 3639   8.136   3.538  -0.167 -0.1269 -0.0625 -0.1484
    9CHTO   O29 3640   8.304   3.554  -0.289 -0.1313 -0.3447  0.2109
    9CHTO   C50 3641   8.248   3.633  -0.388  0.3096 -0.7278  0.2358
    9CHTO   H92 3642   8.245   3.733  -0.341 -3.0210 -0.4598 -0.4948
    9CHTO   C54 3643   8.350   3.651  -0.504  0.4050  0.3499  0.1426
    9CHTO   O36 3644   8.338   3.770  -0.577 -0.1894  0.1845 -0.2179
    9CHTO   H72 3645   8.366   3.848  -0.534 -0.9312 -0.7234  1.9828
    9CHTO   O27 3646   8.273   3.411  -0.103 -0.0197 -0.5352 -0.2467
    9CHTO   C37 3647   8.300   3.417   0.041 -0.0788  0.3001 -0.5002
    9CHTO   H79 3648   8.356   3.327   0.068 -0.8938 -0.2415 -0.5817
    9CHTO   C38 3649   8.395   3.535   0.076  0.2609 -0.4186 -0.6198
    9CHTO   H80 3650   8.358   3.623   0.021 -1.1962 -0.5380  0.1438
    9CHTO   O31 3651   8.528   3.504   0.038  0.3158 -0.2460 -0.4532
    9CHTO   H68 3652   8.545   3.510  -0.054  1.4929  2.7231 -0.1029
    9CHTO   C39 3653   8.402   3.576   0.230  0.0738 -0.0706  0.4376
    9CHTO   H81 3654   8.464   3.501   0.277  1.0298  0.4291 -0.0121
    9CHTO    N7 3655   8.485   3.695   0.252  0.1525 -0.7058  0.0294
    9CHTO   H73 3656   8.452   3.782   0.197  0.0312 -0.8705 -0.1606
    9CHTO   H74 3657   8.583   3.672   0.214 -0.3925 -1.0681 -1.2148
    9CHTO   C40 3658   8.255   3.575   0.284 -0.3965 -0.3569  0.1165
    9CHTO   H82 3659   8.197   3.652   0.232 -0.5629  0.0299  0.8687
    9CHTO   O26 3660   8.194   3.445   0.266 -0.4512 -0.0217  0.4897
    9CHTO   C41 3661   8.168   3.427   0.120 -0.5669 -0.1572  0.1391
    9CHTO   H83 3662   8.106   3.512   0.089 -1.5083 -0.5006  1.0460
    9CHTO   C52 3663   8.077   3.303   0.109 -0.5237 -0.4234 -0.2095
    9CHTO   O35 3664   8.005   3.298  -0.022  0.1730  0.0374 -0.3829
    9CHTO   H71 3665   8.075   3.319  -0.081  0.7866  1.6088  0.8363
    9CHTO   O28 3666   8.253   3.601   0.427 -0.4133 -0.2212 -0.6265
    9CHTO   C42 3667   8.145   3.687   0.483 -0.1868  0.2340 -0.2235
    9CHTO   H84 3668   8.157   3.679   0.591 -4.1358 -3.1029  0.0599
    9CHTO   C44 3669   7.997   3.632   0.456 -0.4281 -0.2377 -0.0594
    9CHTO   H86 3670   7.991   3.615   0.349  2.6045  1.8254 -0.6224
    9CHTO   O32 3671   7.975   3.501   0.522  0.2826 -0.0008 -0.1722
    9CHTO   H69 3672   7.996   3.506   0.614  0.2333 -0.1424 -0.1523
    9CHTO   C48 3673   7.884   3.739   0.491  0.2002  0.4015  0.4206
    9CHTO   H90 3674   7.875   3.769   0.596 -3.4682  0.2593  0.2161
    9CHTO    N9 3675   7.750   3.690   0.451  0.1765  0.5084 -0.5996
    9CHTO   H77 3676   7.683   3.685   0.535 -0.8157 -0.7269 -1.4270
    9CHTO   H78 3677   7.725   3.751   0.365  3.4648 -0.4777 -2.3808
    9CHTO   C51 3678   7.931   3.873   0.420  0.5563 -0.6125 -0.3228
    9CHTO   H93 3679   7.948   3.851   0.314 -0.7600  1.7415 -1.0450
    9CHTO   O30 3680   8.050   3.920   0.482 -0.2036  0.2906 -0.0112
    9CHTO   C46 3681   8.164   3.840   0.446 -0.5405 -0.2233  0.3913
    9CHTO   H88 3682   8.184   3.849   0.339 -0.5971 -1.0369  0.3056
    9CHTO   C53 3683   8.285   3.899   0.517 -0.4463  0.1492  0.3183
    9CHTO   O72 3684   8.297   4.035   0.474  0.2233  0.1360  0.3817
    9CHTO  H199 3685   8.373   4.033   0.418  1.0335 -0.8205  1.4784
    9CHTO   O22 3686   7.840   3.981   0.451 -0.6247 -0.2747  0.4506
    9CHTO   C31 3687   7.837   4.107   0.371  0.0197  0.1998  0.1655
    9CHTO   H59 3688   7.755   4.167   0.416  0.9951  1.3769  0.4172
    9CHTO   C29 3689   7.954   4.200   0.375 -0.2407  0.3890  0.5028
    9CHTO   H57 3690   8.047   4.143   0.355 -0.1824  1.2149 -1.7018
    9CHTO   O21 3691   7.958   4.242   0.518 -0.0162 -0.1397  0.0365
    9CHTO   H37 3692   8.043   4.236   0.557 -0.1402  0.7355  0.4517
    9CHTO   C27 3693   7.944   4.328   0.283  0.0040  0.4732 -0.2498
    9CHTO   H55 3694   7.866   4.392   0.328  0.3484  1.8811 -1.6244
    9CHTO    N5 3695   8.075   4.405   0.279  0.1022 -0.5622 -0.4106
    9CHTO   H43 3696   8.057   4.502   0.235 -1.2683 -0.9296 -0.6816
    9CHTO   H44 3697   8.099   4.417   0.384 -0.2218 -2.3659 -0.1237
    9CHTO   C25 3698   7.898   4.278   0.142 -0.4489 -0.3542 -0.0817
    9CHTO   H53 3699   7.972   4.206   0.106 -0.8020 -0.4325 -0.6503
    9CHTO   O17 3700   7.770   4.206   0.153  0.1065 -0.5814  0.2878
    9CHTO   C32 3701   7.797   4.087   0.225 -0.2792  0.4077  0.2702
    9CHTO   H60 3702   7.881   4.041   0.174 -2.6099 -0.8656 -2.5552
    9CHTO   C36 3703   7.661   4.011   0.215  0.1714 -0.8358 -0.0764
    9CHTO   O25 3704   7.627   3.955   0.089 -0.5388  0.0703 -0.0869
    9CHTO   H40 3705   7.614   4.026   0.030 -0.1187  0.4385  0.2568
    9CHTO   O15 3706   7.890   4.398   0.042  0.3894 -0.1712  0.4747
    9CHTO   C19 3707   7.838   4.445  -0.087 -0.8876  0.9664  0.7290
    9CHTO   H47 3708   7.828   4.553  -0.072  0.0200  1.5135 -2.3770
    9CHTO   C20 3709   7.942   4.421  -0.198  0.3259  0.7012 -0.1581
    9CHTO   H48 3710   7.965   4.314  -0.209  1.6493  0.8833  0.6832
    9CHTO   O19 3711   8.069   4.487  -0.170  0.3876  0.4296 -0.7757
    9CHTO   H35 3712   8.063   4.559  -0.110 -1.9339 -0.5129  0.1723
    9CHTO   C21 3713   7.880   4.459  -0.346 -0.6355  0.7860 -0.3327
    9CHTO   H49 3714   7.849   4.563  -0.337  1.0607  1.1382  2.0582
    9CHTO    N4 3715   7.973   4.438  -0.454  0.2140  0.1938 -0.1977
    9CHTO   H41 3716   7.988   4.535  -0.500 -2.4446  0.6525 -0.1592
    9CHTO   H42 3717   8.068   4.398  -0.422  0.3509  1.6603  1.3369
    9CHTO   C22 3718   7.745   4.380  -0.357 -0.0378  0.1580 -0.0197
    9CHTO   H50 3719   7.759   4.272  -0.351 -0.5268  0.0676 -0.4912
    9CHTO   O14 3720   7.656   4.421  -0.250 -0.8368  0.3193  0.1012
    9CHTO   C23 3721   7.699   4.380  -0.120 -0.5570  0.1491 -0.3412
    9CHTO   H51 3722   7.703   4.271  -0.115  1.2224  0.1189 -2.1072
    9CHTO   C34 3723   7.592   4.432  -0.021 -0.1298  0.4158  0.5744
    9CHTO   O23 3724   7.568   4.573  -0.038  0.2199  0.1254 -0.2101
    9CHTO   H38 3725   7.480   4.586  -0.068  0.0840  1.8868  0.9121
    9CHTO   O16 3726   7.665   4.423  -0.470  0.4463 -0.0943 -0.1745
    9CHTO   C24 3727   7.535   4.298  -0.507 -0.7263 -0.1929 -0.7304
    9CHTO   H52 3728   7.519   4.232  -0.422  1.8703 -0.3673 -0.3575
    9CHTO   C26 3729   7.574   4.211  -0.630  0.2729 -0.5525 -0.6525
    9CHTO   H54 3730   7.585   4.278  -0.718 -1.1304  1.1310  0.4128
    9CHTO   O20 3731   7.703   4.150  -0.595  0.2828  0.8619 -0.9121
    9CHTO   H36 3732   7.736   4.103  -0.669 -2.2299  2.0207 -2.8360
    9CHTO   C30 3733   7.462   4.106  -0.658 -0.0546 -0.1950 -0.5329
    9CHTO   H58 3734   7.443   4.041  -0.571  2.6198  1.8054  1.6201
    9CHTO    N6 3735   7.502   4.023  -0.775 -0.2322  0.0879 -0.8936
    9CHTO   H45 3736   7.596   3.977  -0.749  1.4443  3.2378 -1.0841
    9CHTO   H46 3737   7.430   3.949  -0.806  0.1651 -0.8181  0.2918
    9CHTO   C33 3738   7.329   4.181  -0.674  0.2479  0.3210  0.2126
    9CHTO   H61 3739   7.321   4.251  -0.758  1.2775 -0.8713 -0.9041
    9CHTO   O18 3740   7.308   4.263  -0.561  0.3949  0.2803 -0.0622
    9CHTO   C28 3741   7.399   4.370  -0.536 -0.7347 -0.0712 -0.1200
    9CHTO   H56 3742   7.418   4.444  -0.614 -0.3672  1.2586  1.1972
    9CHTO   C35 3743   7.346   4.450  -0.418 -0.5185 -0.7949 -0.3008
    9CHTO   O24 3744   7.223   4.512  -0.462  0.2157 -0.1464 -0.3496
    9CHTO   H39 3745   7.169   4.547  -0.393 -0.6444 -0.4509 -0.8694
    9CHTO    O9 3746   7.226   4.082  -0.693  0.1725  0.3879 -0.1735
    9CHTO   C13 3747   7.086   4.143  -0.750  0.9166 -0.2603  0.6945
    9CHTO   H26 3748   7.108   4.191  -0.847 -0.3756 -2.1879 -0.5835
    9CHTO   C11 3749   7.019   4.246  -0.645  0.3540  0.2197  0.5103
    9CHTO   H24 3750   7.077   4.339  -0.636 -0.6626  0.6500  2.8750
    9CHTO    O8 3751   7.026   4.186  -0.512 -0.7223  0.2438 -0.5841
    9CHTO    H3 3752   7.044   4.254  -0.451  3.4354 -0.5649 -0.7379
    9CHTO    C9 3753   6.881   4.291  -0.705 -0.6538 -0.9362  0.3921
    9CHTO   H22 3754   6.902   4.338  -0.802 -0.6839 -1.1424  0.2846
    9CHTO    N2 3755   6.810   4.393  -0.628 -1.3657  0.1530  0.0976
    9CHTO   H10 3756   6.854   4.392  -0.529 -0.0955 -1.6397 -0.4562
    9CHTO   H11 3757   6.821   4.486  -0.681  1.0831 -1.0553 -1.5814
    9CHTO    C7 3758   6.791   4.159  -0.726 -0.0081  0.2418  0.6211
    9CHTO   H20 3759   6.698   4.192  -0.777  1.0024  1.8329 -0.2272
    9CHTO    O4 3760   6.858   4.066  -0.815 -0.0903 -0.2147  0.6747
    9CHTO   C14 3761   6.995   4.026  -0.790  0.2562  0.1355 -0.1975
    9CHTO   H27 3762   7.025   3.974  -0.884 -0.3738 -0.2264 -0.2003
    9CHTO   C18 3763   6.984   3.917  -0.679  0.6639 -0.2058  0.2638
    9CHTO   O13 3764   6.883   3.822  -0.693  0.1195  0.1872 -0.0678
    9CHTO    H7 3765   6.915   3.764  -0.760 -1.5413 -0.2476 -0.5022
    9CHTO    O2 3766   6.752   4.082  -0.572 -0.5958  0.4997  0.3072
    9CHTO    C1 3767   6.620   4.038  -0.525  0.1847 -0.5919 -0.4293
    9CHTO   H14 3768   6.634   3.959  -0.448 -4.3008 -0.3323  0.8074
    9CHTO    C2 3769   6.527   3.990  -0.649  0.1336  0.1789  0.0096
    9CHTO   H15 3770   6.535   4.062  -0.731 -1.0003  0.7948  0.4289
    9CHTO    O6 3771   6.588   3.868  -0.695 -0.1264 -0.1617  0.2402
    9CHTO    H1 3772   6.633   3.819  -0.629 -2.8706 -1.7678  0.9742
    9CHTO    C3 3773   6.374   3.962  -0.601 -0.5652  0.1633 -0.4427
    9CHTO   H16 3774   6.379   3.868  -0.545 -0.3455  0.0734 -0.6109
    9CHTO    N1 3775   6.280   3.947  -0.719 -0.3091  0.6389 -0.3431
    9CHTO    H8 3776   6.330   3.989  -0.805 -0.1302  1.9402  0.3970
    9CHTO    H9 3777   6.251   3.844  -0.734  0.3365  0.1887  1.4034
    9CHTO    C4 3778   6.330   4.074  -0.494  0.0169 -0.6009  0.4917
    9CHTO   H17 3779   6.308   4.165  -0.550 -0.9372 -1.5138 -0.6412
    9CHTO    O1 3780   6.426   4.104  -0.393  0.1294  0.5441 -0.7390
    9CHTO    C5 3781   6.558   4.141  -0.441  0.0055 -0.2022 -0.0019
    9CHTO   H18 3782   6.554   4.235  -0.496 -0.6764 -0.1742  0.0939
    9CHTO   C16 3783   6.636   4.167  -0.312  0.0188 -0.2104 -0.2839
    9CHTO   O11 3784   6.765   4.227  -0.334 -0.4854 -0.3758  0.4701
    9CHTO    H5 3785   6.771   4.308  -0.288  3.1510 -0.7547  0.8033
    9CHTO    O3 3786   6.217   4.024  -0.426 -0.2884  0.3966 -0.1858
    9CHTO    C6 3787   6.105   4.113  -0.398  0.4658  0.1604  0.0928
    9CHTO   H19 3788   6.100   4.202  -0.462  0.9273  1.6395  2.0828
    9CHTO    C8 3789   5.964   4.045  -0.428 -0.5158 -0.3430 -0.1652
    9CHTO   H21 3790   5.971   3.948  -0.379  2.6263 -0.4756 -0.8196
    9CHTO    O7 3791   5.964   4.020  -0.572 -0.2858  0.4462 -0.3523
    9CHTO    H2 3792   5.961   4.103  -0.616 -1.6645  1.3033  1.3037
    9CHTO   C12 3793   5.837   4.128  -0.381  0.8152  0.3105  0.1857
    9CHTO   H25 3794   5.814   4.211  -0.451  0.4358  0.2237  0.2023
    9CHTO    N3 3795   5.723   4.027  -0.388 -0.3004  0.3906  0.0985
    9CHTO   H12 3796   5.701   3.994  -0.288 -1.3033 -0.2499 -0.3322
    9CHTO   H13 3797   5.631   4.075  -0.414 -0.1302  0.4171 -0.4582
    9CHTO   C15 3798   5.862   4.187  -0.241 -0.2807  0.4762  0.2587
    9CHTO   H28 3799   5.858   4.112  -0.162 -2.5986 -1.1381 -1.2756
    9CHTO   O10 3800   5.772   4.307  -0.193  0.3663  0.0343 -0.1772
    9CHTO    H4 3801   5.689   4.263  -0.202  1.3533 -1.4319 -2.4336
    9CHTO    O5 3802   5.988   4.253  -0.241  0.3855  0.2743 -0.1901
    9CHTO   C10 3803   6.103   4.166  -0.251 -0.5170 -0.1783 -0.6551
    9CHTO   H23 3804   6.093   4.078  -0.187 -0.3884 -0.2120 -0.6819
    9CHTO   C17 3805   6.224   4.254  -0.212 -0.1014  0.1423  0.4192
    9CHTO   O12 3806   6.257   4.338  -0.315  0.2816  0.0097  0.6015
    9CHTO    H6 3807   6.252   4.427  -0.285  0.0048 -0.0267  0.6596
   10CHTO  H203 3808   5.679   6.582   2.271  0.0521 -1.1875  0.1707
   10CHTO   O82 3809   5.665   6.568   2.180 -0.1514  0.1301 -0.0173
   10CHTO  C123 3810   5.546   6.621   2.136 -0.4474  0.5350  0.8931
   10CHTO  H227 3811   5.532   6.599   2.029 -0.0173 -0.7100  1.0789
   10CHTO   O77 3812   5.449   6.541   2.210 -0.2753  0.0015 -0.3169
   10CHTO  C118 3813   5.315   6.551   2.168  0.3117  0.1361 -0.1606
   10CHTO  H222 3814   5.316   6.530   2.060 -2.3730 -0.3678 -0.1096
   10CHTO  C125 3815   5.245   6.435   2.243 -0.2791  0.5698 -0.9794
   10CHTO   O84 3816   5.111   6.415   2.196  0.5049  0.0893  0.2009
   10CHTO  H205 3817   5.060   6.494   2.196  0.0915 -0.1777 -0.3188
   10CHTO  C114 3818   5.268   6.693   2.213  0.5926 -0.0117 -0.4593
   10CHTO  H218 3819   5.294   6.713   2.317  0.3636  1.4363 -0.6672
   10CHTO  C116 3820   5.360   6.809   2.153  0.5356  0.0239 -0.7815
   10CHTO  H220 3821   5.336   6.817   2.045  1.7231  0.3796 -1.0300
   10CHTO   O79 3822   5.338   6.938   2.219  0.4784 -0.4700  0.0633
   10CHTO  H201 3823   5.251   6.971   2.209  0.1161 -1.4242 -0.0821
   10CHTO  C120 3824   5.513   6.767   2.161 -0.4812  0.2255 -0.3788
   10CHTO  H224 3825   5.550   6.791   2.263 -0.4799  2.3100 -0.8437
   10CHTO   N21 3826   5.602   6.854   2.076 -0.0335 -0.0128  0.2978
   10CHTO  H211 3827   5.695   6.805   2.053  0.8269  2.0530 -0.8040
   10CHTO  H212 3828   5.550   6.885   1.987 -0.9109  2.3431  1.5839
   10CHTO   O75 3829   5.123   6.710   2.186  0.6466 -0.0444  0.0619
   10CHTO  C112 3830   5.016   6.762   2.322 -0.4688 -0.7365 -0.0086
   10CHTO  H216 3831   5.078   6.821   2.390 -0.5773  0.5483 -1.0089
   10CHTO   O73 3832   4.969   6.648   2.385 -0.0451  0.7687 -0.0025
   10CHTO  C113 3833   4.870   6.668   2.483 -0.2521 -0.4449 -0.3167
   10CHTO  H217 3834   4.907   6.727   2.569 -1.7372  0.7978 -0.5113
   10CHTO  C124 3835   4.836   6.522   2.542 -0.0697 -0.8676  0.0251
   10CHTO   O83 3836   4.958   6.454   2.579  0.3380 -0.1655  0.2623
   10CHTO  H204 3837   4.940   6.385   2.639  0.6503 -0.2233  0.2943
   10CHTO  C109 3838   4.751   6.748   2.444  0.2858  0.4932 -0.0358
   10CHTO  H213 3839   4.693   6.684   2.377  0.0972 -1.1195  1.6222
   10CHTO  C110 3840   4.795   6.874   2.369  0.3064 -0.2285 -0.4578
   10CHTO  H214 3841   4.837   6.947   2.437  0.1770 -1.8953  1.4607
   10CHTO   O78 3842   4.671   6.940   2.324 -0.9293 -0.7922  0.2440
   10CHTO  H200 3843   4.696   7.027   2.301  0.8058 -0.7336  2.1619
   10CHTO  C111 3844   4.898   6.845   2.259  0.4308 -0.0800 -0.0258
   10CHTO  H215 3845   4.846   6.780   2.187 -1.0611  1.1914 -0.1202
   10CHTO   N19 3846   4.940   6.968   2.189  0.5790  0.2250  0.5701
   10CHTO  H207 3847   4.897   6.982   2.091  1.9636 -1.5667 -0.3106
   10CHTO  H208 3848   5.048   6.976   2.190  0.8003 -2.3939  1.9827
   10CHTO   O74 3849   4.669   6.776   2.565  0.0148 -0.0079 -0.6574
   10CHTO  C115 3850   4.512   6.765   2.560  0.0013 -0.1990 -0.1193
   10CHTO  H219 3851   4.476   6.776   2.457 -1.2537 -3.6308 -0.1299
   10CHTO   O76 3852   4.459   6.623   2.602 -0.4015 -0.2535 -0.4255
   10CHTO  C122 3853   4.506   6.587   2.734 -0.0268 -0.5371  0.5982
   10CHTO  H226 3854   4.613   6.567   2.732  0.0456 -0.0460 -1.1892
   10CHTO  C126 3855   4.438   6.451   2.786 -1.0352 -0.2283  0.1351
   10CHTO   O85 3856   4.521   6.388   2.888 -0.3613 -0.2969  0.3030
   10CHTO  H206 3857   4.590   6.443   2.918  0.9587 -1.7649  0.0076
   10CHTO  C121 3858   4.470   6.704   2.843 -0.2176  0.0344 -0.3000
   10CHTO  H225 3859   4.417   6.672   2.935  0.5238  0.6405  0.3450
   10CHTO   O81 3860   4.593   6.766   2.899  0.1322 -0.3197  0.0710
   10CHTO  H202 3861   4.668   6.739   2.849 -0.2150 -0.6358 -0.2810
   10CHTO  C119 3862   4.377   6.810   2.777 -0.0560  0.4577 -0.0601
   10CHTO  H223 3863   4.296   6.749   2.737 -0.7086  1.0676  0.3247
   10CHTO  C117 3864   4.450   6.880   2.655  0.0885  0.6741  0.3319
   10CHTO  H221 3865   4.540   6.936   2.681  1.5671 -2.7912  3.1318
   10CHTO   N20 3866   4.363   6.974   2.588 -0.0598 -0.4774  0.5001
   10CHTO  H209 3867   4.388   6.979   2.483 -2.3291  0.1594 -0.0133
   10CHTO  H210 3868   4.261   6.941   2.593  1.0288 -3.8192  3.5265
   10CHTO   O80 3869   4.297   6.903   2.876 -0.2936 -0.0135 -0.6900
   10CHTO  C103 3870   4.136   6.861   2.925  0.2862  0.3694  0.8877
   10CHTO  H190 3871   4.099   6.936   2.994  1.4506  0.6261  1.2510
   10CHTO  C101 3872   4.029   6.845   2.804 -0.0982  0.4312 -1.1189
   10CHTO  H188 3873   4.064   6.780   2.724 -0.3803 -0.7291 -0.3184
   10CHTO   O68 3874   3.996   6.986   2.740  0.4104  0.0533 -0.1991
   10CHTO  H168 3875   4.059   7.052   2.759  1.1720 -0.4514 -0.9756
   10CHTO   C99 3876   3.887   6.782   2.864 -0.5892 -0.5452 -0.3927
   10CHTO  H186 3877   3.846   6.861   2.929 -0.0057 -0.5549 -0.0158
   10CHTO   N17 3878   3.788   6.744   2.763  0.4061 -0.3454 -0.2623
   10CHTO  H174 3879   3.690   6.722   2.804  0.5589  0.5164  0.5924
   10CHTO  H175 3880   3.781   6.812   2.679  0.4948 -1.4592 -1.1760
   10CHTO   C97 3881   3.928   6.661   2.953 -0.7459 -0.1627  0.5904
   10CHTO  H184 3882   3.976   6.593   2.881 -0.0818  0.6202  0.2831
   10CHTO   O64 3883   4.019   6.690   3.064  0.1843 -0.1453 -0.3865
   10CHTO  C104 3884   4.148   6.726   3.007  0.1809 -0.0405 -0.0327
   10CHTO  H191 3885   4.192   6.651   2.942 -1.3385 -0.4066 -0.6618
   10CHTO  C108 3886   4.240   6.738   3.131  0.3633  0.4948  0.0621
   10CHTO   O71 3887   4.184   6.832   3.230  0.6250 -0.1731  0.7469
   10CHTO  H171 3888   4.236   6.818   3.307  2.1703 -0.6798 -0.3366
   10CHTO   O62 3889   3.813   6.601   3.018 -0.7205  0.2880 -0.1480
   10CHTO   C91 3890   3.790   6.460   2.999 -0.0933  0.2857 -0.1995
   10CHTO  H178 3891   3.789   6.446   2.891  2.2879  1.3757 -0.3978
   10CHTO   C92 3892   3.652   6.419   3.045  0.0479 -0.1298 -0.1968
   10CHTO  H179 3893   3.573   6.477   2.995  0.5443  1.8694  1.2945
   10CHTO   O66 3894   3.639   6.279   3.002  0.7650 -0.4780 -0.4783
   10CHTO  H166 3895   3.690   6.215   3.047 -0.4455 -1.1161  0.0197
   10CHTO   C93 3896   3.633   6.404   3.206 -0.2514  0.1850 -0.1715
   10CHTO  H180 3897   3.542   6.345   3.224 -0.0529  0.0751  0.4972
   10CHTO   N16 3898   3.606   6.533   3.279  0.8501  0.1190 -0.3204
   10CHTO  H172 3899   3.603   6.620   3.216 -0.3668 -0.5673 -1.2326
   10CHTO  H173 3900   3.519   6.527   3.343  0.1440  1.0891 -1.1782
   10CHTO   C94 3901   3.750   6.323   3.270  0.0717  0.4439  0.6385
   10CHTO  H181 3902   3.814   6.388   3.330  1.7791 -0.8392  0.2652
   10CHTO   O61 3903   3.846   6.277   3.173 -0.1895 -0.3951 -0.4916
   10CHTO   C95 3904   3.901   6.371   3.078 -0.0483  0.0560  0.4847
   10CHTO  H182 3905   3.967   6.438   3.132 -0.9447 -0.7105  2.5871
   10CHTO  C106 3906   3.992   6.299   2.977 -0.9670  0.0285  0.2711
   10CHTO   O69 3907   4.088   6.220   3.046  0.1500 -0.0442  0.1946
   10CHTO  H169 3908   4.156   6.281   3.067 -0.6298  0.5690  0.9449
   10CHTO   O63 3909   3.695   6.199   3.348 -0.1883 -0.0946 -0.0073
   10CHTO   C96 3910   3.781   6.152   3.465 -0.0072 -0.5158 -0.2259
   10CHTO  H183 3911   3.883   6.183   3.440 -0.4825  1.1227 -0.1931
   10CHTO   C98 3912   3.777   5.994   3.471  0.1266  0.0056  0.4269
   10CHTO  H185 3913   3.671   5.967   3.462 -0.0005  0.0739  1.6793
   10CHTO   O67 3914   3.836   5.938   3.351 -0.0095 -0.0401 -0.2348
   10CHTO  H167 3915   3.773   5.906   3.289 -0.7053  1.3602 -0.2553
   10CHTO  C102 3916   3.839   5.934   3.609 -0.8419 -0.4031  0.4082
   10CHTO  H189 3917   3.949   5.941   3.602 -0.8871 -0.1439 -0.0837
   10CHTO   N18 3918   3.810   5.795   3.639  0.2790 -0.1030  0.0569
   10CHTO  H176 3919   3.879   5.759   3.714  0.6919  2.8516  1.1631
   10CHTO  H177 3920   3.806   5.733   3.551 -0.4031 -0.3610  0.2684
   10CHTO  C105 3921   3.815   6.020   3.731  0.3154 -0.0814  0.5257
   10CHTO  H192 3922   3.711   6.004   3.761  0.2987 -0.5545  0.2119
   10CHTO   O65 3923   3.836   6.159   3.703  0.4561  0.0382 -0.9823
   10CHTO  C100 3924   3.745   6.217   3.606  0.0758  0.3206 -0.0728
   10CHTO  H187 3925   3.639   6.188   3.613  0.6199 -2.0207 -1.0412
   10CHTO  C107 3926   3.762   6.371   3.613  0.2158 -0.0492 -0.6019
   10CHTO   O70 3927   3.635   6.434   3.603  0.5066  0.5499 -0.4310
   10CHTO  H170 3928   3.596   6.437   3.688 -1.2623 -0.5340 -1.1627
   10CHTO   O57 3929   3.904   5.980   3.856  0.1307  0.7888  0.4169
   10CHTO   C85 3930   3.844   5.956   3.981  0.1524  0.4374 -0.3241
   10CHTO  H157 3931   3.762   5.884   3.960  0.2577  0.6491 -1.4855
   10CHTO   C83 3932   3.777   6.091   4.034 -0.6715 -0.3317 -0.5131
   10CHTO  H155 3933   3.701   6.134   3.969 -1.2468  0.8837  0.9366
   10CHTO   O56 3934   3.880   6.191   4.029  0.1950  0.0856  0.2260
   10CHTO  H135 3935   3.846   6.273   4.000  0.6660  0.4202  0.6167
   10CHTO   C81 3936   3.719   6.069   4.178  0.0759 -0.2703  0.0415
   10CHTO  H153 3937   3.646   5.988   4.171 -1.5751  1.0399  1.7357
   10CHTO   N14 3938   3.637   6.182   4.236  0.3327 -0.6602 -0.0966
   10CHTO  H141 3939   3.541   6.144   4.265  0.3550 -0.9271 -0.3725
   10CHTO  H142 3940   3.631   6.262   4.165  1.1710  0.8580  1.4910
   10CHTO   C79 3941   3.833   6.025   4.275  0.1520 -0.7713 -0.5423
   10CHTO  H151 3942   3.790   5.991   4.369  1.5674 -0.1857  0.3294
   10CHTO   O52 3943   3.898   5.903   4.229  0.1445 -0.0876  0.5597
   10CHTO   C86 3944   3.946   5.904   4.089  0.4730  0.0434 -0.2616
   10CHTO  H158 3945   4.038   5.963   4.112  0.1618  0.9403 -1.2915
   10CHTO   C90 3946   3.992   5.758   4.051  0.1426 -0.3479 -0.4868
   10CHTO   O60 3947   4.088   5.758   3.948  0.0985 -0.1136  0.7873
   10CHTO  H138 3948   4.115   5.672   3.923  0.6391  0.5219 -0.8997
   10CHTO   O50 3949   3.927   6.127   4.300 -0.4420 -0.1336  0.3856
   10CHTO   C73 3950   4.026   6.120   4.400  0.3738  0.6613 -0.7898
   10CHTO  H145 3951   4.067   6.019   4.414  0.8072  0.9090 -0.2936
   10CHTO   C74 3952   3.972   6.176   4.538 -0.2188 -0.0401  0.6574
   10CHTO  H146 3953   3.878   6.121   4.554 -1.4023  1.3807 -1.2136
   10CHTO   O54 3954   4.067   6.141   4.645 -0.2531  0.0545 -0.2004
   10CHTO  H133 3955   4.063   6.186   4.727 -1.3374 -1.6132  0.6663
   10CHTO   C75 3956   3.946   6.326   4.513 -0.4355  0.2534  0.4210
   10CHTO  H147 3957   3.875   6.343   4.431 -1.4838  2.1222  1.6681
   10CHTO   N13 3958   3.864   6.389   4.617 -0.4840  0.2017  1.1200
   10CHTO  H139 3959   3.921   6.375   4.708 -1.5000 -1.9037  1.4471
   10CHTO  H140 3960   3.829   6.490   4.601 -0.7128 -0.0716 -0.1662
   10CHTO   C76 3961   4.086   6.401   4.469 -0.4752  0.2181 -0.5257
   10CHTO  H148 3962   4.159   6.369   4.542 -2.0141 -2.4871 -0.1097
   10CHTO   O49 3963   4.138   6.351   4.344 -0.1494 -0.6032 -0.0897
   10CHTO   C77 3964   4.149   6.212   4.350  0.0255 -0.1297 -0.7503
   10CHTO  H149 3965   4.233   6.185   4.414 -0.1746  1.1199  0.0461
   10CHTO   C88 3966   4.195   6.167   4.209  0.0102  0.1219  0.1122
   10CHTO   O58 3967   4.248   6.013   4.211  0.3538  0.8323  0.2932
   10CHTO  H136 3968   4.331   6.016   4.254  1.3116 -1.6223 -1.2685
   10CHTO   O51 3969   4.054   6.562   4.451  0.6882 -0.4512  0.5264
   10CHTO   C78 3970   4.175   6.645   4.510 -0.0260 -0.0910 -1.6388
   10CHTO  H150 3971   4.269   6.597   4.475  0.9350  1.2965 -1.0381
   10CHTO   C80 3972   4.182   6.649   4.664  0.2648 -0.6110  0.1508
   10CHTO  H152 3973   4.085   6.693   4.696  0.8185  0.9062 -0.2128
   10CHTO   O55 3974   4.201   6.512   4.719 -0.4044  0.2061  0.1861
   10CHTO  H134 3975   4.198   6.528   4.811 -2.3226  3.3010 -0.3314
   10CHTO   C84 3976   4.299   6.742   4.699  0.2004 -0.3302 -0.0339
   10CHTO  H156 3977   4.394   6.720   4.652  0.0733  0.4784 -0.6930
   10CHTO   N15 3978   4.323   6.746   4.844  0.1490  0.5200 -0.6429
   10CHTO  H143 3979   4.230   6.765   4.893  0.7717 -0.4659  0.9483
   10CHTO  H144 3980   4.361   6.654   4.881 -2.9960 -0.5323  0.1191
   10CHTO   C87 3981   4.283   6.885   4.645 -0.2391  0.0908 -0.1561
   10CHTO  H159 3982   4.209   6.946   4.697 -1.0832 -0.9183 -0.1440
   10CHTO   O53 3983   4.269   6.868   4.503  0.1915  0.5638 -0.1134
   10CHTO   C82 3984   4.157   6.785   4.455  0.3956 -0.1750 -1.1317
   10CHTO  H154 3985   4.062   6.824   4.492  0.7804  1.4999 -1.8695
   10CHTO   C89 3986   4.161   6.805   4.305  0.3939 -0.8884 -0.0092
   10CHTO   O59 3987   4.132   6.937   4.266  0.3807  0.3010  0.6263
   10CHTO  H137 3988   4.135   6.946   4.172 -0.2363 -1.0241  0.4757
   10CHTO   O45 3989   4.429   6.953   4.655 -0.3277  0.4852 -0.0542
   10CHTO   C67 3990   4.451   7.091   4.652  0.9196 -0.0591  0.7668
   10CHTO  H124 3991   4.384   7.136   4.580  1.5146 -1.4823 -0.7193
   10CHTO   C65 3992   4.428   7.153   4.786  0.1797 -0.4979  0.3684
   10CHTO  H122 3993   4.438   7.071   4.857  0.8545  1.0320  2.0724
   10CHTO   O44 3994   4.294   7.201   4.776  0.6382 -0.4766 -0.1529
   10CHTO  H102 3995   4.240   7.126   4.762  2.9575 -2.3633  0.5619
   10CHTO   C63 3996   4.539   7.251   4.840 -0.3028 -0.3126 -0.5735
   10CHTO  H120 3997   4.631   7.199   4.866 -0.5468 -0.2162  0.5224
   10CHTO   N11 3998   4.508   7.315   4.973 -0.1984  0.0698  0.4032
   10CHTO  H108 3999   4.551   7.413   4.978  0.6618 -0.3827  1.9667
   10CHTO  H109 4000   4.542   7.261   5.058 -1.5481  0.9578  1.5173
   10CHTO   C61 4001   4.581   7.343   4.719 -0.9096  1.1425 -0.2319
   10CHTO  H118 4002   4.664   7.402   4.759 -0.0752 -1.4400  1.9965
   10CHTO   O40 4003   4.632   7.267   4.603  0.2361 -0.1665  0.1862
   10CHTO   C68 4004   4.601   7.122   4.605  0.5679  0.4923 -0.1858
   10CHTO  H125 4005   4.672   7.071   4.673  0.5378 -2.0767 -1.9924
   10CHTO   C72 4006   4.625   7.062   4.463  0.1650  0.3751 -0.5852
   10CHTO   O48 4007   4.568   7.152   4.362  0.1796 -0.0524  0.2375
   10CHTO  H105 4008   4.591   7.130   4.274 -1.2975  1.9644 -0.7001
   10CHTO   O38 4009   4.467   7.421   4.666 -0.4212  0.3621 -0.0368
   10CHTO   C55 4010   4.496   7.552   4.602 -0.2198  0.4599  0.6960
   10CHTO  H112 4011   4.409   7.568   4.537 -0.2432 -1.7421  0.1381
   10CHTO   C56 4012   4.637   7.564   4.518 -0.0128  0.7982  0.3374
   10CHTO  H113 4013   4.714   7.518   4.581 -0.7277 -0.5703  0.2374
   10CHTO   O42 4014   4.626   7.481   4.398 -0.4485 -0.1508 -0.1555
   10CHTO  H100 4015   4.652   7.393   4.418  0.1939 -0.1758 -1.0617
   10CHTO   C57 4016   4.671   7.711   4.477 -0.3935  0.1748 -0.6663
   10CHTO  H114 4017   4.626   7.733   4.380 -0.5137  2.1173 -0.1898
   10CHTO   N10 4018   4.815   7.728   4.440  0.5823 -0.7268  0.2843
   10CHTO  H106 4019   4.828   7.701   4.336 -4.6091  1.0511 -0.9275
   10CHTO  H107 4020   4.886   7.667   4.495  1.9048  0.6800  0.1660
   10CHTO   C58 4021   4.630   7.820   4.578 -0.2023  0.2700  0.7516
   10CHTO  H115 4022   4.707   7.833   4.657 -0.0875  2.3510  0.3278
   10CHTO   O37 4023   4.490   7.792   4.624 -0.1351 -0.5004  0.5100
   10CHTO   C59 4024   4.498   7.669   4.707  0.2278  0.2960 -0.7640
   10CHTO  H116 4025   4.594   7.664   4.758  0.0619  2.0870 -0.2410
   10CHTO   C70 4026   4.377   7.662   4.805  0.2470 -0.7212  0.2867
   10CHTO   O46 4027   4.366   7.766   4.907  0.3773 -0.6352 -0.3263
   10CHTO  H103 4028   4.309   7.837   4.884  0.4464 -0.2510  0.6647
   10CHTO   O39 4029   4.620   7.953   4.491 -0.0593 -0.7601  0.7273
   10CHTO   C60 4030   4.634   8.083   4.546 -0.4838 -0.3228 -0.1232
   10CHTO  H117 4031   4.587   8.145   4.469  0.3380 -0.8336 -1.0493
   10CHTO   C62 4032   4.556   8.118   4.677 -0.3174 -0.0497  0.0878
   10CHTO  H119 4033   4.453   8.083   4.658 -0.7947  1.1912  0.3506
   10CHTO   O43 4034   4.622   8.049   4.782  0.1316  0.0813  0.3921
   10CHTO  H101 4035   4.576   8.055   4.863  1.8871  3.9829  1.2213
   10CHTO   C66 4036   4.551   8.281   4.700 -0.6641  0.4465 -0.2788
   10CHTO  H123 4037   4.522   8.330   4.608  1.3846  3.3001  0.5461
   10CHTO   N12 4038   4.456   8.325   4.802 -0.0452  0.0587 -0.1224
   10CHTO  H110 4039   4.521   8.383   4.866 -0.4968 -0.4911  0.8440
   10CHTO  H111 4040   4.382   8.388   4.755 -1.1527 -1.3567 -0.3299
   10CHTO   C69 4041   4.701   8.308   4.734 -0.3966 -1.0554  0.0103
   10CHTO  H126 4042   4.736   8.254   4.824 -3.1011 -0.2386  1.5993
   10CHTO   O41 4043   4.793   8.279   4.614 -0.0253 -0.1368  0.1243
   10CHTO   C64 4044   4.786   8.134   4.556  1.0395  0.4704  0.8495
   10CHTO  H121 4045   4.839   8.056   4.614  0.9384 -0.7767 -0.6926
   10CHTO   C71 4046   4.843   8.132   4.414 -0.2516  0.1594  0.3501
   10CHTO   O47 4047   4.982   8.117   4.432  0.0110 -0.4720 -0.5442
   10CHTO  H104 4048   5.035   8.194   4.420 -1.3720  0.8274  1.5507
   10CHTO   O34 4049   4.721   8.448   4.769  0.2785  0.7058 -0.7787
   10CHTO   C49 4050   4.764   8.590   4.695  0.0008 -0.4960  0.2217
   10CHTO   H91 4051   4.867   8.593   4.660 -0.3322 -0.8051 -0.7962
   10CHTO   C47 4052   4.747   8.702   4.805  0.8428 -0.3283  0.4495
   10CHTO   H89 4053   4.793   8.791   4.757  1.0235 -1.1481 -0.9272
   10CHTO   O33 4054   4.816   8.670   4.923  0.0799 -0.3174 -0.1517
   10CHTO   H70 4055   4.808   8.580   4.951 -1.6099 -0.4710 -1.0843
   10CHTO   C45 4056   4.589   8.739   4.834  0.1033  0.4169  0.3815
   10CHTO   H87 4057   4.541   8.644   4.860 -0.9940  0.8519 -0.0479
   10CHTO    N8 4058   4.564   8.825   4.948  0.0686 -0.0256 -0.3535
   10CHTO   H75 4059   4.658   8.846   4.997 -0.0165  1.9156 -0.9825
   10CHTO   H76 4060   4.501   8.778   5.022  1.6247 -0.6670  0.5852
   10CHTO   C43 4061   4.529   8.788   4.692 -0.4885 -0.1373  0.0325
   10CHTO   H85 4062   4.425   8.814   4.709 -1.9590 -3.2528 -3.3705
   10CHTO   O29 4063   4.540   8.677   4.590  0.0106 -0.1724 -0.4020
   10CHTO   C50 4064   4.663   8.611   4.574 -0.2834 -0.0887  0.1445
   10CHTO   H92 4065   4.633   8.509   4.547 -2.1736  0.6270 -0.5036
   10CHTO   C54 4066   4.733   8.673   4.449 -0.4738  0.2593  0.1381
   10CHTO   O36 4067   4.851   8.613   4.410  0.3571 -0.5315  0.1006
   10CHTO   H72 4068   4.924   8.648   4.457 -0.0621  0.4220  0.0481
   10CHTO   O27 4069   4.592   8.907   4.647  0.2656 -0.3210 -0.1190
   10CHTO   C37 4070   4.615   9.034   4.581  0.3665  0.0696 -0.2089
   10CHTO   H79 4071   4.690   9.020   4.502 -0.4973  1.7539 -1.3660
   10CHTO   C38 4072   4.492   9.096   4.508  0.4912 -0.2219  0.2345
   10CHTO   H80 4073   4.407   9.081   4.576  1.1754 -1.5931  0.8180
   10CHTO   O31 4074   4.476   9.024   4.385  0.1115 -0.3751 -0.2878
   10CHTO   H68 4075   4.560   9.014   4.343  0.5839  0.2158  0.5137
   10CHTO   C39 4076   4.506   9.250   4.472  0.1408  0.1504 -0.1474
   10CHTO   H81 4077   4.566   9.257   4.381 -0.1337 -3.0246 -0.6503
   10CHTO    N7 4078   4.376   9.321   4.431 -0.2341  0.0645  0.1955
   10CHTO   H73 4079   4.338   9.377   4.515  1.0665 -2.4687  2.5870
   10CHTO   H74 4080   4.378   9.367   4.333 -1.0033 -2.0404 -0.8456
   10CHTO   C40 4081   4.580   9.326   4.589 -0.1589  0.0550 -1.0445
   10CHTO   H82 4082   4.519   9.339   4.679  1.3924 -0.1065  0.0335
   10CHTO   O26 4083   4.699   9.256   4.618  0.5126  0.4651  0.3597
   10CHTO   C41 4084   4.672   9.129   4.678 -0.2432 -0.7036 -0.2498
   10CHTO   H83 4085   4.607   9.145   4.765  1.0386  0.0199  0.5992
   10CHTO   C52 4086   4.811   9.081   4.726 -0.5926  0.2102 -0.5894
   10CHTO   O35 4087   4.842   9.150   4.833  0.0667 -0.3097 -0.1194
   10CHTO   H71 4088   4.933   9.146   4.852 -0.1726 -3.2270  0.6412
   10CHTO   O28 4089   4.635   9.453   4.555 -0.2396  0.2801 -0.1770
   10CHTO   C42 4090   4.667   9.551   4.658 -0.0802 -0.3064  1.0940
   10CHTO   H84 4091   4.690   9.501   4.752 -1.5815 -1.4660  0.8778
   10CHTO   C44 4092   4.542   9.640   4.687  0.2656 -0.6760 -0.3976
   10CHTO   H86 4093   4.507   9.678   4.591  2.3593 -1.5355 -1.5284
   10CHTO   O32 4094   4.438   9.555   4.743 -0.0905 -0.8726  0.3114
   10CHTO   H69 4095   4.375   9.535   4.676 -1.0194  4.0313 -0.4913
   10CHTO   C48 4096   4.569   9.773   4.777  0.2203  0.7095  0.2046
   10CHTO   H90 4097   4.589   9.731   4.876 -0.3338 -1.4831 -0.5738
   10CHTO    N9 4098   4.447   9.856   4.783 -0.2629 -0.7436 -0.0741
   10CHTO   H77 4099   4.402   9.848   4.881 -0.3231 -2.9118 -0.2466
   10CHTO   H78 4100   4.372   9.821   4.713 -0.6486  0.9439 -0.5236
   10CHTO   C51 4101   4.699   9.834   4.723 -0.1592  0.0553 -0.4537
   10CHTO   H93 4102   4.677   9.860   4.620 -1.0686  0.2315 -0.2170
   10CHTO   O30 4103   4.804   9.737   4.736  0.5170  0.5714  0.3876
   10CHTO   C46 4104   4.791   9.635   4.626 -0.3854 -0.3478 -0.0794
   10CHTO   H88 4105   4.778   9.685   4.530  1.0707 -1.1680 -0.7143
   10CHTO   C53 4106   4.921   9.549   4.622  0.2560 -0.0903  0.0676
   10CHTO   O72 4107   5.029   9.608   4.549 -0.2933 -0.0351 -0.2261
   10CHTO  H199 4108   5.038   9.592   4.457  1.3366  0.3713 -0.1555
   10CHTO   O22 4109   4.743   9.953   4.795  0.1117  0.2484  0.2360
   10CHTO   C31 4110   4.830  10.053   4.728  0.4993 -0.3723 -0.6923
   10CHTO   H59 4111   4.857  10.129   4.805 -0.3725 -0.6094 -0.1401
   10CHTO   C29 4112   4.965  10.005   4.669 -0.5742  0.3434 -0.4156
   10CHTO   H57 4113   4.940   9.928   4.595  1.5898 -0.0708 -0.7675
   10CHTO   O21 4114   5.046   9.948   4.778  0.2452 -0.0198  0.0027
   10CHTO   H37 4115   4.982   9.897   4.823 -2.4008  3.1317 -0.0599
   10CHTO   C27 4116   5.039  10.121   4.591  0.0383 -0.4123 -0.1066
   10CHTO   H55 4117   5.068  10.195   4.667 -0.6226  2.0238 -2.1666
   10CHTO    N5 4118   5.152  10.066   4.515 -0.0184 -0.0215  0.0341
   10CHTO   H43 4119   5.128   9.970   4.473  0.4982  0.3729 -1.1813
   10CHTO   H44 4120   5.232  10.056   4.587 -0.3330 -2.2048  0.0941
   10CHTO   C25 4121   4.950  10.206   4.500  0.6479  0.0938  0.1696
   10CHTO   H53 4122   4.935  10.150   4.407  2.7197 -0.7953  0.3386
   10CHTO   O17 4123   4.821  10.236   4.563 -0.1306  0.0300  0.4261
   10CHTO   C32 4124   4.744  10.126   4.624 -0.1934 -0.3011  0.0561
   10CHTO   H60 4125   4.717  10.054   4.546 -1.3553  0.7155 -0.5100
   10CHTO   C36 4126   4.604  10.177   4.682  0.4967  0.5045 -0.3225
   10CHTO   O25 4127   4.626  10.263   4.795  0.3169  0.3959  0.2414
   10CHTO   H40 4128   4.599  10.216   4.871  0.2384  1.2810  0.7729
   10CHTO   O15 4129   5.003  10.336   4.476  0.1385 -0.1181  0.5166
   10CHTO   C19 4130   4.992  10.454   4.391 -0.1376  0.2338 -0.0288
   10CHTO   H47 4131   4.898  10.439   4.336 -0.3240  1.6554 -0.1217
   10CHTO   C20 4132   4.993  10.593   4.471 -0.5286  0.1180  0.5450
   10CHTO   H48 4133   5.088  10.610   4.523 -0.3926 -2.8797  1.3943
   10CHTO   O19 4134   4.890  10.604   4.570 -0.2607  0.6853 -0.6632
   10CHTO   H35 4135   4.812  10.573   4.528  0.4412  0.2404 -1.6547
   10CHTO   C21 4136   4.973  10.704   4.359  0.1266 -0.2189 -0.1470
   10CHTO   H49 4137   4.877  10.690   4.309  0.0301 -1.3736  0.3560
   10CHTO    N4 4138   4.972  10.841   4.413 -0.1409 -0.2400 -0.1270
   10CHTO   H41 4139   4.964  10.911   4.330 -0.3902  1.7096  1.5066
   10CHTO   H42 4140   4.893  10.859   4.484  0.9726 -1.1792  1.3721
   10CHTO   C22 4141   5.085  10.683   4.254 -0.9831  0.3266 -0.3421
   10CHTO   H50 4142   5.172  10.696   4.318 -1.1528  0.0869 -0.0564
   10CHTO   O14 4143   5.076  10.556   4.191 -0.3760 -0.1277  0.3159
   10CHTO   C23 4144   5.094  10.447   4.278 -0.8186  0.5984 -0.5945
   10CHTO   H51 4145   5.196  10.444   4.318 -0.4523 -0.2994 -1.5974
   10CHTO   C34 4146   5.083  10.319   4.196  0.2116  0.0678 -0.2127
   10CHTO   O23 4147   4.958  10.307   4.119 -0.4359  0.8297  0.2254
   10CHTO   H38 4148   4.938  10.388   4.075 -0.9914  0.3923 -0.3394
   10CHTO   O16 4149   5.088  10.767   4.140  0.2001  0.3285 -0.0584
   10CHTO   C24 4150   5.240  10.823   4.091  0.2785 -0.4204 -0.2194
   10CHTO   H52 4151   5.318  10.787   4.157 -0.5340 -2.0800 -0.1386
   10CHTO   C26 4152   5.225  10.978   4.092 -0.2673 -0.7583  0.9384
   10CHTO   H54 4153   5.137  11.008   4.032 -0.0956  0.8395  1.4586
   10CHTO   O20 4154   5.201  11.026   4.226 -0.5990 -0.0294 -0.0510
   10CHTO   H36 4155   5.253  10.967   4.277 -0.6844  0.7737  0.9724
   10CHTO   C30 4156   5.357  11.040   4.031  0.2599 -0.8452  0.4019
   10CHTO   H58 4157   5.443  11.052   4.099 -0.3994  2.1994  0.7453
   10CHTO    N6 4158   5.329  11.185   3.993  0.2387 -0.2742  0.5397
   10CHTO   H45 4159   5.291  11.233   4.082  0.5562 -1.0533  1.1069
   10CHTO   H46 4160   5.258  11.190   3.912 -0.2262  3.0445  1.0801
   10CHTO   C33 4161   5.413  10.959   3.908  0.0815  0.0443  0.4184
   10CHTO   H61 4162   5.368  10.985   3.811  2.1180  0.5500 -0.4277
   10CHTO   O18 4163   5.408  10.817   3.924 -1.1940  0.2769  0.6826
   10CHTO   C28 4164   5.275  10.772   3.951  0.2403 -0.0323  0.7135
   10CHTO   H56 4165   5.198  10.809   3.884 -0.1654 -0.1115  1.1364
   10CHTO   C35 4166   5.275  10.612   3.938 -0.2358 -0.2332  0.3687
   10CHTO   O24 4167   5.289  10.571   3.794 -0.3581  0.1696 -0.3688
   10CHTO   H39 4168   5.377  10.585   3.766 -0.0784 -1.0141 -0.1132
   10CHTO    O9 4169   5.547  11.005   3.893 -0.6037  0.1081  0.1052
   10CHTO   C13 4170   5.608  11.013   3.730  0.7950  0.9267  0.8127
   10CHTO   H26 4171   5.543  11.092   3.688 -1.3433 -1.2863 -0.1556
   10CHTO   C11 4172   5.593  10.881   3.652 -0.0464  0.2072 -0.0008
   10CHTO   H24 4173   5.489  10.858   3.626  0.2657  0.6671 -1.7269
   10CHTO    O8 4174   5.624  10.771   3.740  0.2910 -0.3019 -0.2477
   10CHTO    H3 4175   5.572  10.778   3.817  1.2976  1.5414  0.2794
   10CHTO    C9 4176   5.689  10.888   3.527  0.3417 -0.1583  0.2483
   10CHTO   H22 4177   5.663  10.982   3.476 -0.6009 -1.5098 -1.8574
   10CHTO    N2 4178   5.656  10.779   3.429  0.1711 -0.1007  0.0210
   10CHTO   H10 4179   5.689  10.802   3.328 -2.2067 -0.6647 -0.9277
   10CHTO   H11 4180   5.553  10.746   3.425  0.3689 -0.7751  0.4086
   10CHTO    C7 4181   5.838  10.885   3.576 -0.1496 -0.0393  0.6921
   10CHTO   H20 4182   5.895  10.943   3.501 -1.2944 -0.7526 -0.7458
   10CHTO    O4 4183   5.850  10.946   3.710 -0.4483  0.3527  0.1369
   10CHTO   C14 4184   5.761  11.055   3.734  0.1977 -0.1916 -0.0611
   10CHTO   H27 4185   5.780  11.118   3.645  2.2699 -0.5333  0.1097
   10CHTO   C18 4186   5.807  11.130   3.857 -0.1241  0.0513 -0.3448
   10CHTO   O13 4187   5.751  11.265   3.865 -0.3410 -0.2090  0.3725
   10CHTO    H7 4188   5.795  11.317   3.930  2.4564 -0.7290 -1.0560
   10CHTO    O2 4189   5.902  10.737   3.581 -0.7017 -0.1940  0.1999
   10CHTO    C1 4190   6.044  10.730   3.603 -0.0941 -0.1617  0.0604
   10CHTO   H14 4191   6.066  10.802   3.685 -1.9262  2.7391 -1.8990
   10CHTO    C2 4192   6.151  10.754   3.481  1.2631 -0.8519 -0.3735
   10CHTO   H15 4193   6.122  10.699   3.389  2.1463  2.6631 -2.8433
   10CHTO    O6 4194   6.144  10.886   3.432  0.1660  0.5241 -0.1227
   10CHTO    H1 4195   6.198  10.900   3.356 -0.4814 -1.6934 -1.0249
   10CHTO    C3 4196   6.292  10.710   3.530 -0.4673 -0.2803 -0.2817
   10CHTO   H16 4197   6.327  10.786   3.601 -0.8846  0.8031 -1.2285
   10CHTO    N1 4198   6.398  10.720   3.414  0.2093 -0.1950  0.2545
   10CHTO    H8 4199   6.416  10.824   3.390  0.3387  0.4941  3.0601
   10CHTO    H9 4200   6.491  10.668   3.434 -0.7181 -2.1350 -0.3338
   10CHTO    C4 4201   6.303  10.565   3.599  0.0464  0.1635  0.0902
   10CHTO   H17 4202   6.297  10.491   3.520 -0.6476  0.4600 -0.1388
   10CHTO    O1 4203   6.202  10.554   3.704 -0.1364 -0.0648 -0.1571
   10CHTO    C5 4204   6.062  10.592   3.672  0.4773  0.0341 -0.5238
   10CHTO   H18 4205   6.019  10.516   3.607  0.7653  1.3173 -2.2577
   10CHTO   C16 4206   5.987  10.581   3.810 -0.3684 -0.3157 -0.6069
   10CHTO   O11 4207   5.985  10.442   3.838 -0.0579 -0.2670 -0.4011
   10CHTO    H5 4208   5.917  10.433   3.902  0.7299 -0.4359  0.4309
   10CHTO    O3 4209   6.432  10.558   3.670  0.5864 -0.1791  0.4216
   10CHTO    C6 4210   6.488  10.421   3.678 -0.1757 -0.0121  0.7534
   10CHTO   H19 4211   6.408  10.350   3.656  0.4084 -0.3965 -0.1059
   10CHTO    C8 4212   6.609  10.402   3.590  0.1480  0.2807  0.2460
   10CHTO   H21 4213   6.677  10.485   3.605  0.8069 -0.0320 -0.9248
   10CHTO    O7 4214   6.562  10.406   3.451 -0.1828 -0.1221 -0.1744
   10CHTO    H2 4215   6.645  10.416   3.407 -0.1273 -0.2093 -0.0913
   10CHTO   C12 4216   6.683  10.264   3.622 -0.6906  0.0273  0.1599
   10CHTO   H25 4217   6.626  10.174   3.590 -0.9839  0.5745 -0.9048
   10CHTO    N3 4218   6.812  10.270   3.545 -0.8125  0.3490 -0.2021
   10CHTO   H12 4219   6.852  10.368   3.523  0.3850 -0.3768 -1.2816
   10CHTO   H13 4220   6.887  10.236   3.615  0.8740  1.7127 -1.2970
   10CHTO   C15 4221   6.692  10.245   3.777 -0.0969 -0.6484 -0.5432
   10CHTO   H28 4222   6.764  10.312   3.826 -1.6709 -0.1180  1.1230
   10CHTO   O10 4223   6.725  10.092   3.818  0.5019  0.4253  0.0824
   10CHTO    H4 4224   6.793  10.055   3.764 -1.2608  0.0436 -1.9673
   10CHTO    O5 4225   6.564  10.253   3.841  0.6155 -0.3004  0.3369
   10CHTO   C10 4226   6.515  10.389   3.827 -0.0640  0.4820 -0.4864
   10CHTO   H23 4227   6.584  10.459   3.874  0.6519  0.4966 -1.5335
   10CHTO   C17 4228   6.390  10.403   3.910 -0.7184  0.1513 -0.1884
   10CHTO   O12 4229   6.423  10.384   4.053 -0.3114  0.1515  0.3285
   10CHTO    H6 4230   6.492  10.323   4.067 -0.8544 -0.3230  0.9612
   11CHTO  H203 4231   7.969   5.232   0.197 -0.2328 -1.8761  0.6870
   11CHTO   O82 4232   7.892   5.255   0.245 -0.4549  0.3424 -0.6482
   11CHTO  C123 4233   7.852   5.387   0.209 -0.2584 -0.3724  0.4854
   11CHTO  H227 4234   7.900   5.406   0.111 -1.3791 -0.0875 -0.0142
   11CHTO   O77 4235   7.713   5.386   0.200 -0.2981 -0.7917 -0.2741
   11CHTO  C118 4236   7.653   5.503   0.144 -0.1207 -0.1978 -0.2252
   11CHTO  H222 4237   7.702   5.537   0.051 -0.3826  2.6315  0.6314
   11CHTO  C125 4238   7.501   5.503   0.126  0.3118  0.2865 -0.0939
   11CHTO   O84 4239   7.457   5.437  -0.000  0.0661 -0.8349  0.4672
   11CHTO  H205 4240   7.469   5.344   0.005 -2.5512 -1.5139 -3.7463
   11CHTO  C114 4241   7.678   5.626   0.238 -0.1849 -0.3443  0.1194
   11CHTO  H218 4242   7.635   5.607   0.336 -1.8417  2.1496 -0.0711
   11CHTO  C116 4243   7.832   5.631   0.263 -0.1642  0.5774 -0.1179
   11CHTO  H220 4244   7.887   5.655   0.169  1.1173  0.4930  0.6048
   11CHTO   O79 4245   7.860   5.746   0.347 -0.2434  0.0078 -0.3698
   11CHTO  H201 4246   7.791   5.810   0.344 -1.0353 -0.6703  2.1313
   11CHTO  C120 4247   7.897   5.501   0.311  0.7043  0.6762  0.5544
   11CHTO  H224 4248   7.862   5.484   0.415 -0.2750 -1.1056 -0.0518
   11CHTO   N21 4249   8.047   5.516   0.321 -0.0573 -0.0653  0.1308
   11CHTO  H211 4250   8.099   5.480   0.234  0.3344  1.6232 -0.3463
   11CHTO  H212 4251   8.072   5.620   0.339 -4.8344  1.3817 -1.0195
   11CHTO   O75 4252   7.623   5.743   0.174 -0.4062 -0.1188 -0.3779
   11CHTO  C112 4253   7.549   5.849   0.269 -0.2777 -0.7746  0.2496
   11CHTO  H216 4254   7.595   5.838   0.368  3.3094  2.9415 -0.8895
   11CHTO   O73 4255   7.413   5.817   0.271  0.0693  0.0536  0.0026
   11CHTO  C113 4256   7.320   5.898   0.344 -0.5223  0.1831  0.3634
   11CHTO  H217 4257   7.350   5.897   0.451  0.6485  2.7793  0.1045
   11CHTO  C124 4258   7.181   5.838   0.337 -0.3221  0.1425  0.3511
   11CHTO   O83 4259   7.137   5.806   0.203 -0.3750 -0.0670  0.8021
   11CHTO  H204 4260   7.147   5.882   0.148  2.4455 -2.0547 -1.6061
   11CHTO  C109 4261   7.320   6.049   0.299 -0.1308  0.3723 -0.0820
   11CHTO  H213 4262   7.287   6.053   0.194 -3.4269 -0.3979  0.8826
   11CHTO  C110 4263   7.475   6.099   0.306 -0.1216  0.1477 -0.2414
   11CHTO  H214 4264   7.500   6.094   0.412 -1.5016 -0.9673  0.0515
   11CHTO   O78 4265   7.463   6.232   0.254 -0.4312  0.3197 -0.3645
   11CHTO  H200 4266   7.480   6.294   0.322 -1.5062  0.9768 -0.6910
   11CHTO  C111 4267   7.564   5.997   0.226 -0.0387 -0.0193 -0.1960
   11CHTO  H215 4268   7.536   6.002   0.120  1.3045 -1.6292 -0.6428
   11CHTO   N19 4269   7.709   6.031   0.232 -0.4236 -0.1860  0.1571
   11CHTO  H207 4270   7.741   6.054   0.131 -0.0430  0.9554  0.5406
   11CHTO  H208 4271   7.725   6.109   0.303 -0.4279 -1.2995  1.3972
   11CHTO   O74 4272   7.232   6.126   0.373  0.5391 -0.3539 -0.2232
   11CHTO  C115 4273   7.161   6.241   0.284 -0.0656 -0.0176  0.5110
   11CHTO  H219 4274   7.220   6.263   0.195 -0.5916  0.6006  0.3088
   11CHTO   O76 4275   7.039   6.195   0.233  0.0418 -0.1819  0.1825
   11CHTO  C122 4276   6.948   6.142   0.328 -0.5557  0.5192 -0.3550
   11CHTO  H226 4277   6.985   6.043   0.356 -0.7653  0.8646  1.2231
   11CHTO  C126 4278   6.823   6.132   0.253  0.6462  0.3313 -0.5841
   11CHTO   O85 4279   6.826   6.040   0.146 -0.6666  0.2112  0.7820
   11CHTO  H206 4280   6.743   5.999   0.131  1.2658 -2.9827 -1.7496
   11CHTO  C121 4281   6.936   6.236   0.451 -0.0191 -0.6880  0.0586
   11CHTO  H225 4282   6.828   6.242   0.476 -0.1227 -1.3228 -0.2257
   11CHTO   O81 4283   7.005   6.180   0.557  0.9823  0.3565 -0.4160
   11CHTO  H202 4284   6.966   6.102   0.591  2.6247 -0.9334 -1.3888
   11CHTO  C119 4285   6.983   6.378   0.421 -0.2300 -0.5248 -0.0692
   11CHTO  H223 4286   6.933   6.407   0.328  1.6242 -2.3743 -1.6662
   11CHTO  C117 4287   7.133   6.374   0.379 -0.5019  0.8832 -0.1388
   11CHTO  H221 4288   7.204   6.351   0.459 -0.9847 -3.9548 -0.9083
   11CHTO   N20 4289   7.180   6.499   0.311  0.2655 -0.2206 -0.6151
   11CHTO  H209 4290   7.113   6.548   0.242 -1.1085 -2.0229 -0.5817
   11CHTO  H210 4291   7.280   6.484   0.271  0.3644 -1.2381 -0.0157
   11CHTO   O80 4292   6.947   6.489   0.518 -0.3435 -0.2722 -0.5134
   11CHTO  C103 4293   7.018   6.500   0.673 -0.1517  0.0947 -0.8849
   11CHTO  H190 4294   7.040   6.407   0.726 -0.8214  0.3388 -0.1540
   11CHTO  C101 4295   7.137   6.601   0.687  0.8237  0.1997  0.4798
   11CHTO  H188 4296   7.107   6.692   0.635 -0.9275  0.4347  1.8429
   11CHTO   O68 4297   7.263   6.535   0.624 -0.2651  0.5947 -0.0183
   11CHTO  H168 4298   7.334   6.595   0.635 -1.0777  1.4200  0.7737
   11CHTO   C99 4299   7.159   6.654   0.840 -0.4250  0.1339  0.2049
   11CHTO  H186 4300   7.172   6.559   0.896  1.2622  0.5312  0.4902
   11CHTO   N17 4301   7.274   6.736   0.863 -0.2805 -0.2442 -0.1931
   11CHTO  H174 4302   7.267   6.820   0.795 -0.3717  0.9892  1.3189
   11CHTO  H175 4303   7.275   6.770   0.965  1.0290  0.6115 -0.4738
   11CHTO   C97 4304   7.023   6.709   0.887 -0.2220 -0.0860 -0.5240
   11CHTO  H184 4305   7.001   6.786   0.811 -0.2257 -0.3595 -0.8035
   11CHTO   O64 4306   6.926   6.607   0.883 -0.1321  0.1098 -0.5990
   11CHTO  C104 4307   6.895   6.559   0.750 -0.4981 -0.4662 -0.4507
   11CHTO  H191 4308   6.851   6.631   0.682 -1.2509 -1.8344 -1.4237
   11CHTO  C108 4309   6.789   6.457   0.775 -0.5500  0.1812  0.1766
   11CHTO   O71 4310   6.658   6.514   0.780  0.0659 -0.1896  0.1146
   11CHTO  H171 4311   6.642   6.552   0.696 -0.0861  2.2754  1.2188
   11CHTO   O62 4312   7.018   6.755   1.024 -0.3294 -0.0045  0.5012
   11CHTO   C91 4313   6.912   6.848   1.044  0.3063  0.3280  0.4062
   11CHTO  H178 4314   6.832   6.838   0.970  1.3910  0.9694 -0.8809
   11CHTO   C92 4315   6.974   6.990   1.029  0.6476 -0.0200  0.5834
   11CHTO  H179 4316   7.069   6.990   1.084  0.7768  1.0483  0.3798
   11CHTO   O66 4317   7.009   7.010   0.887  0.2241 -0.0386 -0.7140
   11CHTO  H166 4318   6.993   7.100   0.864  2.6640  0.4480 -0.5996
   11CHTO   C93 4319   6.883   7.104   1.085  0.0875  0.4559 -0.7089
   11CHTO  H180 4320   6.790   7.108   1.028 -0.8184  1.2100  0.7919
   11CHTO   N16 4321   6.941   7.236   1.074 -0.4327  0.4914  0.2910
   11CHTO  H172 4322   7.019   7.256   1.146 -0.6650 -0.9340  0.9569
   11CHTO  H173 4323   6.858   7.306   1.070 -3.8162 -3.2736  1.2269
   11CHTO   C94 4324   6.858   7.072   1.232 -0.1609 -0.6695  0.4996
   11CHTO  H181 4325   6.949   7.051   1.286  0.4919  0.3442 -0.1890
   11CHTO   O61 4326   6.777   6.952   1.234 -0.0173  0.1463  0.1373
   11CHTO   C95 4327   6.847   6.831   1.185  0.0601 -0.5515 -0.6076
   11CHTO  H182 4328   6.918   6.802   1.262  0.0130 -1.0365 -0.7474
   11CHTO  C106 4329   6.731   6.716   1.189  0.6169 -0.2692 -0.1981
   11CHTO   O69 4330   6.622   6.760   1.116  0.3173 -0.0604  0.5322
   11CHTO  H169 4331   6.631   6.727   1.029  0.1456  1.5539 -0.0970
   11CHTO   O63 4332   6.778   7.191   1.315  0.3952 -0.6681  0.4582
   11CHTO   C96 4333   6.809   7.194   1.447  0.1185 -0.4715  0.6268
   11CHTO  H183 4334   6.906   7.151   1.472  0.5318  0.0331 -0.0958
   11CHTO   C98 4335   6.711   7.124   1.549 -0.7285 -0.5391 -0.3950
   11CHTO  H185 4336   6.615   7.176   1.538 -0.4090  0.0147 -0.5690
   11CHTO   O67 4337   6.698   6.990   1.498 -0.0853  0.1333 -0.0515
   11CHTO  H167 4338   6.659   6.935   1.563  0.7570  2.1554  2.2342
   11CHTO  C102 4339   6.774   7.120   1.703 -0.3311 -0.5757 -0.0032
   11CHTO  H189 4340   6.855   7.046   1.698  1.2677  1.0424  1.2730
   11CHTO   N18 4341   6.668   7.071   1.797 -0.2700  0.1846  0.1388
   11CHTO  H176 4342   6.707   7.049   1.896  0.5836 -1.9641 -0.6392
   11CHTO  H177 4343   6.577   7.128   1.808 -0.9777 -0.7095 -1.1168
   11CHTO  C105 4344   6.822   7.262   1.741 -0.1257  0.4985  0.5241
   11CHTO  H192 4345   6.768   7.305   1.825 -0.4043  0.2133  0.4918
   11CHTO   O65 4346   6.792   7.359   1.634  0.7086  0.1668  0.0662
   11CHTO  C100 4347   6.822   7.342   1.496 -0.7587  0.5656  0.1743
   11CHTO  H187 4348   6.758   7.409   1.436 -1.7818 -2.1641 -1.8949
   11CHTO  C107 4349   6.965   7.398   1.469 -0.1025  0.2340 -0.0088
   11CHTO   O70 4350   6.958   7.478   1.358 -0.7131  0.6880 -0.0251
   11CHTO  H170 4351   6.944   7.424   1.282 -2.4803 -0.5438  1.1418
   11CHTO   O57 4352   6.973   7.248   1.770  0.5468 -0.5127 -0.0380
   11CHTO   C85 4353   7.023   7.280   1.901  0.1954  0.4797  0.1122
   11CHTO  H157 4354   6.931   7.288   1.962 -0.2450  0.2312 -0.5180
   11CHTO   C83 4355   7.092   7.427   1.895 -0.5443 -0.9321 -0.4976
   11CHTO  H155 4356   7.020   7.505   1.869 -0.3360 -0.0978  1.3337
   11CHTO   O56 4357   7.191   7.438   1.794 -0.5282  0.4680 -0.4056
   11CHTO  H135 4358   7.234   7.521   1.790  0.3935 -0.0280 -1.0478
   11CHTO   C81 4359   7.146   7.455   2.037 -0.0323 -0.7437  0.0844
   11CHTO  H153 4360   7.066   7.437   2.110 -1.0065 -0.4009 -0.8893
   11CHTO   N14 4361   7.183   7.596   2.054 -0.4352  0.1422  0.6428
   11CHTO  H141 4362   7.167   7.640   2.150 -3.0103 -0.6125  0.6094
   11CHTO  H142 4363   7.283   7.614   2.019  0.3303  2.6558  3.8885
   11CHTO   C79 4364   7.262   7.347   2.066  0.4112 -0.0606  0.2391
   11CHTO  H151 4365   7.291   7.365   2.170 -0.7411  1.3472  0.3353
   11CHTO   O52 4366   7.219   7.207   2.056  0.3840 -0.0318 -0.0958
   11CHTO   C86 4367   7.117   7.171   1.957 -0.9897  0.1403  0.3313
   11CHTO  H158 4368   7.174   7.126   1.873 -1.0216 -0.4579  0.6265
   11CHTO   C90 4369   7.036   7.053   2.009 -0.2497 -0.1889 -0.1393
   11CHTO   O60 4370   6.953   7.069   2.120 -0.6697 -0.3156 -0.5648
   11CHTO  H138 4371   6.967   7.143   2.175 -0.9984  0.7626 -1.9029
   11CHTO   O50 4372   7.374   7.353   1.981  0.0411 -0.4874 -0.6643
   11CHTO   C73 4373   7.519   7.344   1.966  0.1934 -0.0474  0.2232
   11CHTO  H145 4374   7.542   7.247   2.012  1.1052  0.4434  0.8258
   11CHTO   C74 4375   7.587   7.462   2.044 -0.1810 -0.6978 -0.1869
   11CHTO  H146 4376   7.550   7.460   2.147 -1.2305  1.4007 -0.5000
   11CHTO   O54 4377   7.724   7.431   2.065 -0.2044  0.1918 -0.7299
   11CHTO  H133 4378   7.764   7.482   2.132  1.1073 -0.6678 -0.8249
   11CHTO   C75 4379   7.564   7.599   1.978  0.1947  0.1462 -0.3032
   11CHTO  H147 4380   7.457   7.623   1.984  0.0986 -0.4637  0.4535
   11CHTO   N13 4381   7.632   7.716   2.037  0.3031 -0.2039  0.0144
   11CHTO  H139 4382   7.740   7.716   2.042  0.2995 -0.4595  0.0956
   11CHTO  H140 4383   7.606   7.736   2.140 -0.4777  2.6008 -0.6946
   11CHTO   C76 4384   7.601   7.587   1.821 -0.2853  0.0672 -0.1359
   11CHTO  H148 4385   7.708   7.578   1.801  0.3282  3.2052  1.3914
   11CHTO   O49 4386   7.536   7.478   1.751 -0.5085 -0.1825 -0.2806
   11CHTO   C77 4387   7.556   7.349   1.813  0.0044 -0.1885 -0.9111
   11CHTO  H149 4388   7.662   7.333   1.794 -0.2449 -1.6795 -1.1099
   11CHTO   C88 4389   7.475   7.248   1.734 -0.5085 -0.2005 -0.0994
   11CHTO   O58 4390   7.466   7.132   1.790 -0.1239  0.7218  0.4402
   11CHTO  H136 4391   7.416   7.073   1.736  0.2698 -1.3065  2.2091
   11CHTO   O51 4392   7.538   7.716   1.735  0.0294  0.3357  0.3329
   11CHTO   C78 4393   7.653   7.778   1.639 -0.6118 -0.1466 -0.1736
   11CHTO  H150 4394   7.753   7.742   1.669 -0.9610 -0.2493  0.8922
   11CHTO   C80 4395   7.648   7.933   1.653 -1.1047 -0.1666  0.6034
   11CHTO  H152 4396   7.545   7.972   1.636 -0.1683  2.5138  0.8896
   11CHTO   O55 4397   7.681   7.979   1.788 -0.5141 -0.2569  0.6431
   11CHTO  H134 4398   7.627   7.939   1.852  0.6000  0.9293  2.3803
   11CHTO   C84 4399   7.735   8.011   1.540  0.0112 -0.3418  0.0341
   11CHTO  H156 4400   7.842   8.011   1.560  0.0028  1.1806  0.1493
   11CHTO   N15 4401   7.711   8.160   1.549 -1.0005 -0.4384  0.6196
   11CHTO  H143 4402   7.612   8.186   1.517 -1.1865 -0.8227  0.8861
   11CHTO  H144 4403   7.724   8.199   1.647 -0.6628 -1.1705  0.8713
   11CHTO   C87 4404   7.713   7.950   1.399 -0.5284 -0.3961  0.8541
   11CHTO  H159 4405   7.614   7.972   1.357  0.6707  2.3556 -0.6492
   11CHTO   O53 4406   7.724   7.797   1.409 -0.0068  0.3765  0.0114
   11CHTO   C82 4407   7.625   7.740   1.491  0.0577 -0.3840 -0.2677
   11CHTO  H154 4408   7.525   7.770   1.461  0.2946 -0.4965 -1.1778
   11CHTO   C89 4409   7.629   7.586   1.482 -0.9314  0.3982 -0.4324
   11CHTO   O59 4410   7.598   7.538   1.357  0.2935  0.3423 -0.3086
   11CHTO  H137 4411   7.521   7.485   1.351 -0.7561  1.9195 -1.2504
   11CHTO   O45 4412   7.821   7.995   1.306 -0.2446  0.0518 -0.3609
   11CHTO   C67 4413   7.784   7.985   1.166 -1.2801  0.1697  0.1733
   11CHTO  H124 4414   7.718   7.899   1.154 -0.9633  0.0945 -1.2025
   11CHTO   C65 4415   7.705   8.107   1.103  0.3987  0.0477 -0.9788
   11CHTO  H122 4416   7.712   8.190   1.173 -0.3951  0.8666 -1.8643
   11CHTO   O44 4417   7.566   8.064   1.094 -0.0933 -0.5087 -0.0103
   11CHTO  H102 4418   7.509   8.138   1.102 -3.4423 -2.6731 -2.4526
   11CHTO   C63 4419   7.761   8.166   0.977  0.6524 -0.2079 -0.2408
   11CHTO  H120 4420   7.856   8.213   1.001  0.2009  0.4915  0.1914
   11CHTO   N11 4421   7.694   8.282   0.907  0.3650 -1.0444 -0.0890
   11CHTO  H108 4422   7.678   8.360   0.979 -0.4986 -1.6211  0.3436
   11CHTO  H109 4423   7.781   8.312   0.852  1.5067  0.1833  2.2526
   11CHTO   C61 4424   7.792   8.046   0.878  0.0458 -0.2403 -0.2628
   11CHTO  H118 4425   7.837   8.095   0.790 -2.7307 -0.4026 -1.8485
   11CHTO   O40 4426   7.892   7.961   0.937 -0.3038  0.9387  0.0343
   11CHTO   C68 4427   7.913   7.950   1.081 -0.4923 -0.2196  0.1951
   11CHTO  H125 4428   7.995   8.021   1.108 -0.1524  1.3419 -4.4005
   11CHTO   C72 4429   7.972   7.810   1.093  0.3397 -0.4864  0.1127
   11CHTO   O48 4430   7.972   7.746   1.220 -0.0780 -0.8106  0.3739
   11CHTO  H105 4431   7.913   7.677   1.245  0.3540 -0.8252  1.3802
   11CHTO   O38 4432   7.665   7.970   0.853 -0.3611  0.1276 -0.4611
   11CHTO   C55 4433   7.661   7.911   0.718  0.2030  0.1630  0.2032
   11CHTO  H112 4434   7.762   7.908   0.674  0.5276  0.4120  0.9196
   11CHTO   C56 4435   7.565   7.995   0.629 -0.0368  0.2081  0.2034
   11CHTO  H113 4436   7.473   8.009   0.687  0.5183 -1.0208  1.4185
   11CHTO   O42 4437   7.604   8.127   0.609 -0.7698 -0.3906  0.0209
   11CHTO  H100 4438   7.615   8.166   0.694  1.5969 -0.8048 -0.0771
   11CHTO   C57 4439   7.532   7.918   0.500 -0.8506  0.0679 -0.2610
   11CHTO  H114 4440   7.622   7.929   0.440 -0.6161  0.4222  0.1596
   11CHTO   N10 4441   7.421   7.972   0.418  0.7110 -0.6609  0.1046
   11CHTO  H106 4442   7.439   7.955   0.313  0.9864  1.1601 -0.1495
   11CHTO  H107 4443   7.421   8.078   0.440  2.2165 -0.9952  1.9094
   11CHTO   C58 4444   7.496   7.773   0.531 -0.2296  0.0428 -0.0385
   11CHTO  H115 4445   7.394   7.772   0.574  0.3120  0.2558  1.2927
   11CHTO   O37 4446   7.597   7.703   0.603 -0.7205 -0.1778  0.0224
   11CHTO   C59 4447   7.617   7.758   0.735 -0.0766 -0.3777  0.6524
   11CHTO  H116 4448   7.525   7.748   0.793 -0.2430  2.7331  1.0482
   11CHTO   C70 4449   7.727   7.687   0.818 -0.1273  0.4093  0.1425
   11CHTO   O46 4450   7.691   7.548   0.816 -0.7601  0.7861 -0.3349
   11CHTO  H103 4451   7.643   7.515   0.890  1.1606 -2.4856 -0.4672
   11CHTO   O39 4452   7.506   7.686   0.390  0.5150  0.2750  0.1067
   11CHTO   C60 4453   7.389   7.615   0.362 -0.8296 -0.8143  0.6596
   11CHTO  H117 4454   7.311   7.641   0.434  0.3370 -2.2553  2.5050
   11CHTO   C62 4455   7.347   7.645   0.213  0.1157  0.0768 -0.2246
   11CHTO  H119 4456   7.309   7.749   0.215 -0.2540 -0.0820  1.4334
   11CHTO   O43 4457   7.461   7.630   0.128 -0.0982 -0.7551  0.0900
   11CHTO  H101 4458   7.437   7.613   0.039  0.7761 -1.5456 -0.0049
   11CHTO   C66 4459   7.218   7.551   0.185 -0.4109 -0.6162  0.1683
   11CHTO  H123 4460   7.140   7.573   0.257  0.8185  1.4558  0.9119
   11CHTO   N12 4461   7.153   7.578   0.054  0.1696  0.2916  0.5812
   11CHTO  H110 4462   7.226   7.612  -0.018 -2.4397  1.4255 -1.6822
   11CHTO  H111 4463   7.076   7.654   0.066  0.7345  0.9899 -0.0962
   11CHTO   C69 4464   7.264   7.404   0.212 -0.2606 -0.6048 -0.0807
   11CHTO  H126 4465   7.350   7.372   0.150 -0.8474 -2.1449 -0.1423
   11CHTO   O41 4466   7.304   7.391   0.348 -0.2823 -0.5058 -0.3161
   11CHTO   C64 4467   7.413   7.466   0.388  0.2370  0.3727 -0.1718
   11CHTO  H121 4468   7.501   7.434   0.328 -1.3825  0.5271 -2.6923
   11CHTO   C71 4469   7.445   7.428   0.538 -0.0278 -0.6588  0.0688
   11CHTO   O47 4470   7.332   7.446   0.626  0.0104  0.2153  0.0278
   11CHTO  H104 4471   7.258   7.393   0.603 -1.0160  2.7102 -2.6422
   11CHTO   O34 4472   7.153   7.304   0.196 -0.0627  1.0029 -0.7624
   11CHTO   C49 4473   7.006   7.272   0.232 -0.4647  0.0299 -0.3993
   11CHTO   H91 4474   6.942   7.355   0.201  1.1730  2.3202  2.0109
   11CHTO   C47 4475   6.994   7.266   0.385  0.9652  0.5149 -0.2370
   11CHTO   H89 4476   6.887   7.250   0.414  0.1551  4.2244 -0.9142
   11CHTO   O33 4477   7.028   7.391   0.432  0.0327  0.6114 -0.5591
   11CHTO   H70 4478   6.971   7.451   0.388 -2.3111 -1.1255 -0.0130
   11CHTO   C45 4479   7.085   7.142   0.438  0.3934  1.0558  0.4423
   11CHTO   H87 4480   7.189   7.159   0.408  0.5783  0.5241  0.7703
   11CHTO    N8 4481   7.086   7.136   0.586 -0.7843  0.2873  0.8192
   11CHTO   H75 4482   7.139   7.048   0.621  1.6214  1.8561  1.2633
   11CHTO   H76 4483   6.992   7.157   0.635 -1.2970  0.4068 -0.2082
   11CHTO   C43 4484   7.032   7.000   0.367  0.7366  0.7778  0.0620
   11CHTO   H85 4485   7.113   6.932   0.393 -0.6352 -1.0684 -0.3599
   11CHTO   O29 4486   7.010   7.015   0.225  0.1170 -0.5510 -0.2331
   11CHTO   C50 4487   6.949   7.138   0.174  0.4923  0.0721  0.4542
   11CHTO   H92 4488   6.964   7.139   0.065 -2.9814 -1.2128 -0.0958
   11CHTO   C54 4489   6.790   7.130   0.189 -0.3099 -0.2109  0.0173
   11CHTO   O36 4490   6.717   7.038   0.117 -0.3172  0.4806 -0.9869
   11CHTO   H72 4491   6.755   7.029   0.032  1.7416 -0.0329 -0.0515
   11CHTO   O27 4492   6.908   6.958   0.427 -0.1656  0.0393  0.8642
   11CHTO   C37 4493   6.814   6.863   0.477  0.4934 -0.1807  0.1041
   11CHTO   H79 4494   6.858   6.784   0.539  1.8766 -0.0618 -0.7001
   11CHTO   C38 4495   6.719   6.935   0.575 -0.1606  1.0430  0.2775
   11CHTO   H80 4496   6.669   7.020   0.527  0.3130  0.2983 -1.5641
   11CHTO   O31 4497   6.791   6.976   0.692 -0.1330 -0.0373 -0.7263
   11CHTO   H68 4498   6.865   7.031   0.674  0.6936 -0.3526  1.4840
   11CHTO   C39 4499   6.613   6.838   0.624  0.2219  0.2136 -0.7415
   11CHTO   H81 4500   6.651   6.759   0.688  1.3730  1.7000  0.4315
   11CHTO    N7 4501   6.511   6.910   0.712  0.7823  0.3257 -0.6230
   11CHTO   H73 4502   6.411   6.870   0.707  0.0012  2.1043  0.3636
   11CHTO   H74 4503   6.555   6.923   0.810  0.9571 -2.3953 -0.2906
   11CHTO   C40 4504   6.546   6.753   0.501  0.2058  0.6732 -0.0245
   11CHTO   H82 4505   6.471   6.814   0.451 -1.2480 -0.3094  0.9273
   11CHTO   O26 4506   6.644   6.697   0.414 -0.2102 -0.4458  0.6973
   11CHTO   C41 4507   6.739   6.796   0.365 -0.2223  0.6185  0.0001
   11CHTO   H83 4508   6.683   6.871   0.307 -1.8751 -0.5765 -0.0006
   11CHTO   C52 4509   6.832   6.725   0.273 -0.1048  0.8499  0.6849
   11CHTO   O35 4510   6.762   6.683   0.165  0.2082  0.1538  0.4793
   11CHTO   H71 4511   6.804   6.710   0.086 -0.9901  0.8698  0.0640
   11CHTO   O28 4512   6.471   6.641   0.554  0.3925  0.3711  0.4197
   11CHTO   C42 4513   6.379   6.554   0.486 -0.5649 -0.7005 -1.3342
   11CHTO   H84 4514   6.405   6.572   0.381  0.7822  0.2211 -0.8512
   11CHTO   C44 4515   6.230   6.596   0.512  0.5218  0.4912 -0.0652
   11CHTO   H86 4516   6.212   6.604   0.619 -0.0973  0.8899 -0.1982
   11CHTO   O32 4517   6.216   6.725   0.451 -0.5779 -0.0272  0.7327
   11CHTO   H69 4518   6.194   6.712   0.361  2.2171  3.4732 -0.5738
   11CHTO   C48 4519   6.122   6.484   0.452  0.3627  0.1735 -0.5725
   11CHTO   H90 4520   6.128   6.484   0.343  0.3042  1.8235 -0.5929
   11CHTO    N9 4521   5.980   6.517   0.497 -0.7105  0.2404  0.0904
   11CHTO   H77 4522   5.966   6.621   0.523  0.3958  0.0758  1.4294
   11CHTO   H78 4523   5.914   6.490   0.416 -1.7671 -0.8852  1.2967
   11CHTO   C51 4524   6.167   6.337   0.501 -0.6990 -0.7430  0.4320
   11CHTO   H93 4525   6.167   6.335   0.610 -0.5636 -2.3282  0.4069
   11CHTO   O30 4526   6.294   6.313   0.450  0.5774  0.5317 -0.6134
   11CHTO   C46 4527   6.398   6.399   0.512  0.5687 -0.3346 -0.2109
   11CHTO   H88 4528   6.395   6.385   0.620  1.8463  2.8695  0.3056
   11CHTO   C53 4529   6.533   6.352   0.438  0.3887  0.0869 -0.3503
   11CHTO   O72 4530   6.536   6.354   0.297 -0.0747 -0.1419 -0.0768
   11CHTO  H199 4531   6.616   6.311   0.272 -0.2793  0.3545 -1.6245
   11CHTO   O22 4532   6.082   6.232   0.442  0.5492 -0.7011  0.2167
   11CHTO   C31 4533   6.065   6.113   0.530  0.1771 -0.2870  0.1342
   11CHTO   H59 4534   6.138   6.123   0.613 -1.6641 -0.5464  1.7949
   11CHTO   C29 4535   5.924   6.108   0.589 -0.9924 -0.1115 -0.2361
   11CHTO   H57 4536   5.846   6.112   0.512 -0.6493 -1.1815 -0.6405
   11CHTO   O21 4537   5.907   6.231   0.666  0.1980  0.5153  0.1045
   11CHTO   H37 4538   5.824   6.241   0.708 -0.6983 -0.0461 -1.4936
   11CHTO   C27 4539   5.900   5.987   0.677 -0.1398  0.4680 -1.1832
   11CHTO   H55 4540   5.957   6.001   0.770 -0.0170  1.7454 -1.4480
   11CHTO    N5 4541   5.753   5.970   0.713 -1.2664  0.3960  1.0167
   11CHTO   H43 4542   5.695   5.934   0.629  3.0090  1.7229 -2.6758
   11CHTO   H44 4543   5.740   5.899   0.793  0.0218  0.4767  1.3108
   11CHTO   C25 4544   5.949   5.856   0.599 -0.4943 -0.0794 -0.7858
   11CHTO   H53 4545   5.883   5.835   0.514 -0.1463  1.8852 -1.5596
   11CHTO   O17 4546   6.087   5.864   0.546 -0.5886 -0.2852 -0.3445
   11CHTO   C32 4547   6.109   5.980   0.463  0.6156  0.1440  0.1017
   11CHTO   H60 4548   6.045   5.956   0.378  0.7431 -0.1078  0.0780
   11CHTO   C36 4549   6.260   5.984   0.422  0.0129  0.4532 -0.1533
   11CHTO   O25 4550   6.354   5.991   0.522  0.0506  0.1624 -0.5612
   11CHTO   H40 4551   6.368   6.080   0.549  1.2563 -0.4846  1.0465
   11CHTO   O15 4552   5.949   5.742   0.687  0.0544  0.2828  0.1627
   11CHTO   C19 4553   5.889   5.621   0.750 -0.5837 -1.0439  0.7069
   11CHTO   H47 4554   5.976   5.576   0.800  0.6093 -2.6382 -2.6654
   11CHTO   C20 4555   5.771   5.639   0.846 -0.0595  0.1044  0.6594
   11CHTO   H48 4556   5.690   5.699   0.803 -0.6121  0.9885  2.8230
   11CHTO   O19 4557   5.828   5.716   0.958  0.3223 -0.1481 -0.2736
   11CHTO   H35 4558   5.832   5.659   1.032  0.6025  1.3002  0.8396
   11CHTO   C21 4559   5.708   5.497   0.896 -0.0209 -0.4709  0.0088
   11CHTO   H49 4560   5.781   5.445   0.958 -0.2640 -0.3983  0.3543
   11CHTO    N4 4561   5.588   5.513   0.979 -0.4401  0.4910 -0.8730
   11CHTO   H41 4562   5.571   5.418   1.029  0.0198  0.5328 -0.6267
   11CHTO   H42 4563   5.614   5.586   1.055  1.0156  1.1877 -2.0093
   11CHTO   C22 4564   5.670   5.421   0.765 -0.5162 -0.4616  0.2241
   11CHTO   H50 4565   5.590   5.475   0.715 -0.5683 -1.8684 -1.2587
   11CHTO   O14 4566   5.784   5.405   0.679 -0.9721  0.4922  0.0610
   11CHTO   C23 4567   5.851   5.523   0.632  0.8376 -0.2723  0.1314
   11CHTO   H51 4568   5.791   5.573   0.555 -0.4388 -0.1202  1.1898
   11CHTO   C34 4569   5.971   5.481   0.553 -0.4415 -0.1889 -0.4128
   11CHTO   O23 4570   6.011   5.578   0.453  0.2015 -0.1521 -0.2545
   11CHTO   H38 4571   5.932   5.620   0.424  0.6781  1.2669  0.4724
   11CHTO   O16 4572   5.610   5.290   0.793 -0.1088 -0.5442 -0.4782
   11CHTO   C24 4573   5.525   5.231   0.653  0.3273  0.2012  0.2459
   11CHTO   H52 4574   5.546   5.291   0.565  1.3834 -0.5516 -0.0195
   11CHTO   C26 4575   5.373   5.222   0.678 -1.0067 -0.0774 -0.3678
   11CHTO   H54 4576   5.360   5.155   0.766  0.9527 -0.8799 -0.6803
   11CHTO   O20 4577   5.332   5.347   0.729 -0.1638  0.0303 -0.2241
   11CHTO   H36 4578   5.248   5.349   0.770  1.0280 -0.1360  2.3137
   11CHTO   C30 4579   5.293   5.166   0.556  1.1332 -0.1029 -0.0024
   11CHTO   H58 4580   5.282   5.248   0.483  0.1100  1.3505  1.7476
   11CHTO    N6 4581   5.153   5.139   0.594  0.2193  0.1802 -0.4042
   11CHTO   H45 4582   5.132   5.033   0.588 -0.3608  0.1353  1.9355
   11CHTO   H46 4583   5.084   5.191   0.529 -1.9205 -2.5754 -0.4601
   11CHTO   C33 4584   5.356   5.035   0.494  0.0684 -0.0817  1.3132
   11CHTO   H61 4585   5.338   4.943   0.551  1.3822 -0.5751  0.9514
   11CHTO   O18 4586   5.502   5.051   0.493  0.2363  0.3173  0.3426
   11CHTO   C28 4587   5.572   5.083   0.615 -0.1023  0.2733  0.7929
   11CHTO   H56 4588   5.552   5.011   0.695 -0.4696  0.0487  0.5000
   11CHTO   C35 4589   5.721   5.099   0.586  0.1469 -0.0105  0.9615
   11CHTO   O24 4590   5.771   4.981   0.522 -0.0571  0.2280 -0.2328
   11CHTO   H39 4591   5.851   5.003   0.478 -0.5814  0.6037 -0.9977
   11CHTO    O9 4592   5.302   5.014   0.358  0.0218  0.1203  0.2900
   11CHTO   C13 4593   5.349   5.133   0.252  0.8327 -0.2014 -0.5450
   11CHTO   H26 4594   5.395   5.213   0.314 -1.1394 -0.3316  1.1484
   11CHTO   C11 4595   5.231   5.186   0.160  0.0181  0.9856 -0.2265
   11CHTO   H24 4596   5.149   5.221   0.226 -0.3737 -0.9277  0.3464
   11CHTO    O8 4597   5.189   5.081   0.068 -0.5769 -0.1865 -0.0491
   11CHTO    H3 4598   5.201   5.122  -0.015 -0.3193 -0.0235  0.0652
   11CHTO    C9 4599   5.288   5.311   0.083  0.3590  0.4403  0.0461
   11CHTO   H22 4600   5.306   5.383   0.164 -0.0473  0.3402  0.2252
   11CHTO    N2 4601   5.175   5.362   0.002  0.3220  0.2491 -0.5167
   11CHTO   H10 4602   5.163   5.293  -0.081  0.2394  2.0807 -2.0541
   11CHTO   H11 4603   5.086   5.385   0.059  0.3936  0.8660 -0.6518
   11CHTO    C7 4604   5.430   5.288   0.025  0.0698 -0.3972  0.2085
   11CHTO   H20 4605   5.494   5.345   0.097 -3.7789  0.8650  2.8069
   11CHTO    O4 4606   5.466   5.144   0.035  0.6865  0.3489  0.4974
   11CHTO   C14 4607   5.475   5.095   0.169  0.3309 -0.0026 -0.4882
   11CHTO   H27 4608   5.561   5.141   0.222 -0.3441  1.0350 -0.2767
   11CHTO   C18 4609   5.496   4.940   0.157  0.1694  0.0914  0.3948
   11CHTO   O13 4610   5.387   4.882   0.089  0.1333 -0.0081  0.0026
   11CHTO    H7 4611   5.374   4.791   0.107 -2.0889  0.5369  1.4367
   11CHTO    O2 4612   5.457   5.334  -0.126 -0.1835 -0.5237  0.2348
   11CHTO    C1 4613   5.569   5.426  -0.128 -0.7138  0.5786  0.8670
   11CHTO   H14 4614   5.637   5.411  -0.041  0.8532 -0.7406 -0.5444
   11CHTO    C2 4615   5.528   5.578  -0.136  0.4839 -0.9484  0.0565
   11CHTO   H15 4616   5.464   5.596  -0.224  0.5373  1.2805  0.4313
   11CHTO    O6 4617   5.455   5.609  -0.018 -0.1133  0.4305  0.2034
   11CHTO    H1 4618   5.411   5.692  -0.013  1.3983  1.3494 -1.3420
   11CHTO    C3 4619   5.666   5.669  -0.142 -0.1367  0.7096 -1.0403
   11CHTO   H16 4620   5.724   5.641  -0.053 -1.8892  0.6107  0.0733
   11CHTO    N1 4621   5.640   5.820  -0.141  1.3879  0.7485 -0.1550
   11CHTO    H8 4622   5.558   5.843  -0.075  0.9615  2.3474 -1.1886
   11CHTO    H9 4623   5.721   5.887  -0.117  0.3119  1.3174  1.9605
   11CHTO    C4 4624   5.745   5.615  -0.275  0.3530 -0.3931  0.1023
   11CHTO   H17 4625   5.678   5.642  -0.357 -0.0561 -0.6745  0.3421
   11CHTO    O1 4626   5.772   5.475  -0.261 -0.1249  0.3638 -0.8547
   11CHTO    C5 4627   5.650   5.395  -0.249 -0.3488 -0.3117  0.2439
   11CHTO   H18 4628   5.579   5.418  -0.329  0.8393 -1.2799 -1.1340
   11CHTO   C16 4629   5.685   5.248  -0.259 -0.3185  0.3699  0.2009
   11CHTO   O11 4630   5.774   5.200  -0.152 -0.0013 -0.3510 -0.1167
   11CHTO    H5 4631   5.862   5.215  -0.180  0.3485 -0.6781  0.7835
   11CHTO    O3 4632   5.874   5.679  -0.297 -0.2160  0.8749 -0.4447
   11CHTO    C6 4633   5.920   5.690  -0.439 -0.2135  0.0534 -0.2219
   11CHTO   H19 4634   5.859   5.624  -0.500  0.2319 -2.2930  1.8015
   11CHTO    C8 4635   5.905   5.840  -0.476 -0.4250  1.0060 -0.2439
   11CHTO   H21 4636   5.974   5.893  -0.410  1.6623 -2.0401  0.0914
   11CHTO    O7 4637   5.771   5.875  -0.448  0.1146 -0.0488  0.6301
   11CHTO    H2 4638   5.749   5.966  -0.439 -2.7913 -0.6787  0.4611
   11CHTO   C12 4639   5.941   5.860  -0.633  0.4734 -1.0605 -0.0061
   11CHTO   H25 4640   5.865   5.803  -0.690 -0.5584  0.2146  0.0949
   11CHTO    N3 4641   5.932   6.006  -0.660 -0.0174 -0.4212  0.4392
   11CHTO   H12 4642   5.909   6.082  -0.587  1.3993 -0.7302  1.2098
   11CHTO   H13 4643   5.879   6.028  -0.752 -1.6407 -1.3451  1.1379
   11CHTO   C15 4644   6.088   5.794  -0.661 -0.3924  0.1181 -0.1377
   11CHTO   H28 4645   6.171   5.853  -0.622 -0.6918 -1.4850  3.1173
   11CHTO   O10 4646   6.120   5.770  -0.818  0.0331 -0.3353  0.1549
   11CHTO    H4 4647   6.168   5.846  -0.843  0.0523  0.0898  1.4464
   11CHTO    O5 4648   6.099   5.662  -0.612 -0.1185  0.6589 -0.5471
   11CHTO   C10 4649   6.070   5.653  -0.469  0.2545 -0.3293  0.4195
   11CHTO   H23 4650   6.136   5.723  -0.418  1.2418 -2.4508  2.1066
   11CHTO   C17 4651   6.117   5.518  -0.408  0.3597  0.2600 -0.0918
   11CHTO   O12 4652   6.043   5.411  -0.469 -0.0089 -0.1370 -0.0344
   11CHTO    H6 4653   6.016   5.339  -0.415 -0.7809  0.4918  0.4395
   12CHTO  H203 4654   5.398   2.210   2.114  1.0817  0.1680 -1.0690
   12CHTO   O82 4655   5.462   2.248   2.171 -0.0304  0.1900  0.1868
   12CHTO  C123 4656   5.497   2.172   2.288  0.2115  0.0585 -0.3555
   12CHTO  H227 4657   5.523   2.237   2.373  0.2247 -0.7711  0.2805
   12CHTO   O77 4658   5.376   2.098   2.322 -0.4298  0.1630  0.4021
   12CHTO  C118 4659   5.379   1.993   2.420 -0.2988 -0.6331 -0.0887
   12CHTO  H222 4660   5.405   2.027   2.521  1.8632  1.0087 -1.1576
   12CHTO  C125 4661   5.238   1.925   2.421 -0.1949 -0.0941  0.4530
   12CHTO   O84 4662   5.143   2.031   2.432 -0.1969 -0.3412  0.6849
   12CHTO  H205 4663   5.054   2.014   2.408  0.7182 -2.8537 -1.0698
   12CHTO  C114 4664   5.482   1.891   2.378  0.1706 -0.3771  0.1644
   12CHTO  H218 4665   5.451   1.850   2.281 -2.4132  3.7033 -0.8242
   12CHTO  C116 4666   5.620   1.954   2.346  0.1868  0.1842 -0.2239
   12CHTO  H220 4667   5.663   1.979   2.445  1.2623  0.1181 -0.6674
   12CHTO   O79 4668   5.708   1.857   2.289 -0.2199  0.3008 -0.1250
   12CHTO  H201 4669   5.701   1.780   2.343 -0.1935 -0.2803 -0.9343
   12CHTO  C120 4670   5.617   2.083   2.251  0.3245  0.6677 -0.0081
   12CHTO  H224 4671   5.595   2.031   2.155 -1.1698  2.5491 -0.7044
   12CHTO   N21 4672   5.744   2.161   2.235 -0.0102 -0.0761 -0.4790
   12CHTO  H211 4673   5.820   2.086   2.252 -1.2890 -0.8930  1.7840
   12CHTO  H212 4674   5.756   2.238   2.310  1.6587 -0.6771 -0.1165
   12CHTO   O75 4675   5.477   1.793   2.481  0.5985  0.0939  0.1345
   12CHTO  C112 4676   5.455   1.633   2.413 -0.0970  0.2879  0.0544
   12CHTO  H216 4677   5.514   1.613   2.322  0.9084 -1.3887  1.0487
   12CHTO   O73 4678   5.317   1.612   2.393 -0.5229 -0.2916  1.1501
   12CHTO  C113 4679   5.270   1.487   2.351  0.4808  0.1414 -0.1549
   12CHTO  H217 4680   5.309   1.460   2.251 -0.5272 -1.0223 -0.2565
   12CHTO  C124 4681   5.120   1.493   2.328 -0.2886  0.0336 -0.4897
   12CHTO   O83 4682   5.046   1.541   2.445  0.0283 -0.3859 -0.8133
   12CHTO  H204 4683   4.954   1.545   2.429  0.2974 -0.1525 -2.3488
   12CHTO  C109 4684   5.309   1.382   2.457 -0.0068  0.3938  0.7003
   12CHTO  H213 4685   5.259   1.406   2.552 -0.2536  0.9440  0.4329
   12CHTO  C110 4686   5.466   1.383   2.479  0.1047 -0.2908  0.2509
   12CHTO  H214 4687   5.522   1.345   2.393 -1.9458  0.4477 -1.4654
   12CHTO   O78 4688   5.487   1.290   2.585  0.2656  0.1851  0.1997
   12CHTO  H200 4689   5.518   1.205   2.559 -3.0755 -0.8577 -0.7364
   12CHTO  C111 4690   5.513   1.529   2.518  0.0904  0.1786  0.0545
   12CHTO  H215 4691   5.474   1.548   2.619 -3.0557 -1.3535 -0.7949
   12CHTO   N19 4692   5.661   1.541   2.531  0.4187 -0.0011 -0.4456
   12CHTO  H207 4693   5.697   1.490   2.619 -0.8894  1.3972  0.9311
   12CHTO  H208 4694   5.716   1.626   2.494  2.0431 -1.0074 -0.4162
   12CHTO   O74 4695   5.272   1.246   2.419 -0.1904  0.4023 -0.0388
   12CHTO  C115 4696   5.167   1.167   2.531  0.6449  0.6033  0.0034
   12CHTO  H219 4697   5.206   1.172   2.633 -0.9418  0.4395  0.6414
   12CHTO   O76 4698   5.016   1.245   2.538 -0.5217  0.3142 -0.3488
   12CHTO  C122 4699   4.920   1.185   2.626  0.6891  0.4569 -0.1564
   12CHTO  H226 4700   4.819   1.213   2.596  0.0280 -2.8927 -1.3650
   12CHTO  C126 4701   4.942   1.221   2.773  0.0809 -0.1913  0.1393
   12CHTO   O85 4702   4.964   1.361   2.802 -0.1365 -0.3293 -0.6633
   12CHTO  H206 4703   5.052   1.384   2.779 -0.1475 -0.3088 -0.6835
   12CHTO  C121 4704   4.919   1.026   2.603  0.2164  0.5081  0.3533
   12CHTO  H225 4705   4.853   0.991   2.685  1.1942 -2.4747 -0.0589
   12CHTO   O81 4706   4.845   0.994   2.480 -0.0187 -0.0542  0.3583
   12CHTO  H202 4707   4.886   1.025   2.402  1.2168 -0.0453  1.0047
   12CHTO  C119 4708   5.047   0.951   2.602  0.1511 -0.0369 -0.4139
   12CHTO  H223 4709   5.102   0.971   2.694 -2.3801  2.6521  0.5879
   12CHTO  C117 4710   5.141   1.013   2.489 -0.3020  0.1996  0.1772
   12CHTO  H221 4711   5.114   1.014   2.383  2.6352  0.4986 -0.6404
   12CHTO   N20 4712   5.265   0.934   2.483 -0.0495 -0.1054 -0.1281
   12CHTO  H209 4713   5.330   0.955   2.399 -0.1751 -0.0756 -0.2177
   12CHTO  H210 4714   5.235   0.830   2.480 -0.0837 -0.0844 -0.5746
   12CHTO   O80 4715   5.030   0.788   2.617  0.4181  0.5637 -0.2537
   12CHTO  C103 4716   4.924   0.694   2.541  0.3858  0.3001  0.6118
   12CHTO  H190 4717   4.840   0.753   2.504  0.0500 -0.8520 -0.5086
   12CHTO  C101 4718   4.976   0.625   2.414 -0.6099 -0.0192 -0.4559
   12CHTO  H188 4719   5.070   0.573   2.431  0.4702  1.6430 -1.2060
   12CHTO   O68 4720   4.982   0.722   2.302 -0.2897 -0.2978  0.4152
   12CHTO  H168 4721   5.071   0.742   2.280  0.8041 -1.6632  3.3874
   12CHTO   C99 4722   4.870   0.511   2.368 -0.0268 -0.3514 -0.2668
   12CHTO  H186 4723   4.773   0.563   2.353  0.2200 -0.1700 -1.2675
   12CHTO   N17 4724   4.896   0.442   2.235  0.2747 -0.2983  0.2387
   12CHTO  H174 4725   4.803   0.408   2.193  1.0229 -0.4507 -1.3440
   12CHTO  H175 4726   4.939   0.508   2.161  0.8980 -2.2115 -1.1253
   12CHTO   C97 4727   4.847   0.410   2.481 -0.8573  0.3512 -0.2716
   12CHTO  H184 4728   4.946   0.366   2.503 -1.4518 -0.4411  0.8309
   12CHTO   O64 4729   4.798   0.480   2.598 -0.4019 -0.3785 -0.1022
   12CHTO  C104 4730   4.869   0.587   2.649  0.0003  0.6258  0.7020
   12CHTO  H191 4731   4.955   0.542   2.699 -1.0746 -1.7223  0.4570
   12CHTO  C108 4732   4.782   0.651   2.757 -0.6345 -0.2056  0.3821
   12CHTO   O71 4733   4.664   0.701   2.686  0.1951 -0.0522 -0.2065
   12CHTO  H171 4734   4.640   0.782   2.728 -0.8774 -1.3188  1.6920
   12CHTO   O62 4735   4.750   0.312   2.452  0.7688 -0.4614 -0.7090
   12CHTO   C91 4736   4.763   0.188   2.524 -0.2269  0.5097  0.1814
   12CHTO  H178 4737   4.827   0.198   2.611 -1.6145  1.8658  1.0865
   12CHTO   C92 4738   4.833   0.079   2.435  0.4010 -0.1057  0.5205
   12CHTO  H179 4739   4.788   0.088   2.335 -0.2537  0.3973  0.8557
   12CHTO   O66 4740   4.972   0.113   2.424 -0.0018  0.3874 -0.3726
   12CHTO  H166 4741   4.982   0.184   2.363 -3.6926 -0.5824 -2.2102
   12CHTO   C93 4742   4.810  -0.068   2.481 -0.3745  0.0979  0.9157
   12CHTO  H180 4743   4.875  -0.089   2.567  0.1756 -1.2988  0.1722
   12CHTO   N16 4744   4.854  -0.170   2.379 -0.6067  0.0084  0.0558
   12CHTO  H172 4745   4.957  -0.147   2.355 -0.9467 -0.5519 -2.0257
   12CHTO  H173 4746   4.847  -0.265   2.429  2.6775 -0.0550  0.5021
   12CHTO   C94 4747   4.662  -0.102   2.527 -0.0454  0.4925 -0.0030
   12CHTO  H181 4748   4.590  -0.093   2.445  1.3499 -3.1143 -1.7483
   12CHTO   O61 4749   4.619  -0.006   2.622 -0.6871 -0.2467 -0.3391
   12CHTO   C95 4750   4.627   0.136   2.584 -0.0903  0.7589 -0.1568
   12CHTO  H182 4751   4.548   0.152   2.511 -0.6871 -0.0474  0.3012
   12CHTO  C106 4752   4.592   0.211   2.718  0.7013 -0.3313 -0.9959
   12CHTO   O69 4753   4.572   0.350   2.686 -1.1625  0.1105  0.1351
   12CHTO  H169 4754   4.523   0.352   2.606 -0.7736 -0.9485 -0.1365
   12CHTO   O63 4755   4.649  -0.259   2.593 -0.9759 -0.3852 -0.1492
   12CHTO   C96 4756   4.730  -0.296   2.728 -0.1648 -0.2532 -0.2802
   12CHTO  H183 4757   4.799  -0.217   2.757  0.0794 -0.9234  0.9950
   12CHTO   C98 4758   4.808  -0.428   2.716  0.5177  0.0518  0.0684
   12CHTO  H185 4759   4.739  -0.511   2.692 -0.9729  1.0003  1.0288
   12CHTO   O67 4760   4.890  -0.412   2.602  0.1011  0.1815  0.3855
   12CHTO  H167 4761   4.937  -0.492   2.595 -0.7373 -0.2732 -0.0569
   12CHTO  C102 4762   4.881  -0.469   2.862 -0.1420 -0.1441 -0.2290
   12CHTO  H189 4763   4.954  -0.388   2.877 -0.3267  0.6405 -3.2434
   12CHTO   N18 4764   4.957  -0.600   2.855 -0.1498  0.2615 -0.1988
   12CHTO  H176 4765   4.949  -0.659   2.765  0.3334 -3.0093  1.8350
   12CHTO  H177 4766   4.971  -0.657   2.945 -1.7136 -0.9311 -0.6926
   12CHTO  C105 4767   4.771  -0.462   2.972  0.4765 -0.3491 -0.3909
   12CHTO  H192 4768   4.709  -0.551   2.966 -0.1078  0.1568 -2.4024
   12CHTO   O65 4769   4.689  -0.344   2.966 -0.2837 -0.5376 -0.1434
   12CHTO  C100 4770   4.625  -0.319   2.842  0.2257 -0.0575 -0.3191
   12CHTO  H187 4771   4.565  -0.408   2.820 -0.1174 -0.2937  1.4633
   12CHTO  C107 4772   4.523  -0.202   2.866  0.3253 -0.8950  1.0616
   12CHTO   O70 4773   4.589  -0.077   2.890 -0.8468  0.5215 -0.6022
   12CHTO  H170 4774   4.533  -0.018   2.936 -0.4088  2.3003 -2.3158
   12CHTO   O57 4775   4.851  -0.461   3.109 -0.4659  0.3557 -0.5582
   12CHTO   C85 4776   4.795  -0.519   3.226 -0.5849  0.3235  0.1731
   12CHTO  H157 4777   4.735  -0.604   3.188  0.9646 -1.0519  0.7567
   12CHTO   C83 4778   4.695  -0.418   3.299 -0.6935 -0.7480  0.6647
   12CHTO  H155 4779   4.613  -0.395   3.230  0.2495  0.5776 -0.0240
   12CHTO   O56 4780   4.762  -0.292   3.318 -0.7446 -0.1145  0.2659
   12CHTO  H135 4781   4.701  -0.223   3.335 -0.1250  0.6157 -0.3822
   12CHTO   C81 4782   4.637  -0.486   3.424  0.0922 -0.2211 -0.2232
   12CHTO  H153 4783   4.585  -0.577   3.394 -0.3131 -0.9560  2.5138
   12CHTO   N14 4784   4.527  -0.408   3.485 -0.1427 -0.0507 -0.1471
   12CHTO  H141 4785   4.532  -0.307   3.453 -1.8979 -0.3512 -1.4251
   12CHTO  H142 4786   4.533  -0.409   3.592 -0.8347 -1.5722 -0.0990
   12CHTO   C79 4787   4.752  -0.526   3.528 -0.0009 -0.0329 -0.7567
   12CHTO  H151 4788   4.705  -0.573   3.614 -0.1752  1.6940  0.1250
   12CHTO   O52 4789   4.848  -0.617   3.459  0.2721  0.0730 -0.3065
   12CHTO   C86 4790   4.900  -0.568   3.331 -0.1939 -0.2709 -0.6713
   12CHTO  H158 4791   4.966  -0.482   3.354  0.1908 -0.5031 -0.8974
   12CHTO   C90 4792   4.997  -0.668   3.269  0.6876  1.0675  0.1929
   12CHTO   O60 4793   5.117  -0.699   3.339  0.0034 -0.6586  0.0706
   12CHTO  H138 4794   5.088  -0.739   3.419  1.2446 -0.4994  0.6151
   12CHTO   O50 4795   4.831  -0.416   3.584  0.9842 -0.3268 -0.4341
   12CHTO   C73 4796   4.923  -0.372   3.686  0.6678  0.0634  0.6188
   12CHTO  H145 4797   4.882  -0.387   3.787 -0.1930  0.0766  0.2728
   12CHTO   C74 4798   4.934  -0.224   3.666  0.3518 -1.0821  0.4792
   12CHTO  H146 4799   4.831  -0.189   3.656  0.1927 -1.4249  0.9045
   12CHTO   O54 4800   4.989  -0.160   3.783  0.5351  0.4311  0.4000
   12CHTO  H133 4801   5.075  -0.124   3.771  0.3643  0.4732 -0.7903
   12CHTO   C75 4802   5.018  -0.194   3.527  0.6042  0.1277 -0.2299
   12CHTO  H147 4803   4.960  -0.232   3.442  1.5460 -1.9287  0.0061
   12CHTO   N13 4804   5.027  -0.047   3.508 -0.2734 -0.3358  0.4035
   12CHTO  H139 4805   4.930  -0.006   3.485 -0.8556 -0.9463  1.7328
   12CHTO  H140 4806   5.095  -0.028   3.427 -0.9267  0.4717  0.0461
   12CHTO   C76 4807   5.159  -0.269   3.532  0.2446  0.0753 -0.4045
   12CHTO  H148 4808   5.213  -0.230   3.618  2.6306 -1.0869 -1.3519
   12CHTO   O49 4809   5.125  -0.415   3.550 -0.1477 -0.2899  0.0952
   12CHTO   C77 4810   5.061  -0.447   3.676  0.4586 -0.5461 -0.2540
   12CHTO  H149 4811   5.134  -0.390   3.734 -1.0473  0.1925  0.9514
   12CHTO   C88 4812   5.052  -0.594   3.706  0.0471 -0.0109 -0.6657
   12CHTO   O58 4813   5.173  -0.661   3.718 -0.1395  0.0746 -0.1985
   12CHTO  H136 4814   5.150  -0.749   3.695  0.1666  0.8851 -4.0733
   12CHTO   O51 4815   5.248  -0.239   3.393 -0.7804  0.2317  0.3678
   12CHTO   C78 4816   5.385  -0.304   3.405  0.1946 -0.3804  0.1643
   12CHTO  H150 4817   5.395  -0.386   3.478 -1.0920 -1.0774 -0.4172
   12CHTO   C80 4818   5.495  -0.201   3.445 -0.0114  0.3398 -0.2267
   12CHTO  H152 4819   5.483  -0.114   3.377 -0.2072  0.0434 -0.5718
   12CHTO   O55 4820   5.479  -0.147   3.577  0.5405 -0.1136  0.6039
   12CHTO  H134 4821   5.393  -0.117   3.597  0.5582  0.5333 -0.2705
   12CHTO   C84 4822   5.641  -0.264   3.437  0.6497  0.0644 -0.2084
   12CHTO  H156 4823   5.649  -0.335   3.519 -0.6259  1.3166  1.0085
   12CHTO   N15 4824   5.757  -0.167   3.463 -1.1101  0.8146 -0.1593
   12CHTO  H143 4825   5.806  -0.154   3.369  1.3480 -1.7927  0.7151
   12CHTO  H144 4826   5.724  -0.070   3.494 -0.8700  1.6428 -2.4305
   12CHTO   C87 4827   5.656  -0.340   3.303  0.7082  0.4535  0.0630
   12CHTO  H159 4828   5.664  -0.271   3.218  1.0556  1.0082  0.5491
   12CHTO   O53 4829   5.556  -0.423   3.274 -0.2171  0.1437  0.3128
   12CHTO   C82 4830   5.426  -0.359   3.263 -0.6387  0.0644 -0.2071
   12CHTO  H154 4831   5.428  -0.276   3.193 -1.3571  1.5970  1.5420
   12CHTO   C89 4832   5.320  -0.463   3.209  0.2049  0.3148 -0.3213
   12CHTO   O59 4833   5.279  -0.440   3.071 -0.3501  0.7207  0.1960
   12CHTO  H137 4834   5.235  -0.358   3.065 -3.5823 -0.9282  0.2638
   12CHTO   O45 4835   5.783  -0.433   3.297  0.5461 -0.2213  0.2404
   12CHTO   C67 4836   5.857  -0.444   3.173 -0.8620  0.2442  0.0678
   12CHTO  H124 4837   5.934  -0.519   3.192 -0.0098  1.7222  2.7143
   12CHTO   C65 4838   5.768  -0.493   3.056  0.0683 -0.3600  0.2358
   12CHTO  H122 4839   5.668  -0.515   3.092 -0.0115 -1.9946 -0.9261
   12CHTO   O44 4840   5.823  -0.614   3.002  0.0640  0.1895  0.3684
   12CHTO  H102 4841   5.898  -0.606   2.946 -0.0656 -2.0464 -0.1913
   12CHTO   C63 4842   5.756  -0.380   2.949  0.2529 -0.3843 -0.2882
   12CHTO  H120 4843   5.708  -0.293   2.995  1.2656  0.4462 -0.7652
   12CHTO   N11 4844   5.664  -0.412   2.838 -0.1290  0.3107  0.5570
   12CHTO  H108 4845   5.716  -0.469   2.765 -0.5659 -0.5682  0.9164
   12CHTO  H109 4846   5.575  -0.460   2.873  1.3854 -3.4312 -0.4725
   12CHTO   C61 4847   5.898  -0.332   2.908  0.7147  0.0697 -0.1956
   12CHTO  H118 4848   5.878  -0.249   2.840  0.8089 -0.8198 -1.3253
   12CHTO   O40 4849   5.978  -0.287   3.013 -0.4157 -0.8879 -0.5148
   12CHTO   C68 4850   5.939  -0.305   3.148 -0.4870  0.0534 -0.3077
   12CHTO  H125 4851   5.870  -0.223   3.177  0.9049  0.3790  2.2220
   12CHTO   C72 4852   6.071  -0.302   3.237  1.0430  0.2608  0.1006
   12CHTO   O48 4853   6.055  -0.333   3.378  0.3334  0.0676 -0.3566
   12CHTO  H105 4854   6.140  -0.359   3.409  1.0744  1.7829 -0.8771
   12CHTO   O38 4855   5.968  -0.433   2.833  0.3390  0.4614  0.3971
   12CHTO   C55 4856   6.086  -0.378   2.765  0.0609 -0.0413 -0.4515
   12CHTO  H112 4857   6.127  -0.288   2.813  1.4506 -2.0050  2.1840
   12CHTO   C56 4858   6.066  -0.356   2.615 -0.1217 -0.1463 -0.4290
   12CHTO  H113 4859   6.032  -0.455   2.580  0.2389 -0.3887 -0.1004
   12CHTO   O42 4860   5.963  -0.267   2.587  0.4201  0.0696 -0.3977
   12CHTO  H100 4861   5.972  -0.198   2.650  0.8357 -1.6312  1.4555
   12CHTO   C57 4862   6.203  -0.313   2.550 -0.1349  0.1814 -0.7053
   12CHTO  H114 4863   6.227  -0.215   2.592  0.2128 -0.3925  0.4656
   12CHTO   N10 4864   6.201  -0.295   2.403 -0.2599 -0.0411  0.3886
   12CHTO  H106 4865   6.215  -0.385   2.345 -0.7656 -0.0823  0.3270
   12CHTO  H107 4866   6.279  -0.227   2.374  1.2256 -0.8675  2.2998
   12CHTO   C58 4867   6.316  -0.413   2.579 -0.0834 -0.3475  0.1906
   12CHTO  H115 4868   6.294  -0.512   2.533 -0.3739 -1.1285  1.9394
   12CHTO   O37 4869   6.323  -0.436   2.722 -0.2539 -0.3885 -0.6356
   12CHTO   C59 4870   6.202  -0.476   2.788  0.8257 -0.4657 -0.0544
   12CHTO  H116 4871   6.164  -0.571   2.748  0.2830 -1.0547  1.7970
   12CHTO   C70 4872   6.224  -0.504   2.939 -0.2714  0.3966  0.3672
   12CHTO   O46 4873   6.292  -0.389   2.999  0.4613  0.1450 -0.3120
   12CHTO  H103 4874   6.255  -0.373   3.084 -0.7848 -0.3630 -0.7445
   12CHTO   O39 4875   6.461  -0.361   2.542  0.1598 -0.2192 -0.1317
   12CHTO   C60 4876   6.560  -0.463   2.544 -0.0911  0.0442  0.5389
   12CHTO  H117 4877   6.526  -0.544   2.608 -1.1152  0.4876  0.5583
   12CHTO   C62 4878   6.574  -0.526   2.398 -0.2291  0.2374  0.3335
   12CHTO  H119 4879   6.470  -0.560   2.376 -0.3907  1.8437 -1.3849
   12CHTO   O43 4880   6.606  -0.417   2.302 -0.5438 -0.6467 -0.4104
   12CHTO  H101 4881   6.544  -0.348   2.312  2.9618  2.9014 -1.6513
   12CHTO   C66 4882   6.672  -0.650   2.397  0.2785  0.1416 -0.4957
   12CHTO  H123 4883   6.639  -0.721   2.473  0.0439 -1.0592 -1.7208
   12CHTO   N12 4884   6.675  -0.727   2.270 -0.0422  0.3313  0.2914
   12CHTO  H110 4885   6.693  -0.667   2.182  3.0640  0.0369  0.6492
   12CHTO  H111 4886   6.591  -0.793   2.259  0.0600  0.3679 -0.7158
   12CHTO   C69 4887   6.805  -0.588   2.441  0.4136 -0.8165  0.3590
   12CHTO  H126 4888   6.845  -0.503   2.382 -1.0436 -1.4354 -1.5821
   12CHTO   O41 4889   6.784  -0.527   2.585  0.3112  0.2393 -0.5993
   12CHTO   C64 4890   6.697  -0.411   2.597  0.4538 -0.1700  0.8638
   12CHTO  H121 4891   6.745  -0.327   2.542  0.0616 -1.6614 -1.8117
   12CHTO   C71 4892   6.694  -0.368   2.748 -0.3952  0.0400  0.5001
   12CHTO   O47 4893   6.600  -0.266   2.778  0.0384  0.0543  0.0905
   12CHTO  H104 4894   6.546  -0.289   2.852  0.8022 -1.4796  0.1922
   12CHTO   O34 4895   6.917  -0.691   2.444  0.4435  0.2535  0.2243
   12CHTO   C49 4896   7.068  -0.648   2.451  0.1551  0.1823 -0.0066
   12CHTO   H91 4897   7.077  -0.620   2.346 -0.2089 -0.6906 -0.2739
   12CHTO   C47 4898   7.161  -0.761   2.484 -0.0096  0.3110 -0.3499
   12CHTO   H89 4899   7.265  -0.728   2.465  0.5575 -0.8818  0.6423
   12CHTO   O33 4900   7.132  -0.868   2.392 -0.3459  0.0805  0.3908
   12CHTO   H70 4901   7.199  -0.931   2.373  1.4172  1.9243  0.2720
   12CHTO   C45 4902   7.150  -0.811   2.641 -0.0034  0.7109 -0.5529
   12CHTO   H87 4903   7.073  -0.889   2.651  0.6968  0.2009  0.9498
   12CHTO    N8 4904   7.280  -0.856   2.693  0.1598  0.2816 -0.1830
   12CHTO   H75 4905   7.283  -0.858   2.801 -1.1652  2.3933 -0.0770
   12CHTO   H76 4906   7.370  -0.828   2.640  0.4530  0.8672  0.6115
   12CHTO   C43 4907   7.081  -0.690   2.725  0.5301 -0.2841  0.4132
   12CHTO   H85 4908   6.973  -0.696   2.711  0.5096  1.1742 -0.0510
   12CHTO   O29 4909   7.133  -0.562   2.684 -0.2966 -0.2777 -0.0209
   12CHTO   C50 4910   7.096  -0.523   2.553 -0.0587  0.7760  0.8523
   12CHTO   H92 4911   7.005  -0.462   2.555 -0.2074  0.5422  1.3006
   12CHTO   C54 4912   7.211  -0.433   2.500  0.7314 -0.4532 -0.5297
   12CHTO   O36 4913   7.173  -0.361   2.383 -0.1725  0.4981  0.2210
   12CHTO   H72 4914   7.088  -0.327   2.363  0.4293  1.1015 -1.4379
   12CHTO   O27 4915   7.092  -0.708   2.869 -0.4380  0.3269 -0.1432
   12CHTO   C37 4916   6.999  -0.717   2.982  0.1897  0.0572 -0.6507
   12CHTO   H79 4917   7.064  -0.718   3.071 -0.5778  1.5802 -0.0559
   12CHTO   C38 4918   6.904  -0.600   2.988  0.3211 -0.1066 -0.6772
   12CHTO   H80 4919   6.846  -0.601   2.895 -0.2305 -0.8575 -0.3334
   12CHTO   O31 4920   6.980  -0.479   2.996  0.5002  0.1016 -0.9845
   12CHTO   H68 4921   6.921  -0.406   2.996  1.8323  1.2327  0.2633
   12CHTO   C39 4922   6.806  -0.618   3.117 -0.1169  0.2974  0.0941
   12CHTO   H81 4923   6.868  -0.636   3.206  3.1343 -1.8630 -2.4929
   12CHTO    N7 4924   6.723  -0.502   3.142 -0.1814  0.1272  0.1605
   12CHTO   H73 4925   6.621  -0.529   3.166 -0.6382  1.3080 -0.3567
   12CHTO   H74 4926   6.719  -0.435   3.057 -0.1946  0.5666  0.5007
   12CHTO   C40 4927   6.731  -0.755   3.094 -0.3029  0.2963 -0.1749
   12CHTO   H82 4928   6.661  -0.761   3.010 -0.2708  0.2948 -0.2013
   12CHTO   O26 4929   6.827  -0.859   3.089  0.2587  0.1148  0.3835
   12CHTO   C41 4930   6.920  -0.852   2.975  0.3265 -1.1236  0.2414
   12CHTO   H83 4931   6.868  -0.870   2.880 -1.6428 -0.9007  1.2567
   12CHTO   C52 4932   7.033  -0.957   2.986  0.1125  0.5705 -0.2699
   12CHTO   O35 4933   6.983  -1.094   2.985 -0.2164  0.2355  0.1564
   12CHTO   H71 4934   6.958  -1.118   2.898 -0.1126  2.4989 -0.5143
   12CHTO   O28 4935   6.642  -0.793   3.207  0.0411 -0.1655  0.2429
   12CHTO   C42 4936   6.529  -0.884   3.233 -0.6869  0.0463  1.0141
   12CHTO   H84 4937   6.544  -0.919   3.335 -1.2886 -0.2589  1.0001
   12CHTO   C44 4938   6.519  -1.010   3.144  0.6156  1.4668  0.0926
   12CHTO   H86 4939   6.503  -0.975   3.042  2.2998 -1.7878 -1.3565
   12CHTO   O32 4940   6.641  -1.084   3.163  0.0044  0.1287 -0.2724
   12CHTO   H69 4941   6.705  -1.066   3.097  1.1177  0.5364  0.9086
   12CHTO   C48 4942   6.381  -1.095   3.172 -0.0656 -1.2475 -0.5917
   12CHTO   H90 4943   6.400  -1.146   3.267 -1.2037  0.7260  0.7226
   12CHTO    N9 4944   6.358  -1.206   3.072  0.3408  0.5194  0.2472
   12CHTO   H77 4945   6.314  -1.295   3.115 -0.8387  0.4268 -1.0928
   12CHTO   H78 4946   6.460  -1.223   3.041  0.1464 -0.3130  0.0582
   12CHTO   C51 4947   6.248  -1.004   3.183 -0.0232  0.4946 -0.1128
   12CHTO   H93 4948   6.223  -0.973   3.082  2.3101 -0.9285 -1.1678
   12CHTO   O30 4949   6.277  -0.896   3.276  0.0360  0.1058 -0.2425
   12CHTO   C46 4950   6.394  -0.808   3.240  0.3207 -0.5627  0.1696
   12CHTO   H88 4951   6.383  -0.760   3.143  1.4869  2.5751  1.5377
   12CHTO   C53 4952   6.395  -0.685   3.338 -0.2586  0.3889  0.5008
   12CHTO   O72 4953   6.299  -0.587   3.314 -0.0909 -0.2033 -0.7295
   12CHTO  H199 4954   6.229  -0.610   3.372  1.9449 -2.6141  0.8382
   12CHTO   O22 4955   6.136  -1.080   3.245 -0.2718  0.0871  0.4714
   12CHTO   C31 4956   6.001  -1.030   3.271  0.5647  0.4864  0.2292
   12CHTO   H59 4957   5.953  -1.112   3.329  0.5550 -0.3655 -0.9727
   12CHTO   C29 4958   5.994  -0.902   3.357  0.5912  0.4562  0.0834
   12CHTO   H57 4959   6.046  -0.813   3.318 -2.6916  2.0526 -0.8816
   12CHTO   O21 4960   6.061  -0.927   3.479 -0.5966 -0.3760 -0.4397
   12CHTO   H37 4961   6.148  -0.962   3.468 -0.2249  0.5259 -0.4038
   12CHTO   C27 4962   5.849  -0.860   3.392 -0.1604  0.3454  0.6224
   12CHTO   H55 4963   5.815  -0.940   3.460 -0.7995 -0.5393 -0.7184
   12CHTO    N5 4964   5.833  -0.734   3.475  0.6446 -0.2672 -0.1340
   12CHTO   H43 4965   5.924  -0.675   3.481 -0.1066  1.0941 -1.6631
   12CHTO   H44 4966   5.790  -0.746   3.573  1.9646  3.5144  1.0002
   12CHTO   C25 4967   5.767  -0.871   3.260  0.1383 -0.6246 -0.0519
   12CHTO   H53 4968   5.806  -0.796   3.190  3.9391 -2.5237 -0.0803
   12CHTO   O17 4969   5.786  -1.002   3.192 -0.4330 -0.5729 -0.0500
   12CHTO   C32 4970   5.919  -1.015   3.144  0.3883 -0.4893 -0.0488
   12CHTO   H60 4971   5.960  -0.929   3.090 -0.3996  1.1073  1.8422
   12CHTO   C36 4972   5.914  -1.135   3.051 -0.7539  0.1564 -0.8321
   12CHTO   O25 4973   5.902  -1.250   3.140 -0.0107 -0.5858  0.1613
   12CHTO   H40 4974   5.864  -1.321   3.094 -2.1127  0.0135  0.9346
   12CHTO   O15 4975   5.600  -0.861   3.294  0.7564  0.3902 -0.5286
   12CHTO   C19 4976   5.477  -0.864   3.216  0.2665  0.1806  0.4099
   12CHTO   H47 4977   5.427  -0.768   3.236 -0.8033 -0.7083  2.1818
   12CHTO   C20 4978   5.488  -0.885   3.063  0.2609  1.0439 -0.0853
   12CHTO   H48 4979   5.531  -0.984   3.042 -1.8744 -0.2225  1.3302
   12CHTO   O19 4980   5.577  -0.782   3.016  0.0989 -0.5240 -0.9360
   12CHTO   H35 4981   5.548  -0.752   2.932  0.9967  0.2452 -0.9739
   12CHTO   C21 4982   5.346  -0.871   3.001 -0.1989  0.0203  0.3533
   12CHTO   H49 4983   5.314  -0.767   3.012 -2.6428 -0.8502  1.6947
   12CHTO    N4 4984   5.351  -0.896   2.855  0.0861 -0.1733 -0.0466
   12CHTO   H41 4985   5.331  -0.999   2.833  0.3014  0.0131 -1.1436
   12CHTO   H42 4986   5.284  -0.840   2.791  1.7001  0.7654 -0.9339
   12CHTO   C22 4987   5.240  -0.966   3.068 -0.5819 -0.3998 -0.4546
   12CHTO   H50 4988   5.265  -1.070   3.047  0.6785 -0.5417  1.6555
   12CHTO   O14 4989   5.247  -0.945   3.214  0.4543 -0.3182 -0.3387
   12CHTO   C23 4990   5.375  -0.963   3.276 -0.9353  0.9187  0.1809
   12CHTO   H51 4991   5.408  -1.067   3.258 -0.3019  1.4220 -1.7190
   12CHTO   C34 4992   5.353  -0.948   3.426  0.1619 -0.0645 -0.6238
   12CHTO   O23 4993   5.336  -0.817   3.486 -0.3867  0.3045  0.6024
   12CHTO   H38 4994   5.295  -0.831   3.569  1.7951 -0.3116  1.6014
   12CHTO   O16 4995   5.098  -0.932   3.035  0.1749  0.5690 -0.2353
   12CHTO   C24 4996   5.024  -1.033   2.943  0.1790 -0.3659  0.6669
   12CHTO   H52 4997   5.091  -1.103   2.894  0.6959  2.5876 -3.0024
   12CHTO   C26 4998   4.950  -0.962   2.828  0.2924 -0.0442  0.8999
   12CHTO   H54 4999   4.874  -0.894   2.871  0.5690 -0.6825  2.4513
   12CHTO   O20 5000   5.050  -0.897   2.745 -0.2732 -0.1619 -0.0671
   12CHTO   H36 5001   5.030  -0.826   2.687  0.6478  0.1880  0.0497
   12CHTO   C30 5002   4.881  -1.062   2.733 -0.3975 -0.1295 -0.1252
   12CHTO   H58 5003   4.961  -1.126   2.695  0.4556 -0.3306  1.9303
   12CHTO    N6 5004   4.811  -1.004   2.618 -0.2656 -0.3048 -0.0360
   12CHTO   H45 5005   4.862  -0.921   2.573 -0.4242 -0.3635 -0.3271
   12CHTO   H46 5006   4.780  -1.074   2.542 -1.0351  2.4953 -2.3518
   12CHTO   C33 5007   4.789  -1.157   2.812 -0.4845  0.1240 -0.1915
   12CHTO   H61 5008   4.695  -1.106   2.841 -0.4618 -0.0991  0.2666
   12CHTO   O18 5009   4.852  -1.205   2.930 -0.1452 -0.5407  0.7234
   12CHTO   C28 5010   4.914  -1.120   3.020 -0.3318 -1.2594  0.6810
   12CHTO   H56 5011   4.835  -1.054   3.055 -0.2176 -1.2867  0.9880
   12CHTO   C35 5012   4.961  -1.216   3.135  0.6667  0.0956  0.4380
   12CHTO   O24 5013   5.005  -1.142   3.251 -0.2840 -0.1287 -0.1030
   12CHTO   H39 5014   5.037  -1.206   3.311  2.4966 -0.2150 -1.5945
   12CHTO    O9 5015   4.741  -1.267   2.730  0.7172  0.4102  0.1689
   12CHTO   C13 5016   4.845  -1.376   2.688  0.7586  0.6414  0.3005
   12CHTO   H26 5017   4.943  -1.337   2.722  1.1661  0.0944 -0.2363
   12CHTO   C11 5018   4.851  -1.413   2.531  0.1750 -0.8885 -0.1352
   12CHTO   H24 5019   4.916  -1.344   2.476 -0.3532  0.4031  0.8318
   12CHTO    O8 5020   4.717  -1.414   2.477 -0.3130 -0.2817  0.0587
   12CHTO    H3 5021   4.660  -1.470   2.526 -0.1099  1.5618  2.4659
   12CHTO    C9 5022   4.927  -1.551   2.525 -0.4151 -0.4286  0.2385
   12CHTO   H22 5023   5.022  -1.529   2.577 -0.0499 -0.8722 -0.2437
   12CHTO    N2 5024   4.959  -1.587   2.388 -0.3346 -0.5837  0.7618
   12CHTO   H10 5025   5.025  -1.671   2.373 -0.2957 -0.2869 -0.7810
   12CHTO   H11 5026   5.006  -1.501   2.343  2.7262 -1.7476  1.6242
   12CHTO    C7 5027   4.843  -1.668   2.593 -0.4619 -0.2087 -0.3662
   12CHTO   H20 5028   4.922  -1.735   2.633 -0.6183  1.5844  3.1540
   12CHTO    O4 5029   4.772  -1.611   2.707  0.3320 -0.1389 -0.0169
   12CHTO   C14 5030   4.828  -1.509   2.784 -0.3895 -0.3351  0.0661
   12CHTO   H27 5031   4.924  -1.545   2.826 -0.0393 -0.5422 -0.9012
   12CHTO   C18 5032   4.728  -1.502   2.900  0.1060  0.0600  0.0071
   12CHTO   O13 5033   4.727  -1.619   2.984  0.1236 -0.2234  0.1555
   12CHTO    H7 5034   4.643  -1.637   3.021  0.5499 -0.5422  0.9814
   12CHTO    O2 5035   4.727  -1.760   2.504  0.0171 -0.7674  0.6786
   12CHTO    C1 5036   4.683  -1.875   2.579 -0.4021  0.0140 -0.3258
   12CHTO   H14 5037   4.730  -1.881   2.679  2.6803  1.2611 -1.6321
   12CHTO    C2 5038   4.721  -2.007   2.512  0.1683  0.3081  0.0774
   12CHTO   H15 5039   4.704  -1.998   2.403  0.4299 -0.8425 -0.0679
   12CHTO    O6 5040   4.863  -2.030   2.518  0.1312 -0.2883 -0.3646
   12CHTO    H1 5041   4.887  -2.050   2.606 -2.5268  0.1718  0.4990
   12CHTO    C3 5042   4.650  -2.136   2.582 -0.3086  0.5485 -0.0029
   12CHTO   H16 5043   4.700  -2.154   2.678  1.1901  1.0816 -0.6793
   12CHTO    N1 5044   4.668  -2.271   2.518  0.0071 -0.2757  0.1905
   12CHTO    H8 5045   4.765  -2.311   2.542  0.7772  0.2822 -1.8879
   12CHTO    H9 5046   4.585  -2.338   2.540 -0.9471 -0.0268 -2.4139
   12CHTO    C4 5047   4.502  -2.104   2.610 -0.3105  0.1200 -0.6293
   12CHTO   H17 5048   4.447  -2.103   2.516 -1.8535 -1.4793  0.2280
   12CHTO    O1 5049   4.496  -1.979   2.675  0.3777 -0.0856  0.5585
   12CHTO    C5 5050   4.527  -1.872   2.589 -0.3933  0.2937  0.0739
   12CHTO   H18 5051   4.477  -1.887   2.493 -1.7747  0.6574  0.7267
   12CHTO   C16 5052   4.466  -1.742   2.654  0.1748 -0.1853 -0.0664
   12CHTO   O11 5053   4.334  -1.770   2.702  0.9957 -0.3533 -0.1425
   12CHTO    H5 5054   4.325  -1.706   2.771 -1.6464  0.6689 -1.3814
   12CHTO    O3 5055   4.438  -2.195   2.702 -0.1877  0.1987  0.4341
   12CHTO    C6 5056   4.316  -2.266   2.661  0.1979  0.0945  0.2934
   12CHTO   H19 5057   4.273  -2.224   2.570  0.9161 -0.6009 -0.3773
   12CHTO    C8 5058   4.343  -2.414   2.642 -0.2271  0.7820 -0.5391
   12CHTO   H21 5059   4.415  -2.446   2.717 -0.4270  0.7627 -0.3551
   12CHTO    O7 5060   4.403  -2.436   2.513 -0.1460  0.0694 -0.8366
   12CHTO    H2 5061   4.448  -2.518   2.512 -0.9779 -0.4102  0.2886
   12CHTO   C12 5062   4.208  -2.503   2.652 -0.4305 -0.2020  0.0752
   12CHTO   H25 5063   4.152  -2.499   2.557 -0.9183 -0.8778  0.3318
   12CHTO    N3 5064   4.240  -2.651   2.652 -0.2227 -1.0023  0.1484
   12CHTO   H12 5065   4.142  -2.697   2.650  0.2944 -2.1385  0.9374
   12CHTO   H13 5066   4.288  -2.672   2.746 -0.6220 -1.1806  0.3145
   12CHTO   C15 5067   4.112  -2.463   2.771 -0.3781 -1.1111 -0.1800
   12CHTO   H28 5068   4.147  -2.486   2.871 -3.0881  0.3395  1.1434
   12CHTO   O10 5069   3.969  -2.516   2.756  0.1347  0.2914 -0.0812
   12CHTO    H4 5070   3.917  -2.490   2.829 -0.0248  0.1620 -0.1462
   12CHTO    O5 5071   4.086  -2.324   2.753  0.1046  0.2789 -0.0182
   12CHTO   C10 5072   4.207  -2.247   2.773  0.2431 -0.6571 -0.0675
   12CHTO   H23 5073   4.242  -2.286   2.869  2.7179 -1.3528 -1.2192
   12CHTO   C17 5074   4.159  -2.103   2.791 -0.4871  0.7763  0.4202
   12CHTO   O12 5075   4.086  -2.050   2.682  0.1236 -0.5617  0.1385
   12CHTO    H6 5076   4.036  -2.119   2.643  0.0866 -1.5132  1.8190
   13CHTO  H203 5077   8.555   4.546   1.578 -0.2289 -0.5048 -1.7421
   13CHTO   O82 5078   8.592   4.630   1.559 -0.0487 -0.2035 -0.0998
   13CHTO  C123 5079   8.529   4.705   1.453 -0.6901 -0.8219  0.1405
   13CHTO  H227 5080   8.545   4.652   1.358  1.5235 -1.3332  0.7723
   13CHTO   O77 5081   8.392   4.714   1.494 -0.0550  0.1334  0.2489
   13CHTO  C118 5082   8.289   4.774   1.411 -0.1468 -0.3603  0.0107
   13CHTO  H222 5083   8.285   4.728   1.312  1.9198 -0.1099 -0.2218
   13CHTO  C125 5084   8.150   4.746   1.478 -0.3955 -0.3528  0.7116
   13CHTO   O84 5085   8.155   4.788   1.612 -0.2864 -0.3716  0.1716
   13CHTO  H205 5086   8.091   4.760   1.675  0.3937 -3.1082 -0.2567
   13CHTO  C114 5087   8.329   4.926   1.399 -0.4592 -0.1402  0.0419
   13CHTO  H218 5088   8.325   4.972   1.498  0.5165 -1.1992  0.5835
   13CHTO  C116 5089   8.479   4.933   1.351 -0.3928 -0.0507  0.2545
   13CHTO  H220 5090   8.482   4.897   1.246 -1.0668  0.2708  0.1200
   13CHTO   O79 5091   8.517   5.071   1.340 -0.0077  0.4037  0.5686
   13CHTO  H201 5092   8.528   5.117   1.421  0.2557 -1.2136  1.4693
   13CHTO  C120 5093   8.581   4.850   1.441  0.4781 -0.2739  0.8288
   13CHTO  H224 5094   8.579   4.908   1.535 -2.1459  0.4283  0.3574
   13CHTO   N21 5095   8.714   4.853   1.377 -0.6064 -0.2486 -0.4638
   13CHTO  H211 5096   8.703   4.920   1.293 -1.1227  1.8240  1.2429
   13CHTO  H212 5097   8.740   4.755   1.338  2.4265  0.5120 -0.4623
   13CHTO   O75 5098   8.240   4.984   1.309  0.1162  0.0271  0.8823
   13CHTO  C112 5099   8.196   5.129   1.369  0.4450 -0.1418  0.3990
   13CHTO  H216 5100   8.280   5.178   1.420 -0.1455  1.3971 -0.0692
   13CHTO   O73 5101   8.089   5.100   1.461 -0.1532 -0.1785 -0.0180
   13CHTO  C113 5102   8.017   5.216   1.511  0.2039  0.3734  0.6086
   13CHTO  H217 5103   8.094   5.275   1.565  2.9418 -1.0967 -1.5921
   13CHTO  C124 5104   7.925   5.150   1.606 -0.1018 -0.3940 -0.7315
   13CHTO   O83 5105   7.946   5.219   1.733  0.2468  0.2967 -0.2511
   13CHTO  H204 5106   7.865   5.204   1.780 -1.2937 -0.0602 -2.9265
   13CHTO  C109 5107   7.951   5.296   1.397  0.4252 -0.5042 -0.5086
   13CHTO  H213 5108   7.878   5.231   1.345 -0.4726  1.6113 -1.9575
   13CHTO  C110 5109   8.067   5.343   1.307  0.0192  0.1852  0.4928
   13CHTO  H214 5110   8.127   5.409   1.370  3.7061 -2.9035  0.3775
   13CHTO   O78 5111   8.015   5.420   1.199  0.4989  0.1760 -0.0609
   13CHTO  H200 5112   7.937   5.380   1.168  0.5577  1.9376 -2.6113
   13CHTO  C111 5113   8.145   5.218   1.247  0.2968 -0.7251  0.2630
   13CHTO  H215 5114   8.078   5.152   1.190 -0.0598  0.1506 -0.3400
   13CHTO   N19 5115   8.257   5.258   1.160 -0.7324 -0.0446 -0.3048
   13CHTO  H207 5116   8.320   5.333   1.206  0.4782 -0.8701 -0.5983
   13CHTO  H208 5117   8.203   5.286   1.071 -1.0785  0.4506  0.0565
   13CHTO   O74 5118   7.869   5.410   1.453  0.0439  0.6874 -0.6181
   13CHTO  C115 5119   7.695   5.410   1.405 -0.0822 -0.5270  0.5077
   13CHTO  H219 5120   7.685   5.452   1.305 -1.4336  1.0512  1.2899
   13CHTO   O76 5121   7.645   5.268   1.385 -0.1369 -0.4992  0.4233
   13CHTO  C122 5122   7.505   5.252   1.364 -0.1438 -0.3994 -0.2789
   13CHTO  H226 5123   7.475   5.149   1.381 -1.8766 -0.1615 -1.7530
   13CHTO  C126 5124   7.477   5.277   1.217 -0.5546  0.3142  0.0816
   13CHTO   O85 5125   7.339   5.267   1.178  0.2179  0.0526 -0.0380
   13CHTO  H206 5126   7.301   5.348   1.148  2.2228  1.7914  1.9484
   13CHTO  C121 5127   7.417   5.337   1.460 -0.1902 -0.2099 -0.6202
   13CHTO  H225 5128   7.313   5.332   1.421  0.3484 -2.0074 -1.9185
   13CHTO   O81 5129   7.423   5.265   1.585  0.9373  0.1663 -0.2831
   13CHTO  H202 5130   7.351   5.270   1.645  0.0854 -1.3000 -1.1354
   13CHTO  C119 5131   7.465   5.488   1.478  0.0115 -0.1719  0.2536
   13CHTO  H223 5132   7.450   5.533   1.380  0.9898 -0.5472 -0.0731
   13CHTO  C117 5133   7.619   5.487   1.516  0.3233 -0.5515  0.0477
   13CHTO  H221 5134   7.649   5.442   1.611  1.7401  1.1382  0.4350
   13CHTO   N20 5135   7.660   5.637   1.530 -0.0878 -0.1023  0.2957
   13CHTO  H209 5136   7.762   5.636   1.563  0.7702  3.0767 -2.0934
   13CHTO  H210 5137   7.645   5.686   1.435  2.6599 -2.7859 -1.6221
   13CHTO   O80 5138   7.364   5.569   1.561 -0.2933  0.1607  0.5226
   13CHTO  C103 5139   7.234   5.634   1.494 -0.2435 -0.3281  0.6616
   13CHTO  H190 5140   7.186   5.697   1.568  0.7232  0.6994  0.4308
   13CHTO  C101 5141   7.248   5.711   1.360  0.4246  0.0148  0.9863
   13CHTO  H188 5142   7.291   5.638   1.291 -0.4433  2.1152 -1.8560
   13CHTO   O68 5143   7.342   5.825   1.391 -0.1096  0.2827 -0.3474
   13CHTO  H168 5144   7.429   5.790   1.381 -0.0309  0.1325  0.8710
   13CHTO   C99 5145   7.105   5.760   1.306  0.8814 -0.2418 -0.1991
   13CHTO  H186 5146   7.052   5.820   1.383 -1.5517 -1.4393 -0.8647
   13CHTO   N17 5147   7.115   5.848   1.183 -0.0147 -0.0322 -0.1620
   13CHTO  H174 5148   7.021   5.882   1.144  1.5158  3.4287 -1.0087
   13CHTO  H175 5149   7.176   5.789   1.116  2.9046  0.8937  1.5855
   13CHTO   C97 5150   7.020   5.631   1.283  1.2465 -0.0077  0.1332
   13CHTO  H184 5151   7.074   5.572   1.207 -1.0957 -0.6927 -1.0447
   13CHTO   O64 5152   7.004   5.563   1.409 -0.4727 -0.2252 -0.3071
   13CHTO  C104 5153   7.131   5.520   1.465  0.0412  0.0962 -0.7324
   13CHTO  H191 5154   7.163   5.450   1.388  2.0475 -0.4528  0.5525
   13CHTO  C108 5155   7.109   5.444   1.592  0.3977 -0.8354  0.3482
   13CHTO   O71 5156   6.999   5.353   1.590  0.2530  0.9527 -0.5528
   13CHTO  H171 5157   7.024   5.263   1.588 -0.0229  0.8867 -2.0519
   13CHTO   O62 5158   6.883   5.641   1.242  0.1025 -0.1279 -0.3344
   13CHTO   C91 5159   6.794   5.532   1.210  0.2014 -0.0487 -0.5294
   13CHTO  H178 5160   6.850   5.440   1.228 -1.5745 -0.8565  1.1102
   13CHTO   C92 5161   6.763   5.534   1.053  0.0270 -0.1957  0.0016
   13CHTO  H179 5162   6.733   5.638   1.030 -0.1566 -0.0413  0.9263
   13CHTO   O66 5163   6.894   5.517   0.991  0.4503 -0.1234 -0.5847
   13CHTO  H166 5164   6.888   5.552   0.905 -0.1687  1.4279  0.0833
   13CHTO   C93 5165   6.652   5.432   1.004  0.0587 -0.0711  0.2989
   13CHTO  H180 5166   6.685   5.327   1.010  1.4456  0.3486  0.1218
   13CHTO   N16 5167   6.613   5.449   0.859 -0.0895 -0.1942 -0.3244
   13CHTO  H172 5168   6.533   5.380   0.837  0.9111 -1.4334 -0.1411
   13CHTO  H173 5169   6.697   5.426   0.795 -0.0637  0.4553 -0.5240
   13CHTO   C94 5170   6.529   5.448   1.093 -0.1770  0.5677 -0.7148
   13CHTO  H181 5171   6.485   5.548   1.090 -0.2439  0.5092 -1.6278
   13CHTO   O61 5172   6.574   5.420   1.227  0.0146  0.4240 -0.0714
   13CHTO   C95 5173   6.656   5.525   1.279  0.0582 -0.7623 -0.3331
   13CHTO  H182 5174   6.606   5.621   1.268  0.5744 -0.6890 -2.2536
   13CHTO  C106 5175   6.667   5.479   1.430  0.0942 -0.6145 -0.3336
   13CHTO   O69 5176   6.723   5.583   1.518  0.2265 -0.4896  1.1391
   13CHTO  H169 5177   6.671   5.594   1.595 -0.0590  1.3963  0.6866
   13CHTO   O63 5178   6.420   5.336   1.042  0.1730 -0.0211 -0.3565
   13CHTO   C96 5179   6.296   5.338   1.129 -0.1889 -0.4120 -0.0328
   13CHTO  H183 5180   6.219   5.283   1.075  0.6423 -0.6326 -0.9956
   13CHTO   C98 5181   6.230   5.473   1.170  0.0088 -0.4020  0.1267
   13CHTO  H185 5182   6.304   5.531   1.227  2.5691 -0.7033 -2.7756
   13CHTO   O67 5183   6.211   5.548   1.044 -0.2954 -0.3827  0.1016
   13CHTO  H167 5184   6.288   5.547   0.990 -1.4570  0.5473 -1.6457
   13CHTO  C102 5185   6.091   5.464   1.260 -0.5807  0.5337 -0.5260
   13CHTO  H189 5186   6.012   5.432   1.190 -3.6530  4.0177  1.1561
   13CHTO   N18 5187   6.046   5.594   1.317  0.3001  0.4139 -0.6191
   13CHTO  H176 5188   5.949   5.569   1.358  0.3109  0.7503 -0.3877
   13CHTO  H177 5189   6.048   5.676   1.247  1.2565  0.5566 -0.4247
   13CHTO  C105 5190   6.115   5.355   1.368 -0.7102 -0.0084 -0.6269
   13CHTO  H192 5191   6.186   5.389   1.444  0.6787  0.5287 -2.1481
   13CHTO   O65 5192   6.176   5.239   1.308  0.4872 -0.0946 -0.3452
   13CHTO  C100 5193   6.312   5.244   1.257 -0.0187 -0.4986 -0.0084
   13CHTO  H187 5194   6.381   5.294   1.327  0.5850 -0.6302 -0.5034
   13CHTO  C107 5195   6.369   5.097   1.228 -0.3223  0.1465 -0.5739
   13CHTO   O70 5196   6.511   5.121   1.183 -0.0720 -0.0224  0.0016
   13CHTO  H170 5197   6.550   5.041   1.152  1.6055  0.5134  0.6974
   13CHTO   O57 5198   5.976   5.311   1.438 -0.4680  0.4243 -0.4742
   13CHTO   C85 5199   5.900   5.202   1.379 -0.5688 -0.0592  0.0303
   13CHTO  H157 5200   5.958   5.165   1.292  0.2645 -0.4764  0.7491
   13CHTO   C83 5201   5.771   5.267   1.315 -0.2654  0.8126  0.9952
   13CHTO  H155 5202   5.811   5.328   1.234  0.2461 -0.6381  0.1287
   13CHTO   O56 5203   5.701   5.356   1.399 -0.4365  0.1845 -1.1521
   13CHTO  H135 5204   5.616   5.376   1.364  0.1548  1.8167 -1.6869
   13CHTO   C81 5205   5.686   5.155   1.255  0.1279 -0.7848  0.6098
   13CHTO  H153 5206   5.749   5.094   1.190  1.3052  0.8102  0.2377
   13CHTO   N14 5207   5.576   5.194   1.165 -0.6879 -0.2188  0.0683
   13CHTO  H141 5208   5.619   5.250   1.084 -1.1923  1.0954  0.6918
   13CHTO  H142 5209   5.515   5.116   1.127  0.2646  0.5863 -3.2928
   13CHTO   C79 5210   5.641   5.059   1.372  0.3241 -0.2409 -0.2449
   13CHTO  H151 5211   5.583   4.976   1.332  2.4362 -1.5265 -0.7017
   13CHTO   O52 5212   5.762   4.991   1.429 -0.1113  0.6737  0.1761
   13CHTO   C86 5213   5.857   5.087   1.484 -0.8540 -0.0732  0.2837
   13CHTO  H158 5214   5.823   5.137   1.577  1.4754  1.9917  0.0844
   13CHTO   C90 5215   5.984   5.004   1.524  0.6868  0.0689 -0.0319
   13CHTO   O60 5216   5.986   4.943   1.654 -0.1073 -0.0686 -0.3881
   13CHTO  H138 5217   5.946   4.858   1.653 -0.3809  0.0648 -1.8407
   13CHTO   O50 5218   5.566   5.122   1.482  0.6526 -0.6036 -0.0963
   13CHTO   C73 5219   5.433   5.084   1.516 -0.7252 -0.3025  0.2873
   13CHTO  H145 5220   5.384   5.016   1.445 -1.7158  0.1338  0.5459
   13CHTO   C74 5221   5.346   5.208   1.523  0.0643  0.0644 -0.3282
   13CHTO  H146 5222   5.342   5.246   1.420  3.9565  0.4124 -0.4474
   13CHTO   O54 5223   5.212   5.172   1.553 -0.7532 -0.5453  0.3291
   13CHTO  H133 5224   5.152   5.176   1.481  0.3343 -2.2009 -0.7046
   13CHTO   C75 5225   5.415   5.310   1.625 -0.4369  0.6386 -0.4236
   13CHTO  H147 5226   5.512   5.335   1.580  0.1102 -0.3147  0.2066
   13CHTO   N13 5227   5.341   5.440   1.639  0.1083 -0.2493 -0.9027
   13CHTO  H139 5228   5.404   5.511   1.690  0.8836 -1.2543 -0.4286
   13CHTO  H140 5229   5.321   5.483   1.542  0.0405  0.8585 -0.4015
   13CHTO   C76 5230   5.425   5.235   1.768 -0.4663  0.0944 -0.2691
   13CHTO  H148 5231   5.326   5.204   1.803 -0.7602  1.0713 -0.2340
   13CHTO   O49 5232   5.503   5.117   1.750  0.2859 -0.1292 -0.1960
   13CHTO   C77 5233   5.439   5.023   1.664 -0.7822 -0.3289 -0.2857
   13CHTO  H149 5234   5.336   5.014   1.701 -1.5142  1.8184 -1.7441
   13CHTO   C88 5235   5.515   4.896   1.688 -0.2393  0.1068  0.0131
   13CHTO   O58 5236   5.652   4.890   1.673 -0.0043  0.0195 -0.0775
   13CHTO  H136 5237   5.668   4.800   1.692  0.5349  0.0341 -0.4336
   13CHTO   O51 5238   5.502   5.312   1.883 -0.1213  0.1016  0.3576
   13CHTO   C78 5239   5.667   5.342   1.892  0.3077 -0.7639  1.0862
   13CHTO  H150 5240   5.694   5.379   1.993 -0.8749 -0.4823  1.3062
   13CHTO   C80 5241   5.705   5.448   1.788 -0.3673  0.1352  0.0950
   13CHTO  H152 5242   5.681   5.408   1.687  0.3547 -0.3548  0.1145
   13CHTO   O55 5243   5.632   5.570   1.806 -0.0901 -0.4150 -0.7813
   13CHTO  H134 5244   5.541   5.547   1.813  0.1623 -1.1572  0.2131
   13CHTO   C84 5245   5.868   5.471   1.793 -0.3626 -0.5963  0.8399
   13CHTO  H156 5246   5.873   5.526   1.887  1.6783  0.1629  0.3028
   13CHTO   N15 5247   5.908   5.567   1.687  0.2178 -0.1044  0.6134
   13CHTO  H143 5248   6.006   5.609   1.696 -0.4813  1.2931  2.0097
   13CHTO  H144 5249   5.838   5.648   1.676  1.7217  0.9331 -1.7344
   13CHTO   C87 5250   5.942   5.337   1.795  0.2337  0.6696 -0.1533
   13CHTO  H159 5251   5.939   5.292   1.695  1.0556 -1.2442  0.6498
   13CHTO   O53 5252   5.890   5.252   1.879  0.8302 -0.2671 -0.1382
   13CHTO   C82 5253   5.749   5.214   1.872 -0.3583 -0.8033 -0.0493
   13CHTO  H154 5254   5.733   5.160   1.779  1.1354  0.5084 -1.0995
   13CHTO   C89 5255   5.725   5.119   1.999  0.4423  0.0866 -0.1200
   13CHTO   O59 5256   5.794   4.995   1.976 -0.1743  0.0185  0.7539
   13CHTO  H137 5257   5.825   4.962   2.059  1.2629 -0.3082  0.1173
   13CHTO   O45 5258   6.102   5.366   1.828  0.0814 -0.7617  0.0939
   13CHTO   C67 5259   6.204   5.261   1.810 -0.3950  0.0427 -0.1873
   13CHTO  H124 5260   6.169   5.185   1.739  1.2643  0.8349 -1.9039
   13CHTO   C65 5261   6.331   5.331   1.752 -0.3800  0.6031 -0.1167
   13CHTO  H122 5262   6.292   5.396   1.674  2.9637  3.2572  0.3247
   13CHTO   O44 5263   6.413   5.229   1.700 -0.1025 -0.2397  0.7617
   13CHTO  H102 5264   6.464   5.281   1.642 -2.3649  0.8114 -0.3309
   13CHTO   C63 5265   6.403   5.423   1.850 -0.0069 -0.1121 -0.2906
   13CHTO  H120 5266   6.340   5.509   1.870  0.2991  0.5401 -2.0577
   13CHTO   N11 5267   6.526   5.499   1.797 -0.1555 -0.7338  0.5805
   13CHTO  H108 5268   6.612   5.460   1.848 -0.2536  0.9030  2.0819
   13CHTO  H109 5269   6.537   5.491   1.691 -1.4726  1.0317  0.2878
   13CHTO   C61 5270   6.424   5.354   1.987  0.1787  0.1248  0.3171
   13CHTO  H118 5271   6.450   5.433   2.059  2.6744 -0.8433  0.5314
   13CHTO   O40 5272   6.301   5.282   2.040 -0.1083  0.0062 -0.4426
   13CHTO   C68 5273   6.222   5.193   1.946 -0.3038  1.0922 -0.6603
   13CHTO  H125 5274   6.116   5.178   1.978  0.4066 -1.6397  0.5089
   13CHTO   C72 5275   6.284   5.048   1.948 -0.5324  0.4218  0.0819
   13CHTO   O48 5276   6.210   4.960   1.869 -0.2779  0.0765  0.1206
   13CHTO  H105 5277   6.124   4.996   1.860  0.6993  2.0273 -1.6698
   13CHTO   O38 5278   6.529   5.262   2.002  0.2835 -0.4592 -0.1099
   13CHTO   C55 5279   6.608   5.257   2.120 -0.0228 -0.3542  0.2268
   13CHTO  H112 5280   6.624   5.151   2.145 -0.5280 -0.0039  2.1367
   13CHTO   C56 5281   6.564   5.340   2.255 -0.0137  0.0784 -0.6441
   13CHTO  H113 5282   6.558   5.446   2.227  1.9464  0.9418  2.0272
   13CHTO   O42 5283   6.435   5.296   2.304 -0.3628  0.4545  0.3484
   13CHTO  H100 5284   6.379   5.358   2.346 -3.3545 -1.2155 -0.9989
   13CHTO   C57 5285   6.670   5.333   2.370  0.4765 -0.4781 -0.2373
   13CHTO  H114 5286   6.677   5.232   2.410 -1.2668 -0.3741  0.3784
   13CHTO   N10 5287   6.638   5.415   2.489  1.0569  0.1281 -0.3235
   13CHTO  H106 5288   6.729   5.412   2.547  1.4714 -1.3400 -1.0230
   13CHTO  H107 5289   6.627   5.511   2.440  2.9993 -0.8141 -2.7148
   13CHTO   C58 5290   6.805   5.377   2.308  0.0181  0.8737  0.9678
   13CHTO  H115 5291   6.789   5.475   2.257 -0.3402  0.4597  0.2801
   13CHTO   O37 5292   6.841   5.292   2.195 -0.1865 -0.3468 -0.0430
   13CHTO   C59 5293   6.750   5.311   2.082  0.5151  0.3949  0.6533
   13CHTO  H116 5294   6.742   5.414   2.048 -0.0079  0.6879  1.6397
   13CHTO   C70 5295   6.814   5.222   1.974 -0.3340 -0.6106  0.1063
   13CHTO   O46 5296   6.929   5.274   1.907 -0.2037 -0.1650  0.1054
   13CHTO  H103 5297   6.997   5.210   1.919 -1.2213 -1.3179 -0.1972
   13CHTO   O39 5298   6.939   5.370   2.425 -0.0053 -0.0447 -0.1118
   13CHTO   C60 5299   7.018   5.486   2.410 -0.0547  0.0675  0.0208
   13CHTO  H117 5300   7.014   5.503   2.302 -3.2974 -0.3070  0.0571
   13CHTO   C62 5301   6.957   5.615   2.481 -0.3155 -0.0467  0.2021
   13CHTO  H119 5302   6.859   5.629   2.431  0.9727  1.7955 -1.9140
   13CHTO   O43 5303   6.946   5.574   2.619  0.1152 -0.1641 -0.1182
   13CHTO  H101 5304   6.924   5.642   2.680  1.8110  0.3078  0.0089
   13CHTO   C66 5305   7.036   5.752   2.453  0.3909  0.2295  0.0435
   13CHTO  H123 5306   7.041   5.764   2.345  3.5092  3.1194  0.4264
   13CHTO   N12 5307   6.974   5.873   2.513 -0.1174  0.3787  0.1393
   13CHTO  H110 5308   7.034   5.961   2.492 -2.7419  2.3019  0.4474
   13CHTO  H111 5309   6.961   5.862   2.619 -3.2271  0.9326 -0.1512
   13CHTO   C69 5310   7.189   5.744   2.481  0.3457  0.0033 -0.3597
   13CHTO  H126 5311   7.212   5.750   2.589  1.1288  0.3781 -0.5450
   13CHTO   O41 5312   7.255   5.609   2.422 -0.2569 -0.2749  0.2201
   13CHTO   C64 5313   7.165   5.470   2.451 -0.1172  0.1969 -1.3484
   13CHTO  H121 5314   7.157   5.446   2.559 -0.0718 -1.8054 -1.7753
   13CHTO   C71 5315   7.236   5.349   2.389  0.2630  0.0726 -0.6390
   13CHTO   O47 5316   7.364   5.336   2.451  0.6353 -0.0944  0.1328
   13CHTO  H104 5317   7.397   5.259   2.409 -0.7313 -0.0723 -1.0370
   13CHTO   O34 5318   7.269   5.862   2.414 -0.3497 -0.1999  0.0968
   13CHTO   C49 5319   7.427   5.907   2.407  0.5017 -0.2980  0.1488
   13CHTO   H91 5320   7.495   5.822   2.399 -1.1537 -1.7785  1.3392
   13CHTO   C47 5321   7.452   5.975   2.541 -0.4392  1.0824 -0.2552
   13CHTO   H89 5322   7.558   6.009   2.546 -0.3545  1.0177 -1.3754
   13CHTO   O33 5323   7.423   5.883   2.644 -0.2988 -0.1966 -0.5132
   13CHTO   H70 5324   7.335   5.899   2.672 -0.1490  1.6105 -1.0093
   13CHTO   C45 5325   7.368   6.116   2.557 -0.0120  0.4551  0.3028
   13CHTO   H87 5326   7.281   6.099   2.622 -0.5247  1.0293 -0.2194
   13CHTO    N8 5327   7.456   6.216   2.621 -0.4024 -0.3446  0.5439
   13CHTO   H75 5328   7.514   6.261   2.542  0.6653 -0.6752  1.1259
   13CHTO   H76 5329   7.396   6.291   2.670 -1.0825 -0.7872  0.3962
   13CHTO   C43 5330   7.305   6.158   2.418 -0.1722 -0.1530 -0.8258
   13CHTO   H85 5331   7.218   6.092   2.409 -1.0733  0.5726  2.0078
   13CHTO   O29 5332   7.397   6.142   2.311  0.0287  0.5420  0.0012
   13CHTO   C50 5333   7.447   6.006   2.291 -0.6627 -0.2141 -0.2665
   13CHTO   H92 5334   7.399   5.962   2.203 -2.8773  0.4611  0.5690
   13CHTO   C54 5335   7.596   6.026   2.242  0.1154 -0.6543  0.0713
   13CHTO   O36 5336   7.668   5.904   2.214 -0.3878 -0.2042  0.1374
   13CHTO   H72 5337   7.672   5.889   2.122 -0.6181 -1.5061  0.3216
   13CHTO   O27 5338   7.248   6.290   2.414 -0.1331  0.4839  0.0624
   13CHTO   C37 5339   7.234   6.431   2.435 -0.8358  0.2898  0.2580
   13CHTO   H79 5340   7.300   6.455   2.519 -2.1974  1.3328  1.0423
   13CHTO   C38 5341   7.291   6.514   2.330  0.3379 -0.7423 -0.0552
   13CHTO   H80 5342   7.231   6.505   2.239 -1.9334 -0.9855  1.4219
   13CHTO   O31 5343   7.427   6.482   2.309 -0.0514 -0.2789  0.4569
   13CHTO   H68 5344   7.488   6.549   2.331  1.4919 -1.1993 -0.9047
   13CHTO   C39 5345   7.270   6.668   2.386  0.2132 -1.1978 -0.2207
   13CHTO   H81 5346   7.331   6.678   2.477 -1.5284  0.6521  0.7915
   13CHTO    N7 5347   7.322   6.771   2.301  0.7216  0.7935 -0.8126
   13CHTO   H73 5348   7.278   6.755   2.204  0.4170 -3.5177 -0.0429
   13CHTO   H74 5349   7.427   6.749   2.288  1.4822  2.5226  2.0561
   13CHTO   C40 5350   7.118   6.707   2.426  0.0541 -0.5015 -0.3335
   13CHTO   H82 5351   7.057   6.708   2.335  0.2230 -0.5733 -0.4480
   13CHTO   O26 5352   7.068   6.607   2.514  0.3721 -0.0003  0.2004
   13CHTO   C41 5353   7.089   6.464   2.476  0.6779  0.0230 -0.7827
   13CHTO   H83 5354   7.017   6.430   2.401  0.0474  2.2883 -1.2351
   13CHTO   C52 5355   7.042   6.381   2.599  0.2518 -0.1026  0.6607
   13CHTO   O35 5356   6.902   6.396   2.626  0.1621  0.1677 -0.2837
   13CHTO   H71 5357   6.867   6.308   2.624 -2.1691  1.0768 -1.1607
   13CHTO   O28 5358   7.111   6.833   2.511  0.3820 -0.0535 -0.3004
   13CHTO   C42 5359   7.040   6.954   2.454 -0.1974  0.2451 -0.1458
   13CHTO   H84 5360   7.041   6.942   2.346 -3.4847 -2.6516  0.0676
   13CHTO   C44 5361   7.112   7.090   2.481 -0.6128  0.2315  0.1455
   13CHTO   H86 5362   7.126   7.111   2.587  0.5034  1.8494 -0.3021
   13CHTO   O32 5363   7.249   7.080   2.426 -0.0098  0.4287 -0.6240
   13CHTO   H69 5364   7.256   7.124   2.344  0.1318  0.8785 -0.3710
   13CHTO   C48 5365   7.031   7.201   2.414 -0.2565 -0.1095  0.4899
   13CHTO   H90 5366   7.038   7.180   2.307  0.0378 -0.9628  0.6766
   13CHTO    N9 5367   7.091   7.337   2.441 -0.1969  0.2100  0.2036
   13CHTO   H77 5368   7.046   7.401   2.368 -0.2911  0.3997  0.4272
   13CHTO   H78 5369   7.068   7.369   2.542 -0.6161 -1.3629  0.6289
   13CHTO   C51 5370   6.876   7.198   2.441 -0.1861 -0.0856 -0.2848
   13CHTO   H93 5371   6.857   7.217   2.547  0.1797  0.6906 -0.3581
   13CHTO   O30 5372   6.826   7.076   2.405 -0.4382 -0.1986  0.1957
   13CHTO   C46 5373   6.884   6.970   2.488  0.0307  0.4953 -0.8690
   13CHTO   H88 5374   6.863   6.995   2.592  2.2200 -0.7025 -0.1172
   13CHTO   C53 5375   6.803   6.846   2.448  0.1229  0.0742 -0.4815
   13CHTO   O72 5376   6.823   6.735   2.531 -0.3724 -0.6656  0.1144
   13CHTO  H199 5377   6.838   6.654   2.486 -3.7024 -0.7156 -1.0341
   13CHTO   O22 5378   6.801   7.289   2.362  0.4520 -0.2960 -0.2511
   13CHTO   C31 5379   6.671   7.342   2.400  0.1007  0.0793  0.0466
   13CHTO   H59 5380   6.628   7.393   2.312 -0.3006 -1.7759 -0.8570
   13CHTO   C29 5381   6.575   7.227   2.431  0.0803 -0.4903 -0.2631
   13CHTO   H57 5382   6.610   7.169   2.519  1.4020 -0.1009 -0.5119
   13CHTO   O21 5383   6.563   7.136   2.318 -0.4421  0.4863 -0.0985
   13CHTO   H37 5384   6.501   7.066   2.323  0.7078 -0.6546 -1.6525
   13CHTO   C27 5385   6.432   7.287   2.469  0.1577  0.2229 -0.7978
   13CHTO   H55 5386   6.388   7.331   2.379  0.8537  0.8198 -0.8443
   13CHTO    N5 5387   6.338   7.188   2.527  0.1154  0.1955 -0.1940
   13CHTO   H43 5388   6.378   7.120   2.600 -1.7358  1.3303  1.9445
   13CHTO   H44 5389   6.241   7.228   2.552 -0.6125 -1.0747 -0.9171
   13CHTO   C25 5390   6.443   7.400   2.574  0.3562 -0.2923  0.5459
   13CHTO   H53 5391   6.469   7.353   2.670 -4.2795 -1.1736  1.4816
   13CHTO   O17 5392   6.545   7.499   2.550 -0.3396  0.0710 -0.8001
   13CHTO   C32 5393   6.674   7.439   2.523 -0.0860 -0.3642 -0.6556
   13CHTO   H60 5394   6.706   7.383   2.611 -0.9509  1.2293  0.7027
   13CHTO   C36 5395   6.771   7.554   2.490  1.1926  0.1869  0.0466
   13CHTO   O25 5396   6.783   7.642   2.607  0.1647 -0.4386  0.1572
   13CHTO   H40 5397   6.843   7.608   2.671 -2.2732 -1.4921  1.9487
   13CHTO   O15 5398   6.314   7.491   2.597  0.0734  0.1467  0.4486
   13CHTO   C19 5399   6.202   7.562   2.537 -0.7483 -0.8628  0.5403
   13CHTO   H47 5400   6.191   7.655   2.595 -0.3699  0.9731 -2.2390
   13CHTO   C20 5401   6.219   7.597   2.386 -0.0546  0.4913  0.1874
   13CHTO   H48 5402   6.232   7.505   2.326  1.1750  0.8287 -0.0820
   13CHTO   O19 5403   6.338   7.682   2.375 -0.3577 -0.3565  0.2559
   13CHTO   H35 5404   6.418   7.642   2.402 -0.1125  1.3554  2.1469
   13CHTO   C21 5405   6.092   7.670   2.328  1.0721 -0.4613 -0.1950
   13CHTO   H49 5406   6.085   7.770   2.371  0.8657 -0.7054  0.3447
   13CHTO    N4 5407   6.098   7.682   2.179 -0.0800  0.0035 -0.2240
   13CHTO   H41 5408   6.008   7.645   2.131 -0.4872  3.0567 -1.9734
   13CHTO   H42 5409   6.105   7.784   2.144  0.0366 -0.0512 -0.3631
   13CHTO   C22 5410   5.961   7.595   2.376 -0.0371  0.3017 -0.0432
   13CHTO   H50 5411   5.970   7.508   2.312 -1.6063 -0.7864  1.1960
   13CHTO   O14 5412   5.951   7.558   2.513  0.1276  0.2906 -0.1936
   13CHTO   C23 5413   6.063   7.482   2.559 -0.0634 -0.1259 -0.1039
   13CHTO   H51 5414   6.064   7.385   2.507 -0.8614  0.2962 -0.9197
   13CHTO   C34 5415   6.044   7.452   2.707 -0.7464  0.4466 -0.6852
   13CHTO   O23 5416   6.019   7.563   2.793 -0.5060  0.2155 -0.1418
   13CHTO   H38 5417   6.102   7.584   2.830  0.5450 -2.3579 -0.8946
   13CHTO   O16 5418   5.850   7.675   2.344  0.7262 -0.0334 -0.5951
   13CHTO   C24 5419   5.717   7.598   2.349 -0.1286  0.5713  0.3265
   13CHTO   H52 5420   5.714   7.522   2.427  1.2433 -0.2943 -0.4400
   13CHTO   C26 5421   5.685   7.523   2.217  0.4551 -0.2340 -0.7442
   13CHTO   H54 5422   5.696   7.596   2.134  1.4035  1.2445  0.6773
   13CHTO   O20 5423   5.778   7.416   2.202 -0.4881 -0.0969 -0.4810
   13CHTO   H36 5424   5.809   7.399   2.115 -0.2055  0.8222 -0.5600
   13CHTO   C30 5425   5.536   7.469   2.227 -0.2859  0.4396  0.6898
   13CHTO   H58 5426   5.537   7.380   2.292  2.2293 -0.0215  0.1039
   13CHTO    N6 5427   5.495   7.425   2.086 -0.0671 -0.5347  0.0165
   13CHTO   H45 5428   5.417   7.350   2.092 -0.2588 -0.4370 -1.1042
   13CHTO   H46 5429   5.451   7.507   2.032 -0.3067 -0.3108  0.5539
   13CHTO   C33 5430   5.436   7.574   2.282  0.0711  0.0772  0.1656
   13CHTO   H61 5431   5.419   7.657   2.212 -0.2506 -0.4774 -0.4134
   13CHTO   O18 5432   5.484   7.634   2.400 -0.9614 -0.1458 -0.4169
   13CHTO   C28 5433   5.604   7.704   2.380 -0.0904 -0.9544 -0.5260
   13CHTO   H56 5434   5.594   7.779   2.301  2.4416 -0.1529 -0.1250
   13CHTO   C35 5435   5.644   7.774   2.512  0.4247 -0.2635  0.1186
   13CHTO   O24 5436   5.564   7.881   2.558  0.8433  0.1409  0.2018
   13CHTO   H39 5437   5.544   7.943   2.490  1.1126 -1.3143 -1.2349
   13CHTO    O9 5438   5.310   7.521   2.303  0.0042 -0.4790  0.3415
   13CHTO   C13 5439   5.277   7.434   2.446 -0.8901  0.2845  0.5327
   13CHTO   H26 5440   5.363   7.446   2.515  0.0991 -0.5173 -0.5428
   13CHTO   C11 5441   5.259   7.287   2.405  0.3080  0.0489  0.1268
   13CHTO   H24 5442   5.359   7.248   2.380 -0.3722 -0.4708 -1.8514
   13CHTO    O8 5443   5.165   7.274   2.297  0.2710  0.2747 -0.0460
   13CHTO    H3 5444   5.081   7.278   2.339  0.2455  0.6971 -0.1363
   13CHTO    C9 5445   5.215   7.210   2.540  0.2169  0.3918 -0.0813
   13CHTO   H22 5446   5.297   7.223   2.613  0.2968  1.5001 -0.3595
   13CHTO    N2 5447   5.206   7.061   2.526  0.2030  0.3775 -0.3321
   13CHTO   H10 5448   5.125   7.037   2.457  0.0206 -0.4418  0.1633
   13CHTO   H11 5449   5.182   7.015   2.621 -0.4165  2.2870  0.4479
   13CHTO    C7 5450   5.078   7.279   2.598 -0.0038  0.0837 -0.0238
   13CHTO   H20 5451   5.113   7.287   2.703  0.9681 -0.5470 -0.2955
   13CHTO    O4 5452   5.047   7.404   2.544 -0.5352 -0.0972 -0.4311
   13CHTO   C14 5453   5.152   7.494   2.529 -0.0405 -0.8094 -0.1141
   13CHTO   H27 5454   5.190   7.519   2.630  1.0232  1.2937 -1.0004
   13CHTO   C18 5455   5.096   7.617   2.467  0.5653  0.4290  0.6037
   13CHTO   O13 5456   5.166   7.738   2.473 -0.3921  0.4968 -0.2827
   13CHTO    H7 5457   5.237   7.753   2.413  0.5501 -0.3823  0.5843
   13CHTO    O2 5458   4.933   7.174   2.585 -0.3181  0.1867 -0.1952
   13CHTO    C1 5459   4.828   7.205   2.674 -0.3659  0.5572  0.0659
   13CHTO   H14 5460   4.739   7.150   2.637 -0.0154 -0.2324  0.3972
   13CHTO    C2 5461   4.783   7.352   2.687  0.0687 -0.3442 -0.8489
   13CHTO   H15 5462   4.874   7.410   2.707 -0.1237 -0.0231 -0.9150
   13CHTO    O6 5463   4.728   7.393   2.567 -0.5042  0.1322 -0.1797
   13CHTO    H1 5464   4.638   7.366   2.575  0.2890 -2.1299  1.8329
   13CHTO    C3 5465   4.679   7.370   2.815 -0.0806  0.3752  0.1615
   13CHTO   H16 5466   4.581   7.329   2.786 -0.1179  0.4309  0.2093
   13CHTO    N1 5467   4.653   7.515   2.852 -1.0707  0.4349  0.4590
   13CHTO    H8 5468   4.744   7.571   2.864 -0.3695  0.0109 -2.4881
   13CHTO    H9 5469   4.576   7.556   2.787 -2.0768  0.1216  1.4354
   13CHTO    C4 5470   4.732   7.285   2.934  0.1016 -0.1909  0.0707
   13CHTO   H17 5471   4.822   7.332   2.974  0.2443 -0.6803  0.3423
   13CHTO    O1 5472   4.751   7.151   2.893 -0.9374  0.0343  0.0486
   13CHTO    C5 5473   4.860   7.128   2.803 -0.2859 -0.2116  0.4730
   13CHTO   H18 5474   4.949   7.157   2.858 -0.6305  0.2337  0.8074
   13CHTO   C16 5475   4.871   6.970   2.776  0.2481  0.1823  1.0122
   13CHTO   O11 5476   4.889   6.894   2.898 -0.1193  0.3982  0.2436
   13CHTO    H5 5477   4.977   6.864   2.910  0.2044  1.3572  0.3550
   13CHTO    O3 5478   4.633   7.288   3.038  0.0822 -0.3959  0.0832
   13CHTO    C6 5479   4.570   7.166   3.090 -0.7566  0.2129 -0.4665
   13CHTO   H19 5480   4.545   7.089   3.018  1.2324 -2.8384  1.9917
   13CHTO    C8 5481   4.654   7.100   3.210  0.0987 -0.9618 -0.3863
   13CHTO   H21 5482   4.690   7.174   3.280  0.0288 -2.0459  0.8097
   13CHTO    O7 5483   4.769   7.044   3.149 -0.1705  0.1360 -0.1203
   13CHTO    H2 5484   4.751   6.998   3.070 -0.4331  1.2753 -0.7386
   13CHTO   C12 5485   4.555   6.993   3.279  0.3874 -0.3260 -0.1295
   13CHTO   H25 5486   4.519   6.918   3.204 -0.6009  0.1567 -0.1481
   13CHTO    N3 5487   4.620   6.909   3.386 -0.6809 -0.1024  0.0973
   13CHTO   H12 5488   4.554   6.847   3.444  1.6183 -2.6533  0.1100
   13CHTO   H13 5489   4.690   6.846   3.334 -0.0225  0.9050 -0.2574
   13CHTO   C15 5490   4.431   7.076   3.331  0.4800 -0.0566 -0.4101
   13CHTO   H28 5491   4.470   7.160   3.388  0.6675  1.0926 -2.1763
   13CHTO   O10 5492   4.326   6.994   3.415  0.2611 -0.0352 -0.0183
   13CHTO    H4 5493   4.277   7.053   3.468  0.2791 -0.8703  0.9495
   13CHTO    O5 5494   4.352   7.129   3.226  0.0561 -0.0830  0.2845
   13CHTO   C10 5495   4.433   7.220   3.148  0.4613 -0.0087 -0.0197
   13CHTO   H23 5496   4.470   7.297   3.215  3.0226 -1.1763 -0.0181
   13CHTO   C17 5497   4.342   7.278   3.037  0.0898 -0.4540  0.4587
   13CHTO   O12 5498   4.240   7.361   3.094 -0.0615  0.0285 -0.2149
   13CHTO    H6 5499   4.156   7.322   3.086  0.1759 -0.9224  1.7237
   14CHTO  H203 5500   7.029   5.044   1.903  2.4033  0.6725  0.1947
   14CHTO   O82 5501   7.043   4.959   1.866 -0.4749  0.2459  0.0058
   14CHTO  C123 5502   6.917   4.889   1.841 -0.1534  0.5996 -0.9033
   14CHTO  H227 5503   6.865   4.884   1.938 -1.5166 -2.4365 -1.7405
   14CHTO   O77 5504   6.857   4.965   1.732 -0.1755  0.2297 -0.8066
   14CHTO  C118 5505   6.732   4.921   1.681 -0.5643  0.7520  0.0882
   14CHTO  H222 5506   6.665   4.920   1.768 -1.8491 -2.1461 -0.8936
   14CHTO  C125 5507   6.681   5.028   1.575 -0.0485 -0.0438 -0.5207
   14CHTO   O84 5508   6.675   5.154   1.643 -0.4124  0.5556  0.2122
   14CHTO  H205 5509   6.761   5.188   1.658 -0.6997  1.8865 -0.9814
   14CHTO  C114 5510   6.738   4.779   1.626 -0.0237 -0.1626  0.0520
   14CHTO  H218 5511   6.810   4.777   1.544 -0.2077  1.2430 -0.1489
   14CHTO  C116 5512   6.785   4.687   1.738 -0.5878 -0.0774  0.0998
   14CHTO  H220 5513   6.715   4.686   1.824 -0.5275 -0.1218  0.1485
   14CHTO   O79 5514   6.793   4.549   1.686 -0.5825 -0.1428 -0.5279
   14CHTO  H201 5515   6.719   4.525   1.634  0.9986 -0.5708 -2.6478
   14CHTO  C120 5516   6.929   4.742   1.782 -0.5788 -0.7307  0.6684
   14CHTO  H224 5517   6.989   4.752   1.689  0.0444  1.0965  1.2513
   14CHTO   N21 5518   7.015   4.660   1.869 -0.7266 -0.1927  0.1078
   14CHTO  H211 5519   7.099   4.711   1.913 -0.1282  0.1732 -1.4319
   14CHTO  H212 5520   7.053   4.567   1.829 -0.3862 -0.0384  0.0659
   14CHTO   O75 5521   6.604   4.745   1.577 -0.5639 -0.6013 -0.4690
   14CHTO  C112 5522   6.470   4.703   1.676 -0.6938 -0.0723  0.8277
   14CHTO  H216 5523   6.466   4.779   1.756  2.2308  0.7890  0.2188
   14CHTO   O73 5524   6.495   4.570   1.724 -0.4073  0.6709  0.5192
   14CHTO  C113 5525   6.381   4.515   1.802 -0.4743 -0.2561  0.4874
   14CHTO  H217 5526   6.371   4.580   1.892 -1.7667 -0.7050  0.6659
   14CHTO  C124 5527   6.431   4.375   1.845  0.0146 -0.1398 -0.1520
   14CHTO   O83 5528   6.370   4.298   1.950  0.3519 -0.5592  0.2518
   14CHTO  H204 5529   6.404   4.322   2.034 -1.1511  1.0998  0.4302
   14CHTO  C109 5530   6.250   4.510   1.724 -0.7014 -0.3709  0.3439
   14CHTO  H213 5531   6.264   4.440   1.641  0.8530  0.0039  0.2693
   14CHTO  C110 5532   6.212   4.647   1.652  0.4107  0.1148  0.0294
   14CHTO  H214 5533   6.156   4.713   1.718 -2.9882 -0.3232 -2.2706
   14CHTO   O78 5534   6.117   4.616   1.550 -0.1339  0.1152  0.2342
   14CHTO  H200 5535   6.166   4.585   1.476  1.9327  0.7933  1.3083
   14CHTO  C111 5536   6.337   4.715   1.584  0.4586  0.0747  1.1092
   14CHTO  H215 5537   6.356   4.658   1.492  0.9326 -0.0473  1.2818
   14CHTO   N19 5538   6.308   4.851   1.540 -0.1386 -0.7767  0.7011
   14CHTO  H207 5539   6.293   4.919   1.623 -1.8396  1.6635 -1.5312
   14CHTO  H208 5540   6.400   4.871   1.488 -0.2675 -1.0660  0.3601
   14CHTO   O74 5541   6.146   4.468   1.813  0.0863  0.2651  0.1419
   14CHTO  C115 5542   6.031   4.375   1.753  0.3672  0.1194 -0.2993
   14CHTO  H219 5543   6.031   4.378   1.644 -1.6048 -0.3617 -0.3395
   14CHTO   O76 5544   6.049   4.231   1.796  0.1861  0.6022  0.1403
   14CHTO  C122 5545   5.951   4.128   1.766 -0.2029 -0.5507  0.2834
   14CHTO  H226 5546   5.964   4.048   1.839  0.7770 -0.3417  0.3417
   14CHTO  C126 5547   5.979   4.069   1.627  0.5442 -0.0933 -0.1011
   14CHTO   O85 5548   6.095   3.979   1.648  0.5095 -0.1036 -0.2386
   14CHTO  H206 5549   6.138   3.971   1.565  2.8420 -0.1289  0.9408
   14CHTO  C121 5550   5.805   4.182   1.780 -0.0155  0.3515  0.3426
   14CHTO  H225 5551   5.745   4.113   1.716 -1.3324  1.4144  0.4015
   14CHTO   O81 5552   5.752   4.170   1.914 -0.4512  0.1413 -0.5537
   14CHTO  H202 5553   5.659   4.163   1.922 -0.4010 -0.6382 -0.6373
   14CHTO  C119 5554   5.785   4.329   1.728 -0.1523 -0.0183  0.0928
   14CHTO  H223 5555   5.809   4.338   1.622 -0.8425  1.5410  0.0583
   14CHTO  C117 5556   5.886   4.429   1.801 -0.1816 -0.0678  0.4231
   14CHTO  H221 5557   5.898   4.420   1.909  0.8409 -1.5290  0.2125
   14CHTO   N20 5558   5.866   4.573   1.765  0.0670  0.3361  0.7139
   14CHTO  H209 5559   5.777   4.621   1.804 -2.2055 -1.2598 -2.2786
   14CHTO  H210 5560   5.953   4.633   1.785 -1.3624  2.6383  0.2160
   14CHTO   O80 5561   5.638   4.375   1.727 -0.3278 -0.5318  0.3495
   14CHTO  C103 5562   5.589   4.497   1.610  0.4631 -0.4410  0.3645
   14CHTO  H190 5563   5.622   4.600   1.623 -0.0600 -0.1367 -0.7258
   14CHTO  C101 5564   5.620   4.462   1.456  0.2666 -0.1492 -0.1414
   14CHTO  H188 5565   5.572   4.367   1.432  0.2957 -0.4558  1.0083
   14CHTO   O68 5566   5.770   4.465   1.431 -0.2438 -0.6266  0.2233
   14CHTO  H168 5567   5.788   4.469   1.339 -3.2230  1.1271 -0.3463
   14CHTO   C99 5568   5.545   4.573   1.361 -0.5601  0.3202 -0.3089
   14CHTO  H186 5569   5.596   4.671   1.373  0.9725 -0.4153 -0.6219
   14CHTO   N17 5570   5.553   4.538   1.214  0.4008  0.2304 -0.0117
   14CHTO  H174 5571   5.476   4.463   1.200  0.7257 -0.4729  1.8636
   14CHTO  H175 5572   5.647   4.489   1.199 -0.0373 -0.2990 -1.1452
   14CHTO   C97 5573   5.396   4.594   1.406 -0.1630  0.3951 -0.4302
   14CHTO  H184 5574   5.344   4.503   1.371 -3.5232  2.8840 -2.1897
   14CHTO   O64 5575   5.387   4.612   1.545 -0.2182 -0.8640  0.1491
   14CHTO  C104 5576   5.436   4.504   1.626  0.8784  0.2084 -0.1485
   14CHTO  H191 5577   5.392   4.410   1.593 -0.4419  1.0672 -0.8971
   14CHTO  C108 5578   5.392   4.521   1.771 -0.6010 -0.6697  0.6688
   14CHTO   O71 5579   5.258   4.564   1.794  0.0900  0.2843  0.3458
   14CHTO  H171 5580   5.262   4.577   1.887  1.9624 -0.8115  0.4505
   14CHTO   O62 5581   5.331   4.703   1.334  0.4736 -0.1997 -0.2715
   14CHTO   C91 5582   5.190   4.710   1.359  0.1558 -0.1643 -0.0261
   14CHTO  H178 5583   5.148   4.620   1.403 -1.6230  0.8365  0.3721
   14CHTO   C92 5584   5.135   4.721   1.209  0.2397  0.5518  0.0364
   14CHTO  H179 5585   5.183   4.645   1.146  0.3125 -0.1693  0.9430
   14CHTO   O66 5586   4.992   4.680   1.215  0.0653  0.3366 -0.2992
   14CHTO  H166 5587   4.988   4.599   1.168  2.7477 -0.1861  0.2731
   14CHTO   C93 5588   5.150   4.867   1.150  0.3949 -0.5979 -0.7094
   14CHTO  H180 5589   5.092   4.886   1.059  0.0718  0.5246 -0.2778
   14CHTO   N16 5590   5.283   4.910   1.090  0.1279 -0.4959  0.1934
   14CHTO  H172 5591   5.360   4.913   1.165  0.5809 -0.9828 -0.2541
   14CHTO  H173 5592   5.280   5.003   1.036  0.3816 -0.4509  0.2558
   14CHTO   C94 5593   5.108   4.977   1.256  0.1171  0.3796 -0.0582
   14CHTO  H181 5594   5.193   5.033   1.294 -0.7325  1.3254  0.4535
   14CHTO   O61 5595   5.055   4.912   1.380  0.3046 -0.5360  0.6493
   14CHTO   C95 5596   5.146   4.829   1.445  0.6757  0.2267 -0.2826
   14CHTO  H182 5597   5.238   4.885   1.462  0.7548 -0.4797  1.7764
   14CHTO  C106 5598   5.085   4.789   1.581  0.3200  0.6876 -0.0240
   14CHTO   O69 5599   5.034   4.903   1.650 -0.2212  0.5061 -0.1113
   14CHTO  H169 5600   4.949   4.926   1.619 -0.7511  0.6989  1.4289
   14CHTO   O63 5601   4.981   5.072   1.192 -0.6594  0.0487 -0.3224
   14CHTO   C96 5602   4.969   5.196   1.264  0.1252  0.7260 -0.5897
   14CHTO  H183 5603   5.055   5.217   1.327 -0.8980 -1.3602  1.5755
   14CHTO   C98 5604   4.841   5.208   1.356  0.7367 -0.7226  0.1901
   14CHTO  H185 5605   4.753   5.180   1.295  0.2884  1.7428 -0.3944
   14CHTO   O67 5606   4.855   5.105   1.457  0.4925  0.2629  0.1327
   14CHTO  H167 5607   4.772   5.105   1.501  0.5101 -0.0048  0.1688
   14CHTO  C102 5608   4.825   5.344   1.422 -0.1950 -0.4575  0.2381
   14CHTO  H189 5609   4.910   5.353   1.490  0.5096 -0.1296 -0.6704
   14CHTO   N18 5610   4.704   5.368   1.507  0.8747 -0.2985 -0.5193
   14CHTO  H176 5611   4.661   5.270   1.525  0.4377  0.2204  1.3807
   14CHTO  H177 5612   4.628   5.417   1.448 -0.7895 -1.9533  0.2199
   14CHTO  C105 5613   4.846   5.459   1.318  0.1941 -0.1970  0.7804
   14CHTO  H192 5614   4.759   5.464   1.253  1.6155  0.4101 -1.1305
   14CHTO   O65 5615   4.963   5.436   1.231  0.0657 -0.2716 -0.5926
   14CHTO  C100 5616   4.970   5.314   1.158  0.2584 -0.1088 -0.0403
   14CHTO  H187 5617   4.880   5.305   1.094  0.7543  1.7472 -1.0379
   14CHTO  C107 5618   5.092   5.318   1.064 -0.5585  0.6456  0.0377
   14CHTO   O70 5619   5.223   5.326   1.132  0.2721 -0.0006 -0.0435
   14CHTO  H170 5620   5.216   5.340   1.225  3.2171  1.2154  0.0473
   14CHTO   O57 5621   4.864   5.597   1.397 -0.1378  0.1616  0.5751
   14CHTO   C85 5622   4.834   5.730   1.338 -0.2541 -0.8128  0.4488
   14CHTO  H157 5623   4.736   5.710   1.291  0.9249 -3.7555 -0.9068
   14CHTO   C83 5624   4.927   5.772   1.214 -0.0049 -0.9190 -0.6421
   14CHTO  H155 5625   4.900   5.715   1.125  1.0162 -0.3000 -1.3583
   14CHTO   O56 5626   5.058   5.716   1.245  0.2217  0.6423 -0.3073
   14CHTO  H135 5627   5.091   5.757   1.323  0.0438 -0.5968  0.4349
   14CHTO   C81 5628   4.928   5.924   1.175  0.0660  0.2103  0.7647
   14CHTO  H153 5629   4.834   5.949   1.125  0.3737  0.7649  0.4577
   14CHTO   N14 5630   5.029   5.953   1.064 -0.1334 -0.3575  0.0454
   14CHTO  H141 5631   4.969   5.936   0.977 -1.3358  2.6235  0.2405
   14CHTO  H142 5632   5.057   6.056   1.069 -0.9318 -0.1158 -0.3062
   14CHTO   C79 5633   4.943   6.009   1.307 -0.2327  0.1338 -0.1136
   14CHTO  H151 5634   4.927   6.114   1.281  2.3082  0.6542  0.3014
   14CHTO   O52 5635   4.833   5.978   1.401  0.1358  0.8932  0.4243
   14CHTO   C86 5636   4.829   5.842   1.450 -0.0211 -0.7935  0.2759
   14CHTO  H158 5637   4.920   5.827   1.512  0.0982  0.2064  0.3451
   14CHTO   C90 5638   4.713   5.812   1.555  0.2795 -0.0429  0.2009
   14CHTO   O60 5639   4.588   5.835   1.500 -0.0823  0.3556  0.0465
   14CHTO  H138 5640   4.570   5.927   1.492 -0.4695  0.3929  1.1529
   14CHTO   O50 5641   5.072   5.995   1.374  0.3508 -0.0270 -0.1132
   14CHTO   C73 5642   5.144   6.077   1.457 -0.3275  0.3810 -0.1936
   14CHTO  H145 5643   5.083   6.120   1.537 -1.2527  0.8123 -1.1231
   14CHTO   C74 5644   5.190   6.208   1.380 -0.0001  0.1780  0.4082
   14CHTO  H146 5645   5.096   6.250   1.340 -0.1880  0.1849  0.8575
   14CHTO   O54 5646   5.241   6.302   1.474  0.1807 -0.2304 -0.2859
   14CHTO  H133 5647   5.261   6.383   1.430  0.8298  0.4223  1.1739
   14CHTO   C75 5648   5.286   6.163   1.267 -0.2619  0.2544 -0.5938
   14CHTO  H147 5649   5.234   6.089   1.204 -0.1157 -1.0307  0.7857
   14CHTO   N13 5650   5.334   6.267   1.181 -0.2331 -0.5671  0.2069
   14CHTO  H139 5651   5.251   6.303   1.121 -0.6873 -0.0370  1.1483
   14CHTO  H140 5652   5.375   6.349   1.238  0.4103 -2.2722  2.2531
   14CHTO   C76 5653   5.409   6.103   1.344 -0.5712  0.3149  0.6508
   14CHTO  H148 5654   5.454   6.181   1.407  1.4621  0.2747 -0.6964
   14CHTO   O49 5655   5.367   5.978   1.418  0.7469 -0.0952  0.1754
   14CHTO   C77 5656   5.273   6.006   1.517  0.2877  0.0905  0.4366
   14CHTO  H149 5657   5.316   6.066   1.597  4.8534  0.1231 -1.8481
   14CHTO   C88 5658   5.233   5.874   1.575 -0.4081  0.5899 -0.2316
   14CHTO   O58 5659   5.129   5.892   1.674 -0.0457  0.4701 -0.2541
   14CHTO  H136 5660   5.089   5.808   1.686 -0.2832  0.3035 -2.1080
   14CHTO   O51 5661   5.516   6.028   1.219 -0.1151 -0.7883  0.0358
   14CHTO   C78 5662   5.654   6.060   1.229 -0.7262 -0.1745  0.2667
   14CHTO  H150 5663   5.675   6.095   1.332 -0.3595  1.0035 -0.2010
   14CHTO   C80 5664   5.698   6.162   1.122  0.5443 -0.3913 -0.5624
   14CHTO  H152 5665   5.652   6.131   1.026  1.6618 -1.6064 -0.7208
   14CHTO   O55 5666   5.656   6.284   1.178  0.3925  0.3703  0.1957
   14CHTO  H134 5667   5.680   6.305   1.267  2.0986 -0.9126  0.0500
   14CHTO   C84 5668   5.859   6.179   1.114  0.0323  1.0922 -0.5116
   14CHTO  H156 5669   5.895   6.221   1.208  0.7331  1.2786 -0.8655
   14CHTO   N15 5670   5.903   6.269   1.009  0.0548  0.6729 -0.4798
   14CHTO  H143 5671   6.008   6.275   1.027 -0.2037 -1.1818  1.9699
   14CHTO  H144 5672   5.863   6.368   1.009  0.6435  0.9220 -1.9137
   14CHTO   C87 5673   5.940   6.044   1.104 -0.1031 -0.3521  0.0788
   14CHTO  H159 5674   5.931   6.001   1.005  0.2980  0.7495 -0.4382
   14CHTO   O53 5675   5.872   5.936   1.207 -0.0454  0.3592 -0.0567
   14CHTO   C82 5676   5.729   5.927   1.202  0.2979 -0.1235 -0.0618
   14CHTO  H154 5677   5.703   5.889   1.104 -0.4255  1.7774 -0.6365
   14CHTO   C89 5678   5.682   5.824   1.310  0.7786  0.0436  0.1109
   14CHTO   O59 5679   5.709   5.863   1.443 -0.4255 -0.1223  0.2099
   14CHTO  H137 5680   5.700   5.956   1.441 -2.4595 -0.2738  0.7618
   14CHTO   O45 5681   6.090   6.072   1.143  0.0387  0.5764 -0.9166
   14CHTO   C67 5682   6.188   5.986   1.084 -0.5855 -0.0162  1.2282
   14CHTO  H124 5683   6.145   5.890   1.054  3.3356 -1.5327  0.0411
   14CHTO   C65 5684   6.245   6.052   0.954 -0.1993  0.0066  0.3037
   14CHTO  H122 5685   6.170   6.126   0.924 -1.2710 -1.5446 -0.9490
   14CHTO   O44 5686   6.270   5.957   0.852  0.2672 -0.3969 -0.0328
   14CHTO  H102 5687   6.190   5.920   0.818  1.1977 -1.4360 -1.1407
   14CHTO   C63 5688   6.364   6.156   0.978  0.3589  0.7566  0.4550
   14CHTO  H120 5689   6.333   6.224   1.058 -3.3611 -1.5519  1.1067
   14CHTO   N11 5690   6.402   6.239   0.860  0.2020  0.3505  0.2958
   14CHTO  H108 5691   6.335   6.321   0.843  2.1571  2.0965  0.7582
   14CHTO  H109 5692   6.494   6.292   0.877 -0.9020  1.5509  2.6766
   14CHTO   C61 5693   6.477   6.089   1.055  0.0749 -0.6383 -0.5817
   14CHTO  H118 5694   6.538   6.175   1.086 -0.9174  0.1828 -0.8663
   14CHTO   O40 5695   6.424   6.029   1.178 -0.8784 -0.2210  0.2483
   14CHTO   C68 5696   6.308   5.951   1.193  0.1944 -0.4615  0.3144
   14CHTO  H125 5697   6.266   5.984   1.290  0.0530 -0.8895  0.3978
   14CHTO   C72 5698   6.349   5.803   1.208  0.4038 -0.2406  0.2016
   14CHTO   O48 5699   6.426   5.769   1.328  0.1808 -0.4909 -0.3732
   14CHTO  H105 5700   6.516   5.793   1.315  0.7696 -1.9038  0.9430
   14CHTO   O38 5701   6.546   5.995   0.987  0.0965  0.2671  0.7844
   14CHTO   C55 5702   6.667   6.016   0.917  0.3250 -0.2951 -0.1905
   14CHTO  H112 5703   6.696   6.122   0.912  1.1067 -0.5071 -0.2476
   14CHTO   C56 5704   6.659   5.950   0.771 -0.4246 -0.1802 -0.1852
   14CHTO  H113 5705   6.624   5.847   0.787 -0.7145 -0.1001 -0.2950
   14CHTO   O42 5706   6.555   6.007   0.689 -0.5179 -0.4116 -0.4838
   14CHTO  H100 5707   6.507   6.069   0.742  0.3378  1.1859 -1.5393
   14CHTO   C57 5708   6.807   5.939   0.711 -0.2183  0.3954 -0.0518
   14CHTO  H114 5709   6.830   6.038   0.673 -1.1994  0.0511 -1.6142
   14CHTO   N10 5710   6.822   5.859   0.586 -0.5398 -0.5890 -0.0321
   14CHTO  H106 5711   6.734   5.798   0.575 -0.6704 -0.3370 -0.3800
   14CHTO  H107 5712   6.850   5.916   0.498 -1.1663 -0.8972 -0.4349
   14CHTO   C58 5713   6.912   5.891   0.810 -0.0592 -0.1828 -0.8001
   14CHTO  H115 5714   6.901   5.783   0.833  2.8395 -0.3311  0.1616
   14CHTO   O37 5715   6.910   5.963   0.932 -0.0201  0.2541  0.2821
   14CHTO   C59 5716   6.786   5.947   1.004  0.1851  0.5893  0.3283
   14CHTO  H116 5717   6.758   5.844   1.026 -0.1900  0.4855 -0.6103
   14CHTO   C70 5718   6.808   6.026   1.133 -1.1064 -0.8119  0.5844
   14CHTO   O46 5719   6.805   6.172   1.117  0.5158 -0.1484  0.5406
   14CHTO  H103 5720   6.719   6.188   1.083  0.8179  0.8461  0.2182
   14CHTO   O39 5721   7.066   5.923   0.750 -0.9221  0.6260 -0.0466
   14CHTO   C60 5722   7.178   5.873   0.833  0.2171  0.2841 -0.6025
   14CHTO  H117 5723   7.183   5.935   0.923 -2.7076  1.4015 -1.1529
   14CHTO   C62 5724   7.163   5.723   0.860  0.0154  0.4279  0.3372
   14CHTO  H119 5725   7.077   5.720   0.930 -1.6170  1.5531 -1.5553
   14CHTO   O43 5726   7.140   5.646   0.736 -0.4301  0.0812 -0.2420
   14CHTO  H101 5727   7.128   5.559   0.768 -0.9946  0.8296  1.6237
   14CHTO   C66 5728   7.300   5.664   0.933 -0.6964 -0.3257  0.4766
   14CHTO  H123 5729   7.322   5.717   1.025  0.6129 -0.5020  0.2668
   14CHTO   N12 5730   7.274   5.526   0.975 -0.2498  0.0714 -0.3737
   14CHTO  H110 5731   7.201   5.518   1.054 -0.4661 -0.7962 -0.6614
   14CHTO  H111 5732   7.363   5.470   0.999 -0.4608  0.0773  0.4103
   14CHTO   C69 5733   7.423   5.690   0.835 -0.2439  0.0434  0.1358
   14CHTO  H126 5734   7.397   5.637   0.741  0.4458  0.0165 -0.0365
   14CHTO   O41 5735   7.441   5.837   0.812 -0.7075  0.6980  0.2812
   14CHTO   C64 5736   7.304   5.907   0.749 -0.5421 -1.0241 -0.0911
   14CHTO  H121 5737   7.282   5.870   0.647  1.2929  2.2269 -1.7596
   14CHTO   C71 5738   7.324   6.057   0.742  0.2588 -0.7521 -0.4649
   14CHTO   O47 5739   7.432   6.089   0.656 -0.6374 -0.1989  0.4198
   14CHTO  H104 5740   7.409   6.086   0.565  1.3575 -0.3594 -0.0974
   14CHTO   O34 5741   7.549   5.629   0.898  0.1070  0.8295  0.1226
   14CHTO   C49 5742   7.696   5.620   0.866  0.3525  0.2401 -0.1365
   14CHTO   H91 5743   7.715   5.533   0.803  1.8691 -0.6515  1.5200
   14CHTO   C47 5744   7.787   5.600   0.990  0.0640  0.7993 -0.7082
   14CHTO   H89 5745   7.893   5.603   0.958  0.1253 -0.7323 -0.6613
   14CHTO   O33 5746   7.763   5.475   1.052 -0.4069 -0.3197  0.1407
   14CHTO   H70 5747   7.782   5.404   0.994 -0.7430 -1.1516  1.0323
   14CHTO   C45 5748   7.760   5.730   1.097  0.4823  0.0710  0.1388
   14CHTO   H87 5749   7.667   5.713   1.153  1.4411 -0.3264  1.6623
   14CHTO    N8 5750   7.867   5.738   1.195 -0.0410  0.0771  0.0329
   14CHTO   H75 5751   7.942   5.793   1.139  0.3311  1.1644  1.5800
   14CHTO   H76 5752   7.825   5.802   1.271 -2.3754 -1.2818 -0.0809
   14CHTO   C43 5753   7.720   5.859   1.021  0.2024  0.1585 -0.0797
   14CHTO   H85 5754   7.611   5.858   1.013  0.2947 -3.6599 -1.8996
   14CHTO   O29 5755   7.779   5.853   0.890  0.1349  0.5219  0.1762
   14CHTO   C50 5756   7.744   5.746   0.800  0.3336 -0.5319  0.3642
   14CHTO   H92 5757   7.671   5.791   0.730 -0.1214 -1.1973  0.4131
   14CHTO   C54 5758   7.869   5.721   0.718  0.5855 -0.2793  0.2072
   14CHTO   O36 5759   7.900   5.833   0.633  0.6967 -0.0125  0.5282
   14CHTO   H72 5760   7.975   5.819   0.578  1.2044  3.3605  0.2342
   14CHTO   O27 5761   7.734   5.978   1.096 -0.3864 -0.0268 -0.1633
   14CHTO   C37 5762   7.647   6.079   1.147  0.3942 -0.8576  0.2570
   14CHTO   H79 5763   7.704   6.158   1.199  0.4519  1.1604 -2.7451
   14CHTO   C38 5764   7.576   6.146   1.026  0.9451 -0.1861 -0.6697
   14CHTO   H80 5765   7.510   6.077   0.972 -1.0557  1.5496 -0.5362
   14CHTO   O31 5766   7.672   6.206   0.937 -0.2226 -0.6412  0.4639
   14CHTO   H68 5767   7.627   6.192   0.856 -1.6152 -0.4747  1.1968
   14CHTO   C39 5768   7.480   6.261   1.088  0.6933  0.0544 -0.8442
   14CHTO   H81 5769   7.547   6.337   1.126 -0.8819  1.8859 -1.6419
   14CHTO    N7 5770   7.395   6.330   0.986 -0.3565 -0.3658 -0.0615
   14CHTO   H73 5771   7.294   6.353   1.018 -0.8496 -2.2143 -0.2446
   14CHTO   H74 5772   7.448   6.411   0.938  0.8425 -1.5946 -0.8324
   14CHTO   C40 5773   7.385   6.197   1.203  0.4872  0.3161  0.0410
   14CHTO   H82 5774   7.305   6.139   1.159 -1.0049  2.6394 -0.3972
   14CHTO   O26 5775   7.457   6.120   1.304 -0.3499 -0.4096 -0.5562
   14CHTO   C41 5776   7.556   6.019   1.255  0.7619  0.2347 -0.5033
   14CHTO   H83 5777   7.494   5.941   1.209 -0.3791  0.0228  1.3401
   14CHTO   C52 5778   7.636   5.974   1.382  0.9588  0.7865 -0.3316
   14CHTO   O35 5779   7.692   6.087   1.452  0.2077 -0.6125  0.0336
   14CHTO   H71 5780   7.639   6.164   1.446  1.0282 -0.1228 -1.0263
   14CHTO   O28 5781   7.325   6.303   1.285  0.3720  0.7170  0.1030
   14CHTO   C42 5782   7.203   6.282   1.365  0.7448 -0.2099  0.0133
   14CHTO   H84 5783   7.208   6.359   1.442 -1.6990 -0.7947  0.7887
   14CHTO   C44 5784   7.173   6.153   1.447  0.6043  1.4112 -0.5058
   14CHTO   H86 5785   7.143   6.078   1.374  1.8270 -0.1947  0.6233
   14CHTO   O32 5786   7.290   6.128   1.517 -0.2407 -0.6152 -0.2897
   14CHTO   H69 5787   7.271   6.057   1.576 -0.4700 -1.1914 -1.0424
   14CHTO   C48 5788   7.048   6.162   1.547 -0.6668 -0.0226  0.1843
   14CHTO   H90 5789   7.070   6.241   1.619  0.6495 -0.3443  0.1567
   14CHTO    N9 5790   7.041   6.030   1.620  0.2300  0.3665  0.8322
   14CHTO   H77 5791   7.034   5.936   1.566 -0.4303 -0.1341  1.7783
   14CHTO   H78 5792   6.955   6.027   1.685  0.7098 -0.5415  1.4327
   14CHTO   C51 5793   6.927   6.193   1.451 -0.3018 -0.3610  0.1707
   14CHTO   H93 5794   6.911   6.115   1.377  1.5418  0.3109 -0.9843
   14CHTO   O30 5795   6.952   6.318   1.387 -0.9783 -0.5631  0.5594
   14CHTO   C46 5796   7.072   6.317   1.286  0.0166 -0.1583 -0.1505
   14CHTO   H88 5797   7.062   6.242   1.208  0.4659 -0.4318  0.0487
   14CHTO   C53 5798   7.085   6.461   1.230 -0.2588  0.6932 -0.0232
   14CHTO   O72 5799   6.975   6.496   1.145  0.4859  0.8057 -0.0008
   14CHTO  H199 5800   6.977   6.590   1.151 -1.3473  0.9270 -0.8762
   14CHTO   O22 5801   6.813   6.206   1.529  0.3112  0.2260  0.0010
   14CHTO   C31 5802   6.682   6.167   1.482  0.8965 -0.1119 -0.3241
   14CHTO   H59 5803   6.694   6.136   1.376 -1.0343  1.8609 -1.1369
   14CHTO   C29 5804   6.616   6.047   1.562  0.0464  0.5447 -0.1432
   14CHTO   H57 5805   6.635   6.060   1.670 -0.3156 -0.0689 -0.0001
   14CHTO   O21 5806   6.686   5.922   1.536 -0.2741  0.2097  0.1851
   14CHTO   H37 5807   6.663   5.888   1.452  0.5406 -3.3748  1.3305
   14CHTO   C27 5808   6.457   6.028   1.541 -0.1793 -0.2898  0.0586
   14CHTO   H55 5809   6.439   5.986   1.441  0.4864  1.6121 -0.8804
   14CHTO    N5 5810   6.387   5.944   1.644  0.3460 -0.1076  0.1082
   14CHTO   H43 5811   6.283   5.956   1.620  0.7704  1.9208 -0.8511
   14CHTO   H44 5812   6.417   5.987   1.738 -0.9540 -0.6850  0.7820
   14CHTO   C25 5813   6.390   6.167   1.541  0.1880 -0.4632  0.8205
   14CHTO   H53 5814   6.396   6.217   1.639  1.1034 -0.2124  0.6400
   14CHTO   O17 5815   6.460   6.254   1.448  0.3969  0.2326  0.0935
   14CHTO   C32 5816   6.593   6.289   1.477  0.0204 -1.0217  0.4148
   14CHTO   H60 5817   6.589   6.337   1.575 -1.3504  1.4666 -0.7926
   14CHTO   C36 5818   6.639   6.405   1.377  0.2775 -0.3092 -0.6086
   14CHTO   O25 5819   6.636   6.352   1.247  0.5253 -0.0702 -0.1989
   14CHTO   H40 5820   6.610   6.424   1.193  1.2499  2.0308  2.1183
   14CHTO   O15 5821   6.245   6.164   1.491  0.4569 -0.1436  0.0988
   14CHTO   C19 5822   6.109   6.213   1.470 -0.4755  0.2373  0.1856
   14CHTO   H47 5823   6.088   6.181   1.367  1.0305  1.6177 -0.5628
   14CHTO   C20 5824   6.001   6.158   1.565 -0.2446  0.4875  0.5790
   14CHTO   H48 5825   6.021   6.180   1.671  2.3922  0.0725  0.1827
   14CHTO   O19 5826   6.008   6.014   1.553  0.1348 -0.2650  0.6840
   14CHTO   H35 5827   6.002   5.974   1.637  1.3202  1.6366  1.7190
   14CHTO   C21 5828   5.855   6.215   1.527  0.2594  0.5367 -0.4449
   14CHTO   H49 5829   5.825   6.179   1.428 -0.8019  0.1300  0.0076
   14CHTO    N4 5830   5.756   6.177   1.627 -0.1992  0.3628 -0.1601
   14CHTO   H41 5831   5.782   6.143   1.726  1.6166  1.9585 -0.0694
   14CHTO   H42 5832   5.661   6.229   1.633 -0.6376 -0.3591 -0.6883
   14CHTO   C22 5833   5.874   6.373   1.522  0.2864  0.1801 -0.2050
   14CHTO   H50 5834   5.903   6.408   1.621 -1.7660 -0.6598  0.7192
   14CHTO   O14 5835   5.968   6.401   1.416 -0.0291 -0.4770 -0.1881
   14CHTO   C23 5836   6.099   6.372   1.463  0.0938  0.5599  0.1915
   14CHTO   H51 5837   6.119   6.419   1.561  1.0473  1.6346 -0.4969
   14CHTO   C34 5838   6.190   6.443   1.365  0.0404 -0.1832 -0.6210
   14CHTO   O23 5839   6.195   6.380   1.235  0.0759 -0.2048 -0.6586
   14CHTO   H38 5840   6.111   6.372   1.196 -0.6358  1.8937  0.3437
   14CHTO   O16 5841   5.753   6.440   1.479  0.5106 -0.0582 -0.4508
   14CHTO   C24 5842   5.739   6.611   1.491  0.9296  0.0696  0.2499
   14CHTO   H52 5843   5.733   6.657   1.392 -2.2022 -0.3092  0.2190
   14CHTO   C26 5844   5.850   6.687   1.568  0.7451  0.3728 -0.6018
   14CHTO   H54 5845   5.859   6.641   1.668 -0.7777  0.3991 -0.4413
   14CHTO   O20 5846   5.971   6.664   1.495 -0.1321  0.6357 -0.0461
   14CHTO   H36 5847   6.042   6.624   1.540  0.6166  0.5265 -1.2895
   14CHTO   C30 5848   5.812   6.839   1.576 -0.3171 -1.0261  0.1529
   14CHTO   H58 5849   5.817   6.893   1.480 -1.1532  0.8665  1.1512
   14CHTO    N6 5850   5.919   6.911   1.654 -0.2924 -0.0197  0.8235
   14CHTO   H45 5851   5.878   7.001   1.698 -1.8029 -1.3006  2.1208
   14CHTO   H46 5852   5.943   6.838   1.730 -1.3194 -2.1277 -0.8038
   14CHTO   C33 5853   5.677   6.855   1.641 -0.1978  0.2932  0.2449
   14CHTO   H61 5854   5.680   6.822   1.746  2.3579 -0.7241 -0.1029
   14CHTO   O18 5855   5.583   6.774   1.574  0.4520 -0.2213  0.6036
   14CHTO   C28 5856   5.595   6.633   1.554  0.1455  0.0310  0.0560
   14CHTO   H56 5857   5.586   6.584   1.651  1.8416  2.3962  1.4365
   14CHTO   C35 5858   5.483   6.588   1.450 -0.1874 -0.2404 -0.3094
   14CHTO   O24 5859   5.488   6.667   1.328  0.8037  0.5731 -0.5295
   14CHTO   H39 5860   5.455   6.602   1.269  1.6357  1.0678 -1.5406
   14CHTO    O9 5861   5.639   6.996   1.648  0.2892 -0.2445 -0.0482
   14CHTO   C13 5862   5.532   7.048   1.782  0.2071 -0.2403 -0.3297
   14CHTO   H26 5863   5.575   7.011   1.877  0.2569 -0.4604 -0.4375
   14CHTO   C11 5864   5.387   6.985   1.751 -0.0170  0.2811 -0.1780
   14CHTO   H24 5865   5.384   6.876   1.769 -3.9358  0.3616  0.1583
   14CHTO    O8 5866   5.363   7.008   1.608 -0.2336 -0.6450  0.6368
   14CHTO    H3 5867   5.287   6.964   1.574  0.5557  0.1990 -2.3493
   14CHTO    C9 5868   5.277   7.047   1.843  0.5505  0.4234 -0.3958
   14CHTO   H22 5869   5.293   7.002   1.942 -1.4055  0.2928 -0.1148
   14CHTO    N2 5870   5.143   6.998   1.812  0.3206 -0.3192  0.2249
   14CHTO   H10 5871   5.118   6.905   1.862  0.2642 -1.4525 -1.8618
   14CHTO   H11 5872   5.061   7.061   1.844  2.1734  2.5166 -0.4155
   14CHTO    C7 5873   5.292   7.204   1.849  0.0409  0.1637  0.3759
   14CHTO   H20 5874   5.318   7.225   1.955  0.4922  1.1347  0.0776
   14CHTO    O4 5875   5.395   7.251   1.760 -0.1361 -0.4669  0.2029
   14CHTO   C14 5876   5.525   7.204   1.783  0.4181 -0.8055  0.1730
   14CHTO   H27 5877   5.559   7.250   1.879 -0.1312 -2.3974  1.1586
   14CHTO   C18 5878   5.604   7.281   1.669 -0.0715  0.2625  0.3202
   14CHTO   O13 5879   5.615   7.420   1.704 -0.6356  0.1286 -0.6034
   14CHTO    H7 5880   5.538   7.452   1.747 -0.2101 -2.8629  2.6144
   14CHTO    O2 5881   5.140   7.295   1.817  0.5151  0.1936 -0.2480
   14CHTO    C1 5882   5.132   7.438   1.839  0.3921  0.2892  0.2770
   14CHTO   H14 5883   5.043   7.487   1.796  0.1029  0.9696  1.6368
   14CHTO    C2 5884   5.271   7.514   1.795  0.0880  0.3462  0.4529
   14CHTO   H15 5885   5.357   7.465   1.841  0.7150 -0.3232 -1.4055
   14CHTO    O6 5886   5.272   7.506   1.649 -0.0335 -0.3485 -0.2405
   14CHTO    H1 5887   5.270   7.415   1.626 -1.1752  0.1333 -2.1867
   14CHTO    C3 5888   5.270   7.671   1.835 -1.0692 -0.0733  0.7702
   14CHTO   H16 5889   5.192   7.715   1.771  0.8287  0.5442 -1.1992
   14CHTO    N1 5890   5.398   7.738   1.808  0.2085 -0.5923 -0.1590
   14CHTO    H8 5891   5.479   7.673   1.837  0.4804 -1.6632 -3.1464
   14CHTO    H9 5892   5.397   7.829   1.867  0.4200 -0.3292 -0.5574
   14CHTO    C4 5893   5.219   7.683   1.983  0.4247 -0.6709 -0.1818
   14CHTO   H17 5894   5.293   7.647   2.055 -1.5302  0.3605  2.4389
   14CHTO    O1 5895   5.097   7.608   2.008 -0.1755 -0.5082  0.6136
   14CHTO    C5 5896   5.102   7.463   1.987  0.0460 -0.3277 -0.9414
   14CHTO   H18 5897   5.178   7.419   2.051 -1.8058  0.4414  1.8592
   14CHTO   C16 5898   4.959   7.410   2.030  0.2416  0.6728 -0.2660
   14CHTO   O11 5899   4.931   7.392   2.165  0.1468  0.1635 -0.5874
   14CHTO    H5 5900   4.981   7.324   2.207  0.1292 -0.6593 -1.8584
   14CHTO    O3 5901   5.181   7.824   2.003  0.2852 -0.0280 -0.3879
   14CHTO    C6 5902   5.185   7.865   2.140 -0.0963 -0.8496  0.1318
   14CHTO   H19 5903   5.197   7.784   2.212  3.9578 -0.3275  0.1903
   14CHTO    C8 5904   5.312   7.952   2.165  0.3311  0.2709  0.1155
   14CHTO   H21 5905   5.311   8.042   2.104  0.9336  0.5772  0.5494
   14CHTO    O7 5906   5.429   7.884   2.125  0.5698  0.2826 -0.2253
   14CHTO    H2 5907   5.501   7.931   2.163  0.2204  0.4354  0.2625
   14CHTO   C12 5908   5.309   7.995   2.320  0.3703  0.4215 -0.3088
   14CHTO   H25 5909   5.326   7.901   2.375  1.7050  0.2354 -1.0183
   14CHTO    N3 5910   5.429   8.082   2.357 -0.3117  0.0581 -0.6932
   14CHTO   H12 5911   5.409   8.112   2.458  1.8363  0.9939 -0.5218
   14CHTO   H13 5912   5.420   8.173   2.300 -0.2078  0.6000  0.1430
   14CHTO   C15 5913   5.173   8.062   2.362  0.2373  0.3144 -0.0746
   14CHTO   H28 5914   5.177   8.167   2.336  2.0863  0.3703  0.3284
   14CHTO   O10 5915   5.155   8.063   2.536  0.2563 -0.0699  0.2533
   14CHTO    H4 5916   5.223   8.017   2.581  1.9500  1.0561 -1.0712
   14CHTO    O5 5917   5.060   7.987   2.321 -0.4264  0.2153  0.6174
   14CHTO   C10 5918   5.057   7.946   2.181 -0.2795  0.0990  0.2304
   14CHTO   H23 5919   5.059   8.034   2.115  0.9606 -0.5379 -0.5963
   14CHTO   C17 5920   4.938   7.852   2.154 -0.2007  0.3011 -0.0021
   14CHTO   O12 5921   4.820   7.901   2.216  0.5663  0.0095  0.5812
   14CHTO    H6 5922   4.793   7.972   2.161 -1.7930 -0.9830  0.4326
   15CHTO  H203 5923   7.648   5.058   1.605  0.5224 -0.4379  0.9511
   15CHTO   O82 5924   7.627   4.981   1.655  0.2779 -0.8059  0.2858
   15CHTO  C123 5925   7.572   4.881   1.576 -0.7302 -0.5559  0.5839
   15CHTO  H227 5926   7.582   4.784   1.627  0.1345 -0.3271  0.8630
   15CHTO   O77 5927   7.432   4.923   1.566 -0.0290  0.0393  0.2375
   15CHTO  C118 5928   7.349   4.840   1.481 -0.4884 -0.4706  0.4233
   15CHTO  H222 5929   7.334   4.739   1.522 -0.2652 -0.5781  0.2335
   15CHTO  C125 5930   7.210   4.916   1.489 -0.6370 -0.0678 -0.3318
   15CHTO   O84 5931   7.157   4.945   1.621 -0.2369 -0.1542  0.1896
   15CHTO  H205 5932   7.208   4.888   1.676  2.0000  0.5299 -1.0991
   15CHTO  C114 5933   7.400   4.834   1.334 -0.8855 -0.4820  0.4642
   15CHTO  H218 5934   7.397   4.936   1.295 -0.1756 -0.6967 -0.1669
   15CHTO  C116 5935   7.555   4.791   1.328 -0.3554 -0.6296 -0.5991
   15CHTO  H220 5936   7.570   4.682   1.345 -1.8087 -1.0972 -2.1465
   15CHTO   O79 5937   7.600   4.811   1.189 -0.6583 -0.1399  0.2640
   15CHTO  H201 5938   7.630   4.730   1.152 -0.7270 -0.1351  0.1990
   15CHTO  C120 5939   7.643   4.875   1.432 -0.0051  0.0340 -0.3501
   15CHTO  H224 5940   7.652   4.977   1.389 -0.1203 -0.0478 -0.5671
   15CHTO   N21 5941   7.780   4.822   1.430 -0.3727  0.2414 -0.2364
   15CHTO  H211 5942   7.776   4.716   1.414  0.1784  0.5058 -2.2226
   15CHTO  H212 5943   7.850   4.867   1.361 -0.5224  0.4369 -0.2610
   15CHTO   O75 5944   7.304   4.758   1.259  0.2014 -0.2178 -0.3457
   15CHTO  C112 5945   7.305   4.588   1.286 -0.3642  0.5133 -0.8375
   15CHTO  H216 5946   7.295   4.575   1.395  1.2894 -0.8183 -0.8263
   15CHTO   O73 5947   7.423   4.528   1.233 -0.0722  1.1904  0.1975
   15CHTO  C113 5948   7.428   4.385   1.212  0.1957  0.1437 -0.3073
   15CHTO  H217 5949   7.421   4.341   1.313  0.0586  0.0049 -0.3770
   15CHTO  C124 5950   7.564   4.369   1.157 -0.3190  0.3093  0.3734
   15CHTO   O83 5951   7.666   4.372   1.261  0.0645  0.7082 -0.6358
   15CHTO  H204 5952   7.663   4.459   1.298 -1.0515  0.0618  0.8254
   15CHTO  C109 5953   7.311   4.331   1.130 -0.9255 -0.2708  0.0605
   15CHTO  H213 5954   7.320   4.370   1.028  2.1973 -0.2902  0.2823
   15CHTO  C110 5955   7.180   4.375   1.204  0.3701  0.0493  0.2642
   15CHTO  H214 5956   7.173   4.327   1.302 -1.1642  0.6692  0.4748
   15CHTO   O78 5957   7.071   4.337   1.118  0.0929 -0.4495 -0.1313
   15CHTO  H200 5958   6.988   4.367   1.148  0.6693  2.6300 -1.4580
   15CHTO  C111 5959   7.172   4.532   1.222 -0.4808 -0.0560 -0.0255
   15CHTO  H215 5960   7.163   4.579   1.123  0.0729 -1.1853 -0.6133
   15CHTO   N19 5961   7.051   4.579   1.300  0.0890  0.2196 -0.4140
   15CHTO  H207 5962   6.968   4.528   1.253  2.2669 -2.1100 -1.8189
   15CHTO  H208 5963   7.041   4.686   1.295 -0.2649  0.3396  2.0620
   15CHTO   O74 5964   7.312   4.184   1.124 -0.1847  0.2285 -0.1792
   15CHTO  C115 5965   7.302   4.131   0.972  0.4337  0.1992 -0.5148
   15CHTO  H219 5966   7.219   4.181   0.923 -0.8821 -0.4539  0.9796
   15CHTO   O76 5967   7.427   4.166   0.889  0.6428  0.2556 -0.2866
   15CHTO  C122 5968   7.495   4.052   0.848  0.0367 -0.9229 -0.4107
   15CHTO  H226 5969   7.533   4.017   0.944 -0.7506 -1.5381 -0.3113
   15CHTO  C126 5970   7.615   4.099   0.760  0.5249  0.5698  0.6767
   15CHTO   O85 5971   7.718   4.001   0.742 -0.7755  0.0478  0.5053
   15CHTO  H206 5972   7.752   3.966   0.822  1.0638  0.3871 -0.1130
   15CHTO  C121 5973   7.403   3.954   0.768 -0.5053  0.1249 -0.1778
   15CHTO  H225 5974   7.383   3.994   0.666 -1.6081  0.8303  0.3065
   15CHTO   O81 5975   7.476   3.828   0.758  0.4694  0.0976  0.5270
   15CHTO  H202 5976   7.475   3.782   0.840 -0.4730  0.4007  0.6939
   15CHTO  C119 5977   7.267   3.923   0.834 -0.0153  0.4208  0.7285
   15CHTO  H223 5978   7.198   3.979   0.771  3.8263 -0.3629 -4.5551
   15CHTO  C117 5979   7.267   3.980   0.978  0.2580 -0.0252 -0.5677
   15CHTO  H221 5980   7.337   3.934   1.048 -0.4053 -0.1424  0.0212
   15CHTO   N20 5981   7.128   3.956   1.043  0.2484  0.5218  0.8935
   15CHTO  H209 5982   7.136   3.989   1.145  0.2796 -0.6235  1.2603
   15CHTO  H210 5983   7.057   4.026   1.000 -1.8380 -1.0588  1.6869
   15CHTO   O80 5984   7.218   3.753   0.801 -0.2281 -1.0935 -0.2304
   15CHTO  C103 5985   7.088   3.727   0.763 -0.6047 -0.4346 -0.5755
   15CHTO  H190 5986   7.022   3.785   0.828 -0.8724 -0.4731 -0.8137
   15CHTO  C101 5987   7.051   3.751   0.611  0.0572  0.1542  0.2213
   15CHTO  H188 5988   7.128   3.710   0.546 -1.5397 -0.5918 -1.2509
   15CHTO   O68 5989   7.047   3.900   0.585  0.2367  0.3498 -0.5999
   15CHTO  H168 5990   7.019   3.917   0.497  0.9238  1.6461 -0.5824
   15CHTO   C99 5991   6.907   3.682   0.582  0.6194 -1.0346  0.3754
   15CHTO  H186 5992   6.827   3.731   0.640 -0.3524 -0.3965 -1.4569
   15CHTO   N17 5993   6.862   3.697   0.437 -0.2255  0.1666 -0.0721
   15CHTO  H174 5994   6.823   3.601   0.404  1.2629 -0.9162  1.2875
   15CHTO  H175 5995   6.789   3.776   0.429 -0.2233  0.1638 -0.1173
   15CHTO   C97 5996   6.904   3.539   0.635 -0.6492 -0.1309  0.0585
   15CHTO  H184 5997   6.985   3.489   0.580  0.5202 -0.8608  2.3623
   15CHTO   O64 5998   6.930   3.534   0.776  0.2568  0.0366 -0.1538
   15CHTO  C104 5999   7.068   3.575   0.807 -0.7461 -0.5203  0.4663
   15CHTO  H191 6000   7.149   3.520   0.757 -0.1508  1.0225 -0.2977
   15CHTO  C108 6001   7.080   3.553   0.960  0.1400  0.1370 -0.3034
   15CHTO   O71 6002   6.989   3.634   1.039  0.5192  0.2967  0.2311
   15CHTO  H171 6003   6.917   3.671   0.993 -0.0146 -1.2232 -0.1954
   15CHTO   O62 6004   6.784   3.466   0.637  0.0432  0.3915 -0.3640
   15CHTO   C91 6005   6.748   3.378   0.529 -0.2405 -0.1147  0.1150
   15CHTO  H178 6006   6.773   3.437   0.441 -2.0822  0.1283 -0.2533
   15CHTO   C92 6007   6.590   3.356   0.525 -0.9298 -0.3642  0.3962
   15CHTO  H179 6008   6.530   3.448   0.523 -0.3919 -0.0107  0.4086
   15CHTO   O66 6009   6.554   3.311   0.391  0.2259  0.2807  0.4219
   15CHTO  H166 6010   6.525   3.384   0.339 -0.8940 -0.0157  0.6160
   15CHTO   C93 6011   6.538   3.256   0.626 -0.1440  0.1389  0.5457
   15CHTO  H180 6012   6.440   3.225   0.586  0.2874  1.9615 -2.0033
   15CHTO   N16 6013   6.506   3.307   0.765  0.2375 -0.3108 -0.4372
   15CHTO  H172 6014   6.402   3.305   0.793  0.5090 -0.4128  0.5793
   15CHTO  H173 6015   6.539   3.410   0.769 -1.0214  0.0917  0.1111
   15CHTO   C94 6016   6.637   3.128   0.639 -0.4879 -0.7284 -0.3208
   15CHTO  H181 6017   6.690   3.121   0.734 -0.2160  0.0451 -0.4078
   15CHTO   O61 6018   6.731   3.123   0.537  0.1866 -0.4621  0.1008
   15CHTO   C95 6019   6.823   3.232   0.528 -0.5534  0.6178 -0.9490
   15CHTO  H182 6020   6.901   3.223   0.604  2.0028  2.4313 -3.2507
   15CHTO  C106 6021   6.890   3.209   0.390 -0.0645 -0.1244  0.9100
   15CHTO   O69 6022   6.968   3.093   0.392 -0.0470  0.5438 -0.8495
   15CHTO  H169 6023   7.021   3.088   0.314 -0.6348  1.4269 -1.3164
   15CHTO   O63 6024   6.543   2.999   0.619 -0.0389 -0.5988 -0.4925
   15CHTO   C96 6025   6.586   2.872   0.692  0.4435 -0.3285 -0.5054
   15CHTO  H183 6026   6.628   2.902   0.788 -0.7107 -0.6839  0.1125
   15CHTO   C98 6027   6.684   2.788   0.618  0.1695  0.5714 -0.1050
   15CHTO  H185 6028   6.653   2.778   0.513 -0.0119  2.3946 -0.2365
   15CHTO   O67 6029   6.814   2.852   0.614  0.2019 -0.4386  0.3188
   15CHTO  H167 6030   6.883   2.793   0.589  0.7664  0.7582 -1.0229
   15CHTO  C102 6031   6.698   2.647   0.677  0.2617 -0.1291  0.3169
   15CHTO  H189 6032   6.742   2.666   0.776 -0.8347  0.3392  0.7247
   15CHTO   N18 6033   6.796   2.563   0.603 -0.1595 -0.4782  0.3676
   15CHTO  H176 6034   6.894   2.599   0.632  0.2863 -1.0423 -0.4506
   15CHTO  H177 6035   6.780   2.581   0.498  0.4622  0.1467  0.3712
   15CHTO  C105 6036   6.551   2.589   0.686 -0.3114 -0.0415  0.3783
   15CHTO  H192 6037   6.497   2.595   0.591 -0.3555 -0.6753  0.3615
   15CHTO   O65 6038   6.466   2.663   0.771  0.1542  0.0329 -0.2546
   15CHTO  C100 6039   6.444   2.795   0.718  0.1273 -1.2454  0.7743
   15CHTO  H187 6040   6.385   2.785   0.626  0.5599  1.0672  0.2108
   15CHTO  C107 6041   6.359   2.864   0.819 -0.7746 -0.2483  0.7818
   15CHTO   O70 6042   6.419   2.888   0.948  0.2900  0.1790  0.2549
   15CHTO  H170 6043   6.414   2.978   0.972 -0.4927  0.4912 -1.0569
   15CHTO   O57 6044   6.561   2.422   0.715 -0.2087 -0.1265 -0.5057
   15CHTO   C85 6045   6.582   2.368   0.846  0.7124 -0.3831  0.0728
   15CHTO  H157 6046   6.609   2.448   0.917 -0.1277  0.0342 -0.0771
   15CHTO   C83 6047   6.702   2.270   0.840  0.3821 -0.8449 -0.2329
   15CHTO  H155 6048   6.788   2.327   0.806  0.3646 -1.6986 -1.7341
   15CHTO   O56 6049   6.669   2.181   0.728  0.3795 -0.1602  0.4924
   15CHTO  H135 6050   6.641   2.097   0.758 -0.9131  0.2719  0.5036
   15CHTO   C81 6051   6.730   2.212   0.982 -0.1656  0.2369 -0.4192
   15CHTO  H153 6052   6.741   2.295   1.052 -3.2514 -0.4394  0.9539
   15CHTO   N14 6053   6.851   2.126   0.982 -0.2082  0.2204  0.4254
   15CHTO  H141 6054   6.945   2.175   0.999 -1.0965  2.1401 -0.0247
   15CHTO  H142 6055   6.855   2.079   0.887 -2.7081 -4.5100  2.4916
   15CHTO   C79 6056   6.600   2.125   1.020 -0.4321 -0.2923  0.4707
   15CHTO  H151 6057   6.614   2.082   1.119 -1.6595  0.5043  1.0079
   15CHTO   O52 6058   6.484   2.202   1.018 -0.9812  0.6607 -0.0975
   15CHTO   C86 6059   6.463   2.287   0.898 -0.2531 -0.8912  0.0586
   15CHTO  H158 6060   6.417   2.218   0.824 -1.0172  0.0320 -0.3402
   15CHTO   C90 6061   6.348   2.382   0.929 -0.4301  0.3382 -0.1828
   15CHTO   O60 6062   6.364   2.478   1.041  0.3509  0.2388 -0.1701
   15CHTO  H138 6063   6.300   2.547   1.045 -1.7595 -1.5525 -1.4675
   15CHTO   O50 6064   6.587   2.012   0.938  0.2718  0.3818 -0.3945
   15CHTO   C73 6065   6.524   1.889   0.910  0.2728  0.3931  0.2819
   15CHTO  H145 6066   6.427   1.912   0.863  1.0749 -0.2254 -1.7342
   15CHTO   C74 6067   6.502   1.800   1.034 -0.7526  0.3875  0.0417
   15CHTO  H146 6068   6.438   1.857   1.103 -0.9398 -1.3088  1.3228
   15CHTO   O54 6069   6.428   1.682   0.997 -0.5761  0.1508  0.1449
   15CHTO  H133 6070   6.356   1.670   1.056 -0.4961  0.1645  0.2456
   15CHTO   C75 6071   6.642   1.764   1.097  0.0991  0.0146  0.1618
   15CHTO  H147 6072   6.688   1.859   1.129 -0.2996 -0.5428  2.5194
   15CHTO   N13 6073   6.631   1.693   1.225  0.4409 -0.4204 -0.2733
   15CHTO  H139 6074   6.714   1.631   1.254  0.2233 -0.3356  0.5594
   15CHTO  H140 6075   6.599   1.761   1.304 -3.2820 -0.4925 -1.6211
   15CHTO   C76 6076   6.730   1.693   0.984 -0.2064  0.4317  0.7434
   15CHTO  H148 6077   6.683   1.596   0.969 -0.2803  0.7027 -0.9467
   15CHTO   O49 6078   6.729   1.768   0.864  0.1167 -0.2058 -0.2073
   15CHTO   C77 6079   6.603   1.800   0.807 -0.5506  0.3576 -0.3590
   15CHTO  H149 6080   6.552   1.705   0.787  2.8578 -1.6669  0.0843
   15CHTO   C88 6081   6.616   1.872   0.672 -0.3919 -0.0127 -0.3536
   15CHTO   O58 6082   6.486   1.903   0.607  0.1030  0.8098 -0.2166
   15CHTO  H136 6083   6.501   1.931   0.519  0.1603  2.9380  0.4356
   15CHTO   O51 6084   6.877   1.684   1.008  0.1784 -0.0684 -0.0308
   15CHTO   C78 6085   6.950   1.579   0.922 -0.9457  0.5899 -0.1632
   15CHTO  H150 6086   6.892   1.559   0.830 -1.4502 -3.1539  0.9015
   15CHTO   C80 6087   6.968   1.441   0.997  0.3181 -0.0164  0.8082
   15CHTO  H152 6088   7.012   1.451   1.099  0.3621 -2.0032  1.0197
   15CHTO   O55 6089   6.833   1.395   1.024  0.4838 -0.4224  0.1297
   15CHTO  H134 6090   6.828   1.301   1.031  1.9362 -0.4672  0.7463
   15CHTO   C84 6091   7.062   1.340   0.917  0.1912 -0.2988 -0.0812
   15CHTO  H156 6092   7.014   1.325   0.821  0.7780  2.2558 -0.8070
   15CHTO   N15 6093   7.079   1.216   0.996 -0.3961  0.5812  0.8236
   15CHTO  H143 6094   7.167   1.217   1.056 -2.3892  1.2853  3.8710
   15CHTO  H144 6095   7.079   1.132   0.930 -1.5257  0.6744  0.6911
   15CHTO   C87 6096   7.198   1.407   0.871  0.3997 -0.5972 -0.0855
   15CHTO  H159 6097   7.264   1.419   0.957  0.8614 -0.1170 -0.5046
   15CHTO   O53 6098   7.166   1.544   0.808 -0.3940 -0.2009  0.4390
   15CHTO   C82 6099   7.090   1.637   0.881 -0.3975 -0.2206 -0.5592
   15CHTO  H154 6100   7.151   1.667   0.966 -2.0716 -0.6759  0.8224
   15CHTO   C89 6101   7.074   1.757   0.787  0.1606  0.0012 -0.5847
   15CHTO   O59 6102   7.183   1.845   0.801  0.7647 -0.3063 -0.0462
   15CHTO  H137 6103   7.181   1.923   0.748  1.6436 -0.3410 -0.1327
   15CHTO   O45 6104   7.279   1.322   0.761  0.3746  0.1769 -0.5743
   15CHTO   C67 6105   7.419   1.360   0.756  0.4183  0.2076 -0.0927
   15CHTO  H124 6106   7.430   1.449   0.819 -0.4901  0.4833 -0.3280
   15CHTO   C65 6107   7.505   1.246   0.821 -0.0688  0.4900  0.2691
   15CHTO  H122 6108   7.455   1.151   0.800 -0.2919 -0.2098  3.7071
   15CHTO   O44 6109   7.502   1.269   0.967  0.6044 -0.0211  0.1086
   15CHTO  H102 6110   7.512   1.187   1.011  2.4353  1.1487  1.9468
   15CHTO   C63 6111   7.638   1.234   0.731 -0.5081 -0.0314 -0.0804
   15CHTO  H120 6112   7.620   1.182   0.637 -0.5294  0.0040 -0.0959
   15CHTO   N11 6113   7.744   1.145   0.789  0.0555 -0.2086 -0.5839
   15CHTO  H108 6114   7.830   1.146   0.724  1.8689  2.3044  1.7642
   15CHTO  H109 6115   7.706   1.045   0.779 -1.8960  0.2965  1.4197
   15CHTO   C61 6116   7.699   1.372   0.693 -0.0686 -0.5636 -0.8364
   15CHTO  H118 6117   7.796   1.358   0.643  0.7961  1.6753  0.1374
   15CHTO   O40 6118   7.605   1.444   0.602  0.1734  0.0359 -0.6507
   15CHTO   C68 6119   7.462   1.405   0.612 -0.3075 -0.5692  0.4320
   15CHTO  H125 6120   7.453   1.315   0.547 -1.5854  0.7802 -1.2827
   15CHTO   C72 6121   7.375   1.509   0.553  0.4256 -0.2590  0.4510
   15CHTO   O48 6122   7.384   1.632   0.639  0.3459 -0.0781 -0.0126
   15CHTO  H105 6123   7.345   1.621   0.723  0.2560  2.5782  0.3362
   15CHTO   O38 6124   7.719   1.458   0.799 -0.3834 -0.1719 -0.3150
   15CHTO   C55 6125   7.758   1.596   0.773  0.1528  0.9286  0.3966
   15CHTO  H112 6126   7.694   1.632   0.691 -1.7094 -0.1199  1.3551
   15CHTO   C56 6127   7.910   1.610   0.736  0.6949  0.5109 -0.2705
   15CHTO  H113 6128   7.970   1.586   0.825  1.5479 -0.0922 -1.0037
   15CHTO   O42 6129   7.952   1.526   0.636 -0.1290 -0.0666 -0.1028
   15CHTO  H100 6130   7.945   1.438   0.669  0.4409  0.3295  1.1362
   15CHTO   C57 6131   7.941   1.769   0.706  0.1376 -0.6617 -0.0884
   15CHTO  H114 6132   7.885   1.814   0.624  0.7001  1.4923  0.6520
   15CHTO   N10 6133   8.085   1.788   0.657  0.1034 -0.2599  0.1957
   15CHTO  H106 6134   8.080   1.879   0.598  2.0153 -1.1541 -1.3891
   15CHTO  H107 6135   8.172   1.785   0.721  1.1881 -2.2701 -1.3576
   15CHTO   C58 6136   7.904   1.843   0.831 -0.0111 -0.7699  0.0704
   15CHTO  H115 6137   7.971   1.808   0.913 -1.5525 -2.5457  0.5932
   15CHTO   O37 6138   7.763   1.825   0.862 -0.5264 -0.5127 -0.0503
   15CHTO   C59 6139   7.727   1.685   0.893 -0.1338 -0.9297  0.5790
   15CHTO  H116 6140   7.792   1.657   0.976  0.7826  0.2195  0.2670
   15CHTO   C70 6141   7.577   1.692   0.926 -0.4416  0.5454  0.4408
   15CHTO   O46 6142   7.551   1.746   1.055 -0.1661  0.1394 -0.0962
   15CHTO  H103 6143   7.484   1.690   1.089 -0.2744  1.1016  1.3115
   15CHTO   O39 6144   7.924   2.018   0.823  0.3238 -0.0403  1.2613
   15CHTO   C60 6145   7.840   2.100   0.742 -1.0264  0.3756 -0.1075
   15CHTO  H117 6146   7.820   2.048   0.648 -0.0609 -0.4621  0.1381
   15CHTO   C62 6147   7.698   2.119   0.798 -0.5678  1.1367 -0.6210
   15CHTO  H119 6148   7.655   2.018   0.816  0.4737  0.8935  0.6326
   15CHTO   O43 6149   7.701   2.170   0.933 -0.3745  0.2807 -0.0388
   15CHTO  H101 6150   7.616   2.206   0.950  0.1880  1.7635 -0.2462
   15CHTO   C66 6151   7.609   2.199   0.693  0.2343 -0.6484 -0.3928
   15CHTO  H123 6152   7.612   2.144   0.599  2.1697 -0.8434 -0.2298
   15CHTO   N12 6153   7.469   2.196   0.737 -0.4589  0.4797 -0.0978
   15CHTO  H110 6154   7.441   2.092   0.750  1.3480 -0.1860 -1.4073
   15CHTO  H111 6155   7.458   2.257   0.826 -0.2207  1.3330 -0.6544
   15CHTO   C69 6156   7.666   2.339   0.660  0.2934 -0.3174  0.4434
   15CHTO  H126 6157   7.667   2.401   0.752  0.5858 -0.4931  0.5585
   15CHTO   O41 6158   7.819   2.317   0.616  0.4562 -0.1678  0.3006
   15CHTO   C64 6159   7.905   2.238   0.706  0.0908 -0.1760  0.0872
   15CHTO  H121 6160   7.919   2.294   0.800 -1.1559 -0.9419  0.7391
   15CHTO   C71 6161   8.048   2.225   0.644 -0.5610  0.3801 -0.2014
   15CHTO   O47 6162   8.057   2.159   0.516  0.2215 -0.7495  0.1550
   15CHTO  H104 6163   8.043   2.067   0.522 -2.4317 -0.3989  0.2067
   15CHTO   O34 6164   7.589   2.406   0.558 -0.4081  0.5322  0.4048
   15CHTO   C49 6165   7.543   2.419   0.408  0.6378 -0.3641 -0.2778
   15CHTO   H91 6166   7.530   2.316   0.375  0.3352 -0.8262  1.2232
   15CHTO   C47 6167   7.641   2.497   0.318 -0.4818  0.1783 -0.6948
   15CHTO   H89 6168   7.607   2.474   0.215  0.6351 -0.2232 -0.9838
   15CHTO   O33 6169   7.761   2.424   0.337 -0.0184  0.2180 -0.2254
   15CHTO   H70 6170   7.835   2.453   0.287  2.1715 -2.6017  1.2626
   15CHTO   C45 6171   7.651   2.648   0.356 -0.5245  0.2409 -0.6460
   15CHTO   H87 6172   7.670   2.656   0.464 -1.8420 -0.3623 -0.3521
   15CHTO    N8 6173   7.759   2.722   0.290  0.6683  0.4487  0.4122
   15CHTO   H75 6174   7.849   2.663   0.284  0.2338 -0.3598  1.8035
   15CHTO   H76 6175   7.791   2.806   0.350  0.4942 -0.6466  2.0366
   15CHTO   C43 6176   7.514   2.718   0.338  0.3701  0.4607  0.2442
   15CHTO   H85 6177   7.526   2.816   0.385  2.3303 -1.2008  3.3334
   15CHTO   O29 6178   7.416   2.646   0.404  0.4813  0.5418  0.4576
   15CHTO   C50 6179   7.411   2.501   0.391  0.1588  0.1183  0.1615
   15CHTO   H92 6180   7.346   2.470   0.474 -0.7151  1.2951 -0.0745
   15CHTO   C54 6181   7.320   2.453   0.270 -0.4668 -0.0733 -0.4893
   15CHTO   O36 6182   7.380   2.477   0.139 -0.0579  0.0411 -0.0985
   15CHTO   H72 6183   7.364   2.398   0.091 -0.8460 -0.2241  0.5859
   15CHTO   O27 6184   7.486   2.744   0.198 -0.5377  0.1549 -0.6290
   15CHTO   C37 6185   7.402   2.812   0.097  0.7354 -0.2301 -0.1301
   15CHTO   H79 6186   7.337   2.742   0.043  2.3474  0.3612 -2.9087
   15CHTO   C38 6187   7.309   2.928   0.158 -0.4762  0.0166 -0.4294
   15CHTO   H80 6188   7.371   2.981   0.233 -0.8734 -1.5414  1.0520
   15CHTO   O31 6189   7.221   2.853   0.244 -0.1462  0.1450 -0.2976
   15CHTO   H68 6190   7.184   2.780   0.199 -0.2746 -0.4229  0.7114
   15CHTO   C39 6191   7.236   3.007   0.053 -0.1758  0.2306 -0.3444
   15CHTO   H81 6192   7.173   2.930   0.009 -0.1037 -0.8220  1.3558
   15CHTO    N7 6193   7.147   3.114   0.093 -1.0494 -0.7950 -0.2504
   15CHTO   H73 6194   7.141   3.118   0.200  0.1552  0.6156 -0.2157
   15CHTO   H74 6195   7.172   3.205   0.040 -0.6683 -1.2203 -0.8134
   15CHTO   C40 6196   7.347   3.054  -0.058  0.3159 -0.0803  0.2956
   15CHTO   H82 6197   7.407   3.131  -0.010 -0.2308  1.0740 -0.8499
   15CHTO   O26 6198   7.433   2.950  -0.107 -0.1697  0.4182  0.2283
   15CHTO   C41 6199   7.501   2.871  -0.006  0.2873  0.8194 -0.1243
   15CHTO   H83 6200   7.575   2.935   0.044  1.6243 -1.5122  0.9559
   15CHTO   C52 6201   7.583   2.763  -0.082  0.0948 -0.0226 -0.2999
   15CHTO   O35 6202   7.672   2.814  -0.166  0.1084 -0.6566  0.5717
   15CHTO   H71 6203   7.630   2.856  -0.239  2.1759  1.2616  0.4244
   15CHTO   O28 6204   7.279   3.107  -0.175 -0.1198  0.5580 -0.1624
   15CHTO   C42 6205   7.302   3.231  -0.255  0.4661 -0.5414 -0.3290
   15CHTO   H84 6206   7.262   3.200  -0.351  1.3133  0.1589 -0.9139
   15CHTO   C44 6207   7.451   3.281  -0.287 -0.2457 -0.1911  0.3451
   15CHTO   H86 6208   7.493   3.320  -0.194  1.4430 -4.0233  1.3034
   15CHTO   O32 6209   7.537   3.168  -0.321 -0.2124  0.0593 -0.3840
   15CHTO   H69 6210   7.526   3.153  -0.413 -0.9666  0.9196 -0.4418
   15CHTO   C48 6211   7.443   3.392  -0.393  0.6375 -0.4042 -0.1447
   15CHTO   H90 6212   7.385   3.351  -0.476 -1.7756 -1.8920  2.1735
   15CHTO    N9 6213   7.574   3.442  -0.438  0.5414 -0.4630  0.4141
   15CHTO   H77 6214   7.628   3.500  -0.365 -1.6498  2.4176 -0.1453
   15CHTO   H78 6215   7.630   3.363  -0.486  1.1449 -0.5304  1.2140
   15CHTO   C51 6216   7.350   3.508  -0.335  1.2640 -0.1871  0.1030
   15CHTO   H93 6217   7.394   3.544  -0.242  0.4773  0.5159  0.2073
   15CHTO   O30 6218   7.221   3.451  -0.326  0.5304  0.2815 -0.1887
   15CHTO   C46 6219   7.211   3.349  -0.209  0.0545  0.2569 -0.2552
   15CHTO   H88 6220   7.252   3.395  -0.120  1.1640 -1.3702  0.0999
   15CHTO   C53 6221   7.058   3.321  -0.186  0.6625 -0.1754  0.0648
   15CHTO   O72 6222   7.004   3.451  -0.161 -0.1229  0.7617  0.9362
   15CHTO  H199 6223   6.932   3.445  -0.101 -1.9045  2.5929 -0.9252
   15CHTO   O22 6224   7.332   3.624  -0.425 -0.0451 -0.4634 -0.7681
   15CHTO   C31 6225   7.275   3.756  -0.391  0.4031 -0.3926 -0.3470
   15CHTO   H59 6226   7.268   3.811  -0.487 -2.7028  0.9743  0.5910
   15CHTO   C29 6227   7.128   3.751  -0.338  0.0093  0.8541  0.2351
   15CHTO   H57 6228   7.126   3.701  -0.240 -0.7089 -1.4689 -0.9308
   15CHTO   O21 6229   7.047   3.673  -0.430 -0.3746  0.4037  0.6451
   15CHTO   H37 6230   6.958   3.678  -0.401 -0.1104 -0.7645  1.6926
   15CHTO   C27 6231   7.069   3.892  -0.330 -0.0025 -0.2063 -0.3468
   15CHTO   H55 6232   7.071   3.943  -0.427  1.3840  1.3922  0.4771
   15CHTO    N5 6233   6.927   3.897  -0.270  0.7699 -0.3998  0.1140
   15CHTO   H43 6234   6.912   4.003  -0.255 -1.5255 -0.3902 -1.9090
   15CHTO   H44 6235   6.903   3.843  -0.180 -1.3955  2.3072  1.1988
   15CHTO   C25 6236   7.175   3.983  -0.245 -0.0281 -0.7036 -0.1714
   15CHTO   H53 6237   7.176   3.959  -0.138 -0.2943  0.9986  0.2395
   15CHTO   O17 6238   7.303   3.973  -0.299 -0.2636  0.6471 -0.1409
   15CHTO   C32 6239   7.360   3.845  -0.304 -0.4303 -0.7749  0.0810
   15CHTO   H60 6240   7.354   3.806  -0.203 -2.1605 -1.0834 -0.1297
   15CHTO   C36 6241   7.506   3.867  -0.349  0.3695  0.3021  0.5004
   15CHTO   O25 6242   7.579   3.936  -0.245  0.2348  0.3793 -0.1241
   15CHTO   H40 6243   7.628   4.008  -0.281 -1.3183  1.1957 -0.6714
   15CHTO   O15 6244   7.125   4.134  -0.241 -0.5304  0.0235  0.3717
   15CHTO   C19 6245   7.159   4.257  -0.172  0.2344  0.7026  0.2774
   15CHTO   H47 6246   7.231   4.294  -0.247 -1.4602  3.4784 -0.0508
   15CHTO   C20 6247   7.043   4.362  -0.161 -0.1514 -0.6421  0.5408
   15CHTO   H48 6248   6.953   4.319  -0.115  1.2579 -0.9259  3.1468
   15CHTO   O19 6249   7.005   4.394  -0.293 -0.7778 -0.3860  0.3605
   15CHTO   H35 6250   7.076   4.426  -0.345  0.5682  1.0168  2.9535
   15CHTO   C21 6251   7.086   4.492  -0.070  0.3008 -0.2684  0.9173
   15CHTO   H49 6252   7.151   4.549  -0.137  1.3621  0.7246  2.7449
   15CHTO    N4 6253   6.969   4.573  -0.032 -0.0522 -0.6899 -0.7703
   15CHTO   H41 6254   6.903   4.503   0.017  2.3759 -2.6411 -0.1947
   15CHTO   H42 6255   6.916   4.610  -0.118 -0.9481 -2.0092 -0.7965
   15CHTO   C22 6256   7.164   4.446   0.056 -0.4976 -0.3894 -0.0052
   15CHTO   H50 6257   7.091   4.412   0.129 -2.1368  3.1364  0.0914
   15CHTO   O14 6258   7.278   4.365   0.017  0.2312  0.1900 -0.0921
   15CHTO   C23 6259   7.234   4.241  -0.044  0.1219  0.0648 -0.4399
   15CHTO   H51 6260   7.179   4.181   0.030 -0.6117 -0.9458 -1.7790
   15CHTO   C34 6261   7.363   4.170  -0.060 -0.2137 -0.1876 -0.8570
   15CHTO   O23 6262   7.421   4.135   0.063  0.3107  0.0014 -0.5874
   15CHTO   H38 6263   7.512   4.121   0.045  0.2703  1.2685 -1.9150
   15CHTO   O16 6264   7.225   4.559   0.122 -0.3116 -0.0040 -0.0743
   15CHTO   C24 6265   7.232   4.559   0.287 -0.1283 -0.4738 -0.0125
   15CHTO   H52 6266   7.179   4.474   0.330 -2.6889  0.0908 -1.9098
   15CHTO   C26 6267   7.189   4.694   0.332  0.1005 -0.0417  0.6162
   15CHTO   H54 6268   7.229   4.770   0.263  0.7177 -0.0013  1.0136
   15CHTO   O20 6269   7.043   4.693   0.313  0.6780  0.0320  0.3124
   15CHTO   H36 6270   7.016   4.783   0.315  1.0079  0.1189  0.8340
   15CHTO   C30 6271   7.230   4.728   0.481 -0.1013 -0.0661  0.1345
   15CHTO   H58 6272   7.162   4.670   0.546  2.2596 -3.4558 -0.2876
   15CHTO    N6 6273   7.198   4.876   0.509  0.3222  0.0904  0.0471
   15CHTO   H45 6274   7.094   4.889   0.486  0.7302 -0.3076 -2.1381
   15CHTO   H46 6275   7.260   4.927   0.437  1.1529  1.3312  1.6062
   15CHTO   C33 6276   7.376   4.701   0.509 -1.0841 -0.1421 -0.4130
   15CHTO   H61 6277   7.434   4.769   0.446  2.8641 -2.2153  0.8031
   15CHTO   O18 6278   7.411   4.568   0.471 -0.0532 -0.1996  0.4865
   15CHTO   C28 6279   7.388   4.543   0.329 -0.4161 -0.0447 -0.0122
   15CHTO   H56 6280   7.444   4.614   0.268  0.0388  0.0794  0.5409
   15CHTO   C35 6281   7.428   4.404   0.295 -0.0101  0.8012  0.1800
   15CHTO   O24 6282   7.567   4.381   0.312 -0.0888  0.3985  0.0727
   15CHTO   H39 6283   7.583   4.363   0.403 -2.5644 -0.4595  0.3589
   15CHTO    O9 6284   7.414   4.724   0.649 -0.1506  0.0710  0.3148
   15CHTO   C13 6285   7.594   4.770   0.677  0.3874  0.5420 -0.0174
   15CHTO   H26 6286   7.601   4.881   0.674 -0.7565  0.5810 -1.8418
   15CHTO   C11 6287   7.684   4.700   0.558 -0.1863 -0.4013  0.4181
   15CHTO   H24 6288   7.634   4.733   0.466  1.1076  0.5289  0.0410
   15CHTO    O8 6289   7.685   4.556   0.550  0.2916 -0.1287  0.4264
   15CHTO    H3 6290   7.597   4.526   0.541  0.1277  0.4227  0.2039
   15CHTO    C9 6291   7.827   4.758   0.584 -0.0903 -0.7594  0.4881
   15CHTO   H22 6292   7.815   4.867   0.575 -2.1128 -0.8165  2.3844
   15CHTO    N2 6293   7.918   4.723   0.467  0.2966  0.9748  0.2114
   15CHTO   H10 6294   7.940   4.809   0.405 -1.0052  2.6544  2.0028
   15CHTO   H11 6295   8.008   4.670   0.495  1.4550  2.7544 -0.0708
   15CHTO    C7 6296   7.885   4.721   0.726 -0.1034 -0.3461  0.3312
   15CHTO   H20 6297   7.911   4.818   0.774 -1.6581 -0.0615  0.6259
   15CHTO    O4 6298   7.784   4.657   0.804  0.2283 -0.0931  0.4116
   15CHTO   C14 6299   7.650   4.710   0.814  0.1547  0.1056  0.7167
   15CHTO   H27 6300   7.651   4.787   0.894  1.3776 -0.3111  1.1188
   15CHTO   C18 6301   7.565   4.585   0.871 -0.0216  0.2311  0.2404
   15CHTO   O13 6302   7.453   4.635   0.954 -0.0903  0.3050  0.1824
   15CHTO    H7 6303   7.394   4.563   0.950 -0.7528  0.8924 -1.0555
   15CHTO    O2 6304   7.995   4.645   0.731  0.8014  0.1159 -0.2660
   15CHTO    C1 6305   8.063   4.627   0.860  0.0016  0.3239  0.2104
   15CHTO   H14 6306   8.019   4.682   0.946  1.9974  1.3325  0.6137
   15CHTO    C2 6307   8.210   4.679   0.851  0.1368  0.1949  0.7040
   15CHTO   H15 6308   8.261   4.611   0.782 -0.0979  0.3923  0.3355
   15CHTO    O6 6309   8.210   4.818   0.812 -0.4796 -0.3345  0.6480
   15CHTO    H1 6310   8.204   4.822   0.719  0.0016  3.4676  0.7077
   15CHTO    C3 6311   8.286   4.658   0.993 -0.3633 -0.2896  0.5887
   15CHTO   H16 6312   8.233   4.726   1.061  0.1407 -0.0368  0.7336
   15CHTO    N1 6313   8.432   4.706   1.002 -0.3144  0.0284  0.0581
   15CHTO    H8 6314   8.484   4.702   0.907 -2.1629 -0.4107 -0.9735
   15CHTO    H9 6315   8.425   4.805   1.044 -1.0140  1.0081 -2.2840
   15CHTO    C4 6316   8.259   4.511   1.038  0.4821  0.3807 -0.5470
   15CHTO   H17 6317   8.324   4.443   0.984  1.1366 -0.3095  1.0606
   15CHTO    O1 6318   8.123   4.469   1.028 -0.2217 -1.1590 -0.6117
   15CHTO    C5 6319   8.073   4.475   0.893 -0.2839  0.6686 -0.2295
   15CHTO   H18 6320   8.138   4.426   0.822 -2.1554  0.6530 -1.9721
   15CHTO   C16 6321   7.941   4.402   0.896  0.8353 -0.6319 -0.0218
   15CHTO   O11 6322   7.871   4.413   0.775 -0.4090  0.0385 -0.1720
   15CHTO    H5 6323   7.930   4.380   0.709 -2.3707 -3.5017 -0.2733
   15CHTO    O3 6324   8.279   4.501   1.184 -0.1215 -0.2197 -0.2417
   15CHTO    C6 6325   8.270   4.361   1.236  0.9210 -0.4155  0.1152
   15CHTO   H19 6326   8.227   4.290   1.165  0.9099 -1.1685  0.8697
   15CHTO    C8 6327   8.410   4.326   1.292  0.2057 -0.3036  0.6313
   15CHTO   H21 6328   8.439   4.402   1.365 -1.3485 -0.7249  1.7249
   15CHTO    O7 6329   8.500   4.329   1.180  0.3545 -0.1607 -0.0186
   15CHTO    H2 6330   8.582   4.298   1.213 -1.1671 -3.1421  1.1861
   15CHTO   C12 6331   8.393   4.188   1.373 -0.2319 -0.2021 -0.4068
   15CHTO   H25 6332   8.349   4.115   1.303 -2.0416 -2.2628  2.7815
   15CHTO    N3 6333   8.526   4.145   1.418 -0.2628  0.3062  0.7342
   15CHTO   H12 6334   8.575   4.225   1.471 -2.4027  1.6013  0.8065
   15CHTO   H13 6335   8.513   4.057   1.479 -0.3960 -0.1246  0.0929
   15CHTO   C15 6336   8.293   4.211   1.490  0.3160  0.1996 -0.2822
   15CHTO   H28 6337   8.325   4.287   1.562 -0.0899 -0.4908  0.6290
   15CHTO   O10 6338   8.254   4.092   1.564  0.9055 -0.2739  0.3053
   15CHTO    H4 6339   8.207   4.103   1.644  0.0429  0.3056 -0.2789
   15CHTO    O5 6340   8.167   4.249   1.435  0.4590 -0.9279 -0.3643
   15CHTO   C10 6341   8.166   4.366   1.352 -0.0858  0.2212  0.3163
   15CHTO   H23 6342   8.195   4.451   1.413  0.1893  1.0521 -0.9516
   15CHTO   C17 6343   8.018   4.377   1.315  0.9044 -0.0629 -0.1361
   15CHTO   O12 6344   7.941   4.408   1.427  0.8652 -0.3533  0.1790
   15CHTO    H6 6345   7.886   4.339   1.458  0.9957  0.6208  2.7177
   16CHTO  H203 6346   6.356   4.665   2.543  2.1864  0.2947  0.8681
   16CHTO   O82 6347   6.324   4.599   2.602  0.2564  0.7584  0.3849
   16CHTO  C123 6348   6.423   4.566   2.697 -0.6117 -0.3693 -0.1204
   16CHTO  H227 6349   6.468   4.659   2.735  1.2751 -0.3108 -2.4037
   16CHTO   O77 6350   6.367   4.484   2.806  0.4353 -0.1039  0.1260
   16CHTO  C118 6351   6.466   4.463   2.912  0.1648  0.9480 -0.2179
   16CHTO  H222 6352   6.504   4.565   2.932 -0.3270  0.6235  2.6017
   16CHTO  C125 6353   6.381   4.413   3.028  0.1703  0.1894 -0.4029
   16CHTO   O84 6354   6.439   4.442   3.155  0.2783  0.2730  0.3610
   16CHTO  H205 6355   6.410   4.528   3.181 -0.7659 -0.9776  3.5775
   16CHTO  C114 6356   6.579   4.372   2.864 -0.8103  0.2178 -0.0523
   16CHTO  H218 6357   6.534   4.275   2.844 -0.4786 -0.4745  2.4596
   16CHTO  C116 6358   6.646   4.431   2.729 -0.4441  0.4474 -0.4301
   16CHTO  H220 6359   6.718   4.513   2.749 -2.2111  1.6355  1.1847
   16CHTO   O79 6360   6.725   4.320   2.674 -0.1263 -0.2357 -0.2666
   16CHTO  H201 6361   6.758   4.327   2.587 -3.1322  3.6655 -1.2239
   16CHTO  C120 6362   6.541   4.483   2.629  0.6992 -0.8094  0.1007
   16CHTO  H224 6363   6.492   4.396   2.581 -0.2966  0.0376 -0.4444
   16CHTO   N21 6364   6.609   4.543   2.512  0.7991  0.4431  0.0334
   16CHTO  H211 6365   6.713   4.564   2.532  1.3866 -1.8943 -0.4121
   16CHTO  H212 6366   6.557   4.628   2.470 -0.9180  0.0516  1.3297
   16CHTO   O75 6367   6.670   4.361   2.977 -0.1786 -0.3476  0.1284
   16CHTO  C112 6368   6.823   4.304   2.951 -0.6860 -0.4459  0.2920
   16CHTO  H216 6369   6.868   4.375   2.880  0.7423  2.0528  3.5652
   16CHTO   O73 6370   6.809   4.172   2.895 -0.3434 -0.5449  0.4094
   16CHTO  C113 6371   6.926   4.115   2.845 -0.1507  0.2810  0.4726
   16CHTO  H217 6372   6.959   4.189   2.768 -1.0153  0.9492  0.7319
   16CHTO  C124 6373   6.879   4.000   2.766 -1.1435  0.0567 -0.3151
   16CHTO   O83 6374   6.800   3.906   2.841  0.0569 -0.1837 -0.1520
   16CHTO  H204 6375   6.847   3.826   2.851  1.7325  0.9368  1.1940
   16CHTO  C109 6376   7.021   4.081   2.962 -0.3307 -0.4141 -0.3685
   16CHTO  H213 6377   6.967   4.010   3.026  0.1518  0.5655  1.1728
   16CHTO  C110 6378   7.040   4.214   3.046 -0.5365 -0.6608 -0.1236
   16CHTO  H214 6379   7.109   4.278   2.992  0.8080  0.0818  2.3842
   16CHTO   O78 6380   7.094   4.177   3.172  0.2559  0.0454  0.1481
   16CHTO  H200 6381   7.111   4.250   3.228 -2.9671  1.1318 -0.2281
   16CHTO  C111 6382   6.911   4.294   3.078  0.3352 -0.3197 -0.6703
   16CHTO  H215 6383   6.859   4.239   3.158  0.9259  1.4401  0.9539
   16CHTO   N19 6384   6.935   4.428   3.133  0.2973  0.0058  0.2999
   16CHTO  H207 6385   6.899   4.437   3.234  0.7790  0.6400  0.4160
   16CHTO  H208 6386   7.043   4.438   3.134  0.5901 -2.6579 -0.3483
   16CHTO   O74 6387   7.161   4.042   2.931 -0.6561 -0.4865 -0.8073
   16CHTO  C115 6388   7.170   3.889   2.914  0.0530 -0.1219 -0.3421
   16CHTO  H219 6389   7.096   3.839   2.977 -0.8254  0.6241 -0.7728
   16CHTO   O76 6390   7.134   3.845   2.768 -0.2515 -0.3492 -0.1449
   16CHTO  C122 6391   7.136   3.707   2.744  0.0504 -0.0734  0.2793
   16CHTO  H226 6392   7.125   3.687   2.638 -1.1199  1.6177  0.0763
   16CHTO  C126 6393   7.016   3.625   2.810  0.4926  0.5644 -0.2052
   16CHTO   O85 6394   6.900   3.643   2.730 -0.3171  0.0306 -0.3035
   16CHTO  H206 6395   6.880   3.733   2.711 -0.2453  0.6704  2.4279
   16CHTO  C121 6396   7.285   3.645   2.774 -0.0804 -0.2275 -0.0172
   16CHTO  H225 6397   7.286   3.536   2.755  1.1124  0.1709 -2.3804
   16CHTO   O81 6398   7.381   3.698   2.690  0.0363  0.2269 -0.0020
   16CHTO  H202 6399   7.468   3.682   2.721  1.3520  2.9739 -2.1476
   16CHTO  C119 6400   7.314   3.675   2.930 -0.0229  0.2835  0.1185
   16CHTO  H223 6401   7.229   3.636   2.984 -1.8105  1.5530 -1.6904
   16CHTO  C117 6402   7.312   3.836   2.952 -0.0432 -0.0757  0.1727
   16CHTO  H221 6403   7.389   3.888   2.894  0.7293  0.7761  1.9238
   16CHTO   N20 6404   7.344   3.860   3.099  0.2136  0.4214  0.6799
   16CHTO  H209 6405   7.442   3.824   3.127  0.3123 -0.2268 -0.4944
   16CHTO  H210 6406   7.272   3.801   3.154  1.1960 -0.9371  0.5318
   16CHTO   O80 6407   7.438   3.582   2.994 -0.0652  0.2224 -0.6418
   16CHTO  C103 6408   7.430   3.431   2.992 -0.1281  1.1083  0.3971
   16CHTO  H190 6409   7.339   3.399   2.941 -1.3813  2.9981  1.3727
   16CHTO  C101 6410   7.562   3.371   2.931  0.5116  0.6098 -0.7164
   16CHTO  H188 6411   7.643   3.424   2.981  1.8326 -0.0083 -2.1554
   16CHTO   O68 6412   7.576   3.397   2.772  1.0148  0.1060  0.3842
   16CHTO  H168 6413   7.665   3.388   2.746  1.4055 -2.5322  2.4421
   16CHTO   C99 6414   7.564   3.211   2.956  0.0478  0.6742 -0.0711
   16CHTO  H186 6415   7.478   3.164   2.903 -2.5403  2.7311  2.1223
   16CHTO   N17 6416   7.692   3.149   2.905 -0.2258 -0.0211  0.4327
   16CHTO  H174 6417   7.702   3.149   2.797 -0.1341 -2.8143  0.3931
   16CHTO  H175 6418   7.690   3.047   2.942 -0.5174  0.6392  2.2651
   16CHTO   C97 6419   7.538   3.181   3.105 -0.3338  0.1035  1.1265
   16CHTO  H184 6420   7.620   3.233   3.156 -1.2410  2.4639  0.2896
   16CHTO   O64 6421   7.409   3.240   3.139  0.3272  1.1438  0.2299
   16CHTO  C104 6422   7.417   3.385   3.145  0.3518  0.1238  0.9486
   16CHTO  H191 6423   7.506   3.414   3.201  1.1793  0.9082 -0.7489
   16CHTO  C108 6424   7.293   3.437   3.213 -0.4378 -0.9578 -0.7819
   16CHTO   O71 6425   7.332   3.562   3.279  0.3148  0.7078 -0.0514
   16CHTO  H171 6426   7.345   3.640   3.229  0.4709  1.0584  0.5421
   16CHTO   O62 6427   7.527   3.039   3.144  0.3384 -0.2567  0.0089
   16CHTO   C91 6428   7.542   3.017   3.285  0.6474  0.4823 -0.0926
   16CHTO  H178 6429   7.543   3.114   3.335  1.3843  0.4009  0.0492
   16CHTO   C92 6430   7.685   2.949   3.307 -0.0889 -0.5383 -0.4771
   16CHTO  H179 6431   7.703   2.875   3.227  2.6827 -0.4877  0.0562
   16CHTO   O66 6432   7.793   3.039   3.300 -0.5520  0.5400 -0.0857
   16CHTO  H166 6433   7.804   3.066   3.211 -3.7309 -1.8448 -1.3003
   16CHTO   C93 6434   7.699   2.871   3.445 -0.0518  0.4284  0.5849
   16CHTO  H180 6435   7.718   2.947   3.523 -0.0468  1.0511 -0.0090
   16CHTO   N16 6436   7.811   2.775   3.459 -0.0655  0.2271  0.1961
   16CHTO  H172 6437   7.869   2.777   3.368  1.8127  0.5379  1.3710
   16CHTO  H173 6438   7.769   2.676   3.472 -3.0216  1.6815  2.0737
   16CHTO   C94 6439   7.569   2.795   3.480  0.0411 -0.2157 -0.3378
   16CHTO  H181 6440   7.545   2.720   3.405 -2.2309  0.3773 -0.2534
   16CHTO   O61 6441   7.451   2.878   3.480 -0.2178 -0.4036  0.1077
   16CHTO   C95 6442   7.420   2.936   3.352  0.2730  0.0854 -0.5500
   16CHTO  H182 6443   7.403   2.853   3.283  1.2332 -0.2206 -0.4249
   16CHTO  C106 6444   7.292   3.028   3.359 -0.2640  0.4873  0.5159
   16CHTO   O69 6445   7.302   3.139   3.446  0.5693 -0.5913 -0.4252
   16CHTO  H169 6446   7.375   3.193   3.422  0.8812  0.5260  2.8541
   16CHTO   O63 6447   7.574   2.724   3.631 -0.1068  0.1365 -0.4240
   16CHTO   C96 6448   7.445   2.667   3.696 -0.3907  0.1582  0.0197
   16CHTO  H183 6449   7.479   2.595   3.771  1.6179  0.3391 -0.6920
   16CHTO   C98 6450   7.344   2.598   3.596  1.0898  0.1830 -0.1391
   16CHTO  H185 6451   7.333   2.658   3.505  1.6499  1.2530  0.4947
   16CHTO   O67 6452   7.413   2.477   3.560  0.0716 -0.0777  0.6069
   16CHTO  H167 6453   7.409   2.427   3.639 -0.4544 -0.7510  0.1558
   16CHTO  C102 6454   7.197   2.575   3.656 -0.2280  0.0127 -0.2322
   16CHTO  H189 6455   7.211   2.506   3.741  1.2313  0.3689 -0.1701
   16CHTO   N18 6456   7.103   2.512   3.558  0.2061  0.0048 -0.0741
   16CHTO  H176 6457   7.000   2.502   3.589  0.0720 -0.5926 -0.6980
   16CHTO  H177 6458   7.148   2.419   3.527  1.6986  0.7450 -0.1878
   16CHTO  C105 6459   7.146   2.720   3.693 -0.1140  0.1543  0.3967
   16CHTO  H192 6460   7.154   2.779   3.601  0.3939 -1.0427 -0.3409
   16CHTO   O65 6461   7.229   2.766   3.799  0.2806  0.4408  0.4273
   16CHTO  C100 6462   7.367   2.784   3.773  0.2443 -0.8267  0.1152
   16CHTO  H187 6463   7.361   2.873   3.709 -3.2303 -0.6660  0.5499
   16CHTO  C107 6464   7.427   2.818   3.906  0.4202  0.0294 -0.1642
   16CHTO   O70 6465   7.362   2.930   3.973  0.1099 -0.3344  0.3598
   16CHTO  H170 6466   7.397   3.015   3.954 -1.1592  0.8173  2.9668
   16CHTO   O57 6467   6.997   2.728   3.758  0.1365  0.0135 -0.3345
   16CHTO   C85 6468   6.897   2.819   3.702  0.4006  0.5018  1.4932
   16CHTO  H157 6469   6.881   2.802   3.593 -0.7302  0.4078  1.6786
   16CHTO   C83 6470   6.960   2.965   3.701  0.1802 -0.2949  0.2200
   16CHTO  H155 6471   7.043   2.957   3.631  0.3437  0.4217  0.3291
   16CHTO   O56 6472   6.992   3.014   3.836 -0.2227  0.3622  0.5971
   16CHTO  H135 6473   7.073   2.969   3.848 -0.3161 -0.4638 -1.6226
   16CHTO   C81 6474   6.854   3.061   3.631 -0.0065  0.1761 -0.5700
   16CHTO  H153 6475   6.832   3.025   3.531 -1.8494 -1.7674  0.4916
   16CHTO   N14 6476   6.909   3.203   3.596 -0.4953  0.0505 -0.3730
   16CHTO  H141 6477   7.010   3.192   3.564 -0.5731  2.8604 -1.7001
   16CHTO  H142 6478   6.852   3.275   3.541 -0.1865 -0.0189 -0.7909
   16CHTO   C79 6479   6.720   3.060   3.711 -0.3178 -0.0875  0.1341
   16CHTO  H151 6480   6.644   3.103   3.646 -1.7841 -2.1068  0.4486
   16CHTO   O52 6481   6.663   2.924   3.738 -0.9111 -0.0457  0.6191
   16CHTO   C86 6482   6.761   2.818   3.778  0.0733  0.0158 -0.1979
   16CHTO  H158 6483   6.774   2.844   3.885 -1.3837  0.8818 -0.2145
   16CHTO   C90 6484   6.696   2.677   3.770 -0.0664 -0.0800 -0.4960
   16CHTO   O60 6485   6.574   2.656   3.842  0.2061 -0.4748  0.1054
   16CHTO  H138 6486   6.561   2.566   3.861 -0.5416 -0.1078  1.3887
   16CHTO   O50 6487   6.721   3.127   3.835 -0.1982 -0.5272  0.1423
   16CHTO   C73 6488   6.662   3.132   3.955  0.1685  0.0282 -0.4771
   16CHTO  H145 6489   6.698   3.055   4.025 -1.3042  0.2384  0.5368
   16CHTO   C74 6490   6.509   3.113   3.949  0.5264 -0.2041 -0.3553
   16CHTO  H146 6491   6.493   3.011   3.910  1.2994 -0.2948 -0.4384
   16CHTO   O54 6492   6.456   3.109   4.084 -0.2146 -0.0874  0.1409
   16CHTO  H133 6493   6.369   3.143   4.086 -0.6459 -0.8372 -2.9346
   16CHTO   C75 6494   6.436   3.219   3.861  0.4830 -0.3102  0.1509
   16CHTO  H147 6495   6.480   3.211   3.761  0.5346 -2.8956  0.3590
   16CHTO   N13 6496   6.287   3.185   3.840  0.0504  0.3551  0.3011
   16CHTO  H139 6497   6.223   3.272   3.846  1.3398  1.3898 -0.5574
   16CHTO  H140 6498   6.259   3.122   3.923  1.3814  1.8857  1.9600
   16CHTO   C76 6499   6.475   3.355   3.922  0.6291  0.9524 -0.4651
   16CHTO  H148 6500   6.419   3.352   4.016 -1.9552  1.2890 -1.9216
   16CHTO   O49 6501   6.623   3.367   3.944 -0.6323 -0.5563  0.2832
   16CHTO   C77 6502   6.690   3.264   4.019  0.4837 -0.5495 -0.7305
   16CHTO  H149 6503   6.670   3.257   4.126  0.7628 -1.8152 -0.7568
   16CHTO   C88 6504   6.838   3.301   4.010  0.8611  0.1351 -0.5488
   16CHTO   O58 6505   6.876   3.445   4.070  0.1795 -0.5922  0.5070
   16CHTO  H136 6506   6.916   3.500   4.006  1.0390  0.1193  1.6421
   16CHTO   O51 6507   6.425   3.469   3.828 -0.4078 -0.4436  0.0178
   16CHTO   C78 6508   6.413   3.605   3.922  0.2266 -0.1303 -0.4551
   16CHTO  H150 6509   6.458   3.598   4.023  1.0276 -2.6365 -0.9574
   16CHTO   C80 6510   6.260   3.646   3.933 -0.6759  0.2316 -0.0114
   16CHTO  H152 6511   6.223   3.664   3.830  0.0698  0.3199 -0.2682
   16CHTO   O55 6512   6.182   3.538   3.980  0.1421 -0.1971 -0.3376
   16CHTO  H134 6513   6.106   3.575   4.023  1.3138 -0.3406  1.9553
   16CHTO   C84 6514   6.242   3.772   4.026 -0.1551 -0.1299 -0.2653
   16CHTO  H156 6515   6.288   3.748   4.122 -2.1406  0.7620  0.9445
   16CHTO   N15 6516   6.090   3.810   4.049  1.4582 -0.3093 -0.7121
   16CHTO  H143 6517   6.087   3.879   4.130 -0.6982 -0.4538 -0.6386
   16CHTO  H144 6518   6.029   3.725   4.070 -3.4319  2.5253 -2.4559
   16CHTO   C87 6519   6.325   3.891   3.966  0.1113  0.7969 -0.5189
   16CHTO  H159 6520   6.276   3.932   3.878 -0.5836 -0.1554 -0.5806
   16CHTO   O53 6521   6.471   3.842   3.925 -0.3012  0.2057  0.0847
   16CHTO   C82 6522   6.488   3.715   3.854 -0.0715 -0.6218  0.0567
   16CHTO  H154 6523   6.462   3.725   3.748 -0.2450 -2.6245 -0.0920
   16CHTO   C89 6524   6.644   3.685   3.855 -0.9125 -0.4660  0.4158
   16CHTO   O59 6525   6.689   3.588   3.758  0.4083 -0.4182 -0.1239
   16CHTO  H137 6526   6.735   3.637   3.693  0.9900  2.5735  2.4222
   16CHTO   O45 6527   6.340   4.012   4.089  0.5937  0.2343 -0.1750
   16CHTO   C67 6528   6.471   4.058   4.118  0.4954  0.1113  0.2382
   16CHTO  H124 6529   6.547   3.992   4.077  0.7660  0.7895 -0.3643
   16CHTO   C65 6530   6.489   4.195   4.050  0.4294 -0.1477  0.5965
   16CHTO  H122 6531   6.393   4.248   4.045 -0.0045 -1.0035 -0.4224
   16CHTO   O44 6532   6.541   4.168   3.917  0.2028  0.6892  0.5206
   16CHTO  H102 6533   6.631   4.143   3.927  1.3011  2.1590 -4.1578
   16CHTO   C63 6534   6.573   4.289   4.133 -0.5248 -1.0798  0.3594
   16CHTO  H120 6535   6.510   4.324   4.215  0.8020 -0.3871  1.0994
   16CHTO   N11 6536   6.625   4.422   4.070  0.0290 -0.4816  0.0004
   16CHTO  H108 6537   6.544   4.491   4.062 -0.2771 -0.6664  1.3181
   16CHTO  H109 6538   6.671   4.400   3.976  0.3262 -0.4023  0.1258
   16CHTO   C61 6539   6.683   4.216   4.210 -0.3868  0.1704 -0.2161
   16CHTO  H118 6540   6.740   4.283   4.276  2.0363  0.1899 -2.2687
   16CHTO   O40 6541   6.634   4.105   4.297 -0.0200  0.4265  0.1188
   16CHTO   C68 6542   6.498   4.062   4.267 -0.0514 -0.0294  0.5217
   16CHTO  H125 6543   6.422   4.133   4.305 -0.8473 -1.3402  1.4310
   16CHTO   C72 6544   6.474   3.930   4.333 -0.9506 -0.3415 -0.0384
   16CHTO   O48 6545   6.570   3.836   4.288  0.1225 -0.3835  0.4307
   16CHTO  H105 6546   6.646   3.844   4.342 -0.6478 -1.0468  1.6406
   16CHTO   O38 6547   6.782   4.161   4.122 -0.1304 -0.1559 -0.2434
   16CHTO   C55 6548   6.908   4.111   4.182  0.6695  0.0867  0.3224
   16CHTO  H112 6549   6.890   4.042   4.266  0.6231 -0.2575  0.0338
   16CHTO   C56 6550   7.014   4.222   4.221 -0.1423  0.5868 -1.1722
   16CHTO  H113 6551   7.014   4.286   4.132  1.0462  0.2539 -1.4174
   16CHTO   O42 6552   6.955   4.298   4.336  0.0152  0.3134 -0.4072
   16CHTO  H100 6553   6.981   4.264   4.420 -2.1772  0.1427  0.2284
   16CHTO   C57 6554   7.164   4.171   4.249  0.0578  0.2438  0.2481
   16CHTO  H114 6555   7.174   4.116   4.343  0.5821 -2.2428 -1.2108
   16CHTO   N10 6556   7.259   4.286   4.263  0.5328  0.0368 -0.2185
   16CHTO  H106 6557   7.220   4.343   4.346  2.4998 -0.2392  0.9450
   16CHTO  H107 6558   7.356   4.246   4.289  1.6679  0.1026 -4.0758
   16CHTO   C58 6559   7.207   4.064   4.141  0.5118 -0.2251 -0.7619
   16CHTO  H115 6560   7.239   4.111   4.046  0.5208 -1.0257 -1.1597
   16CHTO   O37 6561   7.098   3.972   4.126  0.2025 -0.1202  0.4057
   16CHTO   C59 6562   6.974   4.028   4.071 -0.5732 -0.2849 -0.6039
   16CHTO  H116 6563   7.000   4.079   3.979 -0.6740  0.6694 -0.1152
   16CHTO   C70 6564   6.882   3.903   4.048 -0.3889  0.0799 -0.3785
   16CHTO   O46 6565   6.933   3.821   3.944  0.7900 -0.2737 -0.8197
   16CHTO  H103 6566   6.969   3.742   3.980 -2.7464 -2.1039 -1.0547
   16CHTO   O39 6567   7.332   3.972   4.198 -0.4823 -0.1120 -0.5189
   16CHTO   C60 6568   7.418   3.921   4.090  0.5661 -0.1008 -0.1355
   16CHTO  H117 6569   7.370   3.939   3.994  0.7529  1.5424  0.0655
   16CHTO   C62 6570   7.548   3.997   4.078 -0.0769  0.0236  0.3056
   16CHTO  H119 6571   7.511   4.099   4.056  0.3931 -0.1712 -1.4520
   16CHTO   O43 6572   7.608   4.006   4.210  0.1263 -0.2836 -0.0747
   16CHTO  H101 6573   7.615   3.918   4.244  0.0272 -1.4528 -2.9435
   16CHTO   C66 6574   7.650   3.947   3.963 -0.0961  0.3353  0.1563
   16CHTO  H123 6575   7.599   3.953   3.867  0.4837 -1.0031 -0.2535
   16CHTO   N12 6576   7.776   4.020   3.948  0.4266 -0.4083 -0.0387
   16CHTO  H110 6577   7.839   4.035   4.034  0.1279  0.3031  0.0651
   16CHTO  H111 6578   7.827   3.966   3.870  0.4876  0.1929 -0.4234
   16CHTO   C69 6579   7.669   3.798   4.002  0.0133  0.1575 -0.4066
   16CHTO  H126 6580   7.712   3.794   4.105 -0.7886 -0.0265 -0.0786
   16CHTO   O41 6581   7.537   3.710   3.996  0.2699 -0.8277 -0.2621
   16CHTO   C64 6582   7.434   3.767   4.104 -0.3561 -0.5412 -0.2093
   16CHTO  H121 6583   7.471   3.733   4.203 -1.0480  0.9306  0.5650
   16CHTO   C71 6584   7.294   3.702   4.079  0.1027 -0.0672  0.3257
   16CHTO   O47 6585   7.233   3.721   3.950  0.0536  0.2189 -0.4142
   16CHTO  H104 6586   7.234   3.634   3.916  1.8134 -0.5227  1.3878
   16CHTO   O34 6587   7.786   3.718   3.886 -0.3994 -0.1802 -0.4553
   16CHTO   C49 6588   7.765   3.680   3.730  0.1548 -0.2247  0.1624
   16CHTO   H91 6589   7.793   3.768   3.672 -0.5815  1.2438  1.9868
   16CHTO   C47 6590   7.620   3.642   3.697 -0.5382 -0.1074  0.5024
   16CHTO   H89 6591   7.624   3.626   3.587  0.8712 -2.4112  0.8606
   16CHTO   O33 6592   7.531   3.751   3.722 -0.9555 -0.0193 -0.5489
   16CHTO   H70 6593   7.456   3.731   3.669 -0.9969  1.0629 -0.9009
   16CHTO   C45 6594   7.591   3.500   3.779 -0.4045  0.2652  0.0050
   16CHTO   H87 6595   7.549   3.528   3.877 -2.9846  1.2444 -1.3071
   16CHTO    N8 6596   7.487   3.426   3.711  0.5279 -0.2838 -0.2947
   16CHTO   H75 6597   7.454   3.354   3.785  0.5408 -0.7769 -0.7698
   16CHTO   H76 6598   7.408   3.490   3.675 -0.3541  0.7990  3.3808
   16CHTO   C43 6599   7.735   3.420   3.820 -0.6440 -1.1073 -0.0793
   16CHTO   H85 6600   7.775   3.465   3.911  1.4493 -3.2861  0.1172
   16CHTO   O29 6601   7.826   3.438   3.711 -0.2507  0.0291  0.3972
   16CHTO   C50 6602   7.872   3.575   3.697  0.2481  0.4510  0.5846
   16CHTO   H92 6603   7.961   3.589   3.760  1.3436 -1.8138 -0.4233
   16CHTO   C54 6604   7.916   3.590   3.546  0.1536  0.0543  0.1613
   16CHTO   O36 6605   8.003   3.702   3.527 -0.2929  0.1838 -0.1211
   16CHTO   H72 6606   8.000   3.729   3.437  0.7222 -3.1948 -1.2467
   16CHTO   O27 6607   7.709   3.284   3.856  0.1356 -0.0162 -0.2244
   16CHTO   C37 6608   7.797   3.192   3.923  0.4234  0.3554 -0.3571
   16CHTO   H79 6609   7.896   3.237   3.939 -0.3259  1.8335  0.3000
   16CHTO   C38 6610   7.737   3.160   4.066  0.0532  0.2060  0.8908
   16CHTO   H80 6611   7.628   3.153   4.058  0.1656 -0.5630  0.0281
   16CHTO   O31 6612   7.765   3.273   4.140  0.0083  0.0945 -0.5184
   16CHTO   H68 6613   7.841   3.267   4.195 -1.2205  0.7840  1.3046
   16CHTO   C39 6614   7.788   3.028   4.138 -0.7572 -0.8083  0.2459
   16CHTO   H81 6615   7.889   3.052   4.170 -0.6467  4.1913 -3.1647
   16CHTO    N7 6616   7.720   2.987   4.264  0.0808  0.6810  0.2357
   16CHTO   H73 6617   7.704   3.062   4.340 -2.1070  1.1413 -0.6358
   16CHTO   H74 6618   7.630   2.933   4.237  1.4513 -1.3437 -0.4461
   16CHTO   C40 6619   7.791   2.905   4.031 -0.2290 -0.0569  0.1973
   16CHTO   H82 6620   7.697   2.859   4.000  0.5451 -0.8736 -0.9723
   16CHTO   O26 6621   7.863   2.952   3.916 -0.2088 -0.0129 -0.0177
   16CHTO   C41 6622   7.811   3.060   3.834 -0.0393 -1.0062 -0.4935
   16CHTO   H83 6623   7.708   3.034   3.806 -0.2428  0.7649 -1.4731
   16CHTO   C52 6624   7.902   3.066   3.709  0.5695  0.3135 -0.2044
   16CHTO   O35 6625   8.060   3.063   3.732 -0.0035  0.1715 -0.5754
   16CHTO   H71 6626   8.094   3.127   3.673  0.0107  0.6768 -0.0180
   16CHTO   O28 6627   7.873   2.796   4.069 -0.1813  0.3762  0.0516
   16CHTO   C42 6628   7.849   2.659   4.021  0.3975 -0.0104 -0.5598
   16CHTO   H84 6629   7.941   2.609   4.053  1.1462  0.8879 -1.3006
   16CHTO   C44 6630   7.843   2.638   3.863 -0.0374 -0.0893 -0.3914
   16CHTO   H86 6631   7.754   2.691   3.827  1.4789  0.9838 -2.7094
   16CHTO   O32 6632   7.953   2.699   3.802 -0.4063 -0.4054 -0.0760
   16CHTO   H69 6633   7.977   2.658   3.721  0.4302 -0.3288  0.1260
   16CHTO   C48 6634   7.833   2.478   3.836  0.1912 -0.0891  0.7706
   16CHTO   H90 6635   7.906   2.417   3.890 -0.7804 -1.8846  0.0886
   16CHTO    N9 6636   7.840   2.449   3.694 -0.2942 -0.4386 -0.3895
   16CHTO   H77 6637   7.857   2.343   3.688 -0.7162 -0.6177  1.3833
   16CHTO   H78 6638   7.924   2.501   3.649 -1.3238  1.5523 -0.1003
   16CHTO   C51 6639   7.696   2.433   3.908 -0.0851 -0.4669  0.4478
   16CHTO   H93 6640   7.617   2.489   3.857  0.8886  0.8948  0.3937
   16CHTO   O30 6641   7.715   2.467   4.043  0.0646 -0.1483 -0.2603
   16CHTO   C46 6642   7.729   2.587   4.087  0.0363  0.3101  0.3252
   16CHTO   H88 6643   7.634   2.638   4.069 -0.4355 -0.9885 -1.0223
   16CHTO   C53 6644   7.739   2.578   4.237 -0.1227  0.4848 -0.6756
   16CHTO   O72 6645   7.614   2.550   4.304  0.2388  0.3279  0.4494
   16CHTO  H199 6646   7.626   2.560   4.396  1.3031 -0.3449  0.3886
   16CHTO   O22 6647   7.688   2.289   3.900  1.1114  0.0541  0.4380
   16CHTO   C31 6648   7.563   2.217   3.958 -0.0710  0.1918  0.0786
   16CHTO   H59 6649   7.521   2.284   4.035  1.0098  1.7798 -0.7057
   16CHTO   C29 6650   7.453   2.187   3.853 -0.0127 -0.1169  0.5887
   16CHTO   H57 6651   7.507   2.152   3.764 -0.3276 -2.4749  1.2841
   16CHTO   O21 6652   7.394   2.316   3.826  0.4632  0.0590  0.1543
   16CHTO   H37 6653   7.308   2.299   3.793  0.5906 -1.4301  0.5571
   16CHTO   C27 6654   7.343   2.079   3.894 -0.0135  0.0476  0.1990
   16CHTO   H55 6655   7.276   2.123   3.969 -0.0264 -0.8775  0.7258
   16CHTO    N5 6656   7.265   2.038   3.777  0.5543  0.1461 -0.3394
   16CHTO   H43 6657   7.336   1.975   3.725 -0.2523 -0.4911 -0.6905
   16CHTO   H44 6658   7.191   1.970   3.817 -2.7830  2.7399 -1.8573
   16CHTO   C25 6659   7.408   1.962   3.975  0.7176 -0.4591  0.0353
   16CHTO   H53 6660   7.470   1.911   3.900  1.3035  1.0879 -0.5492
   16CHTO   O17 6661   7.488   2.017   4.076  0.0449  0.4188  0.3873
   16CHTO   C32 6662   7.603   2.085   4.034 -0.5090  0.4505 -0.0027
   16CHTO   H60 6663   7.662   2.023   3.966 -2.3306  0.1987 -1.4070
   16CHTO   C36 6664   7.701   2.128   4.149 -0.0436  0.2428  0.3915
   16CHTO   O25 6665   7.839   2.148   4.097  0.2089 -0.6059 -0.0224
   16CHTO   H40 6666   7.829   2.212   4.030 -3.5801  0.2469  1.2026
   16CHTO   O15 6667   7.285   1.873   4.043 -0.0435 -0.5161 -0.1473
   16CHTO   C19 6668   7.182   1.863   4.142 -0.2054  0.6947 -0.2637
   16CHTO   H47 6669   7.162   1.755   4.139  1.2090  0.4151  0.1132
   16CHTO   C20 6670   7.226   1.904   4.288  0.4909 -0.0812  0.6606
   16CHTO   H48 6671   7.281   1.999   4.284 -0.2309  0.2785 -3.3504
   16CHTO   O19 6672   7.311   1.806   4.326 -0.9914  0.1821  0.0161
   16CHTO   H35 6673   7.382   1.849   4.371 -2.4228  0.0415  2.5116
   16CHTO   C21 6674   7.112   1.905   4.393 -0.3253  0.1067 -0.0690
   16CHTO   H49 6675   7.089   1.802   4.421 -0.3959  0.2843  0.5337
   16CHTO    N4 6676   7.152   1.966   4.517  0.2097 -0.0044 -0.1972
   16CHTO   H41 6677   7.064   1.967   4.580 -0.2482 -2.6720 -0.7645
   16CHTO   H42 6678   7.177   2.070   4.503  2.4101 -0.3498  0.9631
   16CHTO   C22 6679   6.982   1.974   4.327 -0.1972 -0.4904 -0.1285
   16CHTO   H50 6680   7.010   2.079   4.316 -0.7881 -0.4485 -1.2528
   16CHTO   O14 6681   6.954   1.928   4.190  0.3420 -0.5240  0.5679
   16CHTO   C23 6682   7.059   1.942   4.099 -0.1378 -0.2446  0.6562
   16CHTO   H51 6683   7.082   2.049   4.088 -0.1270 -0.4059 -1.0498
   16CHTO   C34 6684   7.003   1.890   3.966  0.6143  0.6772 -0.1155
   16CHTO   O23 6685   7.016   1.748   3.943  0.1207 -0.0240  0.5792
   16CHTO   H38 6686   6.959   1.715   4.009  1.2444 -1.2523  0.9463
   16CHTO   O16 6687   6.880   1.960   4.427  0.2408  0.1668  0.1183
   16CHTO   C24 6688   6.748   2.059   4.374 -0.2286 -0.1584 -0.6766
   16CHTO   H52 6689   6.769   2.103   4.276 -0.5950 -0.9026 -1.0892
   16CHTO   C26 6690   6.741   2.177   4.480  0.2001 -0.5435 -0.0949
   16CHTO   H54 6691   6.720   2.128   4.578 -1.1033 -0.1584 -0.1656
   16CHTO   O20 6692   6.872   2.241   4.479 -0.4123  0.1717  0.1890
   16CHTO   H36 6693   6.937   2.173   4.486 -0.8911 -0.3684 -0.6297
   16CHTO   C30 6694   6.614   2.261   4.447 -0.1771 -0.0103 -1.1166
   16CHTO   H58 6695   6.623   2.290   4.341  0.7049 -1.7257 -1.5304
   16CHTO    N6 6696   6.597   2.370   4.551  0.0348  0.2302  0.5573
   16CHTO   H45 6697   6.569   2.335   4.649  1.3153 -0.0686  0.8307
   16CHTO   H46 6698   6.674   2.446   4.558  0.4667 -0.4028  3.2473
   16CHTO   C33 6699   6.488   2.169   4.443  0.0105  0.3853  0.5146
   16CHTO   H61 6700   6.473   2.124   4.542  0.5096 -0.3353  0.2631
   16CHTO   O18 6701   6.513   2.067   4.350 -0.0844 -0.4038  0.5200
   16CHTO   C28 6702   6.617   1.980   4.364  0.1301  0.5734 -0.2356
   16CHTO   H56 6703   6.607   1.912   4.449 -0.9237  2.9009  1.5521
   16CHTO   C35 6704   6.615   1.894   4.234  0.4412 -0.1738 -0.1669
   16CHTO   O24 6705   6.489   1.866   4.173 -0.0719 -0.1018 -0.4191
   16CHTO   H39 6706   6.454   1.945   4.135 -0.4073  0.3282  0.7616
   16CHTO    O9 6707   6.365   2.240   4.414  0.0614  0.4997 -0.0941
   16CHTO   C13 6708   6.229   2.222   4.533  0.1651 -0.2674  0.7186
   16CHTO   H26 6709   6.284   2.231   4.629  2.3536  1.0470 -0.6128
   16CHTO   C11 6710   6.161   2.079   4.519 -0.1559 -0.1868 -0.2181
   16CHTO   H24 6711   6.228   1.996   4.546  0.0700 -0.1374 -0.6177
   16CHTO    O8 6712   6.144   2.058   4.378  0.5279 -0.6177 -0.0857
   16CHTO    H3 6713   6.087   1.985   4.364  2.0426 -1.7370 -0.5456
   16CHTO    C9 6714   6.032   2.073   4.598  0.0877  0.4375 -0.6239
   16CHTO   H22 6715   6.060   2.099   4.701 -0.6008 -0.9212 -0.0662
   16CHTO    N2 6716   5.978   1.937   4.612  0.0957  0.6524 -0.0808
   16CHTO   H10 6717   5.928   1.929   4.708  2.7928  0.2681  1.3521
   16CHTO   H11 6718   5.919   1.903   4.528  0.6184  1.2197 -0.6841
   16CHTO    C7 6719   5.926   2.181   4.539  0.4160 -0.1983 -0.3480
   16CHTO   H20 6720   5.871   2.218   4.628 -0.4180  0.4334 -1.1208
   16CHTO    O4 6721   5.998   2.293   4.481 -0.2724 -0.1095  0.8119
   16CHTO   C14 6722   6.124   2.339   4.533 -0.1950  0.1844  0.2053
   16CHTO   H27 6723   6.097   2.375   4.634  0.1242 -0.7121  0.6230
   16CHTO   C18 6724   6.157   2.461   4.445 -0.4363 -0.5630 -0.5631
   16CHTO   O13 6725   6.276   2.528   4.500 -0.8317 -0.1985  0.1926
   16CHTO    H7 6726   6.301   2.604   4.451  1.1255 -0.8451  0.1131
   16CHTO    O2 6727   5.813   2.113   4.410  0.4379 -0.1614  0.2795
   16CHTO    C1 6728   5.674   2.142   4.414 -0.2773  0.4008  0.4154
   16CHTO   H14 6729   5.628   2.092   4.327  0.2277  1.2430 -0.3375
   16CHTO    C2 6730   5.642   2.296   4.415  0.0229 -0.0692  0.8887
   16CHTO   H15 6731   5.680   2.337   4.510 -0.2790  0.3034  0.8479
   16CHTO    O6 6732   5.711   2.347   4.301 -0.2605 -0.4175 -0.1135
   16CHTO    H1 6733   5.777   2.409   4.324  1.1287 -0.9415 -2.5550
   16CHTO    C3 6734   5.493   2.320   4.400  0.2721  0.3587  0.5361
   16CHTO   H16 6735   5.457   2.270   4.308  0.8788 -0.8180  0.9398
   16CHTO    N1 6736   5.444   2.456   4.378  0.0793 -0.1364 -0.2755
   16CHTO    H8 6737   5.499   2.506   4.300 -0.6946 -1.8546 -1.9666
   16CHTO    H9 6738   5.339   2.462   4.354 -0.0502  0.5778  0.4623
   16CHTO    C4 6739   5.417   2.258   4.525  0.1498  0.1502  0.1605
   16CHTO   H17 6740   5.431   2.323   4.611 -1.9905  0.0343  0.6353
   16CHTO    O1 6741   5.455   2.123   4.545  1.0004  0.3915  0.6108
   16CHTO    C5 6742   5.596   2.083   4.539 -0.4290 -0.3979  0.2344
   16CHTO   H18 6743   5.644   2.120   4.629  0.4633 -3.7160  1.1997
   16CHTO   C16 6744   5.613   1.933   4.547  0.5120  0.6419 -0.2851
   16CHTO   O11 6745   5.519   1.872   4.457 -0.7502 -0.1625 -0.5969
   16CHTO    H5 6746   5.441   1.853   4.504 -1.1085  1.2807 -0.5951
   16CHTO    O3 6747   5.275   2.251   4.506 -0.2595 -0.5093 -0.4291
   16CHTO    C6 6748   5.183   2.220   4.615 -0.1244  0.4392  0.0210
   16CHTO   H19 6749   5.237   2.166   4.693 -1.0911 -0.4848  0.0659
   16CHTO    C8 6750   5.132   2.350   4.693 -0.1464 -0.0856 -0.0576
   16CHTO   H21 6751   5.080   2.411   4.619 -0.1229 -1.6737 -1.4059
   16CHTO    O7 6752   5.245   2.420   4.755 -0.4116  0.3113 -0.7040
   16CHTO    H2 6753   5.246   2.512   4.736 -2.1955  1.7607  5.0492
   16CHTO   C12 6754   5.031   2.306   4.805 -0.9836 -0.8435 -0.6934
   16CHTO   H25 6755   5.089   2.255   4.885 -0.4302 -0.0782 -0.5959
   16CHTO    N3 6756   4.976   2.431   4.873 -0.2436 -0.0817  0.8121
   16CHTO   H12 6757   4.889   2.468   4.823 -0.0734  0.6999  1.0802
   16CHTO   H13 6758   5.056   2.504   4.874 -2.8640  2.8437  1.8116
   16CHTO   C15 6759   4.925   2.214   4.746  0.3819  0.3739 -0.4905
   16CHTO   H28 6760   4.844   2.270   4.699  0.4516  1.9171  1.1721
   16CHTO   O10 6761   4.857   2.149   4.851  0.1580  0.1900 -0.0589
   16CHTO    H4 6762   4.785   2.196   4.886 -0.3827 -0.8494  0.2460
   16CHTO    O5 6763   4.986   2.102   4.677 -0.4969  0.1106 -1.3236
   16CHTO   C10 6764   5.066   2.133   4.562 -0.3942  0.0324 -0.1569
   16CHTO   H23 6765   5.017   2.196   4.488 -0.7030  0.0914  0.0945
   16CHTO   C17 6766   5.109   2.003   4.497  0.0123  0.2481  0.0937
   16CHTO   O12 6767   4.994   1.931   4.445 -0.2988 -0.3030 -0.6099
   16CHTO    H6 6768   4.938   1.994   4.405 -1.8416 -0.5890  1.0656
   17CHTO  H203 6769   6.091   4.510  -0.035  0.6231 -2.8895 -0.1059
   17CHTO   O82 6770   6.044   4.500   0.046  0.4084 -0.0482  0.1711
   17CHTO  C123 6771   6.009   4.627   0.108  0.2342  0.5375 -0.4210
   17CHTO  H227 6772   5.989   4.611   0.215 -1.6164  1.2148 -0.6447
   17CHTO   O77 6773   6.131   4.711   0.098 -0.2826  0.0024  0.6688
   17CHTO  C118 6774   6.119   4.826   0.179  0.3253 -0.5420  0.7288
   17CHTO  H222 6775   6.083   4.806   0.281  1.5999 -0.6932  1.1571
   17CHTO  C125 6776   6.271   4.891   0.188  0.5222 -0.0670 -0.5056
   17CHTO   O84 6777   6.375   4.801   0.234  0.0647  0.5056 -0.3605
   17CHTO  H205 6778   6.399   4.744   0.163 -0.2041 -1.1127  0.8213
   17CHTO  C114 6779   6.022   4.925   0.116 -0.0030  0.4127  0.3234
   17CHTO  H218 6780   6.050   4.948   0.013 -1.5400  2.9131  0.4080
   17CHTO  C116 6781   5.878   4.856   0.101 -0.2175 -0.0158 -0.0926
   17CHTO  H220 6782   5.828   4.853   0.200 -1.6056 -1.9004 -0.8225
   17CHTO   O79 6783   5.794   4.933   0.012 -0.6011  0.2546  0.1979
   17CHTO  H201 6784   5.708   4.896   0.008  0.9006 -3.3849 -0.8701
   17CHTO  C120 6785   5.892   4.708   0.037  0.4249  0.6083  0.9621
   17CHTO  H224 6786   5.917   4.710  -0.071 -0.6482 -2.6892  0.5890
   17CHTO   N21 6787   5.762   4.628   0.041 -0.3164  1.0949 -0.2825
   17CHTO  H211 6788   5.693   4.638  -0.042 -0.4007  1.9179 -0.1236
   17CHTO  H212 6789   5.715   4.645   0.137 -0.3417 -0.6211  0.0203
   17CHTO   O75 6790   6.025   5.044   0.202 -0.3815 -0.2778 -0.2475
   17CHTO  C112 6791   5.999   5.194   0.100  0.2568 -0.6836  0.2851
   17CHTO  H216 6792   5.935   5.168   0.014 -0.2136  0.0143  0.4219
   17CHTO   O73 6793   6.129   5.235   0.058 -0.2641 -0.2441 -0.5829
   17CHTO  C113 6794   6.130   5.355  -0.024 -0.5317  0.2994  0.3473
   17CHTO  H217 6795   6.076   5.329  -0.118 -0.8599 -0.5210  0.7645
   17CHTO  C124 6796   6.275   5.377  -0.069 -0.6980 -0.5876 -0.3420
   17CHTO   O83 6797   6.378   5.420   0.021  0.1418  0.5222  0.0880
   17CHTO  H204 6798   6.339   5.444   0.103 -0.9846 -1.7351  0.2578
   17CHTO  C109 6799   6.068   5.476   0.048 -0.2494 -0.3623  0.3808
   17CHTO  H213 6800   6.133   5.504   0.132  0.4388  1.3175 -0.6738
   17CHTO  C110 6801   5.933   5.442   0.105  0.0485  0.1195 -0.4443
   17CHTO  H214 6802   5.865   5.449   0.020 -2.3486  0.4271  1.4310
   17CHTO   O78 6803   5.887   5.559   0.181  0.1322  0.8828 -0.1703
   17CHTO  H200 6804   5.925   5.563   0.267  1.0545 -1.8947 -0.3848
   17CHTO  C111 6805   5.935   5.307   0.183  0.4344 -0.3377  0.4518
   17CHTO  H215 6806   5.999   5.322   0.271  1.0579 -0.5588  0.0336
   17CHTO   N19 6807   5.805   5.269   0.233  0.1164  0.6580  0.4321
   17CHTO  H207 6808   5.809   5.260   0.341 -0.3016 -2.8405  0.1945
   17CHTO  H208 6809   5.762   5.183   0.185  0.9005  1.0952 -1.0790
   17CHTO   O74 6810   6.059   5.588  -0.047  0.1383 -0.1299 -0.5545
   17CHTO  C115 6811   6.163   5.707  -0.006  0.1751 -0.0738  0.4576
   17CHTO  H219 6812   6.203   5.697   0.095  1.6879  1.1804  0.0015
   17CHTO   O76 6813   6.289   5.704  -0.106 -0.0240  0.4126  0.1226
   17CHTO  C122 6814   6.364   5.826  -0.125  0.9205  0.0085  0.6099
   17CHTO  H226 6815   6.427   5.802  -0.211 -0.3013 -2.8316  0.4415
   17CHTO  C126 6816   6.460   5.849  -0.006 -0.2795 -0.0379 -0.1541
   17CHTO   O85 6817   6.531   5.736   0.038  0.5587 -0.5465  0.1758
   17CHTO  H206 6818   6.494   5.717   0.122 -0.6335  0.3777 -0.1473
   17CHTO  C121 6819   6.273   5.956  -0.143 -0.6373 -0.1616 -0.3831
   17CHTO  H225 6820   6.334   6.048  -0.144  1.0139 -1.2460 -1.7004
   17CHTO   O81 6821   6.209   5.938  -0.272 -0.1577 -0.7743  0.1956
   17CHTO  H202 6822   6.134   5.995  -0.272  0.5410  0.1519  0.1044
   17CHTO  C119 6823   6.171   5.966  -0.027  0.4514  0.1223  0.5738
   17CHTO  H223 6824   6.237   5.978   0.059  0.5576 -0.0985  0.5233
   17CHTO  C117 6825   6.077   5.836  -0.010  0.6205  0.0662  0.4072
   17CHTO  H221 6826   6.000   5.816  -0.084 -0.8275  0.2171  1.8562
   17CHTO   N20 6827   6.003   5.847   0.126  0.2763  0.3625  0.1744
   17CHTO  H209 6828   6.033   5.924   0.195  3.5744 -1.1014  0.4553
   17CHTO  H210 6829   5.895   5.836   0.118  0.1407 -0.0140  2.2035
   17CHTO   O80 6830   6.098   6.101  -0.024 -0.5183  0.3362 -0.2280
   17CHTO  C103 6831   6.145   6.219   0.063 -0.4787 -0.4302 -0.1996
   17CHTO  H190 6832   6.153   6.195   0.169  0.5893 -0.0203 -0.1779
   17CHTO  C101 6833   6.278   6.293   0.022  0.3180  0.3299  0.3741
   17CHTO  H188 6834   6.276   6.302  -0.086 -1.4224  0.8809  0.4424
   17CHTO   O68 6835   6.411   6.187   0.077 -0.1825  0.2248 -0.1217
   17CHTO  H168 6836   6.411   6.120   0.012  3.4310 -1.6689  1.6697
   17CHTO   C99 6837   6.292   6.435   0.084 -0.4261 -0.1622 -0.3004
   17CHTO  H186 6838   6.301   6.421   0.194  1.0739  0.9618 -0.2722
   17CHTO   N17 6839   6.419   6.508   0.050  0.8607  0.1431  0.1991
   17CHTO  H174 6840   6.416   6.613   0.071 -0.4907  0.2402 -0.4628
   17CHTO  H175 6841   6.500   6.459   0.102  0.0212 -1.3649  0.1302
   17CHTO   C97 6842   6.163   6.524   0.072 -0.6558  0.5228  0.1775
   17CHTO  H184 6843   6.155   6.539  -0.037 -2.1068 -1.2902 -0.0128
   17CHTO   O64 6844   6.052   6.445   0.124 -0.0820 -0.4024  0.1497
   17CHTO  C104 6845   6.028   6.324   0.048 -0.2358 -0.1536  0.0910
   17CHTO  H191 6846   6.024   6.360  -0.055 -0.6335 -0.6004 -0.0505
   17CHTO  C108 6847   5.886   6.269   0.081  0.0072  0.2627 -0.0895
   17CHTO   O71 6848   5.866   6.246   0.216  0.2019  0.2743  0.3180
   17CHTO  H171 6849   5.775   6.257   0.238 -0.3346 -1.5261 -0.8909
   17CHTO   O62 6850   6.162   6.644   0.144  0.2603 -0.3559 -0.3269
   17CHTO   C91 6851   6.073   6.755   0.110 -0.1341  0.1096 -0.1447
   17CHTO  H178 6852   6.008   6.717   0.031 -1.4381  1.1204  0.4199
   17CHTO   C92 6853   6.166   6.858   0.040  0.8464  0.2654  0.2511
   17CHTO  H179 6854   6.235   6.803  -0.025 -1.7953 -0.1316 -2.3350
   17CHTO   O66 6855   6.085   6.945  -0.037 -0.4255 -0.2881 -0.2700
   17CHTO  H166 6856   6.000   6.940   0.001 -1.7749 -0.0462 -3.1600
   17CHTO   C93 6857   6.242   6.954   0.137  0.5129 -0.8136 -0.4030
   17CHTO  H180 6858   6.289   7.039   0.085  0.3879  0.0432  0.8629
   17CHTO   N16 6859   6.371   6.902   0.196  0.0129  0.3323 -0.3762
   17CHTO  H172 6860   6.447   6.886   0.120  1.3851 -1.2642  1.2982
   17CHTO  H173 6861   6.406   6.967   0.275 -1.7685  0.1341  0.6049
   17CHTO   C94 6862   6.141   7.004   0.245 -0.4284 -0.4317  0.0000
   17CHTO  H181 6863   6.173   6.976   0.346 -0.9280 -2.3722 -0.3678
   17CHTO   O61 6864   6.003   6.968   0.228  0.7198 -0.2593 -0.4870
   17CHTO   C95 6865   5.985   6.827   0.225 -0.2473  0.2803  0.1059
   17CHTO  H182 6866   5.999   6.783   0.324  0.4417 -2.0483 -0.9817
   17CHTO  C106 6867   5.834   6.805   0.200  0.3323  0.1170  0.3933
   17CHTO   O69 6868   5.795   6.674   0.177  0.0443  0.0459  0.7649
   17CHTO  H169 6869   5.707   6.672   0.145  0.3694 -0.7837 -0.0862
   17CHTO   O63 6870   6.128   7.154   0.235 -0.0775  0.6020  0.3612
   17CHTO   C96 6871   6.101   7.220   0.370 -0.5958  0.1074 -0.3459
   17CHTO  H183 6872   6.073   7.145   0.444 -1.8480 -1.4632 -2.3851
   17CHTO   C98 6873   5.985   7.325   0.352 -0.1379 -0.1210 -0.0501
   17CHTO  H185 6874   5.991   7.377   0.255  2.6559  3.4068  1.8625
   17CHTO   O67 6875   5.860   7.250   0.345 -0.2936 -0.3563  0.5595
   17CHTO  H167 6876   5.869   7.185   0.278  0.6939  1.2798 -0.9367
   17CHTO  C102 6877   5.971   7.435   0.473 -0.1165  0.1236  0.5138
   17CHTO  H189 6878   5.912   7.382   0.549 -1.1500 -0.2959 -0.5667
   17CHTO   N18 6879   5.891   7.558   0.440 -0.3253 -0.4028  0.6918
   17CHTO  H176 6880   5.937   7.652   0.468 -0.7234 -0.1402  0.4828
   17CHTO  H177 6881   5.785   7.553   0.459 -0.5594  0.7850 -0.2061
   17CHTO  C105 6882   6.105   7.480   0.533 -0.0919 -0.1935  0.1223
   17CHTO  H192 6883   6.152   7.554   0.468 -2.3177 -0.4281 -1.8149
   17CHTO   O65 6884   6.205   7.375   0.545 -0.4376 -0.1215 -0.5464
   17CHTO  C100 6885   6.227   7.299   0.424 -0.5655 -0.2946 -0.3645
   17CHTO  H187 6886   6.260   7.368   0.345 -1.5086  0.0796 -0.4444
   17CHTO  C107 6887   6.337   7.202   0.451 -0.1004  0.6950 -0.2786
   17CHTO   O70 6888   6.473   7.250   0.422  0.5922 -0.2245 -0.4555
   17CHTO  H170 6889   6.531   7.177   0.411  1.6609  0.7407 -1.3089
   17CHTO   O57 6890   6.075   7.528   0.688  0.0346 -0.3985 -0.4245
   17CHTO   C85 6891   6.145   7.636   0.753  0.9689 -0.1529  0.0280
   17CHTO  H157 6892   6.076   7.720   0.727  0.0359 -1.0209 -0.3564
   17CHTO   C83 6893   6.295   7.667   0.696  0.2389  0.5012  0.4202
   17CHTO  H155 6894   6.286   7.704   0.594 -1.1687 -1.4425 -0.1953
   17CHTO   O56 6895   6.377   7.548   0.691 -0.1048  0.5942 -0.1583
   17CHTO  H135 6896   6.469   7.567   0.697  0.1187 -0.6039  0.3065
   17CHTO   C81 6897   6.354   7.778   0.784 -0.0619  0.3431  0.6785
   17CHTO  H153 6898   6.296   7.869   0.770  0.4621  0.9122  2.1681
   17CHTO   N14 6899   6.493   7.814   0.739 -0.0874 -0.4650 -0.2263
   17CHTO  H141 6900   6.551   7.725   0.726 -1.0090 -1.0318 -0.4898
   17CHTO  H142 6901   6.534   7.861   0.826 -2.8602  0.2247  0.7546
   17CHTO   C79 6902   6.349   7.750   0.938 -0.3386 -0.4391 -0.4578
   17CHTO  H151 6903   6.377   7.846   0.981  0.5765 -1.5492  1.4843
   17CHTO   O52 6904   6.210   7.719   0.988 -0.5104  0.2508 -0.3822
   17CHTO   C86 6905   6.145   7.607   0.908  0.4981  0.1238 -0.0874
   17CHTO  H158 6906   6.208   7.518   0.926  0.1716  0.2495  1.7016
   17CHTO   C90 6907   6.004   7.574   0.966  0.1552  0.3091  0.3889
   17CHTO   O60 6908   6.012   7.504   1.097 -0.1582  0.3972  0.0270
   17CHTO  H138 6909   5.949   7.435   1.098 -1.9824  2.0060 -0.2056
   17CHTO   O50 6910   6.434   7.641   0.983  0.0064 -0.4474  0.3835
   17CHTO   C73 6911   6.563   7.625   1.045  0.4888 -0.5842 -0.1034
   17CHTO  H145 6912   6.600   7.725   1.072 -0.6953  0.1689 -1.1754
   17CHTO   C74 6913   6.663   7.546   0.951 -0.1095  0.2049  0.4513
   17CHTO  H146 6914   6.663   7.610   0.862  1.5084  2.4225  1.9854
   17CHTO   O54 6915   6.796   7.550   1.001 -0.0228  0.3085  0.0426
   17CHTO  H133 6916   6.830   7.637   1.004 -1.0888  0.7066  0.9013
   17CHTO   C75 6917   6.595   7.404   0.918  0.9368  0.2510 -0.5044
   17CHTO  H147 6918   6.495   7.421   0.874  1.5727  1.0354 -1.6826
   17CHTO   N13 6919   6.661   7.328   0.815 -0.6466 -0.0285  0.4116
   17CHTO  H139 6920   6.756   7.283   0.843 -1.2451 -1.5377  0.0677
   17CHTO  H140 6921   6.688   7.386   0.729  1.1787 -1.2802  0.0973
   17CHTO   C76 6922   6.566   7.331   1.051  0.2670 -0.2281 -0.6879
   17CHTO  H148 6923   6.656   7.300   1.104  0.0529 -0.8063 -0.6651
   17CHTO   O49 6924   6.480   7.411   1.142  0.0025 -0.8404  0.4059
   17CHTO   C77 6925   6.544   7.541   1.176  0.5100  0.3260 -0.6424
   17CHTO  H149 6926   6.639   7.532   1.229  0.4077  0.5065 -0.4310
   17CHTO   C88 6927   6.464   7.615   1.271 -0.8083 -0.1079  0.0526
   17CHTO   O58 6928   6.447   7.549   1.414 -0.3119  0.1742 -0.4325
   17CHTO  H136 6929   6.522   7.559   1.469 -0.4684  0.3072 -0.2403
   17CHTO   O51 6930   6.483   7.197   1.015  0.5304  0.4804 -0.5420
   17CHTO   C78 6931   6.343   7.166   1.085  0.2065 -0.6313 -0.3849
   17CHTO  H150 6932   6.291   7.255   1.127  1.7522 -0.5135  1.3694
   17CHTO   C80 6933   6.361   7.058   1.193  0.0636  0.0710  0.6104
   17CHTO  H152 6934   6.410   6.974   1.140  0.6805  1.0887 -0.4566
   17CHTO   O55 6935   6.445   7.101   1.297  0.3309  0.5751 -0.5580
   17CHTO  H134 6936   6.508   7.037   1.325 -2.0477 -1.1704  0.9670
   17CHTO   C84 6937   6.223   7.003   1.247 -0.1327 -0.2807  0.4515
   17CHTO  H156 6938   6.181   7.092   1.295 -0.3387 -0.3342  0.3686
   17CHTO   N15 6939   6.240   6.894   1.345 -0.2709  0.8932 -0.0691
   17CHTO  H143 6940   6.298   6.816   1.300 -0.6740 -0.3507  1.5323
   17CHTO  H144 6941   6.139   6.859   1.359 -0.6939  1.2645 -2.0126
   17CHTO   C87 6942   6.133   6.971   1.126 -0.3395 -0.0718  0.2056
   17CHTO  H159 6943   6.186   6.890   1.075 -0.5651  0.6231 -1.1517
   17CHTO   O53 6944   6.128   7.104   1.033 -0.0721  0.4394  0.3009
   17CHTO   C82 6945   6.254   7.119   0.973  0.4501 -0.1213 -0.4883
   17CHTO  H154 6946   6.287   7.025   0.927  1.3718  0.1662 -0.4178
   17CHTO   C89 6947   6.222   7.218   0.855  0.2373 -0.4243 -0.8416
   17CHTO   O59 6948   6.115   7.164   0.775 -0.1324 -0.7279  0.3005
   17CHTO  H137 6949   6.085   7.226   0.711  0.0425 -1.2255 -0.2675
   17CHTO   O45 6950   5.970   6.931   1.156  0.1771 -0.0498 -0.4889
   17CHTO   C67 6951   5.895   6.863   1.052 -0.4570  0.2770 -0.3122
   17CHTO  H124 6952   5.798   6.837   1.094 -1.5213 -0.0442 -2.8913
   17CHTO   C65 6953   5.870   6.952   0.925 -0.1258 -0.1365 -0.4008
   17CHTO  H122 6954   5.949   7.025   0.910  0.4218 -0.8718 -1.1169
   17CHTO   O44 6955   5.739   7.011   0.943 -0.0431 -0.3953  0.0824
   17CHTO  H102 6956   5.754   7.100   0.971  0.6790  0.4868 -2.9551
   17CHTO   C63 6957   5.893   6.875   0.789 -0.4083  0.9055  0.4242
   17CHTO  H120 6958   6.000   6.858   0.783 -0.2358  2.2495 -0.4812
   17CHTO   N11 6959   5.869   6.962   0.665  0.4556  0.3836  0.1249
   17CHTO  H108 6960   5.767   6.952   0.636  0.2921  0.2283  0.7542
   17CHTO  H109 6961   5.925   6.930   0.579  0.8872  0.2492  0.4537
   17CHTO   C61 6962   5.827   6.733   0.799  1.2106 -0.1003 -0.7477
   17CHTO  H118 6963   5.860   6.682   0.707  1.4931  0.2411 -0.8371
   17CHTO   O40 6964   5.878   6.654   0.908 -0.6945  0.8426  0.2192
   17CHTO   C68 6965   5.962   6.724   1.014 -0.5422 -0.3837 -0.1227
   17CHTO  H125 6966   6.062   6.745   0.971 -0.2227 -1.8397 -0.1310
   17CHTO   C72 6967   5.984   6.632   1.137 -0.4828 -0.4201  0.2785
   17CHTO   O48 6968   5.856   6.584   1.187 -0.1057 -0.3961  0.2214
   17CHTO  H105 6969   5.824   6.643   1.253 -1.7588 -0.7530 -0.2407
   17CHTO   O38 6970   5.679   6.741   0.796 -0.3798  0.2590 -0.1226
   17CHTO   C55 6971   5.596   6.643   0.861 -0.3978 -0.0573  0.4591
   17CHTO  H112 6972   5.636   6.618   0.961  0.7827 -0.9287 -0.2154
   17CHTO   C56 6973   5.581   6.516   0.777  0.3141 -0.5454  0.3652
   17CHTO  H113 6974   5.549   6.555   0.680 -0.1880 -0.5331  0.5341
   17CHTO   O42 6975   5.701   6.449   0.767  0.3075 -0.0255 -0.3217
   17CHTO  H100 6976   5.744   6.468   0.685  2.3595 -1.5332  0.3567
   17CHTO   C57 6977   5.469   6.420   0.835 -0.6118 -0.0604  0.0445
   17CHTO  H114 6978   5.507   6.383   0.929  1.2195 -0.3464 -0.7895
   17CHTO   N10 6979   5.432   6.297   0.754  0.1335  0.3795 -0.4024
   17CHTO  H106 6980   5.332   6.258   0.765 -0.9451  3.1933  0.1193
   17CHTO  H107 6981   5.504   6.216   0.757  0.0299  0.2931 -0.2322
   17CHTO   C58 6982   5.342   6.507   0.857  0.0022  0.0551  0.1482
   17CHTO  H115 6983   5.306   6.547   0.759 -0.9837 -2.1130 -0.4072
   17CHTO   O37 6984   5.381   6.615   0.944  0.0780 -0.4599  0.1192
   17CHTO   C59 6985   5.463   6.717   0.894 -0.5710 -0.0224 -0.0397
   17CHTO  H116 6986   5.413   6.770   0.813 -2.7799 -2.4777 -0.3583
   17CHTO   C70 6987   5.478   6.821   1.002 -0.6327 -0.2735  0.6145
   17CHTO   O46 6988   5.355   6.857   1.053  0.0863  0.4598 -0.3296
   17CHTO  H103 6989   5.354   6.843   1.146 -1.2869 -1.4691 -0.6012
   17CHTO   O39 6990   5.211   6.443   0.942  0.1196  0.0982 -0.0652
   17CHTO   C60 6991   5.093   6.527   0.948  0.4754  0.3317 -0.2252
   17CHTO  H117 6992   5.117   6.628   0.917  1.3967  0.8915  2.1835
   17CHTO   C62 6993   4.982   6.474   0.849  0.1500  0.5409  0.9689
   17CHTO  H119 6994   5.025   6.499   0.750  1.2287  0.9080  1.5238
   17CHTO   O43 6995   4.955   6.331   0.854 -0.4563 -0.0152  0.9115
   17CHTO  H101 6996   4.951   6.299   0.942 -1.7220 -0.3442  0.7528
   17CHTO   C66 6997   4.856   6.563   0.861 -0.0041  0.2653 -0.0597
   17CHTO  H123 6998   4.890   6.664   0.839  1.5267 -0.4012 -0.8179
   17CHTO   N12 6999   4.741   6.534   0.768 -0.2871  0.7610 -0.2103
   17CHTO  H110 7000   4.685   6.626   0.774 -0.4709  0.6496 -0.2207
   17CHTO  H111 7001   4.776   6.510   0.669  0.6839 -1.6073  0.6826
   17CHTO   C69 7002   4.800   6.566   1.005  0.2310 -0.1380  0.8858
   17CHTO  H126 7003   4.766   6.464   1.031 -1.2047  0.4042  1.2022
   17CHTO   O41 7004   4.909   6.602   1.099 -0.6162 -0.3700  0.4473
   17CHTO   C64 7005   5.037   6.536   1.087  0.8799 -0.1670 -0.1881
   17CHTO  H121 7006   5.028   6.432   1.124  0.9010 -0.3424 -0.6785
   17CHTO   C71 7007   5.143   6.608   1.177  0.1693 -0.2160 -0.1125
   17CHTO   O47 7008   5.110   6.582   1.308  0.3070 -0.9848 -0.2739
   17CHTO  H104 7009   5.157   6.504   1.332 -2.7483 -3.1254 -1.1107
   17CHTO   O34 7010   4.683   6.673   1.031  0.1312  0.2955  0.3154
   17CHTO   C49 7011   4.577   6.769   1.098  0.2221 -0.3699  0.4987
   17CHTO   H91 7012   4.611   6.872   1.092 -1.4700  0.1958  0.3866
   17CHTO   C47 7013   4.568   6.740   1.250  0.2028  0.0640 -0.3337
   17CHTO   H89 7014   4.507   6.826   1.286  0.1408  0.2848 -0.9497
   17CHTO   O33 7015   4.693   6.757   1.318  0.5960 -0.1726 -0.1032
   17CHTO   H70 7016   4.760   6.793   1.263 -0.7435  1.1064 -0.9568
   17CHTO   C45 7017   4.507   6.593   1.274  0.3655 -0.2281  0.3518
   17CHTO   H87 7018   4.589   6.520   1.284  1.4080  0.8094 -0.4321
   17CHTO    N8 7019   4.435   6.607   1.401 -0.1565  0.7624  0.0093
   17CHTO   H75 7020   4.391   6.705   1.408  0.2163  0.9493 -0.2415
   17CHTO   H76 7021   4.502   6.596   1.485  0.3297  0.1350 -0.4515
   17CHTO   C43 7022   4.412   6.543   1.154 -0.6114  0.6904  0.9743
   17CHTO   H85 7023   4.483   6.497   1.086 -1.7245 -0.0454  0.2806
   17CHTO   O29 7024   4.344   6.650   1.088  0.1322 -0.1454  0.3866
   17CHTO   C50 7025   4.432   6.755   1.033  1.0449  0.1092  0.1667
   17CHTO   H92 7026   4.449   6.752   0.925  3.4458  0.0101  0.5326
   17CHTO   C54 7027   4.366   6.890   1.031 -0.3505 -0.2097 -0.2353
   17CHTO   O36 7028   4.343   6.949   1.162 -0.5139  0.1534 -0.1944
   17CHTO   H72 7029   4.395   6.910   1.230 -0.9372 -1.8557 -0.9762
   17CHTO   O27 7030   4.313   6.448   1.185  0.0101  0.3406  0.5622
   17CHTO   C37 7031   4.268   6.332   1.121  0.1559  0.7735  0.9358
   17CHTO   H79 7032   4.191   6.281   1.179 -0.4234 -0.2133 -0.6781
   17CHTO   C38 7033   4.215   6.375   0.981  0.0348  0.0480 -0.1273
   17CHTO   H80 7034   4.285   6.444   0.931  0.6535  0.9029  1.8852
   17CHTO   O31 7035   4.089   6.455   0.999  0.3460  0.0180  0.3552
   17CHTO   H68 7036   4.042   6.461   0.918 -0.4845 -1.2574  0.7306
   17CHTO   C39 7037   4.180   6.264   0.877  0.5047  0.2900 -0.7647
   17CHTO   H81 7038   4.085   6.228   0.916  0.9465  0.0185  0.0947
   17CHTO    N7 7039   4.156   6.315   0.734  0.4381 -0.0635  0.3752
   17CHTO   H73 7040   4.062   6.280   0.694  0.7801 -0.8917  0.2995
   17CHTO   H74 7041   4.176   6.420   0.719 -1.7206  0.4692  0.9642
   17CHTO   C40 7042   4.284   6.139   0.891  0.4121 -0.1303 -0.2035
   17CHTO   H82 7043   4.368   6.159   0.825  1.7630 -0.0142  1.5213
   17CHTO   O26 7044   4.332   6.118   1.029  0.0756  0.0295  0.5954
   17CHTO   C41 7045   4.381   6.231   1.098 -0.1851  0.2162  0.2305
   17CHTO   H83 7046   4.452   6.284   1.032  0.7256 -0.3202  0.7770
   17CHTO   C52 7047   4.466   6.185   1.216 -0.3245 -0.5536 -0.0947
   17CHTO   O35 7048   4.605   6.123   1.183 -0.2389 -0.0682 -0.0395
   17CHTO   H71 7049   4.665   6.166   1.241  2.6196 -0.5952 -2.5238
   17CHTO   O28 7050   4.224   6.023   0.837  0.2997 -0.1700 -0.1514
   17CHTO   C42 7051   4.288   5.895   0.798  0.5203 -0.1897 -0.6498
   17CHTO   H84 7052   4.200   5.833   0.780  0.6480 -1.0251  1.4125
   17CHTO   C44 7053   4.367   5.816   0.906  0.5053  0.2784  0.2651
   17CHTO   H86 7054   4.420   5.887   0.968  1.4615 -0.5547  0.4260
   17CHTO   O32 7055   4.279   5.754   0.999  0.4598 -0.1324  0.0176
   17CHTO   H69 7056   4.328   5.706   1.063  1.1550 -1.2425 -1.3466
   17CHTO   C48 7057   4.480   5.712   0.866 -0.9340 -0.6074 -0.6663
   17CHTO   H90 7058   4.433   5.617   0.843  0.3461 -1.6526  0.8986
   17CHTO    N9 7059   4.574   5.685   0.987 -0.1142 -0.2545 -0.5285
   17CHTO   H77 7060   4.524   5.696   1.082 -1.7685  0.2247 -1.4412
   17CHTO   H78 7061   4.606   5.582   0.979 -0.0394 -0.1342 -1.9106
   17CHTO   C51 7062   4.555   5.770   0.734 -0.1260  0.1666  0.0823
   17CHTO   H93 7063   4.601   5.863   0.768 -0.5401  1.1605 -2.0306
   17CHTO   O30 7064   4.444   5.795   0.642 -0.0520  0.2680 -0.6403
   17CHTO   C46 7065   4.362   5.911   0.670 -1.0572  0.3483  0.2526
   17CHTO   H88 7066   4.432   5.989   0.697 -2.1503  1.1434  0.8325
   17CHTO   C53 7067   4.276   5.949   0.539  0.4824  0.3528  0.2679
   17CHTO   O72 7068   4.365   5.980   0.436  0.2264  0.4162 -0.5410
   17CHTO  H199 7069   4.329   5.950   0.355  0.7007 -1.8824  0.0552
   17CHTO   O22 7070   4.646   5.682   0.669 -0.1489  0.2808  0.2605
   17CHTO   C31 7071   4.744   5.731   0.582 -0.0826 -0.5826 -0.5025
   17CHTO   H59 7072   4.809   5.644   0.559  0.0014 -0.2698 -1.4721
   17CHTO   C29 7073   4.686   5.781   0.445  0.5711  0.3065  0.1666
   17CHTO   H57 7074   4.610   5.857   0.470  0.0972 -0.3843  0.8785
   17CHTO   O21 7075   4.611   5.670   0.385 -0.2013 -0.7008 -0.4291
   17CHTO   H37 7076   4.588   5.702   0.299  0.4629  1.7315  0.2496
   17CHTO   C27 7077   4.803   5.842   0.356  0.2173 -0.6101  0.0120
   17CHTO   H55 7078   4.877   5.763   0.338 -0.9259 -1.7902  0.4838
   17CHTO    N5 7079   4.753   5.900   0.231  0.2572 -0.2553  0.5367
   17CHTO   H43 7080   4.730   5.816   0.167 -1.5155  0.2065  0.5299
   17CHTO   H44 7081   4.659   5.952   0.243  0.0952 -0.2965 -0.4820
   17CHTO   C25 7082   4.880   5.952   0.444 -0.1213 -0.2268  0.3128
   17CHTO   H53 7083   4.803   6.022   0.481  0.6182  0.0675  1.3278
   17CHTO   O17 7084   4.938   5.882   0.551  0.2101  0.5258  0.2611
   17CHTO   C32 7085   4.844   5.841   0.647 -0.1921  0.0796  0.7296
   17CHTO   H60 7086   4.785   5.926   0.682 -0.3679  0.7268 -1.0430
   17CHTO   C36 7087   4.920   5.779   0.770  0.3987  0.2618 -0.0177
   17CHTO   O25 7088   5.009   5.672   0.740 -0.0126 -0.3903 -0.4164
   17CHTO   H40 7089   4.967   5.589   0.755  0.1493 -0.6989 -1.6132
   17CHTO   O15 7090   4.984   6.033   0.371  0.5669 -0.3829  0.1702
   17CHTO   C19 7091   5.013   6.176   0.368 -0.3756 -0.7690 -0.5816
   17CHTO   H47 7092   5.081   6.177   0.282 -0.3343  1.7880 -0.5769
   17CHTO   C20 7093   4.893   6.269   0.340 -0.1611  0.3442 -0.2971
   17CHTO   H48 7094   4.813   6.261   0.415  1.1250  1.3027  1.2283
   17CHTO   O19 7095   4.827   6.223   0.223  0.0533 -0.3313  0.1393
   17CHTO   H35 7096   4.750   6.176   0.250  0.9434 -1.6131  0.5167
   17CHTO   C21 7097   4.939   6.414   0.322 -0.9221  1.3017  0.2578
   17CHTO   H49 7098   5.006   6.421   0.236 -0.3055 -0.9156  0.5418
   17CHTO    N4 7099   4.824   6.511   0.306  0.3917  0.0799 -0.2529
   17CHTO   H41 7100   4.831   6.583   0.386 -1.5066 -1.1464  1.0564
   17CHTO   H42 7101   4.723   6.471   0.305  0.1302  0.7246  0.5794
   17CHTO   C22 7102   5.044   6.450   0.437 -0.7926 -0.1590 -0.5483
   17CHTO   H50 7103   4.979   6.473   0.522 -1.1050  0.0802 -0.8488
   17CHTO   O14 7104   5.146   6.354   0.461 -0.2997 -0.7450  0.4057
   17CHTO   C23 7105   5.096   6.222   0.486  0.2156  0.1646 -0.3409
   17CHTO   H51 7106   5.041   6.227   0.581  0.9508 -2.2328  0.2348
   17CHTO   C34 7107   5.220   6.138   0.502 -0.5223  0.4849 -0.6851
   17CHTO   O23 7108   5.179   6.020   0.569 -0.0391  0.4321  0.2252
   17CHTO   H38 7109   5.241   6.000   0.636  1.5424 -2.2991 -1.9330
   17CHTO   O16 7110   5.115   6.567   0.396  0.0841 -0.2587 -0.3063
   17CHTO   C24 7111   5.169   6.672   0.510  0.0197  0.0383 -0.0002
   17CHTO   H52 7112   5.182   6.626   0.608  2.2023 -0.5260 -0.5218
   17CHTO   C26 7113   5.079   6.796   0.510 -0.3605 -0.6841  0.0061
   17CHTO   H54 7114   5.074   6.838   0.407 -1.4552 -0.3413  0.1823
   17CHTO   O20 7115   4.951   6.734   0.537 -0.3691 -0.0884  0.3643
   17CHTO   H36 7116   4.933   6.679   0.463  2.4813 -1.2529  0.4963
   17CHTO   C30 7117   5.131   6.892   0.617  0.1738 -0.2626 -0.7584
   17CHTO   H58 7118   5.121   6.850   0.718 -0.2887 -2.0799 -1.5382
   17CHTO    N6 7119   5.039   7.011   0.613 -0.1165 -1.0273  0.0891
   17CHTO   H45 7120   5.071   7.072   0.530 -0.1758 -1.0193  0.0725
   17CHTO   H46 7121   5.052   7.073   0.701 -0.4439  2.8203 -2.4288
   17CHTO   C33 7122   5.280   6.932   0.590 -0.0367 -0.8910  0.1684
   17CHTO   H61 7123   5.290   6.996   0.501  2.5159 -1.9900 -0.3807
   17CHTO   O18 7124   5.351   6.809   0.570  0.1571 -0.1916 -0.0511
   17CHTO   C28 7125   5.304   6.722   0.468 -0.1567  0.2486  0.2098
   17CHTO   H56 7126   5.299   6.777   0.374  0.9849  0.0033  0.0066
   17CHTO   C35 7127   5.396   6.597   0.454 -0.2323 -0.3958 -0.2148
   17CHTO   O24 7128   5.529   6.628   0.419  0.1178 -0.1793 -0.1407
   17CHTO   H39 7129   5.524   6.694   0.353  0.5695 -0.8201 -0.8179
   17CHTO    O9 7130   5.340   7.013   0.693  0.7650 -0.3064  0.3357
   17CHTO   C13 7131   5.425   7.131   0.653  0.0161  0.0532 -0.2923
   17CHTO   H26 7132   5.482   7.113   0.560  0.9103  1.2627  0.0088
   17CHTO   C11 7133   5.527   7.157   0.766 -0.3410  0.7454  1.2169
   17CHTO   H24 7134   5.594   7.071   0.757 -0.2431  1.0044 -0.7665
   17CHTO    O8 7135   5.460   7.178   0.886  0.9289  0.0296 -0.7191
   17CHTO    H3 7136   5.523   7.178   0.955  0.2554  3.4901  0.0106
   17CHTO    C9 7137   5.613   7.282   0.731  0.3519  0.4321  0.1682
   17CHTO   H22 7138   5.660   7.253   0.635 -2.2278 -1.8267 -0.4594
   17CHTO    N2 7139   5.731   7.305   0.816 -0.4212  0.2216 -0.0237
   17CHTO   H10 7140   5.712   7.389   0.881  2.2463  2.4834 -2.0697
   17CHTO   H11 7141   5.816   7.330   0.755  0.1812  0.0269  0.7309
   17CHTO    C7 7142   5.519   7.410   0.710  1.1500 -0.4337 -0.3700
   17CHTO   H20 7143   5.584   7.488   0.665  1.6630 -0.1743  0.7943
   17CHTO    O4 7144   5.416   7.381   0.613  0.0473  0.1221 -0.2265
   17CHTO   C14 7145   5.332   7.261   0.620  0.0754  0.4304  0.0673
   17CHTO   H27 7146   5.284   7.242   0.522 -0.8959 -0.6794  0.7465
   17CHTO   C18 7147   5.223   7.288   0.719 -0.4271 -0.8999 -0.2618
   17CHTO   O13 7148   5.105   7.336   0.661 -0.4663  0.0657  0.2949
   17CHTO    H7 7149   5.045   7.366   0.726 -0.8091 -0.7591  0.3629
   17CHTO    O2 7150   5.450   7.460   0.850 -0.0116 -0.2306  0.3535
   17CHTO    C1 7151   5.441   7.603   0.860 -0.2904  0.2962 -0.5755
   17CHTO   H14 7152   5.423   7.654   0.763  2.9253  1.3210 -0.6984
   17CHTO    C2 7153   5.573   7.663   0.928 -0.2692 -0.4412 -0.0907
   17CHTO   H15 7154   5.602   7.607   1.019 -0.2212 -0.2356  0.0214
   17CHTO    O6 7155   5.670   7.655   0.824  0.0222  0.3405 -0.5858
   17CHTO    H1 7156   5.667   7.731   0.769 -1.0284  1.3634  0.8519
   17CHTO    C3 7157   5.551   7.817   0.966  0.1920 -0.5521 -0.2236
   17CHTO   H16 7158   5.533   7.875   0.874  0.3563  0.0980  0.1541
   17CHTO    N1 7159   5.673   7.877   1.036  0.2408 -0.3143 -0.3948
   17CHTO    H8 7160   5.683   7.862   1.142  1.4268  1.2178 -0.2591
   17CHTO    H9 7161   5.716   7.968   0.995 -0.0195  0.1448  0.3516
   17CHTO    C4 7162   5.419   7.837   1.049 -0.1224 -0.0234 -0.4432
   17CHTO   H17 7163   5.431   7.784   1.144  1.5111 -0.7923 -1.0659
   17CHTO    O1 7164   5.313   7.770   0.973  0.0083  0.3227  0.2853
   17CHTO    C5 7165   5.314   7.635   0.925  0.4816 -0.0400  0.3443
   17CHTO   H18 7166   5.300   7.576   1.016  0.1351 -0.9192 -0.2741
   17CHTO   C16 7167   5.191   7.621   0.834  0.2838 -0.2371  0.8158
   17CHTO   O11 7168   5.069   7.626   0.909 -0.8961 -0.7477 -0.7798
   17CHTO    H5 7169   5.085   7.587   0.992 -2.9182  0.5879  0.2883
   17CHTO    O3 7170   5.381   7.976   1.063 -0.2691 -0.2134 -0.7499
   17CHTO    C6 7171   5.312   8.032   1.182 -0.1677  0.1615  0.4553
   17CHTO   H19 7172   5.225   8.085   1.145 -0.3144 -1.4688 -1.6801
   17CHTO    C8 7173   5.257   7.936   1.284 -0.3285 -1.2703 -0.3580
   17CHTO   H21 7174   5.333   7.867   1.320  0.2966 -1.1298 -1.3880
   17CHTO    O7 7175   5.159   7.857   1.212  0.0793 -0.0486 -0.4322
   17CHTO    H2 7176   5.085   7.908   1.184 -0.2104  0.5635  1.4039
   17CHTO   C12 7177   5.195   8.005   1.410  0.2191  0.8555 -0.2458
   17CHTO   H25 7178   5.099   8.052   1.383 -1.1733 -1.0060  1.3478
   17CHTO    N3 7179   5.154   7.898   1.508  0.0280 -0.4088  0.0922
   17CHTO   H12 7180   5.200   7.804   1.483 -2.2898 -1.4081 -0.4775
   17CHTO   H13 7181   5.048   7.884   1.518  0.5154 -3.6675  1.4660
   17CHTO   C15 7182   5.300   8.109   1.469  0.2086  0.5827 -0.2170
   17CHTO   H28 7183   5.390   8.068   1.515 -2.2757 -2.4953  2.1627
   17CHTO   O10 7184   5.245   8.209   1.558 -0.2928 -0.5113 -0.2556
   17CHTO    H4 7185   5.154   8.189   1.570 -0.6528  0.9658 -0.3744
   17CHTO    O5 7186   5.336   8.197   1.361 -0.2876  0.8115  0.2816
   17CHTO   C10 7187   5.404   8.133   1.253  0.0587 -0.4988  0.3316
   17CHTO   H23 7188   5.488   8.079   1.298  0.7154  1.9875  2.1810
   17CHTO   C17 7189   5.466   8.242   1.160  0.3164 -0.3372  0.0687
   17CHTO   O12 7190   5.381   8.278   1.053 -0.3062  0.1876 -0.2647
   17CHTO    H6 7191   5.363   8.204   0.998 -2.6278  0.3081  0.2873
   18CHTO  H203 7192   6.605   7.950   1.816  0.5010 -1.3740  1.1242
   18CHTO   O82 7193   6.690   7.976   1.784 -0.3041  0.2031  0.2052
   18CHTO  C123 7194   6.674   7.993   1.639 -0.1116  0.0905 -0.5850
   18CHTO  H227 7195   6.568   7.989   1.611 -0.3065  0.4384  0.0861
   18CHTO   O77 7196   6.733   8.124   1.608 -0.9347 -0.5069 -0.1529
   18CHTO  C118 7197   6.722   8.158   1.473 -0.8378 -0.2650  0.2477
   18CHTO  H222 7198   6.615   8.159   1.447 -0.4105 -0.3113 -1.5796
   18CHTO  C125 7199   6.785   8.308   1.453  0.1270 -0.3726 -0.2757
   18CHTO   O84 7200   6.702   8.388   1.539  0.7958  0.3267 -0.2786
   18CHTO  H205 7201   6.727   8.478   1.539 -0.2931  0.6419 -0.2469
   18CHTO  C114 7202   6.796   8.063   1.379 -0.3674  0.3431 -0.0496
   18CHTO  H218 7203   6.902   8.082   1.396 -0.0476  1.0134 -2.6103
   18CHTO  C116 7204   6.759   7.907   1.407 -0.4170  0.8661 -0.2640
   18CHTO  H220 7205   6.660   7.885   1.363  0.4324 -0.0147 -1.7824
   18CHTO   O79 7206   6.854   7.822   1.341 -0.1498  0.2515 -0.2052
   18CHTO  H201 7207   6.807   7.798   1.263 -1.7648  1.1759  0.4681
   18CHTO  C120 7208   6.753   7.877   1.563  0.8915  0.0855 -0.0903
   18CHTO  H224 7209   6.859   7.867   1.594  1.5373 -2.0515 -2.7253
   18CHTO   N21 7210   6.690   7.742   1.589  0.3900 -0.1419  0.4563
   18CHTO  H211 7211   6.587   7.760   1.616  0.1187 -1.8345  0.5774
   18CHTO  H212 7212   6.741   7.706   1.677  0.5324 -0.4146  0.2623
   18CHTO   O75 7213   6.767   8.102   1.240 -0.3037 -0.1539 -0.3747
   18CHTO  C112 7214   6.896   8.115   1.144  0.7622  0.1203  0.0692
   18CHTO  H216 7215   6.972   8.046   1.183 -0.8085 -2.6295 -1.6013
   18CHTO   O73 7216   6.940   8.248   1.149 -0.0153 -0.0712 -0.5527
   18CHTO  C113 7217   7.048   8.280   1.052 -0.1300  0.6709  0.2741
   18CHTO  H217 7218   7.139   8.220   1.074 -0.2181  0.9098  1.3208
   18CHTO  C124 7219   7.086   8.429   1.058  0.1703 -0.3352  0.1022
   18CHTO   O83 7220   7.135   8.481   1.187 -0.5754 -0.3116  0.2403
   18CHTO  H204 7221   7.119   8.573   1.179 -0.2946 -0.3845 -1.3857
   18CHTO  C109 7222   6.992   8.250   0.907 -0.2267  0.1626 -0.7620
   18CHTO  H213 7223   6.900   8.308   0.893  0.9859  1.9616 -1.5190
   18CHTO  C110 7224   6.952   8.109   0.891 -0.3383 -0.7334  0.8277
   18CHTO  H214 7225   7.046   8.056   0.904 -0.0913 -0.3478  0.6163
   18CHTO   O78 7226   6.911   8.082   0.754 -0.2033 -0.1537  0.4415
   18CHTO  H200 7227   6.985   8.079   0.697 -1.7238  0.2696 -1.5876
   18CHTO  C111 7228   6.851   8.069   1.000  0.1484 -0.1382 -0.1715
   18CHTO  H215 7229   6.755   8.118   0.978  0.7498  0.6535 -1.0960
   18CHTO   N19 7230   6.822   7.928   1.002  0.3996  0.7295 -0.3562
   18CHTO  H207 7231   6.717   7.903   0.996 -0.0266  2.3057  0.3810
   18CHTO  H208 7232   6.871   7.876   1.083 -0.5349 -0.4039 -0.5010
   18CHTO   O74 7233   7.095   8.293   0.807  0.3463  0.7245  0.1310
   18CHTO  C115 7234   7.020   8.352   0.672  0.0710  0.2809 -0.0796
   18CHTO  H219 7235   6.965   8.275   0.619 -1.3962 -0.6032  2.6366
   18CHTO   O76 7236   6.905   8.475   0.703  0.2851  0.4447  0.0987
   18CHTO  C122 7237   6.846   8.531   0.582 -0.4673  0.7606  0.5375
   18CHTO  H226 7238   6.782   8.610   0.620  0.2213  0.7794  1.6878
   18CHTO  C126 7239   6.747   8.436   0.531 -0.0080  0.5227 -0.1167
   18CHTO   O85 7240   6.684   8.473   0.409 -0.0811  0.1926 -0.6083
   18CHTO  H206 7241   6.714   8.419   0.338  1.1808  0.0860  0.0042
   18CHTO  C121 7242   6.956   8.580   0.479 -0.7261  0.5674 -0.0726
   18CHTO  H225 7243   6.906   8.610   0.384 -1.1123 -2.4556 -0.8715
   18CHTO   O81 7244   7.024   8.697   0.524  0.0106  0.2558  0.2030
   18CHTO  H202 7245   7.067   8.686   0.607 -0.7523  1.9232  0.8335
   18CHTO  C119 7246   7.050   8.463   0.440 -0.3931 -0.8380 -0.2157
   18CHTO  H223 7247   6.986   8.392   0.387 -1.9552  0.8465 -0.6403
   18CHTO  C117 7248   7.127   8.406   0.571  0.8220  0.4376 -0.4692
   18CHTO  H221 7249   7.183   8.480   0.628  1.3462 -0.7645  0.6174
   18CHTO   N20 7250   7.231   8.302   0.533  0.2130  0.0532 -0.3444
   18CHTO  H209 7251   7.226   8.209   0.587 -0.1256  0.8643  1.0610
   18CHTO  H210 7252   7.330   8.345   0.525 -0.0484  0.6076 -0.6349
   18CHTO   O80 7253   7.141   8.516   0.321 -0.0726 -0.0202  0.0147
   18CHTO  C103 7254   7.127   8.455   0.177  0.0548  0.4851 -0.0774
   18CHTO  H190 7255   7.198   8.505   0.110  0.9906 -2.6178 -1.5322
   18CHTO  C101 7256   7.178   8.302   0.151  0.2022  0.6193  0.6294
   18CHTO  H188 7257   7.156   8.231   0.231  1.7677 -0.1474  0.3940
   18CHTO   O68 7258   7.346   8.294   0.146  0.0873  0.0053 -0.1068
   18CHTO  H168 7259   7.380   8.248   0.220  1.5144  0.5163 -0.4451
   18CHTO   C99 7260   7.116   8.234   0.016  0.1121 -0.2053 -0.2000
   18CHTO  H186 7261   7.163   8.288  -0.068  0.6694  0.5756  0.6091
   18CHTO   N17 7262   7.135   8.083   0.016 -0.1594  0.0452 -0.3872
   18CHTO  H174 7263   7.047   8.033  -0.022  0.1805 -0.3592 -0.6569
   18CHTO  H175 7264   7.228   8.051  -0.029  0.4087  0.3383  0.5621
   18CHTO   C97 7265   6.964   8.272   0.006  0.0718  0.0263 -0.5161
   18CHTO  H184 7266   6.926   8.239   0.104 -0.8728  1.0993 -0.5076
   18CHTO   O64 7267   6.961   8.416  -0.008  0.5608  0.1552 -0.0212
   18CHTO  C104 7268   6.980   8.480   0.119  0.7079  0.2953 -0.1988
   18CHTO  H191 7269   6.907   8.443   0.191 -0.5096  0.5893 -1.2865
   18CHTO  C108 7270   6.965   8.636   0.109  0.0012 -0.0488 -0.1955
   18CHTO   O71 7271   7.051   8.709   0.024 -0.5751  0.5608  0.3369
   18CHTO  H171 7272   7.027   8.796   0.049 -0.6323 -0.4119  3.8867
   18CHTO   O62 7273   6.887   8.227  -0.108  0.5493 -0.0389  0.0721
   18CHTO   C91 7274   6.751   8.196  -0.067 -0.1496 -0.4454  0.2480
   18CHTO  H178 7275   6.736   8.213   0.039 -0.5629 -2.8200  0.5848
   18CHTO   C92 7276   6.721   8.046  -0.099  0.1027 -0.5133 -0.1349
   18CHTO  H179 7277   6.761   8.023  -0.199 -0.5533  0.2662 -0.5874
   18CHTO   O66 7278   6.808   7.960  -0.020  0.2810 -0.3115 -0.6450
   18CHTO  H166 7279   6.809   7.871  -0.048  0.4057 -1.0441  1.6256
   18CHTO   C93 7280   6.566   8.013  -0.084 -0.3031 -0.1412 -0.3860
   18CHTO  H180 7281   6.543   8.017   0.024 -0.7662 -2.7943 -0.3644
   18CHTO   N16 7282   6.528   7.878  -0.131 -0.1324 -0.0190 -0.5928
   18CHTO  H172 7283   6.560   7.796  -0.067  0.8592 -0.4123 -1.5741
   18CHTO  H173 7284   6.566   7.865  -0.231  0.5052  0.4788 -0.4198
   18CHTO   C94 7285   6.476   8.119  -0.157  0.5326  0.2900  0.1721
   18CHTO  H181 7286   6.491   8.111  -0.264 -0.5757  0.0890  0.0231
   18CHTO   O61 7287   6.515   8.248  -0.117  0.8640 -0.4636 -0.0277
   18CHTO   C95 7288   6.649   8.293  -0.147 -0.6984 -0.2812 -0.0406
   18CHTO  H182 7289   6.665   8.284  -0.255  2.2259 -1.3900  0.4531
   18CHTO  C106 7290   6.648   8.455  -0.116  1.1609 -0.1877 -0.3649
   18CHTO   O69 7291   6.556   8.517  -0.207  0.0482 -0.7899  0.1863
   18CHTO  H169 7292   6.479   8.546  -0.163 -0.3578 -0.4343 -0.7526
   18CHTO   O63 7293   6.308   8.108  -0.118  0.5040 -0.2137  0.2373
   18CHTO   C96 7294   6.244   8.260  -0.112  0.8876  0.8392 -0.6369
   18CHTO  H183 7295   6.300   8.332  -0.172  1.6787  1.5740  0.9559
   18CHTO   C98 7296   6.227   8.318   0.039 -0.5012 -0.1052 -0.1056
   18CHTO  H185 7297   6.165   8.248   0.097 -0.3666  1.8825  2.5204
   18CHTO   O67 7298   6.355   8.316   0.103 -0.0362 -0.3102  0.4230
   18CHTO  H167 7299   6.398   8.393   0.071  0.7951  0.1169  2.4862
   18CHTO  C102 7300   6.171   8.467   0.035  0.3444  0.8268  0.5741
   18CHTO  H189 7301   6.247   8.526  -0.018 -0.2415  0.9544 -0.1402
   18CHTO   N18 7302   6.151   8.528   0.165  0.3138  0.4369 -0.1639
   18CHTO  H176 7303   6.238   8.523   0.228 -0.6846  1.6077  1.3460
   18CHTO  H177 7304   6.080   8.610   0.173 -3.0774 -2.4069  0.4192
   18CHTO  C105 7305   6.049   8.488  -0.066 -0.4933 -0.4896 -0.4065
   18CHTO  H192 7306   5.956   8.462  -0.015  0.4472 -3.2022  0.0343
   18CHTO   O65 7307   6.074   8.415  -0.188 -0.0432  0.5807 -0.2544
   18CHTO  C100 7308   6.104   8.273  -0.174 -0.2612  0.0560  0.0272
   18CHTO  H187 7309   6.038   8.230  -0.097  1.4935 -0.8258  1.0665
   18CHTO  C107 7310   6.086   8.199  -0.312  0.5567  0.3694 -0.1535
   18CHTO   O70 7311   6.127   8.257  -0.437 -0.4495 -0.2389  0.4804
   18CHTO  H170 7312   6.097   8.209  -0.512  1.6876  0.8704 -1.1497
   18CHTO   O57 7313   6.053   8.640  -0.106 -0.1107 -0.1194 -0.3359
   18CHTO   C85 7314   5.962   8.723  -0.179 -1.1289 -0.0436 -0.1841
   18CHTO  H157 7315   6.014   8.815  -0.213 -0.3475 -1.0643 -1.8384
   18CHTO   C83 7316   5.857   8.781  -0.085 -0.5596 -0.0767  0.2400
   18CHTO  H155 7317   5.907   8.849  -0.017  2.7851  0.2166 -2.4049
   18CHTO   O56 7318   5.810   8.681   0.006  0.5304  0.5017  0.4499
   18CHTO  H135 7319   5.727   8.709   0.041  0.4551 -0.1968  0.8370
   18CHTO   C81 7320   5.745   8.854  -0.168  0.1970 -0.0963  0.1197
   18CHTO  H153 7321   5.797   8.930  -0.227  0.3650 -0.7796 -0.6166
   18CHTO   N14 7322   5.658   8.928  -0.081  0.3593  0.5632 -0.6057
   18CHTO  H141 7323   5.601   8.989  -0.148  0.1029  1.6368  0.5587
   18CHTO  H142 7324   5.593   8.858  -0.033  0.3204 -0.1466 -1.6861
   18CHTO   C79 7325   5.679   8.746  -0.257  0.4812  0.2554 -0.6718
   18CHTO  H151 7326   5.593   8.794  -0.303  1.6909  1.9762 -1.2003
   18CHTO   O52 7327   5.774   8.703  -0.359 -1.1898  0.2187 -0.0166
   18CHTO   C86 7328   5.901   8.648  -0.305 -0.6495  0.8284 -0.1994
   18CHTO  H158 7329   5.874   8.545  -0.273  1.0933  1.0878  2.2124
   18CHTO   C90 7330   6.013   8.625  -0.410  0.1959  0.6648  0.2397
   18CHTO   O60 7331   6.020   8.737  -0.494 -0.1090 -0.3268 -0.2018
   18CHTO  H138 7332   5.946   8.740  -0.551 -1.6992 -1.6996  1.7183
   18CHTO   O50 7333   5.638   8.622  -0.199 -0.1789 -0.1526 -0.1269
   18CHTO   C73 7334   5.546   8.512  -0.223 -1.0764 -0.4767  0.3287
   18CHTO  H145 7335   5.541   8.477  -0.327 -1.6313  0.1006  0.1570
   18CHTO   C74 7336   5.401   8.561  -0.192 -0.0042 -0.1369  0.3584
   18CHTO  H146 7337   5.381   8.637  -0.268 -0.2006 -2.5409 -2.0714
   18CHTO   O54 7338   5.305   8.457  -0.213  0.4636  0.4032  0.4291
   18CHTO  H133 7339   5.305   8.385  -0.152 -1.3963 -0.6420 -0.7463
   18CHTO   C75 7340   5.402   8.620  -0.043  0.2718  0.6195 -0.1941
   18CHTO  H147 7341   5.460   8.713  -0.045 -0.6040  1.1517 -2.2603
   18CHTO   N13 7342   5.273   8.673   0.003 -0.1127 -0.7285  0.5756
   18CHTO  H139 7343   5.253   8.765  -0.050  0.1592 -0.4856  0.8914
   18CHTO  H140 7344   5.194   8.604  -0.023 -0.1181  0.0283 -1.5930
   18CHTO   C76 7345   5.454   8.514   0.067  0.1081  0.1072 -0.1342
   18CHTO  H148 7346   5.377   8.449   0.107  0.3525 -0.7237 -1.0009
   18CHTO   O49 7347   5.564   8.431   0.013 -0.5954  0.0603 -0.6544
   18CHTO   C77 7348   5.577   8.393  -0.124  0.1636 -0.3548 -0.4408
   18CHTO  H149 7349   5.504   8.315  -0.145 -2.5589  1.9718  0.1131
   18CHTO   C88 7350   5.713   8.331  -0.147 -0.7769  0.2172  0.3914
   18CHTO   O58 7351   5.759   8.337  -0.303 -0.2160 -0.5596  0.0228
   18CHTO  H136 7352   5.730   8.262  -0.351 -2.1241 -0.7963  1.4830
   18CHTO   O51 7353   5.538   8.599   0.192 -0.3873  0.2474  0.4127
   18CHTO   C78 7354   5.523   8.523   0.333 -0.0639 -0.0521 -0.0802
   18CHTO  H150 7355   5.491   8.418   0.315 -0.8084  0.1154  0.2457
   18CHTO   C80 7356   5.419   8.594   0.416  0.3417  0.0290 -0.3961
   18CHTO  H152 7357   5.438   8.703   0.405  0.5167 -0.0260 -0.6296
   18CHTO   O55 7358   5.294   8.578   0.348 -0.1502 -0.6449 -0.2657
   18CHTO  H134 7359   5.295   8.500   0.295  0.2741  0.1491 -1.4567
   18CHTO   C84 7360   5.403   8.552   0.563  0.7617  0.3105  0.6915
   18CHTO  H156 7361   5.395   8.444   0.563 -2.9251  0.5111 -0.4279
   18CHTO   N15 7362   5.294   8.625   0.645 -0.1928  0.0800  0.3010
   18CHTO  H143 7363   5.218   8.666   0.582 -1.1678 -1.9898  0.0723
   18CHTO  H144 7364   5.334   8.691   0.719 -1.0117  2.5610 -1.4034
   18CHTO   C87 7365   5.543   8.574   0.620  1.2008 -0.1124 -0.3071
   18CHTO  H159 7366   5.569   8.680   0.608  0.3107 -0.0933 -2.2217
   18CHTO   O53 7367   5.633   8.475   0.536  0.2185  0.0354 -0.8648
   18CHTO   C82 7368   5.657   8.524   0.406  0.1660 -0.0998 -0.4693
   18CHTO  H154 7369   5.700   8.623   0.415  2.0713 -0.9250 -0.0687
   18CHTO   C89 7370   5.770   8.436   0.347  0.0528 -0.0360  0.2166
   18CHTO   O59 7371   5.820   8.485   0.221  0.3720 -0.0509  0.1992
   18CHTO  H137 7372   5.747   8.486   0.162 -0.9875 -0.0439  1.8286
   18CHTO   O45 7373   5.562   8.542   0.775  0.2390  0.3594  0.0168
   18CHTO   C67 7374   5.699   8.571   0.813  0.2202 -0.0594 -0.3410
   18CHTO  H124 7375   5.762   8.561   0.725 -1.9763 -1.9265 -1.7300
   18CHTO   C65 7376   5.713   8.720   0.865  0.7201  0.2248  0.4504
   18CHTO  H122 7377   5.613   8.750   0.897 -0.0791  1.1322 -2.7763
   18CHTO   O44 7378   5.738   8.789   0.741 -0.0225 -0.2276  0.3423
   18CHTO  H102 7379   5.676   8.856   0.721 -1.4587 -1.6902 -0.1541
   18CHTO   C63 7380   5.814   8.734   0.987  0.5926 -0.3134 -0.3699
   18CHTO  H120 7381   5.772   8.704   1.083  1.3860  2.5779  0.9268
   18CHTO   N11 7382   5.850   8.876   1.017 -0.1084 -0.1721 -0.3316
   18CHTO  H108 7383   5.876   8.894   1.119  0.6892 -1.8942 -0.2095
   18CHTO  H109 7384   5.945   8.904   0.976  0.0341  2.1839  1.5101
   18CHTO   C61 7385   5.934   8.635   0.968 -0.2513 -0.1915  0.0343
   18CHTO  H118 7386   6.008   8.654   1.047  0.6547  1.8024 -1.2496
   18CHTO   O40 7387   5.886   8.505   0.984 -0.1000  0.0094  0.5546
   18CHTO   C68 7388   5.757   8.466   0.917  0.3906  0.9028  0.8989
   18CHTO  H125 7389   5.679   8.442   0.992 -0.0723 -0.1173  0.1076
   18CHTO   C72 7390   5.796   8.325   0.849  0.5456  0.2376  0.2123
   18CHTO   O48 7391   5.825   8.221   0.943 -0.5278  0.2669  0.5062
   18CHTO  H105 7392   5.745   8.193   0.983 -0.2059 -1.3197  0.1008
   18CHTO   O38 7393   6.002   8.659   0.843 -0.0102 -0.4071  0.0322
   18CHTO   C55 7394   6.146   8.637   0.852  0.1227 -0.7096 -0.6508
   18CHTO  H112 7395   6.169   8.561   0.928  0.4695 -0.4748 -0.5189
   18CHTO   C56 7396   6.234   8.765   0.872 -0.6111 -0.4441 -0.2255
   18CHTO  H113 7397   6.225   8.835   0.788  1.0691 -0.2965 -0.2894
   18CHTO   O42 7398   6.165   8.832   0.981  0.0584  0.0053  0.2413
   18CHTO  H100 7399   6.082   8.869   0.959 -1.5826 -4.0511 -0.7961
   18CHTO   C57 7400   6.382   8.719   0.905 -0.6173  0.2847 -0.2371
   18CHTO  H114 7401   6.370   8.665   0.999  0.7463 -1.2176 -0.9103
   18CHTO   N10 7402   6.479   8.830   0.936 -0.1174  0.0679 -0.3354
   18CHTO  H106 7403   6.483   8.863   1.039  0.1360 -0.5303 -0.1446
   18CHTO  H107 7404   6.466   8.917   0.874 -1.7385 -0.8184 -1.2750
   18CHTO   C58 7405   6.430   8.624   0.795 -1.0318  0.2823 -0.0023
   18CHTO  H115 7406   6.479   8.681   0.712  1.1219 -0.9715  0.3591
   18CHTO   O37 7407   6.333   8.531   0.746 -0.1398  0.0192  0.5119
   18CHTO   C59 7408   6.200   8.578   0.722 -0.0948 -0.4267 -0.3601
   18CHTO  H116 7409   6.208   8.660   0.650  1.1643 -0.1843  0.0491
   18CHTO   C70 7410   6.124   8.460   0.658  0.5502  0.0403 -0.2941
   18CHTO   O46 7411   6.148   8.333   0.708 -0.1089  0.0594 -0.0985
   18CHTO  H103 7412   6.082   8.276   0.671  1.1497 -2.0974  0.8936
   18CHTO   O39 7413   6.554   8.526   0.855 -0.8461 -0.3766  0.4101
   18CHTO   C60 7414   6.507   8.424   0.947 -0.0330 -0.1562 -0.1071
   18CHTO  H117 7415   6.419   8.461   1.000  0.0202 -0.2959  0.0794
   18CHTO   C62 7416   6.466   8.293   0.873 -0.2897 -0.2416 -0.1547
   18CHTO  H119 7417   6.417   8.320   0.777 -1.8475 -1.0150  0.4086
   18CHTO   O43 7418   6.585   8.222   0.831  0.4738  0.1440  0.3828
   18CHTO  H101 7419   6.650   8.289   0.826 -0.3409  1.2920  3.6674
   18CHTO   C66 7420   6.372   8.212   0.973  0.0128 -0.1911  0.4565
   18CHTO  H123 7421   6.304   8.281   1.021 -1.5246 -0.5999 -1.1003
   18CHTO   N12 7422   6.290   8.108   0.899  0.1294 -0.7615 -0.1768
   18CHTO  H110 7423   6.307   8.121   0.793  0.8233  2.0304  0.2449
   18CHTO  H111 7424   6.187   8.104   0.931  0.6239  0.5996  1.6645
   18CHTO   C69 7425   6.464   8.157   1.085 -0.4781  0.8559 -0.5143
   18CHTO  H126 7426   6.528   8.084   1.031  0.7413 -0.0674  2.0952
   18CHTO   O41 7427   6.565   8.283   1.152  0.4682  0.2748  0.1447
   18CHTO   C64 7428   6.618   8.391   1.057  0.3023 -0.2710 -0.3298
   18CHTO  H121 7429   6.709   8.353   1.006  0.5598  0.2439 -0.2506
   18CHTO   C71 7430   6.656   8.515   1.143 -0.6171 -0.5829 -0.4813
   18CHTO   O47 7431   6.722   8.607   1.064 -0.7244  0.2166  0.3425
   18CHTO  H104 7432   6.755   8.669   1.127  0.6820 -1.0657  0.9051
   18CHTO   O34 7433   6.391   8.092   1.196 -0.2458 -0.0021 -0.3330
   18CHTO   C49 7434   6.335   8.110   1.324  0.6356 -0.2261  0.0321
   18CHTO   H91 7435   6.419   8.093   1.391  0.0955 -1.4616  0.4131
   18CHTO   C47 7436   6.207   8.022   1.346 -0.0300  0.1983 -0.1182
   18CHTO   H89 7437   6.200   8.025   1.457  1.7320 -0.1040  0.0181
   18CHTO   O33 7438   6.240   7.888   1.311 -0.8374  0.4122  0.3936
   18CHTO   H70 7439   6.165   7.832   1.304 -1.3255  1.0427  0.4995
   18CHTO   C45 7440   6.083   8.078   1.260  0.5690 -0.0764 -0.1633
   18CHTO   H87 7441   6.112   8.074   1.154 -3.4133  2.2083 -1.4312
   18CHTO    N8 7442   5.962   7.996   1.271  0.3813 -0.0974 -0.3007
   18CHTO   H75 7443   5.897   8.040   1.345 -3.4073 -0.5786 -3.1583
   18CHTO   H76 7444   5.981   7.894   1.302 -2.0484 -0.2034  0.9502
   18CHTO   C43 7445   6.062   8.228   1.296  0.1995 -0.2768 -0.4548
   18CHTO   H85 7446   5.991   8.265   1.222 -0.5370 -0.2885  0.2309
   18CHTO   O29 7447   6.184   8.305   1.293  0.4331  0.3404  0.1603
   18CHTO   C50 7448   6.302   8.261   1.360  0.0286 -0.2069  0.4573
   18CHTO   H92 7449   6.382   8.330   1.331  0.9259 -1.3517  0.1490
   18CHTO   C54 7450   6.280   8.289   1.520 -0.1719  0.0533 -0.2675
   18CHTO   O36 7451   6.392   8.251   1.597  0.2094  0.1864  0.0032
   18CHTO   H72 7452   6.358   8.253   1.685 -0.8319  0.7264 -0.3985
   18CHTO   O27 7453   5.990   8.254   1.416 -0.3028  0.0809  0.0748
   18CHTO   C37 7454   5.903   8.353   1.473  0.1506  0.0747 -0.1773
   18CHTO   H79 7455   5.926   8.364   1.580 -1.2900 -1.1169  0.2782
   18CHTO   C38 7456   5.925   8.493   1.406 -0.7409  0.6362  0.0545
   18CHTO   H80 7457   5.925   8.480   1.296 -1.9734  0.0444  0.1135
   18CHTO   O31 7458   6.050   8.549   1.447 -0.3180  0.3241  0.2127
   18CHTO   H68 7459   6.120   8.503   1.405 -0.1158  1.3925 -0.6450
   18CHTO   C39 7460   5.813   8.598   1.443  0.0146  0.5687 -0.2648
   18CHTO   H81 7461   5.836   8.632   1.544  0.2371 -1.1581  0.2829
   18CHTO    N7 7462   5.815   8.729   1.357  0.6316 -0.2433  0.3731
   18CHTO   H73 7463   5.908   8.784   1.359  0.9689 -0.8212  1.7502
   18CHTO   H74 7464   5.777   8.716   1.257  0.3652 -0.0842  0.4525
   18CHTO   C40 7465   5.672   8.536   1.434  0.3874 -0.1409  0.6887
   18CHTO   H82 7466   5.629   8.520   1.335  1.2329 -1.3718  0.4994
   18CHTO   O26 7467   5.671   8.415   1.509 -0.3901 -0.2433  0.2482
   18CHTO   C41 7468   5.757   8.303   1.463  0.6249  0.4115  0.8840
   18CHTO   H83 7469   5.730   8.268   1.363  2.4428  1.4892 -0.0201
   18CHTO   C52 7470   5.745   8.182   1.560 -0.0019 -0.2799  0.3099
   18CHTO   O35 7471   5.625   8.138   1.566  0.2093 -0.0618 -0.0501
   18CHTO   H71 7472   5.609   8.069   1.505  0.8850  1.0449 -1.5130
   18CHTO   O28 7473   5.576   8.632   1.489 -0.0983 -0.0472  0.0094
   18CHTO   C42 7474   5.429   8.627   1.481  0.0674  0.0310 -0.0540
   18CHTO   H84 7475   5.405   8.733   1.489 -0.1754 -0.1251  1.3120
   18CHTO   C44 7476   5.361   8.558   1.606  0.8044 -0.0798 -0.2615
   18CHTO   H86 7477   5.391   8.453   1.614  1.4887  0.0231 -1.4490
   18CHTO   O32 7478   5.416   8.638   1.717  0.3334  0.2376  0.2759
   18CHTO   H69 7479   5.399   8.599   1.801 -0.5024 -0.7670 -0.3578
   18CHTO   C48 7480   5.205   8.568   1.594  0.2458  0.4503  0.4594
   18CHTO   H90 7481   5.161   8.667   1.596 -0.2451  0.2749 -0.9117
   18CHTO    N9 7482   5.146   8.487   1.708  0.6279 -0.2405 -0.3259
   18CHTO   H77 7483   5.140   8.381   1.689 -0.0884  0.1032 -2.0174
   18CHTO   H78 7484   5.047   8.527   1.721 -0.0069 -1.8779 -0.0167
   18CHTO   C51 7485   5.170   8.522   1.453 -0.4879  0.2514  1.2645
   18CHTO   H93 7486   5.190   8.416   1.442 -2.6686 -0.0946  0.5605
   18CHTO   O30 7487   5.236   8.599   1.353  0.3337 -0.2523  0.5049
   18CHTO   C46 7488   5.363   8.577   1.346  0.4436 -0.1907 -0.4583
   18CHTO   H88 7489   5.385   8.470   1.347  0.2542 -0.2349 -1.1219
   18CHTO   C53 7490   5.419   8.631   1.217 -0.0628 -0.0531  0.0881
   18CHTO   O72 7491   5.350   8.584   1.096  0.6830  0.0854  0.1535
   18CHTO  H199 7492   5.358   8.491   1.092  3.6301  0.3333 -0.4990
   18CHTO   O22 7493   5.029   8.542   1.439  0.2763  0.3012 -0.1493
   18CHTO   C31 7494   4.945   8.502   1.319 -0.0487 -0.3188 -0.0453
   18CHTO   H59 7495   4.838   8.505   1.348 -0.4335 -0.1577 -1.4442
   18CHTO   C29 7496   4.963   8.608   1.203  0.2764 -0.5237 -0.1810
   18CHTO   H57 7497   5.072   8.614   1.185  0.1804  0.7661 -0.3796
   18CHTO   O21 7498   4.927   8.741   1.240 -0.1686  0.0456  0.0162
   18CHTO   H37 7499   4.840   8.745   1.274 -0.1903 -1.0157  0.1032
   18CHTO   C27 7500   4.898   8.554   1.064 -0.2986 -0.2641  0.5351
   18CHTO   H55 7501   4.790   8.569   1.074 -0.2309  0.2744  0.4542
   18CHTO    N5 7502   4.936   8.639   0.952 -0.7626  0.8360 -0.4187
   18CHTO   H43 7503   4.860   8.692   0.895 -2.0003 -0.4348  0.0132
   18CHTO   H44 7504   5.022   8.699   0.977 -0.7353 -0.3320  2.4216
   18CHTO   C25 7505   4.943   8.409   1.042 -0.3380 -0.3091 -0.0865
   18CHTO   H53 7506   5.052   8.415   1.037 -0.2766  1.0710  2.3017
   18CHTO   O17 7507   4.906   8.331   1.150  0.3046  0.2880  0.0074
   18CHTO   C32 7508   4.977   8.360   1.270 -0.1821 -0.2276 -0.8770
   18CHTO   H60 7509   5.084   8.351   1.248  0.4116  1.2769  1.2276
   18CHTO   C36 7510   4.939   8.259   1.388 -0.2199  0.1986 -0.3618
   18CHTO   O25 7511   4.863   8.146   1.344  0.3465 -0.3621 -0.2655
   18CHTO   H40 7512   4.916   8.076   1.311  0.7804 -0.0956 -0.1316
   18CHTO   O15 7513   4.890   8.342   0.923  0.8797 -0.0219  0.0351
   18CHTO   C19 7514   4.934   8.267   0.809  0.1804 -0.4784  0.1739
   18CHTO   H47 7515   4.853   8.196   0.789  0.4593 -1.3822  2.1965
   18CHTO   C20 7516   4.941   8.357   0.680 -0.8481  0.2483  0.8207
   18CHTO   H48 7517   4.992   8.453   0.697 -0.0825  0.6150 -3.0536
   18CHTO   O19 7518   4.808   8.382   0.645 -0.4311 -0.1028  0.3078
   18CHTO   H35 7519   4.774   8.468   0.661 -1.7315 -0.5535  0.1039
   18CHTO   C21 7520   5.005   8.286   0.554 -0.7030 -0.1247 -0.4737
   18CHTO   H49 7521   4.944   8.199   0.528 -1.2343  0.8291 -2.5708
   18CHTO    N4 7522   5.020   8.376   0.439 -0.3771  0.0773  0.1029
   18CHTO   H41 7523   5.077   8.328   0.361 -1.2792 -2.7921  1.1668
   18CHTO   H42 7524   4.923   8.407   0.402 -0.0918  3.1241  1.7367
   18CHTO   C22 7525   5.137   8.214   0.599  0.2164  0.7385  0.4613
   18CHTO   H50 7526   5.207   8.289   0.637  0.0894  1.3454 -0.4959
   18CHTO   O14 7527   5.099   8.117   0.702 -0.0541 -0.1541  0.4767
   18CHTO   C23 7528   5.061   8.179   0.824 -0.2081 -0.5888 -0.2896
   18CHTO   H51 7529   5.144   8.238   0.865 -1.7430 -0.0415  2.1551
   18CHTO   C34 7530   5.047   8.055   0.908  0.4827 -0.5783 -0.1389
   18CHTO   O23 7531   5.009   8.080   1.045  0.2100  0.0334  0.3297
   18CHTO   H38 7532   5.055   8.154   1.079 -1.5036  2.0304 -1.5160
   18CHTO   O16 7533   5.192   8.125   0.500 -0.5016  0.1684  0.0639
   18CHTO   C24 7534   5.345   8.172   0.440 -0.9648  0.3631 -0.7090
   18CHTO   H52 7535   5.361   8.279   0.452 -1.6638  0.1546  2.5323
   18CHTO   C26 7536   5.339   8.132   0.293  0.2001  0.5998 -0.3955
   18CHTO   H54 7537   5.309   8.025   0.298  1.1482  0.3728  0.9221
   18CHTO   O20 7538   5.238   8.211   0.228 -0.1676 -0.6628  0.4330
   18CHTO   H36 7539   5.156   8.191   0.269  0.5839 -3.0693  0.8812
   18CHTO   C30 7540   5.470   8.130   0.212  0.0660  0.5599  0.1639
   18CHTO   H58 7541   5.492   8.236   0.192  0.8733  0.1933 -0.9457
   18CHTO    N6 7542   5.459   8.070   0.077  0.4334  0.1745 -0.0065
   18CHTO   H45 7543   5.356   8.068   0.044 -0.0088  0.0114  1.3597
   18CHTO   H46 7544   5.513   8.125   0.001 -1.1440 -0.4213 -1.6011
   18CHTO   C33 7545   5.580   8.060   0.298 -0.1407  0.3968 -0.4727
   18CHTO   H61 7546   5.552   7.955   0.315  0.4408  0.6693  2.5247
   18CHTO   O18 7547   5.583   8.132   0.429  0.4219  0.2447 -0.3762
   18CHTO   C28 7548   5.466   8.098   0.509 -0.2195 -0.3605 -1.5884
   18CHTO   H56 7549   5.432   7.995   0.523 -2.0825  0.3744 -0.5256
   18CHTO   C35 7550   5.492   8.153   0.656 -0.3161 -0.0394  0.3835
   18CHTO   O24 7551   5.400   8.105   0.753 -0.8911  0.6088 -0.6844
   18CHTO   H39 7552   5.378   8.014   0.746  1.4045 -0.1254  1.0729
   18CHTO    O9 7553   5.711   8.060   0.231  0.3148  0.2737 -0.5710
   18CHTO   C13 7554   5.808   7.963   0.306  0.0553  0.5483 -0.6407
   18CHTO   H26 7555   5.748   7.892   0.366  0.7825  0.5316  0.0866
   18CHTO   C11 7556   5.906   8.049   0.399 -1.1246 -0.1759 -0.4572
   18CHTO   H24 7557   5.839   8.098   0.471 -2.6460  1.7164 -3.0958
   18CHTO    O8 7558   5.975   8.156   0.330  0.2216 -0.4201  0.3734
   18CHTO    H3 7559   6.024   8.127   0.256 -0.9549  0.1083 -0.6463
   18CHTO    C9 7560   6.000   7.946   0.468 -0.2089 -0.9594 -0.2708
   18CHTO   H22 7561   5.936   7.865   0.506 -0.1321 -0.5536  0.7342
   18CHTO    N2 7562   6.074   7.989   0.587  0.2556 -0.6225 -0.2583
   18CHTO   H10 7563   6.134   8.078   0.570  0.7075 -0.3976  2.4152
   18CHTO   H11 7564   6.009   8.012   0.669  0.7592  2.5727 -0.6706
   18CHTO    C7 7565   6.086   7.876   0.356 -0.2625 -0.1798  0.3886
   18CHTO   H20 7566   6.132   7.792   0.411 -2.4399 -0.6686  1.5183
   18CHTO    O4 7567   6.005   7.810   0.256  0.4095 -0.2712  0.4290
   18CHTO   C14 7568   5.892   7.877   0.202  0.7980 -0.1759 -0.4141
   18CHTO   H27 7569   5.817   7.804   0.166 -3.2137  1.7800  3.4759
   18CHTO   C18 7570   5.926   7.961   0.077  0.3625 -0.0126  0.0182
   18CHTO   O13 7571   5.975   7.865  -0.020  0.1710 -0.1652 -0.5449
   18CHTO    H7 7572   6.067   7.846  -0.016  0.3445  0.4958 -1.1541
   18CHTO    O2 7573   6.193   7.976   0.275 -0.2913  0.0983 -0.0926
   18CHTO    C1 7574   6.330   7.929   0.269  0.1569  0.4771 -1.2821
   18CHTO   H14 7575   6.375   7.987   0.186 -0.9092  1.7929 -0.9600
   18CHTO    C2 7576   6.341   7.768   0.249 -0.4057  0.0377  0.3976
   18CHTO   H15 7577   6.289   7.730   0.338 -0.9728 -0.7179 -0.2541
   18CHTO    O6 7578   6.288   7.728   0.119 -0.2824  0.1222  0.1267
   18CHTO    H1 7579   6.194   7.724   0.127 -0.2927  0.1937  0.0347
   18CHTO    C3 7580   6.498   7.732   0.251 -0.2388  0.0397 -0.4946
   18CHTO   H16 7581   6.542   7.765   0.156 -0.1767  0.3256 -0.3663
   18CHTO    N1 7582   6.530   7.585   0.249 -0.1877 -0.2180  0.1952
   18CHTO    H8 7583   6.462   7.535   0.182 -0.1991  1.0544 -0.7826
   18CHTO    H9 7584   6.541   7.549   0.350  0.2943 -2.3960 -0.6070
   18CHTO    C4 7585   6.579   7.806   0.370 -0.1804 -0.4861  0.7302
   18CHTO   H17 7586   6.571   7.744   0.459  1.5385 -0.5946  0.8185
   18CHTO    O1 7587   6.544   7.945   0.400 -1.0456 -0.2333 -0.0715
   18CHTO    C5 7588   6.409   7.980   0.403  0.3709 -1.1123 -0.0354
   18CHTO   H18 7589   6.374   7.922   0.489 -0.7819  0.6567  0.7341
   18CHTO   C16 7590   6.391   8.140   0.425  0.0077 -0.4185  0.3071
   18CHTO   O11 7591   6.429   8.177   0.556 -0.3108 -0.3542 -0.0597
   18CHTO    H5 7592   6.509   8.138   0.585 -1.1882 -1.0745  1.5259
   18CHTO    O3 7593   6.721   7.806   0.333 -0.3415 -0.2178 -0.1943
   18CHTO    C6 7594   6.813   7.844   0.443 -0.4974  0.1701  0.0363
   18CHTO   H19 7595   6.758   7.905   0.515  0.4865  0.9110  0.1744
   18CHTO    C8 7596   6.877   7.719   0.523  0.7800 -0.0343 -0.2090
   18CHTO   H21 7597   6.936   7.663   0.450  2.7579  0.3340  1.0671
   18CHTO    O7 7598   6.768   7.642   0.572 -0.0738 -0.0133  0.6359
   18CHTO    H2 7599   6.720   7.686   0.640 -2.1554 -1.9621  0.4892
   18CHTO   C12 7600   6.979   7.766   0.629 -0.3147  0.3916  0.6679
   18CHTO   H25 7601   6.914   7.821   0.700  0.8880  0.9138  1.3816
   18CHTO    N3 7602   7.038   7.644   0.699 -0.1586  0.3883 -0.0785
   18CHTO   H12 7603   7.066   7.569   0.627  0.3810  1.0756 -0.5906
   18CHTO   H13 7604   6.978   7.597   0.775  3.2129 -0.4444  2.1709
   18CHTO   C15 7605   7.085   7.853   0.560  0.3068  0.2690  0.0779
   18CHTO   H28 7606   7.131   7.791   0.484  1.0050  1.9851 -0.9387
   18CHTO   O10 7607   7.195   7.939   0.650 -0.0019  0.4439 -0.1102
   18CHTO    H4 7608   7.140   7.982   0.713  1.6206  0.4474  1.3508
   18CHTO    O5 7609   7.028   7.967   0.495 -0.1369  0.1729  0.0371
   18CHTO   C10 7610   6.935   7.935   0.390 -0.2393  0.1349 -0.5266
   18CHTO   H23 7611   6.992   7.893   0.307 -0.9782 -1.7862 -0.0907
   18CHTO   C17 7612   6.895   8.074   0.346  0.9199  0.1384 -0.3192
   18CHTO   O12 7613   6.769   8.092   0.272 -0.0372 -0.0993  0.3697
   18CHTO    H6 7614   6.766   8.178   0.235  1.4299 -0.7835 -1.4205
   19CHTO  H203 7615   5.178   9.612   2.335 -0.4933 -0.1786  0.0236
   19CHTO   O82 7616   5.247   9.592   2.274 -0.3331 -0.0069  0.1473
   19CHTO  C123 7617   5.213   9.471   2.208 -0.0686 -0.2148 -0.9848
   19CHTO  H227 7618   5.117   9.485   2.156 -1.1671  0.7056  1.2198
   19CHTO   O77 7619   5.326   9.437   2.116  0.1452 -0.6870 -0.2971
   19CHTO  C118 7620   5.309   9.331   2.025  0.3402 -0.0773  0.2930
   19CHTO  H222 7621   5.220   9.346   1.963 -0.2816 -0.1151  1.1678
   19CHTO  C125 7622   5.440   9.325   1.933  0.1840 -0.1694 -0.2572
   19CHTO   O84 7623   5.561   9.281   1.990  0.2599  0.0945 -0.1360
   19CHTO  H205 7624   5.562   9.191   2.015  0.1729  0.7156  2.1640
   19CHTO  C114 7625   5.290   9.202   2.113  0.0623 -0.6915 -0.1465
   19CHTO  H218 7626   5.378   9.198   2.178  1.2097 -1.2810 -1.7000
   19CHTO  C116 7627   5.167   9.219   2.213  0.3375  0.1532  0.0122
   19CHTO  H220 7628   5.077   9.228   2.149 -0.6532  0.1549  1.3889
   19CHTO   O79 7629   5.140   9.103   2.288 -0.2054 -0.1949 -0.3022
   19CHTO  H201 7630   5.215   9.056   2.318 -0.5628 -1.0076 -0.6550
   19CHTO  C120 7631   5.195   9.353   2.303  0.2788  0.1401 -0.6445
   19CHTO  H224 7632   5.278   9.322   2.369  0.1378 -0.6645 -0.8439
   19CHTO   N21 7633   5.080   9.376   2.394 -0.3285  0.3566  0.0127
   19CHTO  H211 7634   5.107   9.441   2.476 -1.9036 -0.9138  1.5842
   19CHTO  H212 7635   5.058   9.280   2.439 -1.0917  0.9765  0.9849
   19CHTO   O75 7636   5.278   9.087   2.023  0.3205 -0.4464 -0.0823
   19CHTO  C112 7637   5.370   8.963   2.094  0.4172  1.1684  0.0492
   19CHTO  H216 7638   5.358   8.974   2.203 -1.6104  0.0337 -0.0322
   19CHTO   O73 7639   5.503   8.990   2.045  0.0842 -0.5294  0.2843
   19CHTO  C113 7640   5.598   8.884   2.084 -0.4354  0.2584  0.7464
   19CHTO  H217 7641   5.610   8.880   2.194 -0.6099  1.9459  0.8496
   19CHTO  C124 7642   5.739   8.923   2.035  0.3159 -0.2785 -0.0571
   19CHTO   O83 7643   5.786   9.056   2.058  0.5104  0.1883  0.3635
   19CHTO  H204 7644   5.719   9.102   2.104  0.9126 -0.2190  1.3746
   19CHTO  C109 7645   5.558   8.744   2.029  0.3583 -0.2773  0.2434
   19CHTO  H213 7646   5.550   8.757   1.920 -1.7583 -0.3604  0.3585
   19CHTO  C110 7647   5.417   8.710   2.078 -0.2601 -0.2519 -0.3870
   19CHTO  H214 7648   5.420   8.699   2.186 -3.2880 -0.2982 -0.2727
   19CHTO   O78 7649   5.371   8.594   2.009  0.1837  0.4469  0.2762
   19CHTO  H200 7650   5.438   8.528   2.017 -0.2114  0.0215  0.0775
   19CHTO  C111 7651   5.321   8.826   2.037 -0.1172  0.0563  0.9391
   19CHTO  H215 7652   5.322   8.832   1.927 -0.0319 -0.0896  0.9315
   19CHTO   N19 7653   5.178   8.803   2.074 -0.5283 -0.2865  0.6562
   19CHTO  H207 7654   5.127   8.757   1.990  2.1792  0.3076 -1.3580
   19CHTO  H208 7655   5.171   8.764   2.175 -2.1955  1.3395  1.1999
   19CHTO   O74 7656   5.652   8.636   2.056 -0.8519  0.8219 -0.2162
   19CHTO  C115 7657   5.659   8.535   1.947 -0.2585 -0.2709  0.7513
   19CHTO  H219 7658   5.561   8.521   1.899  0.5296 -0.4743 -0.8465
   19CHTO   O76 7659   5.755   8.580   1.825 -0.1209 -0.3640  0.1803
   19CHTO  C122 7660   5.887   8.585   1.874  0.4755 -0.3828  0.2244
   19CHTO  H226 7661   5.891   8.653   1.959 -1.5522 -1.2886  1.0669
   19CHTO  C126 7662   5.983   8.648   1.774 -0.3102 -0.2372  0.9283
   19CHTO   O85 7663   5.960   8.788   1.756 -0.1581  0.0016 -0.5586
   19CHTO  H206 7664   5.882   8.804   1.705 -0.4875  3.5664  0.9206
   19CHTO  C121 7665   5.941   8.439   1.898 -0.4754 -0.3726  0.1439
   19CHTO  H225 7666   5.998   8.409   1.808  0.6641  1.8617  0.0803
   19CHTO   O81 7667   6.032   8.447   2.007 -0.4575 -0.2464 -0.1324
   19CHTO  H202 7668   5.993   8.498   2.076  2.7220  1.0593  0.7996
   19CHTO  C119 7669   5.833   8.342   1.935 -0.4330 -0.0383  0.4478
   19CHTO  H223 7670   5.796   8.314   1.836  1.2141 -0.3759 -0.0917
   19CHTO  C117 7671   5.709   8.398   2.014  0.5510 -0.6324  0.4010
   19CHTO  H221 7672   5.730   8.417   2.119 -2.0547 -4.4234  1.6941
   19CHTO   N20 7673   5.595   8.304   2.019 -0.2183 -0.7422 -0.5092
   19CHTO  H209 7674   5.534   8.312   1.930  0.4788 -1.0565 -1.0271
   19CHTO  H210 7675   5.637   8.207   2.041 -0.0041 -0.8604 -1.4040
   19CHTO   O80 7676   5.886   8.192   1.990  0.1835  0.0767  0.5029
   19CHTO  C103 7677   5.940   8.092   1.882 -0.4174 -0.0049  0.1194
   19CHTO  H190 7678   5.898   8.123   1.786  2.5252 -0.7572 -1.4953
   19CHTO  C101 7679   6.090   8.086   1.872  0.1924  0.2063 -0.0070
   19CHTO  H188 7680   6.145   8.032   1.950  0.9496 -0.4694 -0.9893
   19CHTO   O68 7681   6.133   8.213   1.864  0.3583  0.1128  0.1880
   19CHTO  H168 7682   6.116   8.248   1.779 -0.6639 -3.3611 -1.1300
   19CHTO   C99 7683   6.126   7.999   1.744  0.2112  0.1536 -0.3498
   19CHTO  H186 7684   6.094   8.065   1.661 -2.3979  1.4621  1.6001
   19CHTO   N17 7685   6.265   7.965   1.714  0.2712 -0.1051 -0.6940
   19CHTO  H174 7686   6.297   8.046   1.650  3.2937  0.7108  1.7063
   19CHTO  H175 7687   6.272   7.868   1.667  1.3352 -0.8863  1.0022
   19CHTO   C97 7688   6.039   7.864   1.742 -0.5209 -0.4401  0.1748
   19CHTO  H184 7689   6.097   7.792   1.802  0.2564 -1.8638 -2.2046
   19CHTO   O64 7690   5.904   7.879   1.792 -0.4549  0.2870  0.0791
   19CHTO  C104 7691   5.885   7.951   1.910  0.1032  0.5343 -0.1790
   19CHTO  H191 7692   5.943   7.908   1.992  2.1208  0.7463 -1.4677
   19CHTO  C108 7693   5.738   7.952   1.955  0.0026  0.2413  0.3063
   19CHTO   O71 7694   5.652   7.995   1.849 -0.0608 -0.8461 -0.1126
   19CHTO  H171 7695   5.567   7.957   1.861 -0.5697 -0.3116 -1.8001
   19CHTO   O62 7696   6.018   7.809   1.609 -0.7192 -0.2497 -0.4711
   19CHTO   C91 7697   5.978   7.673   1.592  0.0985  0.0420  0.0728
   19CHTO  H178 7698   5.952   7.634   1.690  0.7799 -1.1552 -0.2093
   19CHTO   C92 7699   6.085   7.573   1.543  0.5949  0.0294 -0.2682
   19CHTO  H179 7700   6.133   7.612   1.453  1.1941 -2.7430 -1.2060
   19CHTO   O66 7701   6.190   7.565   1.636 -0.3311  0.5157  0.0263
   19CHTO  H166 7702   6.243   7.641   1.645  2.6772 -1.5399  0.5525
   19CHTO   C93 7703   6.028   7.431   1.498 -0.1131 -0.0294  0.2320
   19CHTO  H180 7704   5.996   7.381   1.590  0.0256 -0.4203  0.0684
   19CHTO   N16 7705   6.119   7.342   1.418 -0.5159 -0.0002 -0.5158
   19CHTO  H172 7706   6.211   7.338   1.475  0.1993  0.0713 -1.6595
   19CHTO  H173 7707   6.142   7.381   1.320  0.5198  1.8662  0.4402
   19CHTO   C94 7708   5.900   7.448   1.404  0.2898 -0.2610  0.3524
   19CHTO  H181 7709   5.924   7.485   1.304  0.5048  1.1711  0.9188
   19CHTO   O61 7710   5.804   7.528   1.475 -0.4633  0.7934  0.0852
   19CHTO   C95 7711   5.844   7.664   1.491 -0.5071 -0.2185 -0.3114
   19CHTO  H182 7712   5.860   7.710   1.394 -1.3889  0.4803 -0.1270
   19CHTO  C106 7713   5.721   7.742   1.564  0.1693 -0.0286  0.0943
   19CHTO   O69 7714   5.603   7.712   1.483  0.6613  0.6785  0.0392
   19CHTO  H169 7715   5.518   7.713   1.522  1.2357 -0.6803  1.4067
   19CHTO   O63 7716   5.811   7.309   1.378 -0.3355  0.3520 -0.3852
   19CHTO   C96 7717   5.673   7.308   1.281 -0.0275 -0.1732  0.1029
   19CHTO  H183 7718   5.716   7.306   1.181  2.6034  0.7215  1.1767
   19CHTO   C98 7719   5.598   7.445   1.287  0.3299  0.3075  0.3978
   19CHTO  H185 7720   5.605   7.473   1.393  0.4702 -0.4671  0.5908
   19CHTO   O67 7721   5.683   7.538   1.223 -0.2950  0.3587  0.2882
   19CHTO  H167 7722   5.645   7.623   1.233 -0.7141 -0.2941  5.2001
   19CHTO  C102 7723   5.446   7.448   1.242 -0.2989 -0.6551  0.9317
   19CHTO  H189 7724   5.450   7.461   1.133  0.7292 -2.8150  0.6846
   19CHTO   N18 7725   5.366   7.554   1.302 -0.2169  0.1355 -0.0161
   19CHTO  H176 7726   5.391   7.644   1.248  0.7835  0.7346  1.4110
   19CHTO  H177 7727   5.261   7.528   1.300  0.5220 -3.2540  1.0826
   19CHTO  C105 7728   5.382   7.309   1.278 -0.4490 -0.3302 -0.5879
   19CHTO  H192 7729   5.365   7.305   1.385  0.8823  1.1409 -0.3058
   19CHTO   O65 7730   5.465   7.192   1.246 -0.5865 -0.2536 -0.5280
   19CHTO  C100 7731   5.591   7.180   1.312  0.2163 -0.1424  0.3117
   19CHTO  H187 7732   5.580   7.174   1.421  0.8395 -0.0156  0.3846
   19CHTO  C107 7733   5.663   7.056   1.262  0.5610  0.2508  0.4458
   19CHTO   O70 7734   5.575   6.950   1.301 -0.4035  0.1209  0.0379
   19CHTO  H170 7735   5.570   6.940   1.394  0.8573 -0.8376  0.0183
   19CHTO   O57 7736   5.249   7.286   1.187 -0.0307 -0.0774  0.3745
   19CHTO   C85 7737   5.152   7.189   1.227 -0.3561 -0.1540  0.8409
   19CHTO  H157 7738   5.212   7.111   1.278  3.1277  0.6662 -1.8055
   19CHTO   C83 7739   5.095   7.127   1.094 -0.3090  0.3105  0.0500
   19CHTO  H155 7740   5.172   7.088   1.027 -0.2843 -1.1753  0.9210
   19CHTO   O56 7741   5.035   7.235   1.015  0.2959  0.0887  0.3805
   19CHTO  H135 7742   4.954   7.277   1.036  1.8405  2.9001  0.9722
   19CHTO   C81 7743   4.992   7.013   1.124  0.0720 -1.2976  0.5301
   19CHTO  H153 7744   5.045   6.934   1.177  0.0905 -0.0607  2.4262
   19CHTO   N14 7745   4.941   6.947   1.004 -1.0456  0.1244 -0.2598
   19CHTO  H141 7746   4.983   6.995   0.918  0.4521  0.3105  0.5436
   19CHTO  H142 7747   4.835   6.936   0.997 -1.0653  0.1615 -0.0300
   19CHTO   C79 7748   4.875   7.066   1.225 -0.0650 -0.3582 -0.5389
   19CHTO  H151 7749   4.812   6.980   1.250 -1.2256  1.4792  3.1449
   19CHTO   O52 7750   4.935   7.129   1.348 -0.4345 -0.0441  0.1587
   19CHTO   C86 7751   5.030   7.234   1.314 -0.0339  0.3426  0.3820
   19CHTO  H158 7752   4.978   7.316   1.261  0.1289  1.1118  1.3871
   19CHTO   C90 7753   5.077   7.303   1.441 -0.4441 -0.3501  0.0322
   19CHTO   O60 7754   5.142   7.208   1.527  0.0361 -0.1151 -0.3652
   19CHTO  H138 7755   5.116   7.246   1.609 -1.9150  2.1876 -1.9511
   19CHTO   O50 7756   4.794   7.157   1.154 -0.0051 -0.6661 -0.0291
   19CHTO   C73 7757   4.656   7.179   1.120 -0.4525 -0.1390 -0.6847
   19CHTO  H145 7758   4.610   7.079   1.123 -1.2649  0.2344 -0.6731
   19CHTO   C74 7759   4.647   7.245   0.981  0.1356  0.6677  0.0554
   19CHTO  H146 7760   4.700   7.172   0.918  1.8365  0.4143  1.7520
   19CHTO   O54 7761   4.508   7.267   0.933  0.0700  0.3841 -1.1100
   19CHTO  H133 7762   4.502   7.358   0.915  2.6864  1.0057  0.8735
   19CHTO   C75 7763   4.730   7.376   0.998  0.3241  0.1589 -0.5448
   19CHTO  H147 7764   4.823   7.355   1.052  0.4989 -0.7908 -1.1964
   19CHTO   N13 7765   4.772   7.431   0.871 -0.0013  0.0303 -0.2481
   19CHTO  H139 7766   4.842   7.367   0.819 -0.2759 -0.0081 -0.5707
   19CHTO  H140 7767   4.820   7.528   0.875  0.3784 -0.1870  0.5141
   19CHTO   C76 7768   4.641   7.476   1.083  0.5577 -0.3005  0.1180
   19CHTO  H148 7769   4.542   7.499   1.042  0.7929  1.9340  0.7518
   19CHTO   O49 7770   4.609   7.412   1.211  0.0624  0.5859 -0.0822
   19CHTO   C77 7771   4.572   7.272   1.216 -0.6706  0.0207  0.9224
   19CHTO  H149 7772   4.466   7.270   1.188 -0.6916  2.8515  0.6472
   19CHTO   C88 7773   4.572   7.231   1.361 -0.6895  0.0003  0.1364
   19CHTO   O58 7774   4.526   7.096   1.381  0.0803  0.0046  0.0290
   19CHTO  H136 7775   4.595   7.035   1.362 -0.0414  0.3751 -1.7902
   19CHTO   O51 7776   4.725   7.615   1.120 -0.1894  0.0489  0.1794
   19CHTO   C78 7777   4.625   7.732   1.169  0.4441  0.2750 -0.7289
   19CHTO  H150 7778   4.553   7.690   1.243 -1.4379  1.0557 -2.0698
   19CHTO   C80 7779   4.546   7.788   1.047 -0.4124 -0.4589  0.2077
   19CHTO  H152 7780   4.612   7.790   0.959 -2.1546  1.3557 -1.1044
   19CHTO   O55 7781   4.442   7.698   1.019  0.1041  0.9138 -0.0830
   19CHTO  H134 7782   4.388   7.691   1.095 -0.6230  4.5057 -0.2009
   19CHTO   C84 7783   4.481   7.931   1.055 -0.3793  0.1530  0.5957
   19CHTO  H156 7784   4.407   7.923   1.134  1.1188 -1.3451  1.9011
   19CHTO   N15 7785   4.403   7.980   0.944 -0.3795  0.5936  0.1379
   19CHTO  H143 7786   4.344   7.896   0.912 -0.8824  0.8530  0.3786
   19CHTO  H144 7787   4.475   8.003   0.869  1.0620 -2.2860  0.5412
   19CHTO   C87 7788   4.583   8.032   1.124  0.0648  0.2968  0.0464
   19CHTO  H159 7789   4.652   8.060   1.044  2.2431  0.4554  1.9205
   19CHTO   O53 7790   4.654   7.960   1.249 -0.3620 -0.3321 -0.2550
   19CHTO   C82 7791   4.719   7.834   1.233  0.7187 -0.2081  0.3440
   19CHTO  H154 7792   4.808   7.848   1.171  0.7393 -0.3951  0.3316
   19CHTO   C89 7793   4.764   7.784   1.372  0.4040  0.2080 -0.6894
   19CHTO   O59 7794   4.891   7.710   1.370  0.3764 -0.0513 -0.0466
   19CHTO  H137 7795   4.957   7.776   1.362  0.0972  0.5050  1.9457
   19CHTO   O45 7796   4.513   8.162   1.174 -0.1397  0.4797  0.5289
   19CHTO   C67 7797   4.446   8.159   1.308  0.0676  0.3945  0.2270
   19CHTO  H124 7798   4.440   8.052   1.330 -1.9088  0.0232 -1.8527
   19CHTO   C65 7799   4.529   8.238   1.421 -0.2852 -0.0450  0.1967
   19CHTO  H122 7800   4.589   8.313   1.369  0.3543 -2.7686 -3.2229
   19CHTO   O44 7801   4.629   8.149   1.478  0.6459  0.0158  0.0371
   19CHTO  H102 7802   4.719   8.171   1.460  0.3550  1.5320  0.3160
   19CHTO   C63 7803   4.431   8.321   1.522  0.2342  0.3961  0.4207
   19CHTO  H120 7804   4.398   8.413   1.474 -0.9745 -0.1306  0.2071
   19CHTO   N11 7805   4.492   8.378   1.639  0.2576  0.0746  0.2686
   19CHTO  H108 7806   4.528   8.301   1.704  1.7675  0.2102 -0.3875
   19CHTO  H109 7807   4.564   8.456   1.623 -0.0974  0.6580  1.3865
   19CHTO   C61 7808   4.313   8.230   1.559 -0.1650  0.9178  0.2546
   19CHTO  H118 7809   4.236   8.283   1.616 -0.6805  0.1963  0.2349
   19CHTO   O40 7810   4.244   8.175   1.444  0.7803 -0.1948  0.1831
   19CHTO   C68 7811   4.295   8.210   1.312 -0.4925  0.4974  0.6438
   19CHTO  H125 7812   4.293   8.321   1.314  0.1670  0.5409 -0.5523
   19CHTO   C72 7813   4.202   8.166   1.192 -0.3342 -0.8133 -0.2263
   19CHTO   O48 7814   4.231   8.212   1.057 -0.1286  0.2452 -0.6225
   19CHTO  H105 7815   4.154   8.184   1.011 -1.5332  0.9701  1.2471
   19CHTO   O38 7816   4.356   8.105   1.625  0.5413 -0.2650 -0.3809
   19CHTO   C55 7817   4.251   8.011   1.661  0.3776 -0.2980 -0.3532
   19CHTO  H112 7818   4.165   8.019   1.593 -0.8806 -1.7516  1.0098
   19CHTO   C56 7819   4.202   8.040   1.811  0.2473  0.4508 -0.6851
   19CHTO  H113 7820   4.289   8.047   1.878 -1.5843 -0.3006  1.8484
   19CHTO   O42 7821   4.142   8.171   1.825 -0.2046  0.0793  0.1918
   19CHTO  H100 7822   4.103   8.189   1.741 -0.0699  1.8880  0.5199
   19CHTO   C57 7823   4.105   7.927   1.860 -0.3080  0.2314 -0.6832
   19CHTO  H114 7824   4.007   7.939   1.814 -1.7077 -2.7995  1.2747
   19CHTO   N10 7825   4.081   7.923   2.005 -0.2160 -0.1293  0.1888
   19CHTO  H106 7826   4.054   7.821   2.028 -2.0825  0.3270  0.1469
   19CHTO  H107 7827   4.166   7.949   2.066  0.5777 -4.5499  1.1214
   19CHTO   C58 7828   4.166   7.787   1.816 -0.0012 -0.5686 -0.0813
   19CHTO  H115 7829   4.253   7.766   1.882  0.1645  1.2086  0.3048
   19CHTO   O37 7830   4.205   7.782   1.677  0.4247 -0.4443 -0.2612
   19CHTO   C59 7831   4.305   7.875   1.644  0.5403  0.7916  0.3280
   19CHTO  H116 7832   4.390   7.868   1.712  1.1385 -1.3511 -0.6175
   19CHTO   C70 7833   4.354   7.855   1.499 -0.2978  0.6609 -0.3513
   19CHTO   O46 7834   4.423   7.729   1.481 -0.0092 -0.1628  0.3981
   19CHTO  H103 7835   4.441   7.704   1.392  1.0428 -0.3402  0.6519
   19CHTO   O39 7836   4.031   7.661   1.835  0.5867  0.4864  0.2063
   19CHTO   C60 7837   4.006   7.575   1.724  0.2111 -0.2378  0.3031
   19CHTO  H117 7838   4.001   7.642   1.638 -0.8018  0.7098  1.0925
   19CHTO   C62 7839   4.107   7.462   1.696 -0.0216  0.1653  0.3964
   19CHTO  H119 7840   4.205   7.513   1.685 -0.2454  0.2478 -1.2834
   19CHTO   O43 7841   4.126   7.388   1.814  0.3220 -0.2807  0.1675
   19CHTO  H101 7842   4.182   7.314   1.798  0.2072 -0.3823  0.2343
   19CHTO   C66 7843   4.068   7.375   1.563 -0.2684  0.9091  0.2258
   19CHTO  H123 7844   4.033   7.442   1.485  2.3885 -0.0618 -1.8559
   19CHTO   N12 7845   4.189   7.304   1.519 -0.4386  0.3014  0.1495
   19CHTO  H110 7846   4.281   7.360   1.525 -0.8261  1.2475 -2.2273
   19CHTO  H111 7847   4.179   7.239   1.433  0.8383  1.2197 -0.7202
   19CHTO   C69 7848   3.949   7.284   1.595 -1.0902 -0.5215  0.1717
   19CHTO  H126 7849   3.964   7.212   1.679  1.7324  1.5171  1.4971
   19CHTO   O41 7850   3.824   7.388   1.650  0.7563  0.6530 -0.3228
   19CHTO   C64 7851   3.857   7.517   1.753 -0.7987  0.2058 -0.2396
   19CHTO  H121 7852   3.848   7.485   1.859  0.1791 -0.8478 -0.4594
   19CHTO   C71 7853   3.755   7.629   1.739  0.4545 -0.1631 -0.3359
   19CHTO   O47 7854   3.628   7.586   1.790  0.4812  0.0765  0.2871
   19CHTO  H104 7855   3.629   7.584   1.884  0.6428 -0.7906  0.2750
   19CHTO   O34 7856   3.913   7.196   1.447  0.1483  0.2826 -0.2011
   19CHTO   C49 7857   3.809   7.236   1.332 -0.7021  0.2123 -0.4045
   19CHTO   H91 7858   3.706   7.231   1.368 -0.8956  0.9788 -0.8254
   19CHTO   C47 7859   3.831   7.138   1.211 -0.3637  0.3898  0.0749
   19CHTO   H89 7860   3.739   7.153   1.150 -0.9901  0.7555  1.0860
   19CHTO   O33 7861   3.824   7.007   1.272 -0.1233 -0.1735  0.1857
   19CHTO   H70 7862   3.737   6.972   1.278 -0.4055  0.6296  0.8050
   19CHTO   C45 7863   3.975   7.160   1.147 -0.1686  0.2834 -0.5700
   19CHTO   H87 7864   4.039   7.139   1.234 -1.1198  1.9901  0.5813
   19CHTO    N8 7865   4.008   7.067   1.036 -0.3197 -0.2710  0.4285
   19CHTO   H75 7866   3.932   6.991   1.025 -0.9027  0.2388  0.9046
   19CHTO   H76 7867   4.027   7.110   0.939 -1.2912 -2.4028 -0.7465
   19CHTO   C43 7868   4.001   7.311   1.103 -0.1771 -0.0483 -1.0030
   19CHTO   H85 7869   4.109   7.326   1.094 -0.2019 -0.5561 -2.2091
   19CHTO   O29 7870   3.948   7.400   1.204  0.1741 -0.0833 -0.0885
   19CHTO   C50 7871   3.830   7.383   1.281  0.8545 -0.5163  0.3692
   19CHTO   H92 7872   3.832   7.452   1.366  0.3150 -0.6849  0.5238
   19CHTO   C54 7873   3.706   7.432   1.205  0.6845 -0.3005  0.1074
   19CHTO   O36 7874   3.581   7.417   1.278  0.0745 -0.5399  0.2820
   19CHTO   H72 7875   3.517   7.385   1.217  0.4004  1.4984 -1.1593
   19CHTO   O27 7876   3.942   7.344   0.975  0.0611 -0.0933 -0.4462
   19CHTO   C37 7877   3.961   7.436   0.870  0.0645 -0.2987 -0.2339
   19CHTO   H79 7878   3.871   7.436   0.807 -1.2006 -1.2558  1.5165
   19CHTO   C38 7879   3.983   7.584   0.924  0.3224  0.2216 -0.8259
   19CHTO   H80 7880   4.056   7.578   1.005 -1.2397 -1.2053  0.5178
   19CHTO   O31 7881   3.865   7.619   0.991 -0.2550 -0.0563 -0.2183
   19CHTO   H68 7882   3.880   7.621   1.084 -1.0943 -0.1399 -0.0751
   19CHTO   C39 7883   4.027   7.692   0.813  0.6968  0.5110  0.2091
   19CHTO   H81 7884   3.947   7.702   0.740  1.0628  4.2307  0.2010
   19CHTO    N7 7885   4.053   7.831   0.870 -0.0060  0.3220 -0.2719
   19CHTO   H73 7886   3.978   7.871   0.937  0.9497  1.4987  0.1131
   19CHTO   H74 7887   4.135   7.841   0.939 -1.3853  4.7529  0.8684
   19CHTO   C40 7888   4.143   7.638   0.729 -0.0742  0.1820 -0.0394
   19CHTO   H82 7889   4.238   7.632   0.782  0.9289 -1.8575 -1.9901
   19CHTO   O26 7890   4.104   7.510   0.681 -0.2258  0.1489  0.3095
   19CHTO   C41 7891   4.086   7.403   0.784 -0.7095 -0.2768 -0.5743
   19CHTO   H83 7892   4.178   7.395   0.843  0.2135 -1.5873 -2.1442
   19CHTO   C52 7893   4.076   7.264   0.715 -0.3110  0.2960  0.0635
   19CHTO   O35 7894   3.954   7.237   0.637 -0.0690 -0.4521 -0.1237
   19CHTO   H71 7895   3.939   7.302   0.572  0.1109 -2.1580 -1.9309
   19CHTO   O28 7896   4.180   7.701   0.607  0.2252 -0.0745  0.2056
   19CHTO   C42 7897   4.310   7.781   0.596 -0.2519 -0.0464  0.1862
   19CHTO   H84 7898   4.333   7.821   0.695 -0.1323 -0.8994  0.5011
   19CHTO   C44 7899   4.301   7.906   0.502 -0.4286  0.1725 -0.4857
   19CHTO   H86 7900   4.281   7.870   0.401  0.7721 -2.4481  0.1745
   19CHTO   O32 7901   4.178   7.982   0.538 -0.3210 -0.2512  0.5400
   19CHTO   H69 7902   4.100   7.932   0.549 -1.5580  1.8103  1.5774
   19CHTO   C48 7903   4.434   7.991   0.497 -0.5795  0.5111 -0.3517
   19CHTO   H90 7904   4.451   8.020   0.601 -0.8302  2.0607 -0.7369
   19CHTO    N9 7905   4.425   8.107   0.394  0.3516  0.4016 -0.0683
   19CHTO   H77 7906   4.506   8.113   0.323  0.1910 -0.3483 -0.3185
   19CHTO   H78 7907   4.333   8.112   0.339  1.3570  0.7339 -1.7419
   19CHTO   C51 7908   4.548   7.892   0.453  0.5355 -0.3915  0.9361
   19CHTO   H93 7909   4.524   7.864   0.350  0.7679  1.1186  0.4701
   19CHTO   O30 7910   4.551   7.777   0.537  0.3829 -0.0095  0.1976
   19CHTO   C46 7911   4.431   7.693   0.553 -0.1775  0.8957  0.4975
   19CHTO   H88 7912   4.404   7.653   0.456 -3.3765  2.3588  0.7228
   19CHTO   C53 7913   4.467   7.571   0.654 -0.2437  0.2437 -0.0385
   19CHTO   O72 7914   4.581   7.505   0.599  0.0342  0.0583  0.0521
   19CHTO  H199 7915   4.595   7.424   0.646 -0.3821 -0.1810 -0.2339
   19CHTO   O22 7916   4.675   7.954   0.465 -0.5193 -0.1130  0.0616
   19CHTO   C31 7917   4.798   7.879   0.438 -0.0497  0.5505  0.6786
   19CHTO   H59 7918   4.762   7.777   0.413 -1.0581  0.8070  1.0370
   19CHTO   C29 7919   4.870   7.933   0.313 -0.1075  0.6171  0.3308
   19CHTO   H57 7920   4.913   8.030   0.339  1.5565 -0.0408  0.0792
   19CHTO   O21 7921   4.776   7.951   0.200 -0.3092  0.0014  0.4113
   19CHTO   H37 7922   4.758   8.043   0.195  0.4879  0.2475  1.7272
   19CHTO   C27 7923   4.984   7.838   0.268 -0.2317  0.1526 -0.1137
   19CHTO   H55 7924   4.940   7.745   0.227  3.0159 -2.4831  2.1016
   19CHTO    N5 7925   5.070   7.899   0.164 -0.0459 -0.2284 -0.6894
   19CHTO   H43 7926   5.138   7.821   0.132  0.0774  0.2632 -1.6330
   19CHTO   H44 7927   5.127   7.976   0.214 -0.7707 -0.8329  1.1066
   19CHTO   C25 7928   5.077   7.790   0.389  0.3279 -0.7993 -0.1856
   19CHTO   H53 7929   5.152   7.868   0.409  0.0692  0.3909 -3.5171
   19CHTO   O17 7930   4.996   7.759   0.510  0.2829 -0.7245 -0.2164
   19CHTO   C32 7931   4.903   7.855   0.555 -0.0901  0.8358  0.0868
   19CHTO   H60 7932   4.964   7.945   0.566  0.8304  0.2311 -0.0772
   19CHTO   C36 7933   4.847   7.808   0.685  0.7398 -0.5117 -0.0804
   19CHTO   O25 7934   4.774   7.912   0.750 -0.6298  0.2629  0.4688
   19CHTO   H40 7935   4.825   7.956   0.816 -1.4225 -1.5908  2.3655
   19CHTO   O15 7936   5.156   7.654   0.355  0.1021  0.2902  0.2478
   19CHTO   C19 7937   5.251   7.596   0.255  0.4409 -0.1127 -0.2562
   19CHTO   H47 7938   5.191   7.607   0.163 -1.8984  1.7568  1.4204
   19CHTO   C20 7939   5.397   7.653   0.239  0.1351 -1.2670 -0.2370
   19CHTO   H48 7940   5.451   7.654   0.335 -0.0232  3.7891 -0.0581
   19CHTO   O19 7941   5.386   7.788   0.182  0.6970 -0.1669 -0.1534
   19CHTO   H35 7942   5.472   7.823   0.167  1.2853 -0.9501  1.3416
   19CHTO   C21 7943   5.485   7.567   0.137 -0.4525 -0.1026  0.0020
   19CHTO   H49 7944   5.439   7.578   0.039 -0.6555  0.7229  0.1933
   19CHTO    N4 7945   5.635   7.599   0.122 -0.1692 -0.1024 -0.1607
   19CHTO   H41 7946   5.675   7.570   0.217  0.5841 -0.2895 -0.5314
   19CHTO   H42 7947   5.635   7.707   0.110  1.6314 -0.1230 -0.5120
   19CHTO   C22 7948   5.464   7.413   0.157  0.0082  0.8210 -0.1470
   19CHTO   H50 7949   5.515   7.381   0.247 -0.7699 -2.3920 -0.7967
   19CHTO   O14 7950   5.330   7.388   0.164 -0.0935 -0.0147  0.5895
   19CHTO   C23 7951   5.270   7.444   0.283 -0.0032 -0.4721 -0.1769
   19CHTO   H51 7952   5.331   7.430   0.374 -2.4086  1.6497  1.8476
   19CHTO   C34 7953   5.128   7.385   0.302  0.3497 -0.3548 -0.1167
   19CHTO   O23 7954   5.134   7.242   0.334 -0.3996 -0.3934 -0.0085
   19CHTO   H38 7955   5.179   7.231   0.415  0.7698 -0.7169 -0.6897
   19CHTO   O16 7956   5.512   7.340   0.042  0.3293 -0.1641 -0.8759
   19CHTO   C24 7957   5.605   7.224   0.062  1.1329 -1.1159 -0.2276
   19CHTO   H52 7958   5.676   7.247   0.142  1.3830  0.2602 -0.8364
   19CHTO   C26 7959   5.676   7.200  -0.075  0.0756 -0.2009 -0.3550
   19CHTO   H54 7960   5.610   7.246  -0.152  0.5905  0.4227 -0.4327
   19CHTO   O20 7961   5.783   7.289  -0.067  0.2652  0.1283  0.3486
   19CHTO   H36 7962   5.836   7.263   0.005  3.2597  0.6849 -1.5238
   19CHTO   C30 7963   5.729   7.059  -0.107  0.3218  0.0945  0.1634
   19CHTO   H58 7964   5.821   7.032  -0.053 -1.7369 -2.5135  2.4618
   19CHTO    N6 7965   5.760   7.051  -0.256  0.1624 -0.2512 -0.5706
   19CHTO   H45 7966   5.708   6.972  -0.308 -2.6740  1.5355 -0.5868
   19CHTO   H46 7967   5.866   7.036  -0.266  0.5804  1.7231  0.5228
   19CHTO   C33 7968   5.619   6.966  -0.062 -0.3774 -0.2427 -0.1508
   19CHTO   H61 7969   5.530   6.996  -0.119 -1.4656 -2.6953  0.1706
   19CHTO   O18 7970   5.594   6.982   0.079 -1.0612 -0.0156  0.4941
   19CHTO   C28 7971   5.515   7.104   0.110 -0.5257 -0.7193  0.5455
   19CHTO   H56 7972   5.420   7.118   0.058  0.7011  1.7885 -1.1229
   19CHTO   C35 7973   5.484   7.107   0.258  0.2816  0.3901  0.2022
   19CHTO   O24 7974   5.376   7.010   0.275 -0.0262 -0.2652 -0.0297
   19CHTO   H39 7975   5.404   6.944   0.336  1.6427 -1.0659 -1.6014
   19CHTO    O9 7976   5.635   6.829  -0.097 -0.8036  0.2838 -0.0754
   19CHTO   C13 7977   5.489   6.746  -0.128  0.3571  0.3094  0.4511
   19CHTO   H26 7978   5.449   6.802  -0.215  0.5202 -2.2441 -1.3253
   19CHTO   C11 7979   5.397   6.757  -0.005 -0.1197 -0.1477  0.2800
   19CHTO   H24 7980   5.383   6.866   0.003  1.0764  0.1671 -1.6153
   19CHTO    O8 7981   5.464   6.703   0.109  0.4102  1.0634 -0.2063
   19CHTO    H3 7982   5.427   6.620   0.132 -1.4211  1.6642 -0.9410
   19CHTO    C9 7983   5.268   6.689  -0.039 -0.1262 -0.8696  0.1397
   19CHTO   H22 7984   5.234   6.729  -0.136 -0.1125  0.1293  0.5398
   19CHTO    N2 7985   5.163   6.715   0.066  0.5603 -0.3985 -0.2532
   19CHTO   H10 7986   5.169   6.813   0.110  1.4993 -0.8655  0.7088
   19CHTO   H11 7987   5.173   6.646   0.149 -0.9025 -0.5922 -0.2366
   19CHTO    C7 7988   5.296   6.534  -0.060 -0.1676  0.4069  0.5804
   19CHTO   H20 7989   5.195   6.498  -0.090  0.6394 -2.3035  0.9283
   19CHTO    O4 7990   5.395   6.515  -0.165 -0.4624  0.0869 -0.4245
   19CHTO   C14 7991   5.508   6.592  -0.168 -0.2753  0.0186  0.9118
   19CHTO   H27 7992   5.549   6.600  -0.271 -1.2436 -1.0175  0.4418
   19CHTO   C18 7993   5.624   6.533  -0.081 -0.2456  0.3118 -0.1641
   19CHTO   O13 7994   5.654   6.401  -0.125 -0.7800 -0.1898  0.5373
   19CHTO    H7 7995   5.716   6.398  -0.196 -2.2640  0.0821 -0.8018
   19CHTO    O2 7996   5.348   6.437   0.071  0.0671  0.5494 -0.1511
   19CHTO    C1 7997   5.361   6.298   0.054  0.2827  0.7012 -0.2107
   19CHTO   H14 7998   5.444   6.284  -0.018  0.8916  1.9502  0.2508
   19CHTO    C2 7999   5.232   6.212   0.008 -0.4300 -0.2445  0.4041
   19CHTO   H15 8000   5.143   6.245   0.064  0.2047  2.0214  0.1247
   19CHTO    O6 8001   5.193   6.251  -0.124  0.5785  0.2559  0.9171
   19CHTO    H1 8002   5.174   6.171  -0.169  0.4149  0.7030  0.2005
   19CHTO    C3 8003   5.263   6.050   0.031 -0.3496  0.2914  0.2514
   19CHTO   H16 8004   5.342   6.021  -0.039 -2.7758 -0.6418 -2.2242
   19CHTO    N1 8005   5.136   5.972  -0.001 -0.5183 -0.0914 -0.3973
   19CHTO    H8 8006   5.095   6.017  -0.090  0.7643  1.0884 -0.4004
   19CHTO    H9 8007   5.069   5.959   0.083 -1.4548  0.6917 -1.0211
   19CHTO    C4 8008   5.312   6.023   0.177 -0.2816  0.0264 -0.1053
   19CHTO   H17 8009   5.229   6.040   0.246 -1.1342 -2.0211 -0.5835
   19CHTO    O1 8010   5.425   6.111   0.202 -0.2785  0.4660 -0.0991
   19CHTO    C5 8011   5.404   6.249   0.193 -0.2268  0.2240  0.6559
   19CHTO   H18 8012   5.325   6.279   0.262 -1.2435  1.0447 -0.8641
   19CHTO   C16 8013   5.539   6.311   0.234  0.2712 -0.4378  0.6273
   19CHTO   O11 8014   5.569   6.295   0.374 -0.3711  0.5413  0.3223
   19CHTO    H5 8015   5.546   6.376   0.415 -1.3790 -0.4243  1.7078
   19CHTO    O3 8016   5.381   5.892   0.187 -0.2133 -0.4402  0.1793
   19CHTO    C6 8017   5.368   5.840   0.321  0.7344 -0.3244 -0.5425
   19CHTO   H19 8018   5.344   5.913   0.398 -2.1535 -1.9997  0.2099
   19CHTO    C8 8019   5.270   5.726   0.317 -0.3756  0.7365  0.1508
   19CHTO   H21 8020   5.301   5.660   0.236  2.0515  1.1170  0.7169
   19CHTO    O7 8021   5.141   5.788   0.287  0.4078  0.0376 -0.3143
   19CHTO    H2 8022   5.119   5.798   0.196  0.3318 -0.0433 -0.3054
   19CHTO   C12 8023   5.257   5.647   0.455  0.4513  0.4249  0.6611
   19CHTO   H25 8024   5.198   5.719   0.515 -1.4439 -0.5498 -0.0244
   19CHTO    N3 8025   5.175   5.528   0.443 -0.1750  0.4918 -0.3268
   19CHTO   H12 8026   5.074   5.540   0.407 -0.7111  0.9269  1.2691
   19CHTO   H13 8027   5.173   5.476   0.538 -1.3282 -0.7950 -1.0453
   19CHTO   C15 8028   5.402   5.630   0.524  0.0540 -0.2598  0.2356
   19CHTO   H28 8029   5.451   5.537   0.496  1.3357  0.8003 -1.1038
   19CHTO   O10 8030   5.390   5.644   0.693 -0.3965 -0.1542  0.2714
   19CHTO    H4 8031   5.465   5.685   0.732 -1.0637 -0.8596  2.3282
   19CHTO    O5 8032   5.498   5.736   0.500 -0.0331 -0.1992 -0.5441
   19CHTO   C10 8033   5.504   5.779   0.359  0.3362  0.1579 -0.0559
   19CHTO   H23 8034   5.518   5.684   0.307 -0.5333 -0.4052  0.7315
   19CHTO   C17 8035   5.633   5.866   0.344 -0.0320  0.3467 -0.0979
   19CHTO   O12 8036   5.657   5.910   0.209 -0.2296  0.2095  0.2815
   19CHTO    H6 8037   5.686   6.000   0.211 -0.2477  0.2594 -0.8731
   20CHTO  H203 8038   5.057   1.217   2.093 -1.0014 -0.4299  0.8182
   20CHTO   O82 8039   5.133   1.271   2.083 -0.7780 -0.9397 -0.2931
   20CHTO  C123 8040   5.105   1.365   1.987 -0.3754  0.4047  0.7994
   20CHTO  H227 8041   5.001   1.401   1.996 -0.8437 -0.5285 -0.7061
   20CHTO   O77 8042   5.204   1.462   2.020 -0.1057 -0.0101  0.6500
   20CHTO  C118 8043   5.228   1.572   1.931 -0.3559  0.1944  0.5576
   20CHTO  H222 8044   5.142   1.639   1.913 -0.3879 -0.1285 -0.5216
   20CHTO  C125 8045   5.350   1.663   1.979  0.3027 -0.5537  0.3521
   20CHTO   O84 8046   5.332   1.712   2.105  0.4104 -0.0310 -0.1324
   20CHTO  H205 8047   5.249   1.686   2.140  0.0527 -0.6516 -1.4197
   20CHTO  C114 8048   5.268   1.513   1.788  0.0722  0.1137 -0.6117
   20CHTO  H218 8049   5.364   1.462   1.801  0.0905  0.2006 -0.4160
   20CHTO  C116 8050   5.157   1.419   1.733 -0.1648  0.0930  0.4022
   20CHTO  H220 8051   5.066   1.477   1.706 -0.9651 -2.9625 -4.0991
   20CHTO   O79 8052   5.198   1.363   1.605  0.4381  0.4068 -0.1506
   20CHTO  H201 8053   5.191   1.440   1.553  0.8234 -0.1255 -0.9965
   20CHTO  C120 8054   5.126   1.306   1.839  0.2844  0.4920  0.1999
   20CHTO  H224 8055   5.216   1.240   1.839 -0.8080 -1.0434 -1.3716
   20CHTO   N21 8056   5.015   1.213   1.795  0.6240 -0.2834  0.4023
   20CHTO  H211 8057   5.018   1.208   1.687 -0.3967  1.7403  0.2585
   20CHTO  H212 8058   4.918   1.245   1.829 -0.8552 -2.5354 -1.5463
   20CHTO   O75 8059   5.303   1.623   1.707 -0.0012  0.1414 -0.2948
   20CHTO  C112 8060   5.426   1.579   1.607  0.4635 -1.2031 -0.2785
   20CHTO  H216 8061   5.421   1.472   1.582 -0.8566 -1.0720 -0.5905
   20CHTO   O73 8062   5.550   1.613   1.672  0.0830  0.0021 -0.1523
   20CHTO  C113 8063   5.655   1.566   1.584 -0.6928  0.1288 -0.0701
   20CHTO  H217 8064   5.639   1.465   1.543 -0.0012  0.9853 -2.5489
   20CHTO  C124 8065   5.784   1.565   1.669 -0.3334 -0.2055  0.1259
   20CHTO   O83 8066   5.892   1.485   1.616 -0.2790  0.6534 -0.7490
   20CHTO  H204 8067   5.936   1.431   1.679 -1.0932  0.8082 -0.0441
   20CHTO  C109 8068   5.665   1.661   1.471 -0.0464  0.5680 -0.6554
   20CHTO  H213 8069   5.672   1.761   1.516  1.8412 -1.0479  2.8287
   20CHTO  C110 8070   5.533   1.649   1.389  0.0190  0.4033  0.1883
   20CHTO  H214 8071   5.537   1.552   1.337 -2.2495  0.8449 -0.8766
   20CHTO   O78 8072   5.524   1.742   1.280  0.1176  0.1593 -0.4097
   20CHTO  H200 8073   5.542   1.833   1.295 -0.9169  0.1257  1.0937
   20CHTO  C111 8074   5.414   1.665   1.479  0.3123  0.6285  0.1870
   20CHTO  H215 8075   5.410   1.768   1.517  1.2273  0.5811  0.4255
   20CHTO   N19 8076   5.285   1.637   1.411 -0.0055 -0.0648 -0.3560
   20CHTO  H207 8077   5.296   1.592   1.313 -0.1556 -1.1712  0.1238
   20CHTO  H208 8078   5.234   1.729   1.388 -0.6528 -0.5179 -0.7605
   20CHTO   O74 8079   5.782   1.629   1.389 -0.4377  0.1052 -0.1918
   20CHTO  C115 8080   5.885   1.746   1.365 -0.0195 -0.4313  0.2245
   20CHTO  H219 8081   5.873   1.826   1.437 -1.0664  0.3259 -0.7593
   20CHTO   O76 8082   6.038   1.700   1.377  0.0916  0.5941 -0.2618
   20CHTO  C122 8083   6.070   1.587   1.297 -0.5939  0.1024  0.9408
   20CHTO  H226 8084   6.017   1.500   1.336 -0.2429 -0.3455  0.4250
   20CHTO  C126 8085   6.226   1.560   1.313  0.4050  0.2125 -0.2904
   20CHTO   O85 8086   6.279   1.444   1.249  0.1832  0.1868  0.2551
   20CHTO  H206 8087   6.321   1.391   1.314 -1.5970 -1.1129  0.3695
   20CHTO  C121 8088   6.029   1.612   1.141 -0.3216 -0.2481  0.2686
   20CHTO  H225 8089   6.119   1.600   1.078 -0.8957 -2.4236 -0.1725
   20CHTO   O81 8090   5.942   1.508   1.089 -0.5352 -0.0596 -0.3467
   20CHTO  H202 8091   5.862   1.535   1.048  1.1564 -0.6245 -4.3110
   20CHTO  C119 8092   5.970   1.761   1.121 -0.7768  0.2749 -0.2156
   20CHTO  H223 8093   6.055   1.823   1.148  0.6604 -1.9054  0.3833
   20CHTO  C117 8094   5.856   1.806   1.215 -0.3045  0.2970  0.5634
   20CHTO  H221 8095   5.756   1.772   1.188 -0.5865  0.5834  1.2302
   20CHTO   N20 8096   5.836   1.948   1.220 -0.3461 -0.1708 -0.2233
   20CHTO  H209 8097   5.745   1.985   1.176  0.2266 -1.3486 -2.4698
   20CHTO  H210 8098   5.829   1.979   1.323 -1.7891 -0.6243 -0.1639
   20CHTO   O80 8099   5.952   1.790   0.992  0.4837  0.2540  0.1007
   20CHTO  C103 8100   6.084   1.819   0.889  0.1129 -0.2272  0.4825
   20CHTO  H190 8101   6.184   1.798   0.929  0.9030  1.4805 -0.5512
   20CHTO  C101 8102   6.078   1.740   0.752  0.2851 -0.0136  0.2600
   20CHTO  H188 8103   5.975   1.749   0.717  1.0249  1.7744 -1.5078
   20CHTO   O68 8104   6.108   1.612   0.777 -0.0384 -0.6162 -0.3506
   20CHTO  H168 8105   6.192   1.588   0.744  0.8299  1.9425 -0.1190
   20CHTO   C99 8106   6.160   1.795   0.626  0.2691  0.3447  0.4819
   20CHTO  H186 8107   6.268   1.779   0.645  0.0349  0.0905  1.6113
   20CHTO   N17 8108   6.127   1.727   0.493 -1.1792 -0.5201 -0.2167
   20CHTO  H174 8109   6.213   1.672   0.458  0.2568  0.3832  1.8087
   20CHTO  H175 8110   6.040   1.663   0.489 -1.3696 -0.1972 -1.3552
   20CHTO   C97 8111   6.141   1.947   0.618 -0.0460 -0.3209  0.5360
   20CHTO  H184 8112   6.035   1.959   0.591  0.5134  3.7007 -0.2434
   20CHTO   O64 8113   6.168   2.003   0.746  0.3800 -0.4710  0.3202
   20CHTO  C104 8114   6.082   1.974   0.853  0.4651  0.5312 -0.2513
   20CHTO  H191 8115   5.977   1.994   0.828  0.5632  0.0044 -1.1102
   20CHTO  C108 8116   6.114   2.059   0.981  0.2781  0.5809 -0.0201
   20CHTO   O71 8117   6.075   2.195   0.963 -0.4314 -0.0658  0.2172
   20CHTO  H171 8118   6.108   2.241   1.038  1.5049  0.2413 -0.7610
   20CHTO   O62 8119   6.220   2.023   0.519  0.6059 -0.0491  0.3108
   20CHTO   C91 8120   6.176   2.147   0.463  0.2086  0.1227  0.3292
   20CHTO  H178 8121   6.116   2.208   0.530 -0.0953  1.2606 -0.9639
   20CHTO   C92 8122   6.067   2.123   0.347 -0.1253 -0.3134  0.4846
   20CHTO  H179 8123   6.113   2.062   0.269  2.3941 -0.2667  1.8614
   20CHTO   O66 8124   5.961   2.041   0.403 -0.1630  0.1985 -0.5754
   20CHTO  H166 8125   5.912   2.072   0.477 -0.7337  0.7049 -1.1493
   20CHTO   C93 8126   6.012   2.264   0.301  0.2283 -0.7551 -0.2854
   20CHTO  H180 8127   5.956   2.299   0.389  1.3093  0.3487 -0.0166
   20CHTO   N16 8128   5.923   2.265   0.181 -0.3016 -0.3002 -0.1347
   20CHTO  H172 8129   5.838   2.199   0.183 -0.3114 -0.3466 -1.6876
   20CHTO  H173 8130   5.986   2.241   0.097  1.6979 -1.2881  1.5859
   20CHTO   C94 8131   6.128   2.371   0.278  0.8430 -0.9404  0.5391
   20CHTO  H181 8132   6.189   2.347   0.191  0.2892 -0.6629  0.0741
   20CHTO   O61 8133   6.224   2.373   0.387  0.8504  0.7492  0.5101
   20CHTO   C95 8134   6.289   2.246   0.408  0.4351  0.6063 -0.0611
   20CHTO  H182 8135   6.330   2.207   0.314 -1.4589 -1.4744 -0.0713
   20CHTO  C106 8136   6.407   2.258   0.505  0.6482 -0.3187  0.3465
   20CHTO   O69 8137   6.500   2.351   0.451 -0.4492  0.0536  0.5480
   20CHTO  H169 8138   6.586   2.313   0.450 -1.2364 -1.7565 -0.9055
   20CHTO   O63 8139   6.055   2.536   0.273 -0.1780 -0.4383  0.0990
   20CHTO   C96 8140   6.021   2.593   0.142  0.2586 -0.2277 -0.2530
   20CHTO  H183 8141   5.983   2.507   0.086  0.0145 -0.2585 -0.0427
   20CHTO   C98 8142   6.144   2.653   0.056 -0.0945  0.4294  0.1690
   20CHTO  H185 8143   6.211   2.712   0.119  1.9760 -0.6139 -1.0170
   20CHTO   O67 8144   6.221   2.538   0.023 -0.4689  0.0455  0.5059
   20CHTO  H167 8145   6.186   2.479  -0.041  0.7756 -0.0124 -0.1431
   20CHTO  C102 8146   6.101   2.738  -0.069  0.4891 -0.4232  0.5907
   20CHTO  H189 8147   6.062   2.665  -0.141  1.4661 -1.6412  1.2831
   20CHTO   N18 8148   6.216   2.799  -0.142  0.4777 -0.1399  0.4178
   20CHTO  H176 8149   6.184   2.838  -0.238 -3.8380 -1.3536  1.2563
   20CHTO  H177 8150   6.293   2.723  -0.144  0.1479 -0.4987  1.2745
   20CHTO  C105 8151   5.984   2.834  -0.036 -0.2848  0.2601  0.2430
   20CHTO  H192 8152   6.019   2.914   0.029 -1.4980 -0.5674  1.9654
   20CHTO   O65 8153   5.880   2.774   0.038 -0.0059 -0.2475  0.3857
   20CHTO  C100 8154   5.912   2.704   0.161  0.1890 -0.1227  0.4092
   20CHTO  H187 8155   5.949   2.783   0.227  1.6358  0.6956 -1.3393
   20CHTO  C107 8156   5.781   2.655   0.210  0.5395 -0.3003  0.4044
   20CHTO   O70 8157   5.804   2.606   0.343  0.4535  0.1738  0.2132
   20CHTO  H170 8158   5.718   2.605   0.380 -1.0044  1.3356 -2.9392
   20CHTO   O57 8159   5.938   2.874  -0.171 -0.6519 -0.1021 -0.4992
   20CHTO   C85 8160   5.867   2.998  -0.201 -0.8763  0.2021 -0.1834
   20CHTO  H157 8161   5.795   3.021  -0.120 -0.5828 -0.8640  0.3989
   20CHTO   C83 8162   5.763   2.967  -0.304 -0.3381 -0.0992 -0.1408
   20CHTO  H155 8163   5.710   2.882  -0.260 -0.7902 -0.2473 -0.9651
   20CHTO   O56 8164   5.834   2.916  -0.419 -0.5162 -0.3359  0.5462
   20CHTO  H135 8165   5.780   2.864  -0.475  0.0629 -1.0923  0.6914
   20CHTO   C81 8166   5.669   3.085  -0.321 -0.6610  0.0783 -0.2751
   20CHTO  H153 8167   5.631   3.109  -0.222  2.2236  1.5456  0.5381
   20CHTO   N14 8168   5.552   3.052  -0.399 -0.6287 -0.3274 -0.1627
   20CHTO  H141 8169   5.551   3.084  -0.501 -0.7564  0.5388  0.1067
   20CHTO  H142 8170   5.460   3.085  -0.354 -0.0595  0.1695  0.6421
   20CHTO   C79 8171   5.750   3.211  -0.374  0.7477 -0.7780 -0.3104
   20CHTO  H151 8172   5.678   3.292  -0.379  0.7184 -0.6130  2.1828
   20CHTO   O52 8173   5.855   3.235  -0.281  0.4866  0.0159  0.6650
   20CHTO   C86 8174   5.946   3.124  -0.253  0.2819  0.2715 -0.0908
   20CHTO  H158 8175   5.991   3.104  -0.353 -0.6598  2.2769 -0.9343
   20CHTO   C90 8176   6.062   3.164  -0.165  0.1054 -0.2463 -0.1293
   20CHTO   O60 8177   6.035   3.186  -0.031 -0.1232 -0.1759  0.2648
   20CHTO  H138 8178   6.024   3.108   0.021  0.6067 -1.7024 -1.7873
   20CHTO   O50 8179   5.805   3.204  -0.503  0.5256  0.1329 -0.3603
   20CHTO   C73 8180   5.885   3.186  -0.622 -0.3405 -0.7193  0.2171
   20CHTO  H145 8181   5.954   3.101  -0.613  0.9207  0.1213 -1.3175
   20CHTO   C74 8182   5.986   3.312  -0.617  0.2434 -0.2392  0.7922
   20CHTO  H146 8183   6.035   3.306  -0.519  0.1061 -0.0908  0.8699
   20CHTO   O54 8184   6.083   3.301  -0.727  0.2999  0.3694  0.2053
   20CHTO  H133 8185   6.057   3.336  -0.810  0.3040  1.3883  0.6329
   20CHTO   C75 8186   5.890   3.437  -0.631  0.9394 -0.2609  0.0537
   20CHTO  H147 8187   5.831   3.448  -0.539  1.0021  0.1985  0.0412
   20CHTO   N13 8188   5.954   3.564  -0.640  0.0232 -0.2273 -0.5057
   20CHTO  H139 8189   5.885   3.646  -0.652 -0.0647 -0.1466  0.4959
   20CHTO  H140 8190   6.028   3.564  -0.719 -0.3218 -0.6982 -0.8253
   20CHTO   C76 8191   5.792   3.422  -0.763  0.2626 -0.1682 -0.4877
   20CHTO  H148 8192   5.854   3.432  -0.852 -0.4299 -2.1068 -1.2021
   20CHTO   O49 8193   5.718   3.297  -0.766  0.1025  0.1346  0.4030
   20CHTO   C77 8194   5.803   3.180  -0.758 -0.1813 -0.5217 -0.3533
   20CHTO  H149 8195   5.871   3.177  -0.843  0.4272  0.0866  0.1053
   20CHTO   C88 8196   5.728   3.049  -0.761  0.6051  0.9691 -0.9464
   20CHTO   O58 8197   5.695   2.996  -0.901 -0.2437 -0.2199  0.9133
   20CHTO  H136 8198   5.770   2.968  -0.950 -0.4241  0.8141  0.0107
   20CHTO   O51 8199   5.684   3.536  -0.772  0.4568  0.1123  0.5030
   20CHTO   C78 8200   5.589   3.567  -0.616 -0.2333  0.1468  0.4884
   20CHTO  H150 8201   5.659   3.559  -0.530 -1.8321 -1.7086  1.6473
   20CHTO   C80 8202   5.469   3.472  -0.594 -0.4540  0.0808 -0.1148
   20CHTO  H152 8203   5.411   3.461  -0.688  0.3895 -0.3307 -0.5990
   20CHTO   O55 8204   5.528   3.346  -0.571 -0.0189 -0.0484 -0.3218
   20CHTO  H134 8205   5.468   3.284  -0.535  0.1677  0.2971  0.6153
   20CHTO   C84 8206   5.377   3.517  -0.472  0.0733 -0.7966 -0.3865
   20CHTO  H156 8207   5.441   3.511  -0.384 -1.3058 -1.8257  0.5653
   20CHTO   N15 8208   5.248   3.434  -0.448  0.0293 -0.6779  0.0167
   20CHTO  H143 8209   5.196   3.430  -0.542  0.0900 -1.5721  0.0117
   20CHTO  H144 8210   5.178   3.471  -0.376 -1.9018 -1.1287 -1.5722
   20CHTO   C87 8211   5.340   3.667  -0.484  0.0356 -0.3763 -0.1134
   20CHTO  H159 8212   5.261   3.680  -0.558 -0.4510 -1.9751  0.1112
   20CHTO   O53 8213   5.465   3.752  -0.513  0.6446  0.0977 -0.4702
   20CHTO   C82 8214   5.519   3.707  -0.636 -0.7137 -0.2517 -0.3236
   20CHTO  H154 8215   5.445   3.707  -0.716 -1.5711 -0.5419  0.4543
   20CHTO   C89 8216   5.632   3.801  -0.685 -0.3559  0.5269 -0.6225
   20CHTO   O59 8217   5.587   3.933  -0.711  0.1902 -0.2895 -0.1215
   20CHTO  H137 8218   5.596   3.956  -0.801  1.0369  2.0829  0.5281
   20CHTO   O45 8219   5.273   3.737  -0.353 -0.1343 -0.2043 -0.0440
   20CHTO   C67 8220   5.328   3.723  -0.220 -0.0364  0.4438 -0.3390
   20CHTO  H124 8221   5.349   3.616  -0.208 -0.4399  0.4699  0.6432
   20CHTO   C65 8222   5.458   3.810  -0.200  0.3769 -0.1344 -0.2386
   20CHTO  H122 8223   5.456   3.885  -0.279 -1.4472  0.1890  0.0978
   20CHTO   O44 8224   5.567   3.723  -0.238  0.1584  0.2221  0.2411
   20CHTO  H102 8225   5.647   3.767  -0.218  1.0109 -0.6595 -1.1871
   20CHTO   C63 8226   5.468   3.891  -0.060 -0.1495  0.6041  0.2395
   20CHTO  H120 8227   5.390   3.966  -0.061 -3.2170 -2.4832 -0.9191
   20CHTO   N11 8228   5.598   3.966  -0.033 -0.3676 -0.2133 -0.0028
   20CHTO  H108 8229   5.605   4.049  -0.100 -0.0081 -0.7246 -0.6120
   20CHTO  H109 8230   5.598   4.003   0.067  1.3135 -0.1593 -0.0095
   20CHTO   C61 8231   5.424   3.784   0.048 -0.9937  0.3036  0.0939
   20CHTO  H118 8232   5.429   3.833   0.146  3.4250 -0.6798  0.4920
   20CHTO   O40 8233   5.291   3.728   0.022 -0.2528 -0.0322 -0.1505
   20CHTO   C68 8234   5.225   3.756  -0.107 -0.3480 -0.4310 -0.2703
   20CHTO  H125 8235   5.189   3.861  -0.117 -0.6890 -0.4303  0.9689
   20CHTO   C72 8236   5.107   3.668  -0.114  0.2118 -0.2709  0.1365
   20CHTO   O48 8237   5.001   3.699  -0.024  0.0531 -0.0958 -0.3393
   20CHTO  H105 8238   5.023   3.676   0.065  2.1099  0.7979 -0.5830
   20CHTO   O38 8239   5.524   3.677   0.050  0.2820 -0.6036  0.3137
   20CHTO   C55 8240   5.518   3.581   0.152 -0.0748  0.4141  0.2984
   20CHTO  H112 8241   5.414   3.557   0.178  0.2817 -1.9133 -0.2991
   20CHTO   C56 8242   5.599   3.635   0.280  0.7389 -0.3001 -0.1015
   20CHTO  H113 8243   5.696   3.676   0.249  0.0343  2.2011  0.9116
   20CHTO   O42 8244   5.521   3.740   0.336 -0.6119  0.3688  0.2382
   20CHTO  H100 8245   5.551   3.826   0.316 -1.1107  0.0210 -2.1465
   20CHTO   C57 8246   5.615   3.525   0.392  0.1970 -0.3037  0.3088
   20CHTO  H114 8247   5.515   3.527   0.436  0.0289  1.1444 -0.1210
   20CHTO   N10 8248   5.717   3.550   0.497  0.4708  0.0944  0.1534
   20CHTO  H106 8249   5.807   3.491   0.481  0.6112  0.2142  0.4922
   20CHTO  H107 8250   5.748   3.654   0.500  2.0937 -0.3076 -1.5639
   20CHTO   C58 8251   5.640   3.383   0.333 -0.5037  0.7922 -0.0904
   20CHTO  H115 8252   5.746   3.365   0.304 -1.3373 -2.7520 -1.1282
   20CHTO   O37 8253   5.569   3.359   0.211 -0.5931  0.7238 -0.6843
   20CHTO   C59 8254   5.584   3.450   0.107 -0.1577  0.1575  0.4976
   20CHTO  H116 8255   5.688   3.474   0.085 -0.4807  0.2086 -1.0091
   20CHTO   C70 8256   5.525   3.391  -0.020  0.6006 -0.5940 -0.0557
   20CHTO   O46 8257   5.604   3.287  -0.085 -0.1741  0.2080  0.7789
   20CHTO  H103 8258   5.549   3.270  -0.159  2.3208 -2.9783 -0.4743
   20CHTO   O39 8259   5.566   3.267   0.437 -0.5597  0.1974 -0.0443
   20CHTO   C60 8260   5.660   3.170   0.489  0.6523 -0.1814 -0.7354
   20CHTO  H117 8261   5.763   3.197   0.465  0.1692 -1.4010 -4.3728
   20CHTO   C62 8262   5.652   3.159   0.645 -0.0580  0.3382  0.7199
   20CHTO  H119 8263   5.682   3.264   0.664 -0.3145  0.3386  1.1407
   20CHTO   O43 8264   5.522   3.131   0.706 -0.5145  0.7276 -0.3502
   20CHTO  H101 8265   5.527   3.154   0.796 -2.0200 -1.6995  0.4093
   20CHTO   C66 8266   5.771   3.041   0.675  0.5193 -0.0168  0.4434
   20CHTO  H123 8267   5.866   3.074   0.632  1.1376 -1.0256  1.0174
   20CHTO   N12 8268   5.797   3.028   0.825 -0.0253  0.5179  0.0618
   20CHTO  H110 8269   5.883   2.964   0.842  0.3843  0.8024 -0.9062
   20CHTO  H111 8270   5.812   3.122   0.876 -0.0160 -1.8266  4.6734
   20CHTO   C69 8271   5.736   2.899   0.622  0.0952  0.2316 -0.1415
   20CHTO  H126 8272   5.636   2.880   0.667  1.1592  0.1221  2.2921
   20CHTO   O41 8273   5.730   2.923   0.488  0.1401  0.5569 -0.0266
   20CHTO   C64 8274   5.632   3.030   0.427 -0.0955 -0.5714 -0.0040
   20CHTO  H121 8275   5.528   2.999   0.452 -1.8147  3.9928 -1.0355
   20CHTO   C71 8276   5.642   3.040   0.267 -0.0518  0.7810 -0.6934
   20CHTO   O47 8277   5.777   3.043   0.224  0.4881  0.3190  0.3654
   20CHTO  H104 8278   5.788   3.029   0.132 -1.3485 -1.1073  0.3387
   20CHTO   O34 8279   5.847   2.782   0.660  0.5543  0.0336 -0.1170
   20CHTO   C49 8280   5.820   2.635   0.695  0.0623  0.3670  0.3521
   20CHTO   H91 8281   5.751   2.612   0.614  0.4383 -2.1766  0.7117
   20CHTO   C47 8282   5.731   2.619   0.825 -0.5886  0.6666 -0.5148
   20CHTO   H89 8283   5.625   2.638   0.802  0.1663  2.7264 -2.4291
   20CHTO   O33 8284   5.765   2.714   0.921  0.3227  0.4379  0.1002
   20CHTO   H70 8285   5.725   2.799   0.912 -0.5952  0.1459  1.4336
   20CHTO   C45 8286   5.761   2.472   0.892 -0.2150 -0.6539  0.9640
   20CHTO   H87 8287   5.836   2.483   0.971  0.6166 -0.1959  0.1300
   20CHTO    N8 8288   5.635   2.446   0.959  0.1870  0.0918 -0.1474
   20CHTO   H75 8289   5.634   2.506   1.049  2.5615  0.1619 -0.1454
   20CHTO   H76 8290   5.554   2.459   0.888  0.2005 -3.3484 -0.8492
   20CHTO   C43 8291   5.805   2.356   0.785 -0.2684  0.0800  0.0989
   20CHTO   H85 8292   5.831   2.267   0.843  3.7518  0.9096 -0.3076
   20CHTO   O29 8293   5.917   2.406   0.710  0.1899 -0.5314  0.2818
   20CHTO   C50 8294   5.946   2.549   0.708  0.0766 -0.1609 -0.1619
   20CHTO   H92 8295   6.005   2.581   0.795  0.9966 -0.5361 -0.6313
   20CHTO   C54 8296   6.029   2.575   0.588  0.3469  0.8002 -0.2387
   20CHTO   O36 8297   6.170   2.548   0.593  0.1023 -0.0538 -0.9402
   20CHTO   H72 8298   6.191   2.474   0.538 -1.6380 -0.1948 -1.4298
   20CHTO   O27 8299   5.703   2.323   0.692 -0.2364  0.8848  0.4920
   20CHTO   C37 8300   5.610   2.240   0.616  1.0242  0.1134  0.1279
   20CHTO   H79 8301   5.512   2.230   0.665  0.8148 -0.1622 -0.3391
   20CHTO   C38 8302   5.572   2.310   0.479 -0.4722 -0.0224  0.0220
   20CHTO   H80 8303   5.666   2.344   0.434  0.4874 -2.5726  0.0189
   20CHTO   O31 8304   5.486   2.421   0.514  0.3644  0.4291 -0.7518
   20CHTO   H68 8305   5.534   2.497   0.486  2.9976 -0.7958  0.2880
   20CHTO   C39 8306   5.503   2.206   0.380 -0.8724 -0.7837  0.6092
   20CHTO   H81 8307   5.402   2.184   0.415 -0.7479 -2.4035 -0.0072
   20CHTO    N7 8308   5.485   2.274   0.246 -0.0172  0.3323  0.0678
   20CHTO   H73 8309   5.454   2.377   0.249  1.5379  0.7846  0.8828
   20CHTO   H74 8310   5.568   2.250   0.182 -1.4801 -0.2669 -1.6220
   20CHTO   C40 8311   5.586   2.071   0.375 -1.1971 -0.5694 -0.2647
   20CHTO   H82 8312   5.687   2.100   0.345 -1.0160 -1.0790 -0.1654
   20CHTO   O26 8313   5.590   2.024   0.508  0.4133  0.0981  0.5249
   20CHTO   C41 8314   5.668   2.103   0.596  0.3196 -0.1437 -0.3173
   20CHTO   H83 8315   5.769   2.119   0.555 -0.1300 -1.6841 -2.1017
   20CHTO   C52 8316   5.683   2.028   0.733 -0.8270  0.6934 -0.1882
   20CHTO   O35 8317   5.750   1.901   0.723 -0.1601 -0.0640  0.0737
   20CHTO   H71 8318   5.699   1.859   0.657 -0.8794  1.5243 -0.4092
   20CHTO   O28 8319   5.526   1.965   0.289  0.1827  0.4602  0.2158
   20CHTO   C42 8320   5.610   1.865   0.231 -0.1559 -1.2733  0.0538
   20CHTO   H84 8321   5.543   1.803   0.173 -1.7851 -0.6718  1.2679
   20CHTO   C44 8322   5.679   1.776   0.332 -0.5966  0.0590  0.3958
   20CHTO   H86 8323   5.746   1.836   0.393 -0.7978  1.4515 -0.7221
   20CHTO   O32 8324   5.578   1.724   0.418  0.1656  0.2496 -0.0602
   20CHTO   H69 8325   5.615   1.688   0.496  0.0419 -0.9814 -0.5659
   20CHTO   C48 8326   5.761   1.665   0.258 -0.6631  0.1131 -0.0119
   20CHTO   H90 8327   5.678   1.614   0.210 -1.7317  0.1590  1.7409
   20CHTO    N9 8328   5.835   1.571   0.353  0.1301 -0.3208  0.6313
   20CHTO   H77 8329   5.909   1.629   0.407 -0.8100  0.4835  1.0676
   20CHTO   H78 8330   5.881   1.500   0.286 -1.1974 -0.8298  0.2548
   20CHTO   C51 8331   5.864   1.736   0.157  0.4416 -0.2598 -0.8039
   20CHTO   H93 8332   5.938   1.789   0.217  0.0527 -0.7879  0.1477
   20CHTO   O30 8333   5.792   1.830   0.070  0.2123 -0.0794 -0.1728
   20CHTO   C46 8334   5.716   1.927   0.134  1.0495  0.4998 -0.5255
   20CHTO   H88 8335   5.783   1.998   0.184  1.6619 -1.0594  0.9019
   20CHTO   C53 8336   5.638   2.004   0.028  0.1261 -0.4546  0.1664
   20CHTO   O72 8337   5.731   2.077  -0.055  0.1919  0.2021  0.5926
   20CHTO  H199 8338   5.779   2.022  -0.115 -0.1484  1.4706 -0.8847
   20CHTO   O22 8339   5.918   1.643   0.056  0.2969 -0.0011 -0.4519
   20CHTO   C31 8340   6.043   1.646  -0.027 -0.1415 -0.1824 -0.4284
   20CHTO   H59 8341   6.025   1.594  -0.123 -1.8311 -0.2011 -0.1147
   20CHTO   C29 8342   6.085   1.794  -0.065  0.4641 -0.4441 -0.6338
   20CHTO   H57 8343   6.113   1.836   0.032  2.3076 -0.1860 -1.2652
   20CHTO   O21 8344   5.977   1.871  -0.119 -0.2782 -0.2680 -0.0652
   20CHTO   H37 8345   6.020   1.922  -0.185  1.9660 -2.9170 -0.7163
   20CHTO   C27 8346   6.207   1.788  -0.159 -0.3559  0.9839 -0.5507
   20CHTO   H55 8347   6.183   1.729  -0.248  1.6205  0.1008 -0.5098
   20CHTO    N5 8348   6.264   1.923  -0.199 -0.2635  0.0324  0.2140
   20CHTO   H43 8349   6.371   1.919  -0.203 -0.3206 -0.8754 -0.9498
   20CHTO   H44 8350   6.229   1.994  -0.126 -1.8783 -0.3687 -0.1427
   20CHTO   C25 8351   6.314   1.697  -0.092  0.3484 -0.0920  0.3346
   20CHTO   H53 8352   6.365   1.756  -0.014 -2.9273  0.2730  2.3118
   20CHTO   O17 8353   6.268   1.570  -0.047  0.0477 -0.1255 -0.4683
   20CHTO   C32 8354   6.160   1.575   0.045  0.0141 -0.1991  0.0547
   20CHTO   H60 8355   6.184   1.624   0.139  0.7418 -0.4433 -0.0014
   20CHTO   C36 8356   6.124   1.431   0.088 -0.1540  0.4231  0.0120
   20CHTO   O25 8357   6.221   1.366   0.170 -0.3138  0.5903  0.1888
   20CHTO   H40 8358   6.204   1.277   0.193  0.4340  0.2925 -0.4178
   20CHTO   O15 8359   6.409   1.655  -0.192 -0.0800 -0.2312 -0.0215
   20CHTO   C19 8360   6.545   1.631  -0.211 -0.2421  0.0452  1.3224
   20CHTO   H47 8361   6.559   1.620  -0.319 -0.6350 -1.3826  1.3984
   20CHTO   C20 8362   6.637   1.742  -0.156 -0.3605  0.7723 -0.0366
   20CHTO   H48 8363   6.615   1.771  -0.052  1.8947  1.1720  0.3433
   20CHTO   O19 8364   6.586   1.862  -0.228 -0.1030  0.2611 -0.0277
   20CHTO   H35 8365   6.565   1.849  -0.318 -2.5882 -0.2248  0.5637
   20CHTO   C21 8366   6.787   1.708  -0.177 -0.6952  0.4646  0.0677
   20CHTO   H49 8367   6.813   1.701  -0.283  3.1817  0.3891  0.9300
   20CHTO    N4 8368   6.870   1.822  -0.123 -0.9310 -0.7251 -0.0524
   20CHTO   H41 8369   6.952   1.850  -0.187  0.4461 -3.7941  0.3050
   20CHTO   H42 8370   6.913   1.800  -0.026  0.5610 -3.7533 -1.3382
   20CHTO   C22 8371   6.821   1.563  -0.126 -0.1507  0.6282  0.1955
   20CHTO   H50 8372   6.803   1.557  -0.018 -0.8580  1.4777  0.1307
   20CHTO   O14 8373   6.728   1.477  -0.191  0.6842  0.0691  0.5576
   20CHTO   C23 8374   6.593   1.494  -0.147  0.1388 -0.3309 -0.1842
   20CHTO   H51 8375   6.592   1.499  -0.037  0.1081 -0.3277 -0.1842
   20CHTO   C34 8376   6.509   1.373  -0.184  0.8390  0.2779 -0.3389
   20CHTO   O23 8377   6.525   1.257  -0.097  0.4528  0.1474 -0.0395
   20CHTO   H38 8378   6.617   1.239  -0.095  0.3990 -0.2442 -0.9726
   20CHTO   O16 8379   6.953   1.521  -0.160  0.0445  0.1037  0.3869
   20CHTO   C24 8380   6.984   1.347  -0.148 -0.1057  0.0418 -0.4327
   20CHTO   H52 8381   6.893   1.287  -0.145 -0.3782  0.5209  0.9895
   20CHTO   C26 8382   7.070   1.325  -0.025  0.1558  0.1769 -0.0506
   20CHTO   H54 8383   7.153   1.398  -0.027  0.5818 -0.3042 -0.2312
   20CHTO   O20 8384   7.007   1.355   0.094 -0.0954  0.0367  0.1503
   20CHTO   H36 8385   6.919   1.324   0.098 -0.8452  2.0609 -0.0286
   20CHTO   C30 8386   7.130   1.181  -0.015  1.1710  0.5452  0.2288
   20CHTO   H58 8387   7.061   1.114   0.039 -0.6439  1.7771 -0.5011
   20CHTO    N6 8388   7.246   1.184   0.080 -0.1966 -0.7481  0.4201
   20CHTO   H45 8389   7.326   1.230   0.025 -0.0700 -0.1042  1.1419
   20CHTO   H46 8390   7.232   1.227   0.178  0.4707 -0.5879  0.4472
   20CHTO   C33 8391   7.169   1.124  -0.159 -0.3251 -0.0402 -0.0176
   20CHTO   H61 8392   7.274   1.150  -0.182 -0.6674  0.0133 -1.5942
   20CHTO   O18 8393   7.082   1.167  -0.265  0.0442  0.2000 -0.4550
   20CHTO   C28 8394   7.062   1.309  -0.269  0.8376  0.4364  0.4559
   20CHTO   H56 8395   7.153   1.369  -0.270  0.4591  1.0328 -2.3122
   20CHTO   C35 8396   6.978   1.347  -0.400  0.2264  0.2186 -0.4597
   20CHTO   O24 8397   6.854   1.278  -0.410 -0.5185  0.5460  0.3401
   20CHTO   H39 8398   6.804   1.334  -0.467 -0.9231 -0.7215 -0.5723
   20CHTO    O9 8399   7.172   0.983  -0.151 -0.0481 -0.0168 -0.5424
   20CHTO   C13 8400   7.047   0.887  -0.226 -0.4719 -0.0141  0.3578
   20CHTO   H26 8401   7.086   0.859  -0.326  0.4781  1.1848  0.3872
   20CHTO   C11 8402   6.900   0.951  -0.236  0.5652 -0.5251 -0.1487
   20CHTO   H24 8403   6.900   1.043  -0.297 -0.6766  0.6947  1.6461
   20CHTO    O8 8404   6.851   0.992  -0.107 -0.1616  0.2128 -0.3518
   20CHTO    H3 8405   6.912   1.045  -0.058 -1.0595  2.5563 -1.6572
   20CHTO    C9 8406   6.808   0.851  -0.310  0.0424 -0.4063  0.4033
   20CHTO   H22 8407   6.860   0.826  -0.404 -1.8922 -3.1133  0.0076
   20CHTO    N2 8408   6.679   0.907  -0.367  0.5165 -0.0346 -0.4199
   20CHTO   H10 8409   6.617   0.942  -0.286  1.4721 -0.3778  0.4735
   20CHTO   H11 8410   6.633   0.832  -0.429  0.4529  0.9774 -1.6229
   20CHTO    C7 8411   6.797   0.720  -0.224  0.1294  0.1085 -0.0820
   20CHTO   H20 8412   6.714   0.661  -0.268  0.6076 -1.6198  1.2508
   20CHTO    O4 8413   6.927   0.660  -0.213 -0.1466 -0.1450  1.2307
   20CHTO   C14 8414   7.036   0.741  -0.155 -0.0187 -0.0466  0.3898
   20CHTO   H27 8415   7.131   0.694  -0.189 -0.1111  2.2740 -3.4513
   20CHTO   C18 8416   7.043   0.751  -0.004  0.0242  0.4924 -0.1516
   20CHTO   O13 8417   7.051   0.617   0.045 -0.3407  0.0814  0.4395
   20CHTO    H7 8418   7.045   0.610   0.138  0.0450 -1.9397  0.3213
   20CHTO    O2 8419   6.733   0.732  -0.083  0.1528 -0.1859  0.2880
   20CHTO    C1 8420   6.664   0.609  -0.041  0.0051  0.0253 -0.4089
   20CHTO   H14 8421   6.659   0.616   0.070  1.0345 -0.2323 -0.3442
   20CHTO    C2 8422   6.707   0.457  -0.075  0.5385  0.3838  0.0793
   20CHTO   H15 8423   6.713   0.438  -0.184  1.1320  1.1090 -0.0202
   20CHTO    O6 8424   6.838   0.420  -0.016 -0.1166  0.1921  0.4298
   20CHTO    H1 8425   6.845   0.328  -0.028  0.0351  0.2730 -0.1111
   20CHTO    C3 8426   6.589   0.362  -0.012 -0.3717 -0.1515  0.1465
   20CHTO   H16 8427   6.585   0.372   0.097 -1.8790 -2.3590  0.3179
   20CHTO    N1 8428   6.607   0.218  -0.053  0.3963 -0.6815 -0.0511
   20CHTO    H8 8429   6.578   0.152   0.027  1.6203  1.0510  1.8617
   20CHTO    H9 8430   6.708   0.209  -0.092  0.8766 -3.1336  1.6455
   20CHTO    C4 8431   6.446   0.410  -0.063  0.2219  0.3790 -0.3229
   20CHTO   H17 8432   6.435   0.387  -0.169 -1.4933  0.7872 -0.2529
   20CHTO    O1 8433   6.428   0.552  -0.037  0.3769  0.4741  0.0238
   20CHTO    C5 8434   6.523   0.643  -0.094  0.2342 -0.3577  0.1677
   20CHTO   H18 8435   6.513   0.630  -0.202 -2.4625  0.9450  0.2037
   20CHTO   C16 8436   6.470   0.786  -0.061  0.7923 -0.2257  0.6640
   20CHTO   O11 8437   6.350   0.833  -0.120  0.2800  0.2452  0.2777
   20CHTO    H5 8438   6.366   0.923  -0.143  1.0706 -0.3074 -1.3761
   20CHTO    O3 8439   6.334   0.347   0.008  1.0038 -0.2124 -0.0065
   20CHTO    C6 8440   6.203   0.349  -0.065  0.1262  0.0050 -0.0556
   20CHTO   H19 8441   6.203   0.433  -0.134 -1.1157  0.3557  0.3608
   20CHTO    C8 8442   6.176   0.223  -0.155  0.2243  0.0498  0.1725
   20CHTO   H21 8443   6.175   0.136  -0.089 -4.5967 -2.6410 -3.1286
   20CHTO    O7 8444   6.281   0.212  -0.254 -0.4064  0.8359  0.1559
   20CHTO    H2 8445   6.315   0.296  -0.278  1.2275 -0.2209 -1.3581
   20CHTO   C12 8446   6.039   0.223  -0.236  0.6042  0.2510 -0.2034
   20CHTO   H25 8447   6.052   0.296  -0.318 -1.5818  2.3190  1.1860
   20CHTO    N3 8448   6.007   0.088  -0.305 -0.1438  0.0048 -0.1400
   20CHTO   H12 8449   6.003   0.003  -0.238 -0.4521  0.6579  0.6773
   20CHTO   H13 8450   6.077   0.077  -0.387 -1.1038 -0.2867 -0.9222
   20CHTO   C15 8451   5.919   0.269  -0.139 -0.7438 -0.8288  0.0773
   20CHTO   H28 8452   5.898   0.185  -0.073 -0.2788  0.2657  1.6498
   20CHTO   O10 8453   5.791   0.325  -0.208  0.0463 -0.1535  0.2283
   20CHTO    H4 8454   5.808   0.396  -0.267 -0.1686 -1.7665 -1.8481
   20CHTO    O5 8455   5.965   0.388  -0.068  0.5477 -0.0237 -0.0724
   20CHTO   C10 8456   6.078   0.369   0.014 -0.0923 -0.0462 -0.7363
   20CHTO   H23 8457   6.068   0.282   0.080  3.4628  0.3231  0.4260
   20CHTO   C17 8458   6.099   0.486   0.115 -0.3614 -0.1168 -0.2671
   20CHTO   O12 8459   6.093   0.615   0.056 -0.0276  0.2142 -0.0705
   20CHTO    H6 8460   6.005   0.631   0.029 -1.0919 -2.9021  1.2954
   21GLOH   H03 8461   2.698   7.196   0.009 -0.0334  0.0645 -1.3090
   21GLOH    O1 8462   2.776   7.240   0.046 -0.3180 -0.2872 -0.2620
   21GLOH    C1 8463   2.765   7.378   0.016 -0.4650 -0.4299 -0.0383
   21GLOH   H02 8464   2.700   7.415  -0.063 -0.4027  1.0578  0.5878
   21GLOH   H08 8465   2.865   7.419  -0.001 -0.9215  0.5406 -0.3848
   21GLOH    C2 8466   2.729   7.465   0.142  0.2908 -0.4789 -0.3217
   21GLOH   H04 8467   2.801   7.431   0.219  0.2526  0.7411  0.2604
   21GLOH    O2 8468   2.737   7.602   0.109 -0.4589 -0.3903 -0.7075
   21GLOH   H05 8469   2.730   7.652   0.192  0.6016  0.4913 -1.1238
   21GLOH    C3 8470   2.586   7.436   0.197  0.2441 -0.5345  1.5861
   21GLOH   H06 8471   2.569   7.328   0.196 -0.4783 -0.4375  2.7684
   21GLOH   H07 8472   2.513   7.470   0.124 -1.0513  0.4217  3.3019
   21GLOH    O3 8473   2.556   7.492   0.325 -0.0658  0.0774 -0.2054
   21GLOH   H01 8474   2.584   7.584   0.334  1.1206 -0.1772 -1.1228
   22GLOH   H03 8475   3.837   3.154   1.645 -0.0210  0.5393  1.5419
   22GLOH    O1 8476   3.870   3.097   1.716  0.1447 -0.4286  0.6934
   22GLOH    C1 8477   3.930   2.986   1.647  0.1664  0.4343  0.1654
   22GLOH   H02 8478   4.017   3.023   1.592  0.7955  0.4395  1.1582
   22GLOH   H08 8479   3.849   2.946   1.584 -0.5747  0.0158  1.3680
   22GLOH    C2 8480   3.977   2.871   1.736  0.6998  0.4734 -0.4084
   22GLOH   H04 8481   3.886   2.831   1.784  0.9384  1.6847  1.0833
   22GLOH    O2 8482   4.036   2.764   1.656  0.4124 -0.0690 -0.4956
   22GLOH   H05 8483   4.035   2.679   1.704 -1.8785  0.8393  1.1475
   22GLOH    C3 8484   4.076   2.916   1.844  0.2864  0.3500  0.2746
   22GLOH   H06 8485   4.116   2.827   1.891 -0.1238  0.0010 -0.0284
   22GLOH   H07 8486   4.030   2.978   1.921 -1.2380 -0.3695 -0.0407
   22GLOH    O3 8487   4.189   2.984   1.777 -0.1992  0.1143 -0.2054
   22GLOH   H01 8488   4.253   2.992   1.850  1.0655 -1.5927 -1.0960
   23GLOH   H03 8489   2.218   5.466   1.635  0.8056 -0.9744 -0.5626
   23GLOH    O1 8490   2.266   5.528   1.692  0.0788 -0.1711 -0.8130
   23GLOH    C1 8491   2.390   5.459   1.719  0.6045  0.5684 -0.5349
   23GLOH   H02 8492   2.474   5.524   1.694  0.1108  0.9767 -1.1441
   23GLOH   H08 8493   2.391   5.365   1.664 -3.2317 -0.8015  1.5671
   23GLOH    C2 8494   2.400   5.413   1.870  0.0189 -0.1552 -0.2065
   23GLOH   H04 8495   2.312   5.349   1.887 -1.1844  1.1635 -1.3674
   23GLOH    O2 8496   2.523   5.338   1.895  0.0236 -0.5042  0.0723
   23GLOH   H05 8497   2.591   5.399   1.929 -1.3134  0.5680  0.8740
   23GLOH    C3 8498   2.388   5.529   1.973  0.0449 -0.0457 -0.3270
   23GLOH   H06 8499   2.482   5.584   1.979  1.6397 -2.7805  0.5886
   23GLOH   H07 8500   2.371   5.486   2.072 -0.3554  3.0131  0.9982
   23GLOH    O3 8501   2.273   5.610   1.931 -0.3518 -1.1492 -0.4103
   23GLOH   H01 8502   2.248   5.579   1.842 -0.6025 -0.2271 -0.6625
   24GLOH   H03 8503   3.089   3.746   1.650 -0.0173  0.1516  0.0157
   24GLOH    O1 8504   3.026   3.708   1.586 -0.5192  0.2392  0.4544
   24GLOH    C1 8505   2.895   3.762   1.606 -0.2848 -0.6278 -0.3785
   24GLOH   H02 8506   2.894   3.871   1.607 -0.5354 -0.6185 -1.4783
   24GLOH   H08 8507   2.866   3.724   1.704  0.6793 -0.1200  0.1055
   24GLOH    C2 8508   2.786   3.714   1.509  0.5203  0.1729  0.5923
   24GLOH   H04 8509   2.819   3.729   1.405  0.0958 -1.2141  0.2380
   24GLOH    O2 8510   2.767   3.568   1.516 -0.4145  0.4612  0.1213
   24GLOH   H05 8511   2.849   3.531   1.480 -0.8239 -0.6576  0.3053
   24GLOH    C3 8512   2.645   3.784   1.531  1.6742  0.7320  0.5098
   24GLOH   H06 8513   2.629   3.797   1.638  0.1396 -1.0203  0.5225
   24GLOH   H07 8514   2.568   3.716   1.494  1.4969  1.1369  0.1257
   24GLOH    O3 8515   2.630   3.904   1.464 -0.8794 -0.0526 -0.2804
   24GLOH   H01 8516   2.672   3.980   1.510 -1.2327 -0.0276  0.0028
   25GLOH   H03 8517   3.168   2.912   1.906  1.9742 -1.5092  0.4788
   25GLOH    O1 8518   3.214   2.988   1.867 -0.1848  0.2290  1.1826
   25GLOH    C1 8519   3.280   3.063   1.974 -0.1344  0.6879  0.5358
   25GLOH   H02 8520   3.298   2.993   2.056  0.2874 -1.8833 -1.6946
   25GLOH   H08 8521   3.205   3.137   2.001 -1.9134 -1.9962  3.2596
   25GLOH    C2 8522   3.419   3.126   1.947 -0.1171 -0.5444  0.8604
   25GLOH   H04 8523   3.403   3.192   1.861  1.6018 -1.1404  0.0580
   25GLOH    O2 8524   3.459   3.202   2.060  0.3565  0.1893 -0.1626
   25GLOH   H05 8525   3.421   3.287   2.034 -0.3636  0.0879  0.5466
   25GLOH    C3 8526   3.523   3.021   1.906 -0.1556  0.0677 -0.5678
   25GLOH   H06 8527   3.517   2.939   1.978  2.1875 -0.6777 -1.1904
   25GLOH   H07 8528   3.620   3.069   1.912 -0.6362  1.1217 -1.2019
   25GLOH    O3 8529   3.503   2.978   1.773 -0.7902 -0.2744  0.2133
   25GLOH   H01 8530   3.522   3.056   1.717 -3.8412 -0.5018 -1.2721
   26GLOH   H03 8531   3.969   3.651   0.839  2.2232 -0.7767  1.1111
   26GLOH    O1 8532   3.925   3.565   0.850  0.2345  0.0114 -0.3966
   26GLOH    C1 8533   3.902   3.542   0.995 -0.1311  0.0943 -0.2298
   26GLOH   H02 8534   3.852   3.623   1.048 -1.4188 -0.2798 -0.8328
   26GLOH   H08 8535   3.995   3.514   1.042 -0.6825 -0.4862  0.5251
   26GLOH    C2 8536   3.794   3.431   1.005 -0.2142 -0.6467 -0.6881
   26GLOH   H04 8537   3.826   3.348   0.940  0.1979 -0.9373 -0.1224
   26GLOH    O2 8538   3.782   3.374   1.137 -0.1212 -0.0682  0.4452
   26GLOH   H05 8539   3.771   3.442   1.206  4.9355  0.1830  1.1508
   26GLOH    C3 8540   3.654   3.481   0.948  0.3094  0.1984 -0.3026
   26GLOH   H06 8541   3.618   3.570   0.999  0.9802 -0.3195  1.0916
   26GLOH   H07 8542   3.571   3.412   0.952 -0.1123  0.7582  0.6599
   26GLOH    O3 8543   3.666   3.505   0.805  0.5051  0.9534 -0.6230
   26GLOH   H01 8544   3.757   3.538   0.792  1.0223 -0.9608 -1.9466
   27GLOH   H03 8545   2.992   6.024   0.107  0.0387  0.3946 -1.2524
   27GLOH    O1 8546   2.969   5.944   0.056 -0.4022 -0.2380 -0.1018
   27GLOH    C1 8547   2.838   5.960  -0.010  0.0458  0.0505 -0.5034
   27GLOH   H02 8548   2.763   5.917   0.056  0.5931  0.4329  0.3779
   27GLOH   H08 8549   2.831   5.895  -0.097  3.7232  0.3616 -1.1131
   27GLOH    C2 8550   2.807   6.105  -0.040  0.3349 -0.3546  0.2461
   27GLOH   H04 8551   2.889   6.143  -0.103 -2.1034  1.5995 -1.8382
   27GLOH    O2 8552   2.687   6.120  -0.112 -0.4148 -0.0855 -0.4973
   27GLOH   H05 8553   2.708   6.181  -0.185 -1.6343  0.7404 -0.1688
   27GLOH    C3 8554   2.805   6.194   0.085 -0.1904 -0.6347  0.0883
   27GLOH   H06 8555   2.704   6.187   0.125  0.3342 -1.3433  1.2997
   27GLOH   H07 8556   2.806   6.293   0.041  0.7469 -0.9739 -0.6811
   27GLOH    O3 8557   2.908   6.157   0.173 -0.5741  0.3274 -0.4013
   27GLOH   H01 8558   2.962   6.238   0.174 -0.2614  0.1146  1.0014
   28GLOH   H03 8559   2.121   0.520   0.144 -1.6922  0.5638 -0.3768
   28GLOH    O1 8560   2.122   0.429   0.178 -0.5076  0.7570  0.1307
   28GLOH    C1 8561   2.136   0.444   0.321 -0.6809  0.4747 -0.0606
   28GLOH   H02 8562   2.119   0.346   0.367  1.8974 -0.7530 -1.5909
   28GLOH   H08 8563   2.062   0.518   0.350  0.0872  1.8578 -1.5762
   28GLOH    C2 8564   2.279   0.487   0.368 -0.1976  0.1878  0.1498
   28GLOH   H04 8565   2.359   0.428   0.321 -0.1487  1.0322 -0.8633
   28GLOH    O2 8566   2.319   0.613   0.316 -0.0774  0.3734 -0.5296
   28GLOH   H05 8567   2.284   0.618   0.226  0.7401  2.7084 -0.7440
   28GLOH    C3 8568   2.291   0.482   0.522 -0.6471  0.3365 -0.2146
   28GLOH   H06 8569   2.391   0.501   0.561 -0.5022 -2.6449  1.0085
   28GLOH   H07 8570   2.270   0.379   0.552  0.0657  0.5093  0.9017
   28GLOH    O3 8571   2.202   0.567   0.597 -0.4646 -0.2444 -0.2365
   28GLOH   H01 8572   2.149   0.624   0.538  0.1289 -0.4613 -0.9961
   29GLOH   H03 8573   2.867   0.826   0.483  1.9822 -1.9824  3.6185
   29GLOH    O1 8574   2.821   0.894   0.537  0.0529 -0.4864  0.2568
   29GLOH    C1 8575   2.853   0.879   0.677 -0.1356 -0.8976 -0.4083
   29GLOH   H02 8576   2.834   0.973   0.729 -0.0314 -0.0755 -1.8289
   29GLOH   H08 8577   2.961   0.874   0.695  0.3245  3.4118 -1.5515
   29GLOH    C2 8578   2.765   0.781   0.761 -0.3449 -0.1188  0.0417
   29GLOH   H04 8579   2.794   0.677   0.739  0.3348  0.3924 -1.5860
   29GLOH    O2 8580   2.792   0.794   0.903  0.0050  0.3592  0.6890
   29GLOH   H05 8581   2.756   0.712   0.940  0.6312 -0.7100 -1.0021
   29GLOH    C3 8582   2.611   0.805   0.741 -0.5890  0.3143  0.4233
   29GLOH   H06 8583   2.563   0.738   0.812  1.3775 -0.6014  0.9050
   29GLOH   H07 8584   2.566   0.783   0.644 -0.2917  0.5956  0.2232
   29GLOH    O3 8585   2.578   0.939   0.771  0.2884  0.4794  0.1595
   29GLOH   H01 8586   2.507   0.977   0.717  0.1639 -1.5059 -1.1258
   30GLOH   H03 8587   2.573   6.290   1.948 -0.5759 -1.3831  1.2537
   30GLOH    O1 8588   2.577   6.234   1.868  0.6218 -0.0774  0.3870
   30GLOH    C1 8589   2.438   6.201   1.836 -0.3162  0.5558 -0.2722
   30GLOH   H02 8590   2.368   6.284   1.828  0.6907  1.5209  0.8766
   30GLOH   H08 8591   2.400   6.147   1.923 -0.3041  0.2125 -0.4772
   30GLOH    C2 8592   2.431   6.106   1.718  0.2708  0.2500 -0.5599
   30GLOH   H04 8593   2.488   6.016   1.747 -0.7878 -0.5498 -0.8938
   30GLOH    O2 8594   2.298   6.061   1.704  0.6670  0.0905 -0.7520
   30GLOH   H05 8595   2.299   5.965   1.692  1.1130 -0.0019  0.0032
   30GLOH    C3 8596   2.482   6.167   1.585 -0.9607  0.7197 -0.0808
   30GLOH   H06 8597   2.410   6.235   1.538 -1.9785 -0.0765  0.3220
   30GLOH   H07 8598   2.489   6.084   1.515  0.6598  1.3771 -0.7169
   30GLOH    O3 8599   2.610   6.228   1.597 -0.4439  0.0377 -0.4955
   30GLOH   H01 8600   2.673   6.175   1.546  1.2799 -0.5194  2.1126
   31GLOH   H03 8601   5.298   1.921   0.328  0.5539 -2.3207  1.1792
   31GLOH    O1 8602   5.270   1.949   0.417 -0.4758 -0.2271  0.2445
   31GLOH    C1 8603   5.288   1.833   0.500 -0.1703 -0.2122  0.1333
   31GLOH   H02 8604   5.352   1.852   0.586  0.7313  0.5218 -0.6800
   31GLOH   H08 8605   5.339   1.757   0.442 -1.4004 -0.7282 -0.2768
   31GLOH    C2 8606   5.162   1.780   0.566  0.7151  0.2619 -0.3649
   31GLOH   H04 8607   5.194   1.687   0.615 -2.0743  0.1321  1.3185
   31GLOH    O2 8608   5.114   1.876   0.660 -0.1888  0.3247 -0.4242
   31GLOH   H05 8609   5.107   1.965   0.622 -0.1965  0.4040 -0.2373
   31GLOH    C3 8610   5.058   1.753   0.456 -0.5479  0.0372  0.9199
   31GLOH   H06 8611   5.043   1.846   0.402 -0.3251  0.7072  1.9972
   31GLOH   H07 8612   4.967   1.723   0.508 -0.1450 -1.8230  0.6124
   31GLOH    O3 8613   5.117   1.656   0.367 -0.3122 -0.2809  0.7605
   31GLOH   H01 8614   5.062   1.661   0.286 -2.4468 -1.0503  2.0947
   32GLOH   H03 8615   3.850   0.994   1.579 -0.5931 -0.1176 -2.9332
   32GLOH    O1 8616   3.939   0.997   1.540  0.7053  0.5347  0.0058
   32GLOH    C1 8617   3.942   0.898   1.433 -0.3321 -0.5958  0.8915
   32GLOH   H02 8618   4.036   0.882   1.381 -0.5291 -4.8517  1.6416
   32GLOH   H08 8619   3.870   0.922   1.355  0.5947  0.1845  0.2836
   32GLOH    C2 8620   3.899   0.754   1.479 -0.1267  0.6102 -0.0395
   32GLOH   H04 8621   3.802   0.772   1.527  0.0351  0.9840  0.1541
   32GLOH    O2 8622   3.886   0.648   1.381  0.0860  0.0345  0.2965
   32GLOH   H05 8623   3.935   0.679   1.302  0.0515  2.1564  1.0799
   32GLOH    C3 8624   3.999   0.708   1.590  0.9857 -0.3109  0.1292
   32GLOH   H06 8625   3.980   0.602   1.605  1.3915 -0.1344  1.9726
   32GLOH   H07 8626   3.971   0.756   1.684 -0.9821  1.3544 -1.2704
   32GLOH    O3 8627   4.143   0.732   1.562 -1.0024 -0.0175 -0.6875
   32GLOH   H01 8628   4.179   0.645   1.537 -0.7080 -0.8847  2.4574
   33GLOH   H03 8629   3.347   6.172   0.403  1.7545  0.4487  0.6997
   33GLOH    O1 8630   3.310   6.123   0.479 -0.0866  0.0104 -0.4730
   33GLOH    C1 8631   3.308   5.991   0.430  0.3868 -0.4159  0.3616
   33GLOH   H02 8632   3.280   5.976   0.326  1.7563  2.0907 -0.4052
   33GLOH   H08 8633   3.238   5.931   0.489  0.5302 -0.0088  0.9524
   33GLOH    C2 8634   3.445   5.932   0.458 -0.0140  0.1422 -0.1498
   33GLOH   H04 8635   3.484   5.993   0.541 -0.5639 -0.2419  0.3903
   33GLOH    O2 8636   3.440   5.795   0.501 -0.4080 -0.0298 -0.2193
   33GLOH   H05 8637   3.356   5.751   0.476 -0.7711  1.6117 -1.9923
   33GLOH    C3 8638   3.536   5.932   0.333 -0.0602  0.3409 -0.1587
   33GLOH   H06 8639   3.536   6.035   0.297  0.5906  1.5356  3.1483
   33GLOH   H07 8640   3.494   5.870   0.253  1.7198  0.1335 -0.9616
   33GLOH    O3 8641   3.671   5.883   0.362  0.0776 -0.1191 -0.7341
   33GLOH   H01 8642   3.688   5.872   0.457 -0.0051  0.8671 -0.5912
   34GLOH   H03 8643   4.413   1.590   1.146 -1.2383  0.5301 -0.9932
   34GLOH    O1 8644   4.384   1.661   1.206  0.2859  0.5308 -0.2373
   34GLOH    C1 8645   4.455   1.784   1.193  0.5953 -0.2833  0.5471
   34GLOH   H02 8646   4.456   1.813   1.087  1.8788 -0.1689  0.5836
   34GLOH   H08 8647   4.561   1.776   1.216  0.2520 -1.5579  1.7252
   34GLOH    C2 8648   4.398   1.901   1.274  0.6753  0.1150  0.4551
   34GLOH   H04 8649   4.452   1.992   1.243  0.4411 -0.1276 -0.7189
   34GLOH    O2 8650   4.262   1.925   1.242  0.5261 -0.3389  0.0852
   34GLOH   H05 8651   4.212   1.850   1.278 -0.7757  2.0668  3.4399
   34GLOH    C3 8652   4.406   1.871   1.424 -0.1601  0.2063  0.7218
   34GLOH   H06 8653   4.392   1.764   1.439  0.1142  0.0228 -0.3456
   34GLOH   H07 8654   4.322   1.917   1.476  0.4622 -0.9811  2.8735
   34GLOH    O3 8655   4.539   1.917   1.472 -0.2775 -0.3977 -0.5485
   34GLOH   H01 8656   4.527   2.004   1.515  2.8264  0.5114 -1.4386
   35GLOH   H03 8657   3.964   5.361   2.526  0.4488  0.2797  0.8394
   35GLOH    O1 8658   4.019   5.438   2.502  0.1285  0.2038 -0.1510
   35GLOH    C1 8659   4.154   5.382   2.497 -0.5201  0.1008  0.4210
   35GLOH   H02 8660   4.210   5.398   2.589  3.4617 -1.6281 -1.5984
   35GLOH   H08 8661   4.210   5.426   2.414  0.1403  0.5455  1.1003
   35GLOH    C2 8662   4.156   5.228   2.486  0.3872 -0.2290  0.3173
   35GLOH   H04 8663   4.111   5.198   2.390 -0.0841  0.2746  0.3783
   35GLOH    O2 8664   4.292   5.183   2.490 -0.9003 -0.2608  0.1562
   35GLOH   H05 8665   4.297   5.095   2.448  0.0600  0.9361 -2.3191
   35GLOH    C3 8666   4.082   5.158   2.599  0.1187 -0.1243 -0.1414
   35GLOH   H06 8667   4.126   5.194   2.692 -2.0225  1.4758  0.3104
   35GLOH   H07 8668   4.102   5.051   2.606  0.2034 -0.1297 -0.4620
   35GLOH    O3 8669   3.945   5.208   2.602  0.2330  0.1657  0.0531
   35GLOH   H01 8670   3.907   5.171   2.684 -0.6902  1.9100  0.4408
   36GLOH   H03 8671   2.942   7.157   2.151 -2.0170 -2.6932  0.2955
   36GLOH    O1 8672   3.012   7.114   2.204 -0.5736 -0.5488  0.2399
   36GLOH    C1 8673   3.086   7.041   2.113 -0.2932  0.3361 -0.3576
   36GLOH   H02 8674   3.039   6.942   2.115  2.5031 -1.0744 -1.5138
   36GLOH   H08 8675   3.188   7.019   2.145 -0.3014 -0.1555 -0.6519
   36GLOH    C2 8676   3.094   7.095   1.974  0.1677 -0.1039  0.1138
   36GLOH   H04 8677   3.142   7.194   1.969  0.0439  0.0605  1.7886
   36GLOH    O2 8678   3.158   7.016   1.880  0.0605 -0.1428 -0.1659
   36GLOH   H05 8679   3.159   7.058   1.792  0.4973 -1.6221 -0.8851
   36GLOH    C3 8680   2.941   7.100   1.936 -0.0055 -0.4686 -0.3568
   36GLOH   H06 8681   2.903   6.997   1.930 -2.0195  0.0959  1.9553
   36GLOH   H07 8682   2.934   7.137   1.834  1.0599 -3.0211 -1.4153
   36GLOH    O3 8683   2.852   7.177   2.017  0.3044 -0.0598  0.3569
   36GLOH   H01 8684   2.831   7.260   1.970  2.5185 -0.1961 -0.9329
   37GLOH   H03 8685   5.255   3.123   0.363 -2.5417  0.0689 -0.6998
   37GLOH    O1 8686   5.232   3.107   0.456 -0.0493  0.3938  0.0035
   37GLOH    C1 8687   5.211   3.245   0.503  0.2117  0.3462  0.2502
   37GLOH   H02 8688   5.296   3.308   0.481 -0.2463  0.6624 -0.6287
   37GLOH   H08 8689   5.208   3.256   0.612 -0.3869  0.7453  0.1967
   37GLOH    C2 8690   5.087   3.324   0.445 -0.1005  0.4337  0.6444
   37GLOH   H04 8691   5.098   3.338   0.336 -2.3935 -1.9213  0.0454
   37GLOH    O2 8692   4.960   3.258   0.466  0.4091 -0.0579 -0.3304
   37GLOH   H05 8693   4.964   3.167   0.433 -0.9320 -0.1337 -0.3420
   37GLOH    C3 8694   5.083   3.459   0.517 -0.5892 -0.2601 -0.0583
   37GLOH   H06 8695   5.088   3.444   0.625  1.9140  0.0341 -0.1126
   37GLOH   H07 8696   4.982   3.495   0.497  0.0713  0.2922 -2.4753
   37GLOH    O3 8697   5.187   3.554   0.476 -0.1698  0.6976 -0.1513
   37GLOH   H01 8698   5.239   3.578   0.555  3.2210 -4.7593 -0.4212
   38GLOH   H03 8699   2.476   6.731   1.651  0.8118 -0.2802 -1.7311
   38GLOH    O1 8700   2.545   6.787   1.692 -0.0024 -0.7218  0.2750
   38GLOH    C1 8701   2.512   6.928   1.686  0.0234 -0.6907 -0.3415
   38GLOH   H02 8702   2.404   6.939   1.687  0.2126  1.1868  1.4036
   38GLOH   H08 8703   2.559   6.969   1.597  0.7024  0.2871  0.4476
   38GLOH    C2 8704   2.568   6.990   1.814 -0.0529  0.5849 -0.5995
   38GLOH   H04 8705   2.676   6.975   1.828 -0.1487  1.0015  0.6575
   38GLOH    O2 8706   2.559   7.131   1.802  0.4825 -0.2473 -0.6519
   38GLOH   H05 8707   2.471   7.161   1.831  1.6124  0.9852  1.6807
   38GLOH    C3 8708   2.508   6.935   1.942  0.2421  0.3415 -0.2555
   38GLOH   H06 8709   2.558   6.986   2.024 -0.0953  0.9601 -0.4296
   38GLOH   H07 8710   2.536   6.830   1.951  2.0153  0.7733 -0.6569
   38GLOH    O3 8711   2.362   6.955   1.954 -0.3986 -0.6894  0.3272
   38GLOH   H01 8712   2.338   7.049   1.950 -2.1161 -1.1593 -1.3603
   39GLOH   H03 8713   2.740   6.251   1.734 -0.2022  2.3272 -1.1832
   39GLOH    O1 8714   2.836   6.264   1.747 -0.0528  0.4799 -0.2899
   39GLOH    C1 8715   2.892   6.133   1.718 -0.3084 -1.1293 -0.5362
   39GLOH   H02 8716   2.999   6.151   1.708  0.1707 -2.4203  1.9217
   39GLOH   H08 8717   2.851   6.086   1.628 -2.1427 -0.4683 -0.0640
   39GLOH    C2 8718   2.870   6.041   1.839 -0.4629  0.1170 -0.0695
   39GLOH   H04 8719   2.909   6.091   1.929 -2.3336  2.0064 -0.2735
   39GLOH    O2 8720   2.729   6.016   1.853 -0.1475 -0.3876  0.1305
   39GLOH   H05 8721   2.665   6.086   1.833  0.3256 -0.2296 -0.8563
   39GLOH    C3 8722   2.948   5.910   1.817 -0.4881 -1.2108 -0.1240
   39GLOH   H06 8723   2.901   5.854   1.736 -0.3738  0.7178 -1.5516
   39GLOH   H07 8724   2.939   5.863   1.915 -1.7447  1.5120  1.1206
   39GLOH    O3 8725   3.091   5.929   1.789 -0.7061 -0.1717 -0.7596
   39GLOH   H01 8726   3.132   5.949   1.875 -3.3012 -0.0748  0.4775
   40GLOH   H03 8727   4.657   0.768   0.430  0.5873 -0.3055 -1.0846
   40GLOH    O1 8728   4.660   0.855   0.385  0.0770  0.0173 -0.4945
   40GLOH    C1 8729   4.635   0.959   0.483 -0.4219 -0.1822 -0.3022
   40GLOH   H02 8730   4.733   0.994   0.516 -0.2252 -1.0819  0.0807
   40GLOH   H08 8731   4.590   0.913   0.571 -1.5928  0.0113 -0.7968
   40GLOH    C2 8732   4.557   1.076   0.434  0.2174 -0.1512  0.0012
   40GLOH   H04 8733   4.460   1.038   0.399 -0.3932  0.7675  0.6880
   40GLOH    O2 8734   4.542   1.177   0.532 -0.1301 -0.3184  0.6120
   40GLOH   H05 8735   4.465   1.148   0.583  1.0212  1.2606  3.3698
   40GLOH    C3 8736   4.614   1.128   0.305 -0.5391  0.3263  0.6011
   40GLOH   H06 8737   4.717   1.161   0.315  0.0090 -1.0775 -0.2404
   40GLOH   H07 8738   4.560   1.218   0.278  1.1191  0.6938 -1.6227
   40GLOH    O3 8739   4.603   1.034   0.200  0.2705 -0.1110  0.6071
   40GLOH   H01 8740   4.637   0.950   0.236  0.9527  0.1419  0.5564
   41GLOH   H03 8741   3.394   9.197   0.648  0.8271 -1.3519  0.6407
   41GLOH    O1 8742   3.370   9.126   0.585 -0.0455  0.1128 -0.6999
   41GLOH    C1 8743   3.492   9.081   0.520  0.2192 -0.0092 -0.4678
   41GLOH   H02 8744   3.470   8.999   0.452  0.0742  0.5863 -1.1417
   41GLOH   H08 8745   3.562   9.040   0.593 -0.6888 -0.6553  0.0444
   41GLOH    C2 8746   3.554   9.190   0.429  0.4456  0.2708  0.3506
   41GLOH   H04 8747   3.560   9.279   0.494  0.8410 -1.0527  2.1821
   41GLOH    O2 8748   3.686   9.143   0.393  0.2219  0.5706 -0.0966
   41GLOH   H05 8749   3.735   9.133   0.476 -0.2498 -0.0635  0.1073
   41GLOH    C3 8750   3.475   9.220   0.299  0.3667 -0.0983 -0.2348
   41GLOH   H06 8751   3.533   9.288   0.238  1.9998 -1.8902 -0.7160
   41GLOH   H07 8752   3.380   9.256   0.340  1.6212  1.6062  1.2478
   41GLOH    O3 8753   3.439   9.101   0.224  0.1220  0.3308  0.5797
   41GLOH   H01 8754   3.513   9.048   0.191 -0.7818 -0.3734 -0.3357
   42GLOH   H03 8755   2.991   1.219   1.727 -1.5899 -0.7042 -0.3424
   42GLOH    O1 8756   2.937   1.297   1.708 -0.0503  0.4992  0.1099
   42GLOH    C1 8757   3.000   1.398   1.788 -0.1132  0.3358  0.2914
   42GLOH   H02 8758   3.093   1.376   1.841  0.2130  1.5294  0.2224
   42GLOH   H08 8759   2.934   1.414   1.874  0.9887  0.3696  1.1521
   42GLOH    C2 8760   3.018   1.531   1.716 -0.8803  0.5722  0.0320
   42GLOH   H04 8761   2.929   1.559   1.660 -0.6299 -1.4571 -1.4241
   42GLOH    O2 8762   3.051   1.631   1.819 -0.1520  0.5423 -0.2868
   42GLOH   H05 8763   2.976   1.641   1.879  0.0787 -0.6725  0.2141
   42GLOH    C3 8764   3.128   1.533   1.611  0.0909  0.2544  0.0638
   42GLOH   H06 8765   3.227   1.530   1.657  0.3153 -1.9888 -0.5124
   42GLOH   H07 8766   3.128   1.625   1.552  0.9613  0.9545  1.1235
   42GLOH    O3 8767   3.121   1.425   1.520  0.5653  0.1605  0.0701
   42GLOH   H01 8768   3.032   1.414   1.483  0.2348 -1.7848  1.3658
   43GLOH   H03 8769   4.606   1.137   0.071 -0.1012  0.7253  1.8319
   43GLOH    O1 8770   4.595   1.213   0.011 -0.1571 -0.7069  0.0047
   43GLOH    C1 8771   4.533   1.164  -0.106 -0.3904  0.3144 -0.4315
   43GLOH   H02 8772   4.424   1.167  -0.108 -0.6074 -4.0575  0.9770
   43GLOH   H08 8773   4.563   1.062  -0.127 -1.0918  0.3548 -1.6934
   43GLOH    C2 8774   4.575   1.238  -0.236  0.3082  0.5143 -0.6287
   43GLOH   H04 8775   4.680   1.210  -0.254 -0.4092 -0.5045 -3.4791
   43GLOH    O2 8776   4.499   1.191  -0.346  0.2295 -0.2847  0.0826
   43GLOH   H05 8777   4.420   1.239  -0.378  0.3631 -0.4501 -0.4971
   43GLOH    C3 8778   4.562   1.390  -0.222 -0.6504 -0.1714 -0.3253
   43GLOH   H06 8779   4.461   1.417  -0.191 -0.1553  0.9041  0.3929
   43GLOH   H07 8780   4.580   1.442  -0.316  0.7441 -1.2918 -0.6991
   43GLOH    O3 8781   4.660   1.426  -0.122 -0.6394 -0.5691 -0.4189
   43GLOH   H01 8782   4.644   1.360  -0.052 -0.0319 -1.1567 -0.8221
   44GLOH   H03 8783   3.658   5.203   1.547  0.8889  2.6790  0.5659
   44GLOH    O1 8784   3.650   5.174   1.640 -0.0854  0.1003 -0.2765
   44GLOH    C1 8785   3.696   5.279   1.724 -0.2064 -0.4613  0.3248
   44GLOH   H02 8786   3.801   5.306   1.714 -0.6057  0.9959  0.0319
   44GLOH   H08 8787   3.693   5.246   1.828 -3.0423 -0.1924  0.3536
   44GLOH    C2 8788   3.599   5.402   1.722  0.3626  0.2519  0.2038
   44GLOH   H04 8789   3.629   5.471   1.802  0.6495  1.4302 -0.9017
   44GLOH    O2 8790   3.624   5.471   1.602 -0.1287  0.3053  0.8074
   44GLOH   H05 8791   3.716   5.503   1.606  0.6771 -1.4615 -2.2943
   44GLOH    C3 8792   3.456   5.362   1.750  0.3975 -0.3454  0.4675
   44GLOH   H06 8793   3.424   5.292   1.672 -0.6798  0.3683  0.2487
   44GLOH   H07 8794   3.395   5.451   1.739  0.6032 -0.2101  0.4255
   44GLOH    O3 8795   3.435   5.301   1.881  0.2517 -0.0817  0.0937
   44GLOH   H01 8796   3.506   5.337   1.938 -1.4475 -0.0223  2.2089
   45GLOH   H03 8797   5.403   4.273   0.342  0.2772  0.2166 -1.7241
   45GLOH    O1 8798   5.332   4.310   0.288 -0.5942 -0.2133 -0.8893
   45GLOH    C1 8799   5.240   4.204   0.253 -0.6565  0.2208 -0.4306
   45GLOH   H02 8800   5.273   4.163   0.158 -1.1317  0.8871 -0.8905
   45GLOH   H08 8801   5.140   4.243   0.232 -0.7086 -0.5408 -1.6395
   45GLOH    C2 8802   5.234   4.086   0.352  0.2253  0.5279 -0.1481
   45GLOH   H04 8803   5.217   4.129   0.452 -1.8152 -1.2737  0.3073
   45GLOH    O2 8804   5.134   3.988   0.329  0.0787  0.0281  0.2637
   45GLOH   H05 8805   5.049   4.032   0.346 -0.2395 -1.3572  2.4281
   45GLOH    C3 8806   5.381   4.038   0.358  1.0088  0.4065  0.4375
   45GLOH   H06 8807   5.409   4.013   0.256 -0.9463 -0.9269  0.2169
   45GLOH   H07 8808   5.374   3.945   0.415  0.6650 -0.6344 -1.2971
   45GLOH    O3 8809   5.470   4.130   0.426  0.6654 -0.4360 -0.1955
   45GLOH   H01 8810   5.459   4.127   0.523  2.2386 -0.5551 -0.0062
   46GLOH   H03 8811   2.862   0.206   1.514 -0.8193 -0.5038  0.7722
   46GLOH    O1 8812   2.885   0.118   1.550  0.0232 -0.5474  0.1379
   46GLOH    C1 8813   2.933   0.136   1.687  0.1615  1.1256 -0.0925
   46GLOH   H02 8814   2.910   0.045   1.743  0.5279  2.0776  1.6653
   46GLOH   H08 8815   2.876   0.214   1.739 -0.0056  0.0679  1.3660
   46GLOH    C2 8816   3.082   0.162   1.699  0.2670  0.3819  0.0962
   46GLOH   H04 8817   3.096   0.177   1.807  1.2321 -2.2757  0.3805
   46GLOH    O2 8818   3.165   0.049   1.651  0.2346 -0.5353 -0.2112
   46GLOH   H05 8819   3.257   0.058   1.681 -0.0382 -0.6733  0.6877
   46GLOH    C3 8820   3.120   0.296   1.633  0.1765 -0.0851  0.4327
   46GLOH   H06 8821   3.072   0.304   1.536 -0.4535 -1.7649  0.5850
   46GLOH   H07 8822   3.223   0.281   1.603  0.2307  0.3581  0.4005
   46GLOH    O3 8823   3.096   0.407   1.719 -0.0197  0.5872 -0.6639
   46GLOH   H01 8824   3.045   0.471   1.666  0.1242 -0.2871 -1.8823
   47GLOH   H03 8825   3.516   7.793   1.224 -1.2386 -0.3111  0.7712
   47GLOH    O1 8826   3.465   7.721   1.183  0.1366 -0.8011 -0.0992
   47GLOH    C1 8827   3.355   7.678   1.268 -0.1360  0.1535  0.5550
   47GLOH   H02 8828   3.380   7.677   1.374  0.7209  1.5469  0.3825
   47GLOH   H08 8829   3.336   7.575   1.239  1.0241 -0.1496  0.8864
   47GLOH    C2 8830   3.220   7.748   1.247 -0.6799 -0.0136 -0.6805
   47GLOH   H04 8831   3.215   7.765   1.139 -2.6991  0.2201 -0.5583
   47GLOH    O2 8832   3.119   7.654   1.299  0.0200 -0.1951  0.7495
   47GLOH   H05 8833   3.131   7.565   1.260  0.9183  0.0409  0.4796
   47GLOH    C3 8834   3.211   7.882   1.322  0.5068 -0.8197  0.7093
   47GLOH   H06 8835   3.239   7.877   1.428  2.0311  2.4020  0.5080
   47GLOH   H07 8836   3.107   7.913   1.319  0.6531 -0.5100 -2.7370
   47GLOH    O3 8837   3.292   7.994   1.278  0.0427 -0.4521 -0.9996
   47GLOH   H01 8838   3.319   7.983   1.185  2.9961  0.0731 -0.2852
   48GLOH   H03 8839   3.975   2.235   1.706  1.1117  0.9506 -1.5384
   48GLOH    O1 8840   4.023   2.279   1.778  0.0628 -0.1809 -0.1158
   48GLOH    C1 8841   4.162   2.246   1.747 -0.5148 -0.6239 -0.7600
   48GLOH   H02 8842   4.183   2.238   1.641  2.7915 -1.8088 -0.0552
   48GLOH   H08 8843   4.196   2.154   1.795  0.7256 -0.1331 -0.6768
   48GLOH    C2 8844   4.249   2.356   1.797  0.0319  0.4055  0.1804
   48GLOH   H04 8845   4.245   2.351   1.907 -2.2564 -0.9714  0.0765
   48GLOH    O2 8846   4.381   2.319   1.752 -0.2674 -0.8811  0.5239
   48GLOH   H05 8847   4.441   2.334   1.827 -1.0895  2.1343  0.6524
   48GLOH    C3 8848   4.210   2.496   1.757 -0.5327  0.3976 -0.1542
   48GLOH   H06 8849   4.245   2.521   1.657  0.6713  0.6143  0.3127
   48GLOH   H07 8850   4.275   2.548   1.828 -0.9877 -0.4873  0.9196
   48GLOH    O3 8851   4.069   2.530   1.780 -0.2186 -0.4329  0.4340
   48GLOH   H01 8852   4.015   2.458   1.743  0.5307 -1.2008  0.8275
   49GLOH   H03 8853   5.104   2.866   1.197  0.0566 -1.3642 -1.9968
   49GLOH    O1 8854   5.186   2.914   1.177 -0.5429  0.6019  0.1394
   49GLOH    C1 8855   5.262   2.853   1.067 -0.1303 -0.2365 -0.2828
   49GLOH   H02 8856   5.197   2.817   0.987  1.5685 -0.5678 -1.5595
   49GLOH   H08 8857   5.303   2.758   1.101 -1.1108  0.1998  2.1672
   49GLOH    C2 8858   5.369   2.938   0.999  0.3857  0.6913 -0.0242
   49GLOH   H04 8859   5.310   3.013   0.944 -2.1097 -1.4651 -0.3642
   49GLOH    O2 8860   5.461   2.993   1.094 -0.5387  0.2854  0.3479
   49GLOH   H05 8861   5.445   3.087   1.115  0.2477  0.2865  0.9633
   49GLOH    C3 8862   5.443   2.861   0.893  0.3088 -0.0673  0.1950
   49GLOH   H06 8863   5.491   2.781   0.950 -2.1414 -2.6722 -1.2855
   49GLOH   H07 8864   5.523   2.925   0.857 -0.7877 -0.4357 -3.0597
   49GLOH    O3 8865   5.358   2.802   0.790  0.0100  0.1052  0.1694
   49GLOH   H01 8866   5.297   2.868   0.752  2.4343  0.4025 -3.4388
   50GLOH   H03 8867   4.350   5.443   1.164  0.0223 -0.4309 -0.7166
   50GLOH    O1 8868   4.419   5.408   1.222 -0.3082 -0.1593 -0.1567
   50GLOH    C1 8869   4.460   5.278   1.163  0.1303  0.6898 -0.0930
   50GLOH   H02 8870   4.386   5.203   1.190  0.1641  0.7280  0.1066
   50GLOH   H08 8871   4.558   5.246   1.198 -0.3831 -1.0239 -0.1743
   50GLOH    C2 8872   4.461   5.277   1.008 -1.0812 -0.4402  0.1008
   50GLOH   H04 8873   4.521   5.364   0.976  0.0552 -1.0831  0.4783
   50GLOH    O2 8874   4.535   5.164   0.966  0.1328  0.2572 -0.1136
   50GLOH   H05 8875   4.515   5.147   0.873  0.1567  1.7982 -0.4097
   50GLOH    C3 8876   4.320   5.304   0.953  0.0290 -0.0241 -0.7317
   50GLOH   H06 8877   4.255   5.217   0.953  0.9126 -0.7280  1.6407
   50GLOH   H07 8878   4.322   5.330   0.847 -0.8803  2.3633 -0.2031
   50GLOH    O3 8879   4.264   5.419   1.011 -0.0316 -0.2163  0.5119
   50GLOH   H01 8880   4.186   5.445   0.958  0.4113  1.5773  0.6990
   51GLOH   H03 8881   5.022   4.389   2.201 -0.1088 -1.0464 -1.0635
   51GLOH    O1 8882   5.020   4.380   2.298  0.0378  0.3870 -0.9093
   51GLOH    C1 8883   5.017   4.240   2.335 -0.1358 -0.2018  0.4020
   51GLOH   H02 8884   4.941   4.186   2.279 -0.4242 -1.6360  2.1459
   51GLOH   H08 8885   4.972   4.234   2.434  0.0755 -0.5401  0.4788
   51GLOH    C2 8886   5.151   4.170   2.323 -1.1788 -0.5614 -0.3878
   51GLOH   H04 8887   5.129   4.064   2.342 -1.8045 -0.5267 -0.9274
   51GLOH    O2 8888   5.209   4.183   2.196 -0.5327 -0.1333 -0.1200
   51GLOH   H05 8889   5.161   4.237   2.131  1.8308  2.5332  0.2375
   51GLOH    C3 8890   5.268   4.211   2.415 -0.1687 -0.1308 -0.2896
   51GLOH   H06 8891   5.295   4.315   2.395 -1.8874  0.2516 -0.6605
   51GLOH   H07 8892   5.350   4.142   2.394  0.5706  1.2069 -1.9818
   51GLOH    O3 8893   5.238   4.205   2.556  0.4626 -0.1857 -0.2226
   51GLOH   H01 8894   5.276   4.282   2.603 -0.2418  0.3782 -0.5638
   52GLOH   H03 8895   3.556   5.636   1.211 -1.4371  1.1252 -0.0251
   52GLOH    O1 8896   3.556   5.613   1.116 -0.6013 -0.1538  0.2742
   52GLOH    C1 8897   3.431   5.545   1.095  0.2854  0.2303  0.0476
   52GLOH   H02 8898   3.347   5.603   1.133 -1.3793 -0.8982 -1.7997
   52GLOH   H08 8899   3.434   5.445   1.138 -0.6083 -0.0810 -0.5906
   52GLOH    C2 8900   3.402   5.536   0.947  0.8936  0.8498  1.0401
   52GLOH   H04 8901   3.493   5.493   0.900  0.3480  0.5768  0.2160
   52GLOH    O2 8902   3.281   5.451   0.919  0.2982 -0.2125 -0.6502
   52GLOH   H05 8903   3.302   5.357   0.929 -0.7619 -0.1306  2.8366
   52GLOH    C3 8904   3.381   5.678   0.893  0.2030  0.5707 -0.5488
   52GLOH   H06 8905   3.293   5.723   0.939  0.2170  0.2862 -0.2426
   52GLOH   H07 8906   3.360   5.659   0.788 -0.9048 -3.1958  0.2471
   52GLOH    O3 8907   3.491   5.769   0.909  0.0676 -0.6693  0.4476
   52GLOH   H01 8908   3.539   5.731   0.985 -0.9757  0.3173  1.6039
   53GLOH   H03 8909   3.615   5.831   2.312  0.0039  0.6565  0.1266
   53GLOH    O1 8910   3.667   5.766   2.260  0.3917  0.8278  0.3001
   53GLOH    C1 8911   3.804   5.784   2.280  0.3957  0.1837  0.0999
   53GLOH   H02 8912   3.826   5.879   2.329  0.0462  0.8818 -1.0652
   53GLOH   H08 8913   3.857   5.784   2.185  0.6060  0.5437  0.2197
   53GLOH    C2 8914   3.854   5.670   2.374 -0.5046 -0.0585  0.5641
   53GLOH   H04 8915   3.794   5.579   2.358  0.3548 -0.5870  0.2984
   53GLOH    O2 8916   3.988   5.641   2.342  0.4582 -0.0080  0.4920
   53GLOH   H05 8917   4.020   5.575   2.406  1.0799 -0.7171 -0.5330
   53GLOH    C3 8918   3.836   5.715   2.522  0.1565  0.6970 -0.0864
   53GLOH   H06 8919   3.890   5.808   2.542  1.4760 -0.0979  0.0796
   53GLOH   H07 8920   3.879   5.645   2.593 -1.2966 -0.2565 -0.1246
   53GLOH    O3 8921   3.701   5.735   2.570 -0.1110 -0.4075 -0.2144
   53GLOH   H01 8922   3.661   5.655   2.608  0.2019 -0.5057 -0.0884
   54GLOH   H03 8923   4.385   3.270   1.577 -1.0600  2.1276  0.8493
   54GLOH    O1 8924   4.314   3.235   1.520  0.6563 -0.8016  0.3998
   54GLOH    C1 8925   4.346   3.124   1.433 -0.2015 -0.2876  0.0963
   54GLOH   H02 8926   4.378   3.160   1.336 -1.6182  0.1746 -0.2057
   54GLOH   H08 8927   4.261   3.058   1.414 -0.0886  0.0170 -1.4978
   54GLOH    C2 8928   4.455   3.032   1.475 -0.3540 -0.4215  0.2225
   54GLOH   H04 8929   4.462   2.960   1.392 -0.7363  1.0514 -1.1153
   54GLOH    O2 8930   4.588   3.102   1.487 -0.1866  0.3444 -0.1867
   54GLOH   H05 8931   4.582   3.175   1.552  0.7546  0.4829 -0.2572
   54GLOH    C3 8932   4.431   2.963   1.610  0.7148  1.2532 -0.4796
   54GLOH   H06 8933   4.400   3.035   1.686  2.2638  0.5251  0.8699
   54GLOH   H07 8934   4.518   2.904   1.638  0.4951  0.3276 -1.7185
   54GLOH    O3 8935   4.311   2.880   1.584  0.5978 -0.2509 -0.2675
   54GLOH   H01 8936   4.248   2.902   1.654  1.4574 -0.7944  0.6967
   55GLOH   H03 8937   3.552   8.350   1.882 -0.1871  0.7197 -2.6451
   55GLOH    O1 8938   3.590   8.271   1.838  0.4130 -0.3934 -0.2359
   55GLOH    C1 8939   3.655   8.310   1.720 -0.0531  0.2836 -0.3922
   55GLOH   H02 8940   3.706   8.405   1.736 -1.2120  1.3006 -2.5854
   55GLOH   H08 8941   3.587   8.338   1.640 -1.7314  1.3508  1.3908
   55GLOH    C2 8942   3.749   8.200   1.668  0.7064 -0.3010  0.1835
   55GLOH   H04 8943   3.700   8.105   1.695 -0.7248  0.4489  0.3180
   55GLOH    O2 8944   3.777   8.215   1.530  0.4408  0.6314  0.1561
   55GLOH   H05 8945   3.786   8.310   1.510  1.0292  1.0669  2.3976
   55GLOH    C3 8946   3.880   8.212   1.737 -0.3326 -0.4097  0.7576
   55GLOH   H06 8947   3.947   8.137   1.694  0.7862  2.8408 -3.6021
   55GLOH   H07 8948   3.871   8.201   1.845 -2.3681  3.5248  1.0596
   55GLOH    O3 8949   3.936   8.343   1.708  0.4765 -0.3141  0.2791
   55GLOH   H01 8950   3.935   8.394   1.791  3.1590 -0.4761  0.4569
   56GLOH   H03 8951   3.023   2.916   1.636  0.1823  0.7589  0.0950
   56GLOH    O1 8952   2.954   2.883   1.697  0.8091 -0.7395  0.0181
   56GLOH    C1 8953   2.861   2.986   1.744  0.0657  0.0403 -0.4403
   56GLOH   H02 8954   2.808   3.042   1.667  1.4511 -0.0930 -1.5105
   56GLOH   H08 8955   2.915   3.063   1.798 -1.1124  0.4752  0.1499
   56GLOH    C2 8956   2.750   2.921   1.834  0.0957  0.0633  0.2609
   56GLOH   H04 8957   2.726   2.820   1.796  0.2513  0.5958 -1.2875
   56GLOH    O2 8958   2.797   2.905   1.969  0.0373  0.3528 -0.1657
   56GLOH   H05 8959   2.892   2.884   1.966 -0.6349 -3.5377  2.2178
   56GLOH    C3 8960   2.613   2.998   1.826 -0.1907 -0.1555 -0.2295
   56GLOH   H06 8961   2.619   3.106   1.841 -2.0020  0.0859 -1.1503
   56GLOH   H07 8962   2.552   2.953   1.904 -1.5754 -2.0272 -2.3573
   56GLOH    O3 8963   2.544   2.981   1.704 -0.3144 -0.1419 -0.4047
   56GLOH   H01 8964   2.513   2.889   1.693 -2.0690  0.3610  0.1521
   57GLOH   H03 8965   2.386   6.912   0.917 -1.4226  0.0854  1.4276
   57GLOH    O1 8966   2.435   6.847   0.971 -0.2818  0.0632  0.3944
   57GLOH    C1 8967   2.429   6.907   1.104  0.7871  0.3789 -0.4261
   57GLOH   H02 8968   2.324   6.903   1.131  0.9805 -2.1174  0.0274
   57GLOH   H08 8969   2.457   7.013   1.107  0.5523  0.4907 -1.6843
   57GLOH    C2 8970   2.510   6.837   1.211 -0.0412 -0.2775  0.0681
   57GLOH   H04 8971   2.499   6.727   1.214 -1.9399 -0.0912  0.9931
   57GLOH    O2 8972   2.650   6.863   1.193 -0.1922  0.6511 -0.5071
   57GLOH   H05 8973   2.662   6.955   1.223 -1.8243 -0.0766  2.5695
   57GLOH    C3 8974   2.471   6.896   1.353  0.2823 -0.8005 -0.2432
   57GLOH   H06 8975   2.492   7.002   1.366 -2.3830 -0.3924  1.0948
   57GLOH   H07 8976   2.521   6.834   1.428  0.6132  1.7448  1.7046
   57GLOH    O3 8977   2.331   6.883   1.373  0.0864 -0.8156  0.0300
   57GLOH   H01 8978   2.312   6.795   1.410  0.8785 -1.0772 -0.1697
   58GLOH   H03 8979   3.629   8.720   2.463 -0.2238  0.7882 -0.1353
   58GLOH    O1 8980   3.645   8.773   2.382 -0.2423  0.0147 -0.6560
   58GLOH    C1 8981   3.773   8.736   2.335 -1.0275  0.0020  0.4818
   58GLOH   H02 8982   3.781   8.755   2.228  0.0469 -1.3799  0.3069
   58GLOH   H08 8983   3.776   8.629   2.358  0.4235 -0.1475 -0.3818
   58GLOH    C2 8984   3.897   8.800   2.409  0.2054 -0.1101 -0.1792
   58GLOH   H04 8985   3.913   8.742   2.501 -2.2092 -1.4191 -0.5387
   58GLOH    O2 8986   4.014   8.794   2.327  0.2153  0.3020  0.4231
   58GLOH   H05 8987   3.990   8.827   2.239 -2.2766  0.4039  1.0763
   58GLOH    C3 8988   3.869   8.948   2.453 -0.7033 -0.1278  0.4821
   58GLOH   H06 8989   3.775   8.933   2.507 -1.4370 -0.5041 -0.8821
   58GLOH   H07 8990   3.848   9.013   2.368  0.0545  1.4267  1.4630
   58GLOH    O3 8991   3.969   9.009   2.534 -0.3402  0.3922  0.6659
   58GLOH   H01 8992   4.060   9.013   2.500 -0.1112 -1.0766  1.1027
   59GLOH   H03 8993   4.891   4.563   0.476 -2.3550  2.0628 -0.5853
   59GLOH    O1 8994   4.842   4.490   0.433  0.3172 -0.0344 -0.1772
   59GLOH    C1 8995   4.922   4.428   0.324 -0.1978 -0.2657 -0.2046
   59GLOH   H02 8996   5.016   4.381   0.353 -0.9581 -3.3804 -2.4168
   59GLOH   H08 8997   4.953   4.505   0.254 -0.0422 -0.4943 -0.3898
   59GLOH    C2 8998   4.833   4.331   0.243 -0.3484  0.8891  0.4474
   59GLOH   H04 8999   4.747   4.391   0.207  0.1950  2.4913  1.7562
   59GLOH    O2 9000   4.910   4.283   0.123  0.2407  0.3110 -0.2443
   59GLOH   H05 9001   4.955   4.201   0.148 -0.3071  0.5364  1.5547
   59GLOH    C3 9002   4.790   4.219   0.332 -0.3286 -0.3113  0.4992
   59GLOH   H06 9003   4.714   4.172   0.270 -0.4896 -1.0102  1.2192
   59GLOH   H07 9004   4.746   4.262   0.422  3.8595  2.3200  1.4299
   59GLOH    O3 9005   4.905   4.143   0.363 -0.4841  0.1519  0.5207
   59GLOH   H01 9006   4.897   4.110   0.454  0.1338  0.9512  0.8627
   60GLOH   H03 9007   4.097   4.498   0.276 -1.2889 -0.2612  0.3058
   60GLOH    O1 9008   4.149   4.424   0.240 -0.5834  0.3271  0.0997
   60GLOH    C1 9009   4.195   4.356   0.354 -0.3417  0.3758  0.3020
   60GLOH   H02 9010   4.115   4.338   0.426  0.6849  3.2820  2.2341
   60GLOH   H08 9011   4.271   4.415   0.405  0.0028  2.4947 -2.5485
   60GLOH    C2 9012   4.262   4.221   0.318  0.3458 -0.3344 -0.0992
   60GLOH   H04 9013   4.308   4.171   0.405  1.2155  0.2430 -0.2215
   60GLOH    O2 9014   4.162   4.143   0.258  0.3928  0.2426 -0.0566
   60GLOH   H05 9015   4.099   4.149   0.332 -1.7258  0.1741 -1.7749
   60GLOH    C3 9016   4.378   4.240   0.220  0.2699  0.1151  0.2723
   60GLOH   H06 9017   4.332   4.268   0.125 -0.6555 -1.0893  0.3576
   60GLOH   H07 9018   4.422   4.140   0.221 -0.3621 -0.1840 -1.1038
   60GLOH    O3 9019   4.460   4.347   0.265 -0.1435  0.0863  0.5619
   60GLOH   H01 9020   4.488   4.387   0.181 -0.8437 -3.6539 -1.5913
   61GLOH   H03 9021   2.566   3.643   1.046 -0.4694 -0.6353 -0.0602
   61GLOH    O1 9022   2.625   3.614   1.118  0.0136  0.0468 -0.1733
   61GLOH    C1 9023   2.537   3.547   1.214 -0.3317  1.0247  0.3210
   61GLOH   H02 9024   2.439   3.527   1.169  0.3602 -1.4170 -0.1647
   61GLOH   H08 9025   2.524   3.612   1.301  0.4788 -0.6652  1.7619
   61GLOH    C2 9026   2.603   3.416   1.262 -0.4396  0.0630  0.4037
   61GLOH   H04 9027   2.710   3.417   1.236 -0.9725  0.3240 -1.8587
   61GLOH    O2 9028   2.587   3.392   1.398  0.4161  0.3377 -0.0327
   61GLOH   H05 9029   2.642   3.452   1.451  0.4076 -0.8189  1.3223
   61GLOH    C3 9030   2.542   3.301   1.184 -0.1671 -0.5508  0.5067
   61GLOH   H06 9031   2.435   3.304   1.204 -0.1333 -0.8061  0.7355
   61GLOH   H07 9032   2.576   3.205   1.224 -2.2340 -1.7209 -0.4451
   61GLOH    O3 9033   2.568   3.301   1.045  0.0941 -0.1469 -0.4054
   61GLOH   H01 9034   2.489   3.304   0.989 -0.3597  3.9205  0.2989
   62GLOH   H03 9035   4.675   2.976   1.419 -2.8106 -2.5384  1.6107
   62GLOH    O1 9036   4.693   2.896   1.367  0.6929 -0.6936 -0.2261
   62GLOH    C1 9037   4.834   2.876   1.337  0.2257 -0.6840 -0.1551
   62GLOH   H02 9038   4.891   2.856   1.428 -0.3418  0.7510  0.5274
   62GLOH   H08 9039   4.883   2.964   1.297 -3.2595  0.5286 -1.9779
   62GLOH    C2 9040   4.847   2.758   1.241  0.0932  0.4084  0.5425
   62GLOH   H04 9041   4.795   2.777   1.145  1.1967 -0.6256 -0.2774
   62GLOH    O2 9042   4.986   2.742   1.216 -0.2894  0.6154  0.8598
   62GLOH   H05 9043   5.019   2.671   1.274  2.0494  1.4898  0.6497
   62GLOH    C3 9044   4.782   2.636   1.304 -0.1414  0.2027 -0.3494
   62GLOH   H06 9045   4.679   2.655   1.337 -0.0022  2.0093 -0.8496
   62GLOH   H07 9046   4.838   2.631   1.397 -0.1579  0.1413 -0.3431
   62GLOH    O3 9047   4.791   2.513   1.234  0.1926 -0.1364  0.5998
   62GLOH   H01 9048   4.799   2.432   1.287  1.9965 -0.8635 -0.7401
   63GLOH   H03 9049   2.768   4.414   0.696 -0.3909  0.1945  0.5422
   63GLOH    O1 9050   2.739   4.328   0.731 -0.0763  0.1501  0.6836
   63GLOH    C1 9051   2.607   4.331   0.793 -0.3259  0.0866  0.0171
   63GLOH   H02 9052   2.587   4.415   0.860 -0.3013 -1.9167  2.6074
   63GLOH   H08 9053   2.596   4.237   0.847 -1.0219 -0.6825 -1.4236
   63GLOH    C2 9054   2.502   4.337   0.673 -0.3591  0.0805  0.0781
   63GLOH   H04 9055   2.514   4.239   0.625  3.0988 -0.4211  1.7607
   63GLOH    O2 9056   2.366   4.345   0.723  0.1372 -0.6225 -0.0379
   63GLOH   H05 9057   2.305   4.349   0.648  0.0915 -1.8152 -0.0722
   63GLOH    C3 9058   2.552   4.439   0.568 -1.0257  0.4498  0.3289
   63GLOH   H06 9059   2.655   4.430   0.533 -1.6810  2.5284 -2.2645
   63GLOH   H07 9060   2.540   4.535   0.618 -0.6201  0.8458 -0.3396
   63GLOH    O3 9061   2.463   4.429   0.454 -0.0225 -0.0311 -0.0132
   63GLOH   H01 9062   2.455   4.519   0.418  1.5152 -0.3328 -1.1256
   64GLOH   H03 9063   3.316   4.886   1.184 -1.7804 -0.4341  0.2027
   64GLOH    O1 9064   3.312   4.887   1.086 -0.0632  0.2202  0.1180
   64GLOH    C1 9065   3.348   4.754   1.043 -0.3543 -0.1791  0.3134
   64GLOH   H02 9066   3.347   4.675   1.117  0.2426  1.4308  2.0781
   64GLOH   H08 9067   3.451   4.756   1.008  0.2005  2.4731  1.9757
   64GLOH    C2 9068   3.269   4.723   0.916  0.0583  0.0198  0.0755
   64GLOH   H04 9069   3.319   4.769   0.830  0.4907 -3.3332 -1.5278
   64GLOH    O2 9070   3.269   4.583   0.899  0.2355  0.3885 -0.2358
   64GLOH   H05 9071   3.191   4.546   0.943  0.6088 -0.3548 -0.1953
   64GLOH    C3 9072   3.130   4.780   0.929  0.1963 -0.1503 -0.2222
   64GLOH   H06 9073   3.134   4.889   0.926  0.4921 -0.1818 -2.1404
   64GLOH   H07 9074   3.077   4.754   1.020 -1.4841  1.1808 -0.7832
   64GLOH    O3 9075   3.042   4.742   0.820  0.4968 -0.8172  0.0523
   64GLOH   H01 9076   2.970   4.807   0.825  1.7405  0.5908  0.0938
   65GLOH   H03 9077   3.711   7.969   0.357  1.7341 -1.2903 -1.1188
   65GLOH    O1 9078   3.721   8.043   0.293  0.1004 -0.0306  0.0298
   65GLOH    C1 9079   3.859   8.051   0.253 -0.1993  0.1926  0.1187
   65GLOH   H02 9080   3.863   8.062   0.145 -3.7636  0.5936 -0.0358
   65GLOH   H08 9081   3.919   7.964   0.279 -1.0878  0.1108  2.0366
   65GLOH    C2 9082   3.924   8.177   0.312 -0.1694 -0.2686 -0.4129
   65GLOH   H04 9083   4.032   8.165   0.295 -0.3409 -1.7868 -0.4723
   65GLOH    O2 9084   3.869   8.297   0.265  0.2018 -0.2936 -0.2535
   65GLOH   H05 9085   3.925   8.360   0.314 -1.0051  0.6285 -0.0180
   65GLOH    C3 9086   3.904   8.167   0.469  0.5158  0.3600  0.5441
   65GLOH   H06 9087   3.976   8.235   0.515  3.0492 -0.8209 -1.4963
   65GLOH   H07 9088   3.919   8.066   0.507 -0.9508 -1.3433 -3.1084
   65GLOH    O3 9089   3.765   8.186   0.505 -0.2022  0.0620 -0.5758
   65GLOH   H01 9090   3.719   8.160   0.423  0.6665  1.1612 -1.4317
   66GLOH   H03 9091   2.789   8.565   2.484 -0.3625 -1.0141  0.8846
   66GLOH    O1 9092   2.722   8.636   2.492  0.6218  0.0396  0.1284
   66GLOH    C1 9093   2.636   8.597   2.602  0.2944  0.5956 -0.5315
   66GLOH   H02 9094   2.534   8.632   2.590 -0.0116 -0.0013  0.2780
   66GLOH   H08 9095   2.676   8.638   2.695  0.1979  0.3024 -0.3582
   66GLOH    C2 9096   2.621   8.441   2.611  0.7521  0.1329  0.8181
   66GLOH   H04 9097   2.724   8.404   2.599  0.7255  0.7500 -1.5398
   66GLOH    O2 9098   2.566   8.409   2.742 -0.1572  0.7464  0.2947
   66GLOH   H05 9099   2.470   8.423   2.749 -0.6688 -2.5866  0.9171
   66GLOH    C3 9100   2.540   8.387   2.497  0.7436  0.1023  0.3445
   66GLOH   H06 9101   2.447   8.441   2.477 -0.3546 -1.2895  1.5951
   66GLOH   H07 9102   2.509   8.288   2.529  0.4944  0.2001  0.4080
   66GLOH    O3 9103   2.614   8.378   2.376 -0.3373 -0.4420  0.0708
   66GLOH   H01 9104   2.562   8.416   2.303  2.0600  1.7615 -0.5318
   67GLOH   H03 9105   2.869   5.753   1.322  0.2479  1.1283  0.1460
   67GLOH    O1 9106   2.932   5.777   1.392  0.2239  0.4231  0.4127
   67GLOH    C1 9107   2.901   5.899   1.461  0.2196  0.3480 -0.1386
   67GLOH   H02 9108   2.989   5.922   1.521  1.3054  1.1256 -1.9719
   67GLOH   H08 9109   2.824   5.879   1.534  1.3134 -1.2390  0.6054
   67GLOH    C2 9110   2.866   6.014   1.360  0.0165  0.2592  0.2427
   67GLOH   H04 9111   2.832   5.965   1.268  1.4778  0.4355 -0.3998
   67GLOH    O2 9112   2.760   6.095   1.414  0.0147 -0.0068  0.1834
   67GLOH   H05 9113   2.692   6.117   1.348  0.3528  1.6175  0.3519
   67GLOH    C3 9114   2.997   6.094   1.331  0.0483 -0.4007 -0.3099
   67GLOH   H06 9115   3.076   6.039   1.280  0.5065  0.1669 -0.2110
   67GLOH   H07 9116   3.046   6.129   1.422  1.5499  0.3908 -1.4307
   67GLOH    O3 9117   2.967   6.204   1.252  0.3462 -0.0797  0.2675
   67GLOH   H01 9118   2.900   6.254   1.302  0.0820 -0.9412  0.7891
   68GLOH   H03 9119   3.253   4.750   1.341 -0.1975 -0.1253  1.7263
   68GLOH    O1 9120   3.296   4.837   1.331 -0.0726 -0.4008 -0.2739
   68GLOH    C1 9121   3.301   4.912   1.454  0.1321 -0.8464 -0.3066
   68GLOH   H02 9122   3.354   4.851   1.527 -1.2396  0.5469  1.8946
   68GLOH   H08 9123   3.203   4.928   1.497  0.1373 -1.9651  0.1394
   68GLOH    C2 9124   3.379   5.042   1.439 -0.0787 -0.1607  0.0394
   68GLOH   H04 9125   3.386   5.078   1.542  1.6540 -2.5422  0.7960
   68GLOH    O2 9126   3.512   5.018   1.389  0.4514 -0.6035  0.6833
   68GLOH   H05 9127   3.554   5.105   1.397  0.4112 -0.4421 -0.7336
   68GLOH    C3 9128   3.297   5.144   1.359 -0.2673 -0.8371  0.3923
   68GLOH   H06 9129   3.269   5.101   1.263 -2.9116 -0.3210  0.8892
   68GLOH   H07 9130   3.353   5.236   1.342 -1.6916 -0.0187 -0.0271
   68GLOH    O3 9131   3.172   5.174   1.417 -0.3135  0.7133  0.5840
   68GLOH   H01 9132   3.106   5.114   1.379 -0.5079  0.8889  0.6474
   69GLOH   H03 9133   2.975   5.145   2.304 -0.5073  0.8969 -0.6333
   69GLOH    O1 9134   3.054   5.192   2.271  0.9283 -0.5655  0.6413
   69GLOH    C1 9135   3.068   5.179   2.126  0.3359  0.5137  0.1861
   69GLOH   H02 9136   2.986   5.228   2.074 -0.0118 -1.9006 -1.6052
   69GLOH   H08 9137   3.066   5.076   2.092 -0.1248  0.4758  0.3258
   69GLOH    C2 9138   3.200   5.235   2.074 -0.6289  0.6672 -0.1296
   69GLOH   H04 9139   3.274   5.154   2.065 -0.8405  0.5455 -0.7717
   69GLOH    O2 9140   3.187   5.296   1.948  0.7052  0.2361 -0.1628
   69GLOH   H05 9141   3.269   5.279   1.900  0.4661 -1.7125  0.0810
   69GLOH    C3 9142   3.272   5.333   2.170 -0.0453  0.5019  0.0401
   69GLOH   H06 9143   3.205   5.419   2.179 -1.3231 -0.3880 -0.6811
   69GLOH   H07 9144   3.362   5.370   2.121  0.3053 -0.1979  0.1480
   69GLOH    O3 9145   3.295   5.277   2.299  0.5483  0.0940 -0.1187
   69GLOH   H01 9146   3.215   5.222   2.309  1.5099 -1.1010  1.1742
   70GLOH   H03 9147   2.614   9.677   1.047 -3.0906 -0.4871  0.5539
   70GLOH    O1 9148   2.581   9.757   1.004 -0.2323  0.1851 -0.4910
   70GLOH    C1 9149   2.453   9.707   0.959  0.4500 -0.1497  0.1319
   70GLOH   H02 9150   2.391   9.682   1.045  0.7853 -2.4678 -0.2875
   70GLOH   H08 9151   2.472   9.619   0.898 -0.5817  0.0418 -0.4947
   70GLOH    C2 9152   2.372   9.793   0.855  0.0509 -0.4339 -0.0328
   70GLOH   H04 9153   2.435   9.836   0.776  1.3238 -1.9469  0.1444
   70GLOH    O2 9154   2.267   9.716   0.787 -0.4423 -0.0687  0.1154
   70GLOH   H05 9155   2.267   9.733   0.692  1.2182 -0.9672 -0.0513
   70GLOH    C3 9156   2.315   9.907   0.934 -0.1778 -0.7682 -0.3943
   70GLOH   H06 9157   2.233   9.861   0.990  0.7719  0.3872  1.9950
   70GLOH   H07 9158   2.273   9.984   0.869  0.4317 -1.7884 -2.0335
   70GLOH    O3 9159   2.415   9.960   1.025  0.7424 -0.5135  0.3389
   70GLOH   H01 9160   2.485   9.892   1.025  0.1872 -1.1040 -1.8338
   71GLOH   H03 9161   4.390   3.487   0.691  1.0438  1.2659  1.6955
   71GLOH    O1 9162   4.327   3.558   0.670  0.1335  0.0918  0.4480
   71GLOH    C1 9163   4.206   3.494   0.636 -0.4182  0.3917 -0.0985
   71GLOH   H02 9164   4.224   3.441   0.542  1.0481 -0.0969  0.4518
   71GLOH   H08 9165   4.122   3.561   0.615 -1.3302 -1.6132 -3.2482
   71GLOH    C2 9166   4.153   3.403   0.750  0.3378  0.2355 -0.0740
   71GLOH   H04 9167   4.147   3.455   0.847 -0.9255 -1.1900  0.6408
   71GLOH    O2 9168   4.018   3.358   0.735 -0.3222 -0.7013  0.0670
   71GLOH   H05 9169   3.958   3.425   0.771 -0.7905 -1.9788  1.7385
   71GLOH    C3 9170   4.254   3.292   0.763 -0.0249 -0.1910 -0.3265
   71GLOH   H06 9171   4.262   3.240   0.667 -1.2641  1.6623 -1.4579
   71GLOH   H07 9172   4.225   3.222   0.841 -1.7603 -0.0009 -0.7917
   71GLOH    O3 9173   4.384   3.331   0.811 -0.2076 -0.1813  0.0283
   71GLOH   H01 9174   4.438   3.268   0.759 -0.6690 -1.0038  0.5200
   72GLOH   H03 9175   4.211   8.629   1.730  1.4469  1.6640  0.1369
   72GLOH    O1 9176   4.178   8.652   1.819  0.1933  0.0923  0.1020
   72GLOH    C1 9177   4.178   8.534   1.901 -0.6318  0.3389  0.2336
   72GLOH   H02 9178   4.278   8.497   1.925 -0.9523  0.0955  1.2031
   72GLOH   H08 9179   4.137   8.449   1.846  1.3765 -1.8512  1.9724
   72GLOH    C2 9180   4.096   8.554   2.029 -0.7210 -0.1838  0.7100
   72GLOH   H04 9181   4.100   8.463   2.090 -1.2384 -0.7897 -0.1371
   72GLOH    O2 9182   4.134   8.666   2.107  0.1231 -0.0473 -0.6738
   72GLOH   H05 9183   4.150   8.739   2.044  0.9830 -0.9639 -1.5330
   72GLOH    C3 9184   3.944   8.552   2.001 -0.0595 -0.5305  0.3978
   72GLOH   H06 9185   3.928   8.634   1.931  0.8245 -2.3515 -1.9972
   72GLOH   H07 9186   3.898   8.571   2.098  2.4110  1.6914  1.1835
   72GLOH    O3 9187   3.893   8.427   1.941 -0.0060  0.2105  0.2836
   72GLOH   H01 9188   3.900   8.351   2.002  2.7913  0.8860  0.8531
   73GLOH   H03 9189   4.368   1.148   1.226 -0.0864  1.1962 -0.0825
   73GLOH    O1 9190   4.410   1.106   1.148 -0.3334  0.0478  0.3814
   73GLOH    C1 9191   4.339   0.982   1.114  0.5313 -0.5225  0.6624
   73GLOH   H02 9192   4.234   0.995   1.089  1.6631  2.3041 -3.2296
   73GLOH   H08 9193   4.333   0.918   1.201 -0.0248 -0.4532  0.6765
   73GLOH    C2 9194   4.410   0.905   1.001  0.5389  0.1117 -0.5864
   73GLOH   H04 9195   4.515   0.884   1.027  0.6138 -0.8959 -1.6436
   73GLOH    O2 9196   4.340   0.775   1.009 -0.2210 -0.4474  0.3571
   73GLOH   H05 9197   4.398   0.718   1.063 -0.9680 -0.3777  1.2367
   73GLOH    C3 9198   4.387   0.979   0.865 -0.2409 -0.1630 -0.6636
   73GLOH   H06 9199   4.375   1.087   0.871  0.3557 -0.2228  2.2894
   73GLOH   H07 9200   4.296   0.932   0.828 -0.9434  0.5252  0.1714
   73GLOH    O3 9201   4.493   0.940   0.778  0.4029 -0.4264 -0.5443
   73GLOH   H01 9202   4.463   0.887   0.701  0.3010  1.2694 -1.6965
   74GLOH   H03 9203   4.993   3.496   1.924  0.2732 -0.1666 -0.2026
   74GLOH    O1 9204   5.073   3.444   1.901 -0.1057 -0.6285 -0.4699
   74GLOH    C1 9205   5.178   3.531   1.881  0.0769  0.0306  0.3373
   74GLOH   H02 9206   5.238   3.533   1.972 -0.9439 -0.2090  1.0208
   74GLOH   H08 9207   5.148   3.633   1.858 -2.5376 -0.4463  1.5382
   74GLOH    C2 9208   5.262   3.484   1.758  0.7845 -0.5260  0.4651
   74GLOH   H04 9209   5.213   3.501   1.661  1.2443  1.0220  0.5003
   74GLOH    O2 9210   5.379   3.573   1.747  0.2462  0.1745 -0.1536
   74GLOH   H05 9211   5.417   3.550   1.660 -1.2685 -1.6915 -0.3556
   74GLOH    C3 9212   5.302   3.334   1.774  0.3861  0.0768  0.0769
   74GLOH   H06 9213   5.207   3.287   1.796  0.6665  0.6233  2.6375
   74GLOH   H07 9214   5.367   3.316   1.860  0.9261  2.2113  0.1406
   74GLOH    O3 9215   5.351   3.277   1.655  0.7488  0.1729 -0.2588
   74GLOH   H01 9216   5.295   3.291   1.577  1.0805  1.1511 -0.3242
   75GLOH   H03 9217   2.437   4.484   2.195 -0.0253  0.1892 -0.4216
   75GLOH    O1 9218   2.526   4.470   2.231 -0.3719 -0.4642  0.1872
   75GLOH    C1 9219   2.529   4.527   2.362 -0.3821  0.1707  0.2278
   75GLOH   H02 9220   2.449   4.490   2.427 -2.8809  1.9861 -1.7033
   75GLOH   H08 9221   2.510   4.634   2.352  0.1642  0.4631  2.0069
   75GLOH    C2 9222   2.671   4.497   2.418 -0.3336  0.5775 -0.4063
   75GLOH   H04 9223   2.735   4.512   2.329  0.4635 -0.8551 -0.0994
   75GLOH    O2 9224   2.715   4.582   2.530  0.1653  0.3222 -0.1236
   75GLOH   H05 9225   2.809   4.564   2.546 -0.5216 -3.1904  0.4803
   75GLOH    C3 9226   2.677   4.340   2.446 -0.6972 -0.1721  1.0172
   75GLOH   H06 9227   2.668   4.292   2.349  1.1824  0.8271  0.3403
   75GLOH   H07 9228   2.594   4.309   2.510  0.7817 -2.7614  1.7572
   75GLOH    O3 9229   2.797   4.290   2.513  0.0201 -0.3014 -0.1854
   75GLOH   H01 9230   2.877   4.324   2.470 -1.3156  0.2213 -2.3172
   76GLOH   H03 9231   2.356   8.684   1.346 -2.3096 -2.1819 -0.7823
   76GLOH    O1 9232   2.392   8.671   1.256  0.5588  0.1762 -0.0886
   76GLOH    C1 9233   2.344   8.550   1.192 -0.0609 -0.0403 -0.3469
   76GLOH   H02 9234   2.235   8.546   1.185 -0.2132  1.9975  0.3191
   76GLOH   H08 9235   2.372   8.462   1.249 -2.1100 -1.6642 -1.7741
   76GLOH    C2 9236   2.416   8.529   1.054  0.1280  0.4871 -0.3641
   76GLOH   H04 9237   2.522   8.518   1.082  0.4291  0.7181 -1.3717
   76GLOH    O2 9238   2.363   8.410   0.981 -0.5732 -0.2889  0.2606
   76GLOH   H05 9239   2.266   8.408   0.979 -0.5588 -0.0261 -1.3365
   76GLOH    C3 9240   2.417   8.656   0.967  0.1169  0.1894 -0.3626
   76GLOH   H06 9241   2.316   8.681   0.937 -0.5562 -2.7029 -0.6328
   76GLOH   H07 9242   2.466   8.634   0.872  0.0939 -0.5700 -0.2020
   76GLOH    O3 9243   2.483   8.761   1.036 -0.0756 -0.1045 -0.2715
   76GLOH   H01 9244   2.469   8.742   1.130  0.4823 -1.9574 -0.5504
   77GLOH   H03 9245   4.436   0.753   0.526  0.3043  1.1985 -0.4125
   77GLOH    O1 9246   4.376   0.796   0.590  0.0445 -0.1019  0.2463
   77GLOH    C1 9247   4.248   0.792   0.532  0.0318 -0.1069 -0.7499
   77GLOH   H02 9248   4.253   0.794   0.423 -2.3637  1.0581 -0.8678
   77GLOH   H08 9249   4.184   0.873   0.565  1.9120  1.3037 -0.5177
   77GLOH    C2 9250   4.169   0.666   0.585 -0.1409  0.3777  0.2455
   77GLOH   H04 9251   4.061   0.678   0.567 -0.1093 -0.2039 -0.3703
   77GLOH    O2 9252   4.202   0.544   0.513  0.3962 -1.0015 -0.5534
   77GLOH   H05 9253   4.146   0.478   0.559 -1.2748  0.7368 -0.0132
   77GLOH    C3 9254   4.188   0.643   0.736  0.2139 -0.7361  0.3882
   77GLOH   H06 9255   4.290   0.619   0.764  0.8840 -0.0149 -1.3245
   77GLOH   H07 9256   4.133   0.552   0.758 -0.9080 -0.5763 -1.6113
   77GLOH    O3 9257   4.145   0.745   0.828  0.3573 -0.1847 -0.3222
   77GLOH   H01 9258   4.220   0.797   0.861 -1.3712  0.3887  2.9231
   78GLOH   H03 9259   5.218   2.804   1.667 -0.7945  0.3811 -0.9490
   78GLOH    O1 9260   5.274   2.864   1.613 -0.0256  0.3553 -0.1943
   78GLOH    C1 9261   5.296   2.811   1.476 -0.5625 -0.3036  0.5201
   78GLOH   H02 9262   5.213   2.837   1.410  0.2758 -0.7181 -0.7200
   78GLOH   H08 9263   5.319   2.704   1.470  1.2662  0.0664  0.6535
   78GLOH    C2 9264   5.423   2.875   1.407  0.0764 -0.1835 -0.0424
   78GLOH   H04 9265   5.502   2.845   1.477  0.4237  1.4055  0.2656
   78GLOH    O2 9266   5.460   2.816   1.280 -0.0034 -0.0540  0.4553
   78GLOH   H05 9267   5.461   2.887   1.214  0.3796  0.2673  0.8054
   78GLOH    C3 9268   5.416   3.027   1.408 -0.4175  0.0402  0.5325
   78GLOH   H06 9269   5.507   3.073   1.369 -1.3054 -0.9737 -2.8482
   78GLOH   H07 9270   5.406   3.059   1.512 -2.2343  0.7306  0.1567
   78GLOH    O3 9271   5.309   3.078   1.334  0.0710 -0.1701 -0.2190
   78GLOH   H01 9272   5.276   3.006   1.278 -2.6220 -0.0575  1.1365
   79GLOH   H03 9273   4.677   0.773   1.415  0.2911  0.0627  0.6141
   79GLOH    O1 9274   4.705   0.792   1.324 -0.4321 -0.2025  0.3370
   79GLOH    C1 9275   4.648   0.916   1.300  0.5913  0.0370  0.3491
   79GLOH   H02 9276   4.569   0.937   1.372  1.0276  0.1089  0.8042
   79GLOH   H08 9277   4.604   0.926   1.200  0.1746  1.9374  0.6849
   79GLOH    C2 9278   4.754   1.029   1.305  0.0794 -0.9088  0.2661
   79GLOH   H04 9279   4.831   1.021   1.227 -1.8766 -3.8176 -1.4930
   79GLOH    O2 9280   4.695   1.158   1.298  0.4668 -0.9110 -0.6202
   79GLOH   H05 9281   4.665   1.180   1.208 -3.4499 -0.0272  0.7821
   79GLOH    C3 9282   4.829   1.014   1.437 -0.2438 -0.0475  0.1768
   79GLOH   H06 9283   4.910   1.087   1.439  1.0471 -1.4613  0.8983
   79GLOH   H07 9284   4.876   0.916   1.437  0.5638  0.3341  0.2628
   79GLOH    O3 9285   4.754   1.022   1.554  0.3678 -0.1426  0.5800
   79GLOH   H01 9286   4.754   1.113   1.587  1.5413 -0.0987  0.4826
   80GLOH   H03 9287   4.229   0.470   2.397 -0.3922 -0.8018 -0.6187
   80GLOH    O1 9288   4.146   0.466   2.346 -0.5407 -0.3495 -0.4158
   80GLOH    C1 9289   4.103   0.326   2.338  0.1342  0.1831  0.9196
   80GLOH   H02 9290   4.009   0.315   2.284  1.3577  3.0337 -2.0677
   80GLOH   H08 9291   4.095   0.297   2.442 -2.3660  1.0387  0.9900
   80GLOH    C2 9292   4.202   0.233   2.268  1.1237 -0.1918  0.7928
   80GLOH   H04 9293   4.151   0.135   2.266  0.5182  0.1348 -0.4925
   80GLOH    O2 9294   4.230   0.263   2.126  0.2471 -0.0329  0.0250
   80GLOH   H05 9295   4.217   0.184   2.071 -3.1541  1.3689 -1.2892
   80GLOH    C3 9296   4.330   0.221   2.351 -0.1865  0.1876  0.2603
   80GLOH   H06 9297   4.357   0.327   2.351 -0.8005  0.3518  1.4940
   80GLOH   H07 9298   4.403   0.160   2.299  1.2341  0.0526  2.3341
   80GLOH    O3 9299   4.301   0.172   2.485 -0.0653  0.3064  0.0340
   80GLOH   H01 9300   4.225   0.111   2.484 -0.8390  1.2218 -2.4412
   81GLOH   H03 9301   5.443   4.033   0.743 -1.7111 -0.5642 -0.6549
   81GLOH    O1 9302   5.453   4.099   0.671  0.5686 -0.1898 -0.0355
   81GLOH    C1 9303   5.487   4.227   0.728 -0.5150  0.0846 -0.3736
   81GLOH   H02 9304   5.493   4.299   0.646  0.8552  1.2255  0.7155
   81GLOH   H08 9305   5.587   4.235   0.770 -0.9632  1.9403  0.4142
   81GLOH    C2 9306   5.393   4.281   0.843  0.7172 -0.0141 -0.5506
   81GLOH   H04 9307   5.286   4.268   0.818  0.8540  2.2256 -2.4789
   81GLOH    O2 9308   5.417   4.213   0.969 -0.3864  0.1695  0.1456
   81GLOH   H05 9309   5.363   4.254   1.039 -2.3434  0.8527 -1.7180
   81GLOH    C3 9310   5.422   4.429   0.852  0.5204  0.1139  0.1543
   81GLOH   H06 9311   5.523   4.439   0.892  0.3483 -0.4362  0.7242
   81GLOH   H07 9312   5.354   4.471   0.926  0.4449 -0.0059  0.1527
   81GLOH    O3 9313   5.398   4.504   0.733 -0.4487 -0.1548 -0.0708
   81GLOH   H01 9314   5.302   4.524   0.731 -0.0520  2.0478  2.1633
   82GLOH   H03 9315   4.151   0.591   1.189  0.3920 -0.0552  0.2771
   82GLOH    O1 9316   4.214   0.517   1.181  0.0119 -0.3463 -0.0115
   82GLOH    C1 9317   4.214   0.478   1.048 -0.0261 -0.0619  0.5423
   82GLOH   H02 9318   4.229   0.568   0.987 -2.5972  0.0666  0.0096
   82GLOH   H08 9319   4.113   0.449   1.019  0.0048  2.4798 -2.4153
   82GLOH    C2 9320   4.318   0.373   1.012  0.2971 -0.1702  0.5855
   82GLOH   H04 9321   4.300   0.335   0.910 -2.3879  1.7007  0.2884
   82GLOH    O2 9322   4.451   0.428   1.017  0.1181  0.4302 -0.0267
   82GLOH   H05 9323   4.452   0.511   1.068 -0.3979  2.3479 -3.0018
   82GLOH    C3 9324   4.306   0.259   1.114 -0.8617 -0.0517  0.2255
   82GLOH   H06 9325   4.306   0.315   1.208  2.3650  3.8535 -1.9596
   82GLOH   H07 9326   4.395   0.197   1.108 -0.3034  0.6999  0.6572
   82GLOH    O3 9327   4.183   0.186   1.104  0.3248  0.6023 -0.1293
   82GLOH   H01 9328   4.183   0.116   1.172  2.5953 -1.0324 -1.7400
   83GLOH   H03 9329   4.260   8.918   1.341 -0.3173  0.8930 -1.3758
   83GLOH    O1 9330   4.180   8.958   1.381  0.4653 -0.1719  1.3771
   83GLOH    C1 9331   4.192   9.001   1.519 -0.4798  0.0484  0.5804
   83GLOH   H02 9332   4.274   9.073   1.529 -0.8237  0.6692 -0.9527
   83GLOH   H08 9333   4.217   8.914   1.580 -2.5977 -0.5744  0.6163
   83GLOH    C2 9334   4.067   9.073   1.583  0.7830  0.7881  0.5586
   83GLOH   H04 9335   3.984   9.001   1.579  1.1539  0.3603  0.5837
   83GLOH    O2 9336   4.093   9.100   1.724 -0.0474 -0.3662 -0.0356
   83GLOH   H05 9337   4.041   9.174   1.760 -1.1913 -1.3191  0.3125
   83GLOH    C3 9338   4.032   9.202   1.501  0.1181 -0.4314 -0.1558
   83GLOH   H06 9339   4.100   9.281   1.530  0.5598 -1.5941  2.1381
   83GLOH   H07 9340   3.929   9.231   1.522 -0.1749 -1.0293 -0.7517
   83GLOH    O3 9341   4.021   9.159   1.362  0.2943 -0.0072  0.1468
   83GLOH   H01 9342   4.094   9.096   1.347 -1.3000 -1.5565 -1.3014
   84GLOH   H03 9343   2.743   4.832   1.330  0.6560  1.4944 -0.2145
   84GLOH    O1 9344   2.818   4.804   1.273  0.0541  0.0570 -0.3203
   84GLOH    C1 9345   2.793   4.659   1.248 -0.3882  0.5041 -0.2814
   84GLOH   H02 9346   2.726   4.630   1.328  0.7031 -2.8101 -0.4991
   84GLOH   H08 9347   2.881   4.603   1.280 -0.2903  1.0796  0.4736
   84GLOH    C2 9348   2.739   4.610   1.117 -0.3632  0.6014  0.6814
   84GLOH   H04 9349   2.801   4.640   1.031 -0.4077 -0.7079  0.1785
   84GLOH    O2 9350   2.722   4.468   1.124  0.1924 -0.2035  0.2593
   84GLOH   H05 9351   2.793   4.423   1.076  1.6599  0.5779  1.6279
   84GLOH    C3 9352   2.600   4.667   1.103  0.3046  0.4604  0.4579
   84GLOH   H06 9353   2.560   4.659   1.205 -0.8460 -0.4604 -0.0569
   84GLOH   H07 9354   2.543   4.606   1.033  2.1245 -0.6754 -0.0607
   84GLOH    O3 9355   2.595   4.808   1.061  0.1650 -0.1353 -0.2718
   84GLOH   H01 9356   2.580   4.864   1.139 -0.2453 -1.5324  0.6851
   85GLOH   H03 9357   3.510   1.926   0.876 -0.5525  0.3685  0.5817
   85GLOH    O1 9358   3.562   1.981   0.937  0.4181  0.2344 -0.1266
   85GLOH    C1 9359   3.550   2.122   0.902 -0.6423  0.2760  0.0725
   85GLOH   H02 9360   3.609   2.177   0.976 -1.4682 -0.3124  1.1989
   85GLOH   H08 9361   3.450   2.163   0.914 -0.7896  0.2839 -1.2154
   85GLOH    C2 9362   3.601   2.153   0.768 -0.1317  0.1811 -0.8160
   85GLOH   H04 9363   3.694   2.095   0.754  0.3634  0.5342  0.9210
   85GLOH    O2 9364   3.512   2.119   0.659 -0.2305  0.4335  0.2238
   85GLOH   H05 9365   3.461   2.039   0.681 -1.4978  0.7195 -1.5549
   85GLOH    C3 9366   3.643   2.305   0.754  0.2356  0.2655  0.1417
   85GLOH   H06 9367   3.679   2.331   0.654 -1.7279 -0.4073 -0.7572
   85GLOH   H07 9368   3.729   2.325   0.818  1.9884 -0.7252 -1.8262
   85GLOH    O3 9369   3.533   2.395   0.784 -0.2452 -0.0686  0.4343
   85GLOH   H01 9370   3.565   2.481   0.818 -0.6505 -0.3842  1.6317
   86GLOH   H03 9371   2.679   7.404   2.241  0.3903  1.8868 -0.5528
   86GLOH    O1 9372   2.645   7.368   2.157  0.4360  0.0101  0.2230
   86GLOH    C1 9373   2.586   7.236   2.184 -0.6088  0.0582  0.1873
   86GLOH   H02 9374   2.663   7.173   2.228 -0.8080  0.5971  1.3139
   86GLOH   H08 9375   2.560   7.188   2.089  1.1576 -1.3920  0.3929
   86GLOH    C2 9376   2.463   7.240   2.274  0.2013  0.7230 -0.8396
   86GLOH   H04 9377   2.492   7.287   2.369 -1.9082  0.4910 -0.0528
   86GLOH    O2 9378   2.364   7.331   2.219 -0.0415  0.0093  0.0336
   86GLOH   H05 9379   2.290   7.337   2.282  0.0285 -1.1709  0.2420
   86GLOH    C3 9380   2.407   7.096   2.294  0.4362  0.1876 -0.7961
   86GLOH   H06 9381   2.417   7.046   2.197  0.9639 -1.3166  0.0197
   86GLOH   H07 9382   2.301   7.098   2.319  0.6038 -2.9821  0.3339
   86GLOH    O3 9383   2.494   7.031   2.391  0.2886  0.1863  0.0247
   86GLOH   H01 9384   2.436   6.991   2.457  1.2406 -0.1730  0.6591
   87GLOH   H03 9385   4.891   4.858   0.152  1.3971 -0.3529  0.0075
   87GLOH    O1 9386   4.887   4.800   0.230 -0.2844 -0.4928 -0.1611
   87GLOH    C1 9387   4.769   4.824   0.312  0.0922  0.2719  0.1883
   87GLOH   H02 9388   4.790   4.820   0.419  0.2845 -0.1286  0.1383
   87GLOH   H08 9389   4.697   4.747   0.285  0.6054  0.0491 -0.5655
   87GLOH    C2 9390   4.698   4.962   0.298 -0.3926 -0.1141 -0.1334
   87GLOH   H04 9391   4.658   4.963   0.196  0.8303  2.3536 -0.6218
   87GLOH    O2 9392   4.590   4.970   0.392 -0.3408 -0.1678  0.3524
   87GLOH   H05 9393   4.521   5.021   0.348 -1.4991 -0.4586  1.7956
   87GLOH    C3 9394   4.794   5.078   0.317  0.1889 -0.0634 -0.2077
   87GLOH   H06 9395   4.883   5.058   0.258  0.1457  0.4817 -0.4586
   87GLOH   H07 9396   4.825   5.071   0.422 -1.0003 -1.0468  0.0873
   87GLOH    O3 9397   4.744   5.208   0.285  0.1904  0.3704  0.0334
   87GLOH   H01 9398   4.803   5.280   0.313  0.5839 -0.4183  1.3041
   88GLOH   H03 9399   4.748   1.443   1.446 -0.1712  3.7038 -1.4243
   88GLOH    O1 9400   4.842   1.459   1.467  0.1997 -0.1573  0.3870
   88GLOH    C1 9401   4.875   1.595   1.498  0.6369 -0.0621  0.5556
   88GLOH   H02 9402   4.971   1.625   1.456  0.5214 -0.0335  0.3081
   88GLOH   H08 9403   4.891   1.609   1.605  0.8627  2.7375  0.1934
   88GLOH    C2 9404   4.782   1.709   1.450  0.5591 -0.0875  0.0441
   88GLOH   H04 9405   4.771   1.704   1.340  0.5814  1.1107 -0.0198
   88GLOH    O2 9406   4.653   1.694   1.518  0.3896 -0.6295  0.2122
   88GLOH   H05 9407   4.605   1.778   1.505  0.0898 -1.1356 -2.3010
   88GLOH    C3 9408   4.841   1.848   1.475  1.1005 -0.0154 -0.2425
   88GLOH   H06 9409   4.856   1.866   1.581  0.0289 -0.2335 -0.0477
   88GLOH   H07 9410   4.771   1.928   1.453  0.9716 -0.1600 -0.3632
   88GLOH    O3 9411   4.963   1.865   1.405  0.2838  0.0042  0.0182
   88GLOH   H01 9412   4.961   1.819   1.319 -1.6318 -1.9831  1.0752
   89GLOH   H03 9413   2.880   6.379   0.647  2.4655  3.7052 -1.5618
   89GLOH    O1 9414   2.796   6.411   0.610 -0.2267 -0.3076  0.6751
   89GLOH    C1 9415   2.692   6.377   0.708  0.4144 -0.3203 -0.7321
   89GLOH   H02 9416   2.628   6.460   0.738  0.8856 -0.3606  0.4327
   89GLOH   H08 9417   2.746   6.349   0.798 -0.0585  1.4767  0.1217
   89GLOH    C2 9418   2.604   6.260   0.655  0.1960  0.3339  0.8330
   89GLOH   H04 9419   2.663   6.170   0.635  0.6094  0.7174  0.3314
   89GLOH    O2 9420   2.509   6.216   0.748  0.0415  0.1828  0.0636
   89GLOH   H05 9421   2.446   6.290   0.753  0.8963  0.8375  1.0387
   89GLOH    C3 9422   2.535   6.310   0.520 -0.8210 -0.0119 -0.0183
   89GLOH   H06 9423   2.475   6.397   0.546 -0.4042  0.4622 -0.6536
   89GLOH   H07 9424   2.470   6.230   0.485 -0.3462 -1.2225  1.7483
   89GLOH    O3 9425   2.619   6.341   0.408  0.1200 -0.0856 -0.2916
   89GLOH   H01 9426   2.684   6.398   0.453 -1.3569  2.5865 -1.4293
   90GLOH   H03 9427   3.372   5.804   1.740 -1.0910 -0.0746 -0.2586
   90GLOH    O1 9428   3.427   5.865   1.792 -0.8416 -0.2406 -0.3227
   90GLOH    C1 9429   3.544   5.791   1.828  0.0507  0.2677 -0.6217
   90GLOH   H02 9430   3.629   5.805   1.761  1.9870 -2.2458  1.2107
   90GLOH   H08 9431   3.511   5.687   1.832 -0.1241  0.3587  0.4550
   90GLOH    C2 9432   3.585   5.835   1.966 -0.7940 -0.4390  0.0249
   90GLOH   H04 9433   3.496   5.829   2.032  0.8708  2.1872  2.6194
   90GLOH    O2 9434   3.684   5.749   2.021  0.6804 -0.2073 -0.1783
   90GLOH   H05 9435   3.675   5.747   2.117 -0.6696 -1.2848 -0.3040
   90GLOH    C3 9436   3.623   5.987   1.966 -0.2608 -0.1075 -0.2860
   90GLOH   H06 9437   3.694   6.001   1.885 -0.7538 -2.0964 -1.1057
   90GLOH   H07 9438   3.682   6.012   2.054 -0.1162  0.4194 -0.5313
   90GLOH    O3 9439   3.507   6.058   1.950 -0.4406  0.3707 -0.3555
   90GLOH   H01 9440   3.463   6.012   1.876  1.6811  0.4274 -1.6739
   91GLOH   H03 9441   4.298   8.929   0.682  1.9296  2.1075 -2.7349
   91GLOH    O1 9442   4.297   8.999   0.749  0.3494 -0.0312 -0.4583
   91GLOH    C1 9443   4.335   9.126   0.695  0.4448 -0.2158  0.5580
   91GLOH   H02 9444   4.293   9.134   0.594  0.2735 -1.8375  0.5013
   91GLOH   H08 9445   4.441   9.115   0.672  0.0767 -1.7339 -0.4875
   91GLOH    C2 9446   4.298   9.245   0.787  0.5736  0.3918  0.4679
   91GLOH   H04 9447   4.353   9.332   0.750 -0.5985  0.3887 -1.3265
   91GLOH    O2 9448   4.156   9.278   0.784 -0.4108  0.7540 -0.2112
   91GLOH   H05 9449   4.119   9.298   0.697  0.8229 -0.3130 -1.0023
   91GLOH    C3 9450   4.342   9.231   0.932 -0.4414 -0.3343 -0.5534
   91GLOH   H06 9451   4.270   9.175   0.992  2.0712 -1.0508  1.8906
   91GLOH   H07 9452   4.345   9.331   0.976  0.1565 -0.5067 -0.2013
   91GLOH    O3 9453   4.468   9.169   0.953 -0.6762 -0.5916  0.4887
   91GLOH   H01 9454   4.467   9.138   1.046  0.8392  3.3084  1.8871
   92GLOH   H03 9455   3.057   8.903   2.066  0.2441 -1.9792 -0.7422
   92GLOH    O1 9456   2.963   8.902   2.042  0.1150 -0.6737 -0.3347
   92GLOH    C1 9457   2.933   8.840   1.915  0.7374 -0.0138 -0.8350
   92GLOH   H02 9458   3.012   8.774   1.879 -2.5952 -2.4975 -3.9382
   92GLOH   H08 9459   2.927   8.926   1.849 -1.4519  0.9160  0.5545
   92GLOH    C2 9460   2.797   8.775   1.909  0.3339  0.2585  0.4134
   92GLOH   H04 9461   2.716   8.850   1.907 -0.7978 -0.9595 -0.2437
   92GLOH    O2 9462   2.783   8.697   1.788  0.3398  0.2318  0.6179
   92GLOH   H05 9463   2.707   8.638   1.804  0.4647 -0.0895  0.0446
   92GLOH    C3 9464   2.765   8.689   2.032  0.7055 -0.5295 -0.4449
   92GLOH   H06 9465   2.737   8.751   2.116 -2.6127 -1.5032 -0.7749
   92GLOH   H07 9466   2.855   8.631   2.056  0.3599 -1.2722 -0.9128
   92GLOH    O3 9467   2.655   8.596   2.003 -0.5523 -0.2535  0.0721
   92GLOH   H01 9468   2.692   8.506   1.998  1.0053  0.2855  1.2891
   93GLOH   H03 9469   2.993   5.799   0.070  0.8321  1.4012 -0.2427
   93GLOH    O1 9470   3.043   5.716   0.071  0.1210  0.9776  0.2038
   93GLOH    C1 9471   3.104   5.678   0.193 -0.4250  0.0100 -0.3416
   93GLOH   H02 9472   3.206   5.716   0.199  0.1208 -1.4233 -0.3960
   93GLOH   H08 9473   3.111   5.570   0.203  0.5621  0.1258  0.2802
   93GLOH    C2 9474   3.008   5.749   0.303  0.0375 -0.2267  0.5877
   93GLOH   H04 9475   3.032   5.856   0.307 -0.3622 -0.0195 -1.7008
   93GLOH    O2 9476   2.870   5.714   0.280 -0.1292 -0.1444  0.1224
   93GLOH   H05 9477   2.814   5.736   0.356 -0.8196 -0.5714 -0.2602
   93GLOH    C3 9478   3.051   5.679   0.435  0.8236 -0.0094  0.2891
   93GLOH   H06 9479   3.017   5.576   0.435 -1.2706  0.6616  1.2752
   93GLOH   H07 9480   3.001   5.723   0.521  1.1827 -1.1163  1.0780
   93GLOH    O3 9481   3.188   5.663   0.469  0.8792 -0.1553  0.1619
   93GLOH   H01 9482   3.219   5.574   0.444  0.0856 -0.2382 -0.5539
   94GLOH   H03 9483   2.304   5.552   0.697  0.8029 -0.4071 -1.3613
   94GLOH    O1 9484   2.301   5.456   0.679  0.0522 -0.5621 -0.4050
   94GLOH    C1 9485   2.400   5.441   0.581 -0.3066  0.4826  0.2314
   94GLOH   H02 9486   2.371   5.507   0.499 -1.0504 -1.0307 -0.7534
   94GLOH   H08 9487   2.390   5.342   0.537 -1.0150  0.5218  0.2942
   94GLOH    C2 9488   2.546   5.465   0.618  0.2024 -0.2348 -0.3729
   94GLOH   H04 9489   2.606   5.439   0.530  0.0068 -1.6904 -0.0892
   94GLOH    O2 9490   2.582   5.597   0.662  0.6847  0.1692  0.3196
   94GLOH   H05 9491   2.506   5.645   0.698  0.2683  0.4457 -0.9094
   94GLOH    C3 9492   2.587   5.359   0.724  0.5168  0.2693  0.4334
   94GLOH   H06 9493   2.536   5.377   0.818  3.5543 -0.1768  2.2165
   94GLOH   H07 9494   2.691   5.382   0.749  0.3602 -2.4015  3.8419
   94GLOH    O3 9495   2.564   5.221   0.693 -0.0413 -0.4424 -0.3350
   94GLOH   H01 9496   2.541   5.175   0.776  0.7605  0.0127  0.1451
   95GLOH   H03 9497   2.795   9.089  -0.072  0.4604 -1.3869 -0.3270
   95GLOH    O1 9498   2.717   9.047  -0.030 -0.0128  0.1438  0.3544
   95GLOH    C1 9499   2.683   8.926  -0.106  0.2605  0.1768 -0.1828
   95GLOH   H02 9500   2.629   8.852  -0.048  0.0624 -0.8178 -1.6069
   95GLOH   H08 9501   2.770   8.865  -0.130  0.6756  0.4864  0.5233
   95GLOH    C2 9502   2.601   8.941  -0.236 -0.2742 -0.3381 -0.8473
   95GLOH   H04 9503   2.667   8.995  -0.306  1.0147  1.4191  1.6675
   95GLOH    O2 9504   2.559   8.811  -0.272 -0.3864 -0.4189  0.1088
   95GLOH   H05 9505   2.628   8.747  -0.249  2.1937  2.3055  0.2545
   95GLOH    C3 9506   2.478   9.028  -0.210 -0.5809  0.2771 -0.2195
   95GLOH   H06 9507   2.430   9.041  -0.306 -0.9246 -0.7913 -0.1985
   95GLOH   H07 9508   2.507   9.132  -0.196  2.0025 -0.3055 -0.9970
   95GLOH    O3 9509   2.392   8.983  -0.107  0.0456  0.0871  0.0540
   95GLOH   H01 9510   2.314   8.940  -0.146 -1.8410  1.7115  1.9651
   96GLOH   H03 9511   4.112   8.588   2.299 -1.2362 -0.9152 -0.6609
   96GLOH    O1 9512   4.120   8.519   2.368  0.0725  0.2937  0.4253
   96GLOH    C1 9513   4.210   8.542   2.477  0.1463  0.3563 -0.3564
   96GLOH   H02 9514   4.264   8.449   2.498 -0.6323 -0.0598 -0.1988
   96GLOH   H08 9515   4.154   8.564   2.567  1.7325  0.3807  0.6432
   96GLOH    C2 9516   4.315   8.648   2.447 -0.1174  1.1225 -0.3017
   96GLOH   H04 9517   4.373   8.618   2.359 -1.5387 -1.6352 -0.3783
   96GLOH    O2 9518   4.257   8.776   2.432 -0.3616  0.0944 -0.3058
   96GLOH   H05 9519   4.171   8.763   2.389  0.2171 -0.6697 -1.2405
   96GLOH    C3 9520   4.410   8.663   2.571 -0.5484 -0.2635 -0.0585
   96GLOH   H06 9521   4.496   8.729   2.557  0.8320 -2.1232 -0.6747
   96GLOH   H07 9522   4.453   8.563   2.584 -0.1527 -0.2052 -0.8544
   96GLOH    O3 9523   4.331   8.686   2.689 -0.1681 -0.3558  0.1453
   96GLOH   H01 9524   4.298   8.778   2.684  3.0669  0.8399 -1.0849
   97GLOH   H03 9525   4.094   1.769   0.553  0.7221 -0.9437  2.9910
   97GLOH    O1 9526   4.144   1.694   0.516  0.3210  0.3219 -0.3623
   97GLOH    C1 9527   4.211   1.631   0.623 -0.0795  0.7474 -0.2701
   97GLOH   H02 9528   4.156   1.550   0.669  2.0466  0.9640  2.7833
   97GLOH   H08 9529   4.237   1.703   0.701  1.0944  0.5884 -0.5136
   97GLOH    C2 9530   4.336   1.559   0.569  0.7042  0.1876  0.1078
   97GLOH   H04 9531   4.411   1.634   0.541 -0.4485  0.9535 -0.9321
   97GLOH    O2 9532   4.390   1.483   0.683 -0.0513 -0.5207 -0.4260
   97GLOH   H05 9533   4.472   1.530   0.704  0.4087 -1.7732  0.6494
   97GLOH    C3 9534   4.302   1.462   0.452 -0.3446  0.0386 -0.3101
   97GLOH   H06 9535   4.255   1.509   0.365 -4.0942 -0.3171  1.4234
   97GLOH   H07 9536   4.217   1.400   0.482 -1.4920  2.5548  1.8123
   97GLOH    O3 9537   4.416   1.389   0.420  0.0539 -0.1065  0.5446
   97GLOH   H01 9538   4.448   1.336   0.495 -1.8371 -0.2738  1.2623
   98GLOH   H03 9539   2.382   3.998   1.986  1.1572  1.8251  3.8574
   98GLOH    O1 9540   2.474   4.013   1.958  0.4503  0.1744  0.2930
   98GLOH    C1 9541   2.497   3.985   1.814  0.0783 -0.1278 -0.5190
   98GLOH   H02 9542   2.470   3.881   1.796  0.2932  0.0947 -2.1494
   98GLOH   H08 9543   2.603   4.006   1.802  0.5710 -0.5242  2.5734
   98GLOH    C2 9544   2.415   4.067   1.717 -0.6660 -0.2203 -0.0483
   98GLOH   H04 9545   2.464   4.064   1.619 -0.4838 -1.4318  0.0699
   98GLOH    O2 9546   2.273   4.021   1.710  0.2449  0.8803  0.2767
   98GLOH   H05 9547   2.235   4.004   1.798  1.4571  0.8054  0.7978
   98GLOH    C3 9548   2.430   4.217   1.756 -0.0048  0.2369 -0.0552
   98GLOH   H06 9549   2.384   4.230   1.854  0.3173  0.4472  0.0693
   98GLOH   H07 9550   2.366   4.274   1.688 -0.2571  1.7847  1.4284
   98GLOH    O3 9551   2.569   4.248   1.743  0.0297  0.2962  0.0482
   98GLOH   H01 9552   2.579   4.333   1.791  1.2507  0.2099 -0.0181
   99GLOH   H03 9553   2.818   1.288   2.348 -0.5346  0.6825  0.0106
   99GLOH    O1 9554   2.881   1.350   2.390 -0.4492  0.5310  0.1069
   99GLOH    C1 9555   2.878   1.484   2.342  0.2937  0.3944 -0.1042
   99GLOH   H02 9556   2.858   1.556   2.421 -1.8586 -0.1564 -0.1285
   99GLOH   H08 9557   2.797   1.491   2.269 -0.9162  2.3966  1.3714
   99GLOH    C2 9558   3.013   1.515   2.271 -0.5939 -0.7220  0.1724
   99GLOH   H04 9559   3.022   1.439   2.192  0.0506 -0.2163 -0.2384
   99GLOH    O2 9560   3.021   1.648   2.210  0.4738  0.1852 -0.0027
   99GLOH   H05 9561   3.100   1.646   2.154  0.6058 -1.3089  0.2267
   99GLOH    C3 9562   3.133   1.503   2.368  0.4532 -0.0087  0.6141
   99GLOH   H06 9563   3.134   1.411   2.426  1.0631  1.0684  2.3609
   99GLOH   H07 9564   3.128   1.585   2.439  1.0872 -0.5009  1.2277
   99GLOH    O3 9565   3.258   1.506   2.294  0.0383 -0.6741  0.2335
   99GLOH   H01 9566   3.277   1.602   2.302  0.4096 -0.7658  0.4673
  100GLOH   H03 9567   4.059   2.733   1.056 -0.9247 -0.3508  1.0988
  100GLOH    O1 9568   4.134   2.756   1.114  0.2926  0.2171 -0.6475
  100GLOH    C1 9569   4.107   2.731   1.253  0.2243 -0.0794 -0.3362
  100GLOH   H02 9570   4.039   2.648   1.267  0.4052  0.0305  1.2550
  100GLOH   H08 9571   4.057   2.812   1.306 -1.4735 -1.4011  0.1101
  100GLOH    C2 9572   4.235   2.689   1.335  0.2711 -0.1516 -0.5029
  100GLOH   H04 9573   4.287   2.786   1.342  1.7628 -1.0209  0.9315
  100GLOH    O2 9574   4.197   2.636   1.466 -0.0447 -0.5651 -0.2287
  100GLOH   H05 9575   4.203   2.711   1.528 -1.1529 -1.5770  1.1275
  100GLOH    C3 9576   4.328   2.595   1.256 -0.1972 -0.1105 -0.0794
  100GLOH   H06 9577   4.343   2.631   1.155  1.5290 -0.7531 -0.0724
  100GLOH   H07 9578   4.284   2.497   1.241  1.3654 -0.9067  0.3922
  100GLOH    O3 9579   4.448   2.575   1.323 -0.0755  0.4424  0.5954
  100GLOH   H01 9580   4.496   2.497   1.289  0.9951  0.7351  1.3907
  101GLOH   H03 9581   4.995   4.756   2.462 -1.0247 -0.6193  1.0524
  101GLOH    O1 9582   4.981   4.841   2.508  0.2756  0.1175  0.1220
  101GLOH    C1 9583   4.850   4.891   2.462  0.0757  0.6049  0.4362
  101GLOH   H02 9584   4.773   4.821   2.494  0.4781 -0.5067 -0.9641
  101GLOH   H08 9585   4.843   4.884   2.354  2.7522 -1.0355  0.3190
  101GLOH    C2 9586   4.805   5.027   2.510 -0.6022 -0.0277 -0.0192
  101GLOH   H04 9587   4.898   5.082   2.491  0.5252 -1.9744 -0.2883
  101GLOH    O2 9588   4.697   5.065   2.420  0.4405  0.0979 -0.9752
  101GLOH   H05 9589   4.653   5.136   2.470  0.2603 -0.8030  0.1869
  101GLOH    C3 9590   4.771   5.013   2.660 -0.1865 -0.2932  0.0056
  101GLOH   H06 9591   4.682   4.950   2.668 -0.9999  0.7280 -0.8821
  101GLOH   H07 9592   4.735   5.110   2.694  0.2266  0.1171 -0.7070
  101GLOH    O3 9593   4.888   4.958   2.724  0.2000 -0.3118 -0.2942
  101GLOH   H01 9594   4.943   4.922   2.652 -1.4278 -0.3495 -1.5544
  102GLOH   H03 9595   4.124   3.062   0.445 -1.0029 -2.1272  0.6353
  102GLOH    O1 9596   4.083   3.126   0.506  0.2156 -0.5915 -0.1083
  102GLOH    C1 9597   4.052   3.050   0.624 -0.2685 -0.0322 -0.6670
  102GLOH   H02 9598   4.084   3.106   0.712 -3.5514  0.8510  0.0511
  102GLOH   H08 9599   4.106   2.956   0.625 -0.4073 -0.1124 -0.7432
  102GLOH    C2 9600   3.907   3.029   0.656  0.0609  0.8971 -0.0363
  102GLOH   H04 9601   3.900   2.951   0.733  1.0858 -0.0126 -0.8429
  102GLOH    O2 9602   3.847   3.155   0.691 -0.0153 -0.5160  0.0363
  102GLOH   H05 9603   3.914   3.223   0.710  2.1322 -2.2997 -0.9511
  102GLOH    C3 9604   3.843   2.973   0.531 -0.6781  0.3298 -0.0074
  102GLOH   H06 9605   3.827   3.054   0.459  3.0849  0.6635 -0.5698
  102GLOH   H07 9606   3.747   2.935   0.566  0.4535 -1.5728  1.0498
  102GLOH    O3 9607   3.916   2.865   0.475 -0.6977 -0.3802  0.6592
  102GLOH   H01 9608   4.006   2.888   0.446 -1.0579  0.1065 -0.0799
  103GLOH   H03 9609   4.008  10.141   1.542  0.4042 -1.8176  0.0486
  103GLOH    O1 9610   4.102  10.168   1.537 -0.2135  0.1968 -1.0903
  103GLOH    C1 9611   4.119  10.301   1.482  0.3614  0.1874 -0.1674
  103GLOH   H02 9612   4.035  10.368   1.502 -0.9711 -1.5915  0.3564
  103GLOH   H08 9613   4.128  10.287   1.374 -1.7311  0.5635 -0.4196
  103GLOH    C2 9614   4.248  10.375   1.514  0.3702  0.6200  0.4348
  103GLOH   H04 9615   4.333  10.323   1.466 -1.6239 -1.3941 -1.0007
  103GLOH    O2 9616   4.237  10.509   1.457 -0.3004  0.2636  0.6199
  103GLOH   H05 9617   4.218  10.497   1.362  2.4239  2.0275 -0.2204
  103GLOH    C3 9618   4.275  10.369   1.668  0.3197 -0.1428  0.7037
  103GLOH   H06 9619   4.186  10.410   1.717 -1.7523 -0.4887 -2.5991
  103GLOH   H07 9620   4.355  10.443   1.674  0.1807 -0.1430  2.9061
  103GLOH    O3 9621   4.306  10.229   1.703  0.1533 -0.4648 -0.4972
  103GLOH   H01 9622   4.250  10.180   1.640 -1.2083  0.9066 -0.3774
  104GLOH   H03 9623   4.437   2.358   0.290  3.6955  2.5099 -4.5488
  104GLOH    O1 9624   4.511   2.346   0.353  0.1880 -0.5135 -0.7240
  104GLOH    C1 9625   4.464   2.375   0.487  0.4732  0.2822  0.1082
  104GLOH   H02 9626   4.362   2.340   0.497  0.4840 -0.1012 -1.0404
  104GLOH   H08 9627   4.451   2.481   0.508  0.1678  0.6553 -1.8813
  104GLOH    C2 9628   4.547   2.304   0.599 -0.3034  0.6019 -0.0336
  104GLOH   H04 9629   4.654   2.308   0.572 -0.3987  0.6786 -0.3924
  104GLOH    O2 9630   4.516   2.353   0.729  0.4772 -0.0872 -0.5317
  104GLOH   H05 9631   4.517   2.450   0.729 -1.6423 -0.0154  0.3079
  104GLOH    C3 9632   4.520   2.156   0.601 -0.2805  0.2446  0.2601
  104GLOH   H06 9633   4.412   2.143   0.588 -0.2486  0.4207 -0.1866
  104GLOH   H07 9634   4.558   2.106   0.690  0.6746 -2.2588 -1.5132
  104GLOH    O3 9635   4.583   2.100   0.488 -0.6313  0.3248  0.5652
  104GLOH   H01 9636   4.528   2.135   0.415  0.0319  0.5836  0.1879
  105GLOH   H03 9637   3.270   3.908   0.332 -0.7030  0.1209 -0.0580
  105GLOH    O1 9638   3.269   3.823   0.285 -0.2759 -0.2472  0.5906
  105GLOH    C1 9639   3.391   3.818   0.203  0.7130  0.6363  0.2936
  105GLOH   H02 9640   3.367   3.892   0.126 -1.1457 -1.7821 -1.5340
  105GLOH   H08 9641   3.401   3.716   0.166 -1.7057 -0.1057  1.5618
  105GLOH    C2 9642   3.520   3.847   0.277 -0.1226  0.2213 -0.1814
  105GLOH   H04 9643   3.541   3.765   0.347  2.8784 -0.5093 -1.8600
  105GLOH    O2 9644   3.632   3.845   0.189  0.5159 -0.2487 -0.4898
  105GLOH   H05 9645   3.644   3.751   0.167 -2.0510 -0.6393 -0.3248
  105GLOH    C3 9646   3.514   3.989   0.337  0.4850 -0.5535  0.4959
  105GLOH   H06 9647   3.510   4.062   0.256  2.1589  0.7439  1.5416
  105GLOH   H07 9648   3.609   4.005   0.389  0.4578  1.2503  0.0397
  105GLOH    O3 9649   3.407   4.018   0.430  1.0598  0.5175 -0.3050
  105GLOH   H01 9650   3.426   3.968   0.512  0.4023 -0.6250 -0.8451
  106GLOH   H03 9651   3.951  10.003   2.457 -0.3606 -0.6837  0.2022
  106GLOH    O1 9652   3.860   9.976   2.433 -0.4854 -0.0061 -0.0992
  106GLOH    C1 9653   3.785  10.067   2.359  0.6960  0.4502 -0.1724
  106GLOH   H02 9654   3.701  10.014   2.314  1.1961  0.6773 -1.3974
  106GLOH   H08 9655   3.844  10.108   2.277 -1.3912  1.2514 -1.3302
  106GLOH    C2 9656   3.725  10.178   2.449  0.0966  0.6863 -0.0717
  106GLOH   H04 9657   3.814  10.221   2.496  0.8529  0.5907 -1.4107
  106GLOH    O2 9658   3.653  10.283   2.377 -0.4257 -0.3367  0.0682
  106GLOH   H05 9659   3.650  10.363   2.432 -0.5530 -1.2050  1.3602
  106GLOH    C3 9660   3.636  10.132   2.569 -0.5685  0.6317  0.7652
  106GLOH   H06 9661   3.607  10.219   2.628 -1.7064 -0.7368  2.2719
  106GLOH   H07 9662   3.693  10.074   2.642  1.4559  0.4075 -0.9568
  106GLOH    O3 9663   3.515  10.069   2.527  0.2969  0.0745 -0.0638
  106GLOH   H01 9664   3.536   9.977   2.502  0.7732  0.2664 -0.3774
  107GLOH   H03 9665   5.008   2.152   0.078  0.2820 -1.3458  2.3571
  107GLOH    O1 9666   5.038   2.070   0.035  0.3856 -0.2040  0.1616
  107GLOH    C1 9667   5.124   2.010   0.134 -0.0731  0.3010  0.0719
  107GLOH   H02 9668   5.070   1.999   0.228  0.1784  0.2708  0.2129
  107GLOH   H08 9669   5.203   2.083   0.151 -0.5040  1.3556 -2.3310
  107GLOH    C2 9670   5.190   1.875   0.094  1.2487  0.1049 -0.3112
  107GLOH   H04 9671   5.249   1.876   0.001  0.4615 -2.9587 -0.9141
  107GLOH    O2 9672   5.276   1.828   0.197  0.2897  0.4764  0.3288
  107GLOH   H05 9673   5.286   1.732   0.186  0.8087  0.4094  1.2810
  107GLOH    C3 9674   5.086   1.779   0.047 -0.4442  0.0834  0.3659
  107GLOH   H06 9675   5.129   1.690   0.001 -0.4001 -0.4947  1.4963
  107GLOH   H07 9676   5.029   1.827  -0.032 -0.7790 -1.2424 -0.2069
  107GLOH    O3 9677   4.995   1.744   0.154 -0.3752  0.3170 -0.3199
  107GLOH   H01 9678   4.922   1.687   0.125  0.3948 -0.1637 -1.3191
  108GLOH   H03 9679   4.030   0.569   2.289 -1.2346 -1.4296 -0.0669
  108GLOH    O1 9680   3.961   0.628   2.253  0.2119  0.3735  0.0311
  108GLOH    C1 9681   3.840   0.559   2.267  0.3157  0.1627  0.3877
  108GLOH   H02 9682   3.827   0.511   2.363 -0.0672  1.8982  1.2213
  108GLOH   H08 9683   3.841   0.485   2.187  0.2713 -0.1893  0.7111
  108GLOH    C2 9684   3.712   0.653   2.249 -0.3863 -0.2737  0.0925
  108GLOH   H04 9685   3.715   0.701   2.151  0.0432  1.5141  0.9621
  108GLOH    O2 9686   3.596   0.575   2.264  0.1652 -0.4297 -0.5499
  108GLOH   H05 9687   3.541   0.596   2.186 -0.0919 -0.8802 -0.4962
  108GLOH    C3 9688   3.728   0.758   2.362 -0.3661 -0.8080  0.0507
  108GLOH   H06 9689   3.823   0.811   2.364 -1.6099  1.4768  0.7038
  108GLOH   H07 9690   3.718   0.696   2.451  1.8784 -1.2594  0.0322
  108GLOH    O3 9691   3.627   0.860   2.365 -0.6405 -0.1402 -0.7187
  108GLOH   H01 9692   3.544   0.810   2.363 -0.3658 -0.6454  0.2139
  109GLOH   H03 9693   5.177   2.867   1.986 -0.5936  1.2865  1.0172
  109GLOH    O1 9694   5.138   2.802   2.048  0.3133 -0.3971 -0.1420
  109GLOH    C1 9695   5.130   2.874   2.168  0.7428  0.3950  0.5604
  109GLOH   H02 9696   5.225   2.860   2.220  0.1942 -0.8673  1.2408
  109GLOH   H08 9697   5.059   2.829   2.237  0.7588 -1.3749 -0.5394
  109GLOH    C2 9698   5.107   3.026   2.151  0.8784  0.8881  0.2885
  109GLOH   H04 9699   5.013   3.028   2.094  0.5529 -3.1177  0.5393
  109GLOH    O2 9700   5.086   3.103   2.269 -1.0095 -0.4281  0.3819
  109GLOH   H05 9701   4.997   3.086   2.305 -1.1662  1.4600  0.9162
  109GLOH    C3 9702   5.206   3.080   2.054 -0.8381  0.1576 -0.3350
  109GLOH   H06 9703   5.304   3.063   2.099  0.0074  0.1524 -2.1069
  109GLOH   H07 9704   5.209   3.188   2.041 -0.2471 -0.0460 -2.0477
  109GLOH    O3 9705   5.212   3.014   1.929  0.0409  0.5051  0.7021
  109GLOH   H01 9706   5.303   3.019   1.896  0.5045  0.8283  1.9946
  110GLOH   H03 9707   2.546   1.136   1.557 -0.0468 -1.0492  0.6989
  110GLOH    O1 9708   2.483   1.104   1.490 -0.2169 -0.2859  0.4834
  110GLOH    C1 9709   2.421   1.217   1.417 -0.3106 -0.3920 -0.3249
  110GLOH   H02 9710   2.418   1.203   1.309  0.4065 -1.0163 -0.2658
  110GLOH   H08 9711   2.488   1.302   1.425 -0.5750 -0.1960 -0.1802
  110GLOH    C2 9712   2.285   1.259   1.477 -0.6805 -0.1734  0.4181
  110GLOH   H04 9713   2.224   1.171   1.504 -0.4502 -0.7413 -0.8800
  110GLOH    O2 9714   2.295   1.340   1.596  0.1451  0.0793 -0.1782
  110GLOH   H05 9715   2.205   1.365   1.624 -0.8408 -0.4443 -2.7723
  110GLOH    C3 9716   2.215   1.336   1.360  0.5712 -0.7359  0.0239
  110GLOH   H06 9717   2.114   1.357   1.395 -0.0299 -1.5623 -1.1853
  110GLOH   H07 9718   2.213   1.279   1.267  2.8452  0.5551 -0.8564
  110GLOH    O3 9719   2.274   1.465   1.321 -0.4481 -0.5237 -0.2714
  110GLOH   H01 9720   2.229   1.532   1.376  1.4164  0.6784 -0.1309
  111GLOH   H03 9721   2.842   6.049   0.560  1.2335  1.2040  0.7318
  111GLOH    O1 9722   2.857   5.969   0.614 -0.4687  0.2332 -0.1656
  111GLOH    C1 9723   2.869   6.015   0.746  0.3441 -0.3905  0.1925
  111GLOH   H02 9724   2.775   6.048   0.791  0.1520 -0.5764 -0.0704
  111GLOH   H08 9725   2.942   6.096   0.747  0.5892 -0.6171  2.6402
  111GLOH    C2 9726   2.919   5.909   0.844 -0.2560  0.1321 -0.0410
  111GLOH   H04 9727   3.006   5.859   0.800 -0.6122 -0.3289 -0.2288
  111GLOH    O2 9728   2.942   5.972   0.966 -0.6101  0.4461  0.2228
  111GLOH   H05 9729   2.993   5.911   1.022  0.2530 -1.1873 -2.2481
  111GLOH    C3 9730   2.811   5.796   0.849 -0.5317 -0.2012  0.8141
  111GLOH   H06 9731   2.792   5.759   0.748 -0.7583  4.0786 -0.7957
  111GLOH   H07 9732   2.723   5.852   0.881  0.1545  1.0532  0.5187
  111GLOH    O3 9733   2.839   5.688   0.944  0.8043 -0.4408 -0.3503
  111GLOH   H01 9734   2.916   5.637   0.913  0.6964 -0.9481  0.2072
  112GLOH   H03 9735   3.420   6.173   2.035  0.3941  2.2220 -1.6307
  112GLOH    O1 9736   3.340   6.226   2.050 -0.7862  0.1628 -0.4141
  112GLOH    C1 9737   3.374   6.363   2.068  0.5719 -0.4396 -0.7062
  112GLOH   H02 9738   3.483   6.369   2.058  0.6624 -1.9529 -0.8142
  112GLOH   H08 9739   3.345   6.403   2.165  1.2717  0.4018 -0.8355
  112GLOH    C2 9740   3.314   6.463   1.963  0.1602 -0.8403  0.5131
  112GLOH   H04 9741   3.206   6.445   1.962  0.4169 -2.8222 -3.1337
  112GLOH    O2 9742   3.358   6.601   1.999 -0.0833  0.4246  0.2527
  112GLOH   H05 9743   3.310   6.664   1.943 -1.4771 -1.1800 -0.4064
  112GLOH    C3 9744   3.362   6.433   1.818  0.4856 -0.2166 -0.3098
  112GLOH   H06 9745   3.371   6.324   1.810 -0.0563 -0.1836 -1.4749
  112GLOH   H07 9746   3.464   6.465   1.797  0.6378 -1.1478 -1.0618
  112GLOH    O3 9747   3.268   6.487   1.725 -0.4399  0.5149 -0.2203
  112GLOH   H01 9748   3.231   6.572   1.753 -2.0117 -0.2956  0.2204
  113GLOH   H03 9749   3.689   9.057   1.843 -0.3917 -0.9695 -0.2584
  113GLOH    O1 9750   3.627   9.124   1.811 -0.0232 -0.3012  0.4236
  113GLOH    C1 9751   3.555   9.189   1.920  0.6492 -0.2165 -0.5997
  113GLOH   H02 9752   3.494   9.114   1.971  1.1355 -0.3841 -0.2615
  113GLOH   H08 9753   3.492   9.264   1.873  0.3154 -1.7164 -2.6538
  113GLOH    C2 9754   3.653   9.254   2.021  0.1401 -0.2137 -0.1337
  113GLOH   H04 9755   3.724   9.310   1.957  2.2187 -0.8476  1.5367
  113GLOH    O2 9756   3.590   9.352   2.110 -0.4352  0.3043 -0.8702
  113GLOH   H05 9757   3.656   9.346   2.181 -0.3669 -0.9642 -1.0236
  113GLOH    C3 9758   3.734   9.145   2.090  0.0466  0.3775  0.1543
  113GLOH   H06 9759   3.801   9.192   2.162 -0.7070  1.7006  0.0182
  113GLOH   H07 9760   3.797   9.089   2.022 -0.2658  1.7852 -1.3148
  113GLOH    O3 9761   3.657   9.055   2.164  0.2198  0.2561 -0.2440
  113GLOH   H01 9762   3.624   9.085   2.251 -2.7214  0.3586 -1.3233
  114GLOH   H03 9763   2.885   3.978   2.333  0.4659 -0.8494  1.0140
  114GLOH    O1 9764   2.954   3.973   2.265 -0.4035 -0.1966  0.0651
  114GLOH    C1 9765   2.900   3.919   2.147  0.0635  0.5932 -0.6704
  114GLOH   H02 9766   2.804   3.878   2.179 -0.1523  1.9432  0.4875
  114GLOH   H08 9767   2.960   3.837   2.108  1.1938  0.0401  2.1001
  114GLOH    C2 9768   2.876   4.025   2.045  0.3708  0.2887  0.4671
  114GLOH   H04 9769   2.971   4.081   2.035 -0.7550  2.1275 -0.1800
  114GLOH    O2 9770   2.842   3.956   1.922  0.0514  0.4728  0.5701
  114GLOH   H05 9771   2.872   4.006   1.845 -3.7852  0.0792 -1.2854
  114GLOH    C3 9772   2.770   4.124   2.087  0.1422 -0.1081 -0.2233
  114GLOH   H06 9773   2.740   4.185   2.001 -0.0502 -0.4877 -0.4256
  114GLOH   H07 9774   2.825   4.184   2.160  0.0861  1.8197 -1.7308
  114GLOH    O3 9775   2.642   4.068   2.131  0.7649  0.3629 -0.0586
  114GLOH   H01 9776   2.590   4.047   2.052 -0.1903  2.9067 -0.1516
  115GLOH   H03 9777   2.597   9.989   1.792 -0.5014  0.1579  0.5324
  115GLOH    O1 9778   2.604   9.894   1.772  0.2522  0.3225 -0.0183
  115GLOH    C1 9779   2.564   9.825   1.892 -0.1547 -0.3023 -0.0440
  115GLOH   H02 9780   2.642   9.774   1.948 -0.1108  0.7779  0.8807
  115GLOH   H08 9781   2.487   9.750   1.878 -0.2974 -0.0732 -0.4811
  115GLOH    C2 9782   2.498   9.928   1.988  0.3269 -0.4400  0.7984
  115GLOH   H04 9783   2.403   9.950   1.936  1.5709 -0.3709 -1.4969
  115GLOH    O2 9784   2.460   9.876   2.120  0.3466  0.1397 -1.0255
  115GLOH   H05 9785   2.403   9.945   2.158 -0.6744  0.1600 -2.5344
  115GLOH    C3 9786   2.578  10.069   2.002 -0.1825  0.0110  0.3948
  115GLOH   H06 9787   2.659  10.040   2.069  0.6287 -0.4988 -0.7940
  115GLOH   H07 9788   2.519  10.139   2.061 -1.0734 -0.3323 -0.0817
  115GLOH    O3 9789   2.625  10.130   1.879  0.2918 -0.2720 -0.0541
  115GLOH   H01 9790   2.665  10.216   1.901  1.7626 -0.7989 -0.6345
  116GLOH   H03 9791   4.355   0.235   0.371  1.0014  0.7515 -2.7251
  116GLOH    O1 9792   4.382   0.317   0.416 -0.5746 -0.0819 -0.1145
  116GLOH    C1 9793   4.473   0.386   0.321  0.0144  0.2404  0.3050
  116GLOH   H02 9794   4.429   0.385   0.221 -0.6817  0.7024  0.6033
  116GLOH   H08 9795   4.571   0.339   0.320 -0.2113 -0.2343  0.5922
  116GLOH    C2 9796   4.505   0.534   0.349  0.2939 -0.5516 -0.6662
  116GLOH   H04 9797   4.574   0.576   0.274 -1.7624  2.4876 -0.9483
  116GLOH    O2 9798   4.388   0.612   0.351  0.1215 -0.2226  0.2613
  116GLOH   H05 9799   4.310   0.581   0.401  1.2884  1.1075  3.0026
  116GLOH    C3 9800   4.583   0.535   0.484 -0.3332  0.7538 -0.3393
  116GLOH   H06 9801   4.678   0.482   0.474 -0.8825 -0.3521  0.2125
  116GLOH   H07 9802   4.544   0.471   0.563  2.1406  0.6413  0.8498
  116GLOH    O3 9803   4.592   0.660   0.545 -0.1829  0.2817  0.0921
  116GLOH   H01 9804   4.591   0.656   0.643 -1.0419 -0.5190  0.0613
  117GLOH   H03 9805   3.539   8.541   2.596  2.6485 -0.1189  2.6852
  117GLOH    O1 9806   3.593   8.616   2.565  0.0864  0.8107  0.2731
  117GLOH    C1 9807   3.682   8.651   2.673  0.7342 -0.3369  0.1210
  117GLOH   H02 9808   3.738   8.739   2.642 -0.1508  0.5921  1.1583
  117GLOH   H08 9809   3.753   8.570   2.694  1.2519 -0.5375 -2.2281
  117GLOH    C2 9810   3.606   8.690   2.801 -0.5638  0.8839  0.0402
  117GLOH   H04 9811   3.562   8.593   2.828  0.6543  0.0119 -1.0271
  117GLOH    O2 9812   3.703   8.728   2.899  0.7532 -0.2925 -0.2703
  117GLOH   H05 9813   3.715   8.655   2.963 -1.3234  0.9565  1.6675
  117GLOH    C3 9814   3.501   8.800   2.779  0.6616 -0.2410 -0.2806
  117GLOH   H06 9815   3.454   8.831   2.873 -2.4497  2.4296 -2.6187
  117GLOH   H07 9816   3.427   8.756   2.713 -1.4684  0.2444  1.7288
  117GLOH    O3 9817   3.559   8.918   2.719 -0.1637 -0.1772  0.0490
  117GLOH   H01 9818   3.648   8.931   2.756 -0.2905  1.0107 -0.0478
  118GLOH   H03 9819   2.147   7.519   0.613 -1.0994 -0.7280 -0.2399
  118GLOH    O1 9820   2.119   7.600   0.659 -0.4273 -0.7010  0.1278
  118GLOH    C1 9821   2.075   7.695   0.557 -0.4779 -0.4536 -0.0387
  118GLOH   H02 9822   2.107   7.679   0.454  1.3295 -1.2031  0.6175
  118GLOH   H08 9823   2.123   7.792   0.570  0.1431 -0.9351  1.3042
  118GLOH    C2 9824   1.922   7.712   0.568  0.4661 -0.8891 -0.1684
  118GLOH   H04 9825   1.890   7.769   0.479  0.1968 -1.2562 -0.3102
  118GLOH    O2 9826   1.855   7.578   0.566 -0.1571 -0.5439 -0.0194
  118GLOH   H05 9827   1.900   7.527   0.635  0.2255 -0.8877 -0.5190
  118GLOH    C3 9828   1.865   7.779   0.694 -0.1045  0.2515  0.9150
  118GLOH   H06 9829   1.898   7.722   0.781  0.0734 -0.8406  0.1420
  118GLOH   H07 9830   1.757   7.768   0.689  0.0957 -1.1341 -0.7008
  118GLOH    O3 9831   1.896   7.920   0.701  0.0456 -0.1590 -0.0530
  118GLOH   H01 9832   1.882   7.944   0.794 -0.8171 -1.8436  0.2688
  119GLOH   H03 9833   3.454   2.961   0.169 -0.0613  0.0267  0.5326
  119GLOH    O1 9834   3.471   2.867   0.154 -0.0065  0.0729  0.2926
  119GLOH    C1 9835   3.612   2.844   0.171 -0.1607 -1.0143 -0.6817
  119GLOH   H02 9836   3.663   2.926   0.222  0.1938 -1.0548 -0.9702
  119GLOH   H08 9837   3.646   2.826   0.069  0.9740 -0.3843 -0.4170
  119GLOH    C2 9838   3.640   2.727   0.260 -0.3950  0.1030 -0.1365
  119GLOH   H04 9839   3.749   2.732   0.279 -0.1965 -0.5519 -1.0292
  119GLOH    O2 9840   3.574   2.743   0.389  0.7983  0.1343 -0.4556
  119GLOH   H05 9841   3.477   2.743   0.379  0.9651 -0.5546 -2.1546
  119GLOH    C3 9842   3.613   2.585   0.200  0.2110 -0.2863 -0.2382
  119GLOH   H06 9843   3.509   2.578   0.168 -0.4341 -0.8637  1.9675
  119GLOH   H07 9844   3.622   2.508   0.276  1.9755  0.8666  0.7539
  119GLOH    O3 9845   3.697   2.553   0.089  0.2695  0.4689 -0.1544
  119GLOH   H01 9846   3.686   2.457   0.075  0.9772 -0.1758  3.3848
  120GLOH   H03 9847   4.435   5.262   0.377 -1.5498  0.3472 -0.3403
  120GLOH    O1 9848   4.472   5.352   0.380 -0.1901 -0.2210  0.3390
  120GLOH    C1 9849   4.367   5.448   0.359 -0.1636  0.6018 -0.2124
  120GLOH   H02 9850   4.388   5.551   0.388  1.2371  1.2987 -3.4813
  120GLOH   H08 9851   4.281   5.421   0.421  0.2098  2.2393  1.0424
  120GLOH    C2 9852   4.316   5.436   0.213 -0.4674  0.6146 -0.3780
  120GLOH   H04 9853   4.285   5.330   0.209  0.7709  0.2449 -0.4782
  120GLOH    O2 9854   4.203   5.517   0.179  0.2358 -0.9580 -0.0786
  120GLOH   H05 9855   4.119   5.471   0.196  1.6425 -3.0276  1.6166
  120GLOH    C3 9856   4.435   5.455   0.119  0.0574  0.2114  0.0821
  120GLOH   H06 9857   4.482   5.551   0.141 -0.8333  0.3961  1.1886
  120GLOH   H07 9858   4.395   5.472   0.019 -0.5460  0.7262  0.4076
  120GLOH    O3 9859   4.528   5.344   0.114 -0.1350 -0.7898 -0.0146
  120GLOH   H01 9860   4.551   5.322   0.206 -1.9541  0.1774  0.7092
  121ACOH    H4 9861   3.690   7.743   0.700 -0.1881  1.1423 -1.3513
  121ACOH    O2 9862   3.740   7.692   0.635 -0.2034  0.0183 -0.4873
  121ACOH    C2 9863   3.773   7.776   0.540 -0.2068 -0.0875  0.4238
  121ACOH    O1 9864   3.738   7.889   0.521 -0.1157 -0.3587 -0.5472
  121ACOH    C1 9865   3.861   7.703   0.449 -0.2315 -0.5927 -0.6455
  121ACOH    H1 9866   3.859   7.745   0.349  2.0269 -1.9134 -1.2766
  121ACOH    H2 9867   3.826   7.600   0.452 -1.2191 -0.2240  2.5650
  121ACOH    H3 9868   3.962   7.707   0.491 -1.0345  1.2407  1.2079
  122ACOH    H4 9869   2.028   2.983   2.007 -0.6449 -1.4780  2.8148
  122ACOH    O2 9870   1.932   2.973   1.991 -0.4062  0.2198 -0.1665
  122ACOH    C2 9871   1.905   2.873   1.902 -0.0425 -0.2040 -0.3975
  122ACOH    O1 9872   1.986   2.787   1.868  0.6621 -0.1726 -0.8730
  122ACOH    C1 9873   1.762   2.851   1.882  0.5100 -0.6416  0.0832
  122ACOH    H1 9874   1.724   2.764   1.936  0.7021 -0.1378  1.0348
  122ACOH    H2 9875   1.744   2.832   1.776 -0.8164 -4.7368  0.9169
  122ACOH    H3 9876   1.707   2.937   1.920  0.7007 -0.7342  0.5796
  123ACOH    H4 9877   5.023   2.231   1.301 -0.7236 -0.4655 -1.8099
  123ACOH    O2 9878   5.101   2.176   1.283  0.1937  0.3866 -0.4739
  123ACOH    C2 9879   5.178   2.161   1.391 -0.0294 -0.1737  0.6742
  123ACOH    O1 9880   5.170   2.232   1.487 -1.0463 -0.3126  0.4239
  123ACOH    C1 9881   5.275   2.052   1.393 -0.0319 -0.7408  0.5268
  123ACOH    H1 9882   5.347   2.047   1.311 -0.3374  1.0791  0.1193
  123ACOH    H2 9883   5.221   1.959   1.374 -0.1095 -0.3356 -1.4371
  123ACOH    H3 9884   5.326   2.057   1.489  2.5200  2.4975 -0.9061
  124ACOH    H4 9885   1.554   7.778   2.481  0.5077 -0.9639  1.0536
  124ACOH    O2 9886   1.507   7.808   2.560 -0.1237  0.3585  0.1835
  124ACOH    C2 9887   1.599   7.790   2.659  0.2977  0.3443 -0.7353
  124ACOH    O1 9888   1.715   7.754   2.643  0.2218 -0.1043 -0.0785
  124ACOH    C1 9889   1.535   7.836   2.789  0.1597 -0.2035  0.2622
  124ACOH    H1 9890   1.570   7.936   2.816  0.0353 -0.0422 -0.1597
  124ACOH    H2 9891   1.559   7.768   2.870  1.9636  2.3302  1.9487
  124ACOH    H3 9892   1.427   7.842   2.777  0.4026  0.2568 -1.8708
  125ACOH    H4 9893   4.611   8.849   0.629  0.1646  0.0209  0.2106
  125ACOH    O2 9894   4.659   8.933   0.643  0.1945 -0.0880  0.7500
  125ACOH    C2 9895   4.651   8.975   0.519  0.5536  0.4206 -0.0256
  125ACOH    O1 9896   4.561   8.944   0.439  0.2398  0.1191 -0.1044
  125ACOH    C1 9897   4.704   9.118   0.512 -0.5269 -0.7493 -0.1364
  125ACOH    H1 9898   4.665   9.167   0.601  1.9890 -0.1224  0.6586
  125ACOH    H2 9899   4.670   9.174   0.425 -0.8308 -2.6881 -1.3002
  125ACOH    H3 9900   4.812   9.124   0.503 -0.6748  0.8539 -1.0211
  126ACOH    H4 9901   4.295   9.446   0.421  1.1803  0.2669 -0.7083
  126ACOH    O2 9902   4.307   9.505   0.498  0.3047 -0.9599  0.3958
  126ACOH    C2 9903   4.199   9.582   0.507 -0.0759  0.2239 -0.3441
  126ACOH    O1 9904   4.153   9.644   0.411  0.0229  1.4011  0.1170
  126ACOH    C1 9905   4.158   9.611   0.648  0.8479  0.7401 -0.4933
  126ACOH    H1 9906   4.233   9.576   0.719 -1.3180 -1.4760  0.7650
  126ACOH    H2 9907   4.061   9.566   0.669  0.1219  0.7338 -3.5503
  126ACOH    H3 9908   4.155   9.720   0.653  2.1538  0.8911 -2.6077
  127ACOH    H4 9909   1.876   8.014   0.579 -4.2284 -0.1848  1.3910
  127ACOH    O2 9910   1.861   8.081   0.510 -0.5029 -0.0824  0.5725
  127ACOH    C2 9911   1.955   8.072   0.415 -0.7368 -0.0991 -0.0626
  127ACOH    O1 9912   2.054   8.001   0.425  0.4082 -0.1501 -0.2450
  127ACOH    C1 9913   1.919   8.161   0.300  0.0083  0.4842  0.7363
  127ACOH    H1 9914   1.858   8.113   0.224 -0.4737  0.6829  0.9963
  127ACOH    H2 9915   2.011   8.193   0.253  0.0077 -1.8717 -0.9312
  127ACOH    H3 9916   1.860   8.243   0.341  0.0664  1.9148 -1.9640
  128ACOH    H4 9917   5.517   9.468   1.525 -0.1833 -1.2113 -0.1389
  128ACOH    O2 9918   5.592   9.427   1.572 -0.2232 -0.4560  0.6027
  128ACOH    C2 9919   5.638   9.500   1.674  0.3676  0.2742  0.2317
  128ACOH    O1 9920   5.589   9.599   1.717 -0.1108 -0.1280  0.1385
  128ACOH    C1 9921   5.760   9.440   1.730 -0.0364  0.5622  0.3659
  128ACOH    H1 9922   5.742   9.406   1.832 -1.1534  1.6411  0.5251
  128ACOH    H2 9923   5.846   9.507   1.726  0.0731  0.5191  1.6695
  128ACOH    H3 9924   5.787   9.347   1.680  1.0711  1.4251 -0.6751
  129ACOH    H4 9925   4.572   1.033   2.279 -0.1671 -0.2006  2.4519
  129ACOH    O2 9926   4.628   0.956   2.261 -0.5941 -0.1530  0.8985
  129ACOH    C2 9927   4.644   0.948   2.127  0.6036  0.0949  0.2313
  129ACOH    O1 9928   4.596   1.021   2.040 -0.4393  0.4606  0.1630
  129ACOH    C1 9929   4.736   0.833   2.106  0.1312 -0.0445 -0.0046
  129ACOH    H1 9930   4.692   0.747   2.158  2.2496 -0.8834  0.4703
  129ACOH    H2 9931   4.840   0.856   2.127 -0.0564  1.2255 -0.4423
  129ACOH    H3 9932   4.729   0.803   2.002 -0.8152 -2.2817  0.6635
  130ACOH    H4 9933   3.462   0.524   1.348  1.8352 -1.0971  0.7838
  130ACOH    O2 9934   3.418   0.446   1.311  0.5312  0.2429 -0.5292
  130ACOH    C2 9935   3.432   0.346   1.401  0.7385 -0.2804  0.4537
  130ACOH    O1 9936   3.472   0.345   1.516 -0.1663  0.8547 -0.9615
  130ACOH    C1 9937   3.371   0.222   1.347  0.2065 -0.6468 -0.2897
  130ACOH    H1 9938   3.448   0.176   1.286  1.3866  0.3225  0.4495
  130ACOH    H2 9939   3.293   0.250   1.276  1.4412 -0.3192 -1.5262
  130ACOH    H3 9940   3.326   0.166   1.429 -2.7400 -0.7495 -1.8773
  131ACOH    H4 9941   3.339   7.485   0.542 -2.3246  0.8732  1.7066
  131ACOH    O2 9942   3.376   7.429   0.612  0.0991 -0.2678 -0.4051
  131ACOH    C2 9943   3.507   7.447   0.611 -0.0827 -0.1694 -0.1217
  131ACOH    O1 9944   3.572   7.491   0.515 -0.1410 -0.3420  0.2956
  131ACOH    C1 9945   3.579   7.399   0.731 -0.0220 -0.3160 -0.5164
  131ACOH    H1 9946   3.516   7.342   0.799  0.1260 -1.6443 -1.4568
  131ACOH    H2 9947   3.622   7.484   0.783  2.8912 -0.1595 -3.0287
  131ACOH    H3 9948   3.664   7.333   0.710  1.6145  1.0550  1.4991
  132ACOH    H4 9949   2.209   5.631   1.255 -0.8250 -0.0132 -0.1878
  132ACOH    O2 9950   2.152   5.602   1.182 -0.1785  0.0977 -0.7382
  132ACOH    C2 9951   2.223   5.537   1.084 -0.0748  0.4125  0.0824
  132ACOH    O1 9952   2.337   5.562   1.058 -1.1145  0.7561  1.1611
  132ACOH    C1 9953   2.122   5.462   1.003 -0.1594  0.1324 -0.5948
  132ACOH    H1 9954   2.050   5.410   1.066  1.8291 -1.2819  0.5798
  132ACOH    H2 9955   2.163   5.401   0.921  0.9746  2.3102 -1.7016
  132ACOH    H3 9956   2.063   5.532   0.944 -1.4168 -0.2111  0.2446
  133ACOH    H4 9957   5.070   2.523  -0.029  0.9634 -2.0181  2.0792
  133ACOH    O2 9958   5.105   2.470  -0.102 -0.8398 -0.4281 -0.0018
  133ACOH    C2 9959   5.230   2.458  -0.056  0.0453 -0.0441  0.6471
  133ACOH    O1 9960   5.283   2.518   0.040  0.7278  0.5782  0.9376
  133ACOH    C1 9961   5.312   2.379  -0.153  0.4457  0.1936 -0.0717
  133ACOH    H1 9962   5.358   2.300  -0.093 -0.7276  0.2487  0.9277
  133ACOH    H2 9963   5.394   2.434  -0.197 -0.3931  1.8095  0.3536
  133ACOH    H3 9964   5.243   2.334  -0.224  0.9249  1.5458 -1.4107
  134ACOH    H4 9965   2.266  10.071   0.564 -0.1694  1.3825 -0.4849
  134ACOH    O2 9966   2.246  10.135   0.635 -0.3436  0.1135  0.6225
  134ACOH    C2 9967   2.118  10.164   0.633 -0.3343 -0.4066  0.0832
  134ACOH    O1 9968   2.038  10.131   0.548 -0.9600 -0.2217 -0.0944
  134ACOH    C1 9969   2.099  10.269   0.740  0.9340  0.4300  1.1055
  134ACOH    H1 9970   2.017  10.233   0.803 -1.0354  1.1484 -0.9616
  134ACOH    H2 9971   2.078  10.366   0.693 -0.9756 -0.7781 -0.6340
  134ACOH    H3 9972   2.184  10.280   0.807  0.6290  1.8783  1.2733
  135ACOH    H4 9973   2.216   5.562   0.064  0.6604  2.5342  2.4248
  135ACOH    O2 9974   2.136   5.516   0.094  0.6699  0.6699 -0.1977
  135ACOH    C2 9975   2.173   5.412   0.170 -0.2010 -0.2942 -0.0191
  135ACOH    O1 9976   2.286   5.382   0.207 -0.2072  0.5118  0.2129
  135ACOH    C1 9977   2.062   5.322   0.206  0.3310 -0.3193 -0.4803
  135ACOH    H1 9978   2.081   5.261   0.294 -1.0358  0.1817  0.1725
  135ACOH    H2 9979   2.052   5.258   0.118  2.2639 -0.0429 -0.9319
  135ACOH    H3 9980   1.965   5.371   0.213 -0.7671 -2.3045 -1.4109
  136ACOH    H4 9981   7.952   6.986   0.722  0.4433  1.2877 -0.8409
  136ACOH    O2 9982   7.974   6.933   0.644  0.3665  0.0075 -0.0054
  136ACOH    C2 9983   8.101   6.901   0.646  0.0681  0.5184  0.0603
  136ACOH    O1 9984   8.181   6.905   0.737 -0.3755 -0.3691 -0.2251
  136ACOH    C1 9985   8.136   6.826   0.521  0.6114 -0.1224  0.2241
  136ACOH    H1 9986   8.169   6.904   0.451 -1.9334  0.0046 -0.8849
  136ACOH    H2 9987   8.051   6.769   0.482  0.0938  0.7682  0.0408
  136ACOH    H3 9988   8.221   6.760   0.540  1.1277  0.4973  0.0727
  137ACOH    H4 9989   3.776   8.288   0.143 -0.1737  1.8530 -0.2548
  137ACOH    O2 9990   3.716   8.307   0.069 -0.1569 -0.0310 -0.7710
  137ACOH    C2 9991   3.770   8.267  -0.047  0.0972  0.4572 -1.0960
  137ACOH    O1 9992   3.884   8.248  -0.069 -0.3845 -0.0306 -0.0799
  137ACOH    C1 9993   3.671   8.268  -0.157  0.2520 -0.5575  0.5571
  137ACOH    H1 9994   3.588   8.211  -0.113  0.6278 -1.0312  0.6535
  137ACOH    H2 9995   3.703   8.222  -0.251  1.5306 -1.8507  1.6106
  137ACOH    H3 9996   3.649   8.373  -0.176 -0.4128 -0.6085  1.0249
  138ACOH    H4 9997   4.075   5.603   0.145  0.7635  1.6932  2.6684
  138ACOH    O2 9998   4.024   5.683   0.126 -0.3150  0.4547  0.0859
  138ACOH    C2 9999   4.020   5.756   0.241  0.4284 -0.5546  0.0947
  138ACOH    O110000   4.063   5.713   0.344 -0.1182 -0.3978  0.4127
  138ACOH    C110001   3.969   5.894   0.222  0.2437  0.3609  0.2851
  138ACOH    H110002   3.867   5.887   0.261 -0.7408  0.3711 -2.2070
  138ACOH    H210003   3.968   5.919   0.116 -2.2966 -3.0416 -0.5776
  138ACOH    H310004   4.034   5.966   0.271 -0.2095  0.5757  0.5717
  139ACOH    H410005   5.295   2.996   2.489 -0.6935  0.0441 -0.5415
  139ACOH    O210006   5.344   2.912   2.490  0.5332  0.7593  0.0880
  139ACOH    C210007   5.381   2.901   2.617  0.0200 -0.3592  0.2306
  139ACOH    O110008   5.325   2.934   2.719 -0.0905  0.2553 -0.2722
  139ACOH    C110009   5.504   2.813   2.614  1.0202 -0.9529  0.0641
  139ACOH    H110010   5.488   2.708   2.590 -2.3460 -0.1857 -1.1984
  139ACOH    H210011   5.558   2.828   2.708 -1.0596  0.1820  1.1057
  139ACOH    H310012   5.565   2.853   2.533 -0.2475  2.4991  0.7295
  140ACOH    H410013   2.343   3.164   1.436  1.8082 -0.1681 -0.0481
  140ACOH    O210014   2.321   3.164   1.341 -0.7694  0.4767  0.4883
  140ACOH    C210015   2.291   3.039   1.308  0.2788 -0.0840  0.5025
  140ACOH    O110016   2.269   2.949   1.387  0.0704 -0.2066  0.1120
  140ACOH    C110017   2.263   3.030   1.167  0.0505 -0.4541 -0.1399
  140ACOH    H110018   2.197   3.112   1.139 -0.2999 -0.7546 -0.2000
  140ACOH    H210019   2.217   2.932   1.154 -0.0177 -0.2155 -1.8942
  140ACOH    H310020   2.358   3.030   1.114 -1.3128 -0.3028 -2.6993
  141ACOH    H410021   5.503   2.668   1.268  1.8470  0.5094 -1.8243
  141ACOH    O210022   5.541   2.579   1.270 -0.2005 -0.3906  0.2354
  141ACOH    C210023   5.452   2.492   1.309 -0.1124 -0.3424  0.3403
  141ACOH    O110024   5.336   2.505   1.297  0.5546 -0.1481 -0.2051
  141ACOH    C110025   5.515   2.358   1.337  0.0276  0.0624  0.6427
  141ACOH    H110026   5.597   2.374   1.407  1.1905  1.4944 -1.0365
  141ACOH    H210027   5.544   2.310   1.244  1.6456 -2.1999  2.2700
  141ACOH    H310028   5.438   2.299   1.387  0.4605 -1.3071 -0.2902
  142ACOH    H410029   2.092   0.289   0.109 -0.1971 -1.1735  2.1164
  142ACOH    O210030   2.104   0.203   0.065  0.7902 -0.0839  0.2151
  142ACOH    C210031   2.150   0.227  -0.056  0.1868  0.3904 -0.5949
  142ACOH    O110032   2.101   0.317  -0.121  0.0732 -0.4289 -0.4995
  142ACOH    C110033   2.178   0.094  -0.119 -0.5471  0.7519  0.3216
  142ACOH    H110034   2.287   0.088  -0.131 -0.6283 -1.5212  0.5195
  142ACOH    H210035   2.137   0.090  -0.219  0.2134 -1.7247  0.0812
  142ACOH    H310036   2.150   0.008  -0.058  2.1051  0.5001  1.2864
  143ACOH    H410037   3.179   8.525   0.498 -1.3530  0.6891 -1.2293
  143ACOH    O210038   3.217   8.614   0.510  0.0726 -0.0710  0.0657
  143ACOH    C210039   3.322   8.615   0.430 -0.9589 -0.1055 -0.3854
  143ACOH    O110040   3.376   8.519   0.378 -0.3918  0.5850 -0.0725
  143ACOH    C110041   3.395   8.745   0.451  0.3465  0.0182  0.5292
  143ACOH    H110042   3.503   8.738   0.443  0.4321  0.9320  0.8421
  143ACOH    H210043   3.362   8.789   0.545  0.0955  1.1616 -0.0868
  143ACOH    H310044   3.355   8.812   0.374 -3.4503 -1.0736  1.4428
  144ACOH    H410045   2.275   9.941   1.698  2.1352 -0.7160  1.8338
  144ACOH    O210046   2.307   9.864   1.648 -0.0332 -0.1650 -0.4823
  144ACOH    C210047   2.376   9.913   1.542  0.4912 -0.3352 -0.5880
  144ACOH    O110048   2.433  10.023   1.531  0.4912 -0.0814 -0.4026
  144ACOH    C110049   2.398   9.808   1.445 -0.3640  1.3193 -0.2119
  144ACOH    H110050   2.364   9.843   1.348  0.1291 -0.9349 -1.2279
  144ACOH    H210051   2.352   9.714   1.475  1.4540  0.4411 -0.0887
  144ACOH    H310052   2.506   9.796   1.437 -0.2416  2.0953  0.2100
  145ACOH    H410053   2.736   6.762   2.252 -0.2673  0.5709  2.6856
  145ACOH    O210054   2.832   6.766   2.234 -0.7256 -0.0844 -0.2279
  145ACOH    C210055   2.873   6.636   2.241  0.4576 -0.5378 -0.3327
  145ACOH    O110056   2.803   6.543   2.270  0.7693 -0.1910  0.1403
  145ACOH    C110057   3.018   6.642   2.251 -0.0554 -0.1983 -0.6113
  145ACOH    H110058   3.046   6.731   2.308  0.0215  1.7408 -3.5486
  145ACOH    H210059   3.066   6.653   2.154  0.6215  1.0275 -0.1600
  145ACOH    H310060   3.060   6.553   2.298 -0.5974 -0.4918 -0.6792
  146ACOH    H410061   2.658   6.348   1.095 -0.0277  0.9057  0.2231
  146ACOH    O210062   2.570   6.379   1.126 -0.4042  0.0316  0.0255
  146ACOH    C210063   2.521   6.297   1.214 -0.0102  0.2963 -0.2682
  146ACOH    O110064   2.568   6.196   1.259 -0.3972  0.1033 -0.3096
  146ACOH    C110065   2.390   6.348   1.252  0.7799  0.7854 -0.0629
  146ACOH    H110066   2.356   6.282   1.332  0.0727  2.8591  1.4120
  146ACOH    H210067   2.315   6.341   1.173  0.8058 -0.4635  0.0196
  146ACOH    H310068   2.400   6.451   1.287 -0.8844  0.3314  1.8844
  147ACOH    H410069   3.497   7.863   0.017 -1.5593  0.3121  0.4729
  147ACOH    O210070   3.488   7.806  -0.062 -0.0962  0.7361 -0.0060
  147ACOH    C210071   3.448   7.680  -0.021  0.2851  0.5615 -0.4084
  147ACOH    O110072   3.380   7.649   0.074 -0.1981 -0.3576 -0.8446
  147ACOH    C110073   3.463   7.593  -0.138  0.0596  0.6993  0.6019
  147ACOH    H110074   3.564   7.606  -0.178  0.5019  1.5837  1.9701
  147ACOH    H210075   3.390   7.627  -0.212 -0.2939  1.5366  1.3289
  147ACOH    H310076   3.447   7.489  -0.112 -0.5073  0.9801  1.4091
  148ACOH    H410077   3.022   7.242   0.432  0.3471 -2.3142 -0.1577
  148ACOH    O210078   3.020   7.268   0.338  0.3268 -0.4881  0.3296
  148ACOH    C210079   3.111   7.363   0.309 -0.9024  0.2319 -0.0713
  148ACOH    O110080   3.178   7.422   0.400  0.0336  0.6412 -0.8174
  148ACOH    C110081   3.126   7.384   0.164  0.1184 -0.6740  0.0134
  148ACOH    H110082   3.156   7.293   0.112  0.6594 -0.4789 -0.0119
  148ACOH    H210083   3.211   7.450   0.146  0.2660 -0.4690  1.4461
  148ACOH    H310084   3.036   7.438   0.133 -0.5011 -1.5635  0.2462
  149ACOH    H410085   3.665   5.896   2.564  0.9655  0.3299 -1.8149
  149ACOH    O210086   3.639   5.987   2.585  0.1723 -0.2177 -0.3305
  149ACOH    C210087   3.575   6.033   2.476  0.3357  0.2062  0.1259
  149ACOH    O110088   3.561   5.972   2.373 -0.1936 -0.5807  0.3260
  149ACOH    C110089   3.524   6.168   2.506 -0.8524 -0.0065  0.1001
  149ACOH    H110090   3.440   6.182   2.438 -1.4554 -0.3947  0.7571
  149ACOH    H210091   3.593   6.246   2.475  1.0325 -1.2986  0.9878
  149ACOH    H310092   3.503   6.176   2.612  0.2220 -0.8967  0.3908
  150ACOH    H410093   4.986   1.348   1.382  0.3251  0.9253 -0.8659
  150ACOH    O210094   5.005   1.274   1.322 -0.3093 -0.2075  0.3094
  150ACOH    C210095   4.973   1.329   1.202 -0.6225 -0.9459 -0.3657
  150ACOH    O110096   4.966   1.450   1.177  0.3546  0.2905 -0.3522
  150ACOH    C110097   5.000   1.232   1.096 -0.2945  0.4215 -0.8914
  150ACOH    H110098   4.980   1.130   1.128 -0.1233  0.7162  0.1828
  150ACOH    H210099   5.107   1.225   1.076 -0.4272  0.4760 -1.6393
  150ACOH    H310100   4.952   1.257   1.001  1.1397  1.9289 -1.2281
  151ACOH    H410101   5.686   3.494   1.312 -0.6751  0.4548  0.4923
  151ACOH    O210102   5.721   3.440   1.385  0.0735  0.3681  0.0706
  151ACOH    C210103   5.624   3.410   1.470 -0.2035  0.0344 -0.4959
  151ACOH    O110104   5.537   3.485   1.489 -0.1865  0.2063 -0.5908
  151ACOH    C110105   5.668   3.300   1.565  0.3032 -0.0289 -0.8299
  151ACOH    H110106   5.658   3.202   1.519 -1.5501 -0.3677  0.2847
  151ACOH    H210107   5.608   3.289   1.654  0.9400  2.0555 -0.1007
  151ACOH    H310108   5.773   3.314   1.592  0.3807 -1.5102 -0.3669
  152ACOH    H410109   5.535   3.969   1.633 -1.3981 -3.0798 -1.3762
  152ACOH    O210110   5.613   3.916   1.657  0.2974 -0.3197 -0.6010
  152ACOH    C210111   5.660   3.867   1.541 -0.1150 -0.4796 -0.1727
  152ACOH    O110112   5.641   3.897   1.425 -0.1030  0.0714 -0.2493
  152ACOH    C110113   5.769   3.766   1.561 -0.0545  0.4035  0.0625
  152ACOH    H110114   5.737   3.670   1.520 -2.3714  1.3647 -0.4800
  152ACOH    H210115   5.792   3.758   1.667  0.1867 -1.5549 -0.1058
  152ACOH    H310116   5.858   3.800   1.509  0.4657 -1.8270 -0.5817
  153ACOH    H410117   4.267   8.400   0.913 -0.0100 -0.9423  0.3646
  153ACOH    O210118   4.340   8.441   0.962 -0.2541  0.4930 -0.4681
  153ACOH    C210119   4.434   8.470   0.877 -0.1217 -0.0084  0.3325
  153ACOH    O110120   4.422   8.473   0.756 -0.0904 -0.1186  0.1282
  153ACOH    C110121   4.551   8.536   0.938 -0.3717  1.3821  0.3975
  153ACOH    H110122   4.559   8.490   1.037  0.7279 -2.6206 -1.4495
  153ACOH    H210123   4.548   8.644   0.949 -3.2588  1.3305  0.6760
  153ACOH    H310124   4.641   8.515   0.880  0.2358  0.2981  1.7096
  154ACOH    H410125   2.148   2.932  -0.007 -0.4593 -1.5858  0.1478
  154ACOH    O210126   2.117   2.874  -0.080  0.4004 -0.8090 -0.8501
  154ACOH    C210127   2.122   2.952  -0.190  0.5404  0.5982 -0.3403
  154ACOH    O110128   2.207   3.038  -0.209 -0.1084 -0.1570  0.4127
  154ACOH    C110129   2.060   2.873  -0.301 -0.0540  0.3799  0.0055
  154ACOH    H110130   2.054   2.766  -0.281  0.5284  0.4508  0.5795
  154ACOH    H210131   2.114   2.894  -0.393  1.4628  3.4270  1.5301
  154ACOH    H310132   1.954   2.896  -0.310  0.0978  1.5051  0.8546
  155ACOH    H410133   4.818   0.699   1.281  0.8264  2.5422  0.1143
  155ACOH    O210134   4.886   0.655   1.228 -0.8059  0.3401 -0.2165
  155ACOH    C210135   4.872   0.660   1.094  0.6574  0.8865  0.8710
  155ACOH    O110136   4.799   0.743   1.043 -0.4585 -0.0335 -0.1819
  155ACOH    C110137   4.973   0.577   1.026  0.2848  0.3040 -0.2040
  155ACOH    H110138   4.926   0.521   0.945  2.3783 -1.4113 -0.2703
  155ACOH    H210139   5.021   0.516   1.101 -0.4208  2.2849  1.9321
  155ACOH    H310140   5.050   0.638   0.980 -0.2199 -1.2730 -3.3096
  156ACOH    H410141   4.678   0.636   1.626  0.9777 -0.2936 -0.8076
  156ACOH    O210142   4.659   0.542   1.644  0.1185  0.0086 -0.0685
  156ACOH    C210143   4.626   0.482   1.527 -0.0498  0.0127  0.4261
  156ACOH    O110144   4.597   0.546   1.425 -0.4127 -0.5193 -0.0546
  156ACOH    C110145   4.612   0.333   1.544  0.2205 -0.5144  0.3114
  156ACOH    H110146   4.586   0.315   1.648 -0.1360 -1.0311  0.1349
  156ACOH    H210147   4.708   0.285   1.529 -0.2061 -0.8466 -1.4756
  156ACOH    H310148   4.541   0.286   1.475 -0.0736  1.9102 -1.1059
  157ACOH    H410149   4.600   1.585   2.073 -2.1913 -1.2615  1.1482
  157ACOH    O210150   4.667   1.538   2.125 -0.0322 -0.0314 -0.4291
  157ACOH    C210151   4.715   1.435   2.048  0.2521 -0.5620  0.7745
  157ACOH    O110152   4.717   1.436   1.925  0.5671  0.6263  0.1572
  157ACOH    C110153   4.766   1.331   2.141  0.0661  0.5093  0.3356
  157ACOH    H110154   4.804   1.250   2.078 -2.0714  1.5034 -2.3281
  157ACOH    H210155   4.682   1.294   2.199 -0.0646  0.4707  0.1244
  157ACOH    H310156   4.836   1.365   2.218  0.1356  2.3040 -0.4845
  158ACOH    H410157   3.926   7.841   1.478 -0.2863 -1.2204  0.7928
  158ACOH    O210158   4.014   7.813   1.450  0.2312  0.3180  0.7883
  158ACOH    C210159   4.013   7.840   1.316  0.2751  0.7411 -0.0837
  158ACOH    O110160   3.946   7.922   1.253  0.1787  0.1664 -0.2319
  158ACOH    C110161   4.126   7.779   1.245 -0.2776 -0.2133  0.0596
  158ACOH    H110162   4.208   7.848   1.259  0.0965 -0.5272 -0.5572
  158ACOH    H210163   4.099   7.756   1.142 -0.5556  1.3119 -0.2165
  158ACOH    H310164   4.147   7.683   1.293  0.7236 -1.0343 -1.9614
  159ACOH    H410165   3.059   6.284   0.843 -3.8025 -3.2635  0.3573
  159ACOH    O210166   3.011   6.361   0.808  0.5614 -0.7539 -0.6361
  159ACOH    C210167   3.019   6.465   0.899  0.5698 -0.3839  0.0544
  159ACOH    O110168   3.039   6.471   1.020 -0.2209  0.3566  0.3053
  159ACOH    C110169   2.955   6.583   0.830  0.3052 -0.9360 -0.0142
  159ACOH    H110170   2.862   6.556   0.780  0.2848  1.6443 -1.4712
  159ACOH    H210171   3.016   6.628   0.751 -1.1667  0.2464 -0.4995
  159ACOH    H310172   2.937   6.659   0.905  0.4854  1.0310 -1.9127
  160ACOH    H410173   3.848   0.671   1.899  1.0885  2.2155 -1.5207
  160ACOH    O210174   3.763   0.693   1.857 -0.3612 -0.1508  0.0508
  160ACOH    C210175   3.726   0.593   1.767  0.4445 -0.4752 -0.3832
  160ACOH    O110176   3.773   0.481   1.766 -0.2179 -0.1741  0.3315
  160ACOH    C110177   3.605   0.635   1.701  1.0199  0.0845  0.2123
  160ACOH    H110178   3.531   0.683   1.765 -0.8307 -2.9144  0.4524
  160ACOH    H210179   3.559   0.547   1.655  0.1741  1.0248 -0.7584
  160ACOH    H310180   3.629   0.713   1.629  1.2319  1.4492  1.7240
  161ACOH    H410181   2.385   4.823   2.543 -0.4469 -0.3932  0.2598
  161ACOH    O210182   2.348   4.900   2.498  0.2122 -0.0367  0.3177
  161ACOH    C210183   2.260   4.948   2.584 -1.2334  0.5062 -0.0483
  161ACOH    O110184   2.200   4.884   2.671  0.7961 -0.1055  0.3022
  161ACOH    C110185   2.211   5.083   2.545 -0.5229 -0.4267 -0.3638
  161ACOH    H110186   2.106   5.082   2.514 -0.5565  2.0083 -0.4596
  161ACOH    H210187   2.269   5.124   2.462  0.0061  1.0504  0.7266
  161ACOH    H310188   2.235   5.158   2.620 -1.6155  1.9124 -2.2800
  162ACOH    H410189   3.068   0.492   0.625 -0.2003  0.4427 -0.2380
  162ACOH    O210190   3.016   0.428   0.678  0.0913  0.0992 -0.3671
  162ACOH    C210191   2.995   0.485   0.794  0.5804 -0.0796  0.0636
  162ACOH    O110192   3.048   0.587   0.833  0.2004  0.1478  0.4229
  162ACOH    C110193   2.922   0.393   0.875  0.2868 -0.5347 -0.4815
  162ACOH    H110194   2.925   0.408   0.983 -0.2261  0.1894 -0.5580
  162ACOH    H210195   2.964   0.295   0.853  1.1351  0.0570 -1.5366
  162ACOH    H310196   2.819   0.383   0.841  0.2083  1.5183 -0.9385
  163ACOH    H410197   4.336   9.594   1.613 -2.6827  1.1501  2.9853
  163ACOH    O210198   4.386   9.677   1.603  0.2741 -0.8248  0.2390
  163ACOH    C210199   4.308   9.774   1.652  0.4485  0.0857  0.2779
  163ACOH    O110200   4.240   9.759   1.757 -0.2268 -0.3866  0.2921
  163ACOH    C110201   4.350   9.900   1.596  0.3028 -0.3890 -0.0348
  163ACOH    H110202   4.348   9.965   1.683  2.1148 -1.1698  0.6321
  163ACOH    H210203   4.282   9.929   1.516  1.4445 -1.1845 -1.3290
  163ACOH    H310204   4.449   9.891   1.550  0.6685  3.1588 -0.0632
  164ACOH    H410205   4.545   5.409   0.496 -0.4141  1.8737 -0.3446
  164ACOH    O210206   4.613   5.427   0.564 -0.3632 -1.0181  0.4017
  164ACOH    C210207   4.621   5.327   0.652 -0.0545 -0.3095  0.3849
  164ACOH    O110208   4.549   5.229   0.656 -0.0748  0.3722  0.2784
  164ACOH    C110209   4.730   5.356   0.744 -0.2872 -0.3145 -0.3398
  164ACOH    H110210   4.778   5.263   0.775 -0.9294 -0.1192  1.3067
  164ACOH    H210211   4.683   5.401   0.831  0.2114  1.9252 -1.1959
  164ACOH    H310212   4.801   5.428   0.703 -1.3108  1.5719  1.0892
  165ACOH    H410213   4.389   9.222   2.294 -0.1056  0.9967 -0.6586
  165ACOH    O210214   4.484   9.242   2.295  0.0272  0.3809  0.0811
  165ACOH    C210215   4.520   9.291   2.414  0.4863  0.7035  0.1074
  165ACOH    O110216   4.446   9.312   2.505  0.0035 -0.1759  0.1936
  165ACOH    C110217   4.658   9.346   2.413 -0.0048  0.3008  0.2948
  165ACOH    H110218   4.660   9.455   2.417 -1.7105  0.4298 -1.7569
  165ACOH    H210219   4.708   9.319   2.321  0.3085  1.1944  0.1982
  165ACOH    H310220   4.715   9.296   2.492 -0.7008  0.2129  0.7506
  166ACOH    H410221   3.206   5.143   0.400  1.3188 -2.3457  0.3169
  166ACOH    O210222   3.162   5.111   0.480 -0.5171 -0.0367  0.2870
  166ACOH    C210223   3.262   5.064   0.551  0.0602  0.8773  0.3132
  166ACOH    O110224   3.382   5.073   0.536 -0.5355 -0.0537  0.9122
  166ACOH    C110225   3.205   5.005   0.673  0.4266 -0.1710 -0.4731
  166ACOH    H110226   3.101   4.975   0.665  0.1369  0.8169 -0.4266
  166ACOH    H210227   3.209   5.088   0.744  2.1189  1.4918 -2.4575
  166ACOH    H310228   3.265   4.923   0.713 -0.1287 -0.4095 -0.1216
  167ACOH    H410229   4.589   8.806   1.121 -1.4389  0.0734  0.5160
  167ACOH    O210230   4.620   8.760   1.200  0.0572  0.5413  0.2141
  167ACOH    C210231   4.541   8.758   1.312  0.1990 -0.0338 -0.6157
  167ACOH    O110232   4.435   8.820   1.327  0.8579  0.0665 -0.8016
  167ACOH    C110233   4.607   8.689   1.429 -0.0624 -0.0123  0.0068
  167ACOH    H110234   4.539   8.628   1.489 -0.3568 -0.2970 -0.6104
  167ACOH    H210235   4.663   8.749   1.500 -0.7545 -1.0403  1.4612
  167ACOH    H310236   4.673   8.613   1.388 -2.1232 -1.5406 -0.5973
  168ACOH    H410237   2.282   5.185   2.132 -0.9945 -2.6528 -1.1653
  168ACOH    O210238   2.206   5.209   2.189  0.5097  0.2683 -0.2776
  168ACOH    C210239   2.106   5.217   2.098  0.5588 -0.1156 -0.0231
  168ACOH    O110240   2.118   5.199   1.979  0.2804  0.0008  0.0200
  168ACOH    C110241   1.970   5.234   2.159  0.1767  0.1189  0.2011
  168ACOH    H110242   1.902   5.153   2.130 -0.1064 -0.3931  2.1807
  168ACOH    H210243   1.926   5.327   2.123  0.2390  0.0068 -0.1616
  168ACOH    H310244   1.977   5.242   2.268  0.0450 -1.0924  0.3107
  169ACOH    H410245   5.169   4.304   1.203  0.3737  1.5668 -0.6986
  169ACOH    O210246   5.261   4.273   1.205 -0.2072 -0.1940 -0.4448
  169ACOH    C210247   5.285   4.205   1.311  0.6058  0.2092 -0.3168
  169ACOH    O110248   5.209   4.197   1.406  0.2919 -0.2656 -0.2603
  169ACOH    C110249   5.412   4.129   1.309  0.3420  0.0895 -0.5070
  169ACOH    H110250   5.410   4.064   1.221 -0.5987  1.0016 -1.1770
  169ACOH    H210251   5.418   4.079   1.406  0.1819  0.5807 -0.2465
  169ACOH    H310252   5.490   4.204   1.299  0.9967 -0.3487  1.1585
  170ACOH    H410253   4.122   9.780   2.248 -0.0325 -0.6671  0.0762
  170ACOH    O210254   4.166   9.783   2.335  0.6823  0.6133 -0.2956
  170ACOH    C210255   4.225   9.660   2.355  0.0441 -0.5152 -0.0243
  170ACOH    O110256   4.223   9.554   2.300  0.2922  0.0523  0.5763
  170ACOH    C110257   4.302   9.672   2.480 -0.4061 -0.2855  0.1828
  170ACOH    H110258   4.233   9.685   2.563  0.1306  0.4647  0.5139
  170ACOH    H210259   4.364   9.760   2.469 -0.0368 -0.5108  0.4507
  170ACOH    H310260   4.363   9.583   2.497 -1.4802 -0.9566  0.6677
  171ACOH    H410261   5.810   3.748   0.794 -0.2173  1.2340  1.1896
  171ACOH    O210262   5.874   3.706   0.853  0.3205 -0.1692 -0.3596
  171ACOH    C210263   5.820   3.592   0.884 -0.4057 -0.1201  0.4977
  171ACOH    O110264   5.699   3.579   0.897  0.3299 -0.3355 -0.5604
  171ACOH    C110265   5.916   3.503   0.948 -0.6957 -0.2592 -0.8173
  171ACOH    H110266   5.936   3.515   1.055 -0.3380 -1.6981 -0.7154
  171ACOH    H210267   6.013   3.507   0.899  0.2664 -0.7517  0.9919
  171ACOH    H310268   5.891   3.397   0.937 -0.6492 -0.4841  1.0788
  172ACOH    H410269   3.397   4.966   0.985  1.1274 -0.4960  0.2809
  172ACOH    O210270   3.456   5.001   0.916  0.2366 -0.0053 -0.2448
  172ACOH    C210271   3.433   5.134   0.921 -0.5522  0.1028  0.4249
  172ACOH    O110272   3.361   5.199   0.992 -0.5362  0.0007  0.0253
  172ACOH    C110273   3.515   5.205   0.819 -0.0775  0.1489 -0.8927
  172ACOH    H110274   3.450   5.261   0.752 -0.1024  0.6591 -0.4483
  172ACOH    H210275   3.583   5.144   0.759  1.8732  2.3757 -1.0382
  172ACOH    H310276   3.585   5.267   0.877 -0.3580 -2.0614  1.9216
  173ACOH    H410277   5.536   4.515   0.647 -0.2738  0.0151 -0.3364
  173ACOH    O210278   5.629   4.530   0.622 -0.2283 -0.0366 -0.1994
  173ACOH    C210279   5.630   4.577   0.502  0.1739 -0.4045 -0.0516
  173ACOH    O110280   5.538   4.622   0.439 -0.5236  0.5153  0.0059
  173ACOH    C110281   5.768   4.594   0.461  0.1364 -0.3100  0.0896
  173ACOH    H110282   5.768   4.609   0.353 -2.6167  0.6290  0.1795
  173ACOH    H210283   5.825   4.507   0.495  1.3565 -1.0014 -3.5622
  173ACOH    H310284   5.827   4.676   0.503  2.1562 -1.9995  0.6490
  174ACOH    H410285   5.333   2.336   1.013  0.5432 -0.4158 -1.7039
  174ACOH    O210286   5.342   2.245   1.047  0.0736 -0.0004 -0.4759
  174ACOH    C210287   5.295   2.150   0.970  0.6362  1.2182 -0.1540
  174ACOH    O110288   5.283   2.161   0.849  0.2139  0.0248  0.0842
  174ACOH    C110289   5.324   2.018   1.033  0.0354  0.0706  0.4136
  174ACOH    H110290   5.250   1.996   1.109 -0.4679  2.1373  0.5721
  174ACOH    H210291   5.421   2.014   1.082 -0.5349 -1.2237  1.4599
  174ACOH    H310292   5.325   1.940   0.957  0.2630  0.2833  0.1933
  175ACOH    H410293   3.723   3.202   0.618 -1.5903 -4.0462 -1.7171
  175ACOH    O210294   3.638   3.239   0.590 -0.4586  0.0432 -0.1886
  175ACOH    C210295   3.664   3.355   0.523  0.2295  0.2424  0.0472
  175ACOH    O110296   3.764   3.418   0.525 -0.2016 -0.5466 -0.5401
  175ACOH    C110297   3.544   3.394   0.449  0.5101  0.2421  0.0963
  175ACOH    H110298   3.554   3.485   0.390 -3.0535 -1.1864 -2.8894
  175ACOH    H210299   3.455   3.409   0.511  0.3684  3.6961 -0.8328
  175ACOH    H310300   3.519   3.314   0.380  2.5077 -0.6845  0.4204
  176ACOH    H410301   3.083   5.089   1.785 -1.0093  2.6321  1.5120
  176ACOH    O210302   3.034   5.042   1.854 -0.5907  0.0605  0.0917
  176ACOH    C210303   2.930   4.979   1.791  0.0328  0.5568 -0.1872
  176ACOH    O110304   2.930   4.940   1.678 -0.4264  0.2861  0.2029
  176ACOH    C110305   2.815   4.936   1.872 -0.2726 -0.2071  0.3676
  176ACOH    H110306   2.839   4.963   1.975  1.2586 -1.2556  0.3007
  176ACOH    H210307   2.785   4.831   1.868 -1.9024  0.3369 -4.7233
  176ACOH    H310308   2.729   4.994   1.839  0.8149  2.1472  1.5557
  177ACOH    H410309   3.169   1.767   1.263  3.7706 -2.7443 -0.5593
  177ACOH    O210310   3.223   1.847   1.252  0.3209 -0.1521  0.1322
  177ACOH    C210311   3.345   1.816   1.203  0.0043  0.3601  0.1551
  177ACOH    O110312   3.373   1.715   1.146  0.5968  0.6216 -0.2706
  177ACOH    C110313   3.437   1.928   1.219 -0.3614 -0.2265 -0.4906
  177ACOH    H110314   3.437   1.988   1.128 -2.1634  1.6783  0.7269
  177ACOH    H210315   3.540   1.893   1.222 -1.0637 -2.2670  0.4995
  177ACOH    H310316   3.417   1.990   1.307 -0.2260 -1.5146  0.4583
  178ACOH    H410317   4.468   3.479   1.221  0.7786  1.9255  0.5099
  178ACOH    O210318   4.413   3.534   1.163  0.1972  0.3451 -0.4906
  178ACOH    C210319   4.294   3.556   1.222  0.1961 -0.1661  0.2961
  178ACOH    O110320   4.224   3.652   1.186  1.3033 -0.1951 -0.0173
  178ACOH    C110321   4.251   3.476   1.338  0.0832 -0.2539 -0.1123
  178ACOH    H110322   4.155   3.431   1.312  0.8582 -0.8232 -2.0481
  178ACOH    H210323   4.239   3.531   1.431  0.5330  1.0375 -0.7981
  178ACOH    H310324   4.325   3.399   1.356  0.8211  0.4671 -0.0219
  179ACOH    H410325   4.370   0.690  -0.044  0.7649  0.0024  1.1417
  179ACOH    O210326   4.412   0.709  -0.130  0.1749 -0.1790  0.8160
  179ACOH    C210327   4.423   0.589  -0.192  1.0458 -0.1247  0.0537
  179ACOH    O110328   4.354   0.494  -0.167  0.0812  0.2630  0.2406
  179ACOH    C110329   4.506   0.590  -0.314 -0.4550  0.7317 -0.4527
  179ACOH    H110330   4.577   0.672  -0.321 -0.7950  1.0371 -0.3532
  179ACOH    H210331   4.438   0.590  -0.399  0.9213  3.7569 -1.6164
  179ACOH    H310332   4.557   0.494  -0.312 -1.4900  0.1907  1.4775
  180ACOH    H410333   3.271   3.039   1.709  1.8677  1.6496  0.2762
  180ACOH    O210334   3.262   3.021   1.614  0.1060  0.0754  0.7056
  180ACOH    C210335   3.199   3.118   1.549  0.2377 -0.7973 -0.2728
  180ACOH    O110336   3.149   3.212   1.603  0.4706 -0.6283  0.0345
  180ACOH    C110337   3.209   3.095   1.404 -0.6041  0.2176  0.3742
  180ACOH    H110338   3.265   3.172   1.349  1.7029 -2.3886 -1.0413
  180ACOH    H210339   3.107   3.085   1.368 -0.1679  0.9337 -1.1293
  180ACOH    H310340   3.258   3.001   1.380  1.6926  1.7939 -1.3917
  181ACOH    H410341   4.682   4.877   1.498 -1.1025 -1.0150 -0.4176
  181ACOH    O210342   4.712   4.841   1.583 -0.3153 -0.0376 -0.2737
  181ACOH    C210343   4.655   4.910   1.690 -0.0873 -0.3429  0.5458
  181ACOH    O110344   4.577   4.997   1.684  0.3407 -0.0736  0.1495
  181ACOH    C110345   4.673   4.819   1.810  0.1982 -0.5180  0.3307
  181ACOH    H110346   4.776   4.785   1.825  0.8162  1.3404  0.4242
  181ACOH    H210347   4.606   4.738   1.782 -0.4477 -0.4288  1.6143
  181ACOH    H310348   4.647   4.877   1.898 -1.0169  0.7174 -0.8004
  182ACOH    H410349   2.950   7.618   1.822 -0.2314  0.7905 -0.4322
  182ACOH    O210350   3.015   7.625   1.894 -0.5102  0.1596 -0.1142
  182ACOH    C210351   3.062   7.501   1.916  0.2378 -0.3667  0.3876
  182ACOH    O110352   3.095   7.429   1.825  0.3274  0.4920 -0.0624
  182ACOH    C110353   3.122   7.491   2.048 -0.3018 -0.0960 -0.3191
  182ACOH    H110354   3.103   7.394   2.094 -2.1625 -0.9147 -2.7159
  182ACOH    H210355   3.085   7.572   2.111 -2.2375  0.2652 -1.8734
  182ACOH    H310356   3.231   7.500   2.049 -0.1189 -2.0050  1.1067
  183ACOH    H410357   2.146   5.408   0.639 -0.1668 -0.0377  0.4533
  183ACOH    O210358   2.054   5.388   0.617 -0.2279  0.4504  0.2736
  183ACOH    C210359   2.055   5.257   0.587  0.2675  0.4269  0.1579
  183ACOH    O110360   2.136   5.171   0.610  0.0546 -0.6256 -0.0101
  183ACOH    C110361   1.923   5.213   0.527 -0.2201 -0.3976  0.0216
  183ACOH    H110362   1.868   5.307   0.534  1.6616  0.6491  1.0612
  183ACOH    H210363   1.879   5.133   0.586  1.8027 -0.2845  1.7536
  183ACOH    H310364   1.940   5.178   0.425 -0.8770 -2.3244  0.5592
  184ACOH    H410365   2.400  10.118   1.000  0.7830 -0.3786 -0.1569
  184ACOH    O210366   2.387  10.210   0.970 -0.2714 -0.4561  0.0645
  184ACOH    C210367   2.476  10.238   0.874  0.2252  0.0349 -0.9363
  184ACOH    O110368   2.569  10.170   0.841 -0.1846  0.2528 -0.0796
  184ACOH    C110369   2.458  10.374   0.820  1.0352 -0.3950  0.0184
  184ACOH    H110370   2.510  10.384   0.725  0.8224 -2.9002 -0.3928
  184ACOH    H210371   2.494  10.452   0.887 -2.8656  1.8497 -0.3068
  184ACOH    H310372   2.350  10.384   0.807  0.6808 -1.3714  2.0622
  185ACOH    H410373   2.893   7.552   0.553  0.8412  0.2829  0.6701
  185ACOH    O210374   2.929   7.583   0.469 -0.2035  0.1673  0.1754
  185ACOH    C210375   2.992   7.703   0.481 -0.1921  0.5397  0.4840
  185ACOH    O110376   2.974   7.791   0.560 -0.1724 -0.0013 -0.4051
  185ACOH    C110377   3.060   7.737   0.352 -0.4965  0.0042 -0.0581
  185ACOH    H110378   3.164   7.748   0.383 -0.6632  2.1101 -0.2104
  185ACOH    H210379   3.022   7.831   0.313  0.8099 -0.6379 -3.0544
  185ACOH    H310380   3.053   7.662   0.272  0.5914 -0.8801  0.6615
  186ACOH    H410381   3.066   7.916   1.985 -0.4285  3.8136  0.6666
  186ACOH    O210382   3.018   7.936   1.902  0.1964  0.4085 -0.5897
  186ACOH    C210383   3.103   7.934   1.798 -0.0517  0.2052 -0.3470
  186ACOH    O110384   3.225   7.928   1.799 -0.3552  0.2832 -0.4974
  186ACOH    C110385   3.021   7.933   1.673 -0.4781  0.1623  0.0121
  186ACOH    H110386   3.090   7.897   1.597 -0.3427 -0.3231  0.3610
  186ACOH    H210387   2.988   8.033   1.646 -0.7552 -0.5371 -2.3528
  186ACOH    H310388   2.939   7.863   1.684 -0.2058  0.1001  1.9773
  187ACOH    H410389   2.840   4.874   0.139  0.4285  1.1733 -0.2225
  187ACOH    O210390   2.937   4.867   0.130  0.3949  0.2145  0.1064
  187ACOH    C210391   2.984   4.832   0.243  1.1484  0.2466 -0.2931
  187ACOH    O110392   2.925   4.764   0.325 -0.3664 -0.4602 -0.4345
  187ACOH    C110393   3.131   4.843   0.235 -0.2479 -0.8277 -0.4938
  187ACOH    H110394   3.161   4.878   0.334 -1.5538  0.3963 -0.5074
  187ACOH    H210395   3.161   4.927   0.172  3.0451 -1.7180 -0.2315
  187ACOH    H310396   3.186   4.753   0.208 -0.6363 -1.2967  0.2578
  188ACOH    H410397   5.413   2.733   0.640 -0.5435 -0.2945 -0.0421
  188ACOH    O210398   5.459   2.731   0.554 -0.1578  0.1642  0.1507
  188ACOH    C210399   5.358   2.715   0.471  0.5082 -0.3107 -0.2731
  188ACOH    O110400   5.244   2.673   0.494  0.5404  0.5158 -0.0715
  188ACOH    C110401   5.418   2.701   0.335  0.1768 -0.0270  0.2347
  188ACOH    H110402   5.352   2.738   0.257  1.4265  1.2260 -0.2477
  188ACOH    H210403   5.436   2.595   0.317  1.2762  0.2934 -0.6668
  188ACOH    H310404   5.513   2.752   0.318  0.0689 -0.4020 -1.6595
  189ACOH    H410405   4.390   0.803   2.061  3.4475  2.2244 -1.6311
  189ACOH    O210406   4.444   0.722   2.052 -0.0077 -0.4134 -0.1313
  189ACOH    C210407   4.384   0.633   1.970 -0.3581 -0.4457 -0.3879
  189ACOH    O110408   4.275   0.637   1.924  0.0265  0.0919 -0.1127
  189ACOH    C110409   4.484   0.528   1.937  0.1392 -0.1301 -0.4051
  189ACOH    H110410   4.489   0.518   1.828  1.2425 -0.0150 -0.3650
  189ACOH    H210411   4.451   0.445   1.999  1.8873 -0.4653  0.0820
  189ACOH    H310412   4.581   0.559   1.975 -0.0534 -0.4974  0.4008
  190ACOH    H410413   4.427   5.459   1.361  2.1094  0.7667 -0.3212
  190ACOH    O210414   4.443   5.502   1.446  0.8075  0.5632  0.0424
  190ACOH    C210415   4.339   5.561   1.503 -1.2229  0.3079 -0.6538
  190ACOH    O110416   4.226   5.524   1.479  0.7107  0.0025  0.0151
  190ACOH    C110417   4.383   5.605   1.633 -0.1736  0.0849 -0.4442
  190ACOH    H110418   4.377   5.522   1.704  0.2985  1.0869  0.8053
  190ACOH    H210419   4.322   5.686   1.673  0.8550  1.3973 -1.5026
  190ACOH    H310420   4.487   5.636   1.627 -0.2865  0.7604  0.8859
  191ACOH    H410421   5.216   1.551   0.375  1.5779  1.8550 -0.8616
  191ACOH    O210422   5.290   1.490   0.391 -0.1097 -0.2069 -0.5429
  191ACOH    C210423   5.351   1.485   0.269  0.6345  0.7173  0.3402
  191ACOH    O110424   5.316   1.543   0.168  0.1247  0.3769  0.0497
  191ACOH    C110425   5.469   1.394   0.256  0.1450  0.0778 -0.7107
  191ACOH    H110426   5.474   1.311   0.327  0.2751 -0.9164 -1.8668
  191ACOH    H210427   5.558   1.457   0.262 -0.1724  0.3388  2.2381
  191ACOH    H310428   5.466   1.350   0.157  0.2099 -1.1230 -0.1902
  192ACOH    H410429   4.623   9.151   0.882 -0.5976  0.0007 -0.5112
  192ACOH    O210430   4.706   9.143   0.832 -0.3563  0.2103 -0.1514
  192ACOH    C210431   4.784   9.053   0.900  0.0440  0.3862  0.2486
  192ACOH    O110432   4.766   9.014   1.013 -0.0072  0.6228  0.1206
  192ACOH    C110433   4.901   9.016   0.815  0.0958  0.4581  0.1889
  192ACOH    H110434   4.885   9.031   0.708  0.9597 -0.6143 -0.0957
  192ACOH    H210435   4.915   8.911   0.841 -0.5699  0.6947  1.5672
  192ACOH    H310436   4.987   9.079   0.837  0.4231  0.3701 -0.8453
  193SOL     OW10437   4.223   8.649   1.548 -0.3540 -0.6051  0.0774
  193SOL    HW110438   4.239   8.721   1.480 -1.2667  0.4177  0.9320
  193SOL    HW210439   4.156   8.584   1.513  1.8411 -2.1183 -1.4670
  194SOL     OW10440   3.928   4.074   1.296 -0.6692  0.5636  0.4683
  194SOL    HW110441   3.914   4.139   1.371  0.4369  0.8908  0.4055
  194SOL    HW210442   3.993   4.113   1.231 -2.0330  0.5211 -0.9643
  195SOL     OW10443   2.557   7.842   2.087 -0.2663 -0.2113 -0.8443
  195SOL    HW110444   2.654   7.859   2.103  0.0850 -0.5755 -2.4824
  195SOL    HW210445   2.540   7.743   2.085 -0.3597 -0.1793 -2.2274
  196SOL     OW10446   3.250   0.442   1.051  0.1836 -0.1143 -0.6983
  196SOL    HW110447   3.229   0.349   1.020 -1.8740  0.4124 -0.9462
  196SOL    HW210448   3.224   0.452   1.147  1.7953 -0.2210 -0.2361
  197SOL     OW10449   3.562   1.736   2.573 -0.5820 -0.1919 -0.6076
  197SOL    HW110450   3.531   1.641   2.572 -1.8353  0.1955 -2.5257
  197SOL    HW210451   3.483   1.797   2.560  0.2510  1.0898  0.2547
  198SOL     OW10452   4.901   2.072   0.505  0.3058  0.3343 -0.0492
  198SOL    HW110453   4.815   2.115   0.534  0.8920  1.5173 -0.0389
  198SOL    HW210454   4.978   2.123   0.542  1.0247 -1.2066  0.6312
  199SOL     OW10455   2.753   3.640   2.535 -0.4343 -0.0425 -0.0650
  199SOL    HW110456   2.695   3.584   2.475  0.7914 -0.9467 -0.4210
  199SOL    HW210457   2.836   3.590   2.557  0.3861  1.3854  0.1449
  200SOL     OW10458   2.141   6.964   2.179  0.3877  0.5254 -0.2787
  200SOL    HW110459   2.197   6.886   2.206  0.9296  0.8289 -0.5171
  200SOL    HW210460   2.152   6.980   2.080 -0.1605  0.5532 -0.3401
  201SOL     OW10461   4.902   3.601   2.042  0.3737 -0.0746  0.0196
  201SOL    HW110462   4.881   3.609   2.139  1.2493  0.6631  0.1569
  201SOL    HW210463   4.830   3.643   1.988  0.0961 -0.1024  0.3706
  202SOL     OW10464   3.178   3.794   0.663  0.1429  0.5911 -0.3045
  202SOL    HW110465   3.259   3.852   0.665  0.6703 -0.1632  0.7834
  202SOL    HW210466   3.170   3.744   0.750 -1.1217  0.1646 -0.6471
  203SOL     OW10467   2.406   8.459   0.690  0.6326 -0.3359  0.2650
  203SOL    HW110468   2.381   8.426   0.781  0.1187 -0.7366 -0.0154
  203SOL    HW210469   2.343   8.532   0.663  1.1462  0.1825  0.4711
  204SOL     OW10470   3.281   0.731   0.904  0.0956 -0.1744  0.5238
  204SOL    HW110471   3.196   0.680   0.896 -0.3452  0.5226  0.7325
  204SOL    HW210472   3.327   0.706   0.990 -0.2819  0.0247  0.7845
  205SOL     OW10473   3.095   2.213   2.375  0.1007  0.2589 -0.3803
  205SOL    HW110474   3.161   2.208   2.450 -0.1721  0.6138 -0.1131
  205SOL    HW210475   3.023   2.146   2.390  0.0732  0.2947 -0.3505
  206SOL     OW10476   2.667   7.509   1.255 -0.4521 -0.3293  0.2809
  206SOL    HW110477   2.747   7.466   1.212 -0.2861 -0.6816  0.9287
  206SOL    HW210478   2.584   7.461   1.228 -0.5810  0.8284 -1.4122
  207SOL     OW10479   3.843   3.654   2.217  0.2558  0.3153  0.1930
  207SOL    HW110480   3.827   3.627   2.312  1.1579  1.4607  0.6742
  207SOL    HW210481   3.930   3.702   2.210  0.0161  0.5647 -1.1494
  208SOL     OW10482   5.077   4.395   1.557  0.2361  0.2231  0.4802
  208SOL    HW110483   5.018   4.435   1.487  1.1525  1.3572  0.3361
  208SOL    HW210484   5.143   4.333   1.515  0.1017  0.0921  0.4635
  209SOL     OW10485   4.997   2.675   0.353 -0.0302 -0.2299 -0.0788
  209SOL    HW110486   5.074   2.681   0.417  0.0287  2.7992 -0.3816
  209SOL    HW210487   4.911   2.687   0.403  0.0280  2.3525 -0.5588
  210SOL     OW10488   2.820   7.632   1.715 -0.4756  0.7620 -0.1830
  210SOL    HW110489   2.737   7.687   1.711 -1.3833 -0.6325 -0.3776
  210SOL    HW210490   2.860   7.626   1.623 -1.3326 -0.3624 -0.4928
  211SOL     OW10491   3.404   4.808   2.405  0.2527 -0.2168 -0.9776
  211SOL    HW110492   3.468   4.802   2.328  1.3270 -0.2879 -0.0747
  211SOL    HW210493   3.390   4.904   2.430 -0.7521 -0.1330 -1.7865
  212SOL     OW10494   3.661   4.457   2.178  0.1459 -0.1056 -0.3717
  212SOL    HW110495   3.654   4.536   2.117  1.5869  0.8207  0.6178
  212SOL    HW210496   3.612   4.476   2.263  1.1441  0.0481  0.1774
  213SOL     OW10497   2.472   3.728   2.209 -0.0818  0.1706  0.1298
  213SOL    HW110498   2.465   3.817   2.255 -2.2182 -1.1829  2.5782
  213SOL    HW210499   2.386   3.710   2.161  1.1802  0.3951 -2.2578
  214SOL     OW10500   2.350   5.164   1.546  0.0745 -0.2016 -0.2411
  214SOL    HW110501   2.315   5.235   1.486 -1.0234 -0.4385  0.1043
  214SOL    HW210502   2.344   5.075   1.501  0.6446 -0.1955 -0.3420
  215SOL     OW10503   2.991   5.494   1.968  0.0002 -0.1044 -0.2295
  215SOL    HW110504   3.033   5.405   1.981 -1.0904 -0.7657 -1.1413
  215SOL    HW210505   3.059   5.566   1.984  0.4604 -1.0371  2.1497
  216SOL     OW10506   2.114   4.327   1.814  0.1251  0.0795 -0.1955
  216SOL    HW110507   2.110   4.421   1.847 -1.2071  1.1601 -3.1846
  216SOL    HW210508   2.120   4.328   1.714 -2.5312 -3.0090 -0.4522
  217SOL     OW10509   3.336   2.553   1.391 -0.5831 -0.5032  0.5918
  217SOL    HW110510   3.340   2.650   1.415 -0.3119 -0.4418  0.2937
  217SOL    HW210511   3.352   2.542   1.293 -2.7099 -0.6705  0.2271
  218SOL     OW10512   3.747   9.637   1.156  0.2081  0.0661 -0.1583
  218SOL    HW110513   3.770   9.724   1.111  1.2950 -0.0471  0.1634
  218SOL    HW210514   3.709   9.574   1.088  1.3030  0.0945 -0.8135
  219SOL     OW10515   3.391   1.712   0.214 -0.3007 -0.0638  0.6155
  219SOL    HW110516   3.379   1.663   0.300 -0.3897  2.1116  1.8888
  219SOL    HW210517   3.467   1.778   0.223 -0.4516  0.3495 -0.8904
  220SOL     OW10518   2.119   1.654   0.089  0.2653  0.1533  0.0100
  220SOL    HW110519   2.197   1.714   0.105 -0.1065  1.0142 -1.3139
  220SOL    HW210520   2.122   1.620  -0.005 -1.1400  0.4781 -0.1639
  221SOL     OW10521   2.350   3.305   0.915 -0.3025  0.1158  0.0740
  221SOL    HW110522   2.338   3.395   0.875 -0.3254  0.3563  0.6110
  221SOL    HW210523   2.312   3.235   0.854 -2.1273  0.6435  0.5890
  222SOL     OW10524   3.541   5.654   1.375 -0.1214  0.6789 -0.5554
  222SOL    HW110525   3.601   5.643   1.454 -0.8677  1.7028  0.1727
  222SOL    HW210526   3.458   5.599   1.387  0.3669 -0.2274 -1.2598
  223SOL     OW10527   2.460   2.751   0.894 -0.0843  0.2042  0.4994
  223SOL    HW110528   2.489   2.657   0.908 -1.8958 -0.1175  2.4202
  223SOL    HW210529   2.395   2.756   0.819  0.0859 -0.0640  0.3371
  224SOL     OW10530   3.754   8.235   1.112  0.1026 -0.1145  0.4669
  224SOL    HW110531   3.833   8.295   1.124 -0.2491  0.0924  1.8510
  224SOL    HW210532   3.714   8.214   1.202 -2.3627  1.0728 -0.2863
  225SOL     OW10533   3.570   8.180   1.307  0.3021  0.3773  0.2930
  225SOL    HW110534   3.480   8.195   1.268  0.2302 -2.4780 -0.7053
  225SOL    HW210535   3.564   8.180   1.407 -0.5442  1.4958  0.2515
  226SOL     OW10536   1.894   9.161   2.251 -0.0983  0.1718 -0.4184
  226SOL    HW110537   1.901   9.145   2.349 -2.9723 -0.6243 -0.2871
  226SOL    HW210538   1.877   9.258   2.234  0.5303  0.3317 -0.1431
  227SOL     OW10539   1.815   9.227   0.913  0.1542 -0.5782 -0.0906
  227SOL    HW110540   1.785   9.132   0.912  0.5550 -0.7266  0.9369
  227SOL    HW210541   1.892   9.237   0.976  2.0157 -0.1217 -2.4081
  228SOL     OW10542   2.755   9.530   1.690  0.2493 -0.0468 -0.2007
  228SOL    HW110543   2.762   9.454   1.755  0.9458  0.2147  0.0318
  228SOL    HW210544   2.802   9.610   1.727  0.5418  0.1409 -0.9752
  229SOL     OW10545   2.168   0.684   0.102  0.2327  0.4069 -0.5068
  229SOL    HW110546   2.179   0.661   0.005  0.0545  0.6573 -0.5844
  229SOL    HW210547   2.181   0.782   0.116 -0.6023  0.5138 -0.4095
  230SOL     OW10548   3.621   4.167   1.544  0.5451 -0.0076 -0.2701
  230SOL    HW110549   3.620   4.077   1.588 -0.0134 -0.7134 -1.6850
  230SOL    HW210550   3.712   4.185   1.507  0.7819  0.2175  0.4109
  231SOL     OW10551   2.499   7.713   1.240  0.4742  0.3009  0.4032
  231SOL    HW110552   2.569   7.643   1.251  0.4802 -0.2134 -2.3808
  231SOL    HW210553   2.417   7.673   1.198  0.0333  1.6902 -0.1125
  232SOL     OW10554   3.946   0.443   0.646 -0.5733  0.1659 -0.5361
  232SOL    HW110555   3.988   0.353   0.660 -1.1079 -0.1132 -0.7332
  232SOL    HW210556   3.947   0.494   0.732 -2.4547 -0.9511  0.1772
  233SOL     OW10557   2.945   6.713   1.538  0.3614 -0.3785  0.1743
  233SOL    HW110558   2.946   6.617   1.565  1.3968 -0.7607 -1.1654
  233SOL    HW210559   3.039   6.748   1.534  0.0892  0.2738 -0.7807
  234SOL     OW10560   4.013   3.498   1.754  0.5295 -0.3762  0.0557
  234SOL    HW110561   3.919   3.492   1.721  0.9433 -0.3917 -1.1677
  234SOL    HW210562   4.058   3.410   1.740  1.1459  0.0521 -0.7055
  235SOL     OW10563   2.902   8.329   0.270 -0.0526  0.1690 -0.2026
  235SOL    HW110564   2.936   8.342   0.177  0.2670 -1.7743 -0.3938
  235SOL    HW210565   2.803   8.319   0.269 -0.3650  3.0354  0.0222
  236SOL     OW10566   4.470   1.489   1.040 -0.0511  0.3555  0.0573
  236SOL    HW110567   4.517   1.557   0.984 -0.2456 -0.3516 -0.9800
  236SOL    HW210568   4.530   1.411   1.057 -1.3242 -1.3122 -2.6667
  237SOL     OW10569   2.815   5.455   1.333 -0.3198  0.2586 -0.1874
  237SOL    HW110570   2.845   5.423   1.243 -0.8276 -0.7207 -0.0062
  237SOL    HW210571   2.784   5.550   1.325  0.9968  0.6508 -0.7546
  238SOL     OW10572   4.198   2.727   0.705 -0.0939  0.3963  0.0952
  238SOL    HW110573   4.239   2.703   0.617  1.0892  1.5672  0.3164
  238SOL    HW210574   4.120   2.666   0.723 -0.4180  0.2126 -1.7964
  239SOL     OW10575   4.033   5.488   0.557 -0.3739  0.1074  0.4375
  239SOL    HW110576   3.938   5.484   0.589 -0.8806  0.4735 -0.9920
  239SOL    HW210577   4.049   5.575   0.511  0.3945 -0.3459 -0.1626
  240SOL     OW10578   4.294   4.325   0.762  0.4003  0.1146 -0.5524
  240SOL    HW110579   4.336   4.287   0.680 -0.4749  0.1201 -1.0024
  240SOL    HW210580   4.293   4.256   0.834  1.0627  0.0757 -0.5740
  241SOL     OW10581   3.578   5.295   0.496 -0.3137  1.1990  0.4457
  241SOL    HW110582   3.553   5.339   0.409 -1.0499  1.0924  0.5983
  241SOL    HW210583   3.511   5.224   0.517  0.6221  0.2954  0.4228
  242SOL     OW10584   4.459   1.832   0.025  0.2818 -0.2180 -0.3988
  242SOL    HW110585   4.535   1.851  -0.037  0.6549 -2.5776 -0.6805
  242SOL    HW210586   4.473   1.882   0.111  1.2744  0.6900 -1.0766
  243SOL     OW10587   2.443   2.100   1.085  0.1546  0.1354  0.4187
  243SOL    HW110588   2.419   2.096   0.988  2.5424  0.1723 -0.2224
  243SOL    HW210589   2.396   2.176   1.129 -2.2539 -0.9012 -0.3014
  244SOL     OW10590   3.906   0.223   0.050 -0.3279  0.0265  0.1882
  244SOL    HW110591   3.893   0.289  -0.023 -2.0285  0.3488  0.7517
  244SOL    HW210592   3.895   0.268   0.139 -0.8002 -0.8641  0.5930
  245SOL     OW10593   2.813   4.026   2.480 -0.7206  0.5468  0.2281
  245SOL    HW110594   2.806   4.126   2.485  0.5175  0.6377  0.3886
  245SOL    HW210595   2.735   3.985   2.525 -0.4244  1.4463  1.5917
  246SOL     OW10596   3.167   6.170   0.006  0.3000  0.6684  0.1776
  246SOL    HW110597   3.185   6.248  -0.054  0.2177 -0.8042 -1.8170
  246SOL    HW210598   3.233   6.097  -0.013 -0.2954 -0.1691  1.2631
  247SOL     OW10599   2.445   0.856   2.098  0.3428  0.0067 -0.3266
  247SOL    HW110600   2.488   0.910   2.024  0.7399  1.1384  0.7034
  247SOL    HW210601   2.423   0.765   2.064  0.6706  0.4564 -1.8036
  248SOL     OW10602   3.845   0.249   0.477 -0.5229  0.0825  0.0124
  248SOL    HW110603   3.914   0.179   0.496 -2.9946 -2.0682  1.3812
  248SOL    HW210604   3.866   0.331   0.531  1.1364 -0.3924  0.1423
  249SOL     OW10605   2.761   1.809   0.373  0.5783  0.4538 -0.4166
  249SOL    HW110606   2.809   1.891   0.343  0.9720 -0.4068 -2.2077
  249SOL    HW210607   2.808   1.728   0.337 -0.1073 -0.5338  0.8787
  250SOL     OW10608   2.970   9.307   0.271 -0.1072 -0.4381 -0.4632
  250SOL    HW110609   2.954   9.337   0.177  1.0999  1.2410 -0.1677
  250SOL    HW210610   3.068   9.292   0.286 -0.3749 -1.5292  0.2930
  251SOL     OW10611   3.116  10.103   1.000 -0.6257 -0.1071  0.4427
  251SOL    HW110612   3.200  10.059   1.030 -0.2739  0.2627  0.0309
  251SOL    HW210613   3.082  10.164   1.072  0.4011  1.0448 -0.0179
  252SOL     OW10614   4.273   8.959   0.055  0.2857 -0.2588 -0.2648
  252SOL    HW110615   4.196   9.010   0.093 -0.2435 -0.0791 -1.5609
  252SOL    HW210616   4.278   8.974  -0.044  1.0239 -1.5351 -0.4357
  253SOL     OW10617   2.427   1.414   0.399  0.2688 -0.0366  0.5753
  253SOL    HW110618   2.462   1.494   0.351 -0.6548  0.3037  0.4475
  253SOL    HW210619   2.490   1.337   0.388  1.2668  0.7322  0.8729
  254SOL     OW10620   3.673   9.275   0.027 -0.2472  0.5702 -0.2841
  254SOL    HW110621   3.741   9.276  -0.046 -0.6078 -0.5800 -0.6530
  254SOL    HW210622   3.583   9.297  -0.010 -0.4168  0.0607 -0.1815
  255SOL     OW10623   4.724   2.662   0.439 -0.2284 -0.9872  0.6951
  255SOL    HW110624   4.636   2.707   0.450  0.0587 -0.0473 -0.7301
  255SOL    HW210625   4.750   2.617   0.525 -1.5714 -0.3498  1.4432
  256SOL     OW10626   4.097   0.882   2.295 -0.3020  0.2900 -0.5381
  256SOL    HW110627   4.041   0.799   2.288 -0.5149  0.3714  0.1766
  256SOL    HW210628   4.144   0.882   2.383  0.6037  0.3611 -1.0216
  257SOL     OW10629   3.004   7.398   0.901  0.0157  0.2308 -0.0708
  257SOL    HW110630   3.094   7.438   0.917 -0.0685  1.2096 -1.9257
  257SOL    HW210631   2.980   7.337   0.977  2.3478 -0.2700  0.2750
  258SOL     OW10632   3.892   5.526   1.658  0.2660 -0.3679  0.1398
  258SOL    HW110633   3.912   5.552   1.753  2.5292 -0.4948 -0.2708
  258SOL    HW210634   3.978   5.505   1.611 -0.8009  0.2743 -2.1195
  259SOL     OW10635   2.632   8.274   0.274 -0.2027 -0.1308  0.6577
  259SOL    HW110636   2.553   8.276   0.335 -0.6869 -0.1690  0.0416
  259SOL    HW210637   2.618   8.341   0.201  0.0410 -0.5906  0.1892
  260SOL     OW10638   3.927   3.681   0.567 -0.5144 -0.1428 -0.7685
  260SOL    HW110639   3.863   3.750   0.602  0.5317 -0.2763  1.5015
  260SOL    HW210640   3.888   3.590   0.580  0.6643 -0.3142  1.9219
  261SOL     OW10641   4.086   0.504   0.164  0.3260  0.5734 -0.6955
  261SOL    HW110642   4.154   0.433   0.142 -0.4553 -0.6763  0.8530
  261SOL    HW210643   4.133   0.589   0.186  1.4061 -0.3192  0.5234
  262SOL     OW10644   4.558   3.337   1.261  0.3686  0.0568 -0.1171
  262SOL    HW110645   4.525   3.290   1.179 -2.3201 -0.0433  0.9849
  262SOL    HW210646   4.611   3.273   1.317  0.4560 -0.4420 -0.7618
  263SOL     OW10647   3.762   3.919   0.676  0.1929 -0.1689  0.0155
  263SOL    HW110648   3.736   4.012   0.651  3.3892  0.7451 -0.0945
  263SOL    HW210649   3.821   3.922   0.757  1.6441 -1.9398 -0.9443
  264SOL     OW10650   3.695   2.960   0.909 -0.3852 -0.1613  0.0238
  264SOL    HW110651   3.631   2.928   0.978 -0.7666  0.9508  0.2027
  264SOL    HW210652   3.647   3.020   0.844  0.2661 -0.0776 -0.3866
  265SOL     OW10653   2.440   7.519   0.767 -0.0876  0.4431  0.4477
  265SOL    HW110654   2.348   7.557   0.765 -0.5828 -0.5169  3.5251
  265SOL    HW210655   2.499   7.579   0.821  0.3914 -0.4656  0.9311
  266SOL     OW10656   2.564   9.237   0.346 -0.2650  0.6028  0.7964
  266SOL    HW110657   2.521   9.290   0.419 -0.0453  0.0251  1.3566
  266SOL    HW210658   2.506   9.158   0.325 -0.3333  0.7782  0.3374
  267SOL     OW10659   4.084   3.768   0.862 -0.0929 -0.5193 -0.5388
  267SOL    HW110660   4.130   3.793   0.777  2.1999 -1.5813  0.3172
  267SOL    HW210661   4.153   3.751   0.933 -1.9277 -0.1895  1.3830
  268SOL     OW10662   2.146   9.383   2.424  0.1045  0.1673  0.3741
  268SOL    HW110663   2.113   9.413   2.334 -0.0641  0.7122  0.6159
  268SOL    HW210664   2.245   9.370   2.420 -0.1249 -1.5981 -0.3874
  269SOL     OW10665   5.063   3.786   1.662 -0.0913  0.2561  0.4786
  269SOL    HW110666   4.987   3.851   1.658 -0.5203 -0.1211  2.0406
  269SOL    HW210667   5.136   3.824   1.719 -0.1096 -0.3820  0.9309
  270SOL     OW10668   3.373   2.702   1.822  0.3301 -0.5008  0.0864
  270SOL    HW110669   3.391   2.799   1.841  1.6332 -0.3328 -1.8907
  270SOL    HW210670   3.355   2.654   1.908 -1.8365  1.7801  0.9478
  271SOL     OW10671   2.546   7.059   0.213  0.3958 -0.3302 -0.7270
  271SOL    HW110672   2.529   7.084   0.118  2.3278 -0.5839 -1.1707
  271SOL    HW210673   2.645   7.058   0.230  0.1377 -1.6720  0.8965
  272SOL     OW10674   2.491   0.383   1.364  0.0753 -0.0741 -0.6290
  272SOL    HW110675   2.478   0.298   1.416 -2.6763  0.8467  0.2675
  272SOL    HW210676   2.408   0.403   1.312  0.7590  1.9801 -0.9643
  273SOL     OW10677   4.408   2.281   0.953 -0.4882 -0.6500  0.6595
  273SOL    HW110678   4.476   2.303   1.023  0.3826 -1.1971 -0.0012
  273SOL    HW210679   4.440   2.314   0.864 -1.8183  0.4894  0.5889
  274SOL     OW10680   4.313   2.595   2.534 -0.0255  0.0314  0.1828
  274SOL    HW110681   4.242   2.608   2.602  1.0777 -2.1834  1.8250
  274SOL    HW210682   4.317   2.499   2.508  2.4627  0.0846  0.2582
  275SOL     OW10683   2.422   6.552   1.864 -0.4655 -0.3048 -0.1481
  275SOL    HW110684   2.484   6.512   1.931  0.3893  1.3882  0.0902
  275SOL    HW210685   2.458   6.537   1.772 -0.2488 -0.2653 -0.0708
  276SOL     OW10686   3.116   5.854   1.109  0.6642 -0.0584 -0.2205
  276SOL    HW110687   3.179   5.926   1.138  0.5288 -0.1958  0.4410
  276SOL    HW210688   3.133   5.772   1.163 -1.5161  0.5667  1.5176
  277SOL     OW10689   2.511   7.354   1.542  0.1058 -0.2094  0.2643
  277SOL    HW110690   2.592   7.337   1.598 -0.2261 -1.9229  0.2607
  277SOL    HW210691   2.540   7.380   1.450  0.6998 -2.8287 -0.3316
  278SOL     OW10692   2.573   5.458   0.246  0.2809  0.1237  0.1905
  278SOL    HW110693   2.603   5.535   0.190  0.8538  1.6992  2.5804
  278SOL    HW210694   2.473   5.457   0.250  0.2260 -0.1367 -1.0157
  279SOL     OW10695   4.116   3.626   2.490  0.3021 -0.0129  0.1788
  279SOL    HW110696   4.061   3.694   2.540  1.2482  0.6201  0.3744
  279SOL    HW210697   4.212   3.655   2.490  0.3642 -0.1608 -1.7402
  280SOL     OW10698   2.295   8.050   0.567 -0.1595  0.0625 -0.2503
  280SOL    HW110699   2.201   8.039   0.536 -0.5819  0.4215  0.8653
  280SOL    HW210700   2.299   8.038   0.666  0.8268  0.9327 -0.1714
  281SOL     OW10701   2.654   0.563   1.742  0.0770  0.2324  0.1570
  281SOL    HW110702   2.625   0.657   1.759 -0.8929  0.0793 -0.6163
  281SOL    HW210703   2.578   0.511   1.703  0.8008 -0.7028 -0.0185
  282SOL     OW10704   3.075   9.050   1.634  0.1167  0.2376 -0.1774
  282SOL    HW110705   3.049   8.954   1.625 -2.0585  0.7689  0.2534
  282SOL    HW210706   3.143   9.073   1.564  2.2006 -2.1126  0.9870
  283SOL     OW10707   2.608   1.586   0.714 -0.0290  0.1231 -0.1987
  283SOL    HW110708   2.568   1.651   0.649  2.2890  0.5454 -1.2517
  283SOL    HW210709   2.708   1.594   0.713  0.0868 -0.1986  3.1097
  284SOL     OW10710   4.319   2.449   0.181 -0.3407  0.0873 -0.3311
  284SOL    HW110711   4.303   2.544   0.155  0.1076  0.2040 -0.1928
  284SOL    HW210712   4.363   2.401   0.105  0.0526  0.1664 -0.1523
  285SOL     OW10713   3.141   0.989   1.109 -0.1109  0.8489 -0.3251
  285SOL    HW110714   3.058   1.031   1.071 -0.3331 -0.7282 -1.6360
  285SOL    HW210715   3.195   0.950   1.035  0.8695  0.1906  0.7264
  286SOL     OW10716   4.421   9.116   0.267 -0.9534  0.1951 -0.3185
  286SOL    HW110717   4.477   9.050   0.317  0.0540  1.3490  0.0808
  286SOL    HW210718   4.388   9.074   0.182 -2.0482 -1.5236  0.9031
  287SOL     OW10719   2.212   4.568   1.650 -0.9527 -0.2190  0.0296
  287SOL    HW110720   2.159   4.642   1.691  0.1666 -0.1043  1.3300
  287SOL    HW210721   2.290   4.607   1.601 -0.9940 -0.4717 -0.2344
  288SOL     OW10722   3.164   4.669   2.306  0.3144 -0.4040  0.4694
  288SOL    HW110723   3.084   4.717   2.341 -0.7904 -0.5228 -1.8203
  288SOL    HW210724   3.247   4.707   2.347 -0.9818 -1.5578  4.3231
  289SOL     OW10725   3.578   4.617   1.265 -0.3904  0.3003 -0.6130
  289SOL    HW110726   3.509   4.617   1.337 -0.2814  0.8157 -0.5064
  289SOL    HW210727   3.600   4.711   1.239 -1.0501  0.1108 -1.9258
  290SOL     OW10728   2.420   3.966   1.306 -0.1104  0.3177 -0.2461
  290SOL    HW110729   2.499   3.918   1.345  0.4754  0.7137 -0.9525
  290SOL    HW210730   2.402   3.932   1.214  0.1762  1.3273 -0.6667
  291SOL     OW10731   3.106   9.000   0.808  0.4467  0.1822  0.0481
  291SOL    HW110732   3.124   9.044   0.719  1.6977 -0.8990 -0.2550
  291SOL    HW210733   3.115   8.901   0.798 -1.0350 -0.0487  1.0295
  292SOL     OW10734   4.234   1.149   1.343  0.2726  0.1965 -0.3429
  292SOL    HW110735   4.262   1.060   1.380 -2.8358 -1.4524 -1.7466
  292SOL    HW210736   4.173   1.194   1.408  1.0450  0.8474 -0.0702
  293SOL     OW10737   2.815   6.646   1.299 -0.1600 -0.0914  0.8516
  293SOL    HW110738   2.768   6.726   1.262  0.3405 -0.7854 -1.3702
  293SOL    HW210739   2.873   6.674   1.376  0.4322  1.7892 -0.2355
  294SOL     OW10740   4.809   2.900   0.185 -0.3523  0.7736  0.1655
  294SOL    HW110741   4.850   2.909   0.275 -1.2336  0.4727  0.6072
  294SOL    HW210742   4.877   2.920   0.115  0.8720 -0.9159  0.8477
  295SOL     OW10743   2.713   1.449   1.461 -0.4712  0.5269  0.5608
  295SOL    HW110744   2.685   1.369   1.409 -2.6864  0.8535  1.1939
  295SOL    HW210745   2.719   1.528   1.401 -1.2223  0.5110  0.4601
  296SOL     OW10746   3.070   2.782   1.957 -0.1040 -0.3491  0.0455
  296SOL    HW110747   3.055   2.739   1.868  1.3605 -0.5455 -0.1186
  296SOL    HW210748   3.080   2.712   2.028 -0.5112 -0.2119  0.2415
  297SOL     OW10749   3.856   1.536   2.053  0.6207  0.1949 -0.2771
  297SOL    HW110750   3.910   1.602   2.001  0.3347 -0.1839 -1.0548
  297SOL    HW210751   3.904   1.448   2.057  0.1506 -0.0895 -0.8143
  298SOL     OW10752   3.987   1.201   1.098  0.2483 -0.0297  0.6549
  298SOL    HW110753   3.961   1.291   1.063  0.9223  0.5010  1.5024
  298SOL    HW210754   4.054   1.212   1.171  1.7628 -1.2986 -0.5049
  299SOL     OW10755   2.366   5.720   2.399 -0.2832 -0.3081 -0.2221
  299SOL    HW110756   2.393   5.799   2.454 -0.5994 -0.1285 -0.3244
  299SOL    HW210757   2.321   5.751   2.315  0.5595 -0.5731 -0.7797
  300SOL     OW10758   2.906   3.858   0.931  0.7308 -0.7323  0.2955
  300SOL    HW110759   2.873   3.856   0.837 -0.5687  0.3055  0.7276
  300SOL    HW210760   2.865   3.783   0.983 -1.2735  0.7721  0.9269
  301SOL     OW10761   2.555  10.110   0.403 -0.0325 -0.3979 -0.0976
  301SOL    HW110762   2.469  10.076   0.440  0.1352  0.1530  0.8204
  301SOL    HW210763   2.538  10.154   0.315 -0.3189 -2.3967 -1.0644
  302SOL     OW10764   2.828   8.202   2.433 -0.0063 -0.6444  0.2390
  302SOL    HW110765   2.740   8.245   2.415  0.4799 -0.5183 -1.9726
  302SOL    HW210766   2.863   8.160   2.349  3.2631  1.5212  0.4134
  303SOL     OW10767   3.237   8.152   2.052 -0.4969  0.0962 -0.6057
  303SOL    HW110768   3.268   8.193   1.966  1.8266 -2.0988 -0.8666
  303SOL    HW210769   3.221   8.055   2.038 -3.5372  0.3926  0.6105
  304SOL     OW10770   4.219   2.016   0.689 -0.5171 -0.0297  0.0579
  304SOL    HW110771   4.206   2.110   0.719  0.9235  0.3954 -0.6127
  304SOL    HW210772   4.228   1.956   0.768 -3.6033  0.0498  0.5234
  305SOL     OW10773   3.371   2.535   1.137 -0.2967  0.5632  0.0162
  305SOL    HW110774   3.312   2.596   1.085  0.6954  1.1084 -0.4632
  305SOL    HW210775   3.465   2.567   1.133  0.1680 -0.7647  0.1095
  306SOL     OW10776   2.907   3.572   0.296  0.2393  0.1908 -0.4208
  306SOL    HW110777   2.892   3.487   0.346 -0.2173  1.8236  2.3452
  306SOL    HW210778   3.001   3.603   0.311 -0.5120  1.7887  1.3109
  307SOL     OW10779   2.574   5.487   2.368  0.2272  0.2888  0.0129
  307SOL    HW110780   2.591   5.458   2.462 -1.0897 -3.1903 -0.7420
  307SOL    HW210781   2.484   5.531   2.363  0.7667  1.4515  0.5767
  308SOL     OW10782   4.025   5.242   1.113  0.1112 -0.1740  0.0378
  308SOL    HW110783   4.047   5.199   1.200  1.6917 -0.1036 -0.3110
  308SOL    HW210784   4.040   5.341   1.119 -0.2118 -0.1076 -0.1833
  309SOL     OW10785   3.766   1.988   0.019 -0.0800 -0.3014  0.2729
  309SOL    HW110786   3.827   1.974   0.098  1.0811 -0.3412 -0.6159
  309SOL    HW210787   3.671   1.980   0.049  0.3692 -1.7431  1.3951
  310SOL     OW10788   3.546   4.353   0.309 -0.4232  0.4236  0.3862
  310SOL    HW110789   3.625   4.413   0.303 -0.8439  0.7976 -1.9819
  310SOL    HW210790   3.510   4.353   0.402  1.7286  1.0427  1.2319
  311SOL     OW10791   2.762   3.017   1.233 -0.3892 -0.1250  0.2408
  311SOL    HW110792   2.807   3.089   1.181 -0.8423  0.5388  0.7615
  311SOL    HW210793   2.748   3.047   1.328 -3.0614  0.1834 -0.2139
  312SOL     OW10794   2.020   7.204   2.223  0.1983  0.3675 -0.3428
  312SOL    HW110795   2.028   7.105   2.230 -0.5539  0.3770  0.7003
  312SOL    HW210796   2.084   7.247   2.287 -0.2317  0.5384 -0.0225
  313SOL     OW10797   3.239   3.314   2.250 -0.1475 -0.1902 -0.5699
  313SOL    HW110798   3.264   3.250   2.323  1.4111 -0.6562 -1.4984
  313SOL    HW210799   3.141   3.304   2.229 -0.4677 -0.4851  1.0121
  314SOL     OW10800   1.884   8.925   2.052  0.3766  0.0377 -0.1487
  314SOL    HW110801   1.913   8.844   2.104 -0.3336 -0.0012  0.1940
  314SOL    HW210802   1.902   9.007   2.107  0.8784  0.1010 -0.4007
  315SOL     OW10803   2.391   6.666   0.633 -0.1753  0.4994  0.3077
  315SOL    HW110804   2.351   6.709   0.715  0.1908  1.0015  0.2244
  315SOL    HW210805   2.488   6.687   0.628  0.9831 -3.7440  2.4927
  316SOL     OW10806   2.363   5.628  -0.019 -0.4381  0.0636 -0.2171
  316SOL    HW110807   2.427   5.697   0.017 -0.5549  0.1022 -0.0812
  316SOL    HW210808   2.354   5.639  -0.118  0.1575 -0.2720 -0.3099
  317SOL     OW10809   2.677   4.864   1.549  0.3301  0.0994  0.5727
  317SOL    HW110810   2.644   4.785   1.600 -1.7110  0.7112  0.2469
  317SOL    HW210811   2.766   4.892   1.584  1.0723 -2.3203  0.6904
  318SOL     OW10812   2.450   2.269   1.680 -0.4062 -0.2832  0.3236
  318SOL    HW110813   2.462   2.225   1.590 -1.5785 -0.9765  0.5009
  318SOL    HW210814   2.398   2.208   1.740 -0.6622  0.6917  1.0896
  319SOL     OW10815   4.404   9.118   1.213 -0.3958  0.3528 -0.1846
  319SOL    HW110816   4.439   9.025   1.204 -3.0416 -0.8307  1.2194
  319SOL    HW210817   4.425   9.153   1.304 -1.8510  0.0194  0.3016
  320SOL     OW10818   4.008   3.605   0.180 -0.5987 -0.5163 -0.1171
  320SOL    HW110819   4.031   3.673   0.250 -0.9137  0.9449 -1.4093
  320SOL    HW210820   4.043   3.515   0.208  1.3757  0.5029  0.7881
  321SOL     OW10821   3.970   8.784   0.118  0.0302  0.3637  0.2289
  321SOL    HW110822   3.965   8.846   0.039  0.2803  0.0105 -0.0659
  321SOL    HW210823   3.878   8.765   0.151 -0.0776  0.4929  0.0063
  322SOL     OW10824   2.062   7.520   1.984  0.2796 -0.3622 -0.6239
  322SOL    HW110825   2.119   7.552   2.060  0.5329 -1.6518 -0.2506
  322SOL    HW210826   2.080   7.575   1.902 -0.7431  1.6946  0.5077
  323SOL     OW10827   1.867   9.498   0.902 -0.4971 -0.2578  0.1779
  323SOL    HW110828   1.810   9.419   0.877 -0.0872 -0.9084  1.2549
  323SOL    HW210829   1.963   9.471   0.900 -0.3645  0.1882  0.6555
  324SOL     OW10830   4.517   4.471   0.055  0.1592 -0.3674  0.0268
  324SOL    HW110831   4.498   4.444  -0.039  0.0370  0.6184 -0.2365
  324SOL    HW210832   4.603   4.522   0.059 -0.2385  0.2745  0.3350
  325SOL     OW10833   2.625   0.898   1.113 -0.5887 -0.1417 -0.4475
  325SOL    HW110834   2.569   0.980   1.098  0.4075  0.8216  0.9391
  325SOL    HW210835   2.676   0.877   1.029  0.0057  1.3296 -0.4724
  326SOL     OW10836   2.201   4.432   0.546  0.6026 -0.1849  0.0442
  326SOL    HW110837   2.127   4.380   0.505  0.4402 -0.9926  1.3713
  326SOL    HW210838   2.238   4.496   0.478 -1.9819  0.9746 -0.3139
  327SOL     OW10839   4.787   1.868   1.070  0.5033 -0.1302  0.3233
  327SOL    HW110840   4.817   1.886   0.976 -0.5660  0.2851  0.0498
  327SOL    HW210841   4.853   1.808   1.115  1.6630  0.6499 -0.2939
  328SOL     OW10842   3.504   2.390   2.510 -0.1389 -0.3357 -0.1876
  328SOL    HW110843   3.544   2.470   2.466 -0.9185  1.4500  2.2108
  328SOL    HW210844   3.533   2.386   2.606 -4.1488  0.0405  1.1710
  329SOL     OW10845   3.171   2.127   0.973  0.0769 -0.1857 -0.3556
  329SOL    HW110846   3.094   2.191   0.974 -0.1176 -0.3972 -1.1783
  329SOL    HW210847   3.237   2.153   1.043 -1.8749 -1.3903  2.0066
  330SOL     OW10848   2.909   5.136   0.821 -0.5397  0.2884  0.2939
  330SOL    HW110849   2.968   5.149   0.900 -0.9477  0.2176  0.6122
  330SOL    HW210850   2.819   5.104   0.851 -0.6271  0.0458 -0.2128
  331SOL     OW10851   2.805   1.822   2.262  0.6048  0.5638  0.4409
  331SOL    HW110852   2.879   1.755   2.265 -0.8476 -1.1368 -0.3895
  331SOL    HW210853   2.767   1.825   2.170 -1.7781 -0.2141  1.3559
  332SOL     OW10854   2.029   8.701   1.610  0.1656  0.1634  0.0309
  332SOL    HW110855   2.015   8.800   1.619 -0.3986  0.0042  1.0507
  332SOL    HW210856   1.994   8.655   1.692  0.9719 -0.8290 -0.1720
  333SOL     OW10857   2.449   2.379   2.327  0.1034  0.2223 -0.3293
  333SOL    HW110858   2.527   2.432   2.361  1.3297 -0.8479 -1.4239
  333SOL    HW210859   2.366   2.435   2.332  1.0539  1.6067  0.2259
  334SOL     OW10860   3.390  10.194   0.520 -0.3104 -0.8302  0.1459
  334SOL    HW110861   3.334  10.122   0.562  1.1979 -1.7581  0.6366
  334SOL    HW210862   3.474  10.153   0.484  0.8738  0.7780  0.9962
  335SOL     OW10863   4.939   2.863   0.660  0.2692  0.3300  0.5245
  335SOL    HW110864   4.901   2.771   0.664  2.4207 -0.5548  1.8541
  335SOL    HW210865   5.032   2.862   0.698  0.5992  2.9082 -0.1168
  336SOL     OW10866   1.988   6.360   1.777  0.7438 -0.2683  0.3924
  336SOL    HW110867   2.037   6.274   1.790 -0.5808 -1.3096 -1.2132
  336SOL    HW210868   1.914   6.366   1.845 -1.0692 -1.8744 -1.3590
  337SOL     OW10869   3.242   2.251   1.431  0.0633  0.1990 -0.7179
  337SOL    HW110870   3.223   2.317   1.504 -1.0106  1.2192 -1.8777
  337SOL    HW210871   3.273   2.165   1.470  0.6957  1.1284  0.8725
  338SOL     OW10872   3.267   9.091   1.412 -0.1152  0.3708  0.1913
  338SOL    HW110873   3.339   9.154   1.440 -0.8613  1.1686  0.3369
  338SOL    HW210874   3.276   9.070   1.314 -0.2201  1.1724  0.0109
  339SOL     OW10875   3.534   1.056   1.123 -0.0991  0.2687 -0.3116
  339SOL    HW110876   3.469   1.078   1.196  0.1303 -1.6801  0.5050
  339SOL    HW210877   3.583   1.139   1.096 -2.3939  1.6332 -0.4522
  340SOL     OW10878   2.068   4.090   2.256  0.1197 -0.2867  0.3070
  340SOL    HW110879   2.001   4.015   2.254  0.3207 -0.5356  2.3032
  340SOL    HW210880   2.102   4.102   2.349  1.6272  0.9437 -0.3837
  341SOL     OW10881   2.904   6.282   2.080 -0.0364  0.1121 -0.2131
  341SOL    HW110882   2.894   6.374   2.042  0.4173  1.1359  2.0523
  341SOL    HW210883   2.820   6.230   2.063 -0.2596  0.9044 -1.6063
  342SOL     OW10884   2.154  10.014   1.814  0.1483  0.3243  0.1591
  342SOL    HW110885   2.116  10.060   1.734  0.9555 -0.9399 -0.9721
  342SOL    HW210886   2.134  10.068   1.896  1.1942  2.7543 -1.1288
  343SOL     OW10887   2.079   0.902   1.650 -0.1028 -0.1800 -0.4495
  343SOL    HW110888   2.078   0.958   1.732 -0.3377 -1.0448  0.1445
  343SOL    HW210889   2.012   0.936   1.585 -0.2386  0.2305 -0.0939
  344SOL     OW10890   2.946   1.616  -0.030  0.3583 -0.2475 -0.2691
  344SOL    HW110891   2.999   1.534  -0.010  0.2029 -0.3960 -0.4581
  344SOL    HW210892   2.997   1.697  -0.000  0.2555 -0.4453  0.4515
  345SOL     OW10893   3.933   9.465   2.129 -0.2920 -0.2403  0.0734
  345SOL    HW110894   3.955   9.379   2.083  0.3047 -0.5875  0.9923
  345SOL    HW210895   3.960   9.542   2.071 -1.4794 -0.6551 -1.0623
  346SOL     OW10896   2.545   2.798   0.372  0.1890  0.7410 -0.1483
  346SOL    HW110897   2.465   2.738   0.373 -0.5507  1.7305  2.2576
  346SOL    HW210898   2.539   2.861   0.294 -0.6587 -0.1174 -0.7794
  347SOL     OW10899   3.647   0.225   1.693  0.0504 -0.3855 -0.2065
  347SOL    HW110900   3.703   0.272   1.762  1.4337  0.1367 -1.6600
  347SOL    HW210901   3.591   0.292   1.645  0.1340 -0.5663 -0.5527
  348SOL     OW10902   3.930   8.754   0.755  0.1839  0.7912  0.0948
  348SOL    HW110903   3.945   8.853   0.753 -0.4091  0.8982  0.6345
  348SOL    HW210904   3.862   8.732   0.825 -1.1764  0.2093 -1.3721
  349SOL     OW10905   4.360   1.913   0.461  0.1071 -0.7776 -0.4670
  349SOL    HW110906   4.307   1.830   0.444  0.0416 -1.1173  1.2372
  349SOL    HW210907   4.345   1.943   0.555  2.8223 -0.8234  0.0410
  350SOL     OW10908   3.425   4.308   0.583 -0.5991 -0.9490  0.2353
  350SOL    HW110909   3.444   4.381   0.648  0.2441 -1.3824  0.4790
  350SOL    HW210910   3.367   4.239   0.625 -1.8416 -0.1696 -0.1620
  351SOL     OW10911   3.292  10.003   1.941  0.1480 -0.1476  0.2783
  351SOL    HW110912   3.197   9.970   1.939  0.1022  0.0005 -0.0638
  351SOL    HW210913   3.304  10.074   1.872  0.2453  0.5740  1.0305
  352SOL     OW10914   2.921   5.404   0.648  0.2635  0.0721 -0.0079
  352SOL    HW110915   2.911   5.432   0.552  3.5307  1.0594 -0.1239
  352SOL    HW210916   2.912   5.305   0.654 -0.4753  0.0429 -1.2311
  353SOL     OW10917   3.809   0.392   1.427  0.6289  0.6376  0.1596
  353SOL    HW110918   3.826   0.490   1.412 -0.5389  0.6235 -1.5002
  353SOL    HW210919   3.717   0.379   1.464 -0.1571  0.0673 -1.8739
  354SOL     OW10920   4.647   0.791   1.592  0.4576 -0.4773  0.1639
  354SOL    HW110921   4.592   0.792   1.675 -0.2028  0.6007 -0.2806
  354SOL    HW210922   4.697   0.877   1.584 -0.5959  0.0294 -1.2914
  355SOL     OW10923   3.321   0.684   2.164  0.3118 -0.4350  0.3450
  355SOL    HW110924   3.252   0.626   2.121  0.5497  0.4301 -1.2557
  355SOL    HW210925   3.279   0.771   2.190  0.4923 -0.4177  0.5753
  356SOL     OW10926   4.006   1.794   2.330  0.1059  0.0368 -0.3454
  356SOL    HW110927   4.002   1.828   2.236  1.5101  1.8325  0.2112
  356SOL    HW210928   3.981   1.868   2.393  1.4593 -0.4818  0.8059
  357SOL     OW10929   3.593   3.067   1.298  0.6936  0.0700 -0.3589
  357SOL    HW110930   3.678   3.021   1.325  0.5440  0.5519  0.9811
  357SOL    HW210931   3.534   3.003   1.249  0.6592 -1.0696  1.1350
  358SOL     OW10932   3.036   1.859   1.671  0.1841  0.4487  0.4736
  358SOL    HW110933   3.033   1.788   1.742  0.0841  1.4865  1.5232
  358SOL    HW210934   2.975   1.935   1.697  0.4095  0.9884 -0.5568
  359SOL     OW10935   4.231   1.536   2.487  0.2175 -0.3695  0.1803
  359SOL    HW110936   4.221   1.630   2.454 -1.5136 -1.1452 -1.6183
  359SOL    HW210937   4.165   1.518   2.559  1.2160  0.0774  1.2182
  360SOL     OW10938   2.817  10.029   0.734 -0.7712  0.2182 -0.3717
  360SOL    HW110939   2.886  10.090   0.695  0.5634 -0.4678  0.8494
  360SOL    HW210940   2.734  10.081   0.753 -0.4172  1.1709 -1.3734
  361SOL     OW10941   2.330   9.001   1.071 -0.3901  0.0642  0.1011
  361SOL    HW110942   2.289   9.045   0.991 -1.1070  0.6133  0.7569
  361SOL    HW210943   2.374   8.916   1.043 -0.6689  0.2242 -0.8731
  362SOL     OW10944   3.000   2.581   0.392 -0.7137  0.0564 -0.4057
  362SOL    HW110945   3.023   2.669   0.434  0.6078 -0.6969  0.5050
  362SOL    HW210946   2.993   2.591   0.293 -0.6734  1.2000 -0.2922
  363SOL     OW10947   2.885   9.310   1.934  0.0810 -0.0396 -0.3272
  363SOL    HW110948   2.981   9.285   1.921 -0.1746 -0.6141 -1.1938
  363SOL    HW210949   2.834   9.232   1.970 -0.1944  0.0516 -0.5143
  364SOL     OW10950   2.385   7.872   0.211  0.0962 -0.5231  0.3895
  364SOL    HW110951   2.418   7.867   0.305  2.0977  0.0312 -0.2538
  364SOL    HW210952   2.406   7.963   0.174 -1.9110 -0.2606 -0.1618
  365SOL     OW10953   3.606   4.736   0.248 -0.2119  0.3660  0.3301
  365SOL    HW110954   3.593   4.800   0.324  2.1426  2.8954 -1.3082
  365SOL    HW210955   3.661   4.658   0.279 -0.9574  0.3757  1.7101
  366SOL     OW10956   3.430   5.613   2.109 -0.0259 -0.4214 -0.6592
  366SOL    HW110957   3.504   5.670   2.073  0.6749 -0.6662  0.3594
  366SOL    HW210958   3.470   5.532   2.153 -0.9247 -0.6932 -0.3464
  367SOL     OW10959   4.737   3.068   0.737  0.1027 -0.5316  0.2385
  367SOL    HW110960   4.785   2.999   0.683 -4.5303 -1.4529 -2.9467
  367SOL    HW210961   4.738   3.042   0.834  4.0736 -1.5192  0.0311
  368SOL     OW10962   3.754   7.980   1.017  0.3923  0.1170  0.0329
  368SOL    HW110963   3.735   8.074   1.047  0.9549  0.3042 -0.1847
  368SOL    HW210964   3.820   7.938   1.078  0.2623 -0.0881  0.0354
  369SOL     OW10965   3.959   0.560  -0.063 -0.4318 -0.3586 -0.2771
  369SOL    HW110966   3.984   0.533   0.030  0.4509 -0.5922 -0.5795
  369SOL    HW210967   4.011   0.641  -0.090 -1.4368  0.3180 -0.1951
  370SOL     OW10968   2.862   1.493   0.432 -0.2241 -0.4505 -0.2651
  370SOL    HW110969   2.814   1.432   0.495  0.6348 -1.2395 -0.3599
  370SOL    HW210970   2.864   1.452   0.341  1.6273 -0.9864 -0.0072
  371SOL     OW10971   3.791   1.223   1.850 -0.3719 -0.0024 -0.2312
  371SOL    HW110972   3.794   1.131   1.889 -0.2932 -0.1472 -0.5798
  371SOL    HW210973   3.791   1.290   1.924 -2.0093 -0.3092  0.0725
  372SOL     OW10974   5.262   4.693  -0.086  0.2864  0.5952  0.3878
  372SOL    HW110975   5.244   4.705  -0.184  2.3601  1.7302  0.1369
  372SOL    HW210976   5.212   4.762  -0.034  2.1452  2.3872 -0.1573
  373SOL     OW10977   2.274   0.598   1.068 -0.1971  0.3027  0.4127
  373SOL    HW110978   2.274   0.678   1.129  2.2012 -0.2676  1.2121
  373SOL    HW210979   2.288   0.628   0.974 -0.3223  0.8977  0.5786
  374SOL     OW10980   2.421   3.227   0.348 -0.4588  0.0491  0.0854
  374SOL    HW110981   2.473   3.250   0.430  0.9897 -1.1394 -0.4883
  374SOL    HW210982   2.468   3.155   0.297 -3.5591 -2.3848  0.4883
  375SOL     OW10983   4.757   3.696   1.296 -0.2366  0.3481 -0.3434
  375SOL    HW110984   4.789   3.601   1.296 -0.1673  0.3564  2.5694
  375SOL    HW210985   4.832   3.757   1.324 -0.2924  1.2982 -2.1551
  376SOL     OW10986   3.870   2.133   1.637 -0.2959  0.2947  0.0665
  376SOL    HW110987   3.887   2.038   1.610 -1.7996  0.2671 -0.8129
  376SOL    HW210988   3.776   2.158   1.615 -0.0668  1.8344  0.7728
  377SOL     OW10989   4.598   3.635   0.449  0.0612  0.2675 -0.3394
  377SOL    HW110990   4.536   3.707   0.482  0.6100  0.5518  0.0953
  377SOL    HW210991   4.584   3.552   0.504  0.1238  0.3589 -0.1827
  378SOL     OW10992   2.333   6.418   0.775 -0.3105 -0.0384  0.2149
  378SOL    HW110993   2.319   6.483   0.700 -1.6206 -0.6068 -0.0525
  378SOL    HW210994   2.357   6.468   0.858  1.8970  0.5485 -0.7491
  379SOL     OW10995   3.950   5.401   0.186 -0.2854 -0.4086 -0.0392
  379SOL    HW110996   3.874   5.444   0.235  1.0919  1.0235  0.9105
  379SOL    HW210997   3.915   5.330   0.125 -2.2537 -0.7225  1.3913
  380SOL     OW10998   4.566   5.290   2.543 -0.4866 -0.3581 -0.1101
  380SOL    HW110999   4.471   5.299   2.513 -0.8609  1.3022  1.4699
  380SOL    HW211000   4.573   5.317   2.639  1.2209 -2.5482  0.4176
  381SOL     OW11001   2.833   7.684   1.051 -0.2006 -0.1662  0.1016
  381SOL    HW111002   2.927   7.718   1.040  0.0801  0.3705  3.5034
  381SOL    HW211003   2.834   7.605   1.113 -1.7762 -1.5342 -1.5595
  382SOL     OW11004   3.095   8.733   0.771  0.1568 -0.5917 -0.3935
  382SOL    HW111005   3.013   8.681   0.796 -0.7951  0.9454 -0.2449
  382SOL    HW211006   3.138   8.691   0.690  0.0880 -2.2880  0.4295
  383SOL     OW11007   3.261   2.339   2.183 -0.2551 -0.3129  0.0735
  383SOL    HW111008   3.224   2.292   2.262  0.5750 -0.1200  0.5863
  383SOL    HW211009   3.358   2.318   2.174  0.4424  2.3035  1.0873
  384SOL     OW11010   3.974   9.908   0.769 -0.3886  0.0745  0.4168
  384SOL    HW111011   3.877   9.899   0.748 -0.1217  1.9036 -1.7934
  384SOL    HW211012   3.987   9.977   0.841 -0.7187 -0.0448  0.5890
  385SOL     OW11013   2.436   8.313   0.480  0.6395  1.0334  0.3841
  385SOL    HW111014   2.418   8.371   0.560  1.6040 -0.1143  1.4439
  385SOL    HW211015   2.408   8.219   0.500 -2.8538  1.4487 -2.0447
  386SOL     OW11016   2.399   1.102   0.642 -0.0323 -0.3446  0.5038
  386SOL    HW111017   2.446   1.086   0.555  0.2714  0.1161  0.5805
  386SOL    HW211018   2.433   1.186   0.683 -0.6670 -0.1987  0.7382
  387SOL     OW11019   4.843   4.214   2.060 -0.2552 -0.3647 -0.2443
  387SOL    HW111020   4.788   4.155   2.119 -0.4794  0.6656  0.5810
  387SOL    HW211021   4.907   4.158   2.007 -2.0832 -1.5841 -1.2190
  388SOL     OW11022   3.697   2.459   1.716 -0.1772 -0.2218  0.0225
  388SOL    HW111023   3.787   2.494   1.689 -1.9027  2.5493 -2.3773
  388SOL    HW211024   3.662   2.399   1.644 -1.3896  0.8351 -0.2674
  389SOL     OW11025   2.306   8.452   0.045  0.1529 -0.0440 -0.6967
  389SOL    HW111026   2.250   8.439   0.126  0.5409 -0.5329 -0.5018
  389SOL    HW211027   2.251   8.433  -0.037  0.4681 -2.2430 -0.4477
  390SOL     OW11028   4.026   4.736   2.563 -0.4465  0.4173 -0.2707
  390SOL    HW111029   4.064   4.783   2.642 -1.4578 -1.0459  1.1442
  390SOL    HW211030   4.072   4.648   2.551 -2.2952 -0.7191  0.5801
  391SOL     OW11031   3.880   8.217   2.095  0.2968 -0.8638 -0.3649
  391SOL    HW111032   3.886   8.227   2.195 -1.7957  1.8057 -0.4392
  391SOL    HW211033   3.814   8.145   2.073 -0.4472 -0.3744  0.2082
  392SOL     OW11034   3.127   7.956   2.498  0.2604 -0.0594 -0.2156
  392SOL    HW111035   3.066   7.897   2.446 -1.1917  0.4562  0.8705
  392SOL    HW211036   3.105   7.951   2.595  0.7999  1.4544  0.0100
  393SOL     OW11037   3.594   9.529   1.631 -0.1145 -0.3630 -0.3039
  393SOL    HW111038   3.594   9.622   1.594 -2.0809 -0.6285 -0.9972
  393SOL    HW211039   3.515   9.479   1.597 -0.0865 -1.7212  1.5236
  394SOL     OW11040   3.832   5.384   0.865  0.3954 -0.8724  0.1351
  394SOL    HW111041   3.869   5.291   0.862  0.1143 -1.0634  1.7001
  394SOL    HW211042   3.799   5.410   0.775  0.7576 -2.1877 -0.3895
  395SOL     OW11043   2.528   4.979   1.258  0.0336 -0.1466 -0.1490
  395SOL    HW111044   2.616   5.010   1.295 -1.2556  0.6854  2.3096
  395SOL    HW211045   2.463   4.967   1.333 -1.6177 -1.9187 -1.8139
  396SOL     OW11046   2.885   0.716   0.083 -0.0041 -0.2003 -0.0534
  396SOL    HW111047   2.837   0.630   0.104  0.1749 -0.1122  0.7530
  396SOL    HW211048   2.968   0.722   0.139 -0.4476  0.8790  0.5046
  397SOL     OW11049   1.795   9.621   1.936  0.5014  0.1615  0.2768
  397SOL    HW111050   1.800   9.632   2.035  0.6174  0.2704  0.2589
  397SOL    HW211051   1.776   9.525   1.915  0.8113  0.0728  0.3976
  398SOL     OW11052   3.504   8.811   2.030 -0.4666 -0.6323  0.0719
  398SOL    HW111053   3.535   8.883   2.093  0.6115 -2.5208  1.7561
  398SOL    HW211054   3.547   8.724   2.054 -0.8690 -1.6414 -2.6501
  399SOL     OW11055   2.706   5.630   2.188  0.7799  0.1761  0.4503
  399SOL    HW111056   2.666   5.570   2.256  2.8447 -1.7674 -0.0036
  399SOL    HW211057   2.781   5.682   2.229  0.0306  1.2830  0.4339
  400SOL     OW11058   3.197   9.538   0.351  0.1553 -0.3297 -0.3117
  400SOL    HW111059   3.117   9.582   0.312  2.0359  2.7500 -0.8497
  400SOL    HW211060   3.203   9.559   0.449  0.0466 -0.9807 -0.1612
  401SOL     OW11061   4.319   9.347   0.291 -0.2418 -0.4588 -0.2385
  401SOL    HW111062   4.369   9.260   0.299  1.0452  0.2831 -0.1401
  401SOL    HW211063   4.291   9.361   0.196  1.5205  0.0934 -0.6910
  402SOL     OW11064   2.136   8.615   2.450 -0.1333 -0.2006 -0.4091
  402SOL    HW111065   2.134   8.524   2.493  2.3309 -0.1501 -0.1296
  402SOL    HW211066   2.138   8.605   2.351  0.0118 -0.4614 -0.3816
  403SOL     OW11067   2.050   9.157   1.558  0.2483 -0.0667 -0.0421
  403SOL    HW111068   2.038   9.088   1.488 -1.7907  0.3083 -0.0979
  403SOL    HW211069   2.070   9.113   1.646  1.0299 -0.6214 -0.5017
  404SOL     OW11070   2.402   4.318   0.087  0.1136 -0.7588 -0.0303
  404SOL    HW111071   2.315   4.335   0.040 -0.3944 -0.2685  1.0885
  404SOL    HW211072   2.432   4.400   0.134  0.8032 -1.1547  0.2343
  405SOL     OW11073   2.252   9.305   2.109 -0.0681  0.4771  0.1427
  405SOL    HW111074   2.338   9.261   2.134 -1.1080  0.4645  4.1797
  405SOL    HW211075   2.265   9.404   2.105  0.4358  0.3811 -0.5561
  406SOL     OW11076   4.148   4.196   1.177  0.2892  0.1165  0.2807
  406SOL    HW111077   4.195   4.201   1.265  1.2129  0.4044 -0.2245
  406SOL    HW211078   4.142   4.287   1.137 -0.4386  0.0382  0.1945
  407SOL     OW11079   3.581   8.471   1.035 -0.1573  0.0682  0.0272
  407SOL    HW111080   3.646   8.405   1.072 -0.9260 -0.3608  0.6369
  407SOL    HW211081   3.495   8.425   1.013 -1.0099  1.0072  1.2776
  408SOL     OW11082   4.341   3.927   1.289 -0.6009  0.2284 -0.1792
  408SOL    HW111083   4.281   3.850   1.271 -0.0082 -0.2908  0.0648
  408SOL    HW211084   4.287   4.002   1.329 -1.1753 -0.0414 -0.4380
  409SOL     OW11085   3.333   3.320  -0.022  0.2486 -0.4407  0.1329
  409SOL    HW111086   3.272   3.399  -0.012  1.8133  0.9560 -1.1607
  409SOL    HW211087   3.427   3.348  -0.004  0.9928 -1.6753 -1.7301
  410SOL     OW11088   2.668   6.785   0.611  0.1029 -0.1714  0.4805
  410SOL    HW111089   2.622   6.872   0.589 -1.1420 -1.1194 -0.7843
  410SOL    HW211090   2.704   6.789   0.705 -1.1137  1.2224  0.9118
  411SOL     OW11091   3.790   4.495   1.461 -0.4095 -0.5144 -0.0260
  411SOL    HW111092   3.773   4.537   1.550 -2.0466 -2.6440  0.7213
  411SOL    HW211093   3.740   4.545   1.390  2.6507  2.5382 -0.1534
  412SOL     OW11094   1.977   8.946   1.777 -0.5934  0.1736 -0.6410
  412SOL    HW111095   1.880   8.925   1.795 -0.1231 -1.5921 -0.0290
  412SOL    HW211096   2.023   8.968   1.863  0.0954 -1.4372 -0.5817
  413SOL     OW11097   2.902   3.228   1.160  0.5650  0.2612 -0.0628
  413SOL    HW111098   2.980   3.275   1.201  1.7995  0.8007 -2.8606
  413SOL    HW211099   2.852   3.291   1.101 -2.6206  0.1765  2.4385
  414SOL     OW11100   2.554   2.489   1.227  1.0009  0.0535  0.8103
  414SOL    HW111101   2.581   2.493   1.131  1.3141  0.1033  0.9016
  414SOL    HW211102   2.592   2.568   1.276  0.9113 -0.0172  0.9952
  415SOL     OW11103   2.314   8.792   1.495  0.4174 -0.2210  0.6097
  415SOL    HW111104   2.250   8.789   1.571 -2.5924  0.0816 -1.7976
  415SOL    HW211105   2.297   8.874   1.441  1.0987 -1.4470 -1.5318
  416SOL     OW11106   3.303   2.219   2.548  0.3769 -0.6701  0.0531
  416SOL    HW111107   3.285   2.222   2.646  0.2082 -0.2471  0.0082
  416SOL    HW211108   3.376   2.282   2.525  0.6163 -0.9827 -0.0526
  417SOL     OW11109   2.347   2.321   1.264 -0.3173 -0.0858  0.5303
  417SOL    HW111110   2.263   2.373   1.247 -0.3449  0.0613  1.1044
  417SOL    HW211111   2.425   2.371   1.226 -0.6796 -1.0715 -1.5732
  418SOL     OW11112   2.014   7.900   1.852 -0.0847 -0.2475 -0.0170
  418SOL    HW111113   2.112   7.918   1.846 -0.1234 -0.6167 -2.2005
  418SOL    HW211114   1.996   7.804   1.831 -1.0706  0.2709 -1.6064
  419SOL     OW11115   3.412   9.099  -0.078 -0.1279 -0.1232  0.1925
  419SOL    HW111116   3.486   9.039  -0.050 -0.6453 -1.5879 -1.4800
  419SOL    HW211117   3.325   9.063  -0.044 -0.3810 -0.0278 -0.3458
  420SOL     OW11118   4.231   3.147  -0.075 -0.3310  0.1456 -0.1924
  420SOL    HW111119   4.299   3.174  -0.143  0.4651  0.7274  0.8192
  420SOL    HW211120   4.193   3.229  -0.031 -0.4317 -0.2421  0.4493
  421SOL     OW11121   2.407   9.276   1.803 -0.0022  0.3568  0.1840
  421SOL    HW111122   2.313   9.274   1.839 -0.1769  2.2901 -0.1026
  421SOL    HW211123   2.404   9.276   1.703  0.3582 -0.8057  0.1641
  422SOL     OW11124   1.956   8.355   1.817 -0.3439  0.3847  0.7045
  422SOL    HW111125   1.885   8.396   1.760 -0.4620 -0.6088  0.1201
  422SOL    HW211126   1.916   8.282   1.873  0.5578 -1.5437 -1.0848
  423SOL     OW11127   4.281   2.962   1.091 -0.5042 -0.2029 -0.5470
  423SOL    HW111128   4.214   2.888   1.085  0.4894 -1.1523 -0.2412
  423SOL    HW211129   4.367   2.926   1.127 -0.2439  1.2745  0.3520
  424SOL     OW11130   2.729   5.744   0.500  0.4674 -0.5385 -0.7087
  424SOL    HW111131   2.764   5.821   0.553 -0.2156 -1.1701  0.6783
  424SOL    HW211132   2.691   5.675   0.562 -0.1731 -1.3720 -2.0040
  425SOL     OW11133   2.688   4.590   0.307  0.1649  0.1047  0.6093
  425SOL    HW111134   2.768   4.649   0.314 -0.0578  0.4314  0.4206
  425SOL    HW211135   2.711   4.497   0.336  1.0230 -0.1642 -0.8716
  426SOL     OW11136   1.969   9.017   0.717  0.2840 -0.2605  0.1660
  426SOL    HW111137   1.934   9.070   0.794 -0.0071  0.2581 -0.3125
  426SOL    HW211138   2.061   9.049   0.694  0.6889 -0.9644  0.8094
  427SOL     OW11139   3.854  10.087   1.588 -0.6357  0.5653  0.1960
  427SOL    HW111140   3.814  10.010   1.539 -0.3024 -0.3950  1.4010
  427SOL    HW211141   3.782  10.148   1.620 -1.0715 -0.4999  1.2796
  428SOL     OW11142   4.056   9.184   2.072 -0.1435  1.0684 -0.4958
  428SOL    HW111143   4.027   9.088   2.072  1.7365  0.4972 -1.1136
  428SOL    HW211144   4.060   9.218   1.979 -0.8366  1.7789 -0.2765
  429SOL     OW11145   4.806   2.276   1.632  0.3356 -0.5619  0.4460
  429SOL    HW111146   4.716   2.314   1.608  0.5847 -1.0028 -1.2448
  429SOL    HW211147   4.795   2.207   1.704 -0.3496  1.2985  2.1788
  430SOL     OW11148   4.155  10.018   1.303  0.3478  0.3717  0.7084
  430SOL    HW111149   4.111  10.090   1.357 -1.2436 -0.4486  0.5260
  430SOL    HW211150   4.086   9.955   1.268  1.4507  0.4268 -1.6381
  431SOL     OW11151   3.204   8.880   2.101 -0.6050  0.0093 -0.0046
  431SOL    HW111152   3.266   8.881   2.180 -0.2085 -0.8035 -0.3000
  431SOL    HW211153   3.255   8.856   2.019 -1.0603  0.6555 -0.4763
  432SOL     OW11154   2.883  10.062   2.522  0.4908 -0.1743  0.1438
  432SOL    HW111155   2.957  10.065   2.589 -1.5412 -2.4082  2.6067
  432SOL    HW211156   2.901   9.988   2.456  1.2116  0.3383 -0.2436
  433SOL     OW11157   1.925   9.424   1.213  0.0158 -0.0848  0.3277
  433SOL    HW111158   1.965   9.358   1.149  0.9897  0.9086 -0.1108
  433SOL    HW211159   1.929   9.516   1.172  2.5227  0.8861  2.6570
  434SOL     OW11160   3.272   8.630   1.191 -0.6952 -0.7975 -0.1135
  434SOL    HW111161   3.262   8.723   1.227  0.8573 -0.3410 -0.8309
  434SOL    HW211162   3.302   8.634   1.096  0.7227 -2.0255  0.2641
  435SOL     OW11163   2.592   3.296   0.544  0.0690 -0.2623 -0.6936
  435SOL    HW111164   2.672   3.344   0.507  0.0885 -0.8995 -1.5026
  435SOL    HW211165   2.615   3.260   0.635  0.0168  1.3158 -0.0337
  436SOL     OW11166   4.426   1.859   0.818 -0.4519 -0.1135  0.1970
  436SOL    HW111167   4.467   1.776   0.855 -1.8114 -0.3896  1.1201
  436SOL    HW211168   4.496   1.911   0.769  1.2344 -0.1483  2.4271
  437SOL     OW11169   2.272   7.954   1.943 -0.0425 -0.8548 -0.0815
  437SOL    HW111170   2.241   8.028   2.004 -0.6983  0.6811 -2.2363
  437SOL    HW211171   2.337   7.896   1.993 -1.5143 -0.3971  2.4899
  438SOL     OW11172   3.536   5.435   0.231 -0.0158  0.3001  0.0223
  438SOL    HW111173   3.498   5.401   0.144  1.0061 -1.0769  0.0936
  438SOL    HW211174   3.595   5.513   0.213  0.5013 -0.2225 -0.5736
  439SOL     OW11175   2.942   2.304   1.080 -0.4648 -0.0705  0.0604
  439SOL    HW111176   2.971   2.326   0.986 -0.1531  1.3653  0.4781
  439SOL    HW211177   2.854   2.257   1.077 -1.9468  2.6501 -0.8361
  440SOL     OW11178   2.525   5.591   1.367 -0.5777  0.1901  0.1669
  440SOL    HW111179   2.612   5.638   1.355  0.6249 -1.4346  2.0925
  440SOL    HW211180   2.531   5.499   1.328 -0.3938 -0.9783  2.7941
  441SOL     OW11181   2.360   7.203   0.350 -0.1458  0.0947 -0.0954
  441SOL    HW111182   2.420   7.158   0.284 -0.6399 -0.4899 -0.1517
  441SOL    HW211183   2.415   7.251   0.418  0.4134  3.2117 -2.5706
  442SOL     OW11184   2.802   0.351   1.465  0.5795 -0.0292 -0.5188
  442SOL    HW111185   2.834   0.435   1.507  0.6290 -1.0454  1.5333
  442SOL    HW211186   2.715   0.367   1.419  0.4127  1.0502  0.1673
  443SOL     OW11187   2.281   9.749   0.111 -0.1819  0.9182 -0.3237
  443SOL    HW111188   2.210   9.691   0.070 -1.2191  2.8418 -1.3348
  443SOL    HW211189   2.239   9.809   0.179  0.8304  0.6947  0.5062
  444SOL     OW11190   4.225   8.752   0.898  0.4680  0.0979  0.1157
  444SOL    HW111191   4.258   8.714   0.811 -1.0120 -0.7659 -0.0871
  444SOL    HW211192   4.178   8.838   0.880  0.0540 -0.1419  0.0418
  445SOL     OW11193   3.180   9.263   0.925 -0.2899  0.1227 -0.1255
  445SOL    HW111194   3.161   9.192   0.857 -2.2403  1.0208 -0.5414
  445SOL    HW211195   3.098   9.281   0.978 -0.4308  3.4682 -1.3374
  446SOL     OW11196   3.263   1.680   1.991  0.1011  0.4055  0.5487
  446SOL    HW111197   3.312   1.762   1.959  0.2343  0.6108  1.2742
  446SOL    HW211198   3.197   1.653   1.922  0.8417  0.4624 -0.1949
  447SOL     OW11199   2.462   6.285   0.196  0.0748 -0.0124 -0.3247
  447SOL    HW111200   2.529   6.275   0.122  0.1364 -1.6601 -0.0580
  447SOL    HW211201   2.511   6.299   0.282  0.0238  0.9738 -0.4544
  448SOL     OW11202   2.864   8.673   0.170 -0.0605  0.0321  0.3553
  448SOL    HW111203   2.884   8.598   0.233 -1.2110 -1.2628 -0.7970
  448SOL    HW211204   2.788   8.727   0.205  2.2089  2.0742  2.3285
  449SOL     OW11205   1.843   7.316   1.020 -0.1997  0.5226  0.0382
  449SOL    HW111206   1.838   7.236   1.080 -2.5759  1.1696  0.7339
  449SOL    HW211207   1.751   7.350   1.002  0.5707  1.1849 -2.8572
  450SOL     OW11208   3.659   1.301   1.044 -0.1214 -0.1163  0.8895
  450SOL    HW111209   3.749   1.343   1.057  0.1636 -0.6337  0.5962
  450SOL    HW211210   3.595   1.370   1.011  0.7005 -0.2218 -1.0156
  451SOL     OW11211   3.093   5.623   1.267 -0.3558  0.2990 -0.2483
  451SOL    HW111212   3.034   5.549   1.236 -1.3814  0.6122  0.8935
  451SOL    HW211213   3.039   5.688   1.321  1.1020  0.3958  1.1366
  452SOL     OW11214   2.065   9.214   1.040 -0.2755  0.3558  0.1522
  452SOL    HW111215   2.142   9.241   0.983  0.2129  2.7068  1.8928
  452SOL    HW211216   2.085   9.126   1.083  0.8154  0.2613 -0.5216
  453SOL     OW11217   2.483   8.108   0.088 -0.0228 -0.4498  0.3138
  453SOL    HW111218   2.521   8.196   0.116 -2.3499  0.9407 -0.8287
  453SOL    HW211219   2.441   8.116  -0.002  1.9229 -3.3719 -0.9464
  454SOL     OW11220   4.292   1.845   2.486  0.1327  0.4393  0.3653
  454SOL    HW111221   4.194   1.856   2.501  0.2246  0.8392  0.6667
  454SOL    HW211222   4.341   1.851   2.573  0.7648  3.7935 -0.1347
  455SOL     OW11223   2.774   7.231   1.659  0.0146 -0.1823 -0.4121
  455SOL    HW111224   2.830   7.304   1.698 -0.5492  0.3122 -0.5244
  455SOL    HW211225   2.697   7.212   1.719  0.5687 -1.2153 -0.0054
  456SOL     OW11226   1.902   8.937   0.472  0.0103  0.1052  0.1225
  456SOL    HW111227   1.827   8.986   0.428 -0.2632  0.5314  1.0430
  456SOL    HW211228   1.906   8.963   0.569  2.7409  1.8114 -0.3950
  457SOL     OW11229   4.670   1.878   2.514  0.0239 -0.2385  0.3748
  457SOL    HW111230   4.751   1.927   2.546  1.9936 -1.8544 -1.9937
  457SOL    HW211231   4.697   1.791   2.474 -3.1781 -2.0792  2.0288
  458SOL     OW11232   3.960   9.652   0.885 -0.2679 -0.1826 -0.1600
  458SOL    HW111233   3.983   9.722   0.818  1.9968  0.7936  1.5539
  458SOL    HW211234   3.938   9.694   0.973 -1.3206 -1.5003  0.2291
  459SOL     OW11235   2.035   0.615   1.710 -0.3785 -0.0729 -0.1625
  459SOL    HW111236   1.944   0.656   1.714 -0.0444  0.9350 -1.9753
  459SOL    HW211237   2.103   0.687   1.693  0.8559 -0.7131  1.9852
  460SOL     OW11238   2.520   9.228   2.177 -0.4799 -0.6725 -0.3203
  460SOL    HW111239   2.537   9.305   2.116  0.2955 -1.9558 -1.7522
  460SOL    HW211240   2.584   9.154   2.156 -0.3114 -1.2142  1.9348
  461SOL     OW11241   1.870   7.439   2.169 -0.2072  0.8753 -0.0014
  461SOL    HW111242   1.930   7.463   2.092 -0.3361  0.3378 -0.2714
  461SOL    HW211243   1.887   7.344   2.195 -0.2082  1.0386  0.5970
  462SOL     OW11244   2.331   2.114   0.811  0.3100  0.0331  0.0099
  462SOL    HW111245   2.318   2.173   0.731  0.6798  2.0874  1.4236
  462SOL    HW211246   2.254   2.050   0.818  0.2539 -0.1523 -1.9464
  463SOL     OW11247   3.947   8.855   1.150  0.6274  0.2306 -0.1629
  463SOL    HW111248   4.034   8.848   1.200  0.9587 -0.1930 -0.7949
  463SOL    HW211249   3.953   8.929   1.083 -0.0738  1.2901  0.9207
  464SOL     OW11250   2.983   5.036   1.317  0.4890 -0.2735  0.0215
  464SOL    HW111251   2.966   4.940   1.335  1.5413 -1.0250 -2.7718
  464SOL    HW211252   2.898   5.080   1.287 -0.1489 -0.1287  1.9515
  465SOL     OW11253   3.126   3.634   1.932 -0.2296 -0.2903 -0.1768
  465SOL    HW111254   3.131   3.539   1.900 -0.0939  0.0201 -1.1037
  465SOL    HW211255   3.062   3.640   2.009 -1.4519 -0.8669 -1.1325
  466SOL     OW11256   3.438   8.406   2.312  0.5894  0.0303 -0.1830
  466SOL    HW111257   3.349   8.389   2.270  1.1527  1.4377 -2.0085
  466SOL    HW211258   3.495   8.324   2.304 -0.7907 -1.1788  1.7650
  467SOL     OW11259   3.295   3.928   2.247  0.3651 -0.3549 -0.1202
  467SOL    HW111260   3.365   3.938   2.317 -0.7043  1.3504  0.7500
  467SOL    HW211261   3.205   3.925   2.291 -0.1257 -3.0096 -1.1696
  468SOL     OW11262   3.618  10.102   0.406 -0.0119 -0.0402 -0.0325
  468SOL    HW111263   3.638  10.050   0.323  2.2592  0.7363 -0.0095
  468SOL    HW211264   3.704  10.135   0.446 -1.0679 -0.3842  2.6176
  469SOL     OW11265   4.173   8.608   0.214  0.1357 -0.4776  0.5396
  469SOL    HW111266   4.240   8.589   0.143 -0.6142 -0.4575 -0.1730
  469SOL    HW211267   4.104   8.672   0.180 -0.1852 -0.3984  1.3089
  470SOL     OW11268   2.676   9.804   2.270 -0.7393  0.4617  0.2047
  470SOL    HW111269   2.669   9.711   2.307 -1.2151  1.1010  1.7738
  470SOL    HW211270   2.615   9.813   2.191 -1.1561 -0.3895  0.4206
  471SOL     OW11271   4.073   9.908   0.339  0.4736  0.3593  0.6818
  471SOL    HW111272   4.088   9.933   0.243  2.1140  0.0524  0.8480
  471SOL    HW211273   4.124   9.825   0.361 -1.3878 -0.6475  1.3442
  472SOL     OW11274   3.690   1.510   0.220  0.5792  0.1705  0.3554
  472SOL    HW111275   3.734   1.478   0.303  1.4331 -1.3830 -0.6620
  472SOL    HW211276   3.740   1.588   0.183  1.4574 -0.4671  0.1729
  473SOL     OW11277   4.711   1.226   0.728 -0.2299 -0.0136 -0.2644
  473SOL    HW111278   4.642   1.219   0.655 -0.4606  1.5433 -0.2112
  473SOL    HW211279   4.770   1.145   0.726 -0.7525 -0.3737 -1.6522
  474SOL     OW11280   2.734   7.930   2.516 -0.1457 -0.0826  0.0160
  474SOL    HW111281   2.719   8.027   2.532 -1.2704  0.2735 -2.7748
  474SOL    HW211282   2.828   7.916   2.485 -0.1348  0.1877 -0.0752
  475SOL     OW11283   4.155   4.896   0.116 -0.2188 -0.1143 -0.1491
  475SOL    HW111284   4.205   4.817   0.149 -0.9429 -0.7731 -0.6157
  475SOL    HW211285   4.125   4.952   0.193 -1.2286 -1.2255  0.2789
  476SOL     OW11286   1.783   8.134   2.212  0.3967  0.6887 -0.1111
  476SOL    HW111287   1.693   8.143   2.254  0.4547  1.0693 -0.0684
  476SOL    HW211288   1.845   8.201   2.252  0.9991 -0.3144  0.6684
  477SOL     OW11289   2.875   3.632   1.053 -0.5020  0.2913 -0.0499
  477SOL    HW111290   2.782   3.635   1.090 -0.7876  1.3071 -0.8432
  477SOL    HW211291   2.934   3.582   1.117 -1.2864  0.8554  1.1304
  478SOL     OW11292   3.912   0.927   1.096 -0.2529  0.3898  0.0357
  478SOL    HW111293   3.825   0.906   1.052 -0.6076 -0.2864  1.0303
  478SOL    HW211294   3.923   1.026   1.103 -1.6361  0.4709  1.2257
  479SOL     OW11295   4.473   2.218   2.188 -0.7756  0.0572  0.1183
  479SOL    HW111296   4.467   2.308   2.232 -0.9144 -0.0031  0.2217
  479SOL    HW211297   4.499   2.150   2.257  0.0997  0.1513 -0.1139
  480SOL     OW11298   3.510   8.275   0.569  0.7150 -0.0254  0.0074
  480SOL    HW111299   3.492   8.369   0.539  1.6528  0.3380  0.5696
  480SOL    HW211300   3.602   8.248   0.542  0.5581 -0.6777  0.1110
  481SOL     OW11301   2.539   3.495   1.987  0.3400 -0.0327 -0.2676
  481SOL    HW111302   2.490   3.538   1.912 -1.1188 -1.0565  0.0655
  481SOL    HW211303   2.604   3.560   2.027 -0.3353  1.1620 -1.0976
  482SOL     OW11304   1.992   3.565   0.668 -0.3587  0.0464 -0.0786
  482SOL    HW111305   1.967   3.662   0.669 -0.4457  0.0227 -0.0312
  482SOL    HW211306   1.917   3.510   0.704 -0.5834 -0.1003 -0.7561
  483SOL     OW11307   2.929   4.378   1.456 -0.2695  0.3667  0.3153
  483SOL    HW111308   2.836   4.344   1.474 -1.0082  2.4352  0.5645
  483SOL    HW211309   2.962   4.427   1.536  0.5642  0.6556 -0.2039
  484SOL     OW11310   3.336   2.685   2.457 -0.2292  0.1682  0.1511
  484SOL    HW111311   3.282   2.636   2.525  0.5560 -1.2195 -0.2059
  484SOL    HW211312   3.416   2.630   2.433  0.6853  1.6543 -0.2296
  485SOL     OW11313   3.380   4.270   1.445 -0.3329  0.6291  0.1008
  485SOL    HW111314   3.382   4.360   1.488  0.6562  0.2444  0.8618
  485SOL    HW211315   3.463   4.220   1.467  0.4964  0.6438 -2.7691
  486SOL     OW11316   3.637  10.113   1.055  0.2090  0.7656  0.0805
  486SOL    HW111317   3.704  10.118   0.981  1.3736  0.3607  1.0966
  486SOL    HW211318   3.668  10.168   1.133 -0.7739  0.7974  0.4629
  487SOL     OW11319   3.053   5.160   1.047  0.7535 -0.6611  0.0937
  487SOL    HW111320   3.133   5.141   1.104  0.4023 -1.7441  0.2503
  487SOL    HW211321   2.990   5.083   1.053  0.1550 -0.2442 -0.8034
  488SOL     OW11322   2.434   4.010   0.062 -0.0156 -0.0353  0.1569
  488SOL    HW111323   2.502   3.974  -0.001  1.4997  1.0766  1.1057
  488SOL    HW211324   2.454   4.107   0.080 -1.2501  0.0339  1.2238
  489SOL     OW11325   2.506   5.910   1.191 -0.1466  0.0309 -0.6617
  489SOL    HW111326   2.434   5.880   1.253  0.7829  0.8888  0.8486
  489SOL    HW211327   2.535   6.003   1.215  2.1546 -0.6708 -0.6023
  490SOL     OW11328   4.094   1.473   1.240 -0.4438  0.1397 -0.5104
  490SOL    HW111329   4.111   1.562   1.284 -0.3975 -0.0391 -0.1678
  490SOL    HW211330   4.094   1.401   1.309  0.7074 -0.2800 -0.9334
  491SOL     OW11331   4.075  10.093   0.534 -0.0228  0.6654 -0.5328
  491SOL    HW111332   4.067  10.036   0.616  1.8392  0.8795 -0.1658
  491SOL    HW211333   4.082  10.034   0.454  0.4428  0.3988 -0.3003
  492SOL     OW11334   3.175   5.679   2.012 -0.5367  0.4137 -0.5986
  492SOL    HW111335   3.261   5.667   2.061 -1.2453  0.5266  0.7109
  492SOL    HW211336   3.165   5.775   1.985 -0.6623  0.5848  0.0486
  493SOL     OW11337   2.495   5.899   2.581 -0.0317 -0.8028 -0.1567
  493SOL    HW111338   2.558   5.976   2.568 -2.6778  1.4607 -0.0359
  493SOL    HW211339   2.514   5.856   2.670  1.7482 -0.5961 -0.4076
  494SOL     OW11340   3.039  10.095   2.129  0.3726 -0.5433  0.3190
  494SOL    HW111341   3.049  10.038   2.048  0.5855  0.5194 -0.4159
  494SOL    HW211342   3.020  10.038   2.208 -2.3201 -1.4209 -0.9134
  495SOL     OW11343   3.961   4.037   0.460  0.0232  0.1927 -0.4709
  495SOL    HW111344   3.918   4.123   0.433 -0.9058 -0.1037  0.0475
  495SOL    HW211345   3.896   3.982   0.512  0.6519 -0.7757 -0.6943
  496SOL     OW11346   3.852   0.405   0.257 -0.1551  0.0361 -0.2831
  496SOL    HW111347   3.939   0.455   0.261 -0.0463 -0.1248 -0.6174
  496SOL    HW211348   3.838   0.357   0.343 -0.3521  0.7931  0.1144
  497SOL     OW11349   4.218   3.873   0.169 -0.1689  0.2033  0.2451
  497SOL    HW111350   4.194   3.820   0.250  1.3152  1.1321  1.3206
  497SOL    HW211351   4.196   3.969   0.183  2.9152  0.8964  0.8240
  498SOL     OW11352   3.209   4.409   0.362  0.4228 -0.3525 -0.6979
  498SOL    HW111353   3.265   4.457   0.294 -0.6738  1.1462 -0.5735
  498SOL    HW211354   3.199   4.467   0.443 -0.3749 -1.0793 -0.2681
  499SOL     OW11355   4.088   4.954   1.989 -0.4114 -0.1165 -0.3392
  499SOL    HW111356   4.103   4.989   2.082  1.4399  2.1728 -1.4436
  499SOL    HW211357   4.163   4.894   1.963  0.0958  0.8071 -1.0467
  500SOL     OW11358   2.242   5.102   1.065 -0.0089  0.3065  0.2467
  500SOL    HW111359   2.333   5.118   1.026 -0.3306 -1.0063 -1.0952
  500SOL    HW211360   2.243   5.016   1.116  0.0897  1.4232  2.1778
  501SOL     OW11361   4.110   1.901  -0.003  0.4076  0.3416  0.0838
  501SOL    HW111362   4.172   1.978   0.011  0.8672  0.0593 -0.3667
  501SOL    HW211363   4.049   1.892   0.076  0.0463  1.4382 -0.0568
  502SOL     OW11364   4.248   4.838   1.451 -0.9383 -0.3267  0.2260
  502SOL    HW111365   4.201   4.875   1.371 -0.5469 -0.4371 -0.0547
  502SOL    HW211366   4.264   4.740   1.437 -1.6276 -0.5259  0.8016
  503SOL     OW11367   2.188   0.954   0.152  0.4355  0.1360 -0.6924
  503SOL    HW111368   2.265   1.005   0.112 -0.4911  1.0745 -1.3137
  503SOL    HW211369   2.105   1.008   0.143  0.1494  0.2825  2.3507
  504SOL     OW11370   3.924   8.328   2.334  0.0895 -0.6250 -0.0072
  504SOL    HW111371   3.900   8.292   2.424  0.1911 -1.3884 -0.2885
  504SOL    HW211372   4.000   8.393   2.344  0.0994 -0.7088  0.4560
  505SOL     OW11373   2.708   0.347   0.466  0.5148  0.2140 -0.1392
  505SOL    HW111374   2.749   0.344   0.557  0.7359  0.2233 -0.2388
  505SOL    HW211375   2.655   0.263   0.451 -0.5425  0.7698  0.4753
  506SOL     OW11376   2.014   6.637   1.888 -0.6116 -0.4693 -0.1851
  506SOL    HW111377   2.086   6.657   1.955  0.4686 -1.9863 -0.8554
  506SOL    HW211378   2.034   6.550   1.843 -0.7292  0.9753 -3.2016
  507SOL     OW11379   2.834   5.085   2.351 -0.2254 -0.2854  0.1950
  507SOL    HW111380   2.836   5.109   2.448  0.8223  1.3490 -0.2160
  507SOL    HW211381   2.754   5.127   2.307 -0.7107 -1.0412  0.3485
  508SOL     OW11382   2.714   1.123   2.362 -0.2244  0.3868  0.7798
  508SOL    HW111383   2.696   1.025   2.352 -3.3135  0.7492  1.9896
  508SOL    HW211384   2.627   1.171   2.380  1.2306  3.3428  0.2315
  509SOL     OW11385   4.196   2.193   0.322 -0.3115  1.0097  0.0694
  509SOL    HW111386   4.149   2.212   0.236  1.2887 -2.5821 -1.7047
  509SOL    HW211387   4.150   2.118   0.369 -1.0724  2.8405  2.3135
  510SOL     OW11388   3.671   8.818   1.152 -0.2131 -0.3576  0.3236
  510SOL    HW111389   3.641   8.745   1.213 -0.5299 -0.7045 -0.2428
  510SOL    HW211390   3.770   8.828   1.159 -0.2842 -0.1618  1.1446
  511SOL     OW11391   3.482   9.290   1.254  0.0533  0.4980 -0.1375
  511SOL    HW111392   3.472   9.321   1.348 -0.0434  1.5839 -0.4962
  511SOL    HW211393   3.425   9.347   1.194 -0.2673 -0.4881 -0.7913
  512SOL     OW11394   3.900   1.772   0.686 -0.4762  0.0332 -0.4047
  512SOL    HW111395   3.911   1.836   0.762 -0.2290  0.0220 -0.4281
  512SOL    HW211396   3.917   1.679   0.718 -0.9443 -0.0321 -0.3469
  513SOL     OW11397   4.560   4.233   0.872  0.8035  0.4331  0.3761
  513SOL    HW111398   4.517   4.271   0.954  2.1602 -0.2904  1.4357
  513SOL    HW211399   4.610   4.150   0.896 -0.6996 -1.1109 -1.5897
  514SOL     OW11400   4.844   3.332   1.741 -0.9156 -0.1236  0.1059
  514SOL    HW111401   4.765   3.309   1.799 -0.3355 -0.0333  0.9398
  514SOL    HW211402   4.921   3.273   1.764 -0.2643  0.8196  0.3655
  515SOL     OW11403   3.720   3.592   1.283 -0.2337  0.3962 -0.0892
  515SOL    HW111404   3.647   3.551   1.338 -0.0867  0.7710  0.3838
  515SOL    HW211405   3.728   3.689   1.304 -0.8639  0.7778 -1.5203
  516SOL     OW11406   3.522   1.669   0.682  0.1044 -0.2854  0.2880
  516SOL    HW111407   3.482   1.582   0.713 -0.5648 -0.0353  0.1248
  516SOL    HW211408   3.593   1.651   0.614 -1.1560 -0.6220 -0.9542
  517SOL     OW11409   2.936   9.262   0.674  0.3608 -0.2060 -0.2509
  517SOL    HW111410   2.999   9.196   0.633  0.5834 -0.3167  0.2642
  517SOL    HW211411   2.915   9.334   0.608  1.8691  0.4095 -0.0716
  518SOL     OW11412   4.680   1.501   0.699 -0.9271 -0.0964  0.2419
  518SOL    HW111413   4.684   1.403   0.719  0.6261  0.0334  0.6041
  518SOL    HW211414   4.740   1.522   0.622  0.8441  0.9855  1.8837
  519SOL     OW11415   3.002   8.501   2.429 -0.5605 -0.3167  0.5117
  519SOL    HW111416   3.023   8.417   2.379 -0.5808 -0.3801  0.6114
  519SOL    HW211417   3.070   8.571   2.406 -1.1717 -0.0125 -0.4285
  520SOL     OW11418   4.572   1.364   1.445  0.8960 -0.5049  0.2544
  520SOL    HW111419   4.617   1.334   1.529 -0.4955 -1.3488  0.7049
  520SOL    HW211420   4.579   1.292   1.376 -0.0825 -0.7939  0.4504
  521SOL     OW11421   2.620   4.395   1.400  0.3883  0.5513  0.0665
  521SOL    HW111422   2.660   4.399   1.308 -0.4316  0.7520 -0.2927
  521SOL    HW211423   2.558   4.316   1.406 -1.1732  1.7117 -0.2424
  522SOL     OW11424   4.081   4.900   2.267 -0.0218  0.1856 -0.3555
  522SOL    HW111425   4.163   4.903   2.323 -0.6051 -0.1807  0.5355
  522SOL    HW211426   4.058   4.805   2.247 -0.8635  0.2294  0.3623
  523SOL     OW11427   4.521   2.118   1.632  0.2605  0.0625  0.7956
  523SOL    HW111428   4.590   2.108   1.704  0.6660 -0.1304  0.3826
  523SOL    HW211429   4.461   2.195   1.654  0.8267  0.4596  0.9822
  524SOL     OW11430   3.279   2.474   1.644  0.9997 -0.4092 -0.4583
  524SOL    HW111431   3.271   2.522   1.557  2.7322 -1.3164 -1.1253
  524SOL    HW211432   3.336   2.528   1.706 -0.0161  0.1085  0.0490
  525SOL     OW11433   5.001   4.331   1.799  0.3627  0.5057 -0.1256
  525SOL    HW111434   5.037   4.365   1.713 -0.4728  0.6881 -0.4027
  525SOL    HW211435   4.905   4.355   1.808 -0.0984 -1.2718 -0.0694
  526SOL     OW11436   2.738   4.778   0.572  0.3823  0.4012  0.2417
  526SOL    HW111437   2.762   4.681   0.570  2.1992  0.8355  0.3314
  526SOL    HW211438   2.641   4.789   0.548  0.1681 -1.4200  0.2142
  527SOL     OW11439   3.792   9.833  -0.023 -0.1441  0.0375  0.0199
  527SOL    HW111440   3.807   9.735  -0.016  2.0432  0.3141 -0.2482
  527SOL    HW211441   3.737   9.853  -0.104  0.2692 -0.9085 -0.5016
  528SOL     OW11442   1.672   9.824   1.219  0.0444  0.4265  0.3041
  528SOL    HW111443   1.658   9.873   1.306 -0.0953 -1.7809  1.5469
  528SOL    HW211444   1.587   9.780   1.192  0.3169  0.4159 -0.5323
  529SOL     OW11445   3.123   9.067  -0.029  0.3131  0.2577  0.0445
  529SOL    HW111446   3.083   8.976  -0.043  0.3944  0.1124  0.7047
  529SOL    HW211447   3.061   9.136  -0.065  0.2811 -0.0674 -0.5257
  530SOL     OW11448   3.352   3.666   2.573  0.2061  0.1938 -0.3658
  530SOL    HW111449   3.258   3.664   2.608 -0.0221  1.2750 -0.8908
  530SOL    HW211450   3.376   3.760   2.550 -0.0198 -0.6109 -4.1533
  531SOL     OW11451   2.709   9.735   1.315  0.1095  0.4797 -0.0235
  531SOL    HW111452   2.805   9.745   1.341  0.1778  0.3286 -0.2203
  531SOL    HW211453   2.665   9.825   1.317  0.8171  0.8953 -2.1213
  532SOL     OW11454   1.988   3.612   0.380  0.0339  0.3339 -0.1744
  532SOL    HW111455   2.087   3.599   0.379 -0.2027 -1.5720 -0.8805
  532SOL    HW211456   1.951   3.582   0.468  0.1898  1.9563  0.4516
  533SOL     OW11457   4.464   1.262   1.878 -0.0571  0.4970 -0.3003
  533SOL    HW111458   4.449   1.358   1.902 -0.4517  0.6078 -0.9506
  533SOL    HW211459   4.543   1.227   1.927 -1.2453  0.4934  1.6772
  534SOL     OW11460   3.646   4.156   0.667 -0.3284 -0.7369  0.0396
  534SOL    HW111461   3.653   4.210   0.751 -0.2676  2.1773 -1.7380
  534SOL    HW211462   3.575   4.195   0.608 -0.6312 -2.9449 -1.1116
  535SOL     OW11463   3.065   1.931   1.978  0.3552 -0.6288  0.5488
  535SOL    HW111464   3.157   1.922   1.940  0.3077 -2.4011  0.8441
  535SOL    HW211465   3.043   2.028   1.988  1.8812 -0.1821 -0.2596
  536SOL     OW11466   2.033   4.568   1.169  0.0453  0.2290  0.1479
  536SOL    HW111467   2.068   4.542   1.259 -1.2092  0.9819  0.8708
  536SOL    HW211468   2.045   4.492   1.105  0.4719 -0.4946  1.0831
  537SOL     OW11469   3.068   2.825   0.492 -0.0947  0.1318  0.3961
  537SOL    HW111470   3.157   2.788   0.519  1.0779  2.1494 -0.5802
  537SOL    HW211471   3.077   2.870   0.403 -1.6384  2.0785  1.1998
  538SOL     OW11472   4.912   2.837   1.721 -0.1908 -0.6399  0.3169
  538SOL    HW111473   4.971   2.756   1.721  0.4263 -0.2071 -0.8922
  538SOL    HW211474   4.816   2.808   1.719  0.0203 -1.3347 -0.0614
  539SOL     OW11475   3.987   4.083   1.991 -0.1189  0.0680 -0.0411
  539SOL    HW111476   4.030   4.161   2.035  0.9430 -1.7899  2.3540
  539SOL    HW211477   3.888   4.088   2.002 -0.0749  1.2075 -0.1496
  540SOL     OW11478   2.347   1.328   0.127 -0.4809  0.5748  0.0623
  540SOL    HW111479   2.375   1.383   0.048  1.5365  0.0321  0.3601
  540SOL    HW211480   2.352   1.384   0.210 -1.5737  0.8466 -0.0520
  541SOL     OW11481   2.376   8.686   1.906 -0.2855  0.3263 -0.2843
  541SOL    HW111482   2.377   8.734   1.994  0.1336  0.1425 -0.1847
  541SOL    HW211483   2.468   8.650   1.887  0.2455  2.4485 -1.9417
  542SOL     OW11484   3.717   0.827   0.726  0.1162  0.3393 -0.2306
  542SOL    HW111485   3.738   0.905   0.667  3.7373 -1.2656 -1.1778
  542SOL    HW211486   3.666   0.759   0.673 -0.9449  1.0117 -0.0850
  543SOL     OW11487   2.621   9.118   1.797 -0.5072 -0.3737 -0.0846
  543SOL    HW111488   2.630   9.077   1.706  0.3993  1.7569 -1.0014
  543SOL    HW211489   2.530   9.159   1.807 -0.9137 -1.3591  0.3049
  544SOL     OW11490   4.699   3.716   0.803 -0.1712 -0.1395  0.4473
  544SOL    HW111491   4.664   3.729   0.711  0.1265  0.3011  0.3937
  544SOL    HW211492   4.648   3.642   0.849 -0.2503 -0.4234 -0.0994
  545SOL     OW11493   2.469   1.358   0.763  0.2633 -0.4945 -0.6474
  545SOL    HW111494   2.531   1.419   0.713  1.1596 -1.7968 -1.1356
  545SOL    HW211495   2.409   1.413   0.821  1.5123  0.8324 -0.5678
  546SOL     OW11496   1.879   9.778   0.709 -0.1512  0.6238 -0.7612
  546SOL    HW111497   1.908   9.689   0.743  0.5090  1.8361  2.0442
  546SOL    HW211498   1.784   9.794   0.734 -0.2453  0.7489 -1.1886
  547SOL     OW11499   4.171   3.378   0.166  0.3605  0.1761  0.3365
  547SOL    HW111500   4.131   3.336   0.247  0.7266 -2.2376 -0.6916
  547SOL    HW211501   4.247   3.437   0.193 -1.0244  1.2904  1.9160
  548SOL     OW11502   4.331   2.679   0.448  0.2724 -0.4526  0.3627
  548SOL    HW111503   4.373   2.698   0.359 -1.0668 -0.9244 -0.3791
  548SOL    HW211504   4.274   2.598   0.441 -1.4958  0.6942  1.1241
  549SOL     OW11505   4.710   4.412   1.261 -0.5980  0.3144  0.7780
  549SOL    HW111506   4.646   4.412   1.184  0.6909  3.4082 -0.3886
  549SOL    HW211507   4.758   4.325   1.263 -0.0339  0.4561 -2.5201
  550SOL     OW11508   2.532   0.474   2.128 -0.0348  0.4836  0.2092
  550SOL    HW111509   2.607   0.435   2.075 -0.6874  1.6109 -1.6125
  550SOL    HW211510   2.540   0.446   2.223  2.2922  0.0133 -0.0888
  551SOL     OW11511   4.105   1.740   1.352  0.0456 -0.4528 -0.1813
  551SOL    HW111512   4.053   1.770   1.272  0.0811  0.6937  0.2182
  551SOL    HW211513   4.041   1.710   1.423 -0.0312  0.0856 -0.0270
  552SOL     OW11514   2.099   7.648   1.742  0.3506  0.8422 -0.5315
  552SOL    HW111515   2.190   7.609   1.726 -0.2383 -0.2830 -1.1754
  552SOL    HW211516   2.034   7.611   1.675 -0.2748  2.7589 -0.9917
  553SOL     OW11517   3.110   8.843   1.290  0.2741 -0.0516  0.1624
  553SOL    HW111518   3.144   8.920   1.236  0.6458  0.2362  0.8102
  553SOL    HW211519   3.013   8.827   1.268  0.0985  0.8208  0.2877
  554SOL     OW11520   2.938   1.897   0.674  0.2130  0.1235 -0.2187
  554SOL    HW111521   2.883   1.888   0.756 -0.2419 -0.3007 -0.5709
  554SOL    HW211522   2.886   1.946   0.604 -0.1065 -1.1771 -0.9050
  555SOL     OW11523   3.296   6.506   0.115 -0.4666 -0.3556 -0.1537
  555SOL    HW111524   3.293   6.495   0.016 -1.1166 -0.4729 -0.1213
  555SOL    HW211525   3.310   6.602   0.138 -2.3321 -0.0310 -0.3343
  556SOL     OW11526   2.212   9.737   0.540 -0.2056  0.4872 -0.5147
  556SOL    HW111527   2.127   9.725   0.489  0.3353  1.8434 -1.7942
  556SOL    HW211528   2.286   9.688   0.493  0.6875  3.2860 -2.1774
  557SOL     OW11529   2.701   8.911   1.622  0.0545  0.1503  0.0969
  557SOL    HW111530   2.702   8.827   1.675 -2.2660  0.2159  0.2968
  557SOL    HW211531   2.682   8.890   1.526  1.5863  0.2689 -0.2436
  558SOL     OW11532   4.444   3.216   1.066 -1.0293  0.2202  0.0187
  558SOL    HW111533   4.385   3.142   1.097  1.8107 -2.4655 -0.6980
  558SOL    HW211534   4.404   3.261   0.987 -2.4948 -0.9705  0.0719
  559SOL     OW11535   2.139   1.587   1.918  0.3374 -0.0182  0.3956
  559SOL    HW111536   2.225   1.541   1.940  0.9935 -0.2658 -2.4702
  559SOL    HW211537   2.155   1.685   1.907 -0.6220  0.6491  4.1555
  560SOL     OW11538   3.130   1.816   0.059 -0.2699  0.4487 -0.2211
  560SOL    HW111539   3.198   1.769   0.115 -0.2700 -0.4210 -0.9425
  560SOL    HW211540   3.089   1.890   0.112  1.3450  1.0879  0.1734
  561SOL     OW11541   4.037   4.657   0.353 -0.6824  0.0800 -0.4493
  561SOL    HW111542   3.994   4.746   0.369  0.1987  0.0059  2.5208
  561SOL    HW211543   4.136   4.665   0.366 -0.4581 -1.1092 -1.3291
  562SOL     OW11544   3.919   2.981  -0.079 -0.0963  0.0669  0.4798
  562SOL    HW111545   3.956   2.999  -0.170 -0.5819  0.4727  0.3579
  562SOL    HW211546   3.870   3.062  -0.047  0.4273  0.0694  1.2748
  563SOL     OW11547   2.358   0.791   2.332 -0.1716 -0.6164 -0.4889
  563SOL    HW111548   2.397   0.830   2.249  0.3972 -0.9419 -0.3771
  563SOL    HW211549   2.335   0.864   2.396 -0.6524 -0.3628 -0.9502
  564SOL     OW11550   4.373   3.821   1.542  0.2711 -0.1572  0.0762
  564SOL    HW111551   4.356   3.860   1.452 -0.9369 -0.3290  0.2211
  564SOL    HW211552   4.401   3.894   1.605 -0.3346  0.2040 -0.0707
  565SOL     OW11553   3.622   2.782   1.589 -0.1532  0.3413 -0.2672
  565SOL    HW111554   3.562   2.852   1.628 -1.6253 -0.5369 -0.9230
  565SOL    HW211555   3.610   2.696   1.639  0.9988  0.3162 -0.0262
  566SOL     OW11556   4.939   4.371   0.646  0.0650  0.0041  0.3269
  566SOL    HW111557   4.885   4.414   0.573  1.7117 -1.7978 -2.0270
  566SOL    HW211558   4.931   4.272   0.640  0.0714 -0.1669  2.7638
  567SOL     OW11559   2.455   1.833   0.338  0.3515  0.0010 -0.1792
  567SOL    HW111560   2.520   1.759   0.322 -0.6692 -0.8815 -0.3112
  567SOL    HW211561   2.361   1.798   0.329 -0.1462  1.2531 -0.0103
  568SOL     OW11562   2.773   6.264   2.374  0.1048 -0.6290 -0.0168
  568SOL    HW111563   2.779   6.360   2.346 -0.2324 -0.0649  1.7950
  568SOL    HW211564   2.776   6.205   2.293 -1.0547  0.9644 -1.2419
  569SOL     OW11565   2.957   8.325  -0.043  0.2622  0.3684 -0.6165
  569SOL    HW111566   3.013   8.393  -0.091  2.4668 -0.9171  0.0946
  569SOL    HW211567   2.900   8.277  -0.109  1.0209  0.7390 -1.5536
  570SOL     OW11568   3.864   0.972   1.959 -0.2051 -0.2773  0.2589
  570SOL    HW111569   3.940   0.908   1.950  1.2421  1.3525  0.5190
  570SOL    HW211570   3.825   0.963   2.051  0.3723 -0.3814  0.4998
  571SOL     OW11571   4.617   3.936   0.217 -0.5177  0.3466  0.4559
  571SOL    HW111572   4.600   3.949   0.315 -0.2926 -0.4923  0.6087
  571SOL    HW211573   4.715   3.921   0.202 -0.9859 -2.9682  0.4975
  572SOL     OW11574   3.737   9.538   0.468  0.0719  0.5399 -0.5755
  572SOL    HW111575   3.748   9.499   0.376 -0.7250  1.5467 -1.1157
  572SOL    HW211576   3.753   9.637   0.464  1.8332  0.3425  0.7281
  573SOL     OW11577   3.383   8.089   1.528  0.3770  0.1667 -0.1484
  573SOL    HW111578   3.358   8.053   1.438  2.0468 -0.3210 -0.4447
  573SOL    HW211579   3.353   8.184   1.535  1.1640  0.5442 -1.6400
  574SOL     OW11580   3.826   4.775   1.006 -0.1244 -0.1508 -0.6994
  574SOL    HW111581   3.742   4.804   1.053 -0.2417 -1.3460 -0.1339
  574SOL    HW211582   3.832   4.675   1.008  1.2974 -0.0783 -0.7887
  575SOL     OW11583   2.815   6.508   1.934 -0.2486  0.0897 -0.2831
  575SOL    HW111584   2.787   6.442   1.865 -0.6708 -0.2163  0.1721
  575SOL    HW211585   2.803   6.601   1.899 -2.2570 -0.0234  0.0558
  576SOL     OW11586   3.206   3.175   0.657  0.7703 -0.1419 -0.2797
  576SOL    HW111587   3.152   3.164   0.740  0.8342  0.0302 -0.2141
  576SOL    HW211588   3.205   3.271   0.629 -1.7218 -0.6800 -2.1518
  577SOL     OW11589   2.954   6.438   1.599 -0.7201 -0.1494  0.5782
  577SOL    HW111590   2.896   6.382   1.658 -0.7124  0.4538  1.1698
  577SOL    HW211591   3.045   6.397   1.594 -0.0086  1.0312  2.9173
  578SOL     OW11592   3.002   4.406   0.187  0.1376 -0.2900  0.3735
  578SOL    HW111593   2.933   4.383   0.256 -1.0914 -0.5506 -0.9193
  578SOL    HW211594   3.090   4.419   0.232 -0.1459 -2.7049  1.7513
  579SOL     OW11595   5.003   4.340   1.179  0.0582  0.0013 -0.1294
  579SOL    HW111596   4.973   4.401   1.105  1.8195 -0.0806 -0.9265
  579SOL    HW211597   4.941   4.262   1.184 -0.9931  0.7965 -0.4866
  580SOL     OW11598   3.205   3.445   0.637  0.1365  0.7039  0.7214
  580SOL    HW111599   3.205   3.502   0.554  1.1953  1.1188  0.9938
  580SOL    HW211600   3.120   3.461   0.688  0.4161  2.0534  0.7892
  581SOL     OW11601   4.812   3.038   2.386  0.1064  0.3114  0.0726
  581SOL    HW111602   4.735   3.090   2.349 -0.4045  0.4582  1.3243
  581SOL    HW211603   4.780   2.951   2.422  0.5175  0.3959  0.6478
  582SOL     OW11604   2.212   1.715   0.346  0.4645 -0.3090  0.3489
  582SOL    HW111605   2.230   1.664   0.430  0.4714 -1.2814 -0.2422
  582SOL    HW211606   2.113   1.717   0.329  0.3776  0.6901  0.8631
  583SOL     OW11607   1.818   7.960   1.417  0.1959 -0.2202 -0.0558
  583SOL    HW111608   1.898   7.901   1.423  0.4843 -0.0103 -1.4809
  583SOL    HW211609   1.833   8.043   1.470  1.7407  0.7104 -1.8856
  584SOL     OW11610   2.065   3.948   0.862  0.1289 -0.4709 -0.3809
  584SOL    HW111611   2.159   3.963   0.832  0.3028  1.2812  0.9720
  584SOL    HW211612   2.053   3.984   0.955 -1.9026 -0.5888 -0.5707
  585SOL     OW11613   2.927   9.225   1.420 -0.0492  0.5800  0.3204
  585SOL    HW111614   2.828   9.234   1.404 -0.1235 -1.4204 -0.4926
  585SOL    HW211615   2.944   9.146   1.479  1.0414  1.2980  0.9904
  586SOL     OW11616   2.597   5.854   1.534 -0.3333 -0.0320 -0.6926
  586SOL    HW111617   2.659   5.805   1.595  0.2856 -1.5032 -2.4553
  586SOL    HW211618   2.647   5.929   1.490 -0.7501  0.9597  0.5078
  587SOL     OW11619   3.808   9.422   0.238  0.8661 -0.2058 -0.1022
  587SOL    HW111620   3.768   9.387   0.153  0.5732  0.6241 -0.3086
  587SOL    HW211621   3.880   9.359   0.268  0.4885 -0.8817 -0.5748
  588SOL     OW11622   2.500   7.344   0.542  0.4561  0.0496 -0.2474
  588SOL    HW111623   2.462   7.401   0.615  1.9274  0.4022  0.2645
  588SOL    HW211624   2.506   7.398   0.458  1.0288  0.4023  0.0129
  589SOL     OW11625   3.082   4.163   0.104  0.0249 -0.2121 -0.2513
  589SOL    HW111626   3.031   4.249   0.101  1.9259  0.9640 -0.0856
  589SOL    HW211627   3.110   4.145   0.198  2.1722  0.5792 -0.6910
  590SOL     OW11628   3.647   4.316   1.802  0.2187  0.3386  0.5015
  590SOL    HW111629   3.580   4.264   1.749  0.6095 -0.1531  0.4869
  590SOL    HW211630   3.722   4.256   1.829  0.9527  1.0153  0.0003
  591SOL     OW11631   2.453   4.808   0.585  0.5023 -0.5706  0.1449
  591SOL    HW111632   2.433   4.785   0.680 -1.1165 -0.4873 -0.1525
  591SOL    HW211633   2.422   4.901   0.566  0.5426 -0.6914 -0.5304
  592SOL     OW11634   4.391   2.874  -0.058 -0.0043  0.3810 -0.0192
  592SOL    HW111635   4.362   2.791  -0.107  1.5621 -0.4459  0.4149
  592SOL    HW211636   4.313   2.935  -0.047 -1.5288 -1.6776  0.9209
  593SOL     OW11637   2.572   0.245   0.162 -0.3727 -0.0328  0.4024
  593SOL    HW111638   2.602   0.173   0.099 -2.8203 -1.4484  0.7729
  593SOL    HW211639   2.549   0.328   0.111 -0.2380 -0.4556 -0.3401
  594SOL     OW11640   4.220   9.238   2.279  0.2718 -0.0058 -0.1608
  594SOL    HW111641   4.172   9.207   2.197  0.9733  0.6736 -0.8288
  594SOL    HW211642   4.205   9.337   2.291  0.2684 -0.0797  0.4658
  595SOL     OW11643   3.969   9.276   0.597  0.6312 -0.1912  0.3548
  595SOL    HW111644   3.920   9.339   0.658  1.9199  0.1997  0.9941
  595SOL    HW211645   3.924   9.187   0.598 -0.7668  0.4872  0.0198
  596SOL     OW11646   2.409   4.145   0.369  0.1497  0.2794  0.2133
  596SOL    HW111647   2.439   4.234   0.405 -1.3185  0.5699  0.7571
  596SOL    HW211648   2.354   4.159   0.287  0.2363 -0.1580  0.0800
  597SOL     OW11649   2.449   7.296   0.891 -0.5503  0.0213  0.2915
  597SOL    HW111650   2.467   7.386   0.851  1.0911 -1.3775 -2.2168
  597SOL    HW211651   2.368   7.256   0.848 -0.1896 -0.5017  0.1063
  598SOL     OW11652   3.183   0.912   0.304  0.0615  0.0439 -0.3143
  598SOL    HW111653   3.270   0.938   0.346 -0.2043  0.2683  0.0885
  598SOL    HW211654   3.195   0.825   0.255  0.5208  0.0905 -0.2830
  599SOL     OW11655   2.285   5.689   1.381  0.0527 -0.3396 -0.2502
  599SOL    HW111656   2.381   5.665   1.369 -0.0320 -1.1272  0.5798
  599SOL    HW211657   2.275   5.749   1.460  0.1233  1.5594 -1.6528
  600SOL     OW11658   2.332   6.103   2.502 -0.2641 -0.0118 -0.1606
  600SOL    HW111659   2.300   6.158   2.579  1.3364 -0.7193  1.0478
  600SOL    HW211660   2.373   6.019   2.537 -1.6115 -1.4317 -1.9190
  601SOL     OW11661   4.501   2.279   0.065 -0.8783 -0.3487  0.0610
  601SOL    HW111662   4.520   2.270  -0.032  0.3539  1.2448  0.1248
  601SOL    HW211663   4.573   2.233   0.118 -0.1106  1.0106  0.2312
  602SOL     OW11664   2.661   3.109   1.466 -0.5873 -0.2929  0.4592
  602SOL    HW111665   2.627   3.193   1.425 -0.0494 -0.9045 -1.2713
  602SOL    HW211666   2.635   3.106   1.563 -1.1308  1.5624  0.3842
  603SOL     OW11667   4.987   3.004   0.411  0.4183  0.1024  0.2267
  603SOL    HW111668   5.086   3.018   0.408  0.1982  1.7051  0.4381
  603SOL    HW211669   4.965   2.947   0.491  1.2328 -0.9205 -0.2628
  604SOL     OW11670   3.476   9.297   0.740  0.1635 -0.1949 -0.2288
  604SOL    HW111671   3.552   9.238   0.766 -0.5043 -0.7695  0.4275
  604SOL    HW211672   3.436   9.338   0.822 -0.3759 -0.0727 -0.5499
  605SOL     OW11673   3.082   5.992   2.328  0.1335 -0.4597 -0.1198
  605SOL    HW111674   2.983   5.990   2.309 -0.3944 -0.2351  2.3962
  605SOL    HW211675   3.111   6.087   2.341  1.0006 -0.4045 -2.2107
  606SOL     OW11676   4.675   3.510  -0.029 -0.1761  0.4091  0.4087
  606SOL    HW111677   4.708   3.520   0.065  1.1478 -1.0566  0.1432
  606SOL    HW211678   4.627   3.423  -0.038 -0.2461  0.5183 -0.2837
  607SOL     OW11679   3.221   6.694   0.670  0.7265 -0.2210  0.1400
  607SOL    HW111680   3.202   6.674   0.574 -1.3373  0.0236  0.4740
  607SOL    HW211681   3.256   6.612   0.715 -3.0034 -1.8114  0.3207
  608SOL     OW11682   2.380   1.453   1.940  0.0571 -0.1776  0.2199
  608SOL    HW111683   2.448   1.524   1.921  0.7476 -1.1479 -0.9204
  608SOL    HW211684   2.416   1.364   1.914 -1.8319 -0.6563 -0.8320
  609SOL     OW11685   3.883   3.009   1.312 -0.9935 -0.7229 -0.5393
  609SOL    HW111686   3.892   2.920   1.357  0.9391 -0.7734 -0.9778
  609SOL    HW211687   3.947   3.074   1.353 -1.6869  0.1996 -0.8906
  610SOL     OW11688   1.943   7.512   1.580 -0.1214 -0.6180 -0.1526
  610SOL    HW111689   1.931   7.414   1.593  1.4172 -0.7382  0.5778
  610SOL    HW211690   1.894   7.542   1.499  1.8348 -2.5684 -2.1319
  611SOL     OW11691   3.945   4.689   1.684 -0.3529  0.7417  0.3019
  611SOL    HW111692   3.855   4.659   1.713 -1.0394  2.1701 -0.2831
  611SOL    HW211693   3.937   4.772   1.629  1.2586  0.4424 -0.4275
  612SOL     OW11694   4.450   4.422   1.547  0.0694 -0.0580 -0.4361
  612SOL    HW111695   4.417   4.378   1.630 -0.2356  0.2609 -0.3897
  612SOL    HW211696   4.549   4.436   1.554  0.1352 -0.5373 -0.3637
  613SOL     OW11697   2.919   3.945   0.114  0.6486  0.4126  0.4627
  613SOL    HW111698   2.980   4.024   0.109  0.7586  0.2475 -0.9187
  613SOL    HW211699   2.838   3.969   0.167  1.8760  0.6414  2.3183
  614SOL     OW11700   4.030   2.348   1.081  0.7049 -0.7152 -0.3843
  614SOL    HW111701   4.095   2.272   1.075  2.4958  0.7465  0.1059
  614SOL    HW211702   4.066   2.427   1.032 -0.5457  0.2426  0.2056
  615SOL     OW11703   5.306   3.863   1.062 -0.3095 -0.6208  0.0225
  615SOL    HW111704   5.230   3.801   1.044 -0.2918 -1.0126  1.2775
  615SOL    HW211705   5.348   3.841   1.150  0.0256  0.8248  0.2467
  616SOL     OW11706   2.358   1.737   2.198 -0.3003 -0.3850 -0.1091
  616SOL    HW111707   2.284   1.670   2.203 -0.7023 -0.1749 -2.6008
  616SOL    HW211708   2.347   1.792   2.115  1.2630  1.3088  0.7715
  617SOL     OW11709   3.798  10.160   0.854 -0.6204 -0.0666  0.2158
  617SOL    HW111710   3.777  10.088   0.788 -0.5589  0.5255 -0.4523
  617SOL    HW211711   3.897  10.174   0.858 -0.5733 -0.5832  0.9488
  618SOL     OW11712   3.770   5.443   0.615  0.3751  0.1198  0.2420
  618SOL    HW111713   3.726   5.387   0.545  0.3343  0.8650 -0.3377
  618SOL    HW211714   3.714   5.525   0.632  0.4322 -0.0106  1.0788
  619SOL     OW11715   4.583   4.585   2.123 -0.8427  0.0341  0.5347
  619SOL    HW111716   4.651   4.543   2.063 -0.6186  0.3493  0.5622
  619SOL    HW211717   4.491   4.565   2.088 -0.7370 -0.4031  0.5033
  620SOL     OW11718   3.388   2.595   2.070  0.0939 -0.3444  0.7073
  620SOL    HW111719   3.376   2.674   2.130  1.6103  1.5031 -1.3193
  620SOL    HW211720   3.353   2.513   2.115 -1.9024  1.5308  2.7092
  621SOL     OW11721   2.116   8.436   0.925  0.2121  0.2048 -0.7488
  621SOL    HW111722   2.054   8.404   0.854 -0.8043  0.3721  0.0383
  621SOL    HW211723   2.086   8.400   1.014  1.4481  0.0100 -0.4104
  622SOL     OW11724   4.054   9.272   0.332  0.1014 -0.2333  0.0418
  622SOL    HW111725   4.014   9.282   0.423 -2.1097 -0.1031 -0.9107
  622SOL    HW211726   4.145   9.315   0.331 -0.2016  0.5236  1.9352
  623SOL     OW11727   2.882   0.685   0.408  0.0502 -0.4128  0.0422
  623SOL    HW111728   2.788   0.656   0.391  0.3876 -1.3574 -0.2678
  623SOL    HW211729   2.935   0.606   0.440  0.4886  0.3405  1.2144
  624SOL     OW11730   3.401   3.234   1.004 -0.7568  0.1021 -0.5980
  624SOL    HW111731   3.328   3.301   0.995 -1.4766 -0.6915 -0.6425
  624SOL    HW211732   3.470   3.269   1.068 -1.1516  0.8646 -0.5831
  625SOL     OW11733   2.542   5.793   0.133 -0.0079  0.1035 -0.0170
  625SOL    HW111734   2.541   5.826   0.228  0.8452  1.4591 -0.4504
  625SOL    HW211735   2.622   5.734   0.120  0.1396  0.2998 -0.0106
  626SOL     OW11736   3.763   9.736   2.057  0.1974  0.4126 -0.2399
  626SOL    HW111737   3.793   9.681   1.980 -0.2837 -1.2718  0.7400
  626SOL    HW211738   3.693   9.801   2.027  1.4905  1.1982 -1.6070
  627SOL     OW11739   4.113   8.630   0.617 -0.1565  0.4660 -0.4881
  627SOL    HW111740   4.036   8.677   0.661 -0.0186  0.2899 -0.0575
  627SOL    HW211741   4.179   8.698   0.586 -0.2717  0.5941 -0.4571
  628SOL     OW11742   4.283   4.210   1.414 -0.7324  0.1166 -0.5505
  628SOL    HW111743   4.348   4.270   1.461  2.0902 -2.6452 -0.7535
  628SOL    HW211744   4.229   4.160   1.482  0.7965 -1.1465 -0.2133
  629SOL     OW11745   4.359   3.251   2.073 -0.1377 -0.3644  0.4418
  629SOL    HW111746   4.304   3.308   2.012  0.4364  2.2989  2.3174
  629SOL    HW211747   4.302   3.179   2.112 -1.6696  0.7847  0.3747
  630SOL     OW11748   3.870   3.239   2.156 -0.1004 -0.1661 -1.1344
  630SOL    HW111749   3.857   3.151   2.108  0.4731 -0.4539 -0.7555
  630SOL    HW211750   3.926   3.299   2.099  0.1859 -0.3378 -1.0346
  631SOL     OW11751   2.946   2.475   0.130  0.3108 -0.6928 -0.3827
  631SOL    HW111752   2.938   2.404   0.200  2.2569 -0.6698 -0.1081
  631SOL    HW211753   2.942   2.433   0.039 -1.4935 -0.8007 -0.2731
  632SOL     OW11754   3.466   3.086   0.785  0.0928  0.1011 -0.0985
  632SOL    HW111755   3.428   3.124   0.869  0.3610 -0.8050  0.4362
  632SOL    HW211756   3.444   3.147   0.708 -0.9976  0.4395  0.4684
  633SOL     OW11757   2.516   9.456   2.038  0.5132  0.0875 -0.2299
  633SOL    HW111758   2.533   9.447   1.939  1.6105  0.8961 -0.1189
  633SOL    HW211759   2.429   9.505   2.052  0.3083 -0.1031 -0.7919
  634SOL     OW11760   5.192   2.993   0.707 -0.8181 -0.4863 -0.0751
  634SOL    HW111761   5.145   3.067   0.756 -1.2358 -0.6605 -0.2139
  634SOL    HW211762   5.223   3.027   0.619 -0.3908 -0.2765  0.1550
  635SOL     OW11763   3.081   0.903   1.985 -0.2485  0.2788  0.5349
  635SOL    HW111764   3.068   0.812   2.023  0.7178 -0.2001 -0.2571
  635SOL    HW211765   3.002   0.960   2.007 -1.0047 -0.8438  0.7597
  636SOL     OW11766   3.893   2.378   0.283 -0.2406 -0.0289  0.0539
  636SOL    HW111767   3.905   2.473   0.252  4.3299 -0.2430  0.8548
  636SOL    HW211768   3.898   2.317   0.204  1.5443  0.0895  0.0697
  637SOL     OW11769   2.336   3.163   1.613  0.0523 -0.0663  0.1870
  637SOL    HW111770   2.398   3.089   1.636 -2.0842 -2.8004 -2.5116
  637SOL    HW211771   2.259   3.163   1.678 -0.2487 -0.5976 -0.1676
  638SOL     OW11772   2.695   2.573   0.039  0.0635 -0.0683 -0.5414
  638SOL    HW111773   2.774   2.521   0.071 -0.5636 -1.0790 -0.6301
  638SOL    HW211774   2.685   2.656   0.094  1.8144  0.6214 -1.2135
  639SOL     OW11775   3.778   9.853   1.508 -0.8249  0.1138  0.3774
  639SOL    HW111776   3.680   9.836   1.524 -0.7141 -1.1954 -0.3074
  639SOL    HW211777   3.831   9.784   1.558 -0.1909  1.8153  2.0954
  640SOL     OW11778   4.944   4.485   0.943 -0.4868 -0.2055  0.0746
  640SOL    HW111779   5.024   4.496   0.884 -1.3840 -0.0067 -1.1185
  640SOL    HW211780   4.862   4.512   0.893 -1.0958  1.5218  1.9327
  641SOL     OW11781   2.170   0.997   0.799 -0.1004 -0.0763  0.1971
  641SOL    HW111782   2.224   1.020   0.718 -1.6166 -0.9737 -1.0891
  641SOL    HW211783   2.074   1.014   0.781 -0.4287 -0.0356  1.9130
  642SOL     OW11784   5.108   3.196   0.870 -0.4381 -0.1896  0.5332
  642SOL    HW111785   5.155   3.210   0.958 -0.3566 -0.7029  0.5724
  642SOL    HW211786   5.028   3.255   0.866 -1.3373 -1.3153  1.6168
  643SOL     OW11787   1.675   9.876   2.119 -0.1324  0.1684 -0.4394
  643SOL    HW111788   1.685   9.807   2.191 -0.1120  0.0764 -0.5296
  643SOL    HW211789   1.586   9.921   2.128 -0.3711 -0.2476 -0.7123
  644SOL     OW11790   2.910   9.392  -0.002  0.0930  0.5884 -0.1225
  644SOL    HW111791   2.979   9.425  -0.067  0.7404  0.5741  0.5469
  644SOL    HW211792   2.830   9.360  -0.052  0.8152  0.0368 -0.9512
  645SOL     OW11793   3.154   9.193   1.883  0.7926  0.0746 -0.0040
  645SOL    HW111794   3.129   9.162   1.791  0.1773  1.7705 -0.4237
  645SOL    HW211795   3.176   9.114   1.940  0.4921 -1.0370 -1.4068
  646SOL     OW11796   4.859   3.244   2.113  0.0620  0.9004 -0.0473
  646SOL    HW111797   4.874   3.163   2.056  0.1668  0.9192 -0.0458
  646SOL    HW211798   4.872   3.326   2.058 -1.2416  0.9123 -0.3589
  647SOL     OW11799   2.779   2.144   2.122 -0.0394 -0.4279 -0.2403
  647SOL    HW111800   2.874   2.162   2.098 -0.1269 -0.6438 -0.7419
  647SOL    HW211801   2.740   2.075   2.061  0.2634 -2.3109  1.6359
  648SOL     OW11802   4.063   9.425   0.999  0.2175  0.2853 -0.2606
  648SOL    HW111803   4.101   9.388   0.915  1.4581 -2.0145  1.2572
  648SOL    HW211804   4.022   9.514   0.981  0.0558 -0.3722 -3.3694
  649SOL     OW11805   2.433   6.835   0.103 -0.3228  0.4779 -0.2581
  649SOL    HW111806   2.473   6.893   0.174  1.6614  0.9396 -1.7115
  649SOL    HW211807   2.444   6.739   0.128  0.9324  0.6252 -0.2019
  650SOL     OW11808   4.569   2.336   1.949 -0.1595  0.0259  0.1665
  650SOL    HW111809   4.535   2.293   2.032 -1.1094 -1.5264 -0.9828
  650SOL    HW211810   4.634   2.408   1.972 -0.4877 -0.3213  2.2363
  651SOL     OW11811   2.857   4.324   0.956  0.3551  0.2033 -0.0432
  651SOL    HW111812   2.820   4.330   0.864 -0.0146  2.0083  0.2162
  651SOL    HW211813   2.854   4.228   0.987 -1.0443 -0.1629 -1.2563
  652SOL     OW11814   4.104   1.127   0.847  0.7413  0.5659 -0.0919
  652SOL    HW111815   4.163   1.203   0.873  0.4562  0.2791  1.4036
  652SOL    HW211816   4.045   1.102   0.923 -0.9369  0.4803 -1.3834
  653SOL     OW11817   4.254   5.325   1.801  0.0512  0.6736 -0.6389
  653SOL    HW111818   4.157   5.333   1.823 -0.2373  1.7533 -2.2733
  653SOL    HW211819   4.279   5.228   1.799 -0.9078  0.4020  0.1267
  654SOL     OW11820   2.326   0.625   2.035  0.3943  0.4295  0.1960
  654SOL    HW111821   2.398   0.563   2.065 -1.5000 -2.3765 -0.8766
  654SOL    HW211822   2.287   0.593   1.949 -2.4516  1.6142  0.9706
  655SOL     OW11823   4.648   3.949   1.886  0.1229  0.3237 -0.2116
  655SOL    HW111824   4.645   3.849   1.896 -2.1794  0.4461  0.5625
  655SOL    HW211825   4.679   3.990   1.973  0.4530  0.3248 -0.3280
  656SOL     OW11826   5.002   1.731   1.182  0.4649 -0.0897  0.0679
  656SOL    HW111827   5.015   1.633   1.197  0.4270 -0.2514 -0.9412
  656SOL    HW211828   5.042   1.757   1.094 -0.7755  0.5244 -0.3285
  657SOL     OW11829   2.107   9.364   1.412 -0.5678 -0.0932  0.3312
  657SOL    HW111830   2.085   9.282   1.464 -0.2319 -0.7097 -0.4734
  657SOL    HW211831   2.024   9.404   1.374 -0.5039 -1.5332 -1.4131
  658SOL     OW11832   2.197   7.488  -0.016 -0.1348  0.0928 -0.7079
  658SOL    HW111833   2.107   7.515   0.019 -0.0291 -0.8085  0.2825
  658SOL    HW211834   2.256   7.569  -0.023 -0.8219  0.5896 -0.7697
  659SOL     OW11835   2.605   8.505   1.739  0.2376 -0.1982 -0.4181
  659SOL    HW111836   2.591   8.412   1.773  2.2087 -0.4930 -0.3300
  659SOL    HW211837   2.554   8.518   1.654 -1.1779 -0.8873  0.2983
  660SOL     OW11838   4.551   3.755   2.144  0.0845  0.4714 -0.0438
  660SOL    HW111839   4.486   3.731   2.072  1.5157 -0.0619 -1.1612
  660SOL    HW211840   4.571   3.673   2.199  0.3199  0.4915 -0.1011
  661SOL     OW11841   2.427   4.206   1.362  0.3601  0.0483 -0.4524
  661SOL    HW111842   2.406   4.108   1.353  0.0511  0.1402 -0.7489
  661SOL    HW211843   2.438   4.245   1.271  0.0635  0.3831 -0.3434
  662SOL     OW11844   2.353   4.905   1.453  0.6327 -0.1422 -0.1338
  662SOL    HW111845   2.254   4.900   1.442  0.6748 -0.2954 -0.4362
  662SOL    HW211846   2.389   4.813   1.472  0.6395  0.0122  0.6383
  663SOL     OW11847   2.050  10.145   1.608  0.5634 -0.1251  0.3791
  663SOL    HW111848   2.015  10.225   1.657  0.3263 -0.7188  1.1748
  663SOL    HW211849   2.053  10.165   1.510 -1.4832  0.1245  0.3499
  664SOL     OW11850   4.827   4.546   1.468 -0.0315 -0.4330  0.5032
  664SOL    HW111851   4.799   4.480   1.399  1.9094 -1.2762  0.4742
  664SOL    HW211852   4.843   4.635   1.425  0.8905 -0.8857 -0.1153
  665SOL     OW11853   2.033   9.718   1.941  0.3780 -0.1199 -0.1969
  665SOL    HW111854   2.036   9.818   1.935 -0.1465 -0.0590  0.4967
  665SOL    HW211855   1.940   9.687   1.927  1.3285 -0.9230 -5.9791
  666SOL     OW11856   4.020   3.385  -0.059  0.4153 -0.2432 -0.6678
  666SOL    HW111857   4.065   3.378   0.030  1.3839  0.5595 -1.0749
  666SOL    HW211858   4.069   3.452  -0.115  0.0387 -1.0204 -1.9363
  667SOL     OW11859   4.246   9.627   0.104  0.3329 -0.0248 -0.0543
  667SOL    HW111860   4.249   9.534   0.068  0.0107 -0.7101  1.6645
  667SOL    HW211861   4.256   9.625   0.204 -1.2740  1.6603  0.1724
  668SOL     OW11862   3.789   1.838   1.569 -0.7084 -0.0628 -0.5451
  668SOL    HW111863   3.822   1.746   1.544 -1.5069 -0.5443  0.1587
  668SOL    HW211864   3.723   1.830   1.643 -0.3680  1.1373 -0.1138
  669SOL     OW11865   3.212   9.059   1.151  0.6296  0.0743 -0.1995
  669SOL    HW111866   3.155   9.138   1.129  1.0594  0.8211  1.2940
  669SOL    HW211867   3.271   9.037   1.074  0.1069  0.8637 -0.8272
  670SOL     OW11868   2.924   1.019   0.321  0.4752  0.4861 -0.0622
  670SOL    HW111869   2.883   1.003   0.411  1.3713  0.4709  0.3497
  670SOL    HW211870   2.996   0.952   0.305 -0.3902 -0.1760 -1.2446
  671SOL     OW11871   4.370   4.527   1.327 -0.3005  0.4452  0.5126
  671SOL    HW111872   4.385   4.626   1.336  0.5962  0.5150 -1.4191
  671SOL    HW211873   4.420   4.479   1.399  0.7637  1.3071  0.3630
  672SOL     OW11874   2.815   8.871   0.537 -0.6163  0.1204 -0.7022
  672SOL    HW111875   2.872   8.897   0.615 -2.4016 -1.6656  1.2567
  672SOL    HW211876   2.797   8.951   0.481  0.0769  1.5994  1.1261
  673SOL     OW11877   2.218   3.936   1.974 -0.0274 -0.0352  0.3440
  673SOL    HW111878   2.233   3.840   1.996  1.0096  0.5112  2.0838
  673SOL    HW211879   2.169   3.980   2.049 -1.8195  0.4677 -1.0872
  674SOL     OW11880   2.822   7.869   2.139 -0.2052  0.1479  0.1953
  674SOL    HW111881   2.835   7.961   2.177  0.2448  0.1717 -0.0120
  674SOL    HW211882   2.886   7.855   2.063  0.8759 -0.9339  1.2890
  675SOL     OW11883   3.768   4.786   2.513  0.1506  0.2430 -0.1839
  675SOL    HW111884   3.858   4.774   2.556 -0.6043  0.8890  1.6634
  675SOL    HW211885   3.779   4.793   2.414  2.2570  1.3198  0.0879
  676SOL     OW11886   3.858   1.049   0.435  0.0369 -0.1260  0.7999
  676SOL    HW111887   3.766   1.062   0.472  0.0577  0.9343  0.4819
  676SOL    HW211888   3.864   0.958   0.393 -1.4067  0.4861 -0.7786
  677SOL     OW11889   2.162   1.437   0.460  0.2312  0.3282  0.0652
  677SOL    HW111890   2.134   1.432   0.364  1.0698 -0.2232 -0.1528
  677SOL    HW211891   2.260   1.416   0.468  0.1073  0.0991  1.0749
  678SOL     OW11892   5.220   3.154   0.195 -0.3941  0.0915 -0.0664
  678SOL    HW111893   5.171   3.209   0.127 -0.5933 -0.5817 -0.4736
  678SOL    HW211894   5.267   3.079   0.149  1.6094  1.1418  0.2361
  679SOL     OW11895   4.689   3.637   1.834  0.1093 -0.0742  0.9702
  679SOL    HW111896   4.692   3.656   1.735  0.1951 -1.4559  0.6908
  679SOL    HW211897   4.618   3.570   1.852  0.5078 -0.2842  1.7710
  680SOL     OW11898   2.031   8.926   1.391  0.1308 -0.5049  0.0648
  680SOL    HW111899   2.035   8.917   1.292 -1.6754 -1.3050  0.0414
  680SOL    HW211900   2.020   8.836   1.433 -0.8833 -0.0310  0.8647
  681SOL     OW11901   2.921   2.404   2.553 -0.1181  0.4317 -0.1017
  681SOL    HW111902   2.985   2.381   2.480 -1.5209  0.4045 -1.3408
  681SOL    HW211903   2.834   2.433   2.514 -1.3822 -0.9809  1.5569
  682SOL     OW11904   3.216   8.234   0.851 -0.4936 -0.1048 -0.3999
  682SOL    HW111905   3.131   8.278   0.878 -1.1744 -1.2499 -0.6586
  682SOL    HW211906   3.198   8.161   0.785  0.6402 -0.5861 -0.2082
  683SOL     OW11907   2.119   4.340   1.040  0.4815  0.2522 -0.7692
  683SOL    HW111908   2.094   4.314   0.947  1.5793  0.2684 -1.0709
  683SOL    HW211909   2.164   4.262   1.085 -0.0468  0.2438 -0.2461
  684SOL     OW11910   3.898   1.449   1.053  0.0916  0.1381  0.6195
  684SOL    HW111911   3.982   1.465   1.104  0.2016  1.1318  0.1460
  684SOL    HW211912   3.907   1.488   0.961 -0.6027 -0.4275  0.3045
  685SOL     OW11913   3.826   0.864   0.087 -0.1954  0.3710  0.1447
  685SOL    HW111914   3.747   0.819   0.129 -0.0883 -1.5346 -1.6685
  685SOL    HW211915   3.799   0.902  -0.002  0.7674  0.3323 -0.1614
  686SOL     OW11916   3.723   4.885   1.606 -0.4514  0.0542  0.2788
  686SOL    HW111917   3.634   4.928   1.626 -0.5276 -0.1563  0.3981
  686SOL    HW211918   3.790   4.955   1.583 -0.5484  0.2489  0.5846
  687SOL     OW11919   3.394   3.766   1.074 -0.1874  0.5134  0.0057
  687SOL    HW111920   3.391   3.683   1.130 -2.1586  0.6852  0.1664
  687SOL    HW211921   3.489   3.795   1.063  0.3529 -0.5437  1.7454
  688SOL     OW11922   3.824   1.942   0.951  0.2178 -0.5827 -0.3372
  688SOL    HW111923   3.725   1.942   0.940  0.1868 -1.6602 -0.0851
  688SOL    HW211924   3.853   2.031   0.987 -0.4057  0.5099 -2.4959
  689SOL     OW11925   2.347   6.636   1.567  0.0299 -0.7619  0.0584
  689SOL    HW111926   2.416   6.573   1.530 -2.1524 -1.4388 -3.0517
  689SOL    HW211927   2.263   6.585   1.586 -1.1043  0.8194 -0.5862
  690SOL     OW11928   2.241   7.736   0.838 -0.1619  0.1552 -0.5569
  690SOL    HW111929   2.216   7.832   0.848  0.1735  0.2577 -0.7110
  690SOL    HW211930   2.174   7.690   0.779 -1.3319 -0.1172  0.9487
  691SOL     OW11931   3.510   2.868   1.086  0.2129  0.6654  0.3753
  691SOL    HW111932   3.527   2.772   1.109  0.7851  0.6554 -0.0704
  691SOL    HW211933   3.414   2.880   1.062  0.1581  0.1837  0.3398
  692SOL     OW11934   4.377   8.618   0.392 -0.7994 -0.0660  0.1066
  692SOL    HW111935   4.365   8.524   0.426  1.7334 -0.8304 -0.9687
  692SOL    HW211936   4.320   8.631   0.311 -0.2489 -1.1062 -0.4634
  693SOL     OW11937   1.675   9.290   1.233  0.0946  0.1594 -0.2540
  693SOL    HW111938   1.713   9.313   1.144 -0.7513 -0.8894 -0.8996
  693SOL    HW211939   1.697   9.362   1.299  1.8204  0.3332 -0.9923
  694SOL     OW11940   2.993   9.843   1.202  0.5065 -0.1623  0.4829
  694SOL    HW111941   2.918   9.866   1.140  0.2748  1.0649  1.1907
  694SOL    HW211942   3.069   9.906   1.185  1.0346 -0.8251  0.3869
  695SOL     OW11943   2.169   8.880   2.474 -0.3511  0.1581 -0.5122
  695SOL    HW111944   2.151   8.782   2.460 -0.2812  0.1075 -0.2359
  695SOL    HW211945   2.145   8.930   2.391  1.7630 -0.3772 -1.4922
  696SOL     OW11946   2.984   5.743   2.227  0.6010  0.3728 -0.1809
  696SOL    HW111947   3.045   5.713   2.300 -0.5646 -1.1351  0.2045
  696SOL    HW211948   3.014   5.703   2.140  0.5574  0.1573 -0.0989
  697SOL     OW11949   1.891   9.340   1.730  0.1976  0.0103 -0.2876
  697SOL    HW111950   1.929   9.430   1.709  0.1861 -0.0063 -0.3846
  697SOL    HW211951   1.920   9.274   1.660 -0.2794  0.0686 -0.5441
  698SOL     OW11952   3.555   9.689   1.328  0.6762 -0.5675 -0.5544
  698SOL    HW111953   3.624   9.658   1.262  0.8040 -1.4819  0.0130
  698SOL    HW211954   3.468   9.644   1.308 -0.5713  2.7568 -3.1172
  699SOL     OW11955   3.822   2.969   2.104  0.0251  0.2485 -0.8523
  699SOL    HW111956   3.824   2.881   2.057 -0.2754 -0.7819  1.0182
  699SOL    HW211957   3.732   2.983   2.146  0.0484  1.4757 -1.2100
  700SOL     OW11958   3.412   6.189   0.714  0.7133  0.3825 -0.3320
  700SOL    HW111959   3.401   6.135   0.797  0.1930  0.7645 -0.1456
  700SOL    HW211960   3.358   6.148   0.640  2.9530 -1.2442 -1.1154
  701SOL     OW11961   3.119   6.375   0.456 -0.0727 -0.5395  0.2253
  701SOL    HW111962   3.193   6.335   0.510 -0.9125 -0.4846  1.4182
  701SOL    HW211963   3.114   6.328   0.367  0.4379 -1.5267  0.7132
  702SOL     OW11964   3.234   9.621   0.635  0.3704  0.1614 -0.2735
  702SOL    HW111965   3.183   9.659   0.711  0.4664 -1.0614  0.4170
  702SOL    HW211966   3.319   9.581   0.668 -0.7841 -2.7191 -0.6080
  703SOL     OW11967   4.724   3.724   1.569 -0.0860 -0.0235 -0.1968
  703SOL    HW111968   4.650   3.707   1.504  1.4769  1.4154 -2.4525
  703SOL    HW211969   4.782   3.643   1.574  0.1466  0.0700 -1.1405
  704SOL     OW11970   2.217   0.410   1.835 -0.1679 -0.5917 -0.1453
  704SOL    HW111971   2.307   0.402   1.792  0.3112  1.2645  0.4975
  704SOL    HW211972   2.160   0.472   1.782 -1.4892 -2.6462 -1.1928
  705SOL     OW11973   3.003   9.684   0.161  0.4252  0.0950  0.4583
  705SOL    HW111974   2.968   9.613   0.100  0.1694  0.8990 -0.3321
  705SOL    HW211975   3.063   9.746   0.110 -2.6301  2.9101  0.1456
  706SOL     OW11976   3.116   6.156   0.926  0.4466 -0.4129 -0.8243
  706SOL    HW111977   3.044   6.094   0.956  0.2254  0.4994  0.5713
  706SOL    HW211978   3.187   6.104   0.879  0.4429 -1.7871  0.6452
  707SOL     OW11979   4.510   2.333   1.252  0.0804 -0.1446  0.5854
  707SOL    HW111980   4.588   2.273   1.241 -0.6891 -0.8785 -1.0615
  707SOL    HW211981   4.473   2.325   1.345  1.4147 -0.4274  1.0929
  708SOL     OW11982   3.304   6.245   0.242  0.1872  0.0478 -0.2810
  708SOL    HW111983   3.249   6.192   0.178 -0.7795 -0.9776  1.3495
  708SOL    HW211984   3.320   6.336   0.206 -1.9628  0.1151 -1.1163
  709SOL     OW11985   2.997   5.253   0.169  0.3675  0.1931 -0.0384
  709SOL    HW111986   2.932   5.288   0.237 -1.3090 -1.1618 -0.9214
  709SOL    HW211987   2.988   5.305   0.084  1.4919  0.9793  0.3180
  710SOL     OW11988   4.079   5.475   0.827 -0.2701  0.8152  0.2521
  710SOL    HW111989   4.062   5.499   0.732 -1.0454 -0.6982 -0.0094
  710SOL    HW211990   3.993   5.450   0.871  0.1621  0.9581  1.1979
  711SOL     OW11991   3.980   5.166   0.850  0.0153 -0.4946  0.2430
  711SOL    HW111992   4.045   5.093   0.830  1.5164  0.7433  0.5608
  711SOL    HW211993   3.995   5.200   0.943 -0.6942  0.2055  0.1105
  712SOL     OW11994   2.481   2.912   2.542  0.1404  0.3185  0.5238
  712SOL    HW111995   2.399   2.967   2.530  0.4030  0.8730  1.2305
  712SOL    HW211996   2.457   2.825   2.585  0.1133  1.0707  2.0444
  713SOL     OW11997   2.419   6.570   0.225  0.1487  0.5085  0.5374
  713SOL    HW111998   2.403   6.475   0.198  0.8825  0.4273  0.3835
  713SOL    HW211999   2.480   6.573   0.304  1.4498  0.8970 -0.4598
  714SOL     OW12000   2.579   9.126   0.682 -0.6862  0.1373 -0.0434
  714SOL    HW112001   2.678   9.121   0.700 -0.9143 -0.7194  1.0194
  714SOL    HW212002   2.536   9.186   0.749 -1.0193 -0.2169  0.0626
  715SOL     OW12003   4.545   4.762   0.532  0.0678 -0.0526  0.0030
  715SOL    HW112004   4.562   4.841   0.472 -0.4221 -0.3710 -0.5684
  715SOL    HW212005   4.578   4.782   0.624  0.8789  0.4323 -0.3852
  716SOL     OW12006   3.404   9.371   1.494  0.0219  0.1734 -0.2331
  716SOL    HW112007   3.324   9.395   1.550 -0.8961 -1.4469 -0.8032
  716SOL    HW212008   3.455   9.297   1.539 -0.7280 -1.1437 -1.5063
  717SOL     OW12009   2.431   6.270   2.290 -0.0750 -0.3651  0.0816
  717SOL    HW112010   2.426   6.203   2.364 -0.9425  0.6860  1.0042
  717SOL    HW212011   2.375   6.350   2.314  2.3254  1.4478 -0.2047
  718SOL     OW12012   2.566   6.486   1.557 -0.5163 -0.1130  0.3090
  718SOL    HW112013   2.660   6.518   1.568 -0.4393 -0.1645 -0.1963
  718SOL    HW212014   2.564   6.386   1.561 -0.6723 -0.0825  1.2325
  719SOL     OW12015   3.126   4.461   2.057 -0.1284 -0.2189 -0.1041
  719SOL    HW112016   3.173   4.386   2.104 -1.5504 -1.8325 -1.1930
  719SOL    HW212017   3.087   4.523   2.125  1.5128 -0.1711  0.8120
  720SOL     OW12018   4.558   4.848   2.234  0.6501 -0.2086  0.6078
  720SOL    HW112019   4.651   4.880   2.254  1.3147 -1.0931 -0.9603
  720SOL    HW212020   4.557   4.748   2.229  0.4183 -0.0876 -3.0349
  721SOL     OW12021   3.259   4.156   2.535 -0.1700 -0.0666  0.5310
  721SOL    HW112022   3.202   4.182   2.613 -0.1141  1.1163  0.1946
  721SOL    HW212023   3.206   4.167   2.451 -0.5498 -2.2785  0.4699
  722SOL     OW12024   4.736   4.196  -0.086 -0.4433 -0.4764  0.4585
  722SOL    HW112025   4.793   4.121  -0.119  0.3284 -0.4502  1.7112
  722SOL    HW212026   4.787   4.251  -0.019 -1.5348  0.2288  0.7348
  723SOL     OW12027   3.969   2.487   1.529 -0.5942  0.3851  0.5363
  723SOL    HW112028   3.996   2.400   1.488 -2.5608 -1.1052  2.2624
  723SOL    HW212029   4.037   2.557   1.508  1.7249 -1.8836  0.2372
  724SOL     OW12030   2.211   0.599   2.525 -0.2048  0.2270  0.3625
  724SOL    HW112031   2.181   0.503   2.521  2.8335 -0.7714 -0.2212
  724SOL    HW212032   2.205   0.639   2.434 -0.4419  0.2390  0.3841
  725SOL     OW12033   2.479   4.300   1.106  0.5110  0.0470 -0.9069
  725SOL    HW112034   2.425   4.379   1.075  1.0693  0.2475 -1.3857
  725SOL    HW212035   2.576   4.322   1.097  0.6807 -1.1627 -2.2519
  726SOL     OW12036   3.337   2.933  -0.067 -0.0390 -0.1912 -0.3953
  726SOL    HW112037   3.301   2.854  -0.117  0.1207 -1.6052  1.6271
  726SOL    HW212038   3.415   2.904  -0.011 -0.3316  1.2799  0.8125
  727SOL     OW12039   2.950   9.912   0.366  0.4664  0.0781 -0.0711
  727SOL    HW112040   3.033   9.892   0.312  1.0483  0.3636  0.7117
  727SOL    HW212041   2.870   9.908   0.306  1.2113  1.3630 -1.1732
  728SOL     OW12042   5.311   2.471   0.897  0.3270  0.1545 -0.5510
  728SOL    HW112043   5.264   2.558   0.912  0.1971  0.2117 -1.2588
  728SOL    HW212044   5.276   2.429   0.814  1.6189  0.2544 -1.1508
  729SOL     OW12045   3.608   0.493   0.142 -0.1485  0.0571 -0.1529
  729SOL    HW112046   3.684   0.454   0.193 -1.1642 -1.5313  0.1816
  729SOL    HW212047   3.625   0.485   0.044  0.0634 -0.3817 -0.0794
  730SOL     OW12048   3.726   9.927   0.686 -0.1460  0.3432  0.5403
  730SOL    HW112049   3.629   9.912   0.706 -0.3482  1.7170  0.6980
  730SOL    HW212050   3.745   9.903   0.591 -1.3587  2.9652 -0.4331
  731SOL     OW12051   5.307   3.853   1.802  0.0721  0.3886  0.6674
  731SOL    HW112052   5.349   3.762   1.793  1.1994  1.0489 -1.0110
  731SOL    HW212053   5.305   3.879   1.898  0.5424 -1.0553  1.0827
  732SOL     OW12054   2.105   9.225   1.908 -0.1829 -0.6520  0.1039
  732SOL    HW112055   2.021   9.278   1.904  0.2490 -0.0246 -0.6429
  732SOL    HW212056   2.155   9.248   1.992 -0.6132 -0.8266  0.4124
  733SOL     OW12057   3.327   7.203   1.238 -0.0799 -0.0348 -0.2137
  733SOL    HW112058   3.240   7.156   1.257 -0.7359  1.0584 -0.4675
  733SOL    HW212059   3.379   7.149   1.172 -0.8813 -0.3636 -0.5916
  734SOL     OW12060   3.228   4.152   1.867 -0.0911 -0.0306 -0.1100
  734SOL    HW112061   3.295   4.197   1.808 -0.7441  2.3827  0.9082
  734SOL    HW212062   3.275   4.089   1.929  0.9444 -0.2324 -1.0975
  735SOL     OW12063   4.834   1.824   0.795 -0.0004  0.3515 -0.2906
  735SOL    HW112064   4.776   1.850   0.718 -0.3248  1.3883  0.2813
  735SOL    HW212065   4.925   1.800   0.762 -0.0247  1.1573 -0.9646
  736SOL     OW12066   2.800   3.388   0.951  0.5745 -0.2287  0.0331
  736SOL    HW112067   2.701   3.380   0.967  0.3150  0.7944 -0.9970
  736SOL    HW212068   2.830   3.481   0.975  1.0037 -0.0761 -1.0558
  737SOL     OW12069   3.908   2.738   0.953 -0.3309 -0.1016 -0.2810
  737SOL    HW112070   3.821   2.743   0.904  0.1012  0.1840 -1.0274
  737SOL    HW212071   3.923   2.825   1.001 -0.2605  0.0030 -0.4911
  738SOL     OW12072   4.385   5.105   0.316  0.0863  0.2904  0.0389
  738SOL    HW112073   4.395   5.101   0.217  0.1526 -1.0147  0.0860
  738SOL    HW212074   4.293   5.076   0.341 -0.5388  2.4259  0.2465
  739SOL     OW12075   2.380   7.691  -0.007  0.2185 -0.0216  0.0553
  739SOL    HW112076   2.465   7.684  -0.060 -0.1600  1.9794 -0.8734
  739SOL    HW212077   2.390   7.762   0.062 -0.7251  0.2715 -0.1057
  740SOL     OW12078   2.208   9.111   0.608  0.0915  0.3138 -0.0940
  740SOL    HW112079   2.286   9.052   0.590 -1.3516 -2.1590  1.4340
  740SOL    HW212080   2.181   9.157   0.524  2.9521  0.9744 -0.7179
  741SOL     OW12081   4.496   3.299   1.703  0.2902  0.3620  0.3007
  741SOL    HW112082   4.529   3.278   1.795  2.3296  0.1810 -0.4355
  741SOL    HW212083   4.490   3.398   1.691  1.0862  0.4205  0.2989
  742SOL     OW12084   4.142   4.826   0.631  0.4206 -0.1221 -0.7912
  742SOL    HW112085   4.048   4.837   0.599 -0.2922 -2.7662  0.2787
  742SOL    HW212086   4.196   4.779   0.562  0.1962 -1.1995 -0.2486
  743SOL     OW12087   2.530   8.409   1.479 -0.1728  0.1339 -0.4586
  743SOL    HW112088   2.524   8.313   1.505  1.8922  0.4645  1.2960
  743SOL    HW212089   2.589   8.419   1.399  0.8064  0.0828  0.2504
  744SOL     OW12090   3.881   5.252   2.044 -0.1008 -0.1017  0.0783
  744SOL    HW112091   3.956   5.318   2.044 -0.0505 -0.1542  1.2186
  744SOL    HW212092   3.876   5.208   1.955  2.4391 -1.4735  0.5645
  745SOL     OW12093   4.174   3.941   0.662 -0.1964 -0.4909  0.6116
  745SOL    HW112094   4.188   4.006   0.736  0.0391 -0.9061  0.9321
  745SOL    HW212095   4.113   3.981   0.594  0.4428  0.3078  0.5013
  746SOL     OW12096   4.096  10.000   2.496 -0.0643  0.2534 -0.6359
  746SOL    HW112097   4.090   9.957   2.586 -0.0464  0.7179 -0.4077
  746SOL    HW212098   4.148   9.941   2.434 -0.4910 -0.2872 -0.4784
  747SOL     OW12099   2.944   0.341   0.334  0.6670  0.0680 -0.1634
  747SOL    HW112100   2.932   0.317   0.237 -1.1532 -0.9503  0.2864
  747SOL    HW212101   2.855   0.344   0.379  1.4491  1.1319  1.3591
  748SOL     OW12102   3.861   4.216   0.256 -0.1612 -0.0924 -0.3903
  748SOL    HW112103   3.796   4.213   0.179 -0.6346  0.2756 -0.0090
  748SOL    HW212104   3.954   4.213   0.220 -0.3596  1.1695 -1.0431
  749SOL     OW12105   5.117   3.673   1.032 -0.4899  0.6341  1.2329
  749SOL    HW112106   5.030   3.721   1.045 -0.6639  0.3792  1.0017
  749SOL    HW212107   5.118   3.628   0.942 -0.1723  0.5259  1.2884
  750SOL     OW12108   4.484   4.129   2.141 -0.1788  0.2954 -0.5024
  750SOL    HW112109   4.442   4.166   2.224 -0.3188 -2.2311  0.5852
  750SOL    HW212110   4.580   4.110   2.157 -0.3887 -0.9350 -0.6695
  751SOL     OW12111   2.789   1.164   1.229 -0.2739 -0.1740  0.4287
  751SOL    HW112112   2.860   1.143   1.162  1.6190 -3.5326  3.2787
  751SOL    HW212113   2.702   1.125   1.198  0.0914  0.1747 -1.0667
  752SOL     OW12114   3.271   9.930   1.221  0.1695  0.1648  0.0643
  752SOL    HW112115   3.279   9.860   1.291 -2.2567  0.0595  0.2615
  752SOL    HW212116   3.338   9.913   1.148  1.1702 -0.9851  1.2349
  753SOL     OW12117   3.679   4.686   2.034  0.1120 -0.1832  0.1262
  753SOL    HW112118   3.751   4.744   1.997  0.9911 -1.7401 -0.6332
  753SOL    HW212119   3.595   4.699   1.981  1.2715 -2.1519 -2.2565
  754SOL     OW12120   2.912   1.586   0.801 -0.0071 -0.3554  0.0349
  754SOL    HW112121   2.875   1.673   0.836  0.6094  1.0381 -2.6118
  754SOL    HW212122   3.011   1.593   0.791 -0.0509 -1.0321 -1.0152
  755SOL     OW12123   1.764   8.723   1.258 -0.4232  0.1064  0.0978
  755SOL    HW112124   1.698   8.782   1.212 -0.3002 -1.1515 -1.7740
  755SOL    HW212125   1.854   8.735   1.216 -0.1360 -0.4619  0.5460
  756SOL     OW12126   4.876   3.345   0.898 -0.5055 -0.3783 -0.0479
  756SOL    HW112127   4.816   3.355   0.978 -0.4101 -1.4528  0.1602
  756SOL    HW212128   4.820   3.343   0.815 -0.5434  1.6715 -0.0891
  757SOL     OW12129   5.111   4.059   0.974  0.3763 -0.1139  0.1128
  757SOL    HW112130   5.060   4.000   1.036 -0.7866  0.5561 -0.2001
  757SOL    HW212131   5.208   4.036   0.978  0.1873 -0.6738  1.5140
  758SOL     OW12132   3.789   8.985   1.416 -0.1577  0.4621 -0.0502
  758SOL    HW112133   3.811   8.898   1.460 -0.1815  0.6288  0.2952
  758SOL    HW212134   3.868   9.046   1.422  0.3696 -0.0716 -1.6261
  759SOL     OW12135   1.865   7.702   2.268 -0.0142 -0.1755 -0.0962
  759SOL    HW112136   1.856   7.612   2.223  1.6562 -0.3624 -0.0815
  759SOL    HW212137   1.939   7.753   2.225 -1.3769  1.4878 -0.5411
  760SOL     OW12138   3.893   4.838   0.524  0.1554  0.6211  0.1417
  760SOL    HW112139   3.826   4.912   0.518  0.0097  0.3934 -1.2169
  760SOL    HW212140   3.846   4.752   0.545 -0.2433  0.1265 -2.5598
  761SOL     OW12141   2.688   6.097   2.165  0.0391  0.1924  0.1303
  761SOL    HW112142   2.671   6.001   2.145 -2.0008  0.6308 -0.3529
  761SOL    HW212143   2.616   6.132   2.224  1.9556  0.8812  2.1113
  762SOL     OW12144   3.654   9.495   0.969  0.3056 -0.0715 -0.1074
  762SOL    HW112145   3.568   9.446   0.980  0.4268 -0.4621 -0.8551
  762SOL    HW212146   3.702   9.460   0.889  0.9050  0.5182 -0.0110
  763SOL     OW12147   3.772   2.727   2.559 -0.5119  0.2453  0.0836
  763SOL    HW112148   3.823   2.813   2.566 -0.2677 -0.0114  1.5266
  763SOL    HW212149   3.757   2.689   2.650 -0.9540 -1.0601 -0.5170
  764SOL     OW12150   4.471   3.102   0.678 -0.3518  0.4981  0.1833
  764SOL    HW112151   4.553   3.059   0.715 -1.8782 -1.1911  1.6761
  764SOL    HW212152   4.419   3.036   0.625  0.2783  2.1194 -2.5941
  765SOL     OW12153   1.988   8.653   1.074  0.6659  0.4041 -0.6347
  765SOL    HW112154   1.896   8.642   1.035  0.5064  0.4756 -0.2810
  765SOL    HW212155   2.054   8.604   1.017  0.6962  1.9988 -2.0205
  766SOL     OW12156   2.906   3.490   0.693  0.6842 -0.2313  0.4918
  766SOL    HW112157   2.912   3.590   0.692 -0.3040 -0.1748  0.3066
  766SOL    HW212158   2.890   3.458   0.786 -0.6300 -0.1218  0.3056
  767SOL     OW12159   3.296   4.255   2.133 -0.2103 -0.4217 -0.4010
  767SOL    HW112160   3.300   4.209   2.044  0.9600  0.7911 -0.9893
  767SOL    HW212161   3.367   4.217   2.193  0.0539 -0.1361 -0.5300
  768SOL     OW12162   2.467   1.484  -0.067  0.3163  0.1769  0.3521
  768SOL    HW112163   2.566   1.469  -0.075 -0.0296 -1.3833 -1.2345
  768SOL    HW212164   2.441   1.564  -0.120  0.3812 -0.8289 -1.2126
  769SOL     OW12165   2.812   6.797   2.519  0.1809  0.3152  0.0625
  769SOL    HW112166   2.755   6.818   2.439 -1.0237 -0.2037  0.7830
  769SOL    HW212167   2.886   6.864   2.525 -0.0765  0.7282 -1.1351
  770SOL     OW12168   3.997   1.830   1.124 -0.0182  0.1161 -0.2246
  770SOL    HW112169   3.919   1.867   1.075 -1.4155 -1.1157  0.9977
  770SOL    HW212170   4.080   1.841   1.070 -1.4370 -0.7432 -2.6344
  771SOL     OW12171   2.522   2.334   0.193 -0.0830  0.1507  0.2947
  771SOL    HW112172   2.468   2.394   0.134 -0.9761 -0.8542  0.0590
  771SOL    HW212173   2.504   2.238   0.168  1.8307 -0.1936  0.2106
  772SOL     OW12174   2.200   2.997   0.128 -0.6780  0.0472  0.2879
  772SOL    HW112175   2.295   2.972   0.148 -0.7142 -0.6033 -0.3244
  772SOL    HW212176   2.169   3.065   0.194  0.7753  1.5769 -0.5352
  773SOL     OW12177   2.016   8.908   1.096  0.0628 -0.1353 -0.3636
  773SOL    HW112178   1.942   8.924   1.032 -0.1128  0.9805  0.1101
  773SOL    HW212179   2.051   8.815   1.085 -0.3439 -0.1358 -1.6754
  774SOL     OW12180   4.116   5.006   0.358 -0.5527  0.8832  0.5163
  774SOL    HW112181   4.024   5.046   0.350 -0.9567 -0.3447 -1.4393
  774SOL    HW212182   4.125   4.964   0.448 -1.8691  1.1326  0.7871
  775SOL     OW12183   3.590   1.437  -0.008 -0.5410  0.6154 -0.2681
  775SOL    HW112184   3.492   1.457  -0.008 -0.2268  2.2565  0.4608
  775SOL    HW212185   3.629   1.461   0.081  0.7073  0.9078 -0.8798
  776SOL     OW12186   4.779   3.315   0.642  0.3033 -0.3463  0.1401
  776SOL    HW112187   4.762   3.222   0.676 -1.8218 -0.4261 -1.0578
  776SOL    HW212188   4.849   3.312   0.572 -0.1289 -1.1270 -0.2699
  777SOL     OW12189   3.007   1.307   0.800 -0.0147  0.1053  0.2895
  777SOL    HW112190   2.965   1.397   0.805  0.3036  0.2305  0.7471
  777SOL    HW212191   3.093   1.308   0.850 -1.1116 -1.0700  2.2598
  778SOL     OW12192   4.583   0.625   0.824 -0.6122 -0.6992  0.3995
  778SOL    HW112193   4.621   0.696   0.884 -1.0646  0.2037 -0.3607
  778SOL    HW212194   4.535   0.558   0.879 -0.2620 -0.3584  1.1296
  779SOL     OW12195   2.721   0.355   1.944  0.2232 -0.3322 -0.6226
  779SOL    HW112196   2.753   0.427   1.883  1.3974 -2.1267 -2.1922
  779SOL    HW212197   2.791   0.336   2.013  0.7764 -1.3419 -1.4516
  780SOL     OW12198   2.297   2.628   1.431  0.0288 -0.3439  0.8342
  780SOL    HW112199   2.337   2.584   1.351  1.9747  0.6548  1.2236
  780SOL    HW212200   2.253   2.714   1.403  0.3705 -0.1883  0.7709
  781SOL     OW12201   3.641   0.747   0.244 -0.0297  0.1577 -0.1053
  781SOL    HW112202   3.680   0.751   0.336 -0.5511  0.7985  0.0929
  781SOL    HW212203   3.627   0.651   0.217  2.7167 -0.1514 -0.6351
  782SOL     OW12204   3.068   3.494   1.206 -0.2299 -0.2052  0.1615
  782SOL    HW112205   3.045   3.468   1.300  0.2145 -1.2509 -0.0158
  782SOL    HW212206   3.167   3.498   1.196 -0.2725  2.5558  0.4471
  783SOL     OW12207   5.059   3.747   0.314 -0.3456 -0.1989  0.3109
  783SOL    HW112208   5.110   3.832   0.309 -0.1656 -0.3131  0.2181
  783SOL    HW212209   5.114   3.676   0.358 -1.0422  0.1378  1.7569
  784SOL     OW12210   3.781   8.581   0.424  0.0806  0.1761 -0.4649
  784SOL    HW112211   3.880   8.574   0.410 -0.0465 -1.0467 -0.7638
  784SOL    HW212212   3.754   8.519   0.497 -0.2132  1.8226  0.8558
  785SOL     OW12213   4.110   3.731   1.638  0.3669 -0.4506  0.3358
  785SOL    HW112214   4.071   3.641   1.653 -2.3205 -0.2196 -4.3000
  785SOL    HW212215   4.205   3.721   1.607 -0.4604 -1.8721 -1.8903
  786SOL     OW12216   3.159   8.437   1.902 -0.8241 -0.2494  0.2059
  786SOL    HW112217   3.198   8.352   1.865 -0.8706 -0.4303  0.5692
  786SOL    HW212218   3.075   8.459   1.852 -1.5713 -1.1753  1.0255
  787SOL     OW12219   2.671   1.217   1.657 -0.0613 -0.3644 -0.5867
  787SOL    HW112220   2.720   1.303   1.641  0.4910 -0.5001  0.3368
  787SOL    HW212221   2.726   1.140   1.623 -0.2276 -0.4102 -0.7516
  788SOL     OW12222   3.210   8.237  -0.072 -0.1613  0.6878 -0.8710
  788SOL    HW112223   3.206   8.157  -0.133  0.1123 -0.9082  1.1676
  788SOL    HW212224   3.119   8.260  -0.040 -0.0014 -0.0115  0.0835
  789SOL     OW12225   4.310   2.375   1.480 -0.3029 -0.1387 -0.4203
  789SOL    HW112226   4.273   2.467   1.476 -0.9453 -0.3201  1.1761
  789SOL    HW212227   4.237   2.309   1.465 -0.1822 -0.4363  0.2899
  790SOL     OW12228   4.008   0.804   0.282  0.1450  0.3420  0.5294
  790SOL    HW112229   3.975   0.809   0.188 -1.9540 -0.4851  1.2128
  790SOL    HW212230   4.085   0.867   0.293 -0.7206  1.7596 -1.2717
  791SOL     OW12231   2.966   4.807   2.444  0.3227 -0.3374 -0.1670
  791SOL    HW112232   2.978   4.901   2.475  0.1615  0.3401 -2.0574
  791SOL    HW212233   2.920   4.753   2.515 -0.3455  1.2271  0.6021
  792SOL     OW12234   3.678   0.242   2.107 -0.7355 -0.5599 -0.4814
  792SOL    HW112235   3.666   0.256   2.205  1.5336  1.9883 -0.4941
  792SOL    HW212236   3.605   0.290   2.058  1.0021  2.5720 -0.1410
  793SOL     OW12237   4.526   4.467   0.495 -0.3501  0.0634 -0.4166
  793SOL    HW112238   4.525   4.433   0.401  2.2334 -0.3702 -0.3058
  793SOL    HW212239   4.554   4.563   0.496 -1.8491  0.5268 -0.1840
  794SOL     OW12240   1.926   9.867   0.429 -0.0497 -0.4955 -0.4519
  794SOL    HW112241   1.887   9.820   0.509 -2.3891  0.8894 -0.7329
  794SOL    HW212242   1.945   9.962   0.453  0.3208 -0.3745 -1.2198
  795SOL     OW12243   3.095   4.428   1.043  0.2423 -0.6460  0.7466
  795SOL    HW112244   3.085   4.403   1.139 -1.5776  0.2470  0.8096
  795SOL    HW212245   3.013   4.398   0.993 -0.4766  2.1642  0.1830
  796SOL     OW12246   4.757   1.649   2.410  0.5669 -0.1673 -0.0693
  796SOL    HW112247   4.747   1.654   2.310  1.2537  0.1220 -0.1296
  796SOL    HW212248   4.735   1.556   2.441 -2.5260  0.4963 -0.1251
  797SOL     OW12249   1.672   9.065   1.949  0.7395  0.3246  0.1637
  797SOL    HW112250   1.586   9.029   1.983  0.1942 -0.8801 -2.3625
  797SOL    HW212251   1.746   9.001   1.969  0.1895 -1.0679 -2.0466
  798SOL     OW12252   4.475   4.032   1.692 -0.3516  0.1706 -0.5990
  798SOL    HW112253   4.408   4.096   1.728 -0.3003 -0.2052  0.1690
  798SOL    HW212254   4.537   4.003   1.765 -1.3313 -1.9424 -0.5583
  799SOL     OW12255   2.124   9.563  -0.060  0.8156  0.1407  0.3077
  799SOL    HW112256   2.055   9.620  -0.104  0.1987 -0.0378  1.0400
  799SOL    HW212257   2.141   9.482  -0.116  0.9187  0.5133 -0.2039
  800SOL     OW12258   4.044   9.406   1.286  0.6149 -0.2520  0.0268
  800SOL    HW112259   4.013   9.314   1.311 -0.7239 -0.5403 -2.5432
  800SOL    HW212260   4.055   9.412   1.187 -0.2853  2.6566  0.0396
  801SOL     OW12261   2.278   4.503   2.153  0.3112  0.7422 -1.0025
  801SOL    HW112262   2.236   4.416   2.125 -0.5438  1.0941 -0.8095
  801SOL    HW212263   2.303   4.555   2.071  0.8201  0.3308 -1.1209
  802SOL     OW12264   3.622   9.621   2.298 -0.5955 -0.2186 -0.3113
  802SOL    HW112265   3.681   9.643   2.220 -0.6749 -0.2111 -0.3692
  802SOL    HW212266   3.652   9.536   2.340 -0.4386 -0.1254 -0.2376
  803SOL     OW12267   2.095   9.853   2.322 -0.2127 -0.0198 -0.1695
  803SOL    HW112268   2.171   9.917   2.332  0.9020 -1.6785  2.8676
  803SOL    HW212269   2.123   9.778   2.262  0.0861  0.1020 -0.1855
  804SOL     OW12270   2.659   2.477   1.951 -0.5977  0.2253 -0.2840
  804SOL    HW112271   2.606   2.393   1.963  0.8465 -1.0810 -2.8730
  804SOL    HW212272   2.651   2.508   1.857 -1.7542  3.4960  0.7975
  805SOL     OW12273   3.200   1.971   1.493  0.2099  0.5437  0.5252
  805SOL    HW112274   3.133   1.939   1.560 -0.9170  1.0834 -0.3341
  805SOL    HW212275   3.198   1.912   1.412  1.8210 -0.3199  1.0977
  806SOL     OW12276   1.960   6.824   1.497 -0.3826  0.2802  0.3424
  806SOL    HW112277   1.943   6.727   1.485  0.7462  0.1597 -0.3019
  806SOL    HW212278   1.960   6.846   1.594  0.5794 -0.5857  0.5440
  807SOL     OW12279   2.366   3.267  -0.084  0.2042 -0.2945  0.2323
  807SOL    HW112280   2.394   3.343  -0.143 -1.7632  0.0049 -0.3381
  807SOL    HW212281   2.275   3.235  -0.111  0.2364 -1.6582  1.6520
  808SOL     OW12282   2.966   3.227   2.355  0.1404 -0.3611  0.4925
  808SOL    HW112283   3.045   3.245   2.413  0.7652 -2.2113  0.2603
  808SOL    HW212284   2.941   3.130   2.362 -0.2244 -0.4582 -1.7561
  809SOL     OW12285   3.232   5.738   1.657 -0.0388 -0.3418 -0.4698
  809SOL    HW112286   3.205   5.648   1.692 -2.3767 -0.5827 -2.7304
  809SOL    HW212287   3.168   5.807   1.689 -0.7165 -0.1689 -2.1623
  810SOL     OW12288   3.867   8.249   0.790 -0.3763 -0.5675 -0.2488
  810SOL    HW112289   3.804   8.212   0.721 -2.6516  1.0574  0.8872
  810SOL    HW212290   3.848   8.207   0.879 -0.4847  0.5933  0.2880
  811SOL     OW12291   4.043   3.254   1.129 -0.0059 -0.1308  0.2368
  811SOL    HW112292   3.947   3.282   1.130 -0.7279 -2.4925  2.5789
  811SOL    HW212293   4.050   3.162   1.092  0.9087 -1.2678  3.0788
  812SOL     OW12294   2.435   8.970   0.523 -0.0682  0.4427 -0.3757
  812SOL    HW112295   2.475   9.035   0.587 -3.5298  1.4790  0.8407
  812SOL    HW212296   2.494   8.890   0.515  2.2033  1.9187  1.2893
  813SOL     OW12297   4.894   3.820   0.506 -0.1698 -0.5712 -0.1918
  813SOL    HW112298   4.804   3.829   0.465  0.8127  1.6995 -1.9705
  813SOL    HW212299   4.962   3.802   0.435  1.3704  2.0510  0.5495
  814SOL     OW12300   3.277   5.194   0.241 -0.5745  0.2294 -0.1287
  814SOL    HW112301   3.347   5.178   0.172 -0.3850 -2.0045  0.5599
  814SOL    HW212302   3.189   5.211   0.196 -0.0958  0.6025 -0.9387
  815SOL     OW12303   3.089   0.533   1.325 -0.2496 -0.4709 -0.5878
  815SOL    HW112304   3.035   0.557   1.245  1.0318 -0.4545 -1.4724
  815SOL    HW212305   3.156   0.606   1.342 -0.4520 -0.5223  0.4412
  816SOL     OW12306   5.399   3.034   1.766  0.0247  0.6779  0.1477
  816SOL    HW112307   5.356   2.964   1.708  0.7052 -1.1468  1.8069
  816SOL    HW212308   5.396   3.122   1.719 -1.1994 -0.3772 -1.8184
  817SOL     OW12309   2.497   1.508   1.654 -0.4767 -0.3644 -0.6095
  817SOL    HW112310   2.419   1.447   1.636 -0.4000 -0.5651 -0.2733
  817SOL    HW212311   2.579   1.470   1.611 -0.6257 -0.0043 -1.2043
  818SOL     OW12312   3.296   5.521   1.425  0.0457  0.3276  0.0511
  818SOL    HW112313   3.247   5.462   1.489 -0.7611  1.9084  0.9164
  818SOL    HW212314   3.235   5.545   1.348 -0.1897  1.3634  0.5475
  819SOL     OW12315   3.611   2.651   1.177 -0.3293 -0.0664  0.3721
  819SOL    HW112316   3.689   2.657   1.115 -0.5186  1.1064  0.2332
  819SOL    HW212317   3.643   2.633   1.270  0.0192 -0.8482  0.1013
  820SOL     OW12318   2.275   3.668   2.024 -0.2117  0.9667 -0.5876
  820SOL    HW112319   2.262   3.585   2.077  1.3077  0.7735 -0.4858
  820SOL    HW212320   2.293   3.644   1.928 -0.0711  1.1944 -0.6186
  821SOL     OW12321   3.127   0.642   0.217  0.1370 -0.2832  0.5311
  821SOL    HW112322   3.104   0.627   0.314 -2.0057 -0.3216  0.0442
  821SOL    HW212323   3.150   0.554   0.176  0.8309 -0.3017  0.9542
  822SOL     OW12324   2.804   9.498   2.107 -0.2715 -0.4524 -0.0557
  822SOL    HW112325   2.819   9.431   2.034 -1.6304 -1.2358  0.3660
  822SOL    HW212326   2.713   9.538   2.097 -1.1522 -1.8059  2.1778
  823SOL     OW12327   4.165   4.910   1.170 -0.3507 -0.2173 -0.2398
  823SOL    HW112328   4.235   4.981   1.169  0.4252 -0.9468  0.6672
  823SOL    HW212329   4.153   4.874   1.077  2.4280 -1.9271 -0.0062
  824SOL     OW12330   5.347   3.456   1.136 -0.0591  0.3720  0.3362
  824SOL    HW112331   5.441   3.480   1.161 -0.1093 -1.6122  2.5688
  824SOL    HW212332   5.285   3.495   1.204 -0.9688  2.3168 -1.5381
  825SOL     OW12333   3.961   1.115   2.285  0.5402  0.4113  0.2270
  825SOL    HW112334   3.865   1.086   2.277  0.6991 -0.0673  0.0234
  825SOL    HW212335   4.021   1.035   2.276  0.9532  0.6788  0.5628
  826SOL     OW12336   3.919   2.180   2.003 -0.2565 -0.2708 -0.3720
  826SOL    HW112337   3.819   2.174   2.007 -0.3790  1.3379 -0.4922
  826SOL    HW212338   3.948   2.187   1.908  0.1096 -2.4726 -0.4437
  827SOL     OW12339   5.230   3.157   2.518 -0.1991  0.4525  0.0584
  827SOL    HW112340   5.196   3.160   2.424  0.5469 -0.7879 -0.2600
  827SOL    HW212341   5.187   3.230   2.571 -2.2748 -0.1911 -0.6909
  828SOL     OW12342   2.191   4.953   0.827 -0.0632  0.3989  0.2793
  828SOL    HW112343   2.199   5.041   0.874  2.2202  1.9019 -2.7395
  828SOL    HW212344   2.137   4.965   0.744 -1.7025 -1.6112  1.0255
  829SOL     OW12345   2.335   0.807   1.229  0.0919 -0.6338 -0.1008
  829SOL    HW112346   2.287   0.800   1.316 -0.3723 -1.4448 -0.4151
  829SOL    HW212347   2.434   0.814   1.245  0.2386 -3.4026  0.4375
  830SOL     OW12348   3.054   3.009   0.279  0.6754 -0.0939 -0.1188
  830SOL    HW112349   2.991   3.040   0.207  0.9886  0.9151  0.0319
  830SOL    HW212350   3.119   3.081   0.299  1.2903 -0.7918  0.4036
  831SOL     OW12351   2.695   3.722   2.022  0.1092 -0.1788 -0.1591
  831SOL    HW112352   2.613   3.754   2.069  0.2152 -1.4510  0.9147
  831SOL    HW212353   2.732   3.796   1.965 -1.1609  0.7361  0.1822
  832SOL     OW12354   3.349   3.557   1.244 -0.2421 -0.1434 -0.3562
  832SOL    HW112355   3.402   3.472   1.247  0.9347  0.5570 -1.1493
  832SOL    HW212356   3.373   3.614   1.322 -0.2335 -0.0676 -0.4138
  833SOL     OW12357   1.711   9.506   1.408 -0.2065  0.3335 -0.2828
  833SOL    HW112358   1.700   9.550   1.497 -0.6435 -1.0091  0.3328
  833SOL    HW212359   1.808   9.492   1.390 -0.0929  1.0614 -0.2366
  834SOL     OW12360   2.798   6.274   1.054  0.2388  0.2806  0.4080
  834SOL    HW112361   2.873   6.293   1.117  0.4337  0.2770  0.1778
  834SOL    HW212362   2.805   6.180   1.021  0.5536  0.5028 -0.1734
  835SOL     OW12363   3.904   5.623   1.913 -0.0486 -0.2817  0.0226
  835SOL    HW112364   3.839   5.671   1.971  1.0814  0.4300  0.7226
  835SOL    HW212365   3.974   5.580   1.970 -0.3506 -1.7326 -0.6724
  836SOL     OW12366   3.939   4.507   0.999 -0.0622 -0.3961 -0.0510
  836SOL    HW112367   4.015   4.462   1.046 -0.8409 -0.6729  0.9625
  836SOL    HW212368   3.951   4.498   0.900  2.3513  1.4254  0.0215
  837SOL     OW12369   3.145   1.866   0.853  0.0465 -0.2289 -0.3200
  837SOL    HW112370   3.082   1.891   0.780  1.1116  2.3627 -0.4076
  837SOL    HW212371   3.137   1.932   0.928  2.0910 -0.3096  0.0071
  838SOL     OW12372   2.989   9.314   1.149  0.5135  0.9675 -0.3032
  838SOL    HW112373   2.969   9.405   1.186 -0.7264  0.7736 -0.4833
  838SOL    HW212374   3.000   9.249   1.224  0.3922  1.0617 -0.2033
  839SOL     OW12375   3.336   9.360   2.171 -0.1915  0.2455 -0.5258
  839SOL    HW112376   3.309   9.361   2.075 -0.0632  2.7425 -0.5577
  839SOL    HW212377   3.436   9.362   2.177 -0.2217  0.9349 -0.3211
  840SOL     OW12378   2.989   3.512  -0.071  0.1630  0.2667  0.2710
  840SOL    HW112379   3.018   3.592  -0.018 -0.4289  0.1200  0.8284
  840SOL    HW212380   3.010   3.526  -0.167  1.0304  0.6469  0.5061
  841SOL     OW12381   1.862   1.227   1.834 -0.2358 -0.4089  0.0822
  841SOL    HW112382   1.769   1.192   1.826 -0.1292 -0.2935 -2.0938
  841SOL    HW212383   1.923   1.154   1.865 -0.8150 -0.8766  0.1125
  842SOL     OW12384   2.240   5.277   1.272 -0.5219  0.1590 -0.6886
  842SOL    HW112385   2.213   5.209   1.204  1.1721 -1.8790  0.5781
  842SOL    HW212386   2.336   5.301   1.259 -0.5084  0.6445  0.2265
  843SOL     OW12387   2.817   8.510   1.547  0.0890  0.2231  0.0836
  843SOL    HW112388   2.758   8.553   1.615  1.9480  2.9114  0.0469
  843SOL    HW212389   2.771   8.510   1.459 -1.1582 -0.6718  0.7091
  844SOL     OW12390   3.319   8.688   0.922 -0.1580  0.7141  0.0178
  844SOL    HW112391   3.230   8.717   0.886 -1.3774  0.2144  2.4896
  844SOL    HW212392   3.355   8.613   0.867 -1.8175  0.1619 -0.3577
  845SOL     OW12393   4.500   4.444   1.075 -0.5206 -0.1317  0.3657
  845SOL    HW112394   4.496   4.524   1.014 -1.6429 -1.2792 -1.1032
  845SOL    HW212395   4.430   4.454   1.146  0.1639  0.7600  0.9352
  846SOL     OW12396   1.804   8.398   0.915  0.5526 -0.2414  0.2870
  846SOL    HW112397   1.848   8.329   0.858 -0.7662 -1.6153  0.8981
  846SOL    HW212398   1.750   8.353   0.986 -3.7160  1.3058 -1.7915
  847SOL     OW12399   3.229   9.988   0.567  0.5637  0.2550  0.3383
  847SOL    HW112400   3.163  10.051   0.608 -0.0196 -0.5589  0.6646
  847SOL    HW212401   3.187   9.943   0.488  0.5828 -0.5556  0.7807
  848SOL     OW12402   3.028   5.520   0.899  0.3701  0.1085  0.0721
  848SOL    HW112403   3.020   5.479   0.808  1.6534  1.8921 -0.8537
  848SOL    HW212404   3.123   5.513   0.931 -0.3936 -2.0911  2.0635
  849SOL     OW12405   4.188   1.583   1.858  0.2294  0.0432 -0.1965
  849SOL    HW112406   4.260   1.619   1.799  2.1298  0.6676  2.4246
  849SOL    HW212407   4.135   1.514   1.808  1.9342  0.3867 -2.5243
  850SOL     OW12408   2.614   3.882   2.579 -0.1097 -0.3891  0.1089
  850SOL    HW112409   2.675   3.804   2.566 -0.1984 -0.3415 -0.6116
  850SOL    HW212410   2.554   3.890   2.500  0.6481  1.0816 -0.3285
  851SOL     OW12411   3.649   8.658   1.718 -0.3613  0.4819  0.2941
  851SOL    HW112412   3.608   8.579   1.764  0.0839 -0.3154 -0.6580
  851SOL    HW212413   3.598   8.676   1.633  1.2170 -0.4768 -0.8676
  852SOL     OW12414   3.579   4.877   0.484  0.2384 -0.6158  0.1843
  852SOL    HW112415   3.623   4.864   0.573 -1.0172 -0.2310  0.8673
  852SOL    HW212416   3.504   4.942   0.493  0.5795 -0.0012 -1.3220
  853SOL     OW12417   4.965   3.071   1.066 -0.3794 -0.4437 -0.3535
  853SOL    HW112418   4.960   3.106   0.972 -0.1162 -0.0096 -0.2050
  853SOL    HW212419   5.059   3.075   1.098 -0.7421  1.1908  0.6012
  854SOL     OW12420   2.175   1.843   1.358 -0.4298  0.9952  0.3582
  854SOL    HW112421   2.254   1.870   1.413 -2.7294  1.9612  3.2740
  854SOL    HW212422   2.125   1.770   1.405 -1.8254  1.0567 -0.9970
  855SOL     OW12423   2.821   5.364   0.340  0.2098 -0.0377  0.0038
  855SOL    HW112424   2.783   5.271   0.342  1.2457 -0.5253 -1.6823
  855SOL    HW212425   2.753   5.427   0.303 -0.5780 -0.0653  1.3645
  856SOL     OW12426   4.109   9.555   1.945 -0.3285  0.0684  0.0813
  856SOL    HW112427   4.093   9.653   1.954 -1.5929 -0.0957 -0.1954
  856SOL    HW212428   4.181   9.526   2.008 -1.5911  0.7664  1.8804
  857SOL     OW12429   3.640   3.712   2.500  1.1293  0.0679 -0.2342
  857SOL    HW112430   3.707   3.639   2.489  1.3308  0.4683 -1.8104
  857SOL    HW212431   3.551   3.672   2.524  1.9109 -0.4577  1.8411
  858SOL     OW12432   1.709   7.452   2.424 -0.0233  0.3966 -0.1976
  858SOL    HW112433   1.721   7.366   2.475 -1.9903 -0.0015 -0.3881
  858SOL    HW212434   1.752   7.442   2.334  0.1716 -0.2147 -0.0447
  859SOL     OW12435   2.528   2.262   2.075  0.1775 -0.1500  0.1466
  859SOL    HW112436   2.478   2.282   2.159  1.7977  0.0211  1.0899
  859SOL    HW212437   2.623   2.241   2.097  0.3679 -1.1378 -1.5584
  860SOL     OW12438   4.839   3.403   2.356 -0.5435  0.8434  0.3178
  860SOL    HW112439   4.855   3.333   2.286 -0.6985  1.5053 -0.3847
  860SOL    HW212440   4.827   3.359   2.445 -1.7923 -0.1204 -0.3064
  861SOL     OW12441   3.867   4.458   2.378  0.1814 -0.2338  0.0475
  861SOL    HW112442   3.797   4.426   2.315  1.8981  0.3098 -2.2112
  861SOL    HW212443   3.890   4.553   2.357  0.1880  0.2368  2.0609
  862SOL     OW12444   3.412   4.549   1.538  0.7607  0.2505 -0.5321
  862SOL    HW112445   3.498   4.534   1.587 -1.2171 -1.1146  2.6358
  862SOL    HW212446   3.358   4.618   1.585 -2.0741 -2.5535  0.5007
  863SOL     OW12447   2.054   9.744   1.327  0.2523  0.4668  0.0711
  863SOL    HW112448   2.016   9.690   1.402 -0.8146 -0.1778 -0.9226
  863SOL    HW212449   1.999   9.730   1.244  1.1725  1.4874 -0.7267
  864SOL     OW12450   4.043   4.400   1.730  0.2592  0.1923  0.2636
  864SOL    HW112451   3.972   4.392   1.800  1.5821  0.3564  1.6448
  864SOL    HW212452   4.030   4.485   1.680 -1.7996 -0.7859 -0.9788
  865SOL     OW12453   2.457   4.640   1.526  0.1779 -0.3354  0.4306
  865SOL    HW112454   2.427   4.613   1.434 -1.1333 -0.4735  0.8947
  865SOL    HW212455   2.544   4.595   1.547  0.1388 -0.8377 -0.4692
  866SOL     OW12456   3.100   3.729   0.094  0.1721 -0.0403  0.0342
  866SOL    HW112457   3.025   3.794   0.097 -0.7732 -1.1007 -0.1692
  866SOL    HW212458   3.169   3.754   0.162 -0.9709  0.2073  1.1294
  867SOL     OW12459   2.827   6.575   0.140  0.1958  0.1230 -0.2168
  867SOL    HW112460   2.748   6.530   0.099 -0.1876  0.0517  0.6023
  867SOL    HW212461   2.800   6.619   0.226  0.6627  1.5321 -0.7744
  868SOL     OW12462   2.829   9.471   0.483  0.3609 -0.2452 -0.7520
  868SOL    HW112463   2.874   9.410   0.417  0.0310  0.3793 -1.5669
  868SOL    HW212464   2.875   9.560   0.482  0.0551 -0.0870 -0.4838
  869SOL     OW12465   2.393   4.244   2.262  0.0466  0.6447  0.3299
  869SOL    HW112466   2.314   4.238   2.201 -2.6128  2.1405  3.5392
  869SOL    HW212467   2.437   4.333   2.252  0.2900  0.4828 -0.1156
  870SOL     OW12468   3.648   1.275   0.757 -0.4268 -0.0984 -0.3272
  870SOL    HW112469   3.724   1.323   0.714 -0.0302 -0.9523 -0.5795
  870SOL    HW212470   3.661   1.275   0.856 -0.0663 -0.3034 -0.3750
  871SOL     OW12471   4.019   1.947   2.101  0.1610 -0.2391  0.0472
  871SOL    HW112472   4.117   1.965   2.100  0.2442 -0.7312 -1.1929
  871SOL    HW212473   3.969   2.026   2.065  0.1865 -0.4547 -0.4673
  872SOL     OW12474   4.275   1.112   0.612  0.1117  0.2458  0.1935
  872SOL    HW112475   4.227   1.118   0.699 -0.1262  1.6251 -0.0257
  872SOL    HW212476   4.208   1.105   0.537  0.2676  1.2527 -0.0430
  873SOL     OW12477   4.006   5.214   0.553  0.0152  0.2969  0.0676
  873SOL    HW112478   4.016   5.191   0.649  1.7284 -0.5808 -0.2976
  873SOL    HW212479   4.036   5.308   0.537  1.1100 -0.0402  0.1484
  874SOL     OW12480   4.536   2.604   0.836  0.6981  0.5177 -0.2031
  874SOL    HW112481   4.495   2.695   0.847  0.7034  0.6062 -0.8896
  874SOL    HW212482   4.619   2.598   0.890 -0.1546  0.3811  1.1120
  875SOL     OW12483   2.086   6.964   1.272 -0.1086 -0.3906  0.0362
  875SOL    HW112484   2.027   6.916   1.336 -1.1028 -1.5454 -1.7254
  875SOL    HW212485   2.182   6.941   1.291 -0.3640 -0.4764  1.2725
  876SOL     OW12486   3.569   2.230   0.430 -0.3791  0.8078  0.3039
  876SOL    HW112487   3.499   2.297   0.405 -0.5715  0.5538  0.1613
  876SOL    HW212488   3.542   2.184   0.515 -1.0397 -0.2317 -0.4528
  877SOL     OW12489   2.714   4.568   2.073 -0.3125 -0.5202 -0.1276
  877SOL    HW112490   2.755   4.652   2.106  0.0447 -0.5143 -0.5877
  877SOL    HW212491   2.655   4.529   2.144  1.2002 -1.0222  0.8816
  878SOL     OW12492   2.368   3.891   1.043  0.6052  0.2157 -0.3040
  878SOL    HW112493   2.349   3.938   0.957  0.9904  1.1098  0.0912
  878SOL    HW212494   2.383   3.793   1.026 -0.8435  0.1160 -1.0523
  879SOL     OW12495   4.118   3.985   1.473 -0.7189  0.0262  0.4383
  879SOL    HW112496   4.100   3.909   1.536 -2.6710 -0.3959 -0.5873
  879SOL    HW212497   4.045   3.990   1.405  0.1332  1.9532 -0.3760
  880SOL     OW12498   4.983   3.108   1.853 -0.1296 -0.3415  0.0337
  880SOL    HW112499   4.932   3.032   1.813 -1.4293  0.2217  0.5697
  880SOL    HW212500   5.078   3.081   1.867  0.3582 -0.5631 -3.3484
  881SOL     OW12501   3.791   1.346   1.386  0.0819 -0.2858  0.1736
  881SOL    HW112502   3.701   1.309   1.407 -0.4452  1.6901  1.5567
  881SOL    HW212503   3.802   1.352   1.287 -0.7384 -1.8428 -0.0352
  882SOL     OW12504   4.487   0.642   1.177  0.2476  0.6538  0.6590
  882SOL    HW112505   4.576   0.684   1.193  0.9630 -0.0568 -1.2880
  882SOL    HW212506   4.451   0.605   1.263  2.0472  0.5180  1.3634
  883SOL     OW12507   3.543   1.764   1.737 -0.2942  0.9925  0.3872
  883SOL    HW112508   3.521   1.667   1.734  1.1384  0.6862 -0.5777
  883SOL    HW212509   3.605   1.781   1.814  0.5510  0.9092 -0.2736
  884SOL     OW12510   4.704   4.961   1.020  0.0440  0.3582  0.6673
  884SOL    HW112511   4.627   5.024   1.026 -0.5297 -0.3810  1.0651
  884SOL    HW212512   4.784   5.010   0.986 -0.9355  0.8453 -1.0267
  885SOL     OW12513   3.042   0.292   1.232  0.2552 -0.1716 -0.2086
  885SOL    HW112514   2.971   0.235   1.275  0.4601 -0.9428 -0.8796
  885SOL    HW212515   3.069   0.365   1.295 -0.8698 -0.0990  0.1949
  886SOL     OW12516   2.769   4.819   0.838 -0.0251  0.2437  0.4979
  886SOL    HW112517   2.691   4.794   0.896 -0.4308  0.5581  0.0899
  886SOL    HW212518   2.743   4.812   0.742  1.1757 -1.9779  0.3043
  887SOL     OW12519   3.627   2.627   0.810 -0.7184 -0.8781  0.2493
  887SOL    HW112520   3.681   2.629   0.726  1.2248 -0.8005  1.4741
  887SOL    HW212521   3.574   2.711   0.818 -0.8041 -0.8278 -0.8086
  888SOL     OW12522   2.082   0.245   1.325  0.3222 -0.1198 -0.2751
  888SOL    HW112523   2.032   0.162   1.301  0.5348 -0.8118  1.5591
  888SOL    HW212524   2.150   0.265   1.255 -1.8256  0.2861 -2.2975
  889SOL     OW12525   3.681   0.994   1.598 -0.2351  0.0493 -0.1061
  889SOL    HW112526   3.647   0.993   1.692 -3.3501  0.5134 -1.1714
  889SOL    HW212527   3.662   1.082   1.556  1.5848  0.0284 -1.0576
  890SOL     OW12528   5.065   2.452   1.093  0.0437  0.1808  0.3792
  890SOL    HW112529   5.130   2.415   1.159 -0.5549  0.5878  1.2139
  890SOL    HW212530   4.981   2.478   1.141 -0.8555 -0.6317 -0.7304
  891SOL     OW12531   2.948   2.459   1.902 -0.2794 -0.2630 -0.2160
  891SOL    HW112532   2.977   2.500   1.816 -1.4293 -1.6765 -1.2769
  891SOL    HW212533   2.851   2.479   1.918 -0.4810 -1.3531 -0.0377
  892SOL     OW12534   2.679   2.776   2.357  0.0677 -0.0073  0.7192
  892SOL    HW112535   2.606   2.820   2.410  0.8890  0.1945  1.6990
  892SOL    HW212536   2.643   2.748   2.268 -1.2038  0.0893  1.1914
  893SOL     OW12537   5.030   3.743   1.383 -0.1778  0.1025 -0.9350
  893SOL    HW112538   5.039   3.644   1.381 -0.0755  0.0510  1.0235
  893SOL    HW212539   5.035   3.775   1.478  2.0895  2.1987 -1.7008
  894SOL     OW12540   3.808   5.133   0.387  0.1470 -0.0219  0.0992
  894SOL    HW112541   3.880   5.148   0.455 -0.6784 -2.0643  1.4624
  894SOL    HW212542   3.724   5.180   0.416 -0.0593 -0.4684  0.2191
  895SOL     OW12543   2.236   4.224   2.482 -0.0305  0.1546  0.4172
  895SOL    HW112544   2.292   4.210   2.400  1.6496 -0.1779  1.5870
  895SOL    HW212545   2.235   4.139   2.535 -2.0249  0.0269  0.2022
  896SOL     OW12546   2.296   3.803   1.575  0.5894  0.2982 -0.0007
  896SOL    HW112547   2.330   3.828   1.484 -3.1701  0.0490 -1.5534
  896SOL    HW212548   2.265   3.885   1.623 -1.6392 -0.0358 -0.7988
  897SOL     OW12549   2.810   9.755   0.726 -0.3980  0.0065 -0.0645
  897SOL    HW112550   2.789   9.853   0.728 -0.9568 -0.0730 -1.2745
  897SOL    HW212551   2.876   9.737   0.653 -1.3299 -0.7097 -0.7296
  898SOL     OW12552   3.758   9.053   0.161  0.0308  0.4609  0.2637
  898SOL    HW112553   3.745   9.074   0.258 -0.2075  0.0610  0.3208
  898SOL    HW212554   3.722   9.127   0.105 -1.5107 -0.1327  0.4401
  899SOL     OW12555   2.505   4.714  -0.066  0.0111  0.1645  0.2295
  899SOL    HW112556   2.597   4.683  -0.089  0.1073  0.6550 -0.0539
  899SOL    HW212557   2.469   4.658   0.009 -0.3545 -1.5012 -1.1608
  900SOL     OW12558   2.943   2.619   1.103  0.0569 -0.3700  0.5682
  900SOL    HW112559   2.874   2.622   1.175 -0.8937 -0.2856 -0.3470
  900SOL    HW212560   2.960   2.524   1.076  0.5058 -0.4109  0.9850
  901SOL     OW12561   1.711   9.703   2.326  0.0592  0.1108  0.0768
  901SOL    HW112562   1.649   9.691   2.404  0.1040 -1.2030 -0.0774
  901SOL    HW212563   1.803   9.676   2.352  0.1559  0.0758 -0.3013
  902SOL     OW12564   3.994   0.716   1.992  0.4397 -0.1295 -0.0156
  902SOL    HW112565   3.987   0.674   2.083  0.5714 -0.7687 -0.2948
  902SOL    HW212566   4.090   0.730   1.970  0.3560  3.8039  1.6334
  903SOL     OW12567   2.395   3.617   1.767  0.2284  0.0234 -0.0261
  903SOL    HW112568   2.364   3.702   1.724 -1.7572 -0.2002  0.9422
  903SOL    HW212569   2.394   3.543   1.700 -0.2777  0.2566 -0.2736
  904SOL     OW12570   4.228  10.085   1.931 -0.2403 -0.2171  0.2609
  904SOL    HW112571   4.268  10.142   1.859  1.2991 -0.2337  1.0936
  904SOL    HW212572   4.230   9.990   1.902 -0.8459 -0.0898 -0.2240
  905SOL     OW12573   2.589   1.091   1.906 -0.3130  0.2090  0.0114
  905SOL    HW112574   2.676   1.105   1.954 -0.5458  1.0100  0.2029
  905SOL    HW212575   2.585   1.151   1.826 -1.6050  1.7464  1.2114
  906SOL     OW12576   4.945   4.973   0.864 -0.2621  0.3927 -0.3906
  906SOL    HW112577   5.032   5.009   0.832  0.3259 -0.4566  0.2199
  906SOL    HW212578   4.913   4.901   0.802 -0.0187 -0.0016 -0.0630
  907SOL     OW12579   3.537   5.393   2.380  0.3710 -0.2790 -0.3170
  907SOL    HW112580   3.447   5.359   2.354  0.0964  1.0781 -1.2614
  907SOL    HW212581   3.594   5.318   2.412 -0.5749 -1.4051 -1.2413
  908SOL     OW12582   4.355   3.710   2.507 -0.5186  0.0807 -0.0192
  908SOL    HW112583   4.386   3.769   2.582  0.2635 -1.3462  0.8025
  908SOL    HW212584   4.347   3.765   2.423 -1.6524  1.7463  1.1384
  909SOL     OW12585   4.765   2.398   0.312  0.6523  0.6926 -0.8800
  909SOL    HW112586   4.758   2.483   0.365 -1.2934  0.3895 -0.6257
  909SOL    HW212587   4.675   2.357   0.304  1.3080 -0.4295 -2.5578
  910SOL     OW12588   2.696   4.277   0.083 -0.6463 -0.6223 -0.5751
  910SOL    HW112589   2.626   4.348   0.076  0.9111  0.8577 -1.4598
  910SOL    HW212590   2.738   4.262  -0.006  2.1105  0.5380  0.4704
  911SOL     OW12591   3.413   2.817   2.219  0.6713 -0.1011 -0.4053
  911SOL    HW112592   3.385   2.796   2.313  2.6625  0.1095  0.2532
  911SOL    HW212593   3.471   2.898   2.218  2.5760 -1.4272 -1.5136
  912SOL     OW12594   3.987   4.392   0.735  0.4008 -0.0484 -0.6306
  912SOL    HW112595   3.942   4.402   0.646 -0.3244 -1.2240 -0.4036
  912SOL    HW212596   4.083   4.369   0.722 -0.0552 -1.6961 -1.1138
  913SOL     OW12597   4.712   4.577   0.808  0.2440  0.2548  0.6903
  913SOL    HW112598   4.645   4.513   0.771 -1.9270  2.2258  1.0905
  913SOL    HW212599   4.678   4.615   0.894  2.1139  0.9248  1.1550
  914SOL     OW12600   2.163   4.096   1.124 -0.2919 -0.2936 -0.0207
  914SOL    HW112601   2.164   4.129   1.219  0.2905 -0.8883  0.1835
  914SOL    HW212602   2.254   4.065   1.099 -0.6695 -1.0742 -0.4434
  915SOL     OW12603   2.333   1.853   1.962  0.6922 -0.0143  0.4775
  915SOL    HW112604   2.330   1.953   1.965 -2.7457  0.0192 -1.1315
  915SOL    HW212605   2.374   1.824   1.876 -0.7909  0.0780 -0.2816
  916SOL     OW12606   2.228   7.257   1.511  0.1130 -0.4695 -1.0867
  916SOL    HW112607   2.317   7.297   1.530  0.7182 -0.8837 -2.9563
  916SOL    HW212608   2.214   7.177   1.570  0.1557  0.6919  0.5341
  917SOL     OW12609   2.432   8.163   0.906 -0.0645  0.4541 -0.1483
  917SOL    HW112610   2.523   8.124   0.905 -0.5685 -0.7658 -1.5377
  917SOL    HW212611   2.434   8.253   0.950  2.0239  0.9746 -1.2166
  918SOL     OW12612   3.041   7.683  -0.034 -1.1636 -0.0154 -0.0515
  918SOL    HW112613   2.998   7.756   0.020  1.4299  1.6301 -0.1478
  918SOL    HW212614   3.129   7.658   0.007  1.4460  2.1051 -4.0443
  919SOL     OW12615   3.212   3.424   0.951  0.1285  0.0659  0.4952
  919SOL    HW112616   3.216   3.521   0.925 -0.5673  0.0681  0.3920
  919SOL    HW212617   3.123   3.404   0.992  0.8390 -0.1801  1.9487
  920SOL     OW12618   3.023   8.185   1.284 -0.6745 -0.6217  0.3580
  920SOL    HW112619   3.076   8.267   1.261  0.4621 -0.7264  2.4497
  920SOL    HW212620   2.997   8.137   1.201  0.2483  0.8690 -0.8065
  921SOL     OW12621   3.503   9.593   1.979  0.0684  0.2076 -0.2573
  921SOL    HW112622   3.465   9.510   2.020  0.8512 -0.3382 -0.6176
  921SOL    HW212623   3.600   9.579   1.961 -0.1095  0.6979 -1.6368
  922SOL     OW12624   4.192   4.514   2.501  0.1299  0.7404  0.0293
  922SOL    HW112625   4.291   4.502   2.487 -0.1114 -0.1527 -0.9347
  922SOL    HW212626   4.150   4.426   2.522 -0.1129  1.4664  2.8626
  923SOL     OW12627   2.095   4.907   1.404  0.2124 -0.2794 -0.7181
  923SOL    HW112628   2.054   4.997   1.415  0.9742 -0.0551  0.3984
  923SOL    HW212629   2.096   4.882   1.307 -1.4707  0.2025 -0.8696
  924SOL     OW12630   3.320   6.452   0.751 -0.1933 -0.8638  0.8874
  924SOL    HW112631   3.386   6.479   0.822  1.1853 -1.0133 -0.3068
  924SOL    HW212632   3.349   6.366   0.710 -0.4476 -0.3050 -0.5042
  925SOL     OW12633   4.752   1.624   0.432  0.5344  0.3563  0.0861
  925SOL    HW112634   4.710   1.589   0.348  1.3524 -0.9032  0.1890
  925SOL    HW212635   4.780   1.719   0.418  3.5080 -0.7709 -2.1495
  926SOL     OW12636   2.419   6.573   0.972  0.2506  0.4760  0.1056
  926SOL    HW112637   2.474   6.531   1.044  1.6273  2.1187  0.0360
  926SOL    HW212638   2.437   6.671   0.968 -3.2391  1.2254  0.5499
  927SOL     OW12639   3.464   4.775   1.877  0.2385 -0.7030  0.2622
  927SOL    HW112640   3.372   4.767   1.917  0.8487  1.0126  2.1198
  927SOL    HW212641   3.481   4.871   1.853  2.1805 -0.6969  1.5567
  928SOL     OW12642   4.017   1.308   2.080  0.2734  0.5590 -0.5887
  928SOL    HW112643   3.980   1.241   2.144 -3.3296  1.3991 -1.6698
  928SOL    HW212644   4.093   1.267   2.030  0.0155 -1.7221  0.8233
  929SOL     OW12645   5.027   3.982   1.241 -0.0761  0.0017 -0.0991
  929SOL    HW112646   5.056   4.021   1.329 -0.1791  1.4800 -0.7063
  929SOL    HW212647   5.035   3.882   1.245  1.6605  0.1636  0.9594
  930SOL     OW12648   2.386   2.824   2.159  0.4475 -0.3612  0.7848
  930SOL    HW112649   2.413   2.908   2.206 -0.1139 -0.2753  0.9528
  930SOL    HW212650   2.468   2.780   2.122  0.6126  0.9916 -0.5384
  931SOL     OW12651   3.527   9.144   1.571 -0.0026  0.2631 -0.0931
  931SOL    HW112652   3.539   9.170   1.667 -0.6225  0.4516 -0.0669
  931SOL    HW212653   3.617   9.135   1.528  0.2497  2.6900 -0.1515
  932SOL     OW12654   3.506   0.593   0.706 -0.2738 -0.1456  0.3311
  932SOL    HW112655   3.508   0.569   0.803 -1.7838 -0.8019  0.2192
  932SOL    HW212656   3.445   0.530   0.658  0.6043  0.0520 -1.0884
  933SOL     OW12657   2.478   6.620   2.555 -0.2185 -0.4618 -0.0196
  933SOL    HW112658   2.436   6.700   2.597 -0.5897 -0.2326 -0.8185
  933SOL    HW212659   2.552   6.648   2.494 -0.2525 -0.7305 -0.1889
  934SOL     OW12660   5.134   2.441   0.616 -0.2141  0.8925 -0.1427
  934SOL    HW112661   5.189   2.510   0.568  2.7246 -0.4702  1.1796
  934SOL    HW212662   5.114   2.366   0.554  0.1676  0.9760 -0.3661
  935SOL     OW12663   4.866   4.178   0.863  0.0030  0.5023  0.2127
  935SOL    HW112664   4.869   4.274   0.891 -0.2994 -0.3574  3.4013
  935SOL    HW212665   4.953   4.134   0.885 -0.7324 -0.5360  1.0959
  936SOL     OW12666   3.504   2.247   2.245  0.5054 -0.1139  0.3896
  936SOL    HW112667   3.548   2.158   2.250  1.0336  0.2038  1.5236
  936SOL    HW212668   3.515   2.295   2.332  0.8966  1.3644 -0.4516
  937SOL     OW12669   2.321  10.049   2.256  0.5215 -0.4269 -0.0656
  937SOL    HW112670   2.402  10.062   2.313  0.9802  0.7661 -0.9615
  937SOL    HW212671   2.307  10.130   2.199 -1.4759 -0.4865  0.2820
  938SOL     OW12672   2.873   7.606   1.447 -0.1218 -0.5990 -0.0966
  938SOL    HW112673   2.803   7.613   1.376  0.7214  1.7670 -0.7186
  938SOL    HW212674   2.963   7.624   1.408  0.6046 -1.3145  1.1758
  939SOL     OW12675   2.209   1.201   2.553  0.5101 -0.3615 -0.0054
  939SOL    HW112676   2.276   1.198   2.627  2.2761  3.2661 -1.3533
  939SOL    HW212677   2.222   1.121   2.493  2.9340 -0.2928  0.3780
  940SOL     OW12678   3.771   8.912   1.826 -0.3749 -0.7247  0.2583
  940SOL    HW112679   3.717   8.839   1.785 -0.2986 -0.5839 -0.0908
  940SOL    HW212680   3.858   8.921   1.778 -0.4216 -0.3435  0.2438
  941SOL     OW12681   3.805   5.103   0.115  0.1166 -0.0005 -0.5883
  941SOL    HW112682   3.742   5.035   0.077 -1.0009  0.6110  0.1449
  941SOL    HW212683   3.779   5.124   0.209 -0.2791  2.3128 -1.1740
  942SOL     OW12684   3.143   6.242   2.246 -0.9752  0.0034  0.2604
  942SOL    HW112685   3.055   6.248   2.199  0.2203  1.9984 -1.8156
  942SOL    HW212686   3.217   6.248   2.179  0.7617  0.0851  2.1384
  943SOL     OW12687   2.620   9.303  -0.076 -0.0036 -0.4360 -0.2443
  943SOL    HW112688   2.575   9.352  -0.002  0.0578  0.1383 -0.5770
  943SOL    HW212689   2.629   9.207  -0.053  1.0865 -0.0556  1.0083
  944SOL     OW12690   1.777   8.110   1.663 -0.7900 -0.7704  0.4876
  944SOL    HW112691   1.721   8.168   1.722  0.7294  0.6409  0.5557
  944SOL    HW212692   1.826   8.043   1.720  0.1945  0.1867  0.7806
  945SOL     OW12693   3.707   3.632   1.984  0.1925  0.0180  1.0655
  945SOL    HW112694   3.676   3.726   1.973  3.9565  1.0797 -1.1023
  945SOL    HW212695   3.755   3.623   2.072 -0.2670  0.0757  1.3251
  946SOL     OW12696   1.957   3.834   2.261 -0.4493 -0.4697  0.2922
  946SOL    HW112697   1.870   3.809   2.305  0.9214 -0.4052  3.1428
  946SOL    HW212698   2.032   3.788   2.307  1.0314 -0.8830 -2.4539
  947SOL     OW12699   4.145   3.430   2.268 -0.0350 -0.2878 -0.2091
  947SOL    HW112700   4.096   3.430   2.181 -0.1803 -0.1100 -0.1273
  947SOL    HW212701   4.108   3.501   2.328 -1.9253 -2.3074  1.1001
  948SOL     OW12702   2.475   8.200   2.104 -0.1878  0.0821  0.3886
  948SOL    HW112703   2.491   8.139   2.182  0.0801  0.4312  0.6090
  948SOL    HW212704   2.476   8.295   2.135  1.2200  0.2852 -0.2581
  949SOL     OW12705   3.573   2.314   1.293  0.2702 -0.3886  0.1841
  949SOL    HW112706   3.497   2.289   1.234  0.1410 -1.8930  0.9722
  949SOL    HW212707   3.637   2.372   1.243 -0.5799 -0.4376 -0.9678
  950SOL     OW12708   2.370   5.714   0.706 -0.2685  0.3543  0.0267
  950SOL    HW112709   2.395   5.782   0.637  0.1240 -0.7642 -0.9538
  950SOL    HW212710   2.361   5.758   0.795  0.5385  1.5857 -0.4923
  951SOL     OW12711   2.762   4.110   0.540  0.8146  1.0159  0.1524
  951SOL    HW112712   2.848   4.063   0.558  0.8701  1.5009  1.1762
  951SOL    HW212713   2.741   4.172   0.615 -0.7042  0.5023  0.1694
  952SOL     OW12714   3.252   9.870   0.308 -0.3532 -0.1716  0.4886
  952SOL    HW112715   3.293   9.919   0.232 -0.2409  0.4900  0.9661
  952SOL    HW212716   3.293   9.779   0.316 -0.8300 -0.4891 -0.6347
  953SOL     OW12717   3.615   2.247   1.552 -0.1031 -0.3151 -0.1201
  953SOL    HW112718   3.544   2.177   1.540 -1.0993  0.8485 -1.2447
  953SOL    HW212719   3.637   2.288   1.463  0.7164  0.5511  0.4659
  954SOL     OW12720   2.856   4.957   1.070  0.1354  0.1461  0.2301
  954SOL    HW112721   2.860   4.888   1.142 -0.5218 -1.1442 -0.9324
  954SOL    HW212722   2.814   4.917   0.988  0.1817  1.7957 -0.6218
  955SOL     OW12723   3.223   6.845   1.522  0.4066  0.0082 -0.1245
  955SOL    HW112724   3.219   6.764   1.464 -1.0847  1.0793 -1.5486
  955SOL    HW212725   3.264   6.920   1.472 -0.3934  0.7875  0.3727
  956SOL     OW12726   2.663   2.049  -0.083  0.1238  0.2307  0.1055
  956SOL    HW112727   2.610   2.103  -0.148  0.0673  0.2571  0.1737
  956SOL    HW212728   2.664   1.954  -0.113  0.6762  0.3660 -0.3023
  957SOL     OW12729   3.468   9.822   0.742  0.0243  0.4238  0.1638
  957SOL    HW112730   3.387   9.849   0.690 -0.4906 -0.0326  0.7261
  957SOL    HW212731   3.470   9.723   0.751  1.1186  0.3627 -0.6054
  958SOL     OW12732   3.013   4.606  -0.047  0.1565 -0.5501  0.0668
  958SOL    HW112733   3.086   4.674  -0.040  0.7153 -1.2721  1.4117
  958SOL    HW212734   3.015   4.547   0.033 -1.5575 -0.9417 -0.1744
  959SOL     OW12735   2.335   4.491   0.927  0.1204 -0.1589  0.5237
  959SOL    HW112736   2.245   4.473   0.968  0.3472  0.9837  1.5550
  959SOL    HW212737   2.344   4.438   0.842 -2.1450  0.9206 -0.4400
  960SOL     OW12738   2.187   7.276   0.782 -0.4489  0.3540 -0.0669
  960SOL    HW112739   2.185   7.344   0.708 -0.9404 -0.5826 -0.9221
  960SOL    HW212740   2.140   7.313   0.862 -2.2339  0.3872 -1.0895
  961SOL     OW12741   2.656   0.594   0.999 -0.7714  0.3353  0.0713
  961SOL    HW112742   2.569   0.616   1.043 -0.8494 -0.0994  0.1355
  961SOL    HW212743   2.683   0.501   1.023  0.2985  0.8743  1.0041
  962SOL     OW12744   2.143   5.446   1.483 -0.1444  0.0473 -0.1063
  962SOL    HW112745   2.174   5.538   1.459  0.4149  0.3093  1.5967
  962SOL    HW212746   2.143   5.389   1.401 -0.9358  1.6799 -1.2816
  963SOL     OW12747   2.556   6.432   2.066 -0.4957 -0.3224 -0.7877
  963SOL    HW112748   2.519   6.389   2.149 -0.1205 -1.1750 -1.0593
  963SOL    HW212749   2.639   6.482   2.089 -0.3792 -0.5747 -0.6512
  964SOL     OW12750   3.399   4.402   2.589  0.1037  0.2004  0.0710
  964SOL    HW112751   3.338   4.460   2.643  0.0557  0.1923  0.0255
  964SOL    HW212752   3.349   4.322   2.556 -0.4473  1.2617 -1.7482
  965SOL     OW12753   3.679   3.586   0.151 -0.1354 -0.2955 -0.2637
  965SOL    HW112754   3.778   3.575   0.152 -0.1569 -0.4937  2.5986
  965SOL    HW212755   3.638   3.519   0.089  1.4487 -0.6972 -0.8866
  966SOL     OW12756   2.923   8.095   1.046  0.4250  0.3325 -0.0587
  966SOL    HW112757   2.966   8.177   1.008  2.2029 -0.0951  0.9555
  966SOL    HW212758   2.967   8.014   1.006 -0.9492 -0.1358 -0.6411
  967SOL     OW12759   2.968   0.750   1.121 -0.0550  0.3706 -0.7425
  967SOL    HW112760   2.922   0.743   1.033  0.1698  0.6891 -0.8879
  967SOL    HW212761   3.022   0.834   1.123  0.6545 -0.0772 -0.6451
  968SOL     OW12762   2.148   3.137   1.812  0.2873  0.0252 -0.0959
  968SOL    HW112763   2.161   3.073   1.887  0.3955  1.3029  1.0063
  968SOL    HW212764   2.052   3.134   1.782 -0.1601  0.6428  1.1893
  969SOL     OW12765   3.924   5.077   1.523 -0.0764  0.0729 -0.1220
  969SOL    HW112766   3.890   5.048   1.433  0.1970 -0.3173 -0.1015
  969SOL    HW212767   3.978   5.160   1.512  0.3894 -0.2639 -0.3955
  970SOL     OW12768   2.639   1.233   0.382  0.2185 -0.2886 -0.0266
  970SOL    HW112769   2.734   1.256   0.406  0.0189  1.1819 -0.5602
  970SOL    HW212770   2.621   1.138   0.405  1.1967 -0.0128  2.0649
  971SOL     OW12771   2.275   0.770   1.506  0.1359  0.3435  0.1249
  971SOL    HW112772   2.228   0.845   1.553  1.3576  0.1952  1.6133
  971SOL    HW212773   2.373   0.791   1.499  0.2628 -0.4784 -0.7246
  972SOL     OW12774   3.298   2.651   0.198 -0.0544  0.2065  0.5066
  972SOL    HW112775   3.354   2.733   0.192  0.9470 -0.4547  0.6176
  972SOL    HW212776   3.202   2.676   0.213  0.0108  1.3887 -0.9085
  973SOL     OW12777   2.582   7.674   0.930 -0.3040  0.6108 -0.1405
  973SOL    HW112778   2.517   7.748   0.945 -1.0735 -0.2501  0.8189
  973SOL    HW212779   2.668   7.695   0.977  0.0333  1.6086 -1.1696
  974SOL     OW12780   3.459  10.044   1.670 -0.3954  0.4693 -0.0595
  974SOL    HW112781   3.526  10.117   1.684 -1.0800  1.0799  0.0349
  974SOL    HW212782   3.506   9.956   1.666  0.5065  0.9784 -0.8671
  975SOL     OW12783   3.524   9.697   0.342  0.0124  0.0695 -0.3010
  975SOL    HW112784   3.474   9.634   0.283  0.8813  0.4840 -1.4929
  975SOL    HW212785   3.506   9.674   0.438 -0.0811 -1.6681 -0.7161
  976SOL     OW12786   3.008   7.215   0.611 -0.4225 -0.0050  0.4054
  976SOL    HW112787   3.012   7.131   0.665 -0.3314  0.0734  0.5191
  976SOL    HW212788   2.951   7.282   0.658  1.3295  0.7974  1.3967
  977SOL     OW12789   5.385   4.043   1.631 -0.2791 -0.2708 -0.1437
  977SOL    HW112790   5.304   4.096   1.604 -1.7358 -2.0138  0.6869
  977SOL    HW212791   5.366   3.995   1.717  1.1759 -1.7945 -0.6542
  978SOL     OW12792   5.282   4.423   0.034 -0.8321  0.2950  0.2531
  978SOL    HW112793   5.322   4.396   0.121 -0.2730 -2.6653 -0.8564
  978SOL    HW212794   5.316   4.513   0.007  1.3461 -0.0891  1.6448
  979SOL     OW12795   2.471   1.786   1.740 -0.2470  0.3867  0.3649
  979SOL    HW112796   2.449   1.853   1.669  1.2297  0.9729  0.4352
  979SOL    HW212797   2.457   1.694   1.704  1.0134  0.6668 -0.9047
  980SOL     OW12798   3.176   1.589   0.873 -0.1197 -0.2861  0.0639
  980SOL    HW112799   3.164   1.688   0.880 -2.0032 -0.5890  1.2982
  980SOL    HW212800   3.261   1.563   0.920 -0.1429  0.6119  0.6147
  981SOL     OW12801   3.906   1.421   1.742  0.7748  0.6044  0.4242
  981SOL    HW112802   4.000   1.409   1.711  0.5379 -0.2548  0.0226
  981SOL    HW212803   3.870   1.334   1.774 -0.9276  0.2211 -2.3614
  982SOL     OW12804   2.888   1.953   1.201  0.3466  0.2812  0.2149
  982SOL    HW112805   2.984   1.976   1.185 -0.0719  1.4376 -0.7060
  982SOL    HW212806   2.830   2.028   1.170 -0.9683 -1.2187 -1.0523
  983SOL     OW12807   3.724   1.922   2.437  0.3924 -0.4808 -0.3642
  983SOL    HW112808   3.678   1.840   2.471 -2.0240  0.4055 -1.4081
  983SOL    HW212809   3.735   1.987   2.513  1.3202 -1.3173  0.2240
  984SOL     OW12810   3.612   7.859   0.804 -0.1111  0.0443 -0.2070
  984SOL    HW112811   3.659   7.914   0.873  0.3615  0.1579 -0.6141
  984SOL    HW212812   3.559   7.919   0.744 -0.4666 -0.0470  0.0199
  985SOL     OW12813   4.845   3.237   2.583  0.2420 -0.2476 -0.5312
  985SOL    HW112814   4.826   3.157   2.526 -0.3906 -2.8895  3.2047
  985SOL    HW212815   4.764   3.260   2.637  2.1703 -0.7725  2.7386
  986SOL     OW12816   4.477   1.701   1.959 -0.1758 -0.1359 -0.2094
  986SOL    HW112817   4.397   1.663   2.005 -0.4094  0.7408  0.1105
  986SOL    HW212818   4.462   1.699   1.860 -0.5956  0.0267 -0.1508
  987SOL     OW12819   4.301   0.713   0.117 -0.5522 -0.3367  0.5046
  987SOL    HW112820   4.340   0.680   0.203 -0.0235 -0.9138  0.0578
  987SOL    HW212821   4.298   0.812   0.117  0.1824 -0.3091  0.8803
  988SOL     OW12822   2.106   1.096   0.532  0.1550  0.8785  0.5267
  988SOL    HW112823   2.073   1.189   0.545  3.8143  2.2765  0.2766
  988SOL    HW212824   2.197   1.098   0.491  0.0718 -2.8423 -0.0050
  989SOL     OW12825   2.302   7.900   1.373  0.1495 -0.0109  0.2445
  989SOL    HW112826   2.333   7.901   1.468 -0.2170 -0.1943  0.3679
  989SOL    HW212827   2.376   7.867   1.314  0.6082  0.7651  0.3817
  990SOL     OW12828   2.068  10.097   2.072 -0.0122  0.0077  0.6408
  990SOL    HW112829   2.081  10.033   2.147  1.9941 -0.6549 -0.2534
  990SOL    HW212830   2.105  10.186   2.097  3.0143 -0.8781 -0.4660
  991SOL     OW12831   4.366   4.867   1.915 -0.0337  0.2370  0.6058
  991SOL    HW112832   4.406   4.958   1.927 -2.7055  1.3786  1.0980
  991SOL    HW212833   4.293   4.871   1.847 -0.5594 -1.4382  1.0448
  992SOL     OW12834   3.335   2.772   1.560 -0.3801 -0.1353 -0.2798
  992SOL    HW112835   3.297   2.864   1.556 -1.0861 -0.4400 -0.5714
  992SOL    HW212836   3.348   2.745   1.656 -1.3200 -0.2107 -0.1756
  993SOL     OW12837   2.048   8.312   1.185  0.6719 -0.1150 -0.1664
  993SOL    HW112838   2.023   8.388   1.245  1.8268 -0.4777  0.7951
  993SOL    HW212839   2.070   8.232   1.240 -0.8340 -1.2507 -1.1900
  994SOL     OW12840   4.755   0.930   0.777  0.1341  0.6455 -0.1554
  994SOL    HW112841   4.656   0.943   0.781 -0.0008 -0.2502 -0.3893
  994SOL    HW212842   4.791   0.921   0.870  0.1094  1.7434 -0.0353
  995SOL     OW12843   2.178   2.338   2.014 -0.6124 -0.3662  0.2268
  995SOL    HW112844   2.128   2.321   2.100 -1.7367 -0.3237 -0.4018
  995SOL    HW212845   2.152   2.428   1.979  0.2546 -0.1573  0.1075
  996SOL     OW12846   3.168   5.458   1.712  0.2640 -0.1003 -0.3082
  996SOL    HW112847   3.076   5.468   1.674  0.7092 -1.6964 -1.8852
  996SOL    HW212848   3.162   5.427   1.807 -0.8352 -1.3308 -0.7658
  997SOL     OW12849   2.554   0.839   1.492  0.2709  0.4394  0.0495
  997SOL    HW112850   2.640   0.807   1.453 -0.0527 -0.6600  0.2276
  997SOL    HW212851   2.540   0.935   1.469  0.3976 -0.0078 -1.9707
  998SOL     OW12852   3.560   9.920   2.021 -0.1002  0.2019  0.2168
  998SOL    HW112853   3.627   9.985   2.055 -1.1984  1.1763  0.5317
  998SOL    HW212854   3.471   9.964   2.012 -0.8506 -1.2280  0.3608
  999SOL     OW12855   2.322   5.790   1.640 -0.0563 -0.0123 -0.1864
  999SOL    HW112856   2.421   5.790   1.631  0.1826  0.8102  2.0981
  999SOL    HW212857   2.291   5.699   1.668  0.1025 -0.1246 -0.3751
 1000SOL     OW12858   2.066   4.032   0.579  0.2691 -0.1520 -0.0071
 1000SOL    HW112859   2.028   3.989   0.498  0.1721  0.0956 -0.0910
 1000SOL    HW212860   2.091   3.961   0.646 -2.3635 -0.2165  0.9514
 1001SOL     OW12861   5.028   3.011   1.568 -0.3614 -0.0979 -0.5352
 1001SOL    HW112862   4.989   2.945   1.632  1.4984 -0.2631  0.4393
 1001SOL    HW212863   5.127   3.004   1.568 -0.0960  2.9352 -0.1735
 1002SOL     OW12864   2.616   6.417  -0.010  0.2634  0.0510 -0.1983
 1002SOL    HW112865   2.650   6.365  -0.088 -0.1636  0.2344 -0.5110
 1002SOL    HW212866   2.559   6.492  -0.043  0.0415  0.0992  0.2916
 1003SOL     OW12867   2.946   6.533   2.572 -0.3664  0.4338 -0.0510
 1003SOL    HW112868   2.896   6.601   2.519  0.6413  1.5949  0.4605
 1003SOL    HW212869   2.939   6.555   2.670  0.7226  0.3354  0.0569
 1004SOL     OW12870   2.414   9.364   2.373 -0.2213  0.0012 -0.1719
 1004SOL    HW112871   2.488   9.355   2.439  0.6793 -0.2595 -1.2114
 1004SOL    HW212872   2.439   9.319   2.287 -1.2808  0.5367 -0.7790
 1005SOL     OW12873   3.610   4.896   2.221  0.0356 -0.3227 -0.5128
 1005SOL    HW112874   3.658   4.983   2.228 -2.0664  0.8760 -0.3501
 1005SOL    HW212875   3.642   4.846   2.141  0.3709  1.1871 -1.3385
 1006SOL     OW12876   4.032   8.472   0.392 -0.6817 -0.3827 -0.0906
 1006SOL    HW112877   4.076   8.512   0.473  2.1448 -2.7561 -0.3655
 1006SOL    HW212878   4.085   8.496   0.311 -1.1003 -1.4954 -0.7032
 1007SOL     OW12879   4.085   2.627   0.024 -0.2704 -0.0681 -0.7498
 1007SOL    HW112880   4.045   2.640   0.115 -0.5579 -0.7012 -0.7826
 1007SOL    HW212881   4.019   2.654  -0.046 -0.1571  0.1398 -0.7765
 1008SOL     OW12882   2.730   0.713   2.053 -0.4868  0.7630  0.4864
 1008SOL    HW112883   2.654   0.687   2.113 -0.1434 -0.8994  0.2325
 1008SOL    HW212884   2.701   0.703   1.958  0.0238  0.1748  0.3904
 1009SOL     OW12885   2.866   3.286   2.595  0.4593 -0.3615  0.2585
 1009SOL    HW112886   2.908   3.375   2.616  0.2427  0.0215 -0.8629
 1009SOL    HW212887   2.860   3.276   2.496 -2.5884 -0.1698  0.3795
 1010SOL     OW12888   3.536   7.835   1.890 -0.8458 -0.0341 -0.0882
 1010SOL    HW112889   3.437   7.837   1.897 -0.9456 -1.5774 -0.8263
 1010SOL    HW212890   3.564   7.856   1.797 -0.4958  0.1866  0.0667
 1011SOL     OW12891   2.363   7.545   1.748  0.2180  0.3872  0.0451
 1011SOL    HW112892   2.414   7.631   1.740 -0.3775  0.7558  0.2171
 1011SOL    HW212893   2.406   7.476   1.691  0.9304  0.6932  0.2076
 1012SOL     OW12894   4.150   2.454   0.436 -0.1025 -0.3111  0.4897
 1012SOL    HW112895   4.061   2.430   0.476  0.5988 -1.9742  1.0781
 1012SOL    HW212896   4.175   2.385   0.368  0.5211  0.4202 -0.0266
 1013SOL     OW12897   3.687   5.386   1.126  0.6400  0.2611  0.7878
 1013SOL    HW112898   3.669   5.483   1.137  1.8344  0.4085  1.4121
 1013SOL    HW212899   3.733   5.370   1.039 -1.4431 -0.0026 -0.3140
 1014SOL     OW12900   3.294   9.834   2.203 -0.3194  0.1114 -0.1530
 1014SOL    HW112901   3.214   9.792   2.161 -0.3730 -2.0059  1.9259
 1014SOL    HW212902   3.377   9.800   2.157 -0.4756 -0.4156 -0.0519
 1015SOL     OW12903   4.883   3.972   2.471 -0.2069 -0.4137  0.1429
 1015SOL    HW112904   4.934   3.949   2.389 -0.0509  1.6501 -0.3740
 1015SOL    HW212905   4.823   3.896   2.496 -0.6806 -0.8578 -2.2167
 1016SOL     OW12906   2.825   8.338   1.997 -0.7808 -0.3385 -0.1041
 1016SOL    HW112907   2.730   8.322   1.970 -1.6399  2.1839  1.2288
 1016SOL    HW212908   2.881   8.349   1.915 -2.0322  0.2355 -0.9006
 1017SOL     OW12909   3.157   3.628   0.434  0.5394 -0.5250  0.4840
 1017SOL    HW112910   3.157   3.691   0.512 -0.7494 -0.4163  0.4186
 1017SOL    HW212911   3.216   3.665   0.361  0.9640 -0.1333  1.0232
 1018SOL     OW12912   2.901   4.430   1.909  0.2628 -0.4613 -0.3954
 1018SOL    HW112913   2.832   4.488   1.953 -0.3045  1.1033 -3.2440
 1018SOL    HW212914   2.986   4.436   1.961 -0.5510  0.8183  0.8604
 1019SOL     OW12915   4.202   1.287  -0.039  0.4777  0.1425  0.1217
 1019SOL    HW112916   4.130   1.296  -0.107 -0.8412  1.4188  1.6306
 1019SOL    HW212917   4.281   1.341  -0.067 -0.4474  1.4968  0.0872
 1020SOL     OW12918   4.253   9.357   0.028 -0.2514  0.5225  0.4664
 1020SOL    HW112919   4.172   9.327  -0.022  0.6587  0.1273 -0.7839
 1020SOL    HW212920   4.336   9.325  -0.019  0.6260  0.4812  2.0056
 1021SOL     OW12921   2.582   5.859   2.090  0.1224 -0.1576  0.0088
 1021SOL    HW112922   2.628   5.775   2.118 -2.4468 -1.1979  1.2531
 1021SOL    HW212923   2.577   5.863   1.990  1.4677 -0.7792 -0.1003
 1022SOL     OW12924   3.558   4.538   2.420 -0.8808  0.4044 -0.0617
 1022SOL    HW112925   3.623   4.593   2.473  2.0176 -1.6984 -1.2910
 1022SOL    HW212926   3.493   4.494   2.482  1.4965 -0.7912  1.6551
 1023SOL     OW12927   4.497   4.225   0.612  0.0550 -0.1348 -0.4415
 1023SOL    HW112928   4.523   4.228   0.709  1.3967  2.2027 -0.8424
 1023SOL    HW212929   4.513   4.314   0.570 -0.6842 -1.0707 -2.8011
 1024SOL     OW12930   5.731   3.828   0.675 -0.3725 -0.2488 -0.0027
 1024SOL    HW112931   5.728   3.843   0.576 -1.5120  0.1015  0.0713
 1024SOL    HW212932   5.643   3.856   0.715 -0.3256 -1.4467  0.9527
 1025SOL     OW12933   3.022   8.781  -0.047 -0.5958 -0.2883 -0.1999
 1025SOL    HW112934   2.975   8.721   0.017 -0.1259 -0.2711  0.1650
 1025SOL    HW212935   3.108   8.739  -0.076  0.3477  0.7432  1.0361
 1026SOL     OW12936   4.639   2.529   0.061 -0.2507 -0.3967 -0.0479
 1026SOL    HW112937   4.601   2.436   0.055 -0.5444 -0.2850  0.0987
 1026SOL    HW212938   4.713   2.530   0.128  2.0146 -1.3035 -2.4526
 1027SOL     OW12939   2.669   1.969   1.921  0.0214 -0.3762 -0.1774
 1027SOL    HW112940   2.702   2.046   1.867  0.9137 -1.9227 -1.8931
 1027SOL    HW212941   2.584   1.934   1.881  0.6922 -1.5345 -0.6118
 1028SOL     OW12942   2.771   3.095   2.152 -0.0974 -0.0869 -0.0283
 1028SOL    HW112943   2.755   3.031   2.077 -0.7018 -2.3002  1.9002
 1028SOL    HW212944   2.832   3.052   2.220  0.1131  1.6883  0.9452
 1029SOL     OW12945   2.978   8.547   1.173  0.3492  0.6029  0.0507
 1029SOL    HW112946   3.071   8.556   1.137 -0.1999  0.6886 -1.3746
 1029SOL    HW212947   2.932   8.636   1.170 -0.0638  0.3905 -0.0187
 1030SOL     OW12948   4.281   2.032   2.132  0.7769 -0.7641 -0.0515
 1030SOL    HW112949   4.345   2.109   2.122  1.3398 -1.1319  0.6271
 1030SOL    HW212950   4.333   1.946   2.135  0.2793 -1.0371  0.8456
 1031SOL     OW12951   2.893   3.290   1.981  0.0454  0.8759 -0.0346
 1031SOL    HW112952   2.864   3.228   2.054  1.1997 -0.3358 -0.5876
 1031SOL    HW212953   2.821   3.357   1.964 -0.1096  1.3824  2.4350
 1032SOL     OW12954   5.051   4.046  -0.010  0.2333  0.0144 -0.0862
 1032SOL    HW112955   5.145   4.076  -0.031  0.8223 -1.7966 -0.0902
 1032SOL    HW212956   5.006   4.019  -0.095  0.5409 -1.4332  0.1974
 1033SOL     OW12957   2.025   8.528   1.389 -0.2990  0.0368 -0.2260
 1033SOL    HW112958   2.060   8.575   1.470 -0.4259 -2.2278  1.1970
 1033SOL    HW212959   1.941   8.572   1.359 -0.6799  0.4517  1.3703
 1034SOL     OW12960   3.703   5.175   2.507  0.0609  0.3609  0.1143
 1034SOL    HW112961   3.785   5.218   2.544  0.9363  0.1828 -1.5531
 1034SOL    HW212962   3.729   5.091   2.459 -1.3030 -0.5753  0.9755
 1035SOL     OW12963   3.846   3.204   0.055  0.1224 -0.2619  0.0405
 1035SOL    HW112964   3.903   3.267   0.002  0.9467  0.1636  1.3747
 1035SOL    HW212965   3.858   3.224   0.153 -1.5648 -0.8325  0.3750
 1036SOL     OW12966   3.861   1.318   0.049  0.5261 -0.2161  0.0062
 1036SOL    HW112967   3.893   1.295  -0.043 -0.5042  0.9775 -0.6762
 1036SOL    HW212968   3.795   1.393   0.043 -1.1338 -1.4966  1.5057
 1037SOL     OW12969   3.589   3.035   2.212  0.1667 -0.0928  0.4612
 1037SOL    HW112970   3.531   3.096   2.158  0.6778  1.0244  1.1563
 1037SOL    HW212971   3.606   3.076   2.302 -1.4392 -2.3308  1.8371
 1038SOL     OW12972   2.913   0.307   0.060  0.1690  0.0947  0.1085
 1038SOL    HW112973   2.915   0.378  -0.011 -0.3545 -0.8841 -0.8901
 1038SOL    HW212974   2.971   0.231   0.032 -2.6247 -1.7575 -0.8224
 1039SOL     OW12975   2.131   4.856   0.284 -0.7780  0.7612  0.1704
 1039SOL    HW112976   2.155   4.816   0.196  0.9393 -0.2430  1.0601
 1039SOL    HW212977   2.033   4.845   0.301 -1.4682  2.5211 -2.3586
 1040SOL     OW12978   3.302   9.645   0.980  0.1675 -0.1801 -0.5240
 1040SOL    HW112979   3.349   9.726   1.014  1.1389 -0.4863 -1.1154
 1040SOL    HW212980   3.228   9.673   0.919 -1.1043  0.3377  1.2246
 1041SOL     OW12981   1.697   9.331   1.908  0.2470 -0.1409 -0.7686
 1041SOL    HW112982   1.769   9.333   1.838  2.7414 -0.3565  1.6952
 1041SOL    HW212983   1.671   9.236   1.926  0.7984 -0.2014 -0.2633
 1042SOL     OW12984   4.021   9.941   0.062  0.0385  0.4181 -0.4667
 1042SOL    HW112985   3.948   9.874   0.045 -1.2366  0.9011  2.8095
 1042SOL    HW212986   3.981  10.032   0.069  0.7139  0.4959  2.8809
 1043SOL     OW12987   4.685   1.281   1.673  0.4388 -0.4786  0.1140
 1043SOL    HW112988   4.750   1.347   1.711 -0.3831  0.7939 -0.6671
 1043SOL    HW212989   4.610   1.268   1.737 -0.7668  1.4015 -0.8632
 1044SOL     OW12990   4.164   1.419   1.643  0.6881 -0.3037  0.3444
 1044SOL    HW112991   4.130   1.351   1.578 -1.1548  0.5920  0.3090
 1044SOL    HW212992   4.241   1.468   1.604  0.5668 -0.8200 -0.5438
 1045SOL     OW12993   2.198   2.999   2.033  0.8196  0.4054  0.0997
 1045SOL    HW112994   2.235   3.077   2.084  0.5200  1.3245 -1.0742
 1045SOL    HW212995   2.252   2.918   2.054  2.2165  1.2878  0.0055
 1046SOL     OW12996   2.681   0.984   0.141  0.2421  0.0204  0.2448
 1046SOL    HW112997   2.714   0.944   0.056  0.5378 -0.2737  0.4982
 1046SOL    HW212998   2.757   0.997   0.204 -0.1104 -0.5701  0.7928
 1047SOL     OW12999   3.461   0.900   1.453  0.1073 -0.0149  0.6546
 1047SOL    HW113000   3.423   0.972   1.395  1.1868  0.4527  0.5058
 1047SOL    HW213001   3.540   0.936   1.503  0.5721 -1.0553  0.6848
 1048SOL     OW13002   2.477   1.249   1.035  0.2720 -0.1528  0.7156
 1048SOL    HW113003   2.398   1.191   1.019  0.3381 -0.1921  0.5317
 1048SOL    HW213004   2.534   1.252   0.953  0.5474 -0.2549  0.9020
 1049SOL     OW13005   3.548   3.154   1.561 -0.1949  0.3014 -0.1384
 1049SOL    HW113006   3.523   3.110   1.475  0.9686 -1.5659  0.4530
 1049SOL    HW213007   3.627   3.213   1.546  0.4426 -0.5667 -0.2134
 1050SOL     OW13008   4.493   2.821   0.601 -0.3896  0.1167  0.5593
 1050SOL    HW113009   4.429   2.750   0.572  0.1173  0.1928 -0.7914
 1050SOL    HW213010   4.492   2.828   0.701 -1.7708 -0.5336  0.6003
 1051SOL     OW13011   2.875   3.081   0.093  0.1679 -0.5764  0.0637
 1051SOL    HW113012   2.807   3.009   0.077 -0.1673 -0.3597  0.5000
 1051SOL    HW213013   2.869   3.148   0.019 -1.3462  0.3966  1.0220
 1052SOL     OW13014   1.859   9.991   1.926  0.0254  0.0953 -0.1913
 1052SOL    HW113015   1.931  10.022   1.988 -1.9421  3.9546  0.3495
 1052SOL    HW213016   1.791   9.940   1.977  0.3914 -0.1461  0.0593
 1053SOL     OW13017   4.029   9.494   2.597 -0.2509 -0.3805  0.2293
 1053SOL    HW113018   4.032   9.557   2.674 -0.3646 -1.0133  0.7612
 1053SOL    HW213019   3.996   9.541   2.516 -1.4308 -0.0407  0.9005
 1054SOL     OW13020   2.585   0.976   0.442  0.1649 -0.3068 -0.0388
 1054SOL    HW113021   2.572   0.907   0.372 -0.3802  0.3812 -0.6192
 1054SOL    HW213022   2.662   0.949   0.501  0.8782 -0.7011 -1.1248
 1055SOL     OW13023   2.165   3.163   0.317  0.0126  0.1570 -0.1815
 1055SOL    HW113024   2.258   3.181   0.349  0.4190 -0.6913 -0.8765
 1055SOL    HW213025   2.104   3.234   0.352  0.3492 -0.9434  2.8292
 1056SOL     OW13026   3.246   6.754   1.804  0.9456 -0.2912  0.1426
 1056SOL    HW113027   3.233   6.833   1.865 -0.8997 -1.4054  1.2237
 1056SOL    HW213028   3.260   6.787   1.711  2.4348  1.3902  0.9297
 1057SOL     OW13029   3.439   1.459   1.004 -0.2995  0.5043 -0.1292
 1057SOL    HW113030   3.352   1.414   1.024 -0.9049  1.4679 -0.5410
 1057SOL    HW213031   3.459   1.527   1.075  1.3550 -1.4104  1.3141
 1058SOL     OW13032   3.469   4.049   1.839 -0.0039  0.5996  0.3586
 1058SOL    HW113033   3.449   3.954   1.863 -0.5246  0.8615  0.9776
 1058SOL    HW213034   3.567   4.058   1.818  0.0939 -0.0254  0.5260
 1059SOL     OW13035   2.667   4.895   0.107 -0.3806  0.2872  0.1975
 1059SOL    HW113036   2.606   4.821   0.079 -0.5053  0.6893 -0.5942
 1059SOL    HW213037   2.614   4.979   0.120 -0.4192 -0.0391  2.2357
 1060SOL     OW13038   3.256   2.195   0.134  0.5289 -0.0337 -0.2474
 1060SOL    HW113039   3.272   2.268   0.200 -1.5901  0.0065  0.2494
 1060SOL    HW213040   3.192   2.129   0.172  1.6401 -1.6385 -1.0882
 1061SOL     OW13041   4.431   3.198   2.416 -0.5563 -0.3835  0.0104
 1061SOL    HW113042   4.486   3.147   2.350 -0.7914  0.0106 -0.4893
 1061SOL    HW213043   4.421   3.292   2.386  1.0171  0.3280  1.6096
 1062SOL     OW13044   2.794   0.898   2.571 -0.8027  0.1268  0.4091
 1062SOL    HW113045   2.838   0.820   2.616 -2.0748  0.1082  1.6346
 1062SOL    HW213046   2.806   0.889   2.472  3.4206  1.0135  0.7226
 1063SOL     OW13047   2.496   7.962   2.322 -0.6040 -0.0722 -0.3575
 1063SOL    HW113048   2.490   7.907   2.238  1.2162  0.0589 -0.5908
 1063SOL    HW213049   2.554   7.915   2.388 -0.0351  1.0097 -0.0924
 1064SOL     OW13050   3.343  10.088   2.300 -0.5134  0.2256 -0.4418
 1064SOL    HW113051   3.427  10.075   2.353  0.1525 -0.8408 -1.7220
 1064SOL    HW213052   3.311   9.999   2.267 -2.2524  0.6079  0.1879
 1065SOL     OW13053   4.867   3.319   1.200 -0.2644  0.3412  0.5098
 1065SOL    HW113054   4.888   3.238   1.146  0.0346 -0.3605  1.6629
 1065SOL    HW213055   4.842   3.292   1.293  0.9762  1.6142  1.2424
 1066SOL     OW13056   3.082   8.386   0.480  0.4409 -0.5307 -0.3188
 1066SOL    HW113057   3.005   8.432   0.435  1.4416  0.0963 -1.4170
 1066SOL    HW213058   3.081   8.289   0.457  0.0469 -0.5035 -0.4226
 1067SOL     OW13059   3.438   0.452   0.464  0.0851  0.1171  0.1111
 1067SOL    HW113060   3.517   0.465   0.405  1.4056  0.0748  1.8074
 1067SOL    HW213061   3.426   0.355   0.484 -0.6377  0.0856 -0.4367
 1068SOL     OW13062   4.584   3.265  -0.016 -0.2587 -0.4352  0.2269
 1068SOL    HW113063   4.525   3.251  -0.096 -0.6401 -1.2689  0.6462
 1068SOL    HW213064   4.529   3.264   0.067 -0.0519  1.8466  0.4147
 1069SOL     OW13065   3.341   1.537  -0.028  0.3594  0.0196  0.1867
 1069SOL    HW113066   3.354   1.616   0.032 -1.6095  0.5308 -0.0443
 1069SOL    HW213067   3.244   1.514  -0.033  0.5456 -0.3941 -2.3022
 1070SOL     OW13068   3.453   0.923   0.381 -0.0186  0.2029 -0.2330
 1070SOL    HW113069   3.429   0.869   0.462  0.8801  0.0818 -0.0429
 1070SOL    HW213070   3.517   0.872   0.324  0.0046  0.6323 -0.5925
 1071SOL     OW13071   2.161   4.388  -0.024 -0.4930 -0.3927  0.5028
 1071SOL    HW113072   2.191   4.316  -0.087 -0.5358 -2.3501  2.6937
 1071SOL    HW213073   2.153   4.474  -0.075  0.2816 -1.7347 -1.9948
 1072SOL     OW13074   2.063   1.573   0.686 -0.1145  0.1518 -0.0028
 1072SOL    HW113075   1.965   1.555   0.694  0.0837 -1.0313 -0.1487
 1072SOL    HW213076   2.101   1.520   0.611  0.8699 -0.3672  0.8364
 1073SOL     OW13077   4.388   3.454   2.429  0.6724  0.0646  0.4600
 1073SOL    HW113078   4.309   3.442   2.369  3.1901 -1.2881 -2.7717
 1073SOL    HW213079   4.383   3.544   2.473 -1.0106  1.3568 -2.2187
 1074SOL     OW13080   2.720   7.499   2.353  0.0638 -0.2600 -0.0191
 1074SOL    HW113081   2.682   7.557   2.425  0.7194  1.1583 -0.7797
 1074SOL    HW213082   2.820   7.503   2.357  0.1093  0.7857 -1.7354
 1075SOL     OW13083   2.935   5.380   1.112  0.1432 -0.1213 -0.0093
 1075SOL    HW113084   2.971   5.289   1.090 -0.3421 -0.1637 -0.6499
 1075SOL    HW213085   2.962   5.445   1.041 -1.0909 -0.1713 -0.5415
 1076SOL     OW13086   4.836   2.452   2.534  0.3580 -0.0454  0.0825
 1076SOL    HW113087   4.927   2.438   2.571  0.0428  0.0519  0.8911
 1076SOL    HW213088   4.775   2.485   2.605 -0.1586  0.4985 -0.6054
 1077SOL     OW13089   2.736   0.521   0.127  0.0400  0.2422  0.1497
 1077SOL    HW113090   2.766   0.427   0.117 -0.6190  0.0529 -0.1004
 1077SOL    HW213091   2.676   0.529   0.207  0.5867  0.5701  0.5262
 1078SOL     OW13092   3.323   2.263   1.178  0.5615  0.1046  0.0340
 1078SOL    HW113093   3.330   2.363   1.172 -0.8606  0.2083 -0.1496
 1078SOL    HW213094   3.307   2.236   1.273  2.2622 -0.0552  0.2909
 1079SOL     OW13095   2.893   2.049   2.455 -0.4986  0.1054 -0.1328
 1079SOL    HW113096   2.810   2.064   2.510  0.3042 -2.2966  1.8223
 1079SOL    HW213097   2.867   2.011   2.367 -1.5360  0.0037  0.2060
 1080SOL     OW13098   2.965   7.082  -0.023  0.4226  0.1157  0.0829
 1080SOL    HW113099   3.028   7.043   0.045 -0.4116 -1.4386 -0.0080
 1080SOL    HW213100   2.902   7.145   0.022  1.0583  0.5190  0.4233
 1081SOL     OW13101   3.334   8.220   1.797  0.0077 -0.0050  0.6948
 1081SOL    HW113102   3.320   8.123   1.774 -0.4159 -0.2982  2.1296
 1081SOL    HW213103   3.432   8.238   1.805  0.0495 -0.9753  2.9805
 1082SOL     OW13104   2.011   8.749   0.751 -0.2467  0.3153  0.5650
 1082SOL    HW113105   2.109   8.730   0.748 -0.2688  0.3776 -0.9119
 1082SOL    HW213106   1.995   8.844   0.724 -0.8192 -0.1094 -0.6011
 1083SOL     OW13107   3.177   7.416   1.168  0.2991 -0.3372  0.1164
 1083SOL    HW113108   3.225   7.430   1.081 -0.5839 -1.0588 -0.5000
 1083SOL    HW213109   3.233   7.358   1.227 -0.2017 -1.9346 -0.9526
 1084SOL     OW13110   2.795   6.709   1.777 -0.1591 -0.0412 -0.1202
 1084SOL    HW113111   2.732   6.775   1.736  0.8545  1.9019  1.3700
 1084SOL    HW213112   2.888   6.728   1.746  0.3324  0.1528  1.4468
 1085SOL     OW13113   2.758   0.292   2.401 -0.3434  0.5841 -0.3128
 1085SOL    HW113114   2.801   0.213   2.445  0.0628  0.2720 -1.2616
 1085SOL    HW213115   2.791   0.376   2.444 -2.4381  0.1924  2.1824
 1086SOL     OW13116   2.844   1.025   2.050  0.3226 -0.3062  0.4897
 1086SOL    HW113117   2.848   1.050   2.147  0.3950 -0.5376  0.5462
 1086SOL    HW213118   2.795   0.938   2.040  0.8841 -0.6129  0.3771
 1087SOL     OW13119   2.494   3.963   2.357  0.0991 -0.1463 -0.0265
 1087SOL    HW113120   2.455   4.053   2.334 -0.8342 -1.2038 -2.8357
 1087SOL    HW213121   2.585   3.955   2.316 -0.8716 -1.4073 -2.0344
 1088SOL     OW13122   4.479   8.875   0.991  0.0076  0.4538 -0.4750
 1088SOL    HW113123   4.476   8.963   0.945 -0.4457  0.6001 -0.1678
 1088SOL    HW213124   4.408   8.815   0.954 -0.2744  0.5289 -0.0631
 1089SOL     OW13125   2.300   0.712   0.811 -0.2289 -0.0501 -0.3716
 1089SOL    HW113126   2.269   0.807   0.819  0.7778  0.2860 -0.3846
 1089SOL    HW213127   2.249   0.666   0.738  0.7489  1.0847 -1.7904
 1090SOL     OW13128   3.987   9.179   1.040 -0.2960  0.0060 -0.0397
 1090SOL    HW113129   3.900   9.173   1.089  0.6723  0.2952  1.7600
 1090SOL    HW213130   4.013   9.276   1.030  0.5372 -0.1371  0.7267
 1091SOL     OW13131   3.667   3.913   2.076 -0.1006 -0.4080  0.6976
 1091SOL    HW113132   3.574   3.950   2.074 -0.1647 -0.5509  1.1045
 1091SOL    HW213133   3.704   3.921   2.168  0.7535  0.7955  0.2586
 1092SOL     OW13134   2.223   0.301   2.148  0.0133 -0.7219  0.2492
 1092SOL    HW113135   2.224   0.359   2.230  2.1499  0.0030 -0.2437
 1092SOL    HW213136   2.229   0.359   2.066  1.2161 -1.5610 -0.2799
 1093SOL     OW13137   3.915   4.035   2.527 -0.4003 -0.3878 -0.7024
 1093SOL    HW113138   3.963   3.958   2.570 -0.0356 -0.4989 -1.3157
 1093SOL    HW213139   3.851   4.074   2.593 -0.1154 -0.8032 -0.1725
 1094SOL     OW13140   5.017   2.455   1.630  0.1794 -0.5730  0.6468
 1094SOL    HW113141   5.086   2.385   1.611  0.6245 -0.4390  1.7227
 1094SOL    HW213142   4.927   2.412   1.632  0.5764 -1.4232  2.7100
 1095SOL     OW13143   3.477   7.650   0.929 -0.0021  0.0589 -0.1768
 1095SOL    HW113144   3.514   7.722   0.871  0.5177 -0.3531 -0.3641
 1095SOL    HW213145   3.445   7.689   1.015  4.5480 -0.0228  1.7364
 1096SOL     OW13146   2.611   9.491   1.445 -0.0105 -0.5221  0.1498
 1096SOL    HW113147   2.613   9.570   1.385 -0.1850 -0.1481  0.6356
 1096SOL    HW213148   2.643   9.517   1.536  1.8907 -1.4497 -0.2080
 1097SOL     OW13149   4.058   4.254   2.415  0.2204 -0.3401 -0.0736
 1097SOL    HW113150   3.977   4.313   2.412 -0.0701 -0.6922  0.5965
 1097SOL    HW213151   4.029   4.158   2.416  0.6424 -0.4648  0.2998
 1098SOL     OW13152   4.644   1.858   0.606 -0.5208 -0.0591  0.3210
 1098SOL    HW113153   4.627   1.783   0.541  2.6786  0.9541 -1.7902
 1098SOL    HW213154   4.614   1.944   0.566  2.0794  0.6641 -0.1870
 1099SOL     OW13155   3.618   9.081   0.864  0.0104  0.0513  0.0772
 1099SOL    HW113156   3.658   9.123   0.946  1.2912 -1.8386  0.4439
 1099SOL    HW213157   3.551   9.012   0.890  0.8494 -0.9691 -0.4481
 1100SOL     OW13158   2.915   2.947   2.335  0.3073  0.2254 -0.1792
 1100SOL    HW113159   2.829   2.899   2.347 -0.1312  0.5952 -1.7701
 1100SOL    HW213160   2.987   2.881   2.314  0.7425 -0.2448  2.6410
 1101SOL     OW13161   2.606   0.812   1.771  0.4468  0.1542  0.2755
 1101SOL    HW113162   2.677   0.882   1.777  1.1043 -0.5335  0.7095
 1101SOL    HW213163   2.550   0.827   1.690  1.5480  0.2920 -0.4665
 1102SOL     OW13164   3.480   2.015   0.114  0.0201  0.2440 -0.2134
 1102SOL    HW113165   3.419   2.091   0.136 -0.0186  0.7913 -2.0947
 1102SOL    HW213166   3.428   1.942   0.070  0.2668 -0.3838  0.5299
 1103SOL     OW13167   3.856   0.386   0.990  0.2764  0.6507  0.5992
 1103SOL    HW113168   3.809   0.313   0.941  0.3765 -0.1897  1.7417
 1103SOL    HW213169   3.880   0.459   0.926  0.2467 -0.3501 -0.5650
 1104SOL     OW13170   2.822   6.145   0.423  0.0565 -0.2045  0.1377
 1104SOL    HW113171   2.764   6.222   0.396  0.4776  0.5931  1.4855
 1104SOL    HW213172   2.889   6.127   0.351  0.5357  1.2836  0.1810
 1105SOL     OW13173   3.289   2.672   0.615 -0.0554 -0.0184 -0.1768
 1105SOL    HW113174   3.227   2.672   0.694 -0.3787 -1.1271 -0.4249
 1105SOL    HW213175   3.301   2.579   0.582  2.2067  0.1035  0.2130
 1106SOL     OW13176   3.313   8.833   1.555  0.0511  0.1624  0.2580
 1106SOL    HW113177   3.234   8.773   1.569  0.4690 -1.2458 -2.9511
 1106SOL    HW213178   3.284   8.915   1.505  0.1242  1.0545  1.6378
 1107SOL     OW13179   3.231   5.505   2.454 -0.2722  0.1125 -0.3339
 1107SOL    HW113180   3.160   5.457   2.401  0.0059  1.5291 -2.0029
 1107SOL    HW213181   3.244   5.597   2.418  1.6365  0.2688  0.6915
 1108SOL     OW13182   2.715   2.872   0.021 -0.0872 -0.0076 -0.1113
 1108SOL    HW113183   2.799   2.831  -0.013  0.0936 -0.0136  0.3462
 1108SOL    HW213184   2.648   2.877  -0.054  0.1419 -0.4572 -0.3466
 1109SOL     OW13185   4.985   4.067   1.884 -0.4016  0.0178  0.2065
 1109SOL    HW113186   5.018   4.158   1.860  1.7592 -0.3382  1.6711
 1109SOL    HW213187   4.930   4.030   1.809  0.2948  1.7498 -1.1731
 1110SOL     OW13188   4.047   5.492   2.109  0.2693 -0.2512  0.1975
 1110SOL    HW113189   3.997   5.541   2.181  1.8089 -0.6993  1.6032
 1110SOL    HW213190   4.121   5.439   2.150  1.1232 -0.5840 -1.7250
 1111SOL     OW13191   3.173   8.373   2.195 -0.2064  0.3340  0.5397
 1111SOL    HW113192   3.160   8.453   2.136 -1.1196  0.4310  0.8599
 1111SOL    HW213193   3.172   8.290   2.140  0.5942  0.5357  0.2229
 1112SOL     OW13194   4.649   4.915   1.331 -0.3212  0.1645  0.0360
 1112SOL    HW113195   4.557   4.893   1.300 -0.5602  0.8023  0.3114
 1112SOL    HW213196   4.681   4.998   1.285 -0.6979  1.1529  1.5343
 1113SOL     OW13197   3.326   4.479   1.877 -0.2481  0.1841  0.3822
 1113SOL    HW113198   3.245   4.498   1.933 -0.6281 -1.3170  0.3650
 1113SOL    HW213199   3.387   4.417   1.926 -0.3505 -0.7572 -0.6659
 1114SOL     OW13200   3.626   1.856   0.349  0.2762 -0.2675  0.7023
 1114SOL    HW113201   3.607   1.940   0.298 -1.4935 -1.1347 -0.1367
 1114SOL    HW213202   3.607   1.870   0.446  0.7401  0.5331  0.6747
 1115SOL     OW13203   2.891   7.203   1.353  0.1800  0.2751  0.6702
 1115SOL    HW113204   2.859   7.131   1.415 -0.2560 -0.8651 -0.8435
 1115SOL    HW213205   2.964   7.255   1.398 -0.8741  0.1775  2.5425
 1116SOL     OW13206   3.486   5.037   1.807 -0.1387  0.2754 -0.0632
 1116SOL    HW113207   3.444   5.105   1.867  0.7748  0.2947  0.5658
 1116SOL    HW213208   3.542   5.083   1.739 -0.3311  0.2005 -0.2719
 1117SOL     OW13209   2.631   3.168   2.489  0.1436 -0.0864  0.5583
 1117SOL    HW113210   2.659   3.200   2.579 -1.5327 -0.9191  1.3995
 1117SOL    HW213211   2.570   3.089   2.499  1.4519 -1.3854 -1.3670
 1118SOL     OW13212   2.681   3.990   0.275  0.0086  0.5504  0.3760
 1118SOL    HW113213   2.683   4.019   0.371  0.9991  0.0888  0.5034
 1118SOL    HW213214   2.599   4.027   0.231  0.1051  1.6702  1.1161
 1119SOL     OW13215   3.852   2.769   1.456  0.2339  0.5784 -0.1696
 1119SOL    HW113216   3.916   2.769   1.533  1.0603  0.8170 -0.8579
 1119SOL    HW213217   3.758   2.776   1.491  0.6710  1.8761  0.7533
 1120SOL     OW13218   3.561   4.250   0.047 -0.0746 -0.0988  0.1858
 1120SOL    HW113219   3.529   4.322  -0.014  0.5049  1.7151  1.9680
 1120SOL    HW213220   3.542   4.276   0.142  2.4959 -1.0555  1.0125
 1121SOL     OW13221   2.713   5.496   1.942  0.5606  0.1147  0.1414
 1121SOL    HW113222   2.809   5.472   1.930  0.6916  0.4240  0.5698
 1121SOL    HW213223   2.702   5.553   2.023 -0.0368 -0.2221  0.3045
 1122SOL     OW13224   3.334   5.494   0.039 -0.2034 -0.0322 -0.7561
 1122SOL    HW113225   3.254   5.475   0.095 -0.9331 -0.6639 -1.9871
 1122SOL    HW213226   3.305   5.514  -0.055  1.0255  0.5168 -1.0315
 1123SOL     OW13227   3.712   3.949   2.353  0.2995 -1.0249  0.4408
 1123SOL    HW113228   3.799   3.974   2.394 -0.0447  1.4708 -0.2608
 1123SOL    HW213229   3.688   3.855   2.378  2.2717 -1.0862  2.1448
 1124SOL     OW13230   3.717   1.812   1.944  0.1106 -0.5573  0.0503
 1124SOL    HW113231   3.816   1.796   1.943 -0.0051 -1.6861  2.4923
 1124SOL    HW213232   3.699   1.907   1.971  0.5154 -0.7569  1.0626
 1125SOL     OW13233   2.613   2.180   2.369  0.0037  0.0354  0.3034
 1125SOL    HW113234   2.690   2.180   2.305 -0.7101 -0.6007 -0.5746
 1125SOL    HW213235   2.548   2.252   2.344 -0.2386 -0.1626  0.3532
 1126SOL     OW13236   3.154   3.703   0.927 -0.1984 -0.2483 -0.5383
 1126SOL    HW113237   3.231   3.752   0.968  0.0987 -0.0277 -1.3442
 1126SOL    HW213238   3.072   3.716   0.983  0.7280 -1.8392  1.2239
 1127SOL     OW13239   4.311   3.245   0.436 -0.2958 -0.3601  0.0566
 1127SOL    HW113240   4.212   3.239   0.446 -0.3083  0.4378  0.4415
 1127SOL    HW213241   4.353   3.157   0.459 -0.9292 -0.7690 -0.3344
 1128SOL     OW13242   2.900   9.121   2.496  0.0492 -0.3762 -0.2151
 1128SOL    HW113243   2.970   9.059   2.461  0.2547 -0.2808  0.0210
 1128SOL    HW213244   2.860   9.173   2.421 -0.3154 -0.9885 -0.4515
 1129SOL     OW13245   5.086   3.317  -0.016  0.1098 -0.2800 -0.2431
 1129SOL    HW113246   5.063   3.397   0.040  0.4363  0.2444 -0.8596
 1129SOL    HW213247   5.004   3.283  -0.060 -0.0071 -0.2017 -0.0867
 1130SOL     OW13248   2.468   9.423   0.145  0.3118 -0.0263  0.5403
 1130SOL    HW113249   2.515   9.377   0.220  1.3390  2.0294  1.1984
 1130SOL    HW213250   2.390   9.475   0.181 -1.2512 -1.7161 -0.2823
 1131SOL     OW13251   3.365   8.455   0.753  0.5563  0.0858 -0.0902
 1131SOL    HW113252   3.452   8.409   0.770  0.8382  0.6300 -0.0598
 1131SOL    HW213253   3.295   8.387   0.733  1.0904 -0.3291 -0.5671
 1132SOL     OW13254   2.994   1.348   1.218 -0.3617  0.6175  0.1033
 1132SOL    HW113255   2.963   1.430   1.170 -0.5591 -0.3691 -1.5009
 1132SOL    HW213256   2.917   1.286   1.232  0.3704 -0.7589 -1.6960
 1133SOL     OW13257   2.700   2.221   1.767  0.2136  0.4648 -0.4084
 1133SOL    HW113258   2.620   2.266   1.726  0.1997 -0.7972 -1.8104
 1133SOL    HW213259   2.750   2.171   1.696  0.6322 -1.1495  0.9856
 1134SOL     OW13260   4.624   2.613   2.000 -0.2029  0.5974 -0.1963
 1134SOL    HW113261   4.547   2.600   2.063 -0.9263  0.7974 -1.0246
 1134SOL    HW213262   4.698   2.660   2.047 -1.8034  3.2751 -0.2418
 1135SOL     OW13263   4.193   4.845   1.720 -0.2349 -0.7132 -0.3787
 1135SOL    HW113264   4.212   4.851   1.622 -1.0881 -1.0129 -0.5687
 1135SOL    HW213265   4.103   4.805   1.734  0.4794 -2.0059  0.5753
 1136SOL     OW13266   4.414   3.578   1.728 -0.0195 -0.2054  0.2082
 1136SOL    HW113267   4.354   3.594   1.807 -0.1951 -0.7367  0.1842
 1136SOL    HW213268   4.425   3.663   1.677 -0.3404  0.0159  0.5030
 1137SOL     OW13269   3.154   5.190   1.670  0.8185  0.1813 -0.3998
 1137SOL    HW113270   3.154   5.188   1.570 -1.4538 -0.6698 -0.4176
 1137SOL    HW213271   3.179   5.281   1.703  1.5910  0.4549 -1.7289
 1138SOL     OW13272   2.281   8.704   0.641 -0.5875 -0.3989  0.3483
 1138SOL    HW113273   2.229   8.731   0.560 -2.1454  0.5368  1.6441
 1138SOL    HW213274   2.378   8.721   0.624 -0.7169 -1.6260 -1.8756
 1139SOL     OW13275   3.743   5.112   1.069  0.3075 -0.1623  0.2791
 1139SOL    HW113276   3.838   5.111   1.100  1.2661  0.5791 -2.4803
 1139SOL    HW213277   3.693   5.183   1.117  1.6231  0.6810  0.4262
 1140SOL     OW13278   1.895   9.943   1.655 -0.0907 -0.2752  0.4727
 1140SOL    HW113279   1.960  10.008   1.618 -0.3833 -0.1601  0.1561
 1140SOL    HW213280   1.883   9.959   1.753  1.0392 -0.8824  0.7224
 1141SOL     OW13281   4.705   2.144   1.184 -0.0285  0.2298 -0.3457
 1141SOL    HW113282   4.716   2.044   1.189  0.0675  0.2614  0.0904
 1141SOL    HW213283   4.716   2.174   1.090 -0.6432 -0.2421 -0.5707
 1142SOL     OW13284   1.993   7.638   0.119 -0.0330 -0.0017  0.3768
 1142SOL    HW113285   1.904   7.684   0.116  0.9784  1.9737 -0.5770
 1142SOL    HW213286   2.061   7.699   0.160  1.3390 -0.6386 -0.9076
 1143SOL     OW13287   2.522   8.166   1.575 -0.4508  0.3795  0.5454
 1143SOL    HW113288   2.589   8.094   1.560  1.3727  1.6018  2.4696
 1143SOL    HW213289   2.433   8.125   1.596 -0.4320 -1.2567 -2.3680
 1144SOL     OW13290   4.412   4.567   0.776 -0.2377 -0.3138  0.0795
 1144SOL    HW113291   4.411   4.585   0.677  0.2561 -0.8958 -0.0288
 1144SOL    HW213292   4.386   4.473   0.793  1.5678 -0.7854  0.3784
 1145SOL     OW13293   4.949   4.585   2.435  0.1034  0.1694  0.2126
 1145SOL    HW113294   4.960   4.553   2.530  2.6541  0.9046  0.2013
 1145SOL    HW213295   4.975   4.511   2.373  0.8952  0.5263  0.1198
 1146SOL     OW13296   2.354   8.089   2.530 -0.4902  0.4274 -0.5511
 1146SOL    HW113297   2.295   8.008   2.538  0.9469 -0.6460 -0.6468
 1146SOL    HW213298   2.430   8.068   2.469  1.6072  0.8316  1.8702
 1147SOL     OW13299   3.215   6.613   1.377  0.3598  0.2271  0.3244
 1147SOL    HW113300   3.240   6.632   1.282 -1.3284  1.3231  0.0726
 1147SOL    HW213301   3.226   6.515   1.396  2.6150  0.3194 -0.4014
 1148SOL     OW13302   4.979   3.879   2.213  0.1015 -0.3617 -0.5018
 1148SOL    HW113303   5.059   3.881   2.153 -1.3820  1.0828 -2.5214
 1148SOL    HW213304   4.963   3.786   2.246  1.4713 -1.0094 -1.6480
 1149SOL     OW13305   2.496   5.074   0.924 -0.5389  0.6081  0.0959
 1149SOL    HW113306   2.573   5.114   0.974  0.1004  2.6757 -2.4253
 1149SOL    HW213307   2.505   4.975   0.922  0.7964  0.6718  1.8236
 1150SOL     OW13308   2.584   6.813   2.286  0.1738 -0.0620 -0.4271
 1150SOL    HW113309   2.557   6.906   2.310 -0.0323 -0.5882  1.4394
 1150SOL    HW213310   2.502   6.758   2.270  0.2821 -0.0393 -1.0507
 1151SOL     OW13311   4.122   4.314   2.142 -0.3223 -0.3624 -0.5716
 1151SOL    HW113312   4.129   4.299   2.240 -2.3072  0.1890 -0.3194
 1151SOL    HW213313   4.211   4.341   2.105  0.4216 -0.5589  1.0622
 1152SOL     OW13314   4.740   3.997   2.156 -0.0238 -0.1501  0.4419
 1152SOL    HW113315   4.665   3.934   2.174  0.0321 -0.3729 -0.1019
 1152SOL    HW213316   4.827   3.952   2.174 -0.0012 -0.0448  0.6003
 1153SOL     OW13317   4.966   2.417   0.844  0.3144 -0.1217  0.4594
 1153SOL    HW113318   5.010   2.407   0.933  0.2665 -0.0512  0.4908
 1153SOL    HW213319   5.035   2.405   0.772  0.3115 -0.3978  0.5006
 1154SOL     OW13320   4.414   2.718   0.201 -0.0902  0.0394  0.3845
 1154SOL    HW113321   4.423   2.812   0.167  0.6194 -0.4557 -0.8525
 1154SOL    HW213322   4.471   2.658   0.145 -0.9767 -1.2164  0.8189
 1155SOL     OW13323   2.725   8.474   1.278  0.2142  0.0542 -0.2413
 1155SOL    HW113324   2.809   8.506   1.234 -0.3667  1.3722 -0.4002
 1155SOL    HW213325   2.720   8.374   1.271  1.3497  0.0417 -0.9649
 1156SOL     OW13326   4.618   1.935   2.058 -0.3902 -0.1017  0.6399
 1156SOL    HW113327   4.632   1.923   2.156  1.7476 -1.1569  0.2573
 1156SOL    HW213328   4.569   1.856   2.022 -0.9943  0.1876  0.8351
 1157SOL     OW13329   3.385   7.787   2.158  0.1036 -0.8273  0.4971
 1157SOL    HW113330   3.473   7.749   2.130  1.0282  1.7080 -0.1345
 1157SOL    HW213331   3.396   7.839   2.243 -0.3695  1.1293 -0.6121
 1158SOL     OW13332   3.102  10.090   0.008  0.6591  0.2273  0.5308
 1158SOL    HW113333   3.149  10.151  -0.055  0.0787  2.2340  1.9933
 1158SOL    HW213334   3.151  10.086   0.095 -0.3097  0.0913  1.0870
 1159SOL     OW13335   3.980   3.331   0.355  0.2376 -0.3332  0.3662
 1159SOL    HW113336   3.997   3.264   0.427 -1.0644 -1.0009  0.0775
 1159SOL    HW213337   3.893   3.378   0.372  0.1727 -0.1230 -0.4873
 1160SOL     OW13338   3.322   1.068   0.861 -0.5823 -0.5403 -0.6385
 1160SOL    HW113339   3.314   0.969   0.866  1.8791 -0.8065 -1.2213
 1160SOL    HW213340   3.337   1.095   0.766 -0.5227  0.3206 -0.3854
 1161SOL     OW13341   2.700   5.200   1.039 -0.3560 -0.1423 -0.0199
 1161SOL    HW113342   2.751   5.178   1.122 -2.5831 -1.9566  0.9400
 1161SOL    HW213343   2.712   5.297   1.017  2.6332 -0.2927  0.7164
 1162SOL     OW13344   2.559   4.904   2.214 -0.0133 -0.1780  0.4343
 1162SOL    HW113345   2.580   5.002   2.223 -0.8406 -0.0036  0.5544
 1162SOL    HW213346   2.492   4.879   2.284 -0.6149 -0.5889 -0.2922
 1163SOL     OW13347   2.600   3.172   0.794 -0.0528  0.2558 -0.2649
 1163SOL    HW113348   2.603   3.074   0.774 -0.2944  0.1381  0.2720
 1163SOL    HW213349   2.619   3.187   0.891  1.7898  0.8800 -0.7020
 1164SOL     OW13350   3.042   7.536   2.411 -0.3590  0.0209 -0.3371
 1164SOL    HW113351   3.043   7.583   2.499  0.4438  0.7766 -0.7389
 1164SOL    HW213352   3.040   7.437   2.426  0.3810  0.1305  0.5296
 1165SOL     OW13353   4.580   8.688   0.575  0.4553 -0.8692  0.1471
 1165SOL    HW113354   4.512   8.633   0.623 -1.4899  1.3528  0.0146
 1165SOL    HW213355   4.550   8.703   0.481  2.1016 -1.4731 -0.4983
 1166SOL     OW13356   2.423   1.015   2.479  0.0959  0.4595 -0.0553
 1166SOL    HW113357   2.440   1.106   2.441 -2.5296  0.7098 -0.6934
 1166SOL    HW213358   2.432   1.018   2.579 -1.2005  1.7183  0.0372
 1167SOL     OW13359   4.006   3.445   2.033  0.4275 -0.2858 -0.5348
 1167SOL    HW113360   4.009   3.464   1.935 -0.8262  0.5210 -0.4250
 1167SOL    HW213361   3.953   3.516   2.079 -0.3579 -1.5370  0.5172
 1168SOL     OW13362   3.860   0.231   1.209  0.4838  0.0457  0.4312
 1168SOL    HW113363   3.871   0.291   1.129  0.4957  1.7698  1.6958
 1168SOL    HW213364   3.834   0.286   1.288 -1.0830 -1.8375  1.2791
 1169SOL     OW13365   4.055   2.027   0.462 -0.1725  0.0591  0.5950
 1169SOL    HW113366   3.967   2.063   0.493 -0.6886 -0.5390 -0.1701
 1169SOL    HW213367   4.117   2.017   0.541 -1.9142 -2.7397  1.6764
 1170SOL     OW13368   2.691   8.935   0.203  0.1161 -0.3543  0.4380
 1170SOL    HW113369   2.753   8.978   0.269  0.8219 -0.1804 -0.3441
 1170SOL    HW213370   2.706   8.974   0.112 -1.1247 -0.3275  0.2396
 1171SOL     OW13371   3.534   8.528   1.423  0.0239  0.2765  0.1144
 1171SOL    HW113372   3.439   8.504   1.444  0.5507 -2.2169 -0.1409
 1171SOL    HW213373   3.545   8.627   1.425 -2.5958  0.6003  0.0835
 1172SOL     OW13374   1.863   8.108   1.924 -0.0567 -0.0596 -0.5054
 1172SOL    HW113375   1.920   8.028   1.903 -0.1299 -0.3601  0.4171
 1172SOL    HW213376   1.817   8.094   2.012 -0.1028  0.9856 -0.3572
 1173SOL     OW13377   3.604   3.370  -0.039 -0.6877 -0.0146  0.1042
 1173SOL    HW113378   3.577   3.369  -0.135  0.2978  0.7680 -0.1956
 1173SOL    HW213379   3.667   3.294  -0.021 -1.8537 -0.9122  0.4364
 1174SOL     OW13380   4.010   2.445   2.041 -0.5384 -0.4562 -0.4435
 1174SOL    HW113381   3.963   2.358   2.033 -1.3289 -0.1109  0.3768
 1174SOL    HW213382   4.055   2.467   1.955 -1.7051 -0.8943 -1.1716
 1175SOL     OW13383   3.292   8.344   1.549  0.0713  0.0731 -0.2066
 1175SOL    HW113384   3.306   8.319   1.645  0.9616 -1.8174 -0.7885
 1175SOL    HW213385   3.233   8.424   1.544  1.3433  1.2111  1.9750
 1176SOL     OW13386   3.198   0.556   1.944 -0.1926  0.0772  0.1941
 1176SOL    HW113387   3.174   0.485   1.877 -1.4124 -0.2582  0.9609
 1176SOL    HW213388   3.115   0.583   1.994  0.7267  0.2119  1.6683
 1177SOL     OW13389   4.250   2.191   1.152  0.2555  0.8419 -0.0967
 1177SOL    HW113390   4.259   2.093   1.173 -2.7727  0.0886 -2.0103
 1177SOL    HW213391   4.332   2.222   1.105  0.4263 -1.3391 -1.3431
 1178SOL     OW13392   4.157   3.856   1.910 -0.1199 -0.3293 -0.1452
 1178SOL    HW113393   4.145   3.816   1.819 -2.1294  0.3188 -0.1912
 1178SOL    HW213394   4.092   3.932   1.922 -0.5962 -1.0508  2.1934
 1179SOL     OW13395   3.120   0.562   2.385  0.1049  0.2018 -0.3335
 1179SOL    HW113396   3.206   0.509   2.386  0.4371  0.7396  2.5114
 1179SOL    HW213397   3.141   0.659   2.390 -0.6431  0.4418 -1.6490
 1180SOL     OW13398   3.632   1.056   0.594  0.5741  0.4813  0.1941
 1180SOL    HW113399   3.611   1.126   0.662 -1.1104  0.2066 -0.0181
 1180SOL    HW213400   3.574   1.069   0.514  0.4473 -0.9780  0.0327
 1181SOL     OW13401   3.236   6.043   1.599  0.2111  0.2346  0.0323
 1181SOL    HW113402   3.189   5.998   1.675 -2.9168  0.4832 -1.6363
 1181SOL    HW213403   3.276   5.975   1.538  2.5708  0.0317  1.7459
 1182SOL     OW13404   2.978   6.888   1.088  0.1806 -0.5453  0.0878
 1182SOL    HW113405   2.928   6.816   1.040  0.8742 -0.3512 -0.9587
 1182SOL    HW213406   2.935   6.977   1.067 -0.4048 -0.6081  1.0157
 1183SOL     OW13407   1.676   7.964   1.196  0.3257 -0.2857  0.0134
 1183SOL    HW113408   1.735   7.960   1.277  0.2683 -1.1533  0.0208
 1183SOL    HW213409   1.621   7.880   1.191 -1.5744  0.9023  0.5153
 1184SOL     OW13410   2.458   2.390   0.478  0.0381  0.1007  0.1599
 1184SOL    HW113411   2.542   2.345   0.508 -0.7664 -1.7739 -0.3136
 1184SOL    HW213412   2.447   2.377   0.379 -0.6881  0.5112  0.1875
 1185SOL     OW13413   2.331   6.968   0.493  1.2246 -0.0115 -0.1924
 1185SOL    HW113414   2.315   7.041   0.426 -2.3425  0.1110  0.6617
 1185SOL    HW213415   2.300   6.881   0.455  0.8836 -0.2385  0.5956
 1186SOL     OW13416   3.890   4.376   1.981  0.3013 -0.0573  0.0283
 1186SOL    HW113417   3.809   4.383   2.039  0.9198  1.3913  0.7481
 1186SOL    HW213418   3.972   4.372   2.038  0.7780 -0.9982 -0.7058
 1187SOL     OW13419   3.191   6.311   1.556  0.1158 -0.3541  0.2205
 1187SOL    HW113420   3.239   6.368   1.623 -1.3422 -0.0447  1.0202
 1187SOL    HW213421   3.219   6.215   1.569  2.8164  0.1511 -1.3453
 1188SOL     OW13422   2.200   8.054   0.839 -0.7736 -0.3164  0.4856
 1188SOL    HW113423   2.166   8.014   0.924  0.1407 -1.4767  0.3306
 1188SOL    HW213424   2.286   8.102   0.857 -1.4112  0.8205  0.5052
 1189SOL     OW13425   2.279   3.467   2.229 -0.5458 -0.5750  0.1504
 1189SOL    HW113426   2.284   3.367   2.223 -0.5773 -0.8092  3.1055
 1189SOL    HW213427   2.338   3.498   2.304 -0.1248  1.6985 -1.0713
 1190SOL     OW13428   2.461   9.809  -0.075 -0.4740 -0.1434  0.0029
 1190SOL    HW113429   2.409   9.808   0.010 -1.1539 -0.9534 -0.4114
 1190SOL    HW213430   2.523   9.887  -0.076 -1.0556  0.3320  0.8849
 1191SOL     OW13431   2.891   0.327   2.166  0.6730 -0.3553 -0.5499
 1191SOL    HW113432   2.845   0.302   2.252 -0.1930  0.6748 -0.7049
 1191SOL    HW213433   2.937   0.247   2.128 -0.6511 -1.3040 -0.1739
 1192SOL     OW13434   4.294   2.100   0.029  0.2748 -0.0069 -0.2687
 1192SOL    HW113435   4.364   2.047   0.077  1.5428  0.3675 -1.6785
 1192SOL    HW213436   4.313   2.198   0.041 -0.6410  0.1053  0.2663
 1193SOL     OW13437   4.639   3.965   0.933  0.4134 -0.0006 -0.3363
 1193SOL    HW113438   4.671   3.881   0.889  0.3125  0.5296 -1.4290
 1193SOL    HW213439   4.715   4.008   0.983  0.4707 -0.7220  0.2082
 1194SOL     OW13440   4.255   5.309   2.166 -0.4965 -0.5270  0.1100
 1194SOL    HW113441   4.300   5.227   2.200 -0.6527 -0.0435  1.5065
 1194SOL    HW213442   4.307   5.346   2.088 -0.2369 -1.7368 -0.3020
 1195SOL     OW13443   3.111   0.848   2.423 -0.0355 -0.2469  0.0841
 1195SOL    HW113444   3.125   0.841   2.522  0.9783 -2.3043 -0.1674
 1195SOL    HW213445   3.192   0.889   2.381  0.1562 -0.7656 -0.0535
 1196SOL     OW13446   2.914   0.502   2.546  0.5307 -0.5272  0.1268
 1196SOL    HW113447   2.917   0.568   2.621  0.4553  0.3976 -0.6673
 1196SOL    HW213448   2.993   0.516   2.486 -0.4743  0.1165 -1.0910
 1197SOL     OW13449   3.749   2.621   2.137  0.3976  0.1110  0.3696
 1197SOL    HW113450   3.682   2.567   2.086 -1.2119 -0.2029  2.7071
 1197SOL    HW213451   3.841   2.600   2.104 -0.5298 -0.6717 -1.8050
 1198SOL     OW13452   3.011   5.038   2.567 -0.3590 -0.5399 -0.6113
 1198SOL    HW113453   2.997   5.002   2.659  0.3648 -0.6905 -0.5570
 1198SOL    HW213454   3.081   5.109   2.569 -0.9378  0.0516 -0.9145
 1199SOL     OW13455   2.286   7.625   1.087 -0.1284 -0.3254  0.2638
 1199SOL    HW113456   2.252   7.531   1.094 -0.2651 -0.2853  0.1538
 1199SOL    HW213457   2.253   7.666   1.002  0.3594 -0.3512  0.0620
 1200SOL     OW13458   1.886   3.826   0.692  0.3893 -0.1328  0.0170
 1200SOL    HW113459   1.935   3.877   0.763 -1.1998 -0.1208  1.1198
 1200SOL    HW213460   1.815   3.884   0.652 -0.2467 -0.9110  0.0258
 1201SOL     OW13461   3.974   1.749   1.933  0.5332 -0.5721  0.1687
 1201SOL    HW113462   3.999   1.836   1.976  0.6155 -0.5255  0.0274
 1201SOL    HW213463   4.057   1.700   1.908  0.5048 -1.1656  1.1916
 1202SOL     OW13464   3.132   3.363   1.871  0.1649  0.4806 -0.1707
 1202SOL    HW113465   3.043   3.340   1.910 -0.2787  1.7931 -0.3716
 1202SOL    HW213466   3.146   3.313   1.785  0.8904 -1.9640  1.3264
 1203SOL     OW13467   3.502   8.152   2.237  0.3014  0.3312 -0.3178
 1203SOL    HW113468   3.553   8.110   2.163  1.5272  1.4607 -0.1257
 1203SOL    HW213469   3.472   8.081   2.302  1.9106 -0.3000 -0.2536
 1204SOL     OW13470   2.500   7.881   0.480  0.3222  0.2705 -0.0934
 1204SOL    HW113471   2.522   7.841   0.569 -1.5725 -0.5297  0.0252
 1204SOL    HW213472   2.432   7.953   0.491  0.9394  0.9775 -0.7774
 1205SOL     OW13473   4.067   0.197   0.854  0.2171 -0.1336 -0.4609
 1205SOL    HW113474   4.145   0.195   0.791  0.2967  0.1095 -0.3703
 1205SOL    HW213475   4.099   0.193   0.948  0.0846 -0.7492 -0.4409
 1206SOL     OW13476   4.323  10.110   0.268  0.1807 -0.0845  0.3275
 1206SOL    HW113477   4.277  10.150   0.189 -0.2575 -1.5258 -0.1801
 1206SOL    HW213478   4.396  10.048   0.237  1.8071  1.3903  1.1112
 1207SOL     OW13479   2.183   1.811   0.671  0.6254  0.0347 -0.1311
 1207SOL    HW113480   2.152   1.877   0.740  0.7489  1.6124 -1.5320
 1207SOL    HW213481   2.136   1.724   0.685  1.4159 -0.0253  2.5757
 1208SOL     OW13482   3.383   7.940   2.405  0.3881  0.2866 -0.2087
 1208SOL    HW113483   3.289   7.936   2.438 -0.0224  0.6107 -1.2987
 1208SOL    HW213484   3.446   7.918   2.479 -0.6165 -1.5395  0.1438
 1209SOL     OW13485   4.317   2.821   2.155 -0.2734  0.0896  0.3723
 1209SOL    HW113486   4.255   2.743   2.165  0.4212 -0.3342  1.5242
 1209SOL    HW213487   4.281   2.898   2.209 -0.9710  0.5839 -0.7830
 1210SOL     OW13488   1.841   7.912   0.952  0.5962  0.2168 -0.1620
 1210SOL    HW113489   1.764   7.909   1.015  1.1910 -0.0046  0.5557
 1210SOL    HW213490   1.924   7.881   0.999  0.7268 -1.5831 -1.5205
 1211SOL     OW13491   2.836   9.783   1.726 -0.2417 -0.6063 -0.0442
 1211SOL    HW113492   2.757   9.844   1.728 -0.6525 -1.1434  1.3529
 1211SOL    HW213493   2.878   9.785   1.636 -1.1989  0.5202 -0.4807
 1212SOL     OW13494   2.404   5.138   2.045  0.1516  0.2030  0.3390
 1212SOL    HW113495   2.451   5.201   1.983 -1.4643  2.0261  0.9019
 1212SOL    HW213496   2.382   5.053   1.997  1.3289  0.5229 -0.7800
 1213SOL     OW13497   2.312   9.611   2.108  0.1330 -0.1260 -0.5404
 1213SOL    HW113498   2.282   9.692   2.058  1.7963 -0.6585 -2.4821
 1213SOL    HW213499   2.308   9.628   2.206  1.3707  2.6418 -0.9385
 1214SOL     OW13500   2.418   8.976   0.161  0.5162  0.2831 -0.2402
 1214SOL    HW113501   2.409   8.986   0.062  0.6866  0.9449 -0.1878
 1214SOL    HW213502   2.507   8.935   0.183  0.8205  0.9071 -0.3119
 1215SOL     OW13503   3.270   4.214   1.039 -0.5109  0.2446 -0.3084
 1215SOL    HW113504   3.232   4.305   1.052 -3.0209 -0.4957 -1.8752
 1215SOL    HW213505   3.241   4.154   1.114 -1.2019  0.0532 -0.7251
 1216SOL     OW13506   4.262   1.314   2.317  0.2752  0.4601  0.0967
 1216SOL    HW113507   4.169   1.298   2.284  0.1118  1.1358  0.2195
 1216SOL    HW213508   4.262   1.389   2.383  0.9201  0.5308  0.0244
 1217SOL     OW13509   4.072   3.797   2.166  0.3866  0.0760  0.0951
 1217SOL    HW113510   4.155   3.814   2.220 -0.6925  0.5585  1.6355
 1217SOL    HW213511   4.078   3.846   2.080  0.3315  2.7560  1.5596
 1218SOL     OW13512   2.393   3.436   1.578  0.0890 -0.2211 -0.0935
 1218SOL    HW113513   2.444   3.424   1.492  0.2074 -0.6354  0.0335
 1218SOL    HW213514   2.343   3.352   1.599 -4.9596  1.8625 -2.9742
 1219SOL     OW13515   3.106   4.033   0.835  0.6182  0.0079 -0.0273
 1219SOL    HW113516   3.045   3.958   0.863 -2.3074  2.9649  1.8765
 1219SOL    HW213517   3.144   4.076   0.917  0.3153  2.1229 -0.9705
 1220SOL     OW13518   4.992   2.646   0.052 -0.7228 -0.3841  0.5069
 1220SOL    HW113519   5.001   2.737   0.010 -2.6998 -0.8663 -1.0427
 1220SOL    HW213520   4.983   2.656   0.151  0.0674  1.0373  0.4593
 1221SOL     OW13521   2.885   2.160   0.051 -1.0043  0.0638 -0.4157
 1221SOL    HW113522   2.803   2.109   0.025 -1.1137  0.0703 -0.0814
 1221SOL    HW213523   2.914   2.217  -0.026 -1.2979  0.0456 -0.5419
 1222SOL     OW13524   3.327   1.340   0.367 -0.0754 -0.1091  0.5442
 1222SOL    HW113525   3.333   1.426   0.418  0.1658  0.5068 -0.5166
 1222SOL    HW213526   3.419   1.300   0.360  0.1834  0.6988 -0.9139
 1223SOL     OW13527   4.856   3.760   1.035  0.1695  0.0245  0.3284
 1223SOL    HW113528   4.811   3.750   0.946 -0.8272 -0.0197  0.8285
 1223SOL    HW213529   4.788   3.750   1.108  1.1445 -0.9173  1.1266
 1224SOL     OW13530   3.507   0.438   0.916 -0.3033 -0.9636 -0.0048
 1224SOL    HW113531   3.564   0.401   0.989 -1.7462 -0.8284  1.2220
 1224SOL    HW213532   3.411   0.434   0.943 -0.6765  1.5308 -0.7853
 1225SOL     OW13533   2.498   5.334   1.233 -0.1956 -0.5235  0.4656
 1225SOL    HW113534   2.564   5.264   1.259  0.1841 -0.6906 -0.9025
 1225SOL    HW213535   2.522   5.371   1.144 -2.0174 -0.6856 -0.1258
 1226SOL     OW13536   2.023   3.782   0.142  0.3773  0.3316  0.2171
 1226SOL    HW113537   2.008   3.727   0.224  0.0009 -0.0668 -0.1144
 1226SOL    HW213538   1.938   3.784   0.088 -0.1176  2.5524  1.0262
 1227SOL     OW13539   4.327   0.979   0.117 -0.0570  0.0527  0.3719
 1227SOL    HW113540   4.414   1.027   0.113 -1.8611  3.3553 -2.8014
 1227SOL    HW213541   4.274   1.011   0.195  1.0945 -1.1876  1.6869
 1228SOL     OW13542   4.461   1.634   1.694 -0.1610 -0.0005 -0.2139
 1228SOL    HW113543   4.536   1.687   1.654  0.1263  0.6497  1.1481
 1228SOL    HW213544   4.405   1.595   1.621  0.5183  0.9094 -1.2391
 1229SOL     OW13545   2.831   7.084   0.288  0.0863  0.3833 -0.3900
 1229SOL    HW113546   2.891   7.021   0.336 -0.0424 -0.1786 -0.9483
 1229SOL    HW213547   2.885   7.156   0.245  0.3095  0.1823 -0.4431
 1230SOL     OW13548   3.080   9.656   2.022 -0.4997  0.1672  0.7763
 1230SOL    HW113549   3.145   9.584   1.999 -0.7108  0.0937  0.4089
 1230SOL    HW213550   3.005   9.617   2.076 -1.5675 -0.2624 -0.9659
 1231SOL     OW13551   3.526   4.185   2.223  0.2336 -0.2993 -0.4121
 1231SOL    HW113552   3.603   4.146   2.273  0.0961  0.2520  0.2283
 1231SOL    HW213553   3.551   4.275   2.188  0.5677 -0.9671 -1.9353
 1232SOL     OW13554   3.053   7.242   2.448  0.3809  0.0362 -0.3728
 1232SOL    HW113555   3.035   7.191   2.364 -0.8150  0.0759 -0.1467
 1232SOL    HW213556   3.025   7.188   2.527  1.2228  0.1213 -0.0025
 1233SOL     OW13557   3.327   1.906   1.853 -0.3029  0.4209 -0.6123
 1233SOL    HW113558   3.357   2.000   1.840  0.2115  0.2545 -0.6362
 1233SOL    HW213559   3.378   1.846   1.791 -0.3532  0.0768 -0.3238
 1234SOL     OW13560   3.760   4.504   0.264 -0.1414 -0.3968  0.5653
 1234SOL    HW113561   3.763   4.498   0.165  0.5337 -0.5870  0.5935
 1234SOL    HW213562   3.851   4.527   0.299 -0.0052 -1.8837  1.2348
 1235SOL     OW13563   5.098   2.575   1.414 -0.1708  0.2188 -0.1618
 1235SOL    HW113564   5.057   2.523   1.489  0.0660  0.9303  0.4687
 1235SOL    HW213565   5.184   2.533   1.387  0.3225  0.6399  0.7595
 1236SOL     OW13566   3.646   2.146   2.030 -0.5472 -0.2305  0.3376
 1236SOL    HW113567   3.611   2.084   2.101  0.0337 -0.7563  0.1649
 1236SOL    HW213568   3.602   2.235   2.040  0.0167 -0.0989  1.7812
 1237SOL     OW13569   2.009   4.230   0.170  0.3920 -0.3966  0.2839
 1237SOL    HW113570   2.070   4.299   0.131 -0.5160  0.8079  0.9566
 1237SOL    HW213571   2.010   4.148   0.113  0.0613  0.8497 -1.5543
 1238SOL     OW13572   3.432   3.125   0.181  0.0801 -0.1295 -0.6234
 1238SOL    HW113573   3.371   3.165   0.250 -0.5909 -0.6601 -0.9037
 1238SOL    HW213574   3.411   3.165   0.091  0.6972  0.2809 -0.5920
 1239SOL     OW13575   1.963   9.621   1.547  0.2757 -0.1780  0.1343
 1239SOL    HW113576   2.035   9.620   1.616 -0.7998 -0.7998  1.2566
 1239SOL    HW213577   1.874   9.633   1.591 -0.3299  0.4580 -1.2306
 1240SOL     OW13578   4.889   3.908   0.150 -0.1124 -0.4539 -0.5032
 1240SOL    HW113579   4.959   3.852   0.196 -0.8776 -0.3934  0.7364
 1240SOL    HW213580   4.933   3.964   0.079  1.4660  1.2888  1.7952
 1241SOL     OW13581   2.570  10.090   2.346 -0.0537 -0.4004 -0.0590
 1241SOL    HW113582   2.613  10.006   2.379 -0.6217 -0.8600 -0.4720
 1241SOL    HW213583   2.626  10.169   2.372  0.4290 -0.8978  0.4193
 1242SOL     OW13584   3.949   9.638   0.130 -0.3614 -0.0915  0.1002
 1242SOL    HW113585   4.033   9.654   0.183  0.4551  0.6151 -1.3752
 1242SOL    HW213586   3.881   9.594   0.188  1.1549 -0.9939  1.2226
 1243SOL     OW13587   3.270   1.162   0.162  0.4682  0.3020  0.0662
 1243SOL    HW113588   3.292   1.242   0.219 -1.7240 -0.1382  1.5734
 1243SOL    HW213589   3.236   1.088   0.220  1.8953 -1.5380 -1.3956
 1244SOL     OW13590   4.540   3.400   0.563  0.3005 -0.0971  0.1039
 1244SOL    HW113591   4.626   3.369   0.605  0.8171  0.0931 -0.7985
 1244SOL    HW213592   4.491   3.322   0.526  0.2675 -0.1589  0.2747
 1245SOL     OW13593   4.523   2.852   1.174  0.3457 -0.4536 -0.0403
 1245SOL    HW113594   4.506   2.753   1.168 -0.5480 -0.3218  0.2754
 1245SOL    HW213595   4.590   2.870   1.246 -0.1754 -0.7541  0.5226
 1246SOL     OW13596   3.891   9.262   2.544 -0.1812  0.2769  0.2532
 1246SOL    HW113597   3.937   9.174   2.530  0.5922  1.0628 -2.3926
 1246SOL    HW213598   3.958   9.335   2.549 -0.9886  1.2013 -1.7859
 1247SOL     OW13599   3.429   1.423   1.936  0.4511  0.5064  0.1794
 1247SOL    HW113600   3.497   1.430   2.008 -1.1852 -0.5483  1.8737
 1247SOL    HW213601   3.361   1.496   1.947  1.9301  2.3336 -2.2452
 1248SOL     OW13602   3.538   7.895   1.629  0.1547 -0.0310 -0.4527
 1248SOL    HW113603   3.539   7.833   1.550  1.7816  0.4444 -0.8193
 1248SOL    HW213604   3.469   7.966   1.614 -0.6565 -0.8656 -0.7165
 1249SOL     OW13605   3.667   3.917   1.062 -0.1784  0.3104 -0.4999
 1249SOL    HW113606   3.758   3.942   1.029  0.3006 -0.3678  0.2939
 1249SOL    HW213607   3.607   3.997   1.056  0.6118  0.9169 -0.4980
 1250SOL     OW13608   2.990   9.483   1.520 -0.6520 -1.0070  0.0815
 1250SOL    HW113609   2.978   9.392   1.482 -1.7156 -1.2152  0.9092
 1250SOL    HW213610   2.914   9.505   1.582 -1.3242  1.1033 -1.4121
 1251SOL     OW13611   2.013   9.508   2.190  0.1773 -0.4846 -0.0759
 1251SOL    HW113612   1.924   9.463   2.188 -0.0141 -0.0993 -0.3428
 1251SOL    HW213613   2.018   9.574   2.114  0.8720 -0.8639 -0.3663
 1252SOL     OW13614   2.148   1.931   0.911  0.2854 -0.3384 -0.5908
 1252SOL    HW113615   2.214   1.867   0.950  2.4413  1.1796 -1.6438
 1252SOL    HW213616   2.066   1.935   0.969  1.3205 -1.8615  1.0108
 1253SOL     OW13617   3.607   0.973   1.853  0.6399 -0.0466 -0.2939
 1253SOL    HW113618   3.697   0.940   1.883  0.8935  0.9240  0.0517
 1253SOL    HW213619   3.536   0.914   1.891  0.9336  1.4119  2.6319
 1254SOL     OW13620   2.700   7.999   1.486  0.2598 -0.1423  0.1828
 1254SOL    HW113621   2.713   7.952   1.398  2.3561 -0.6027  0.7073
 1254SOL    HW213622   2.777   8.060   1.502 -0.2561  0.1440  1.5794
 1255SOL     OW13623   2.023   1.413   1.709 -0.6215  0.2746 -0.1962
 1255SOL    HW113624   2.065   1.476   1.775 -0.3823  1.2428 -1.2574
 1255SOL    HW213625   1.959   1.353   1.757 -1.1306  1.5570  0.7792
 1256SOL     OW13626   3.318   6.003   1.204 -0.1755 -0.4107  0.0679
 1256SOL    HW113627   3.344   5.949   1.284 -2.5663 -0.1194  1.1063
 1256SOL    HW213628   3.333   6.100   1.224 -1.8426 -0.2485  0.6371
 1257SOL     OW13629   2.477   3.777   0.281 -0.1323 -0.1598  0.0856
 1257SOL    HW113630   2.549   3.846   0.272 -0.3831  0.1743  0.6506
 1257SOL    HW213631   2.484   3.712   0.205  1.0025 -0.3505  0.3334
 1258SOL     OW13632   3.006   4.424   2.379  0.1302 -0.4757  0.1665
 1258SOL    HW113633   3.082   4.489   2.388  1.4266 -1.8625 -0.7106
 1258SOL    HW213634   3.041   4.333   2.361 -1.7757 -1.0269 -0.9115
 1259SOL     OW13635   4.360   2.350   2.475 -0.0594 -0.3568 -0.6479
 1259SOL    HW113636   4.315   2.303   2.399  1.2923 -1.3505 -0.8459
 1259SOL    HW213637   4.459   2.346   2.463  0.1313  0.4282  0.6081
 1260SOL     OW13638   2.773   2.293   0.270 -0.3852 -0.0154  0.4168
 1260SOL    HW113639   2.819   2.241   0.198 -1.0053  0.5240 -0.3716
 1260SOL    HW213640   2.679   2.312   0.243 -0.4476  0.6976  1.1183
 1261SOL     OW13641   2.133   6.014   2.128 -0.3351  0.0925 -0.3855
 1261SOL    HW113642   2.192   5.935   2.110 -0.1973  0.2578 -0.6756
 1261SOL    HW213643   2.155   6.053   2.217  0.5292  0.6172 -0.8188
 1262SOL     OW13644   2.748   9.078   2.067  0.1004  0.3634 -0.1355
 1262SOL    HW113645   2.823   9.012   2.074  1.2077  1.4030 -1.8722
 1262SOL    HW213646   2.695   9.059   1.985  0.2309  1.4239 -0.4736
 1263SOL     OW13647   2.989   9.909   2.333 -0.6949 -0.3288  0.6194
 1263SOL    HW113648   3.066   9.850   2.355 -0.8471 -0.2399  1.4165
 1263SOL    HW213649   2.908   9.853   2.315 -1.0308 -0.3437  2.1309
 1264SOL     OW13650   4.495   2.046   2.397 -0.0436  0.1705  0.1726
 1264SOL    HW113651   4.403   2.009   2.389 -0.1452  0.6414 -0.8452
 1264SOL    HW213652   4.557   1.974   2.429 -0.6147 -0.3608  0.0800
 1265SOL     OW13653   4.219   1.186   1.945 -0.6340 -0.7138 -0.0050
 1265SOL    HW113654   4.170   1.132   1.878  0.5776 -0.1306 -1.3924
 1265SOL    HW213655   4.309   1.212   1.908 -0.3462  0.4360  1.4461
 1266SOL     OW13656   1.838   7.141   1.256  0.0743  0.0732  0.3513
 1266SOL    HW113657   1.840   7.184   1.346  0.5989 -0.4820  0.6088
 1266SOL    HW213658   1.895   7.058   1.257 -1.5522 -1.0800  0.0996
 1267SOL     OW13659   3.901   2.267   0.028 -0.4907 -0.0326 -0.4031
 1267SOL    HW113660   3.978   2.274  -0.036  1.2888 -0.4837  1.6272
 1267SOL    HW213661   3.858   2.177   0.019  3.1605 -2.2535  2.6599
 1268SOL     OW13662   2.454   4.585   0.187 -0.2414  0.1996  0.0782
 1268SOL    HW113663   2.387   4.632   0.243 -0.6355 -0.2374 -0.0265
 1268SOL    HW213664   2.540   4.576   0.237 -0.6629 -0.3983  0.7020
 1269SOL     OW13665   2.137   8.334   2.535 -0.3098 -0.0978 -0.3038
 1269SOL    HW113666   2.196   8.253   2.529  1.7551  1.3924 -0.6957
 1269SOL    HW213667   2.055   8.319   2.480  1.1820 -0.9936 -2.3428
 1270SOL     OW13668   2.118   7.044   1.624 -0.5367 -0.1116 -0.8267
 1270SOL    HW113669   2.074   7.012   1.708 -0.6666 -0.4403 -1.0179
 1270SOL    HW213670   2.103   6.977   1.551 -0.8917  0.4355 -1.2611
 1271SOL     OW13671   3.480   1.168   2.144 -0.5004 -0.0981 -0.5969
 1271SOL    HW113672   3.435   1.212   2.222  1.6366 -0.7239  1.0461
 1271SOL    HW213673   3.424   1.179   2.062 -1.7267  2.5093  0.5493
 1272SOL     OW13674   4.547   3.038   2.232  0.4648 -0.4760 -0.0775
 1272SOL    HW113675   4.589   2.999   2.150 -0.6856 -0.2452 -0.7890
 1272SOL    HW213676   4.448   3.025   2.228  0.3501  0.0196  1.0231
 1273SOL     OW13677   5.196   3.947   2.049 -0.2076  0.2217 -0.4333
 1273SOL    HW113678   5.224   4.015   2.117 -2.0874 -0.7308  1.3500
 1273SOL    HW213679   5.132   3.990   1.984  0.4760  0.7548 -0.7687
 1274SOL     OW13680   3.704   4.582   0.567  0.6085  0.8390 -0.0084
 1274SOL    HW113681   3.747   4.496   0.540 -1.3957  0.2380 -1.3845
 1274SOL    HW213682   3.619   4.563   0.616 -0.9358  2.0465 -2.1884
 1275SOL     OW13683   3.481   0.409   2.029 -0.6587  0.2042  0.3781
 1275SOL    HW113684   3.456   0.468   1.952 -0.4056 -0.5731 -0.3096
 1275SOL    HW213685   3.398   0.381   2.078 -0.8720  0.1930  0.0126
 1276SOL     OW13686   3.519   9.792   1.573 -0.2370 -0.1103  0.3523
 1276SOL    HW113687   3.457   9.754   1.642  1.5659 -1.7782  1.0957
 1276SOL    HW213688   3.496   9.756   1.483 -2.9949  2.5452 -0.0930
 1277SOL     OW13689   4.216   1.899   0.970 -0.0450  0.1631  0.1606
 1277SOL    HW113690   4.227   1.898   1.070  1.5624 -0.4280 -0.0099
 1277SOL    HW213691   4.306   1.896   0.927 -0.7318  0.5135 -1.3197
 1278SOL     OW13692   3.037   6.962   0.725  0.0809  0.5054 -0.0351
 1278SOL    HW113693   3.014   6.957   0.823 -0.8371 -0.5972 -0.2979
 1278SOL    HW213694   3.119   6.909   0.708  1.4278  2.3809  0.4760
 1279SOL     OW13695   2.651   9.531   0.707  0.1789  0.2853 -0.2628
 1279SOL    HW113696   2.702   9.606   0.751 -0.0025  0.3420 -0.1492
 1279SOL    HW213697   2.715   9.471   0.659  0.3492  0.3843 -0.1594
 1280SOL     OW13698   2.682   8.026   0.941  0.5310 -0.4621 -0.3636
 1280SOL    HW113699   2.764   8.051   0.992  0.5183 -1.6825  0.2696
 1280SOL    HW213700   2.708   7.992   0.851  0.9502 -3.6142  0.8940
 1281SOL     OW13701   3.345   8.868   2.340  0.0493  0.0562 -0.0323
 1281SOL    HW113702   3.426   8.922   2.362  0.1454 -0.1871  0.2143
 1281SOL    HW213703   3.263   8.913   2.376  0.0150  0.5896 -0.7672
 1282SOL     OW13704   2.203   7.375   0.514 -0.2905 -0.8653  0.3112
 1282SOL    HW113705   2.129   7.408   0.455  0.1621 -1.7406 -0.7710
 1282SOL    HW213706   2.231   7.284   0.484  1.0857 -0.6358  0.8414
 1283SOL     OW13707   3.144   8.589   1.497  0.3512 -0.0469 -0.0475
 1283SOL    HW113708   3.156   8.632   1.407 -0.5673  3.9753  1.6303
 1283SOL    HW213709   3.047   8.585   1.519  0.5822 -0.8181  0.8779
 1284SOL     OW13710   3.630   4.898   0.024  0.3297 -0.4509 -0.5139
 1284SOL    HW113711   3.632   4.842   0.106  0.2017  0.8310  0.3800
 1284SOL    HW213712   3.684   4.855  -0.048  1.0128 -1.2389  0.4693
 1285SOL     OW13713   3.044   8.134   0.405 -0.2171 -0.0848  0.3187
 1285SOL    HW113714   3.126   8.111   0.353  0.6097  0.3949  1.4098
 1285SOL    HW213715   2.975   8.172   0.342  0.2927 -0.7169 -0.6306
 1286SOL     OW13716   3.853   9.866   1.029 -0.7055  0.3557 -0.3967
 1286SOL    HW113717   3.886   9.898   1.118  0.2396  1.0559 -0.9995
 1286SOL    HW213718   3.772   9.918   1.003  2.1393  3.9210 -2.4357
 1287SOL     OW13719   4.431   5.022   0.050  0.6685  0.3048 -0.4278
 1287SOL    HW113720   4.355   4.960   0.036  1.5554 -0.8781 -0.0681
 1287SOL    HW213721   4.445   5.077  -0.033 -1.7869  1.9154  0.1998
 1288SOL     OW13722   3.261   3.165   2.470 -1.1520 -0.0062  0.1450
 1288SOL    HW113723   3.262   3.068   2.494  0.7090 -0.0823 -0.1514
 1288SOL    HW213724   3.285   3.220   2.550  0.2185  0.0303 -0.2584
 1289SOL     OW13725   2.403   9.628   0.398 -0.1789 -0.7820  0.9037
 1289SOL    HW113726   2.440   9.536   0.416  1.1169 -0.4885 -0.1658
 1289SOL    HW213727   2.474   9.696   0.414 -1.3454  0.1170  2.3840
 1290SOL     OW13728   4.571   3.507   0.925  0.2037 -0.6154  0.9084
 1290SOL    HW113729   4.491   3.461   0.887 -0.9358  1.2622  0.9817
 1290SOL    HW213730   4.555   3.529   1.021  0.5213  0.3621  0.7500
 1291SOL     OW13731   4.078   0.423   1.972 -0.1555  0.2355  0.6183
 1291SOL    HW113732   4.139   0.371   2.032 -1.0051 -0.3098  1.0208
 1291SOL    HW213733   4.132   0.489   1.919  1.0319 -1.5072 -0.4150
 1292SOL     OW13734   4.584   1.511   0.238  0.4325 -0.2430 -0.1083
 1292SOL    HW113735   4.530   1.465   0.308 -0.7418  1.4439  0.1445
 1292SOL    HW213736   4.523   1.554   0.171  1.4019  2.3519  0.6050
 1293SOL     OW13737   2.757   5.736   1.224  0.5859 -0.1693  0.0980
 1293SOL    HW113738   2.672   5.785   1.205 -0.3284 -0.8343  2.2624
 1293SOL    HW213739   2.815   5.735   1.143 -1.8025 -0.3469 -1.6244
 1294SOL     OW13740   2.453   1.695   2.460 -0.1995  0.3165  0.3087
 1294SOL    HW113741   2.551   1.718   2.467 -0.3706  0.7408  1.3958
 1294SOL    HW213742   2.421   1.717   2.368  0.9617 -0.7500 -0.3713
 1295SOL     OW13743   3.469   4.489   0.764 -0.3783 -0.3596 -0.7819
 1295SOL    HW113744   3.549   4.463   0.817 -0.7501 -0.7905 -0.4258
 1295SOL    HW213745   3.401   4.531   0.823 -0.0516  0.8535 -1.2447
 1296SOL     OW13746   4.854   3.663   2.331  0.2767 -0.2677  0.1324
 1296SOL    HW113747   4.790   3.719   2.383 -0.9201 -0.8958 -0.6329
 1296SOL    HW213748   4.837   3.566   2.350  2.5961 -0.4099  1.7643
 1297SOL     OW13749   5.167   2.698   1.788 -0.3028 -0.1444  0.7116
 1297SOL    HW113750   5.167   2.684   1.887  1.4534 -1.2166  0.5833
 1297SOL    HW213751   5.137   2.614   1.742 -2.4079  0.7624  0.3479
 1298SOL     OW13752   3.337   9.511   2.420  0.1206 -0.1142  0.0226
 1298SOL    HW113753   3.408   9.580   2.409 -0.8486  0.5952 -1.9790
 1298SOL    HW213754   3.338   9.448   2.342 -0.2851 -1.1874  0.8578
 1299SOL     OW13755   2.517   2.725   1.687  0.0294  0.6196  0.2592
 1299SOL    HW113756   2.592   2.659   1.700  0.2925  0.8836  0.0763
 1299SOL    HW213757   2.432   2.675   1.672  0.0284  0.3183  1.2500
 1300SOL     OW13758   3.555   0.657   1.385 -0.1560  0.2756 -0.3728
 1300SOL    HW113759   3.629   0.666   1.318  1.6086 -0.4917  1.4336
 1300SOL    HW213760   3.519   0.748   1.407  0.2739  0.6552 -1.2146
 1301SOL     OW13761   3.429   3.452   2.386 -0.8381 -0.0090 -0.1495
 1301SOL    HW113762   3.392   3.523   2.447 -1.5789 -0.8024  0.3350
 1301SOL    HW213763   3.353   3.406   2.339 -0.5030 -1.7548  0.9716
 1302SOL     OW13764   3.903   9.972   1.271 -0.6788  0.0137 -0.3029
 1302SOL    HW113765   3.901  10.072   1.267 -1.0348  0.0599  0.9773
 1302SOL    HW213766   3.852   9.940   1.350  0.5590 -1.1433  0.0565
 1303SOL     OW13767   3.488   0.626   2.581  0.2102  0.1670 -0.1221
 1303SOL    HW113768   3.421   0.595   2.514  0.3898 -0.6692  0.0741
 1303SOL    HW213769   3.443   0.685   2.649  0.2303  1.8109 -1.5271
 1304SOL     OW13770   2.107   1.617   1.491  0.6235  0.2899  0.7944
 1304SOL    HW113771   2.029   1.585   1.544  0.8024  1.1027  1.5652
 1304SOL    HW213772   2.177   1.654   1.553  0.8635  1.1750  0.0153
 1305SOL     OW13773   2.065   7.840   2.141 -0.2578 -0.2924  0.3075
 1305SOL    HW113774   2.033   7.867   2.050 -0.7177  0.1930  0.6147
 1305SOL    HW213775   2.096   7.920   2.191 -0.4216 -0.5033  0.7486
 1306SOL     OW13776   2.619   3.223   0.074  0.0219  0.2180 -0.0125
 1306SOL    HW113777   2.669   3.308   0.089 -0.3111  0.2502  0.9556
 1306SOL    HW213778   2.542   3.240   0.012  0.5469  0.4070 -0.6126
 1307SOL     OW13779   3.959   1.236   0.626  0.5930  0.2454 -0.0725
 1307SOL    HW113780   3.960   1.183   0.541  1.9318  1.5982 -0.9130
 1307SOL    HW213781   4.020   1.194   0.693 -0.1028 -0.5570  0.0617
 1308SOL     OW13782   3.930   2.460   0.610  0.0255 -0.2621  0.7968
 1308SOL    HW113783   3.898   2.369   0.585  0.4208 -0.3655  0.6628
 1308SOL    HW213784   3.862   2.528   0.583  0.0717 -0.4473  0.2056
 1309SOL     OW13785   2.588   0.705   2.445 -0.0625  0.4095  0.1739
 1309SOL    HW113786   2.498   0.709   2.402 -0.6866 -0.3115  1.3666
 1309SOL    HW213787   2.593   0.772   2.519 -0.0146 -0.3097  0.8275
 1310SOL     OW13788   2.596   5.201   2.247  0.1175  0.2047 -0.3282
 1310SOL    HW113789   2.512   5.192   2.193 -1.7480 -1.3636  2.7145
 1310SOL    HW213790   2.605   5.296   2.277 -0.9357  0.2475 -0.1160
 1311SOL     OW13791   3.002   6.938   0.444 -0.5842  0.3207 -0.4152
 1311SOL    HW113792   3.004   6.843   0.476 -1.0734  0.7824  0.9937
 1311SOL    HW213793   2.996   7.000   0.522 -1.2303  1.4841 -1.3673
 1312SOL     OW13794   2.478   1.584   0.192  0.1500 -0.8569 -0.4364
 1312SOL    HW113795   2.569   1.552   0.165  0.7430  0.6754 -0.2860
 1312SOL    HW213796   2.417   1.580   0.113  0.9787  0.3491 -1.1604
 1313SOL     OW13797   2.900   3.582   2.136  0.7140  0.5340  0.4725
 1313SOL    HW113798   2.848   3.510   2.182  0.5793  0.0785 -0.3917
 1313SOL    HW213799   2.838   3.651   2.101  0.6879 -0.0060 -0.5529
 1314SOL     OW13800   3.261   0.196   0.213 -0.1649  0.0420  0.3189
 1314SOL    HW113801   3.330   0.124   0.219 -2.0325 -1.7221  1.3671
 1314SOL    HW213802   3.257   0.246   0.300  1.3789  1.6961 -0.5262
 1315SOL     OW13803   2.845   0.866   2.307  0.2525 -0.2177 -0.1095
 1315SOL    HW113804   2.944   0.861   2.315  0.2673  0.0918 -0.0713
 1315SOL    HW213805   2.808   0.775   2.288  0.7062 -0.0622 -1.8929
 1316SOL     OW13806   4.232   4.119   0.923  0.2237  0.0933 -0.6899
 1316SOL    HW113807   4.195   4.129   1.015 -1.3956 -1.2797 -1.1913
 1316SOL    HW213808   4.290   4.038   0.919  1.4084  0.9109 -0.5426
 1317SOL     OW13809   2.407   4.766   0.853  0.0297  0.2490  0.0906
 1317SOL    HW113810   2.326   4.822   0.866 -0.6215 -0.5585 -0.4196
 1317SOL    HW213811   2.399   4.682   0.907  0.6319  0.2759  0.2270
 1318SOL     OW13812   2.187   8.573   2.184  0.0693 -0.0606 -0.4630
 1318SOL    HW113813   2.179   8.546   2.089  1.1470  1.0732 -0.8829
 1318SOL    HW213814   2.240   8.658   2.191 -2.0798  1.2358  0.9192
 1319SOL     OW13815   2.542   1.444   1.200  0.2170 -0.0012 -0.1357
 1319SOL    HW113816   2.530   1.384   1.121  2.3369 -0.8639  0.1460
 1319SOL    HW213817   2.454   1.457   1.246 -0.3465 -2.8092 -0.2973
 1320SOL     OW13818   2.135   4.840   1.135  0.0203  0.7193 -0.7141
 1320SOL    HW113819   2.090   4.752   1.151  1.4774  0.1735  0.4957
 1320SOL    HW213820   2.135   4.860   1.037  1.1303 -1.4484 -1.2005
 1321SOL     OW13821   2.989   9.697   0.494 -0.3962  0.0610 -0.3498
 1321SOL    HW113822   3.006   9.771   0.429 -1.2339  1.4677  1.0001
 1321SOL    HW213823   3.071   9.680   0.548 -0.6447  1.0500  0.3588
 1322SOL     OW13824   3.043   9.903   1.912  0.2950 -0.3625  0.2360
 1322SOL    HW113825   2.974   9.892   1.840  0.9405  0.5173 -0.5289
 1322SOL    HW213826   3.056   9.816   1.958 -2.2493 -0.2729  1.2439
 1323SOL     OW13827   3.797   7.948   1.521  0.2484  0.0627  0.6224
 1323SOL    HW113828   3.708   7.931   1.563 -0.6542 -0.9411 -1.6179
 1323SOL    HW213829   3.810   8.046   1.509 -0.4245  0.2290  1.2524
 1324SOL     OW13830   4.591   1.679   0.901 -0.2828  0.2149 -0.2148
 1324SOL    HW113831   4.662   1.742   0.931 -0.8690  1.0417 -0.5446
 1324SOL    HW213832   4.625   1.624   0.824 -0.3060  1.2615 -0.9906
 1325SOL     OW13833   4.009   3.110   2.378  0.0954  0.3136 -0.2269
 1325SOL    HW113834   4.032   3.206   2.391  1.0901 -0.1237  1.3828
 1325SOL    HW213835   3.932   3.102   2.315 -0.9511  2.2307  0.7923
 1326SOL     OW13836   2.580   4.491   1.851 -0.2371  0.1169  0.3890
 1326SOL    HW113837   2.621   4.517   1.939  0.6572 -0.0110  0.0143
 1326SOL    HW213838   2.642   4.516   1.777 -1.3041  0.8921 -0.2656
 1327SOL     OW13839   1.952   9.995   1.299  0.2945  0.3759  0.0851
 1327SOL    HW113840   2.006   9.915   1.324 -1.0142 -0.7574 -0.6573
 1327SOL    HW213841   1.857   9.968   1.282  0.0729  1.8918 -1.2706
 1328SOL     OW13842   2.109   7.397   1.066  0.2225 -0.2035  0.0139
 1328SOL    HW113843   2.133   7.323   1.128 -0.4461  0.0277  0.5568
 1328SOL    HW213844   2.009   7.401   1.057  0.2685  0.4790 -0.1968
 1329SOL     OW13845   3.711   4.344   0.868 -0.3091 -0.0357  0.1323
 1329SOL    HW113846   3.809   4.355   0.851 -1.0982  2.0281 -3.7051
 1329SOL    HW213847   3.684   4.404   0.943  1.2239 -0.0123  0.6915
 1330SOL     OW13848   2.932   8.374   0.718 -0.1275 -0.5768 -0.2270
 1330SOL    HW113849   2.837   8.399   0.700 -0.7466 -0.6709  2.6556
 1330SOL    HW213850   2.978   8.351   0.632 -2.8120 -0.9191 -1.6021
 1331SOL     OW13851   2.567   8.245   1.847  0.3669 -0.2533 -0.3895
 1331SOL    HW113852   2.556   8.200   1.936 -0.0590  0.5803 -0.0168
 1331SOL    HW213853   2.494   8.216   1.786 -0.5740  0.7948  0.2158
 1332SOL     OW13854   4.331   4.088   1.916 -0.4747 -0.2054  0.3695
 1332SOL    HW113855   4.374   4.122   1.999  1.5050 -0.2544 -0.6038
 1332SOL    HW213856   4.300   3.994   1.931 -1.7476  0.4017  1.6012
 1333SOL     OW13857   3.319   1.102   0.604  0.3549  0.0140 -0.1212
 1333SOL    HW113858   3.319   1.154   0.519 -0.1750 -1.8404 -1.2864
 1333SOL    HW213859   3.349   1.008   0.585  0.2798 -0.3983  1.7447
 1334SOL     OW13860   3.281   7.456   0.889 -0.2196  0.0433 -0.0761
 1334SOL    HW113861   3.348   7.530   0.893  1.3095 -1.3760  2.1485
 1334SOL    HW213862   3.294   7.404   0.804  1.4080 -0.0724  0.2165
 1335SOL     OW13863   2.057   1.038   1.894 -0.3824 -0.2102 -0.0245
 1335SOL    HW113864   2.147   1.073   1.868  0.6075 -1.1558  2.0308
 1335SOL    HW213865   2.065   0.980   1.975 -3.3732  2.9819  2.7470
 1336SOL     OW13866   3.161   7.110   1.645 -0.1992 -0.0005  0.2499
 1336SOL    HW113867   3.179   7.186   1.584 -1.3870 -0.2323 -0.4080
 1336SOL    HW213868   3.174   7.023   1.597  2.3387 -0.2703  1.3288
 1337SOL     OW13869   2.813   9.111   0.361 -0.0979  0.0375 -0.4546
 1337SOL    HW113870   2.892   9.160   0.324 -0.3091 -1.0132 -2.3527
 1337SOL    HW213871   2.733   9.171   0.359  0.2319  0.4852 -0.3046
 1338SOL     OW13872   4.800   2.563   0.683  0.1780 -0.1549 -0.1977
 1338SOL    HW113873   4.736   2.581   0.758  0.0115 -0.1720 -0.3349
 1338SOL    HW213874   4.874   2.503   0.716  0.4842  0.4011  0.1329
 1339SOL     OW13875   2.868   1.223   0.555  0.3748  0.2924 -0.0287
 1339SOL    HW113876   2.881   1.224   0.654  0.5790  1.6534 -0.0614
 1339SOL    HW213877   2.956   1.228   0.509  0.2026  1.5022 -0.2614
 1340SOL     OW13878   2.601   5.131   1.551 -0.0438 -0.0707 -0.0038
 1340SOL    HW113879   2.507   5.163   1.559  0.1947  0.2928  1.5175
 1340SOL    HW213880   2.601   5.032   1.534 -0.7019 -0.2927  1.1972
 1341SOL     OW13881   2.764   2.642   1.339  0.5567 -0.5088 -0.0066
 1341SOL    HW113882   2.848   2.650   1.392  0.1289 -1.2734  0.7858
 1341SOL    HW213883   2.710   2.725   1.350  0.2004 -0.9050  1.2077
 1342SOL     OW13884   3.891   8.496   1.121 -0.0399  0.3624  0.5784
 1342SOL    HW113885   3.844   8.558   1.059 -0.1961  1.9754  2.2544
 1342SOL    HW213886   3.986   8.526   1.133  0.5635 -1.1049 -0.4262
 1343SOL     OW13887   2.192   7.212   1.251 -0.1568  0.1749 -0.4055
 1343SOL    HW113888   2.165   7.120   1.224  1.5239 -0.0760 -1.3005
 1343SOL    HW213889   2.194   7.218   1.351 -0.5399 -0.6787 -0.3434
 1344SOL     OW13890   2.146   0.837   0.477  0.4477  0.2997  0.0065
 1344SOL    HW113891   2.170   0.835   0.380 -0.0394 -0.8752 -0.0929
 1344SOL    HW213892   2.115   0.929   0.501  1.3074  0.7990 -0.7724
 1345SOL     OW13893   2.468   1.279   2.395  0.2875  0.0356 -0.2555
 1345SOL    HW113894   2.437   1.342   2.466  0.3996 -0.1403 -0.0497
 1345SOL    HW213895   2.495   1.331   2.314 -2.6992  0.0624 -1.2833
 1346SOL     OW13896   2.962   7.785   2.347  0.2576 -0.2422 -0.4188
 1346SOL    HW113897   2.988   7.690   2.361 -0.6826 -0.4925 -0.3348
 1346SOL    HW213898   2.889   7.791   2.279  1.7130  0.6001 -1.9444
 1347SOL     OW13899   3.435   3.919   2.523  0.3486  0.0416 -0.3301
 1347SOL    HW113900   3.532   3.901   2.539  0.2346 -0.0437  0.2440
 1347SOL    HW213901   3.415   4.015   2.542 -0.2587 -0.5774  2.2683
 1348SOL     OW13902   2.999  10.145   0.543 -0.1274  0.1682 -0.0192
 1348SOL    HW113903   3.001  10.232   0.495 -0.9177 -0.4174 -1.1249
 1348SOL    HW213904   2.964  10.074   0.482 -0.8394 -0.6435  1.3153
 1349SOL     OW13905   3.152   9.113   0.231  0.4043  0.0002 -0.0985
 1349SOL    HW113906   3.128   9.103   0.135 -0.6315  0.7114  0.0795
 1349SOL    HW213907   3.252   9.105   0.241  0.6642  1.3128 -1.4197
 1350SOL     OW13908   4.598   3.509   2.265 -0.5329  0.0345  0.5551
 1350SOL    HW113909   4.690   3.474   2.282 -0.5877 -1.1712 -1.4881
 1350SOL    HW213910   4.541   3.496   2.346 -0.0630 -3.0836  0.4263
 1351SOL     OW13911   4.477   4.135  -0.087  0.2715  0.5462 -0.1181
 1351SOL    HW113912   4.569   4.174  -0.086  1.0735 -1.2202 -1.6673
 1351SOL    HW213913   4.478   4.047  -0.039 -0.7330  0.7516  0.2955
 1352SOL     OW13914   2.889   1.247   0.167  0.0221  0.1176 -0.2620
 1352SOL    HW113915   2.899   1.177   0.237  1.8519 -0.2448 -0.8783
 1352SOL    HW213916   2.900   1.207   0.076 -0.2241  0.9625 -0.6765
 1353SOL     OW13917   3.095   2.553   2.124  0.1354  0.2260 -0.0825
 1353SOL    HW113918   3.160   2.478   2.141 -0.1682 -0.0924 -0.3206
 1353SOL    HW213919   3.036   2.529   2.047 -0.1835  0.5703  0.0548
 1354SOL     OW13920   3.998   9.335   1.808 -0.3403  0.7337 -0.0472
 1354SOL    HW113921   4.052   9.408   1.850  0.3157  0.9549 -1.2611
 1354SOL    HW213922   3.951   9.371   1.727  1.3220 -0.6014 -1.6316
 1355SOL     OW13923   3.664   4.010  -0.007 -0.5974 -0.7891  0.5297
 1355SOL    HW113924   3.652   3.963   0.080  0.9415  1.8894  2.2558
 1355SOL    HW213925   3.614   4.096  -0.006  0.3493 -0.2045 -0.8205
 1356SOL     OW13926   2.761   5.104   0.322  0.3676 -0.0132 -0.1202
 1356SOL    HW113927   2.809   5.076   0.405  1.5049 -0.0210 -0.7619
 1356SOL    HW213928   2.722   5.023   0.278 -1.1985  0.1267  0.9791
 1357SOL     OW13929   3.593   1.463   1.719 -0.1844 -0.0225  0.3968
 1357SOL    HW113930   3.688   1.473   1.749 -0.3544  1.6054  0.4120
 1357SOL    HW213931   3.537   1.434   1.796  0.5397 -2.4874  0.0439
 1358SOL     OW13932   3.580   7.682   0.283 -0.3054 -0.4644  0.2723
 1358SOL    HW113933   3.585   7.614   0.356 -0.8829 -1.4893 -0.6209
 1358SOL    HW213934   3.499   7.665   0.227 -1.4547  2.0860  1.1159
 1359SOL     OW13935   5.088   3.486   1.259 -0.9524 -0.1956 -0.5344
 1359SOL    HW113936   5.127   3.530   1.178 -0.8811  1.1087  0.1896
 1359SOL    HW213937   5.001   3.444   1.235 -0.7425 -0.1725 -1.3782
 1360SOL     OW13938   2.334   6.720   2.268 -0.2279  0.1264 -0.5160
 1360SOL    HW113939   2.321   6.632   2.312  0.3305 -0.0400 -0.6764
 1360SOL    HW213940   2.289   6.719   2.178  0.7617 -0.4112 -1.0251
 1361SOL     OW13941   3.541   9.158   2.375  0.4398 -0.2122  0.4318
 1361SOL    HW113942   3.468   9.147   2.442  0.9544  1.3603  1.2745
 1361SOL    HW213943   3.588   9.245   2.391  1.1003 -0.2011 -1.4574
 1362SOL     OW13944   4.064   2.288   1.381 -0.2461  0.0411  0.0127
 1362SOL    HW113945   4.016   2.202   1.394 -1.4695  0.5678 -0.9085
 1362SOL    HW213946   4.111   2.287   1.292 -0.3412  0.3580 -0.0419
 1363SOL     OW13947   2.639   0.340   1.121 -0.0361  0.0453 -0.9614
 1363SOL    HW113948   2.706   0.271   1.149  0.5642  1.2598  0.6438
 1363SOL    HW213949   2.568   0.349   1.191 -1.0027 -0.0520 -1.8984
 1364SOL     OW13950   4.126   5.259   1.511 -0.1929  0.2085 -0.3859
 1364SOL    HW113951   4.165   5.350   1.502  1.1542 -0.4481 -1.3504
 1364SOL    HW213952   4.199   5.191   1.510 -1.3026 -1.0041 -1.6721
 1365SOL     OW13953   2.894   1.788   1.428 -0.3589 -0.0421  0.3487
 1365SOL    HW113954   2.917   1.833   1.515 -2.0584  0.5945  0.5040
 1365SOL    HW213955   2.881   1.858   1.357 -1.3197 -0.3854  0.1756
 1366SOL     OW13956   2.507   3.102   2.206 -0.5868 -0.0261  0.1614
 1366SOL    HW113957   2.596   3.102   2.251 -1.6214 -1.0016  2.2984
 1366SOL    HW213958   2.510   3.161   2.125  1.4999  1.3088  1.1706
 1367SOL     OW13959   3.068   2.603   1.444  0.4236  0.2949 -0.1089
 1367SOL    HW113960   3.137   2.540   1.409  2.6307  1.3821  2.1420
 1367SOL    HW213961   3.072   2.690   1.394 -0.5809 -0.2715 -1.1952
 1368SOL     OW13962   4.020   9.805   2.090 -0.2822  0.7090 -0.0331
 1368SOL    HW113963   4.035   9.897   2.056  0.6951  0.6896  0.2995
 1368SOL    HW213964   3.922   9.785   2.094 -0.4278  0.8488 -2.4051
 1369SOL     OW13965   3.215   2.162   0.626 -1.0922  0.2265 -0.3701
 1369SOL    HW113966   3.207   2.086   0.562 -0.1638 -0.8254  0.7219
 1369SOL    HW213967   3.188   2.132   0.718 -1.0754  1.3079  0.0001
 1370SOL     OW13968   2.965   2.706  -0.084 -0.0688 -0.5507  0.3319
 1370SOL    HW113969   2.990   2.619  -0.043  0.5101 -0.8559 -0.6455
 1370SOL    HW213970   2.987   2.705  -0.182 -0.5978  0.4768  0.1857
 1371SOL     OW13971   4.357   3.554   0.254 -0.2245  0.1259 -0.0653
 1371SOL    HW113972   4.352   3.653   0.268 -1.6124  0.0108  0.3189
 1371SOL    HW213973   4.447   3.521   0.282  0.5299  1.3805 -0.9189
 1372SOL     OW13974   2.258   2.264   0.599  0.0972 -0.2632 -0.0532
 1372SOL    HW113975   2.196   2.246   0.522  0.5618 -0.0287 -0.4842
 1372SOL    HW213976   2.337   2.316   0.567  0.8049 -1.0436  0.3815
 1373SOL     OW13977   2.790   9.896   1.028  0.0054  0.2514 -0.1462
 1373SOL    HW113978   2.716   9.829   1.021  0.9085 -0.8492  0.5205
 1373SOL    HW213979   2.793   9.952   0.945  0.7444 -2.1601 -1.8279
 1374SOL     OW13980   4.096   2.213   2.557 -0.2449 -0.0067  0.0827
 1374SOL    HW113981   4.169   2.152   2.588 -0.0415 -0.2682 -0.8979
 1374SOL    HW213982   4.106   2.230   2.459 -1.1556  0.4331  0.0614
 1375SOL     OW13983   2.100   4.251   0.770 -0.2778 -0.9272  0.4946
 1375SOL    HW113984   2.123   4.335   0.722 -0.3718 -1.0544  0.2238
 1375SOL    HW213985   2.082   4.178   0.703 -0.8777 -0.9840  0.7159
 1376SOL     OW13986   2.678   7.823   0.707  0.2434 -0.3835 -0.4514
 1376SOL    HW113987   2.661   7.745   0.768  0.6966 -1.1429 -1.3028
 1376SOL    HW213988   2.759   7.806   0.652  1.4179  1.4829  0.6539
 1377SOL     OW13989   2.683   7.766   0.320  0.4140 -0.5118 -0.1858
 1377SOL    HW113990   2.615   7.803   0.384 -0.0606 -0.9555 -0.4310
 1377SOL    HW213991   2.718   7.840   0.263 -0.6430 -0.4478 -0.7713
 1378SOL     OW13992   3.551   3.325   1.257 -0.2619 -0.3984 -0.0116
 1378SOL    HW113993   3.628   3.344   1.197  0.0882  0.7578  0.7948
 1378SOL    HW213994   3.556   3.231   1.289 -0.5140 -1.0736 -1.8720
 1379SOL     OW13995   1.972   7.462   0.367  0.0889 -0.0350  0.2340
 1379SOL    HW113996   1.905   7.510   0.424  1.3762  2.3148 -0.1745
 1379SOL    HW213997   1.989   7.514   0.284  1.7757 -1.0442 -0.0764
 1380SOL     OW13998   3.803   0.712   0.461  0.0387  0.0056 -0.0183
 1380SOL    HW113999   3.878   0.722   0.395 -0.8277  0.3417 -0.9515
 1380SOL    HW214000   3.823   0.634   0.521  1.3422  0.3474  0.0275
 1381SOL     OW14001   2.878   8.129   2.178 -0.2029  0.1054  0.1127
 1381SOL    HW114002   2.973   8.112   2.204 -0.8688 -1.5924  1.5371
 1381SOL    HW214003   2.875   8.179   2.092  1.9936  1.0518  0.5650
 1382SOL     OW14004   2.471   3.645   0.921 -0.2353  0.5559 -0.5705
 1382SOL    HW114005   2.403   3.591   0.872  1.5871 -1.6105 -0.7566
 1382SOL    HW214006   2.524   3.699   0.856 -0.1601  0.3703 -0.6648
 1383SOL     OW14007   2.646   5.473   1.022 -0.4306  0.6254 -0.3522
 1383SOL    HW114008   2.730   5.510   0.982  1.3459 -0.1615  2.5116
 1383SOL    HW214009   2.575   5.544   1.020  0.6867  1.7477 -1.5950
 1384SOL     OW14010   2.856   8.644   0.851  0.0218  0.1959  0.1035
 1384SOL    HW114011   2.818   8.569   0.797 -1.7501  0.3109  1.1288
 1384SOL    HW214012   2.781   8.696   0.892  1.2966  0.9034  1.5969
 1385SOL     OW14013   2.321   6.965   2.552  0.1300 -0.2782 -0.6047
 1385SOL    HW114014   2.341   6.936   2.646 -0.5108 -0.0992 -0.4059
 1385SOL    HW214015   2.231   6.930   2.526  0.1889 -0.0924 -1.0530
 1386SOL     OW14016   2.745   9.267   1.062  0.1863  0.0675  0.1388
 1386SOL    HW114017   2.840   9.279   1.089  1.1637 -0.5453 -2.8086
 1386SOL    HW214018   2.735   9.182   1.010 -1.9220  0.2565  0.1610
 1387SOL     OW14019   2.739   2.525   1.679 -0.3167  0.1377 -0.3608
 1387SOL    HW114020   2.743   2.437   1.632  0.5661  0.5085 -0.9937
 1387SOL    HW214021   2.830   2.565   1.681 -0.4239  0.3222  1.3031
 1388SOL     OW14022   4.818   2.116   2.594 -0.0134  0.0021 -0.0530
 1388SOL    HW114023   4.906   2.079   2.626  0.9577  1.4130 -1.0139
 1388SOL    HW214024   4.773   2.164   2.669  1.1574  1.2830 -0.1400
 1389SOL     OW14025   4.262   1.249   0.246 -0.5341 -0.0854  0.1382
 1389SOL    HW114026   4.338   1.298   0.288 -2.0267  2.2266  0.2578
 1389SOL    HW214027   4.249   1.281   0.152 -0.7687 -1.1523 -0.2007
 1390SOL     OW14028   2.755   2.310   1.374  0.4153  0.2386  0.7436
 1390SOL    HW114029   2.764   2.392   1.318 -2.4032 -0.7509 -1.2478
 1390SOL    HW214030   2.845   2.270   1.390  1.5627  2.3193 -0.3717
 1391SOL     OW14031   4.234   4.663   0.978  0.9050  0.3096 -0.1038
 1391SOL    HW114032   4.168   4.733   0.949 -1.3442 -1.0798  1.5280
 1391SOL    HW214033   4.284   4.630   0.898  0.1971  1.9554 -1.2623
 1392SOL     OW14034   4.844   4.089   0.604  0.3446  0.1463  0.4752
 1392SOL    HW114035   4.795   4.006   0.576  1.4465  0.0694 -1.3000
 1392SOL    HW214036   4.847   4.093   0.704 -0.3920 -1.5463  0.6003
 1393SOL     OW14037   2.427   1.901   1.482  0.3102 -0.1020 -0.6140
 1393SOL    HW114038   2.477   1.844   1.416  0.2086 -1.0922  0.1425
 1393SOL    HW214039   2.438   1.997   1.458  0.2877 -0.4438 -2.0601
 1394SOL     OW14040   2.864   3.356   0.442  0.2485  0.1505 -0.0368
 1394SOL    HW114041   2.846   3.257   0.440  0.3527  0.1433 -1.4072
 1394SOL    HW214042   2.891   3.383   0.534  0.6620 -1.1800  0.2488
 1395SOL     OW14043   2.709   2.166   1.141  0.2683  0.1260 -0.3736
 1395SOL    HW114044   2.721   2.224   1.222 -0.7126 -0.2780  0.0732
 1395SOL    HW214045   2.619   2.122   1.144  0.7535 -0.9465 -1.0161
 1396SOL     OW14046   3.240   9.515   1.657  0.2546 -0.0882  0.0917
 1396SOL    HW114047   3.165   9.527   1.592 -0.4991 -0.6173  0.8345
 1396SOL    HW214048   3.278   9.604   1.682 -0.5586  0.2389  0.1867
 1397SOL     OW14049   2.156   9.006   2.209  0.3058  0.0530  0.5948
 1397SOL    HW114050   2.087   9.058   2.258 -1.6688  0.5350 -2.5289
 1397SOL    HW214051   2.200   9.064   2.141  1.5601 -1.0787  0.4138
 1398SOL     OW14052   2.202   7.601   2.217  0.7832 -0.1225 -0.1849
 1398SOL    HW114053   2.162   7.687   2.186  1.7141  0.0968 -0.8045
 1398SOL    HW214054   2.302   7.607   2.214  0.8735 -0.7007  1.2442
 1399SOL     OW14055   2.438   1.077   0.064 -0.2006 -0.1225  0.0749
 1399SOL    HW114056   2.528   1.057   0.102  0.7495  0.2030 -1.9124
 1399SOL    HW214057   2.398   1.155   0.112 -0.0869 -1.1859  1.9507
 1400SOL     OW14058   2.694   7.111   0.524 -0.2141  0.2911  0.2055
 1400SOL    HW114059   2.634   7.191   0.529 -0.4650  0.1247 -0.1204
 1400SOL    HW214060   2.740   7.108   0.436  1.2843  1.1289  0.9353
 1401SOL     OW14061   2.190   3.956  -0.044  0.0008 -0.6143  0.1421
 1401SOL    HW114062   2.277   3.957   0.006  0.2613 -0.1163 -0.3173
 1401SOL    HW214063   2.123   3.902   0.007  0.6779 -1.2797  0.3375
 1402SOL     OW14064   4.277   1.342   0.891 -0.6795  0.0095  0.1326
 1402SOL    HW114065   4.324   1.393   0.963  1.5920  1.0100 -1.9950
 1402SOL    HW214066   4.289   1.389   0.803 -0.3040 -3.0350 -1.5282
 1403SOL     OW14067   2.687   9.992   1.423  0.1538  0.2956 -0.6031
 1403SOL    HW114068   2.601   9.978   1.472  1.6393 -1.8929  1.4862
 1403SOL    HW214069   2.758  10.020   1.487  1.3310  0.8080 -2.1024
 1404SOL     OW14070   1.987   8.212   0.777  0.5437 -0.3020  0.1881
 1404SOL    HW114071   2.066   8.151   0.778  0.4435 -0.4324 -0.0127
 1404SOL    HW214072   1.932   8.195   0.695 -0.2677 -0.9385  0.8616
 1405SOL     OW14073   4.429   4.762   1.162  0.7281 -0.1275 -0.1988
 1405SOL    HW114074   4.375   4.731   1.083  1.3324  0.2302 -0.7590
 1405SOL    HW214075   4.525   4.742   1.145  1.1190  1.9141 -0.4966
 1406SOL     OW14076   3.827   9.795   0.445 -0.5210  0.1902  0.0814
 1406SOL    HW114077   3.924   9.807   0.427 -0.4954  0.0711  0.1362
 1406SOL    HW214078   3.773   9.829   0.368 -0.4102 -0.5066 -0.3146
 1407SOL     OW14079   1.755   8.243   1.163 -0.4472 -0.1156  1.0286
 1407SOL    HW114080   1.853   8.241   1.142 -0.8407  1.3227 -1.0745
 1407SOL    HW214081   1.721   8.150   1.172  1.1142 -0.6279  1.8771
 1408SOL     OW14082   2.149   7.367   2.421 -0.0169  0.3904  0.4278
 1408SOL    HW114083   2.127   7.440   2.357  0.7977  0.1607 -0.1161
 1408SOL    HW214084   2.194   7.406   2.502  1.2308  0.3802 -0.2642
 1409SOL     OW14085   4.607   2.303   2.469 -0.5866 -0.0919  0.7289
 1409SOL    HW114086   4.697   2.345   2.480 -0.2183 -0.8351  0.5753
 1409SOL    HW214087   4.618   2.205   2.453 -1.3406  0.1183 -1.1793
 1410SOL     OW14088   2.311   4.041   0.793 -0.4507 -0.5606 -0.1138
 1410SOL    HW114089   2.381   4.044   0.721  1.1004 -0.0216  1.4034
 1410SOL    HW214090   2.287   4.134   0.819  0.8431 -0.7455  1.8278
 1411SOL     OW14091   3.922  10.178   2.024  0.0689  0.6237 -0.2737
 1411SOL    HW114092   3.829  10.189   2.058 -0.0529  0.7343 -0.6414
 1411SOL    HW214093   3.959  10.267   1.999  0.4458  0.6376  0.3187
 1412SOL     OW14094   4.981   2.281   0.204  0.1624 -0.5195  0.2405
 1412SOL    HW114095   4.902   2.332   0.238  0.2301  2.5616 -3.8543
 1412SOL    HW214096   5.065   2.322   0.239  0.1003 -0.0038 -0.2030
 1413SOL     OW14097   4.277   8.825   0.566  0.2933 -0.3329  0.0253
 1413SOL    HW114098   4.222   8.871   0.496 -0.3051  0.8893  1.2761
 1413SOL    HW214099   4.352   8.776   0.522 -0.9096 -0.7727 -1.5828
 1414SOL     OW14100   2.786   6.607   0.421  0.4825  0.4724  0.3155
 1414SOL    HW114101   2.747   6.688   0.466 -1.9963 -0.5882  0.1678
 1414SOL    HW214102   2.798   6.534   0.489  1.2638  0.4487  0.1545
 1415SOL     OW14103   2.206   8.189   2.064 -0.1452  0.0559  0.1466
 1415SOL    HW114104   2.302   8.201   2.090  0.4586 -2.0833 -0.9650
 1415SOL    HW214105   2.177   8.267   2.008  0.9903  0.6519  0.3669
 1416SOL     OW14106   3.560   1.368   2.412 -0.4289  0.6186 -0.7793
 1416SOL    HW114107   3.588   1.389   2.505  0.3673  0.5413 -1.0020
 1416SOL    HW214108   3.485   1.301   2.414  0.5331 -0.4472 -0.2468
 1417SOL     OW14109   3.342   6.003   0.928 -0.3287 -0.0896  0.0147
 1417SOL    HW114110   3.322   6.023   1.024  2.5275  1.4695  0.3448
 1417SOL    HW214111   3.413   5.932   0.924 -0.1170  0.1780 -0.9361
 1418SOL     OW14112   2.562   8.737   0.521 -0.6484  0.4023 -0.2343
 1418SOL    HW114113   2.524   8.716   0.431 -0.7196 -1.7291  0.2488
 1418SOL    HW214114   2.657   8.767   0.512 -0.3038 -0.8716 -0.9450
 1419SOL     OW14115   4.346   4.190   2.362  0.1277  0.2606 -0.3789
 1419SOL    HW114116   4.398   4.168   2.445 -0.2642 -1.9711 -0.7102
 1419SOL    HW214117   4.256   4.225   2.388 -0.6078 -1.9489  0.1704
 1420SOL     OW14118   1.718   8.469   1.357  0.6022 -0.0737 -0.2923
 1420SOL    HW114119   1.716   8.540   1.287 -2.3705 -0.7787 -0.9603
 1420SOL    HW214120   1.725   8.379   1.314 -1.0463 -0.5008  0.3150
 1421SOL     OW14121   3.444   3.404   1.601 -0.1220 -0.1160 -0.1569
 1421SOL    HW114122   3.470   3.409   1.698  0.8482  0.9615 -0.4664
 1421SOL    HW214123   3.442   3.308   1.572  1.2790 -0.3432  0.4752
 1422SOL     OW14124   3.818   2.486   1.273 -0.0830 -0.4406 -0.2784
 1422SOL    HW114125   3.816   2.513   1.369 -1.0980 -1.6938  0.0710
 1422SOL    HW214126   3.905   2.441   1.253  0.2485  0.0825 -0.0284
 1423SOL     OW14127   3.203   4.073   1.518 -0.3760 -0.1635  0.1998
 1423SOL    HW114128   3.137   4.121   1.575  0.2089  0.0946  0.6682
 1423SOL    HW214129   3.277   4.135   1.492  0.6681 -0.9374  1.2514
 1424SOL     OW14130   4.833   2.754   2.111  0.0187 -0.0872  0.7984
 1424SOL    HW114131   4.920   2.765   2.062  0.4645 -2.3947  1.0502
 1424SOL    HW214132   4.849   2.749   2.209 -0.6175  1.5016  1.0149
 1425SOL     OW14133   3.346   7.986   1.005  0.3807  0.2468  0.0727
 1425SOL    HW114134   3.423   7.932   0.972  1.8880  1.2809  1.7849
 1425SOL    HW214135   3.372   8.082   1.007 -1.3942  0.7463 -0.4920
 1426SOL     OW14136   5.023   4.689   0.465 -0.1415  0.0204 -0.4634
 1426SOL    HW114137   5.114   4.650   0.478 -0.4878 -0.7330 -0.2944
 1426SOL    HW214138   5.015   4.725   0.372  1.0980  2.1357  0.2175
 1427SOL     OW14139   2.909   6.994   1.504  0.2921 -0.3068  0.3257
 1427SOL    HW114140   2.916   6.900   1.537 -0.1170  0.5158  2.8558
 1427SOL    HW214141   2.872   7.052   1.577 -1.9122  1.3501 -2.0605
 1428SOL     OW14142   4.530   1.940   0.260  0.7633 -0.2021  0.0944
 1428SOL    HW114143   4.623   1.906   0.276  0.5937 -0.9625 -0.4928
 1428SOL    HW214144   4.477   1.934   0.344  0.6295 -1.7367 -0.0939
 1429SOL     OW14145   2.313   2.520   1.691  0.0502  0.3678  0.3269
 1429SOL    HW114146   2.374   2.444   1.667 -0.0819  0.2958  0.2180
 1429SOL    HW214147   2.280   2.564   1.607  1.7453  1.8402  0.4117
 1430SOL     OW14148   4.685   2.109   1.838  0.3456  0.3292  0.2304
 1430SOL    HW114149   4.631   2.171   1.895 -0.0895 -0.5272  0.7575
 1430SOL    HW214150   4.696   2.022   1.885  0.7337 -0.0851 -0.6193
 1431SOL     OW14151   2.675   9.991  -0.013  0.0618 -0.6482 -0.3145
 1431SOL    HW114152   2.699   9.929   0.062  1.9209  1.8040  1.1986
 1431SOL    HW214153   2.758  10.021  -0.060 -0.2275  4.5046  2.1422
 1432SOL     OW14154   2.254   2.565   2.218  0.4074 -0.2228 -0.1195
 1432SOL    HW114155   2.203   2.565   2.132 -1.7223  1.0782  1.0866
 1432SOL    HW214156   2.310   2.648   2.223 -1.6665  1.1890  0.9196
 1433SOL     OW14157   4.458   4.447   2.481 -0.2945  0.4825  0.1334
 1433SOL    HW114158   4.540   4.497   2.454 -1.4213  2.4078  0.1775
 1433SOL    HW214159   4.445   4.368   2.421  1.5282  0.2054  0.0798
 1434SOL     OW14160   4.141   9.504   1.569  0.0558  0.0634 -0.0594
 1434SOL    HW114161   4.045   9.506   1.599 -0.0017 -0.4152 -0.2106
 1434SOL    HW214162   4.145   9.469   1.475  0.5132 -1.3029  0.4613
 1435SOL     OW14163   2.333   2.131   1.941  0.5559 -0.3051 -0.0211
 1435SOL    HW114164   2.261   2.198   1.958 -0.3735 -1.2682 -0.0679
 1435SOL    HW214165   2.422   2.169   1.966  0.0461  0.9574 -0.1309
 1436SOL     OW14166   2.125   9.978   0.239 -0.0343  0.1060  0.3478
 1436SOL    HW114167   2.111  10.065   0.191 -0.7759  0.5902  1.4188
 1436SOL    HW214168   2.038   9.949   0.279  0.1640 -1.2499 -0.1931
 1437SOL     OW14169   4.348   4.932   2.422 -0.2794 -0.0669 -0.3914
 1437SOL    HW114170   4.357   4.865   2.495 -1.9503 -2.0743 -1.9915
 1437SOL    HW214171   4.430   4.929   2.364 -0.5166 -0.9735 -0.6752
 1438SOL     OW14172   2.989   2.371   0.807 -0.4707 -0.5472 -0.3186
 1438SOL    HW114173   2.938   2.314   0.742 -1.8184  1.4606 -1.0433
 1438SOL    HW214174   3.044   2.438   0.757  0.9351 -1.0215  0.5511
 1439SOL     OW14175   3.250   3.217   0.365  0.1777 -0.3703  0.0806
 1439SOL    HW114176   3.199   3.285   0.312  0.4626 -2.0419 -2.3988
 1439SOL    HW214177   3.244   3.241   0.462 -2.1785  1.5481 -0.4590
 1440SOL     OW14178   3.148   4.338   1.291 -0.2427  0.4659 -0.3401
 1440SOL    HW114179   3.071   4.319   1.353 -0.1309  1.1859  0.0334
 1440SOL    HW214180   3.233   4.312   1.336 -0.2000  0.5425 -0.3766
 1441SOL     OW14181   3.739   8.658   0.954 -0.0327 -0.3967  0.3440
 1441SOL    HW114182   3.682   8.582   0.985  0.4891 -0.9087  0.0376
 1441SOL    HW214183   3.704   8.743   0.993 -1.5028 -0.6039 -0.4666
 1442SOL     OW14184   3.489   3.833   0.615 -0.4838  0.5794 -0.0641
 1442SOL    HW114185   3.560   3.868   0.677  1.5540  0.3157 -2.1758
 1442SOL    HW214186   3.465   3.740   0.642 -1.3232  1.2919  1.7227
 1443SOL     OW14187   4.319   5.095   1.545 -0.0546 -0.1078  0.5201
 1443SOL    HW114188   4.396   5.105   1.607 -0.2857 -1.6752  1.0673
 1443SOL    HW214189   4.299   4.998   1.531  0.1966  0.1885 -2.2475
 1444SOL     OW14190   4.379   2.837   0.889  0.2443  0.1680  0.0989
 1444SOL    HW114191   4.310   2.803   0.824  1.0123 -1.9215  0.3295
 1444SOL    HW214192   4.337   2.901   0.953 -0.7832  1.3503 -1.7245
 1445SOL     OW14193   3.250   0.318   2.198  0.0331 -0.0788  0.8781
 1445SOL    HW114194   3.306   0.238   2.222  1.0258  0.1886 -0.4831
 1445SOL    HW214195   3.160   0.287   2.168 -0.0057 -0.6214  1.5372
 1446SOL     OW14196   2.913   0.554   1.633  0.0514  0.0237  0.3532
 1446SOL    HW114197   2.815   0.565   1.652 -0.4532 -1.0889 -1.4667
 1446SOL    HW214198   2.947   0.635   1.585 -0.3112 -0.1520 -0.2158
 1447SOL     OW14199   2.015   8.319   2.260 -0.5299  0.3755 -0.1381
 1447SOL    HW114200   2.050   8.404   2.219  1.3387  0.6272  1.9187
 1447SOL    HW214201   2.080   8.245   2.243 -0.8936 -0.0513  0.3362
 1448SOL     OW14202   4.998   3.678   0.736  0.2097 -0.5546 -0.0782
 1448SOL    HW114203   4.921   3.645   0.789  0.2172 -0.5078 -0.0375
 1448SOL    HW214204   4.966   3.711   0.647  0.2330 -0.8806 -0.2064
 1449SOL     OW14205   3.431   1.726   2.218  0.5705 -0.3304 -0.0703
 1449SOL    HW114206   3.518   1.679   2.202 -0.4454 -1.7397 -1.5857
 1449SOL    HW214207   3.368   1.707   2.143 -1.4464 -0.2382  1.5420
 1450SOL     OW14208   3.847   9.450   1.584 -0.0382 -0.1285 -0.1321
 1450SOL    HW114209   3.752   9.467   1.609 -0.0835  1.3822 -1.3310
 1450SOL    HW214210   3.876   9.514   1.514  1.7688 -0.8084 -0.0412
 1451SOL     OW14211   4.250   0.287   0.643 -0.2822  0.7376  0.3501
 1451SOL    HW114212   4.226   0.195   0.615  2.5408 -0.8487  2.7944
 1451SOL    HW214213   4.308   0.329   0.574 -2.0979  0.9661 -1.0666
 1452SOL     OW14214   2.563   2.986   0.552  0.5317 -0.5157  0.0952
 1452SOL    HW114215   2.554   2.908   0.490  0.0520  0.3792 -0.9772
 1452SOL    HW214216   2.613   3.059   0.507  0.0439  0.2036  0.7144
 1453SOL     OW14217   3.906   4.956   1.239  0.3950 -0.1954  0.4184
 1453SOL    HW114218   3.995   4.925   1.205  0.2425 -0.6281  0.4214
 1453SOL    HW214219   3.840   4.881   1.236 -0.6118  0.7551 -1.8405
 1454SOL     OW14220   2.267   0.361   1.170  0.5113  0.5315 -0.1361
 1454SOL    HW114221   2.259   0.456   1.140  0.4512  1.0479  1.5189
 1454SOL    HW214222   2.322   0.310   1.103 -0.6317  1.3776 -1.7567
 1455SOL     OW14223   3.907   4.261   1.486  0.6214  0.2703 -0.0310
 1455SOL    HW114224   3.974   4.266   1.560  1.0048  1.9993 -0.4723
 1455SOL    HW214225   3.864   4.351   1.474 -2.0710 -0.8784  0.4998
 1456SOL     OW14226   2.697   4.571   1.595 -0.0047  0.5495 -0.2680
 1456SOL    HW114227   2.797   4.579   1.600  0.1378 -1.5396  0.9374
 1456SOL    HW214228   2.673   4.489   1.543 -0.9971 -1.0610  2.6186
 1457SOL     OW14229   2.543   1.443   2.214  0.6197 -0.2371 -0.4626
 1457SOL    HW114230   2.462   1.495   2.241 -1.3467 -2.3502 -2.1092
 1457SOL    HW214231   2.582   1.483   2.130  0.6247  0.1031 -0.2982
 1458SOL     OW14232   3.437   0.854   0.068 -0.2509  0.1893 -0.3273
 1458SOL    HW114233   3.491   0.808   0.138 -0.3003 -1.4630 -1.3608
 1458SOL    HW214234   3.487   0.934   0.035  0.0556  0.6094  1.1232
 1459SOL     OW14235   3.367   0.809   0.629  0.2053 -0.0651 -0.2747
 1459SOL    HW114236   3.451   0.756   0.639 -0.3641 -0.3925  3.8537
 1459SOL    HW214237   3.304   0.786   0.704 -1.6530  3.5436 -0.6213
 1460SOL     OW14238   4.034   2.508   0.846 -0.1017 -0.1386 -0.2242
 1460SOL    HW114239   3.991   2.481   0.760  0.2868  1.2021 -0.8557
 1460SOL    HW214240   3.980   2.580   0.889 -0.8304 -1.4862  1.1664
 1461SOL     OW14241   2.138   3.665   2.408  0.6659 -0.4188 -0.0049
 1461SOL    HW114242   2.179   3.612   2.334  0.3128 -0.9561  0.1849
 1461SOL    HW214243   2.172   3.633   2.496  1.3299  0.4336  0.0560
 1462SOL     OW14244   2.702   9.594   2.536  0.1189 -0.0046 -0.2897
 1462SOL    HW114245   2.640   9.656   2.585  1.9309  0.6479  1.2218
 1462SOL    HW214246   2.677   9.500   2.557 -0.2799  0.2557  0.4473
 1463SOL     OW14247   3.323   1.251   2.349  0.1020 -0.3677  0.0097
 1463SOL    HW114248   3.308   1.349   2.335  0.7968 -0.3508 -0.6551
 1463SOL    HW214249   3.275   1.222   2.431  1.2132  0.8588  1.1121
 1464SOL     OW14250   4.195   0.883   2.548  0.0775  0.5977  0.1539
 1464SOL    HW114251   4.286   0.845   2.536  0.2016  1.1442 -0.6486
 1464SOL    HW214252   4.198   0.958   2.614  0.3282  1.0501 -0.3680
 1465SOL     OW14253   4.722   2.148   0.194  0.1424 -0.1093  0.5269
 1465SOL    HW114254   4.660   2.071   0.212  0.9845 -0.8296  0.3600
 1465SOL    HW214255   4.781   2.162   0.274  0.0265  0.3307  0.5342
 1466SOL     OW14256   2.731   9.808   0.178 -0.1443  0.0729  0.3553
 1466SOL    HW114257   2.693   9.800   0.270 -0.8355  0.1170  0.0728
 1466SOL    HW214258   2.702   9.730   0.123  0.1332  0.1342  0.1183
 1467SOL     OW14259   3.750   9.377   2.320  0.1463 -0.4931 -0.4334
 1467SOL    HW114260   3.800   9.343   2.400  0.7367  1.8114  0.2238
 1467SOL    HW214261   3.813   9.420   2.257 -0.8544  1.6740 -0.0071
 1468SOL     OW14262   4.720   2.270   0.927  0.5678  0.1800  0.1922
 1468SOL    HW114263   4.645   2.284   0.861 -0.5996  1.1304  1.6829
 1468SOL    HW214264   4.807   2.288   0.882 -0.0725 -1.1167 -1.6316
 1469SOL     OW14265   2.769  10.112   1.195 -0.3019 -0.6051 -0.6022
 1469SOL    HW114266   2.731  10.065   1.274  2.4265  0.1321  1.1958
 1469SOL    HW214267   2.785  10.046   1.121 -1.3671 -1.5631  0.0091
 1470SOL     OW14268   4.351   1.456   2.054  0.1313  0.2093  0.2618
 1470SOL    HW114269   4.343   1.392   2.131  0.1288  0.3799  0.4051
 1470SOL    HW214270   4.261   1.471   2.014 -0.3136  2.1750  1.9110
 1471SOL     OW14271   4.023   1.261   1.487  0.2062 -0.4730 -0.1728
 1471SOL    HW114272   4.007   1.164   1.510  0.7865 -0.3352  0.8363
 1471SOL    HW214273   3.935   1.306   1.474 -0.1147 -0.8419  0.6414
 1472SOL     OW14274   3.689   4.919   0.746  0.0018  0.3428 -0.3822
 1472SOL    HW114275   3.625   4.963   0.809 -0.5627 -0.7443 -0.1720
 1472SOL    HW214276   3.779   4.912   0.789 -0.6836 -1.5428  0.8584
 1473SOL     OW14277   3.336   1.098   1.317  0.5026 -0.1034  0.1532
 1473SOL    HW114278   3.331   1.171   1.385  0.8988  0.0516  0.0199
 1473SOL    HW214279   3.249   1.090   1.269  0.4687  0.3089  0.1429
 1474SOL     OW14280   3.579   2.304   0.092 -0.1215 -0.3554 -0.1434
 1474SOL    HW114281   3.526   2.315   0.176 -0.6881  0.1841 -0.5620
 1474SOL    HW214282   3.588   2.207   0.071  1.3082 -0.5670  1.3398
 1475SOL     OW14283   5.612   3.562   1.175  0.6879  0.3994 -0.1820
 1475SOL    HW114284   5.576   3.648   1.212  2.0725  0.4199  1.1780
 1475SOL    HW214285   5.664   3.580   1.092 -1.4080  0.5070 -1.5103
 1476SOL     OW14286   2.943   8.357   1.739 -0.3854 -0.0057  0.2658
 1476SOL    HW114287   2.911   8.441   1.696  1.4595  0.3064 -0.5474
 1476SOL    HW214288   2.954   8.286   1.670 -0.1790 -0.3747  0.6704
 1477SOL     OW14289   1.941   9.746   2.522  0.1024  0.0090 -0.0955
 1477SOL    HW114290   1.910   9.827   2.572 -0.4117 -1.3921  1.9374
 1477SOL    HW214291   2.014   9.772   2.459 -1.6540  2.4460 -1.1982
 1478SOL     OW14292   4.288   4.278   1.745  0.2676 -0.7241 -0.2460
 1478SOL    HW114293   4.193   4.307   1.729  1.0057  1.0412 -1.6120
 1478SOL    HW214294   4.289   4.198   1.804 -2.0361 -0.1570  0.6054
 1479SOL     OW14295   2.121   9.314   0.417  0.6211 -0.0452 -0.8069
 1479SOL    HW114296   2.053   9.339   0.487  1.5636  0.0262  0.1028
 1479SOL    HW214297   2.116   9.380   0.342  0.1071  0.3264 -0.4574
 1480SOL     OW14298   4.573   2.409   1.540  0.2330 -0.3844  0.7097
 1480SOL    HW114299   4.577   2.504   1.570 -0.4177 -0.1687  0.1385
 1480SOL    HW214300   4.477   2.382   1.528  0.4527 -0.6341 -0.6239
 1481SOL     OW14301   3.894   9.669   2.378 -0.0551  0.1113 -0.4411
 1481SOL    HW114302   3.889   9.667   2.278 -0.3117  0.0169 -0.4271
 1481SOL    HW214303   3.872   9.761   2.410 -1.6331 -0.2768 -0.3868
 1482SOL     OW14304   2.656   7.139   1.237  0.2165 -0.2293  0.1912
 1482SOL    HW114305   2.724   7.184   1.294 -0.1248 -0.2123  0.5823
 1482SOL    HW214306   2.574   7.196   1.230 -0.0212 -0.5544  0.2800
 1483SOL     OW14307   3.222   6.338   1.267 -0.7219  0.0053 -0.5330
 1483SOL    HW114308   3.174   6.322   1.180 -1.7573 -4.4275  0.7063
 1483SOL    HW214309   3.156   6.346   1.341  0.2239  1.8077  0.1267
 1484SOL     OW14310   3.073   9.716   0.847  0.4448 -0.5609  0.5094
 1484SOL    HW114311   3.022   9.648   0.900  1.7270 -0.7709  1.5109
 1484SOL    HW214312   3.029   9.805   0.857  0.7818 -0.5524  2.1473
 1485SOL     OW14313   3.230   3.816   1.700  0.1282  0.0758 -0.2121
 1485SOL    HW114314   3.249   3.857   1.789  1.4642 -0.1425 -0.3836
 1485SOL    HW214315   3.255   3.881   1.628 -0.8288  0.2043 -0.4283
 1486SOL     OW14316   4.343   1.776   2.230  0.5395 -0.6984  0.0071
 1486SOL    HW114317   4.269   1.715   2.200 -0.5003  0.3108  0.4484
 1486SOL    HW214318   4.324   1.806   2.324  1.7396 -0.7579  0.2665
 1487SOL     OW14319   3.971   8.930   2.080 -0.0574 -0.8292 -0.1040
 1487SOL    HW114320   3.887   8.915   2.029  0.2436  0.1317 -0.8882
 1487SOL    HW214321   4.048   8.891   2.030  0.3352  0.7441 -0.7365
 1488SOL     OW14322   3.437   8.009   0.635  0.0788 -0.2777 -0.0356
 1488SOL    HW114323   3.460   8.101   0.603 -1.3855  0.6671  1.5132
 1488SOL    HW214324   3.349   8.011   0.683  0.1121 -2.4592  0.1998
 1489SOL     OW14325   2.161   8.468   1.939  0.0964  0.2806 -0.2660
 1489SOL    HW114326   2.221   8.518   1.877 -1.3370  1.0846 -1.0189
 1489SOL    HW214327   2.082   8.433   1.888 -1.8167  2.1324  1.3199
 1490SOL     OW14328   4.243   3.046   2.277 -0.1441 -0.1242  0.7726
 1490SOL    HW114329   4.151   3.049   2.314 -0.7617  0.6567 -0.7739
 1490SOL    HW214330   4.305   3.098   2.336 -1.2118  1.5983  0.4098
 1491SOL     OW14331   3.183   5.975   2.031  0.2999  0.2553 -0.1558
 1491SOL    HW114332   3.157   5.940   2.121 -3.9211  0.9854 -0.9940
 1491SOL    HW214333   3.169   6.074   2.028 -1.7400 -0.0573 -2.2579
 1492SOL     OW14334   4.282   0.946   2.072 -0.0211  0.9483  0.5072
 1492SOL    HW114335   4.197   0.917   2.117 -0.2157  1.8276  0.7100
 1492SOL    HW214336   4.271   1.038   2.036  0.9513  1.1789  0.7859
 1493SOL     OW14337   4.062   3.215   1.413 -0.2603 -0.0054  0.2371
 1493SOL    HW114338   4.151   3.218   1.458 -0.4037  0.1223  0.5134
 1493SOL    HW214339   4.072   3.241   1.317  0.5545 -3.2509 -0.6262
 1494SOL     OW14340   4.155   2.277   2.270 -0.1518 -0.2271 -0.3939
 1494SOL    HW114341   4.083   2.331   2.226 -2.1102 -2.1177  0.4108
 1494SOL    HW214342   4.168   2.192   2.220  0.7244 -0.4144  0.1485
 1495SOL     OW14343   3.600   5.500  -0.062 -0.0956 -0.1925 -0.2467
 1495SOL    HW114344   3.521   5.531  -0.010  0.8982  0.5098  0.8787
 1495SOL    HW214345   3.570   5.450  -0.143 -1.6792  0.1147  0.1447
 1496SOL     OW14346   1.934   7.250   1.529  0.6906 -0.3547  0.2267
 1496SOL    HW114347   2.025   7.288   1.514  1.0238 -1.4174 -0.4792
 1496SOL    HW214348   1.939   7.179   1.599  0.1095  0.7341  1.3835
 1497SOL     OW14349   2.054   7.916   1.128  0.5388  0.5530  0.2737
 1497SOL    HW114350   2.027   8.000   1.173 -2.4829 -0.7359  0.9810
 1497SOL    HW214351   2.084   7.849   1.196 -0.9291 -0.2866  0.1284
 1498SOL     OW14352   4.139   2.954   0.099  0.6477 -0.5700  0.6207
 1498SOL    HW114353   4.051   2.969   0.054  1.6257 -0.5700 -1.3370
 1498SOL    HW214354   4.201   3.028   0.075  1.4087 -0.9469  1.4184
 1499SOL     OW14355   3.163   6.640   0.411  0.0422  0.2303 -0.0357
 1499SOL    HW114356   3.150   6.541   0.414 -1.0993  0.4018  2.0550
 1499SOL    HW214357   3.082   6.683   0.371  0.6010  0.3040 -1.0826
 1500SOL     OW14358   3.909   1.549   2.335 -1.1709  0.2614 -0.0243
 1500SOL    HW114359   3.937   1.642   2.360 -4.0537  1.1622  0.0300
 1500SOL    HW214360   3.883   1.547   2.239 -1.1924 -0.4802 -0.0030
 1501SOL     OW14361   4.352   1.584   0.116  0.7174 -0.3008  0.3124
 1501SOL    HW114362   4.389   1.659   0.061  0.9905  0.2140  1.1796
 1501SOL    HW214363   4.256   1.570   0.094  0.3884  0.9924  0.8786
 1502SOL     OW14364   3.580   4.481   1.044  0.2823  0.2461  0.3076
 1502SOL    HW114365   3.616   4.528   1.124  0.8297  1.4434 -0.6248
 1502SOL    HW214366   3.481   4.467   1.054  0.4513 -0.1366  1.4389
 1503SOL     OW14367   3.320   5.843   1.428  0.5291 -0.2340 -0.4624
 1503SOL    HW114368   3.266   5.787   1.491 -0.5523 -1.9578 -2.8518
 1503SOL    HW214369   3.396   5.789   1.392 -1.4954 -0.7809 -4.0818
 1504SOL     OW14370   4.160   4.475   1.163 -0.2231  0.6503  0.4216
 1504SOL    HW114371   4.174   4.543   1.090 -1.3280  0.9125  0.4595
 1504SOL    HW214372   4.219   4.497   1.240  1.3670  0.0665 -0.5897
 1505SOL     OW14373   3.192   1.139   2.596 -0.2676  0.0199 -0.0736
 1505SOL    HW114374   3.230   1.132   2.688 -0.5461 -3.9579 -0.1647
 1505SOL    HW214375   3.097   1.108   2.596 -0.0989 -0.5895 -1.7872
 1506SOL     OW14376   2.118   4.824   1.690 -0.0738  0.1125  0.1166
 1506SOL    HW114377   2.093   4.842   1.595  0.1808  0.9768  0.2069
 1506SOL    HW214378   2.166   4.904   1.727  0.8961 -0.6823  0.6017
 1507SOL     OW14379   3.747   2.669   0.578  0.4928 -0.9954  0.1825
 1507SOL    HW114380   3.667   2.690   0.522 -0.2775  0.7400  1.8495
 1507SOL    HW214381   3.814   2.743   0.569  0.6019 -0.9768  1.0852
 1508SOL     OW14382   2.570   5.389  -0.081 -0.2773  0.0364 -0.0940
 1508SOL    HW114383   2.590   5.307  -0.027 -2.4210 -0.2171  0.3992
 1508SOL    HW214384   2.531   5.459  -0.021 -0.9990  0.4117 -0.9825
 1509SOL     OW14385   3.301   1.224   1.542  0.2684 -0.0398  0.0042
 1509SOL    HW114386   3.281   1.158   1.614  0.7971  0.1791  0.3528
 1509SOL    HW214387   3.230   1.293   1.539  1.2103  1.0127  1.5603
 1510SOL     OW14388   4.858   3.985   1.619 -0.2946  0.2809 -0.0536
 1510SOL    HW114389   4.804   3.903   1.599  0.4889 -0.0190 -1.0071
 1510SOL    HW214390   4.813   4.065   1.580 -0.1838  0.0626 -0.6448
 1511SOL     OW14391   4.288   5.070   0.728  0.1698  0.0133  0.0980
 1511SOL    HW114392   4.237   4.987   0.707  1.6750 -1.1504  0.9556
 1511SOL    HW214393   4.347   5.094   0.651 -1.1092  0.9742 -0.6168
 1512SOL     OW14394   2.734   4.099   1.609 -0.0056 -0.9091 -0.6216
 1512SOL    HW114395   2.674   4.158   1.663  0.5680 -0.8851  0.0035
 1512SOL    HW214396   2.830   4.123   1.629  0.2357 -2.2234 -0.1669
 1513SOL     OW14397   4.465   4.753  -0.076 -0.3143  0.2395 -0.4910
 1513SOL    HW114398   4.513   4.738   0.011 -0.0458  0.6984 -0.5587
 1513SOL    HW214399   4.527   4.733  -0.152 -0.7194 -0.7031 -0.5812
 1514SOL     OW14400   2.590   0.609   0.384  0.2114 -0.0189 -0.7541
 1514SOL    HW114401   2.597   0.531   0.446 -0.4446 -0.7335 -1.5509
 1514SOL    HW214402   2.493   0.624   0.361  0.4271  0.3648 -1.4228
 1515SOL     OW14403   2.434   3.482   0.195  0.2411 -0.5123 -0.2853
 1515SOL    HW114404   2.523   3.499   0.154  0.4633 -2.9613 -0.9034
 1515SOL    HW214405   2.440   3.403   0.256 -1.2625 -0.0285  0.5157
 1516SOL     OW14406   4.415   2.509   2.204 -0.6733  0.3374 -0.6834
 1516SOL    HW114407   4.323   2.545   2.190 -0.6526  0.7958  0.2871
 1516SOL    HW214408   4.468   2.574   2.259  0.9687  1.1644 -3.1499
 1517SOL     OW14409   2.319   7.202   1.916  0.6187  0.0405  0.3037
 1517SOL    HW114410   2.377   7.257   1.975 -2.4888  2.6140  1.0896
 1517SOL    HW214411   2.226   7.240   1.915 -0.4545 -2.4304 -2.9057
 1518SOL     OW14412   4.373   3.899   0.964  0.1408 -0.2986  0.1233
 1518SOL    HW114413   4.359   3.914   1.062  1.7927  0.6022  0.2305
 1518SOL    HW214414   4.461   3.938   0.937 -1.3657  1.6268 -2.1941
 1519SOL     OW14415   4.315   3.873   2.292  0.1491  0.2749  1.3515
 1519SOL    HW114416   4.404   3.863   2.246 -0.5379 -0.7769  0.2375
 1519SOL    HW214417   4.306   3.967   2.324  0.7077  1.0187 -0.5714
 1520SOL     OW14418   3.280   5.440   0.391  0.3100  0.1270  0.6151
 1520SOL    HW114419   3.266   5.362   0.330 -1.2362 -0.3445  1.5615
 1520SOL    HW214420   3.376   5.468   0.387  0.8774 -1.8005  0.2201
 1521SOL     OW14421   2.664   9.522   1.118  0.3286  0.1314  0.2353
 1521SOL    HW114422   2.692   9.546   1.210  0.5731 -0.8190  0.4187
 1521SOL    HW214423   2.701   9.432   1.094  2.6289  1.5690 -1.8331
 1522SOL     OW14424   4.445   3.854   0.017 -0.2189 -0.4104 -0.7627
 1522SOL    HW114425   4.519   3.864   0.084  0.2324  1.0582 -1.4573
 1522SOL    HW214426   4.357   3.860   0.064  0.0955  0.6505 -0.2996
 1523SOL     OW14427   3.723   8.467   0.661  0.2734  0.3407  0.0393
 1523SOL    HW114428   3.790   8.402   0.697 -0.0337 -0.0696 -0.1246
 1523SOL    HW214429   3.725   8.551   0.715  0.1134 -0.1101  0.7474
 1524SOL     OW14430   5.153   4.550   0.707 -0.2246 -0.0565 -0.5117
 1524SOL    HW114431   5.093   4.624   0.736  0.2811 -0.0579  0.5794
 1524SOL    HW214432   5.099   4.470   0.684 -0.7727  0.6340 -1.6711
 1525SOL     OW14433   3.710   1.008   2.572 -0.0617  0.3251  0.2896
 1525SOL    HW114434   3.641   1.067   2.614 -0.7116 -0.2247  0.0100
 1525SOL    HW214435   3.677   0.975   2.483  0.0487 -0.9143  0.6994
 1526SOL     OW14436   5.159   2.170   0.590 -0.3256  0.6157  0.0717
 1526SOL    HW114437   5.213   2.160   0.674 -1.0025 -1.0458  0.3277
 1526SOL    HW214438   5.219   2.170   0.511  0.0420 -1.9513  0.3009
 1527SOL     OW14439   3.985   2.637   0.273  0.1476  0.0819 -0.0539
 1527SOL    HW114440   3.961   2.713   0.333 -0.3023 -0.0386 -0.0830
 1527SOL    HW214441   4.041   2.571   0.324  1.8578  1.1797 -0.4529
 1528SOL     OW14442   2.094   8.816   0.343 -0.0665  0.7491 -0.1772
 1528SOL    HW114443   2.035   8.873   0.400  1.5622  3.1724 -0.8447
 1528SOL    HW214444   2.089   8.847   0.248  1.3400  0.1832 -0.4494
 1529SOL     OW14445   3.188   0.596   0.526 -0.2243 -0.2565  0.3654
 1529SOL    HW114446   3.216   0.692   0.525 -1.2688  0.0605  0.5476
 1529SOL    HW214447   3.263   0.539   0.492  0.5429  0.5816  0.6347
 1530SOL     OW14448   3.829   8.897   0.432 -0.0917  0.4250  0.0986
 1530SOL    HW114449   3.826   8.799   0.412 -1.1293  0.3100  0.8025
 1530SOL    HW214450   3.922   8.930   0.418  0.4936 -0.8685  0.7799
 1531SOL     OW14451   2.247   1.310   2.183  0.1022 -0.5081 -0.4182
 1531SOL    HW114452   2.320   1.269   2.237 -0.1522  0.1676  0.4586
 1531SOL    HW214453   2.283   1.340   2.094  1.1702  0.8765  0.4649
 1532SOL     OW14454   4.652   4.159   1.532 -0.4501  0.3844 -0.1742
 1532SOL    HW114455   4.627   4.149   1.436  1.9436 -0.6240 -0.7391
 1532SOL    HW214456   4.582   4.116   1.590 -0.0096 -2.5293 -1.6932
 1533SOL     OW14457   4.635   1.248   1.044  0.0455  0.0565 -0.0268
 1533SOL    HW114458   4.554   1.191   1.059 -0.1241 -0.0140 -1.1710
 1533SOL    HW214459   4.657   1.250   0.946  0.1907  1.7812  0.0244
 1534SOL     OW14460   2.624   1.604   1.954 -0.1305 -0.5162 -0.7111
 1534SOL    HW114461   2.600   1.683   1.898 -0.7092  1.0424  1.6819
 1534SOL    HW214462   2.723   1.593   1.956  0.0279  0.9659  0.0351
 1535SOL     OW14463   3.395   2.423   0.318  0.1166 -0.1925 -0.2765
 1535SOL    HW114464   3.372   2.508   0.271 -2.5227 -1.2758 -1.0494
 1535SOL    HW214465   3.351   2.422   0.408  0.3686 -0.6361 -0.1570
 1536SOL     OW14466   4.702   3.025   0.999 -0.2552  0.4850 -0.0683
 1536SOL    HW114467   4.628   2.982   1.051 -0.3480  0.1102 -0.5060
 1536SOL    HW214468   4.786   3.022   1.052 -0.6129  1.1491  0.5465
 1537SOL     OW14469   2.000   4.274   0.462  0.3091 -0.1333 -0.3940
 1537SOL    HW114470   1.966   4.269   0.368  0.9938 -0.7508 -0.6084
 1537SOL    HW214471   2.005   4.183   0.501 -2.9464  0.3736  1.3244
 1538SOL     OW14472   3.113   3.344   0.171 -0.1303 -0.1928 -0.1340
 1538SOL    HW114473   3.077   3.253   0.149  1.7251 -0.7668 -0.9085
 1538SOL    HW214474   3.041   3.412   0.161 -1.3893 -1.5054 -0.1211
 1539SOL     OW14475   4.195   0.260   0.051 -0.0614 -0.1203  0.4234
 1539SOL    HW114476   4.109   0.225   0.015  0.0606 -0.5605  0.5615
 1539SOL    HW214477   4.263   0.264  -0.023 -0.5607  1.4387  0.0150
 1540SOL     OW14478   2.036   7.814   1.458  0.0978 -0.0309 -0.2317
 1540SOL    HW114479   2.128   7.853   1.456  0.5865 -1.1229  0.7506
 1540SOL    HW214480   2.031   7.744   1.528 -1.5385  0.1302 -0.1747
 1541SOL     OW14481   2.076   8.141   1.446 -0.5178  0.2995 -0.0248
 1541SOL    HW114482   2.088   8.156   1.545  0.4614  1.7677 -0.3449
 1541SOL    HW214483   2.146   8.078   1.414 -1.6365 -1.2069  0.4410
 1542SOL     OW14484   3.001   0.784   1.541  0.2669  0.6213  0.1946
 1542SOL    HW114485   2.987   0.855   1.610  0.0842  1.5628 -0.7906
 1542SOL    HW214486   3.089   0.798   1.496  0.3898  0.0068  0.2379
 1543SOL     OW14487   3.637   4.889   1.186 -0.5661 -0.1379 -0.1981
 1543SOL    HW114488   3.645   4.965   1.121 -2.0204 -0.8707 -1.2383
 1543SOL    HW214489   3.610   4.925   1.276 -0.5314  0.6424 -0.4939
 1544SOL     OW14490   3.365   9.732   1.782 -0.0933  0.1997 -0.1990
 1544SOL    HW114491   3.331   9.820   1.816 -1.3299 -0.3138 -0.0729
 1544SOL    HW214492   3.423   9.690   1.851  0.4109  0.8714 -0.2133
 1545SOL     OW14493   2.948   2.160   1.618 -0.7116 -0.1671  0.1195
 1545SOL    HW114494   3.024   2.204   1.667 -0.2180  0.7559 -1.4445
 1545SOL    HW214495   2.973   2.146   1.522 -2.5300  0.1863 -0.4335
 1546SOL     OW14496   3.856   2.159   1.110  0.3760 -0.3560  0.2037
 1546SOL    HW114497   3.900   2.249   1.105 -1.0822  0.3032 -1.2934
 1546SOL    HW214498   3.809   2.149   1.197  0.6527  0.2702  0.4254
 1547SOL     OW14499   4.899   4.746   0.698 -0.2109 -0.7627 -0.4888
 1547SOL    HW114500   4.832   4.676   0.724 -2.8322  0.7276 -2.8622
 1547SOL    HW214501   4.927   4.731   0.603  0.5104  0.4217 -0.4653
 1548SOL     OW14502   2.071   1.427   0.215  0.5774 -0.1000 -0.2772
 1548SOL    HW114503   2.075   1.517   0.172 -1.8158  0.1780  0.0003
 1548SOL    HW214504   2.099   1.358   0.149  0.9403  0.7127 -0.9844
 1549SOL     OW14505   4.984   4.510   0.008 -0.0401 -0.1859  0.2485
 1549SOL    HW114506   4.977   4.425   0.061 -0.6344 -1.9495 -2.5873
 1549SOL    HW214507   5.079   4.522  -0.022 -0.1797 -0.4118 -0.2766
 1550SOL     OW14508   3.731   1.641   0.511 -0.1697  0.1500 -0.3511
 1550SOL    HW114509   3.693   1.663   0.420  2.1416 -2.7287 -2.0884
 1550SOL    HW214510   3.816   1.692   0.525 -0.5076  0.5658  0.2049
 1551SOL     OW14511   4.431   3.807   0.613 -0.1254  0.5583 -0.8381
 1551SOL    HW114512   4.356   3.872   0.618  0.5921  1.3335 -0.0586
 1551SOL    HW214513   4.403   3.720   0.654 -0.5227  0.9207 -0.3328
 1552SOL     OW14514   3.687   0.466   2.553  0.2767 -0.1731  0.0883
 1552SOL    HW114515   3.778   0.505   2.567  0.0811 -0.2155  1.5251
 1552SOL    HW214516   3.619   0.539   2.555  0.3270 -0.0807 -1.4947
 1553SOL     OW14517   2.900   8.213   1.517  0.1561 -0.0664 -0.1544
 1553SOL    HW114518   2.858   8.301   1.493  0.5296 -0.0676 -0.8324
 1553SOL    HW214519   2.958   8.183   1.442  0.4117 -0.6583  0.2807
 1554SOL     OW14520   3.591   8.590   2.164  0.0865  0.2195 -0.8223
 1554SOL    HW114521   3.554   8.514   2.217  2.7152 -0.9737 -0.6106
 1554SOL    HW214522   3.596   8.671   2.222  0.1218 -0.2590 -0.1471
 1555SOL     OW14523   3.183   6.387   2.532 -0.6832 -0.1038 -0.1823
 1555SOL    HW114524   3.092   6.425   2.546 -1.7161 -1.9312 -1.7610
 1555SOL    HW214525   3.191   6.352   2.439  0.8050 -2.1967  0.6921
 1556SOL     OW14526   2.249   9.557   1.268  0.2802 -0.4684 -0.1710
 1556SOL    HW114527   2.208   9.489   1.330  0.5431  1.3943  2.1319
 1556SOL    HW214528   2.188   9.635   1.259  0.6610 -0.3172 -1.5702
 1557SOL     OW14529   2.315   1.071   1.827 -0.1733  0.0850  0.1887
 1557SOL    HW114530   2.305   1.081   1.728 -0.7555 -0.0200  0.2368
 1557SOL    HW214531   2.412   1.074   1.850 -0.0344  0.1706 -0.3782
 1558SOL     OW14532   2.507   9.343   0.852  0.4047 -0.7464  0.1585
 1558SOL    HW114533   2.583   9.404   0.830  0.3332 -0.5764  0.3766
 1558SOL    HW214534   2.464   9.373   0.938  0.1023 -0.8516  0.0446
 1559SOL     OW14535   3.665   9.898   0.230 -0.0533 -0.4615  0.1577
 1559SOL    HW114536   3.723   9.868   0.155  1.2160  0.1801  0.8553
 1559SOL    HW214537   3.600   9.826   0.253 -0.5190 -0.6290 -1.6039
 1560SOL     OW14538   3.355   3.420   2.007  0.2559 -0.0817 -0.1502
 1560SOL    HW114539   3.322   3.461   2.092  0.1174  1.4246 -0.9134
 1560SOL    HW214540   3.276   3.397   1.949  0.3622 -0.8384  0.0033
 1561SOL     OW14541   4.320   3.606   2.018 -0.1471  0.2158  0.3484
 1561SOL    HW114542   4.255   3.680   2.002 -1.3676 -0.7667  0.6960
 1561SOL    HW214543   4.287   3.548   2.092  1.4108  0.0197  0.9170
 1562SOL     OW14544   2.609   8.822   1.367  0.3269 -0.0620  0.0048
 1562SOL    HW114545   2.551   8.904   1.361  0.4436  0.0322  0.1503
 1562SOL    HW214546   2.551   8.741   1.365  0.2025  0.0251 -0.0516
 1563SOL     OW14547   2.267   3.534   0.767 -0.1703 -0.0865 -0.6561
 1563SOL    HW114548   2.337   3.566   0.703  0.1006  0.8438  0.1051
 1563SOL    HW214549   2.176   3.556   0.730 -0.0123  0.5231 -0.6803
 1564SOL     OW14550   3.426   2.817   0.790 -0.4443 -0.7376  0.1878
 1564SOL    HW114551   3.390   2.768   0.711 -0.4234  0.4908 -0.5952
 1564SOL    HW214552   3.436   2.914   0.768  1.4678 -0.7084  1.0151
 1565SOL     OW14553   2.915   1.096   0.944  0.3778  0.4992  0.0825
 1565SOL    HW114554   2.890   1.013   0.894 -0.9842  0.8681  0.1366
 1565SOL    HW214555   2.952   1.163   0.879 -2.2908  1.3401 -0.6362
 1566SOL     OW14556   2.383   2.414  -0.057 -0.0112  0.6646  0.0416
 1566SOL    HW114557   2.457   2.395  -0.121  0.9848  0.2589  1.3102
 1566SOL    HW214558   2.302   2.362  -0.084  0.6715 -0.1927 -0.3809
 1567SOL     OW14559   4.875   3.207   1.475 -0.2962 -0.9391  0.6511
 1567SOL    HW114560   4.949   3.144   1.498 -1.9274 -2.8430  0.8124
 1567SOL    HW214561   4.850   3.259   1.557  1.7930  0.7679  0.2527
 1568SOL     OW14562   2.797   0.778   1.358 -0.1791  0.1604 -0.3906
 1568SOL    HW114563   2.819   0.796   1.262  0.4027  2.6844  0.1816
 1568SOL    HW214564   2.880   0.752   1.407  0.1920  2.1988  0.1224
 1569SOL     OW14565   2.213   7.872   2.531 -0.0605  0.1348 -0.1123
 1569SOL    HW114566   2.278   7.812   2.577  1.7258  0.6091 -1.9309
 1569SOL    HW214567   2.125   7.826   2.524  0.8260 -1.6220 -0.0425
 1570SOL     OW14568   3.512   4.141   0.963 -0.6708 -0.3642 -0.8448
 1570SOL    HW114569   3.417   4.156   0.988 -0.7026 -1.4182 -0.3297
 1570SOL    HW214570   3.560   4.229   0.963 -0.7248 -0.2663  2.7264
 1571SOL     OW14571   3.325   6.771   0.220  0.2772  0.2060 -0.0056
 1571SOL    HW114572   3.404   6.831   0.231 -1.3464  2.1481  1.2679
 1571SOL    HW214573   3.314   6.715   0.302  0.4030 -0.1894 -0.2534
 1572SOL     OW14574   3.912   1.602   1.510 -0.4968  0.1602  0.4049
 1572SOL    HW114575   3.960   1.554   1.583 -0.9073  0.5699  0.9482
 1572SOL    HW214576   3.859   1.537   1.456  1.2175 -0.4096 -0.6499
 1573SOL     OW14577   4.160   2.609   2.210 -0.3919 -0.1495  0.5621
 1573SOL    HW114578   4.107   2.558   2.143  0.1179 -0.5738  0.4777
 1573SOL    HW214579   4.164   2.558   2.296 -1.9718  0.8987  1.2818
 1574SOL     OW14580   5.194   3.303   1.457 -0.9315 -0.2830  0.1284
 1574SOL    HW114581   5.180   3.214   1.415  0.5137  0.3334 -1.7321
 1574SOL    HW214582   5.150   3.374   1.402 -2.0427  0.1856  1.5688
 1575SOL     OW14583   3.574   1.218   0.331 -0.3860  0.3432 -0.4904
 1575SOL    HW114584   3.657   1.264   0.363  0.3280  0.5109 -2.4982
 1575SOL    HW214585   3.594   1.170   0.246 -1.8714 -1.2759  0.0583
 1576SOL     OW14586   2.056   7.258   1.926  0.0804  0.2977  0.1244
 1576SOL    HW114587   2.017   7.206   2.002 -0.9757 -0.3840 -0.8734
 1576SOL    HW214588   2.025   7.353   1.932 -1.1879 -0.0799 -0.2657
 1577SOL     OW14589   2.987   3.475   1.464 -0.3332  0.2399  0.0889
 1577SOL    HW114590   3.008   3.396   1.523 -1.2837  0.4771  0.7651
 1577SOL    HW214591   3.020   3.559   1.508  1.7826  0.1303 -1.1972
 1578SOL     OW14592   3.599   2.597   2.379  0.1105  0.4520  0.2309
 1578SOL    HW114593   3.624   2.623   2.286 -1.5250  1.8974  0.1614
 1578SOL    HW214594   3.647   2.657   2.444 -1.1896  1.5918  0.1782
 1579SOL     OW14595   2.293   9.982   0.457 -0.5485 -0.0243  0.2427
 1579SOL    HW114596   2.235   9.996   0.377 -0.8501  0.5966  0.5666
 1579SOL    HW214597   2.271   9.895   0.500  0.2912 -0.8354 -0.9141
 1580SOL     OW14598   3.196   4.543   0.629 -0.2517  0.0873 -0.0138
 1580SOL    HW114599   3.285   4.498   0.626  0.1043  0.5622  2.1414
 1580SOL    HW214600   3.189   4.596   0.714 -2.4079  0.4244 -0.3777
 1581SOL     OW14601   3.367   4.586   0.206 -0.3693 -0.0527 -0.0148
 1581SOL    HW114602   3.451   4.635   0.229 -0.5503 -0.2609  1.1010
 1581SOL    HW214603   3.339   4.609   0.113  0.6413  0.4182 -0.1991
 1582SOL     OW14604   3.183   0.797  -0.002 -0.1914 -0.2519 -0.2600
 1582SOL    HW114605   3.163   0.733   0.073 -1.5290  1.8204  1.1948
 1582SOL    HW214606   3.273   0.838   0.013 -0.2389 -0.2193 -0.0635
 1583SOL     OW14607   3.113   6.948   0.191 -0.5159 -0.0852  0.3598
 1583SOL    HW114608   3.204   6.906   0.186 -0.5052 -0.1125  0.7439
 1583SOL    HW214609   3.083   6.950   0.286  0.0989  2.1080  0.5295
 1584SOL     OW14610   4.157   8.893   1.898  0.4485 -0.5688 -0.3219
 1584SOL    HW114611   4.162   8.797   1.869  0.0904 -0.8142  0.4178
 1584SOL    HW214612   4.155   8.952   1.818  2.0339 -1.1138 -0.7751
 1585SOL     OW14613   3.166   2.243   1.725 -0.4799 -0.1748 -0.6411
 1585SOL    HW114614   3.187   2.339   1.708  0.4336 -0.2929 -0.2077
 1585SOL    HW214615   3.250   2.195   1.752 -0.4676 -1.5480 -2.9144
 1586SOL     OW14616   5.229   3.213   1.111 -0.3969  0.4528 -0.3472
 1586SOL    HW114617   5.274   3.302   1.123  0.8926 -0.4788  2.1971
 1586SOL    HW214618   5.249   3.155   1.190 -2.3327 -1.6431 -1.3406
 1587SOL     OW14619   3.943   1.909   0.235 -0.2080  0.1028 -0.3755
 1587SOL    HW114620   3.937   1.967   0.316 -3.0523 -0.0816 -0.4112
 1587SOL    HW214621   3.933   1.814   0.262  1.9013 -0.1944 -0.6120
 1588SOL     OW14622   2.627   2.733   2.087 -0.0259 -0.6990 -0.2397
 1588SOL    HW114623   2.645   2.635   2.079  1.5765 -0.4266 -0.0323
 1588SOL    HW214624   2.675   2.782   2.015  1.4476  0.1993  1.3308
 1589SOL     OW14625   4.929   3.550   1.584  0.3502  0.0313 -0.0236
 1589SOL    HW114626   4.970   3.627   1.633  1.0863 -0.4953  0.2026
 1589SOL    HW214627   4.914   3.475   1.648 -0.6816  0.1022 -0.1737
 1590SOL     OW14628   3.732   1.029   2.188  0.0829 -0.3945  0.2643
 1590SOL    HW114629   3.652   1.052   2.132 -0.7973  0.5802  1.9111
 1590SOL    HW214630   3.703   0.985   2.272  1.1831  1.2925  1.5511
 1591SOL     OW14631   2.639   7.685   2.575  0.0227 -0.0398  0.7191
 1591SOL    HW114632   2.677   7.643   2.657  1.1233  0.5241  0.5208
 1591SOL    HW214633   2.677   7.777   2.564 -1.2177  0.4336  0.3522
 1592SOL     OW14634   3.077   9.435   2.455  0.4873  0.1528  0.1032
 1592SOL    HW114635   3.060   9.362   2.390  0.2504  0.1724  0.1427
 1592SOL    HW214636   3.170   9.469   2.445  0.2384  0.6118 -0.6823
 1593SOL     OW14637   2.589   9.842   0.457 -0.1565  0.5807  0.4467
 1593SOL    HW114638   2.565   9.939   0.449  1.7994  1.1808  1.3729
 1593SOL    HW214639   2.639   9.828   0.543 -0.1131 -1.1856  0.1428
 1594SOL     OW14640   3.517   1.151   0.043 -0.1901  0.5771 -0.0418
 1594SOL    HW114641   3.541   1.245   0.017 -2.2167  1.7504  2.0516
 1594SOL    HW214642   3.454   1.154   0.121 -1.1352 -2.5152 -0.6378
 1595SOL     OW14643   3.831   4.895   1.968  0.1748  0.3823 -0.1263
 1595SOL    HW114644   3.813   4.969   1.903  0.5941  1.3312  0.8291
 1595SOL    HW214645   3.925   4.901   2.000  0.4176 -0.9862 -0.5645
 1596SOL     OW14646   3.029   2.201   2.027 -0.0350 -0.1663  0.2207
 1596SOL    HW114647   3.123   2.217   2.056 -0.5617  0.0548  1.8842
 1596SOL    HW214648   2.990   2.286   1.991  0.4014 -0.2590 -0.4713
 1597SOL     OW14649   2.143   7.797   0.256  0.0065  0.4056  0.2041
 1597SOL    HW114650   2.233   7.812   0.217  1.6559 -0.9045  3.3333
 1597SOL    HW214651   2.120   7.872   0.318 -0.8990  0.5149 -0.2427
 1598SOL     OW14652   2.139   9.473   0.883 -0.0882 -0.3061  0.2216
 1598SOL    HW114653   2.165   9.569   0.872 -2.2260  0.3843  1.0422
 1598SOL    HW214654   2.208   9.427   0.939  1.4400  0.4834 -0.9268
 1599SOL     OW14655   4.694   3.798   2.539 -0.5779  0.1699  0.3674
 1599SOL    HW114656   4.706   3.702   2.565 -0.8141 -0.2316 -0.9733
 1599SOL    HW214657   4.612   3.834   2.584 -1.1958 -0.6327 -0.0883
 1600SOL     OW14658   3.087   1.643   1.298 -0.0267 -0.0407  0.4086
 1600SOL    HW114659   3.093   1.543   1.302 -1.5798 -0.2175 -1.1764
 1600SOL    HW214660   3.002   1.673   1.339 -0.5238  0.4664 -0.9755
 1601SOL     OW14661   4.084   4.840   0.891 -0.2697 -0.3842 -0.0278
 1601SOL    HW114662   3.989   4.826   0.916  0.1166 -0.4264  1.4710
 1601SOL    HW214663   4.094   4.836   0.791 -1.9072  0.1394 -0.2205
 1602SOL     OW14664   2.392   5.073   0.567 -0.6368  0.1849  0.5829
 1602SOL    HW114665   2.462   5.133   0.605 -0.7355  0.4013  0.4296
 1602SOL    HW214666   2.302   5.110   0.589 -0.7022 -0.1744  0.9070
 1603SOL     OW14667   2.706   7.891   1.196 -0.0563  0.2859 -0.2248
 1603SOL    HW114668   2.753   7.870   1.110  1.9967 -0.7037  1.1327
 1603SOL    HW214669   2.616   7.846   1.196  0.0753 -0.0172 -1.6821
 1604SOL     OW14670   3.441   3.586   0.701  0.2307  0.4011 -0.2724
 1604SOL    HW114671   3.360   3.532   0.724 -0.4223  1.0806 -0.9611
 1604SOL    HW214672   3.523   3.538   0.733 -0.5591  0.6518  2.2235
 1605SOL     OW14673   5.022   2.909  -0.046  0.3630 -0.3177 -0.2376
 1605SOL    HW114674   5.111   2.954  -0.057 -0.8889  2.6057  1.2374
 1605SOL    HW214675   4.975   2.907  -0.134  0.7446  0.6132 -0.4695
 1606SOL     OW14676   3.792   8.483   1.373 -0.2869 -0.3477  0.0814
 1606SOL    HW114677   3.822   8.496   1.279  1.6992  1.9385  0.9748
 1606SOL    HW214678   3.692   8.485   1.377 -0.4451 -2.0777 -2.1531
 1607SOL     OW14679   2.447   7.600   2.060 -0.1056  0.4920 -0.4334
 1607SOL    HW114680   2.414   7.593   1.966 -1.8143  0.0358  0.1919
 1607SOL    HW214681   2.463   7.509   2.097 -1.0249  0.6120  0.2669
 1608SOL     OW14682   2.305   1.728   1.074 -0.5074  0.3246 -0.0571
 1608SOL    HW114683   2.263   1.745   1.163  0.5958 -1.0480  0.7536
 1608SOL    HW214684   2.394   1.684   1.088 -0.7983 -0.8895 -1.8606
 1609SOL     OW14685   2.311   4.637   1.278 -0.0317 -0.4949  0.0669
 1609SOL    HW114686   2.267   4.560   1.325 -0.0435  0.7897  2.2298
 1609SOL    HW214687   2.242   4.704   1.251  0.0997 -0.7175 -0.8468
 1610SOL     OW14688   4.286   4.686   0.442 -0.2215 -0.0349  0.2865
 1610SOL    HW114689   4.365   4.726   0.488 -2.1788  3.3321  0.8683
 1610SOL    HW214690   4.304   4.680   0.344  0.2698  1.9857  0.2320
 1611SOL     OW14691   2.618   2.845   1.467 -0.1042 -0.4639 -0.1005
 1611SOL    HW114692   2.594   2.942   1.461  0.2899 -0.2839  1.0227
 1611SOL    HW214693   2.597   2.812   1.560 -0.0374 -1.3977 -0.4147
 1612SOL     OW14694   3.474   8.495   1.903  0.1198 -0.4891 -0.5047
 1612SOL    HW114695   3.504   8.555   1.978 -0.7351  1.5513 -1.7543
 1612SOL    HW214696   3.378   8.514   1.883 -0.3655 -2.8325 -0.4370
 1613SOL     OW14697   4.793   3.492   0.234 -0.1354  0.8346 -0.4878
 1613SOL    HW114698   4.839   3.424   0.290 -1.5375 -0.2542 -0.6200
 1613SOL    HW214699   4.744   3.557   0.292 -2.3243 -0.8207 -0.4371
 1614SOL     OW14700   3.654   8.070   1.990  0.5070  0.1032 -0.0975
 1614SOL    HW114701   3.630   8.139   1.921  0.1314  0.0341 -0.0390
 1614SOL    HW214702   3.602   7.987   1.973 -0.5239  0.5086  1.0126
 1615SOL     OW14703   3.064   7.979   0.086 -0.0052  0.1259  0.1141
 1615SOL    HW114704   2.978   8.030   0.089 -0.1168 -0.0828  0.5505
 1615SOL    HW214705   3.126   8.014   0.156 -0.1671 -0.4770  0.5669
 1616SOL     OW14706   2.801   1.571   1.189  0.0016  0.3902 -0.3042
 1616SOL    HW114707   2.701   1.565   1.188  0.0932 -1.6392 -0.9309
 1616SOL    HW214708   2.831   1.643   1.127 -1.0602  0.7405 -0.4184
 1617SOL     OW14709   2.855   1.761   1.974 -0.1122 -0.8197  0.2855
 1617SOL    HW114710   2.771   1.809   1.949  0.0617  0.1773  1.5732
 1617SOL    HW214711   2.930   1.827   1.984  0.7343 -1.6493 -0.4093
 1618SOL     OW14712   2.502   2.063   0.162 -0.3743 -0.1149 -0.2340
 1618SOL    HW114713   2.485   1.997   0.236  0.1789 -1.3949 -1.2366
 1618SOL    HW214714   2.577   2.030   0.105 -0.7438  0.9174 -1.3214
 1619SOL     OW14715   2.290   6.985   0.769  0.3500 -0.4585  0.2220
 1619SOL    HW114716   2.196   7.017   0.779  0.8676  0.7891  1.2058
 1619SOL    HW214717   2.312   6.976   0.672  0.0637  1.8061 -0.0764
 1620SOL     OW14718   3.240   5.189   2.591 -0.3942  0.0403  0.1237
 1620SOL    HW114719   3.318   5.147   2.638 -0.6731 -1.1730 -0.4651
 1620SOL    HW214720   3.273   5.262   2.531  0.1517  0.4010  0.8529
 1621SOL     OW14721   3.536   3.525   1.819  0.7502 -0.2978 -0.2195
 1621SOL    HW114722   3.446   3.506   1.860  0.1823  2.1537 -0.2392
 1621SOL    HW214723   3.600   3.551   1.891  1.6456 -2.6424 -0.1351
 1622SOL     OW14724   3.578   1.241   1.553 -0.1180  0.2110 -0.1892
 1622SOL    HW114725   3.603   1.318   1.612 -1.1058  1.4193 -1.3115
 1622SOL    HW214726   3.479   1.238   1.542 -0.0285 -0.7394 -0.7966
 1623SOL     OW14727   3.229   1.328   1.065  0.2613  0.8034 -0.5786
 1623SOL    HW114728   3.246   1.232   1.042  1.5700  1.2296 -1.4577
 1623SOL    HW214729   3.159   1.333   1.135 -0.9796 -0.7306 -1.6580
 1624SOL     OW14730   2.266   6.713   2.011  0.5298 -0.3771  0.1076
 1624SOL    HW114731   2.296   6.804   1.985 -1.3513  0.0075 -0.7756
 1624SOL    HW214732   2.313   6.645   1.955 -0.4793  0.2341 -1.5046
 1625SOL     OW14733   1.569   9.007   1.185 -0.1647  0.1696 -0.4257
 1625SOL    HW114734   1.517   8.974   1.263  0.0573 -0.4875 -0.5559
 1625SOL    HW214735   1.594   9.103   1.199  0.3519 -0.1065  0.5584
 1626SOL     OW14736   3.590   1.471   2.143 -0.3934 -0.8246 -0.4920
 1626SOL    HW114737   3.598   1.430   2.234 -0.7587 -1.6521 -0.8291
 1626SOL    HW214738   3.680   1.476   2.101 -0.3561 -1.3495 -0.4765
 1627SOL     OW14739   3.197   4.115   0.358  0.3221 -0.4613  0.7384
 1627SOL    HW114740   3.196   4.215   0.366 -1.3741 -0.2284 -1.7000
 1627SOL    HW214741   3.287   4.080   0.384  1.3105  1.8174  0.4605
 1628SOL     OW14742   2.268   6.490   2.428  0.0084 -0.1923  0.0908
 1628SOL    HW114743   2.225   6.427   2.492  0.6080 -0.6051  0.0870
 1628SOL    HW214744   2.344   6.538   2.473 -0.8207  0.9654  0.2720
 1629SOL     OW14745   2.380   8.797   2.189 -0.5719  0.8263  0.2944
 1629SOL    HW114746   2.338   8.887   2.173 -0.3951  0.9371  0.4521
 1629SOL    HW214747   2.410   8.791   2.284 -0.9996  0.4236  0.4021
 1630SOL     OW14748   3.199   2.529  -0.058 -0.0951  0.0655  0.2502
 1630SOL    HW114749   3.210   2.551   0.039 -1.2757 -0.4458  0.5045
 1630SOL    HW214750   3.268   2.462  -0.085  0.6763  0.7220  0.5638
 1631SOL     OW14751   3.025   8.901   2.386 -0.1554  0.1871 -0.7776
 1631SOL    HW114752   2.989   8.836   2.454  0.9496 -0.2162 -0.5696
 1631SOL    HW214753   2.999   8.872   2.294 -0.0000 -0.3364 -0.6554
 1632SOL     OW14754   5.280   3.639   0.702  0.1931  0.3887  0.1327
 1632SOL    HW114755   5.188   3.667   0.731  0.1616 -0.1793  0.5898
 1632SOL    HW214756   5.322   3.584   0.774 -0.9806 -3.5151 -2.0371
 1633SOL     OW14757   4.116   8.358   0.824 -0.1301  0.5184 -0.1102
 1633SOL    HW114758   4.146   8.439   0.774  0.3082  0.1872 -0.3888
 1633SOL    HW214759   4.018   8.344   0.808 -0.2021  0.9791 -0.0822
 1634SOL     OW14760   3.006   0.644   2.135  0.1174  0.0889 -0.2937
 1634SOL    HW114761   3.022   0.595   2.221 -0.1267  1.1098  0.3515
 1634SOL    HW214762   2.908   0.647   2.116  0.2066 -0.5290 -0.8444
 1635SOL     OW14763   2.308   1.010   1.050 -0.2647  0.2331  0.1338
 1635SOL    HW114764   2.308   0.936   1.118 -0.2573  1.2427  1.2462
 1635SOL    HW214765   2.239   0.991   0.980 -0.1676 -0.8928  0.3302
 1636SOL     OW14766   4.104   3.785   0.388  0.3731  0.1649 -0.8472
 1636SOL    HW114767   4.100   3.883   0.410  1.4926  0.2629 -1.0238
 1636SOL    HW214768   4.054   3.733   0.457  0.2355  0.8203 -0.4441
 1637SOL     OW14769   3.982   1.309   2.487  0.1033 -0.7410 -0.3390
 1637SOL    HW114770   3.945   1.394   2.449  0.1447 -0.6108 -0.0887
 1637SOL    HW214771   3.953   1.232   2.430  0.9637 -0.4437 -1.1828
 1638SOL     OW14772   2.469   0.367   1.650  0.4396  1.0167 -0.4597
 1638SOL    HW114773   2.417   0.401   1.572 -1.9105 -1.7636 -0.1976
 1638SOL    HW214774   2.478   0.267   1.643 -0.7152  0.5546  3.2417
 1639SOL     OW14775   2.668   8.502   0.658  0.2475  0.2333  0.6635
 1639SOL    HW114776   2.598   8.436   0.685  0.1110  0.6484  1.3270
 1639SOL    HW214777   2.625   8.585   0.624  0.4080  0.6009  1.3408
 1640SOL     OW14778   2.371   5.843   0.945  0.4947  0.0083  0.1511
 1640SOL    HW114779   2.341   5.763   0.998 -1.0721  0.5628  0.1105
 1640SOL    HW214780   2.454   5.881   0.987 -0.1258 -0.1943  1.5899
 1641SOL     OW14781   4.077   0.738   1.145 -0.2248 -0.0500  0.5271
 1641SOL    HW114782   4.007   0.807   1.130 -0.0427  0.1668  0.6779
 1641SOL    HW214783   4.147   0.745   1.074  0.4749  0.7748  1.2869
 1642SOL     OW14784   3.123   7.840   2.119  0.1422  0.9324  0.5707
 1642SOL    HW114785   3.213   7.800   2.128 -0.0916 -0.1369 -1.5499
 1642SOL    HW214786   3.071   7.827   2.203  1.4799  0.3535  1.3025
 1643SOL     OW14787   3.917   9.972   1.829 -0.1605 -0.0582  0.4418
 1643SOL    HW114788   3.937  10.044   1.896 -0.0090  0.1136  0.2129
 1643SOL    HW214789   3.917  10.011   1.737 -1.8427 -0.0009  0.4504
 1644SOL     OW14790   3.236   8.665   2.511 -0.1531 -0.0255 -0.3731
 1644SOL    HW114791   3.269   8.712   2.429  0.6786  0.8142  0.4353
 1644SOL    HW214792   3.277   8.574   2.515  2.0795  0.9684  0.5745
 1645SOL     OW14793   1.981   6.915   1.804  0.8646  0.3444  0.3388
 1645SOL    HW114794   1.891   6.885   1.837  1.2175 -0.3192  0.7314
 1645SOL    HW214795   2.046   6.839   1.814  1.0499  0.2138 -1.6551
 1646SOL     OW14796   4.223   9.046   2.467 -0.1706  0.3518  0.0477
 1646SOL    HW114797   4.263   8.958   2.441 -3.0809 -0.9388 -0.2616
 1646SOL    HW214798   4.237   9.112   2.393  1.4214 -0.0246 -0.0106
 1647SOL     OW14799   2.477   8.480   2.157 -0.1559  0.1468  0.1639
 1647SOL    HW114800   2.532   8.558   2.127  0.2825  0.4135  1.5975
 1647SOL    HW214801   2.390   8.514   2.195  0.4677  0.0268  1.7332
 1648SOL     OW14802   3.694   5.656   0.205  0.2636  0.0698  0.9193
 1648SOL    HW114803   3.752   5.688   0.130 -0.6043 -0.7391 -0.1135
 1648SOL    HW214804   3.671   5.733   0.265  1.5863  0.5757  0.7834
 1649SOL     OW14805   3.892   3.975   0.910 -0.3626  0.0747 -0.6863
 1649SOL    HW114806   3.920   4.066   0.941  0.1802 -0.4542  0.4108
 1649SOL    HW214807   3.973   3.918   0.898 -0.7946 -0.7186  0.1141
 1650SOL     OW14808   2.978   5.451   2.283  0.3231 -0.3108 -0.4507
 1650SOL    HW114809   3.005   5.357   2.266 -2.7183 -1.3413  0.1901
 1650SOL    HW214810   2.955   5.496   2.197 -0.2431 -0.7998 -0.5535
 1651SOL     OW14811   3.088   7.897   0.921  0.5970  0.0115 -0.0489
 1651SOL    HW114812   3.119   7.805   0.896  1.0711 -0.4624  2.1847
 1651SOL    HW214813   3.161   7.963   0.902  1.9062 -0.6918  2.4140
 1652SOL     OW14814   3.647   3.810   1.558  0.0141  0.1513  0.6962
 1652SOL    HW114815   3.680   3.847   1.471  0.5704  0.1910  0.9232
 1652SOL    HW214816   3.558   3.768   1.544 -1.1042  2.4614  0.6293
 1653SOL     OW14817   5.245   4.535   0.401 -0.2118 -0.3405  0.0376
 1653SOL    HW114818   5.256   4.442   0.366 -0.6224  0.0417 -1.1311
 1653SOL    HW214819   5.336   4.575   0.417  0.0414  0.0614 -2.2077
 1654SOL     OW14820   3.844   2.214   0.493 -0.0703 -0.4732  0.4736
 1654SOL    HW114821   3.753   2.223   0.453 -0.7556  2.0844  2.4694
 1654SOL    HW214822   3.910   2.260   0.435 -0.4873  0.1074  0.4591
 1655SOL     OW14823   2.526   2.972   0.175 -0.6774  0.0403 -0.1463
 1655SOL    HW114824   2.570   3.062   0.167 -0.9914  0.2784  0.7576
 1655SOL    HW214825   2.576   2.906   0.119 -0.3983  0.7581 -0.7664
 1656SOL     OW14826   4.356   1.530   1.448 -0.3323 -0.1853 -0.8234
 1656SOL    HW114827   4.439   1.475   1.436  0.1256  0.6372 -1.5063
 1656SOL    HW214828   4.333   1.573   1.361 -0.1986  1.3867 -0.0977
 1657SOL     OW14829   2.276   9.180   0.867 -0.4389 -0.2825 -0.1382
 1657SOL    HW114830   2.366   9.224   0.867  0.0203 -1.2087 -0.1575
 1657SOL    HW214831   2.244   9.168   0.773 -0.3372 -0.4417 -0.1531
 1658SOL     OW14832   3.947   5.125   1.822  0.0406 -0.7050  0.5185
 1658SOL    HW114833   4.019   5.068   1.863 -1.0330 -1.2035  1.7614
 1658SOL    HW214834   3.954   5.120   1.722  2.8227  0.6839  0.5832
 1659SOL     OW14835   2.912   2.957   0.706 -0.4666 -0.0489  0.1687
 1659SOL    HW114836   2.970   2.877   0.690  1.1122  1.0633  0.2338
 1659SOL    HW214837   2.866   2.947   0.794  0.5539 -0.4079  0.6756
 1660SOL     OW14838   3.466   2.025   1.552  0.4569  0.0883  0.4654
 1660SOL    HW114839   3.377   1.981   1.536  0.9331 -0.1511 -1.7417
 1660SOL    HW214840   3.530   1.959   1.590  0.2950 -0.2977  0.0701
 1661SOL     OW14841   4.768   2.581   0.982  0.1722 -0.1462  0.4496
 1661SOL    HW114842   4.860   2.551   0.958  0.8749  1.2891  1.2513
 1661SOL    HW214843   4.757   2.579   1.081  0.7017  3.3253  0.6449
 1662SOL     OW14844   4.141   2.909   0.348  0.3125  0.3457 -0.2939
 1662SOL    HW114845   4.235   2.908   0.382  0.5080  1.1699 -0.8133
 1662SOL    HW214846   4.141   2.906   0.248 -0.1545  2.1295 -0.3734
 1663SOL     OW14847   4.155   1.012   1.729 -0.6547  1.0037  0.2966
 1663SOL    HW114848   4.205   1.046   1.650 -1.1233  1.8960  0.3778
 1663SOL    HW214849   4.067   0.975   1.699 -1.2478  2.2303  0.5081
 1664SOL     OW14850   3.352   4.072   0.715  0.1442 -0.1049  0.3196
 1664SOL    HW114851   3.419   4.068   0.790  0.8293 -2.3551 -0.3511
 1664SOL    HW214852   3.261   4.049   0.751  0.0702  1.0560  0.8802
 1665SOL     OW14853   4.597   3.994   1.203 -0.2032  0.5120 -0.0408
 1665SOL    HW114854   4.577   3.993   1.105 -0.0641  1.1069 -0.0741
 1665SOL    HW214855   4.518   3.959   1.253 -1.2505  2.6087 -0.1898
 1666SOL     OW14856   3.430   3.676   1.498  0.0098 -0.5378 -0.2771
 1666SOL    HW114857   3.436   3.583   1.532  1.4943 -0.3753 -0.0789
 1666SOL    HW214858   3.343   3.716   1.527 -1.0233 -2.1445 -1.1252
 1667SOL     OW14859   2.171   4.220   1.458 -0.7626  0.6401 -0.1217
 1667SOL    HW114860   2.269   4.205   1.448 -1.2379 -0.6756 -3.2481
 1667SOL    HW214861   2.134   4.155   1.524  0.5737  1.6993  1.7105
 1668SOL     OW14862   2.346   9.636   2.374 -0.2637 -0.3221 -0.3165
 1668SOL    HW114863   2.368   9.690   2.455  1.0086  0.6153 -1.2751
 1668SOL    HW214864   2.362   9.539   2.393 -0.6142 -0.1700  0.7636
 1669SOL     OW14865   4.151   8.585   1.120 -0.5681  0.2149  0.8275
 1669SOL    HW114866   4.243   8.548   1.132 -0.8903 -1.1992 -0.9028
 1669SOL    HW214867   4.154   8.662   1.056 -0.9456 -1.6406 -1.5086
 1670SOL     OW14868   2.705   3.513   0.125  0.1234 -0.2557 -0.2253
 1670SOL    HW114869   2.764   3.546   0.199 -0.1308 -0.4082  0.0449
 1670SOL    HW214870   2.752   3.526   0.038  0.6148 -0.5026 -0.0020
 1671SOL     OW14871   3.294   3.881   1.975 -0.0105  0.4283  0.3785
 1671SOL    HW114872   3.270   3.785   1.958 -3.3066  1.3476 -0.5439
 1671SOL    HW214873   3.281   3.902   2.072  2.5821 -0.5009  0.9723
 1672SOL     OW14874   2.597   1.778   1.307  0.6683 -0.2236  0.6528
 1672SOL    HW114875   2.591   1.805   1.211  1.6341  2.7254  1.3787
 1672SOL    HW214876   2.691   1.791   1.339  0.2294 -0.6562  2.1358
 1673SOL     OW14877   2.652   2.516   2.464 -0.6101  0.1083 -0.0931
 1673SOL    HW114878   2.660   2.526   2.564 -0.8394 -1.0527  0.0384
 1673SOL    HW214879   2.653   2.607   2.422  0.5234  0.5619  0.8894
 1674SOL     OW14880   2.248   3.191   2.229 -0.3520  0.4911  0.4122
 1674SOL    HW114881   2.217   3.152   2.316 -0.7244  2.7784  1.3339
 1674SOL    HW214882   2.348   3.182   2.223 -0.3306  0.2568  1.0565
 1675SOL     OW14883   2.777   2.661   0.776 -0.6432  0.4783 -0.3720
 1675SOL    HW114884   2.717   2.739   0.792  0.3775  1.0731  0.6814
 1675SOL    HW214885   2.757   2.621   0.687 -1.4906  1.6578 -0.7265
 1676SOL     OW14886   3.861   1.465   0.723  0.0429  0.1627 -0.3137
 1676SOL    HW114887   3.797   1.495   0.652 -1.1778 -1.2357  0.1687
 1676SOL    HW214888   3.903   1.379   0.697 -0.8131 -0.6373  0.8597
 1677SOL     OW14889   3.594   2.436   1.975  0.2639  0.5013  0.1134
 1677SOL    HW114890   3.517   2.500   1.984  0.0793  0.4940 -1.2821
 1677SOL    HW214891   3.628   2.438   1.881  0.4570 -1.2440  0.1347
 1678SOL     OW14892   3.018   2.829   1.294 -0.0087 -0.4572  0.0209
 1678SOL    HW114893   3.038   2.769   1.217  0.3203  0.3369 -0.5148
 1678SOL    HW214894   2.941   2.888   1.272  1.0097  0.7857 -0.2665
 1679SOL     OW14895   4.862   2.726   2.401 -0.4381  0.4760  0.0485
 1679SOL    HW114896   4.825   2.758   2.488 -1.9330 -0.1398 -0.3535
 1679SOL    HW214897   4.873   2.626   2.404 -2.4310  0.1993 -1.1762
 1680SOL     OW14898   3.028   2.763   0.190 -0.1524  0.2613  0.1752
 1680SOL    HW114899   3.024   2.863   0.192 -1.7253  0.2115  0.4643
 1680SOL    HW214900   2.993   2.730   0.102 -1.7795 -0.0861  0.9191
 1681SOL     OW14901   4.052   8.995   0.829 -0.1529  0.3560 -0.9142
 1681SOL    HW114902   4.030   9.067   0.895 -2.6197  1.0802 -2.4391
 1681SOL    HW214903   4.139   9.016   0.785  0.4955  0.9432  0.6120
 1682SOL     OW14904   3.163   3.040   0.993 -0.6523  0.4638  0.9572
 1682SOL    HW114905   3.105   3.083   0.924  0.2731 -0.1895 -0.2606
 1682SOL    HW214906   3.233   3.104   1.024 -0.8853  0.6655  1.0593
 1683SOL     OW14907   3.068   2.705   2.340 -0.2218  0.3803 -0.3671
 1683SOL    HW114908   3.161   2.713   2.377 -0.3054  0.9642 -0.2750
 1683SOL    HW214909   3.068   2.645   2.260 -0.0549 -1.0003  0.6523
 1684SOL     OW14910   2.575   5.153   0.129  0.5141  0.3311  0.0910
 1684SOL    HW114911   2.669   5.159   0.164  0.7241  1.6078 -0.6469
 1684SOL    HW214912   2.515   5.210   0.185  0.1405 -0.6545  0.6904
 1685SOL     OW14913   3.224   5.897  -0.063 -0.1742  0.8242 -0.4455
 1685SOL    HW114914   3.225   5.820  -0.127 -0.3862 -0.5672  1.1903
 1685SOL    HW214915   3.132   5.907  -0.025 -0.2881  2.2579 -1.0664
 1686SOL     OW14916   2.658   9.208   1.359 -0.1183  0.1696  0.3264
 1686SOL    HW114917   2.573   9.227   1.406 -0.0800 -0.2988  0.5893
 1686SOL    HW214918   2.645   9.218   1.260 -0.5230 -0.0685  0.3562
 1687SOL     OW14919   3.874   3.857   1.686  0.2406 -0.1205  0.4306
 1687SOL    HW114920   3.783   3.820   1.668  0.8649 -1.7165  0.4809
 1687SOL    HW214921   3.942   3.784   1.677  1.6574  1.3390 -0.8947
 1688SOL     OW14922   3.636   5.398   2.110 -0.1382  0.0270 -0.1343
 1688SOL    HW114923   3.726   5.363   2.086 -0.5971 -2.3660  1.4572
 1688SOL    HW214924   3.627   5.402   2.210 -2.0140 -0.4179 -0.2646
 1689SOL     OW14925   2.809   1.862   0.921 -0.5406  0.0574 -0.4525
 1689SOL    HW114926   2.840   1.902   1.007  0.9980  0.5280 -1.1920
 1689SOL    HW214927   2.715   1.831   0.930 -0.6204  0.7249  1.1820
 1690SOL     OW14928   2.904   4.095   1.083 -0.2211 -0.0532  0.1762
 1690SOL    HW114929   2.876   4.011   1.037  2.0491 -0.0226 -1.3248
 1690SOL    HW214930   2.974   4.075   1.151  0.0837  0.5615  0.0521
 1691SOL     OW14931   2.487   5.833   0.428  0.1644 -0.2426  0.2260
 1691SOL    HW114932   2.574   5.788   0.444 -0.5712 -1.7200  0.1487
 1691SOL    HW214933   2.489   5.924   0.469  2.1387  0.1994 -0.7819
 1692SOL     OW14934   2.460   0.467   2.598  0.4933 -0.4272 -0.8511
 1692SOL    HW114935   2.386   0.527   2.568  1.0589  1.1550  0.8235
 1692SOL    HW214936   2.544   0.490   2.549  0.9173  0.7540  0.4093
 1693SOL     OW14937   2.597   7.768   1.669  0.2319 -0.6158  0.0936
 1693SOL    HW114938   2.562   7.824   1.744  1.2389  0.3041 -0.1118
 1693SOL    HW214939   2.615   7.825   1.589  0.6081 -1.3370 -0.3490
 1694SOL     OW14940   2.304   5.803   2.135  0.6208  0.2000 -0.0163
 1694SOL    HW114941   2.286   5.737   2.062 -0.4631  0.3091  0.1476
 1694SOL    HW214942   2.390   5.851   2.116  0.4939  0.0200 -1.0637
 1695SOL     OW14943   4.089   8.959   0.399 -0.5313 -1.2290 -0.0992
 1695SOL    HW114944   4.093   9.059   0.404 -2.8561 -1.1878  1.3098
 1695SOL    HW214945   4.114   8.930   0.306  0.3525  0.6328 -0.4736
 1696SOL     OW14946   2.307   4.675   0.418 -0.0845  0.6414 -0.6932
 1696SOL    HW114947   2.237   4.737   0.383  0.8965  2.1475 -0.0446
 1696SOL    HW214948   2.354   4.717   0.495  1.6208 -0.2787 -1.1944
 1697SOL     OW14949   2.727   3.407   2.329  0.0999  0.3819 -0.0667
 1697SOL    HW114950   2.653   3.403   2.262  0.9985  1.1761 -1.1294
 1697SOL    HW214951   2.774   3.319   2.333  0.3974  0.5037 -0.8914
 1698SOL     OW14952   1.791   8.537   1.687 -0.1063 -0.2245  0.1351
 1698SOL    HW114953   1.829   8.544   1.594  0.8188  0.1020  0.5385
 1698SOL    HW214954   1.694   8.560   1.684  0.0298  0.2879 -0.6778
 1699SOL     OW14955   4.794   1.580   0.071 -0.2370  0.0771 -0.1804
 1699SOL    HW114956   4.724   1.542   0.132 -0.8865  1.2646 -0.1779
 1699SOL    HW214957   4.777   1.549  -0.023 -0.2886 -0.2917 -0.0511
 1700SOL     OW14958   3.331   8.886   1.850 -0.2392 -0.8927  0.0234
 1700SOL    HW114959   3.410   8.851   1.900  0.3320 -1.5241 -1.3187
 1700SOL    HW214960   3.357   8.910   1.757 -1.3689  0.0153 -0.0753
 1701SOL     OW14961   3.043   3.599   2.362 -0.3416  0.4365 -0.4721
 1701SOL    HW114962   3.038   3.604   2.262  2.3046 -1.6560 -0.7496
 1701SOL    HW214963   3.081   3.684   2.397  1.6641  0.0222 -1.5365
 1702SOL     OW14964   2.678   1.962   0.603 -0.6208 -0.1524  0.3333
 1702SOL    HW114965   2.695   1.909   0.520 -0.2621  1.0588 -0.3632
 1702SOL    HW214966   2.585   1.943   0.635 -0.9367 -0.2593 -0.6181
 1703SOL     OW14967   2.860   8.565   0.479 -0.0706  0.3504 -0.0591
 1703SOL    HW114968   2.773   8.548   0.524 -0.0292 -0.7909 -0.3916
 1703SOL    HW214969   2.882   8.662   0.485 -1.8638  0.8251 -0.8765
 1704SOL     OW14970   3.088   3.860   2.476 -0.6802  0.5964 -0.0996
 1704SOL    HW114971   3.146   3.893   2.552 -0.2171 -0.6757  0.1114
 1704SOL    HW214972   2.992   3.869   2.502 -0.5398  0.7993  0.3697
 1705SOL     OW14973   3.914   8.771   1.583 -0.3647 -0.0158  0.2747
 1705SOL    HW114974   3.817   8.746   1.588 -1.1041  2.8174  1.2482
 1705SOL    HW214975   3.969   8.699   1.625 -2.3661 -0.0364  3.0344
 1706SOL     OW14976   2.353   9.036   1.347 -0.1632 -0.2754 -0.4246
 1706SOL    HW114977   2.333   9.044   1.250  1.6979  1.2913 -0.7174
 1706SOL    HW214978   2.344   9.126   1.391  1.2371 -0.5122  0.3814
 1707SOL     OW14979   3.126   7.019   1.303 -0.0073  0.1469  0.6431
 1707SOL    HW114980   3.082   6.952   1.243  0.7174  0.8799 -0.7240
 1707SOL    HW214981   3.061   7.048   1.374 -0.6655 -1.1906  0.6120
 1708SOL     OW14982   4.302   0.905   1.470 -0.6093  0.7680 -0.2874
 1708SOL    HW114983   4.394   0.882   1.502 -0.6616  0.2795 -0.4826
 1708SOL    HW214984   4.237   0.837   1.504 -1.2833  2.4774  1.9050
 1709SOL     OW14985   1.772   8.674   0.881 -0.1664  0.0631  0.6092
 1709SOL    HW114986   1.743   8.580   0.899 -2.4420  0.4040 -1.0493
 1709SOL    HW214987   1.834   8.675   0.803 -2.3450  0.1920 -1.1668
 1710SOL     OW14988   3.267   8.336   1.245 -0.0608  0.6455 -0.1369
 1710SOL    HW114989   3.281   8.430   1.213  1.8989  0.3533 -0.1728
 1710SOL    HW214990   3.279   8.332   1.344 -1.9886  0.7567  0.1288
 1711SOL     OW14991   3.035   2.312   0.433 -0.1535  0.2066  0.2116
 1711SOL    HW114992   3.022   2.411   0.423 -1.2493 -0.0476 -1.0089
 1711SOL    HW214993   3.122   2.295   0.478 -0.0380  1.7404  0.6103
 1712SOL     OW14994   4.036   4.309   0.045  0.5025  0.1578 -0.2165
 1712SOL    HW114995   4.098   4.244   0.001 -0.6005 -1.6479  0.8253
 1712SOL    HW214996   4.087   4.367   0.108  1.1897 -1.0561  0.3608
 1713SOL     OW14997   3.742   3.552   1.620  0.2737 -0.0353  0.1635
 1713SOL    HW114998   3.730   3.649   1.599 -1.7033 -0.3789 -0.4279
 1713SOL    HW214999   3.676   3.525   1.690  1.2223 -0.8178  0.7635
 1714SOL     OW15000   2.135   6.160   1.889 -0.3346  0.4880  0.1909
 1714SOL    HW115001   2.189   6.100   1.830 -0.7415 -0.8796  1.1918
 1714SOL    HW215002   2.139   6.127   1.983 -1.6713  1.2445  0.5266
 1715SOL     OW15003   3.941   2.037   1.367  0.6250 -0.2193  0.1708
 1715SOL    HW115004   3.950   2.000   1.274 -0.7391  1.1387 -0.5371
 1715SOL    HW215005   3.887   1.975   1.423  1.6799 -1.1763  0.1324
 1716SOL     OW15006   1.671   9.975   1.455 -0.1194 -0.8614  0.4076
 1716SOL    HW115007   1.742   9.958   1.523 -0.0112 -1.3071  0.1851
 1716SOL    HW215008   1.634  10.067   1.467  1.7990  0.0674 -0.7000
 1717SOL     OW15009   3.243   4.588   1.334  0.0218 -0.2166 -0.1465
 1717SOL    HW115010   3.301   4.571   1.414  1.3563  0.7480 -0.8976
 1717SOL    HW215011   3.199   4.502   1.307  1.4266 -1.0584  0.1854
 1718SOL     OW15012   2.828   7.521   0.732  0.1434  0.2672  0.3164
 1718SOL    HW115013   2.732   7.494   0.741  0.5011 -2.3174 -2.7691
 1718SOL    HW215014   2.884   7.467   0.795  0.0482 -1.4421 -1.0229
 1719SOL     OW15015   3.028   7.377   1.545  0.5393 -0.5239 -0.1360
 1719SOL    HW115016   3.081   7.381   1.629  0.3362 -0.4195 -0.0151
 1719SOL    HW215017   2.991   7.467   1.524  4.0186  0.4901 -2.5198
 1720SOL     OW15018   3.731   4.026   1.847  0.2724 -0.3394  0.3376
 1720SOL    HW115019   3.813   3.987   1.806  1.3896 -0.2292  2.3967
 1720SOL    HW215020   3.712   3.981   1.934 -1.9141 -0.4240 -0.1483
 1721SOL     OW15021   2.942   4.187   1.780 -0.4585 -0.0073  0.4141
 1721SOL    HW115022   2.923   4.281   1.811  0.6725  0.3830 -0.0443
 1721SOL    HW215023   3.025   4.154   1.824 -0.3293 -0.4401 -0.1557
 1722SOL     OW15024   3.035   2.030   0.222  0.8457 -0.0881 -0.2572
 1722SOL    HW115025   3.007   2.046   0.316 -2.8573 -3.0982 -0.7213
 1722SOL    HW215026   2.978   2.085   0.161  2.4329  0.9628 -0.7980
 1723SOL     OW15027   3.594   7.916   1.319 -0.2447 -0.6174  0.0775
 1723SOL    HW115028   3.592   8.015   1.302  0.0165 -0.2512  2.1211
 1723SOL    HW215029   3.688   7.884   1.314 -0.2558 -0.6512  0.0927
 1724SOL     OW15030   2.374   2.681  -0.016  0.6576  0.2512 -0.4891
 1724SOL    HW115031   2.387   2.582  -0.009  1.9611  0.5904  2.4425
 1724SOL    HW215032   2.276   2.701  -0.020  0.3910 -1.1630 -1.9713
 1725SOL     OW15033   3.829   4.479  -0.008  0.1340  0.1679 -0.7485
 1725SOL    HW115034   3.831   4.501  -0.106 -1.1814  2.2895 -0.3267
 1725SOL    HW215035   3.903   4.415   0.013 -1.0349 -2.2114 -3.5672
 1726SOL     OW15036   2.456   3.949   0.557 -0.1783  0.1616 -0.0200
 1726SOL    HW115037   2.435   4.028   0.499 -0.8950  0.1238  0.1913
 1726SOL    HW215038   2.413   3.867   0.519  0.7744 -0.1833 -0.3795
 1727SOL     OW15039   4.730   4.647   0.044 -0.6139  0.1431  0.2294
 1727SOL    HW115040   4.765   4.712   0.111 -0.7510 -0.1483  0.5868
 1727SOL    HW215041   4.804   4.587   0.013  0.0594  2.0124 -1.9097
 1728SOL     OW15042   3.393   7.937   0.369 -0.3499 -0.0523  0.3943
 1728SOL    HW115043   3.387   7.941   0.469  0.1961 -3.1334  0.5995
 1728SOL    HW215044   3.477   7.891   0.343 -2.2614 -2.6634 -1.3980
 1729SOL     OW15045   3.413   1.409   0.686  0.0196  0.1349 -0.1999
 1729SOL    HW115046   3.332   1.385   0.739  0.9119 -0.0540  1.1034
 1729SOL    HW215047   3.491   1.354   0.718  0.5769  0.0150 -1.7122
 1730SOL     OW15048   4.039   9.081   0.134  0.2584 -0.1303 -0.1208
 1730SOL    HW115049   3.945   9.047   0.139  0.9881 -2.0880  0.7380
 1730SOL    HW215050   4.054   9.147   0.207  0.1884 -1.4901  1.1439
 1731SOL     OW15051   2.472   8.705   0.263 -0.2264 -0.2899 -0.2806
 1731SOL    HW115052   2.413   8.637   0.217  0.6561 -0.8188 -0.6508
 1731SOL    HW215053   2.428   8.795   0.258 -0.4382 -0.4430 -1.6412
 1732SOL     OW15054   3.805   3.513   2.462 -0.5555 -0.0723 -0.2477
 1732SOL    HW115055   3.893   3.503   2.507 -1.3211  0.8758  1.4902
 1732SOL    HW215056   3.772   3.423   2.432  0.3505 -0.5947  0.3186
 1733SOL     OW15057   2.153   8.206   1.700 -0.2530  0.0362  0.2870
 1733SOL    HW115058   2.077   8.241   1.756  0.0771 -0.1354  0.8514
 1733SOL    HW215059   2.199   8.283   1.656  1.1047  0.4594  2.3404
 1734SOL     OW15060   4.363   4.398   2.039 -0.0673  0.1930  0.1744
 1734SOL    HW115061   4.403   4.306   2.028  2.0593  1.0691  0.2468
 1734SOL    HW215062   4.387   4.453   1.959 -0.1839  1.0830  0.7560
 1735SOL     OW15063   2.730   5.615   0.054  0.2378 -0.3728 -0.5003
 1735SOL    HW115064   2.806   5.642   0.113  0.5677 -0.3148 -0.9515
 1735SOL    HW215065   2.759   5.542  -0.007  0.1475  0.1330 -1.1628
 1736SOL     OW15066   2.117   1.494   2.512 -0.2795 -0.2290 -0.2901
 1736SOL    HW115067   2.128   1.539   2.423  1.3879  1.4982  0.7577
 1736SOL    HW215068   2.150   1.399   2.505  0.3172  0.0476 -1.3957
 1737SOL     OW15069   2.143   0.891   2.095 -0.3247 -0.1061 -0.3804
 1737SOL    HW115070   2.133   0.902   2.193 -1.0766 -2.3167 -0.1888
 1737SOL    HW215071   2.225   0.837   2.075 -1.0009 -0.9555 -0.8910
 1738SOL     OW15072   2.544   7.962   1.835  0.2070  0.0774  0.0197
 1738SOL    HW115073   2.607   8.036   1.815 -1.5345  2.2697  2.3794
 1738SOL    HW215074   2.539   7.948   1.934 -1.5009 -1.3934 -0.2447
 1739SOL     OW15075   2.956   4.539   1.668 -0.4194 -0.3223  0.2079
 1739SOL    HW115076   3.040   4.587   1.643 -0.2046 -0.8778 -0.1467
 1739SOL    HW215077   2.946   4.539   1.768  1.2330 -2.2993  0.4154
 1740SOL     OW15078   2.319   8.000   1.637  0.0516 -0.4447 -0.2635
 1740SOL    HW115079   2.360   7.964   1.721 -1.5439  0.6607  1.0334
 1740SOL    HW215080   2.238   8.054   1.661 -0.5390 -0.2880 -2.5431
 1741SOL     OW15081   3.215   3.999   1.187 -0.3833 -0.3075  0.3664
 1741SOL    HW115082   3.258   3.922   1.141  0.2229 -0.2762  0.8830
 1741SOL    HW215083   3.223   3.989   1.286  2.0403  1.7201  0.4248
 1742SOL     OW15084   3.013   5.497  -0.045  0.2341  0.0786 -0.3220
 1742SOL    HW115085   3.018   5.588  -0.005 -0.5249  0.0070 -0.0623
 1742SOL    HW215086   3.079   5.490  -0.120  0.6311  0.6850 -0.0311
 1743SOL     OW15087   2.073   8.581   0.485  0.3720  0.3128 -0.3185
 1743SOL    HW115088   2.022   8.621   0.561  2.6607  0.7271  1.0350
 1743SOL    HW215089   2.099   8.652   0.420  2.6249  0.7587  1.0225
 1744SOL     OW15090   2.739   5.202   1.326  0.2996 -0.2154 -0.0121
 1744SOL    HW115091   2.687   5.169   1.404 -0.3617 -0.8059 -0.6902
 1744SOL    HW215092   2.778   5.291   1.347  0.2615 -0.4409  1.0449
 1745SOL     OW15093   3.031   6.384   0.165 -0.0903  0.2222 -1.2366
 1745SOL    HW115094   3.124   6.420   0.157  0.0024  0.6625  1.4435
 1745SOL    HW215095   2.966   6.460   0.173 -0.5758 -0.0987 -2.1091
 1746SOL     OW15096   4.007   1.351   0.268 -0.5218  0.2691 -0.0197
 1746SOL    HW115097   3.961   1.322   0.185 -0.2870  0.0066 -0.0596
 1746SOL    HW215098   4.098   1.311   0.272 -1.0820 -0.9373  1.0836
 1747SOL     OW15099   2.602   2.222   0.782  0.2686 -0.0667 -0.2716
 1747SOL    HW115100   2.529   2.154   0.791  0.3484 -0.1335 -0.1282
 1747SOL    HW215101   2.654   2.203   0.699  1.1498 -1.0098  0.4877
 1748SOL     OW15102   2.184   9.614   1.719  0.9224  0.2197 -0.6066
 1748SOL    HW115103   2.227   9.690   1.672  0.4577  0.9338  0.1036
 1748SOL    HW215104   2.154   9.643   1.810  2.1365 -1.2274  0.2951
 1749SOL     OW15105   3.097   1.075   1.752  0.2547  0.2865 -0.2765
 1749SOL    HW115106   3.076   0.986   1.791  0.6765  0.1913 -0.2616
 1749SOL    HW215107   3.176   1.114   1.800 -0.4890  1.0702  0.3280
 1750SOL     OW15108   2.893   5.452   1.611 -0.0474 -0.0850  0.1344
 1750SOL    HW115109   2.827   5.394   1.657 -0.5339 -0.2177 -0.7240
 1750SOL    HW215110   2.877   5.449   1.512  1.5687 -0.5404 -0.1291
 1751SOL     OW15111   3.153   9.796  -0.037  1.1250  0.3035  0.1628
 1751SOL    HW115112   3.156   9.895  -0.055  1.4694  0.4112  0.7721
 1751SOL    HW215113   3.085   9.753  -0.096  1.8695  0.7164 -1.0126
 1752SOL     OW15114   3.583   1.984   2.224  0.6816  0.0459  0.0266
 1752SOL    HW115115   3.661   1.967   2.285  0.0638 -1.1894  0.4851
 1752SOL    HW215116   3.506   1.927   2.252 -0.3266  1.0953 -0.5581
 1753SOL     OW15117   4.013   8.496   1.528  0.1163 -0.4852  0.0513
 1753SOL    HW115118   3.991   8.440   1.608  1.6036  0.0419  0.8506
 1753SOL    HW215119   3.938   8.491   1.462 -0.5606 -1.9536  0.9099
 1754SOL     OW15120   3.430   2.174   1.825 -0.2946 -0.6032 -0.1700
 1754SOL    HW115121   3.444   2.237   1.750  0.6111  1.6568  1.8533
 1754SOL    HW215122   3.507   2.178   1.888 -2.5138  0.0188  2.6141
 1755SOL     OW15123   3.404   1.898   0.755 -0.0717 -0.2648  0.0604
 1755SOL    HW115124   3.311   1.876   0.785  0.1645  1.1737  1.9684
 1755SOL    HW215125   3.448   1.816   0.718 -1.7275 -1.1980  0.1036
 1756SOL     OW15126   3.401   9.390   0.985 -0.7304 -0.0351 -0.2371
 1756SOL    HW115127   3.326   9.333   0.952  0.2281 -0.2724 -2.0691
 1756SOL    HW215128   3.370   9.485   0.991 -1.6310 -0.3679  0.5438
 1757SOL     OW15129   4.444   0.892   1.767  0.4677 -0.3146 -0.5299
 1757SOL    HW115130   4.468   0.934   1.854  2.5117 -0.5992 -0.9383
 1757SOL    HW215131   4.359   0.932   1.732  1.4812  2.2681 -0.1010
 1758SOL     OW15132   3.335   1.618   0.461 -0.8647 -0.6285  0.0581
 1758SOL    HW115133   3.379   1.606   0.550 -0.2449  2.4134  0.2249
 1758SOL    HW215134   3.239   1.642   0.475 -0.1189  2.5886  0.0727
 1759SOL     OW15135   2.735   7.976   0.157 -0.0060 -0.8181  0.4706
 1759SOL    HW115136   2.654   7.985   0.099  0.0184 -0.8740  0.4269
 1759SOL    HW215137   2.740   8.053   0.220  0.5338 -0.1957 -0.3190
 1760SOL     OW15138   2.236   6.265   0.009 -0.1364  0.1736 -0.2172
 1760SOL    HW115139   2.305   6.280   0.079 -1.4765  2.2614  0.6976
 1760SOL    HW215140   2.148   6.244   0.052 -0.5415 -0.4810 -1.3320
 1761SOL     OW15141   1.532   8.516   1.590 -0.2611  0.2543 -0.1131
 1761SOL    HW115142   1.587   8.502   1.508 -0.2512  1.2332 -0.2868
 1761SOL    HW215143   1.439   8.543   1.564 -0.3105  0.3821  0.1916
 1762SOL     OW15144   4.796   1.891   0.291 -0.0554 -0.4179  0.1607
 1762SOL    HW115145   4.847   1.954   0.349  0.6656  1.2885 -2.2107
 1762SOL    HW215146   4.856   1.856   0.219 -1.5864 -0.2869 -1.2204
 1763SOL     OW15147   3.736   3.877   1.312 -0.1956 -0.1714 -0.4471
 1763SOL    HW115148   3.694   3.869   1.221 -0.9255  0.7188 -0.1992
 1763SOL    HW215149   3.795   3.958   1.314 -1.1222  0.5049  0.2191
 1764SOL     OW15150   5.418   3.511   0.882 -0.3825 -0.4406 -0.1659
 1764SOL    HW115151   5.370   3.482   0.964 -0.9432  0.7855 -0.0497
 1764SOL    HW215152   5.517   3.511   0.899 -0.4976 -0.1764  0.5263
 1765SOL     OW15153   3.294   9.603   1.291 -0.4287  0.0200 -0.1110
 1765SOL    HW115154   3.246   9.547   1.358 -1.0351 -0.0568 -0.6021
 1765SOL    HW215155   3.232   9.625   1.215  0.1979  0.2365 -0.5680
 1766SOL     OW15156   1.600   7.694   2.337 -0.4015 -0.3266  0.0419
 1766SOL    HW115157   1.681   7.726   2.287 -0.7737  0.5659  0.0007
 1766SOL    HW215158   1.620   7.606   2.379  0.0091 -0.9880 -1.4908
 1767SOL     OW15159   3.003   3.190   0.838  0.5340  0.3888 -0.3836
 1767SOL    HW115160   2.926   3.248   0.865  0.8047 -0.5859  2.5790
 1767SOL    HW215161   2.974   3.130   0.763 -1.1244  1.0576 -0.3154
 1768SOL     OW15162   2.840   9.064   0.866  0.2946  0.2123  0.3867
 1768SOL    HW115163   2.921   9.020   0.903 -0.6584 -0.2474  1.9817
 1768SOL    HW215164   2.867   9.131   0.797  1.9041 -1.1684 -0.3587
 1769SOL     OW15165   3.936   2.988   1.050  0.4290 -0.6866  0.4217
 1769SOL    HW115166   3.856   3.028   1.005  1.7260  0.6917 -0.6659
 1769SOL    HW215167   3.924   2.994   1.149  0.3709  1.9633  0.2754
 1770SOL     OW15168   4.676   2.856   2.592 -0.0722  0.1940  0.1922
 1770SOL    HW115169   4.578   2.835   2.600 -0.1301  0.1849 -0.5802
 1770SOL    HW215170   4.715   2.865   2.684 -1.0266  1.2985  0.4916
 1771SOL     OW15171   3.415   9.976   0.112 -0.2033  0.6045  0.0430
 1771SOL    HW115172   3.428   9.993   0.014 -2.0068 -1.2664 -0.5778
 1771SOL    HW215173   3.495   9.928   0.148 -0.2254 -0.1921 -0.9248
 1772SOL     OW15174   3.481   5.122   0.026 -0.1118 -0.4147 -0.3166
 1772SOL    HW115175   3.544   5.193  -0.003  0.9152 -1.2610 -0.1692
 1772SOL    HW215176   3.530   5.035   0.038 -0.9405 -0.6644  1.5755
 1773SOL     OW15177   3.251   0.443   0.081 -0.1914 -0.1623  0.4061
 1773SOL    HW115178   3.247   0.348   0.111 -1.2167 -0.3614 -0.3278
 1773SOL    HW215179   3.335   0.457   0.028 -0.1290 -0.7148  0.3518
 1774SOL     OW15180   3.534   8.007   0.106 -0.4805  0.0636  0.9710
 1774SOL    HW115181   3.608   8.029   0.169  0.2271 -0.1023  0.1900
 1774SOL    HW215182   3.462   8.076   0.114  0.7807  1.5032  0.0654
 1775SOL     OW15183   2.887   7.403   1.165  0.4095  0.5228 -0.0523
 1775SOL    HW115184   2.883   7.330   1.233 -0.3182  0.3200 -0.3029
 1775SOL    HW215185   2.983   7.422   1.142  0.6663  0.7220  1.1539
 1776SOL     OW15186   2.866   4.543   0.628 -0.0558 -0.0927  0.4802
 1776SOL    HW115187   2.919   4.518   0.547  0.6572  0.8615  0.6488
 1776SOL    HW215188   2.915   4.613   0.679 -1.0157  0.0748  1.1714
 1777SOL     OW15189   2.837   8.815   1.222 -0.3521 -0.3366 -0.1047
 1777SOL    HW115190   2.804   8.852   1.135 -1.0625  0.5871  0.5398
 1777SOL    HW215191   2.761   8.812   1.287  0.5276  0.5295  0.9839
 1778SOL     OW15192   2.250   3.671   0.403 -0.4586 -0.4575  0.3037
 1778SOL    HW115193   2.302   3.716   0.330  1.1870 -1.6510  0.7062
 1778SOL    HW215194   2.313   3.619   0.460 -1.9050 -0.5150  1.8570
 1779SOL     OW15195   3.438   8.927   0.993  0.0215  0.0815  0.0501
 1779SOL    HW115196   3.382   8.849   0.965 -0.5756 -0.3613  2.3156
 1779SOL    HW215197   3.505   8.897   1.061 -0.5805  1.5998  1.3626
 1780SOL     OW15198   2.715   8.855   0.978  0.8765 -0.0415  0.3531
 1780SOL    HW115199   2.724   8.931   0.914 -1.0132  0.1090  0.2231
 1780SOL    HW215200   2.618   8.839   0.997  1.3707 -0.5700  2.6073
 1781SOL     OW15201   4.387   4.598   1.862 -0.2223  0.3443  0.0705
 1781SOL    HW115202   4.402   4.694   1.885  0.2122  0.6375 -1.3699
 1781SOL    HW215203   4.377   4.589   1.762 -0.8188 -1.0277  0.2426
 1782SOL     OW15204   4.179   2.258   0.809  0.1951  0.1655 -0.2184
 1782SOL    HW115205   4.108   2.326   0.825 -0.2622 -0.7256  1.6671
 1782SOL    HW215206   4.244   2.259   0.885  0.2892 -1.3544 -0.2614
 1783SOL     OW15207   3.107   4.178   2.314  0.3316 -0.2074 -0.2146
 1783SOL    HW115208   3.047   4.098   2.305 -0.6118  0.4594  0.1081
 1783SOL    HW215209   3.184   4.168   2.252 -0.0976 -1.0850 -0.6228
 1784SOL     OW15210   2.295   7.256   0.083  0.4825 -0.0925  0.0363
 1784SOL    HW115211   2.241   7.329   0.040 -1.2852 -0.8692  0.8709
 1784SOL    HW215212   2.291   7.266   0.182 -0.4164 -1.7552  0.1849
 1785SOL     OW15213   3.875   0.636   0.837  0.1369 -0.3075  0.1390
 1785SOL    HW115214   3.810   0.702   0.799 -0.5322 -0.2345  1.3916
 1785SOL    HW215215   3.964   0.680   0.848  0.5769 -0.5559 -2.0840
 1786SOL     OW15216   4.486   2.684   1.564 -0.7559  0.2153  0.3654
 1786SOL    HW115217   4.433   2.766   1.582  1.1015  1.5892 -0.3227
 1786SOL    HW215218   4.460   2.646   1.475  0.2761  1.5940 -0.5398
 1787SOL     OW15219   4.809   4.143   1.228 -0.8062 -0.2013  0.3385
 1787SOL    HW115220   4.888   4.084   1.243 -0.5406  0.1314  0.2400
 1787SOL    HW215221   4.726   4.087   1.227 -0.5498 -0.5806  0.1892
 1788SOL     OW15222   2.717   1.493   0.094  0.1457 -0.2997  0.0110
 1788SOL    HW115223   2.797   1.520   0.040  0.5072  0.9812  1.1524
 1788SOL    HW215224   2.740   1.413   0.149  0.1789 -0.8318 -0.7741
 1789SOL     OW15225   3.005   2.631   1.704  0.5235 -0.0117  0.4300
 1789SOL    HW115226   3.065   2.606   1.628  1.0530  0.7038  0.6074
 1789SOL    HW215227   2.970   2.723   1.690 -0.1212 -0.2288  0.5916
 1790SOL     OW15228   3.401   8.431   2.587  0.8087 -0.4013  0.2217
 1790SOL    HW115229   3.418   8.421   2.489  0.5176  0.0735  0.1201
 1790SOL    HW215230   3.340   8.358   2.618 -2.6202  1.8917 -0.8539
 1791SOL     OW15231   2.701   2.912   0.921 -0.3221 -0.2283  0.7500
 1791SOL    HW115232   2.744   2.894   1.009  0.6344 -1.0459  0.1256
 1791SOL    HW215233   2.606   2.879   0.923 -0.3311 -0.1602  1.4983
 1792SOL     OW15234   3.229   4.678   1.686  0.0768  0.2091  0.3322
 1792SOL    HW115235   3.210   4.767   1.728  1.3528 -0.7063  2.9236
 1792SOL    HW215236   3.268   4.616   1.754  0.2290 -2.0128 -1.7063
 1793SOL     OW15237   3.826   9.453   0.733  0.3591 -0.3699 -1.0714
 1793SOL    HW115238   3.798   9.489   0.644  1.1662  0.4076 -1.0138
 1793SOL    HW215239   3.865   9.527   0.788 -1.8414 -0.4535  0.6349
 1794SOL     OW15240   2.742   5.682   1.685  0.1122  0.2606  0.4673
 1794SOL    HW115241   2.815   5.619   1.657  0.3535  0.6285  0.2666
 1794SOL    HW215242   2.697   5.646   1.767  0.3811 -0.0719  0.4724
 1795SOL     OW15243   2.706   2.300   0.530  0.2447  0.4735  0.6190
 1795SOL    HW115244   2.723   2.278   0.435 -0.4861  1.0810  0.3390
 1795SOL    HW215245   2.730   2.396   0.547 -2.2154  1.1754  0.3542
 1796SOL     OW15246   2.713   8.194   1.220  0.0641  0.4527  0.0768
 1796SOL    HW115247   2.634   8.135   1.237 -1.5672  2.0945 -1.5940
 1796SOL    HW215248   2.788   8.139   1.184 -1.9754 -0.4204 -3.0555
 1797SOL     OW15249   3.689   4.578   1.735 -0.3164 -0.7208 -0.7467
 1797SOL    HW115250   3.641   4.643   1.794  0.0369  1.2705 -2.5959
 1797SOL    HW215251   3.692   4.488   1.780  0.2454  0.7970  2.4313
 1798SOL     OW15252   2.321   4.569   1.905 -0.1676  0.0478  0.4130
 1798SOL    HW115253   2.272   4.569   1.818  1.1332  1.6730 -0.3586
 1798SOL    HW215254   2.419   4.556   1.887  0.6436  4.4062  1.2510
 1799SOL     OW15255   3.445   8.284   0.250 -0.4518 -0.4242  0.1220
 1799SOL    HW115256   3.530   8.287   0.197  0.3240 -0.6173  1.3220
 1799SOL    HW215257   3.423   8.376   0.282  0.1163 -0.6027  1.0478
 1800SOL     OW15258   2.424   9.376   0.552 -0.2607 -0.2678 -0.0408
 1800SOL    HW115259   2.457   9.425   0.633  0.0202 -0.6668  0.0916
 1800SOL    HW215260   2.328   9.352   0.564 -0.4003  0.2475 -0.1071
 1801SOL     OW15261   2.807   4.782   2.194 -0.1755  0.3986  0.0338
 1801SOL    HW115262   2.876   4.812   2.260  1.1695  2.2273 -2.1185
 1801SOL    HW215263   2.719   4.823   2.218  0.3611  1.2885  0.5227
 1802SOL     OW15264   2.259   8.399   1.540  0.2082  0.3480  0.1654
 1802SOL    HW115265   2.197   8.406   1.463  0.3425  2.8698  0.2377
 1802SOL    HW215266   2.352   8.422   1.511  0.3594  0.7584  0.9576
 1803SOL     OW15267   3.894   4.670   2.189 -0.1239  0.0632  0.3789
 1803SOL    HW115268   3.963   4.664   2.116  0.8319 -1.0458  1.3635
 1803SOL    HW215269   3.806   4.695   2.149  0.7587  1.1234 -0.9508
 1804SOL     OW15270   3.576   9.832   2.456  0.1948  0.9362 -0.1382
 1804SOL    HW115271   3.517   9.788   2.524  3.5462 -0.6106  1.9341
 1804SOL    HW215272   3.603   9.765   2.387 -1.0830  1.8464 -1.5547
 1805SOL     OW15273   3.224   0.755   1.407 -0.4929 -0.3853 -0.2923
 1805SOL    HW115274   3.266   0.733   1.319 -0.2848  0.3966 -0.3989
 1805SOL    HW215275   3.294   0.795   1.467 -0.7431 -0.4790  0.0611
 1806SOL     OW15276   2.385   9.289   1.461 -0.2092  0.2283 -0.2698
 1806SOL    HW115277   2.293   9.326   1.448 -1.4088 -1.9661  1.7354
 1806SOL    HW215278   2.451   9.364   1.458 -1.9335  1.7112 -2.7202
 1807SOL     OW15279   5.123   1.779   0.922  0.1112  0.2506  0.1249
 1807SOL    HW115280   5.172   1.694   0.909 -0.4409 -0.3054  1.5264
 1807SOL    HW215281   5.125   1.833   0.838  1.5363 -0.5761 -0.3765
 1808SOL     OW15282   2.577   1.728   0.937  0.5790  0.0648  0.3024
 1808SOL    HW115283   2.604   1.663   0.866  0.5135  0.6830 -0.2863
 1808SOL    HW215284   2.477   1.733   0.942  0.5838  0.6840 -0.1710
 1809SOL     OW15285   3.678   0.614   1.152 -0.3160  0.3481  0.5825
 1809SOL    HW115286   3.739   0.540   1.124 -1.8837 -0.2094 -1.4600
 1809SOL    HW215287   3.680   0.686   1.084 -2.5655 -0.0653  0.0411
 1810SOL     OW15288   2.452   1.807   0.602 -0.4700  0.3317 -0.3812
 1810SOL    HW115289   2.446   1.832   0.506 -2.8086  0.8053 -0.1491
 1810SOL    HW215290   2.360   1.797   0.640  0.4111 -0.7449  1.5833
 1811SOL     OW15291   2.448   5.984   0.684 -0.0074 -0.3699  0.4658
 1811SOL    HW115292   2.479   6.079   0.693 -1.6324  0.2977 -0.7300
 1811SOL    HW215293   2.405   5.955   0.769  0.3491  0.0158  0.7794
 1812SOL     OW15294   3.405   8.241   1.032 -0.1559  0.1951  0.5417
 1812SOL    HW115295   3.365   8.289   1.111 -0.1142 -2.1873  2.0586
 1812SOL    HW215296   3.347   8.254   0.952 -0.8011  1.7112  1.2332
 1813SOL     OW15297   3.006   8.342   0.972 -1.0247 -0.0085 -0.3020
 1813SOL    HW115298   2.967   8.371   0.884  0.9599  1.1397 -0.8452
 1813SOL    HW215299   2.991   8.415   1.039  0.6228  0.7030 -0.6687
 1814SOL     OW15300   3.093   9.077   0.537 -0.4028 -0.0250  0.0329
 1814SOL    HW115301   3.071   9.083   0.439 -0.4446 -1.4544 -0.0496
 1814SOL    HW215302   3.190   9.099   0.550  0.2055 -2.2135 -0.6353
 1815SOL     OW15303   2.715   2.627   0.516  0.1366  0.0754  0.1375
 1815SOL    HW115304   2.786   2.603   0.450 -0.9810 -1.9922 -0.3691
 1815SOL    HW215305   2.652   2.693   0.474  0.7324  0.5311 -0.0469
 1816SOL     OW15306   4.700   4.412   1.673 -0.3777 -0.2600  0.6109
 1816SOL    HW115307   4.706   4.326   1.622 -0.6059  0.2101 -0.2155
 1816SOL    HW215308   4.757   4.481   1.628 -2.0859  0.7034 -0.1074
 1817SOL     OW15309   2.432   3.249   1.970 -0.4107  0.0654 -0.5036
 1817SOL    HW115310   2.475   3.338   1.984  0.2957 -0.2967 -0.3375
 1817SOL    HW215311   2.347   3.261   1.920  0.1542  0.7432 -1.3313
 1818SOL     OW15312   2.808   6.381   1.378  0.4216 -0.3537 -0.1845
 1818SOL    HW115313   2.804   6.464   1.321  0.9032  0.4291  0.9071
 1818SOL    HW215314   2.857   6.401   1.463  1.5041 -2.0548 -0.3771
 1819SOL     OW15315   3.006   3.958   0.509 -0.2653 -0.2199  0.8417
 1819SOL    HW115316   3.064   3.950   0.590  0.7855 -1.5643 -0.0116
 1819SOL    HW215317   3.048   4.022   0.444 -1.4466  1.3825  1.6118
 1820SOL     OW15318   2.849   9.280   2.278 -0.1521  0.5465 -0.1019
 1820SOL    HW115319   2.812   9.205   2.222  0.3923  1.4950 -1.7530
 1820SOL    HW215320   2.834   9.367   2.232  3.0466  1.0715 -0.2366
 1821SOL     OW15321   1.963   7.782   2.505  0.4094  0.0173 -0.4826
 1821SOL    HW115322   1.897   7.769   2.579  0.3229 -0.2054 -0.5995
 1821SOL    HW215323   1.924   7.748   2.420  0.5047  0.2883 -0.6319
 1822SOL     OW15324   3.442   9.896   1.002 -0.1138 -0.1533  0.0427
 1822SOL    HW115325   3.492   9.981   1.020  2.4453 -1.7929  0.9325
 1822SOL    HW215326   3.456   9.869   0.906 -0.2567  0.0132 -0.0244
 1823SOL     OW15327   2.729   7.386   1.910  0.4654  0.1913  0.1556
 1823SOL    HW115328   2.676   7.385   1.995  0.5410 -1.9523  0.2033
 1823SOL    HW215329   2.728   7.479   1.871 -1.2054  0.7470  1.4645
 1824SOL     OW15330   4.868   2.274   1.341 -0.1169 -0.4619  0.1243
 1824SOL    HW115331   4.856   2.268   1.440 -0.0023  0.8710  0.2357
 1824SOL    HW215332   4.795   2.225   1.295 -1.1599  0.3831  0.8614
 1825SOL     OW15333   1.889   9.683   1.104  0.0662  0.2217  0.0615
 1825SOL    HW115334   1.808   9.718   1.151 -0.7794 -0.3495 -0.9689
 1825SOL    HW215335   1.863   9.609   1.043  1.4425 -0.2960  0.0848
 1826SOL     OW15336   3.400   9.536   0.179  0.6554  0.1293  0.3222
 1826SOL    HW115337   3.318   9.522   0.234  0.7528 -0.0843  0.4156
 1826SOL    HW215338   3.417   9.454   0.124  0.4527  0.4121 -0.1621
 1827SOL     OW15339   1.767   8.941   0.979  0.3652  0.3066  0.4193
 1827SOL    HW115340   1.767   8.852   0.934 -0.2931  0.7171 -0.3941
 1827SOL    HW215341   1.684   8.952   1.033  0.5186  0.3709  0.6468
 1828SOL     OW15342   3.252   2.775   1.022 -0.0566  0.4251 -0.6192
 1828SOL    HW115343   3.186   2.850   1.019 -0.7144 -0.0526  1.1248
 1828SOL    HW215344   3.304   2.773   0.937 -1.3973  1.6196 -1.4947
 1829SOL     OW15345   3.345   2.398   0.612  0.1919 -0.0285 -0.1657
 1829SOL    HW115346   3.299   2.313   0.638  0.9202  0.2491  2.1697
 1829SOL    HW215347   3.418   2.417   0.678 -1.1341  3.3590  0.4107
 1830SOL     OW15348   4.122   1.030   0.347  0.1706 -0.1124 -0.1709
 1830SOL    HW115349   4.167   1.111   0.309 -0.1007 -0.3316 -0.9719
 1830SOL    HW215350   4.040   1.059   0.397 -1.8081 -0.1097 -3.2497
 1831SOL     OW15351   3.267   5.775   2.371  0.2053 -0.1201 -0.4310
 1831SOL    HW115352   3.203   5.851   2.367  0.9420  0.5288  0.0474
 1831SOL    HW215353   3.360   5.809   2.361  0.4156 -1.1798 -2.3775
 1832SOL     OW15354   4.642   2.761   1.766 -0.5961  1.0037  0.6229
 1832SOL    HW115355   4.586   2.738   1.686  0.3417  0.4811  0.0980
 1832SOL    HW215356   4.644   2.684   1.829 -1.6783  1.5695  1.3654
 1833SOL     OW15357   2.965   9.678   2.525  0.7803  0.4438  0.3292
 1833SOL    HW115358   2.872   9.647   2.507  0.8594  0.4451 -0.0888
 1833SOL    HW215359   3.030   9.614   2.484  0.9319  1.7251 -1.4851
 1834SOL     OW15360   2.984   9.877   1.487  0.1959 -0.2918  0.3577
 1834SOL    HW115361   2.973   9.891   1.389 -1.4683 -1.2563  0.4021
 1834SOL    HW215362   3.048   9.945   1.523 -0.4218  1.0759 -1.1025
 1835SOL     OW15363   2.525   7.162  -0.042 -0.0815  0.2938 -0.4050
 1835SOL    HW115364   2.505   7.124  -0.132 -0.5201 -2.4632  0.7939
 1835SOL    HW215365   2.442   7.203  -0.004 -0.5372 -0.7442 -0.2611
 1836SOL     OW15366   4.725   4.443   1.950  0.0076 -0.1765 -0.6313
 1836SOL    HW115367   4.700   4.417   1.857  0.5354 -0.8956 -0.5739
 1836SOL    HW215368   4.774   4.368   1.994  0.7084  0.5523 -0.1436
 1837SOL     OW15369   4.098   3.237   1.747  0.1195  0.0368  0.0948
 1837SOL    HW115370   4.167   3.166   1.736  0.6720  1.0286 -3.5574
 1837SOL    HW215371   4.007   3.194   1.755  0.7213 -1.1258  0.8953
 1838SOL     OW15372   4.629   3.961   0.500  0.0674 -0.0703  0.0282
 1838SOL    HW115373   4.583   3.881   0.538 -0.0446 -0.0384 -0.0390
 1838SOL    HW215374   4.578   4.043   0.524  0.5343  0.0393  0.6457
 1839SOL     OW15375   2.743   6.850   0.861  0.6111  0.8030  0.0109
 1839SOL    HW115376   2.674   6.823   0.928 -0.4823 -0.5190 -1.5914
 1839SOL    HW215377   2.765   6.947   0.872 -1.3735  1.2014  0.6784
 1840SOL     OW15378   2.136   1.563   2.206 -0.1216 -0.1832 -0.4839
 1840SOL    HW115379   2.150   1.464   2.210  0.8732 -0.0739 -1.1539
 1840SOL    HW215380   2.089   1.587   2.122  0.2457 -0.0187 -0.6437
 1841SOL     OW15381   3.807   9.053   0.635 -0.3489 -0.2278 -0.1780
 1841SOL    HW115382   3.800   8.974   0.574  0.0515 -0.5245  0.1604
 1841SOL    HW215383   3.762   9.032   0.722 -0.1097 -0.1367 -0.0328
 1842SOL     OW15384   4.584   3.234   1.945 -0.2431 -0.2110 -0.0318
 1842SOL    HW115385   4.497   3.230   1.994  0.1234  0.6863  0.7018
 1842SOL    HW215386   4.656   3.195   2.002 -0.3812 -2.1806 -1.1616
 1843SOL     OW15387   3.769   1.341   0.406 -0.2550  0.1862 -0.1380
 1843SOL    HW115388   3.861   1.338   0.368  0.1608  0.3667  0.8232
 1843SOL    HW215389   3.775   1.348   0.506 -1.3197 -1.1017  0.0220
 1844SOL     OW15390   2.443   7.306   1.185 -0.5864  0.3126  0.5837
 1844SOL    HW115391   2.349   7.299   1.216 -0.7410 -3.6767 -0.4968
 1844SOL    HW215392   2.445   7.322   1.086 -0.1423  0.9123  0.6865
 1845SOL     OW15393   2.110   4.496   1.414 -0.3605  0.2243  0.4249
 1845SOL    HW115394   2.107   4.538   1.505  0.5398  0.0107  0.5590
 1845SOL    HW215395   2.138   4.400   1.422 -1.9062 -0.2811  0.0698
 1846SOL     OW15396   3.129   8.054   0.665  0.4298  0.3361 -0.3038
 1846SOL    HW115397   3.063   7.979   0.671  1.2733 -0.3881 -0.0071
 1846SOL    HW215398   3.111   8.107   0.582 -1.6104  1.1916  0.6397
 1847SOL     OW15399   2.302   3.105   0.727  0.1502  0.2054 -0.6519
 1847SOL    HW115400   2.250   3.043   0.668 -1.7050  3.6594 -2.7702
 1847SOL    HW215401   2.399   3.098   0.706  0.0631 -2.4787 -0.3212
 1848SOL     OW15402   3.386   0.736   1.171  0.2225  0.5164  0.2832
 1848SOL    HW115403   3.428   0.825   1.154  0.4145  0.6713  1.5155
 1848SOL    HW215404   3.457   0.668   1.185  0.0822  0.4952  0.9337
 1849SOL     OW15405   5.470   3.865   0.825 -0.2178 -0.2718  0.2229
 1849SOL    HW115406   5.433   3.777   0.796  0.6429 -0.6150  0.1524
 1849SOL    HW215407   5.452   3.879   0.922  1.0868 -1.2733  0.6228
 1850SOL     OW15408   3.177   1.925   0.461 -0.8386  0.3883  0.0618
 1850SOL    HW115409   3.171   1.902   0.364 -1.3067  0.3520  0.0977
 1850SOL    HW215410   3.179   1.840   0.515 -0.3922  0.4065  0.0728
 1851SOL     OW15411   1.753   9.376   2.168  0.8066  0.0022  0.1463
 1851SOL    HW115412   1.674   9.337   2.215 -0.3355  0.8869 -0.9883
 1851SOL    HW215413   1.739   9.372   2.069  2.2946 -0.0353 -0.0802
 1852SOL     OW15414   3.085   1.678   0.545 -0.1572 -0.2606 -0.3871
 1852SOL    HW115415   3.039   1.590   0.553 -1.0117  0.3586  1.8606
 1852SOL    HW215416   3.041   1.744   0.606  0.5547  1.6866 -1.9321
 1853SOL     OW15417   2.090   8.044   2.332  0.8784 -0.5433  0.1156
 1853SOL    HW115418   1.993   8.052   2.358  1.0017 -0.0718  0.4294
 1853SOL    HW215419   2.133   7.972   2.387  0.6834 -0.8254 -0.0952
 1854SOL     OW15420   2.167   9.500   0.238 -0.0518 -0.3619  0.3748
 1854SOL    HW115421   2.183   9.487   0.140 -3.0769 -0.1170 -0.1947
 1854SOL    HW215422   2.208   9.587   0.266 -1.9571  1.1941 -1.4407
 1855SOL     OW15423   5.180   2.436   0.307 -0.3328  0.3733 -0.1717
 1855SOL    HW115424   5.263   2.453   0.254 -0.9890  0.6205 -1.1218
 1855SOL    HW215425   5.137   2.524   0.330  0.0840  0.2804  0.9836
 1856SOL     OW15426   4.310   4.657   0.156  0.0438 -0.1685  0.5044
 1856SOL    HW115427   4.316   4.696   0.064  1.9346  0.5735  0.9138
 1856SOL    HW215428   4.337   4.561   0.154  0.3573 -0.0797  0.3105
 1857SOL     OW15429   4.536   2.973   0.153  0.1227 -0.6590 -0.3170
 1857SOL    HW115430   4.633   2.960   0.170  0.3316  0.1822 -0.8166
 1857SOL    HW215431   4.512   2.936   0.064  0.0561 -0.5380 -0.3495
 1858SOL     OW15432   2.925   1.126  -0.086 -0.2608 -0.6893 -0.2477
 1858SOL    HW115433   2.887   1.194  -0.148  1.2696  1.1354  0.7527
 1858SOL    HW215434   2.868   1.044  -0.087 -1.0585 -0.1458 -2.9371
 1859SOL     OW15435   2.457   3.553   0.553  0.0913  0.5423 -0.1818
 1859SOL    HW115436   2.531   3.603   0.507 -1.0055  1.1148 -1.3368
 1859SOL    HW215437   2.454   3.459   0.517  0.5381  0.3749  0.2008
 1860SOL     OW15438   2.829   7.102   1.017  0.5706  0.0584  0.0147
 1860SOL    HW115439   2.784   7.146   0.940  0.6788 -0.6464 -0.4612
 1860SOL    HW215440   2.805   7.148   1.102 -0.6445 -0.0109 -0.2905
 1861SOL     OW15441   2.351   9.387   1.081 -0.1422  0.2025 -0.3034
 1861SOL    HW115442   2.354   9.295   1.120  0.3929 -0.4405 -1.7947
 1861SOL    HW215443   2.319   9.452   1.150 -3.1607 -1.5083  0.0111
 1862SOL     OW15444   4.138   4.609   2.030  0.8971 -0.0110 -0.3620
 1862SOL    HW115445   4.097   4.563   1.952  1.1000 -0.6533 -0.0898
 1862SOL    HW215446   4.219   4.559   2.060  0.7195  0.1295  0.3702
 1863SOL     OW15447   3.349   1.168   1.844 -0.0715 -0.2627  0.0343
 1863SOL    HW115448   3.343   1.262   1.875  2.0429  0.1863 -0.8274
 1863SOL    HW215449   3.444   1.138   1.845 -0.5471 -1.9381 -1.0196
 1864SOL     OW15450   2.602   3.820   0.748  0.1889 -0.3982  0.4053
 1864SOL    HW115451   2.558   3.874   0.676  1.0003 -0.0272  0.1789
 1864SOL    HW215452   2.689   3.785   0.715 -0.1189 -1.4661  0.7123
 1865SOL     OW15453   2.805   1.023   1.522  0.2747  0.2832 -0.0323
 1865SOL    HW115454   2.833   1.103   1.469 -0.9247  1.2656  0.7581
 1865SOL    HW215455   2.818   0.940   1.468 -0.6162  1.2322 -1.7612
 1866SOL     OW15456   2.014   9.151   2.502  0.1653 -0.9178 -0.4356
 1866SOL    HW115457   2.021   9.129   2.600 -2.2170  0.3048  0.0498
 1866SOL    HW215458   2.056   9.241   2.486  0.4978 -1.0880 -0.5246
 1867SOL     OW15459   3.378   0.468   2.367  0.2023  0.2948  0.3072
 1867SOL    HW115460   3.322   0.416   2.302 -1.0192 -1.1788  2.4405
 1867SOL    HW215461   3.467   0.488   2.327 -0.5319 -0.5745 -1.8083
 1868SOL     OW15462   3.953   9.738   1.691  0.2826  0.0729  0.9053
 1868SOL    HW115463   4.049   9.717   1.674  0.0644 -0.4383  0.2701
 1868SOL    HW215464   3.946   9.813   1.756  1.1468  2.0858 -1.2701
 1869SOL     OW15465   1.836   6.481   1.452 -0.0491 -0.0189 -0.1495
 1869SOL    HW115466   1.776   6.478   1.372  1.3640 -0.6453 -1.2091
 1869SOL    HW215467   1.796   6.427   1.526 -0.3504 -1.2263 -1.1707
 1870SOL     OW15468   3.829   1.628  -0.076  0.1046 -0.5502 -0.0607
 1870SOL    HW115469   3.837   1.559  -0.149 -2.5895 -1.3037  0.2719
 1870SOL    HW215470   3.745   1.680  -0.090  0.6892  0.7822  1.2950
 1871SOL     OW15471   3.653   0.839   1.003 -0.3556  0.7309 -0.3377
 1871SOL    HW115472   3.660   0.846   0.903  1.6383  2.8218 -0.0744
 1871SOL    HW215473   3.617   0.924   1.041 -1.1137 -0.0546  0.7701
 1872SOL     OW15474   5.395   3.809   1.330  0.0316  0.0772  0.0128
 1872SOL    HW115475   5.335   3.787   1.408 -1.9179  1.6676 -0.9994
 1872SOL    HW215476   5.474   3.860   1.363 -0.6783  0.5644  0.9799
 1873SOL     OW15477   3.323   1.901   2.534 -0.4484 -0.4237 -0.1078
 1873SOL    HW115478   3.323   2.001   2.533  1.7296 -0.4001  0.4540
 1873SOL    HW215479   3.235   1.869   2.569 -1.0086  1.2915  0.1421
 1874SOL     OW15480   4.639   2.927   1.993  0.2457 -0.4910  0.1022
 1874SOL    HW115481   4.730   2.904   2.027  0.4381 -1.6874 -1.1847
 1874SOL    HW215482   4.613   2.864   1.921 -2.0718 -0.8498  1.1916
 1875SOL     OW15483   3.641   5.302   1.383  0.1123 -0.5164 -0.0767
 1875SOL    HW115484   3.662   5.347   1.296 -0.4506 -1.5722 -0.7748
 1875SOL    HW215485   3.609   5.370   1.449  2.0242  0.5354 -0.1961
 1876SOL     OW15486   2.242   5.042   1.800  0.3440  0.0601 -0.4411
 1876SOL    HW115487   2.286   5.095   1.727  0.1775 -0.5665 -1.0106
 1876SOL    HW215488   2.176   5.100   1.848  1.3306  0.8180  0.0037
 1877SOL     OW15489   2.851   2.067   0.432 -0.0771 -0.3730 -0.2878
 1877SOL    HW115490   2.777   2.060   0.498 -0.9823 -2.0125 -1.4502
 1877SOL    HW215491   2.876   2.163   0.420 -1.7269  0.1578  0.4212
 1878SOL     OW15492   3.417   0.840   1.970  0.0903  0.6707 -0.1716
 1878SOL    HW115493   3.410   0.760   2.029 -1.8395  2.6515  2.4269
 1878SOL    HW215494   3.331   0.855   1.922  0.7986  0.5833 -1.5084
 1879SOL     OW15495   2.862   5.041   0.555 -0.0214 -0.8735  0.1760
 1879SOL    HW115496   2.827   5.100   0.628 -1.4811 -1.9031  0.3251
 1879SOL    HW215497   2.833   4.947   0.572  1.8064 -1.5510 -0.3683
 1880SOL     OW15498   3.974   1.641   0.307  0.1186 -1.0516  0.2338
 1880SOL    HW115499   3.975   1.544   0.283  0.1429 -1.1631  0.6722
 1880SOL    HW215500   4.056   1.663   0.360  1.1184 -0.3461 -1.5582
 1881SOL     OW15501   3.120   2.658   0.824 -0.5839  0.1258 -0.7316
 1881SOL    HW115502   3.021   2.662   0.810 -0.9659 -1.8982  1.0481
 1881SOL    HW215503   3.140   2.673   0.921  0.9061  1.0642 -1.1757
 1882SOL     OW15504   2.621   2.479   0.930 -0.4068 -0.0769  0.2205
 1882SOL    HW115505   2.622   2.383   0.903 -3.1822  0.2018 -1.0979
 1882SOL    HW215506   2.686   2.530   0.873  1.8460 -1.2804  1.6239
 1883SOL     OW15507   1.734   9.664   1.655  0.1254  0.0082 -0.8142
 1883SOL    HW115508   1.795   9.741   1.674  0.1117  0.0162 -0.8016
 1883SOL    HW215509   1.662   9.661   1.724  0.5459 -0.4566 -0.3904
 1884SOL     OW15510   3.653   3.291   2.355 -0.3009 -0.1790  0.3243
 1884SOL    HW115511   3.574   3.349   2.336  1.7304  2.6905  0.1520
 1884SOL    HW215512   3.717   3.296   2.278  1.2978 -0.2070  1.6145
 1885SOL     OW15513   2.824   3.083   0.448  0.0220  0.2985  0.4404
 1885SOL    HW115514   2.830   3.041   0.538  0.2621 -1.4444 -0.3695
 1885SOL    HW215515   2.894   3.045   0.388 -0.5761  0.9311 -0.6816
 1886SOL     OW15516   3.201   9.425   1.939 -0.2157 -0.0301 -0.3198
 1886SOL    HW115517   3.178   9.329   1.921  1.9591 -0.4910 -0.7445
 1886SOL    HW215518   3.228   9.470   1.854 -0.1301  0.6433  0.0625
 1887SOL     OW15519   3.632   5.658   0.693 -0.0743 -0.1730  0.0710
 1887SOL    HW115520   3.615   5.698   0.783  0.5491  2.3802 -0.8975
 1887SOL    HW215521   3.554   5.678   0.634  0.9802  1.1197 -0.9126
 1888SOL     OW15522   2.870   3.752   0.645 -0.0360  0.5406  0.0565
 1888SOL    HW115523   2.801   3.717   0.582  0.2268  0.6943 -0.3191
 1888SOL    HW215524   2.936   3.809   0.594  1.1192 -0.6787  0.1719
 1889SOL     OW15525   5.146   4.416   2.002 -0.4519 -0.2252  0.0516
 1889SOL    HW115526   5.213   4.484   1.974  0.3246 -0.2823  1.6866
 1889SOL    HW215527   5.087   4.393   1.925  2.1447 -1.0355 -1.7868
 1890SOL     OW15528   3.249   8.103   0.241  0.2772 -0.4327 -0.5476
 1890SOL    HW115529   3.309   8.030   0.273 -0.7764 -0.9949  0.1606
 1890SOL    HW215530   3.300   8.189   0.239  1.3411 -1.0617 -0.7574
 1891SOL     OW15531   3.838   4.301   0.499  0.2169 -0.0810 -0.2204
 1891SOL    HW115532   3.820   4.287   0.402  0.6584 -1.2161 -0.1412
 1891SOL    HW215533   3.775   4.247   0.554  0.5253 -0.1048  0.1178
 1892SOL     OW15534   3.321   0.960   2.280 -0.2254  0.1708  0.1081
 1892SOL    HW115535   3.384   0.981   2.205 -0.7498  0.5492 -0.2317
 1892SOL    HW215536   3.310   1.041   2.338 -0.3907  0.1056  0.1681
 1893SOL     OW15537   3.383   4.723  -0.038  0.4123  0.2831  0.1192
 1893SOL    HW115538   3.397   4.729  -0.137 -1.3342 -0.0791 -0.1791
 1893SOL    HW215539   3.443   4.788   0.009  2.6161 -0.8519 -1.0360
 1894SOL     OW15540   4.654   4.623   2.390 -0.1538  0.0329 -0.1547
 1894SOL    HW115541   4.751   4.634   2.409 -0.4265 -1.1008  2.0265
 1894SOL    HW215542   4.642   4.597   2.294  1.5004  2.4731 -1.0777
 1895SOL     OW15543   2.777   4.322   0.337  0.7700 -0.1035 -0.3833
 1895SOL    HW115544   2.745   4.321   0.242 -1.6365  1.2218  0.3973
 1895SOL    HW215545   2.775   4.229   0.373  2.3756 -0.7348 -1.8081
 1896SOL     OW15546   2.739   5.274   1.745 -0.5451  0.0308 -0.8418
 1896SOL    HW115547   2.663   5.287   1.809 -0.5956  2.3435 -1.3308
 1896SOL    HW215548   2.707   5.226   1.664 -0.8192 -1.5702  0.1824
 1897SOL     OW15549   3.713   9.149   1.152 -0.1539  0.3490 -1.0674
 1897SOL    HW115550   3.720   9.068   1.210  1.8908  1.6851  0.6467
 1897SOL    HW215551   3.625   9.194   1.167  0.4220  0.7610  1.1297
 1898SOL     OW15552   2.109   6.473   1.532  0.2992  0.2566  0.5427
 1898SOL    HW115553   2.087   6.432   1.620  0.0029 -0.4555  0.1427
 1898SOL    HW215554   2.028   6.473   1.474  0.4117  1.0166  0.3833
 1899SOL     OW15555   4.401   2.998   0.408 -0.1671 -0.1997  0.2236
 1899SOL    HW115556   4.464   2.943   0.462  1.0604  0.7344 -0.2517
 1899SOL    HW215557   4.415   2.980   0.311 -1.6033 -1.0287  0.1396
 1900SOL     OW15558   2.996   2.197   1.323 -0.3188  0.0537  0.3952
 1900SOL    HW115559   3.085   2.203   1.368  0.2832 -1.6788 -0.5004
 1900SOL    HW215560   3.000   2.245   1.235 -0.2352 -0.0975  0.3157
 1901SOL     OW15561   2.492   2.180   1.429  0.5010  0.0985 -0.1504
 1901SOL    HW115562   2.426   2.223   1.368 -0.8340 -1.2043  0.3232
 1901SOL    HW215563   2.583   2.218   1.413 -0.0356  0.6150 -2.1163
 1902SOL     OW15564   2.716   3.705   0.444 -0.3776  0.3582 -0.1894
 1902SOL    HW115565   2.780   3.675   0.374 -0.9935  0.2814 -0.7266
 1902SOL    HW215566   2.655   3.774   0.406  0.2088  1.3757  0.6803
 1903SOL     OW15567   2.423   3.572   2.439 -0.0796 -0.8019  0.2427
 1903SOL    HW115568   2.392   3.647   2.499 -0.0640  0.8168 -1.7270
 1903SOL    HW215569   2.474   3.610   2.362  1.7972 -3.0400  0.3404
 1904SOL     OW15570   2.192   8.392   0.329  0.3336 -0.3833 -0.0413
 1904SOL    HW115571   2.136   8.450   0.388  0.7803 -0.1909  0.2006
 1904SOL    HW215572   2.273   8.362   0.380  0.9364  0.1307 -0.6875
 1905SOL     OW15573   3.769   9.580   1.834 -0.1075  0.0739  0.0979
 1905SOL    HW115574   3.840   9.634   1.788 -0.7379  1.3543  0.5876
 1905SOL    HW215575   3.706   9.544   1.765 -0.1896  0.7136 -0.1687
 1906SOL     OW15576   2.246   0.491   1.503  0.3671  0.8406 -0.2251
 1906SOL    HW115577   2.224   0.588   1.503 -0.5637  0.6354 -0.5219
 1906SOL    HW215578   2.167   0.439   1.470  1.4585  0.1264 -1.7744
 1907SOL     OW15579   2.211   2.596   1.944 -0.2861  0.2395 -0.2087
 1907SOL    HW115580   2.151   2.676   1.946 -0.3786  0.1815 -0.7556
 1907SOL    HW215581   2.257   2.590   1.856 -0.4319 -0.4249 -0.2454
 1908SOL     OW15582   2.703   7.178   0.793 -0.1642  0.6852 -0.0483
 1908SOL    HW115583   2.611   7.216   0.802  0.4777  2.5629 -1.0973
 1908SOL    HW215584   2.712   7.132   0.705 -0.4238 -0.5143  0.5318
 1909SOL     OW15585   3.495   9.542   0.621 -0.2254  0.3408  0.0181
 1909SOL    HW115586   3.478   9.449   0.655 -0.1397  0.5572  0.6538
 1909SOL    HW215587   3.580   9.542   0.568 -0.0664  0.1157  0.2652
 1910SOL     OW15588   3.577   8.810   1.476 -0.1188 -0.5368  0.0281
 1910SOL    HW115589   3.499   8.843   1.529  1.4252 -0.0572  2.0691
 1910SOL    HW215590   3.623   8.888   1.432 -1.3180 -0.9202 -1.9453
 1911SOL     OW15591   4.098   1.612   0.020  0.4380 -0.3508  0.1800
 1911SOL    HW115592   4.106   1.712   0.013 -0.7714 -0.1528  1.2074
 1911SOL    HW215593   4.005   1.585  -0.006  0.3905 -1.0679  1.0668
 1912SOL     OW15594   2.719   1.737   2.515  0.1518  0.5210 -0.3316
 1912SOL    HW115595   2.761   1.756   2.426  1.9198  0.8030  0.5602
 1912SOL    HW215596   2.782   1.686   2.572 -1.1218  0.0211  0.6574
 1913SOL     OW15597   2.171   4.281   2.080 -0.0132 -0.1325  0.3517
 1913SOL    HW115598   2.143   4.281   1.984 -0.4494 -0.7660  0.4667
 1913SOL    HW215599   2.108   4.223   2.132 -0.8541  1.6395  1.3392
 1914SOL     OW15600   4.676   4.694   1.035 -0.2397  0.1996  0.4842
 1914SOL    HW115601   4.758   4.653   1.076  0.7994 -1.7017 -3.3348
 1914SOL    HW215602   4.697   4.787   1.005  0.6789 -0.4644 -0.9536
 1915SOL     OW15603   3.225   0.241   2.494 -0.5279  0.0871  0.2785
 1915SOL    HW115604   3.267   0.329   2.470  1.8759 -0.4114  2.4021
 1915SOL    HW215605   3.255   0.172   2.429 -0.2506  0.2931  0.1829
 1916SOL     OW15606   3.927   3.747  -0.039 -0.4307  0.0322  0.3408
 1916SOL    HW115607   3.961   3.690   0.035  0.6324  0.0461 -0.1196
 1916SOL    HW215608   3.842   3.792  -0.012  1.0924  1.7841  2.3934
 1917SOL     OW15609   3.830   3.297   1.554 -0.3990 -0.0639 -0.4938
 1917SOL    HW115610   3.909   3.286   1.493 -0.0277  0.3180 -0.0820
 1917SOL    HW215611   3.808   3.394   1.563  0.0520 -0.0625  0.6225
 1918SOL     OW15612   3.839   5.055   2.258 -0.2079  0.1789  0.8295
 1918SOL    HW115613   3.868   5.127   2.194  0.8985  0.6953  1.9045
 1918SOL    HW215614   3.916   4.994   2.277 -0.6667 -0.2601  1.3038
 1919SOL     OW15615   3.408   9.715  -0.062  0.3802 -0.1601 -0.1637
 1919SOL    HW115616   3.430   9.628  -0.017 -0.1450 -0.3639 -0.2896
 1919SOL    HW215617   3.313   9.740  -0.040 -0.2566 -0.8193 -2.0371
 1920SOL     OW15618   2.259   3.645  -0.018  0.0325  0.1562 -0.4397
 1920SOL    HW115619   2.290   3.587   0.057 -2.2609 -2.1404 -1.1553
 1920SOL    HW215620   2.201   3.718   0.018  1.8009  1.1943  0.3423
 1921SOL     OW15621   3.203   4.811   2.012  0.2152  0.1688 -0.2473
 1921SOL    HW115622   3.210   4.790   2.109  0.8548  1.1181 -0.0734
 1921SOL    HW215623   3.119   4.862   1.995  0.8798  1.4278  0.0998
 1922SOL     OW15624   2.104   8.916   0.060  0.1996 -0.5217 -0.9316
 1922SOL    HW115625   2.192   8.956   0.083 -0.2993  0.3100 -0.4205
 1922SOL    HW215626   2.106   8.882  -0.035  0.1438  2.2058 -1.9597
 1923SOL     OW15627   3.435   9.357  -0.065  0.0124 -1.0468  0.0891
 1923SOL    HW115628   3.368   9.408  -0.120  0.5090  1.1776  1.5032
 1923SOL    HW215629   3.408   9.260  -0.061 -1.8516 -0.6104 -1.2620
 1924SOL     OW15630   3.113   1.400   0.005 -0.0923 -0.6431  0.1564
 1924SOL    HW115631   3.111   1.349   0.091  1.0567  0.9545  1.1317
 1924SOL    HW215632   3.111   1.335  -0.071  2.1739 -2.2080  1.3834
 1925SOL     OW15633   2.998   9.569   1.252 -0.3014  0.2299  0.5579
 1925SOL    HW115634   2.978   9.554   1.349  1.6100 -1.4322  0.7440
 1925SOL    HW215635   2.994   9.666   1.231  1.5206  0.8529  2.8763
 1926SOL     OW15636   3.942   9.619   1.403 -0.1452  0.5181  0.0306
 1926SOL    HW115637   3.888   9.677   1.341  0.0585  1.3061  0.5868
 1926SOL    HW215638   3.977   9.541   1.352  0.6686  1.5656 -1.0540
 1927SOL     OW15639   4.359   2.980   1.957  0.1492  0.2956  0.2383
 1927SOL    HW115640   4.343   2.906   2.022  0.3260  0.3664  0.3644
 1927SOL    HW215641   4.458   2.990   1.942  0.1459  0.7058  0.4621
  10.00000  10.00000   2.84800
