chitosan Film  in water:acetic acid 2%
17154
    1CHTO  H203    1   5.989   7.331   2.162  0.4967 -0.4763  2.1358
    1CHTO   O82    2   6.027   7.250   2.135  0.4182  0.2331 -0.2199
    1CHTO  C123    3   6.099   7.204   2.242 -1.1820  0.5232  0.4732
    1CHTO  H227    4   6.078   7.262   2.333  1.6893  1.8859  0.3346
    1CHTO   O77    5   6.052   7.066   2.262  0.2123  0.1462  0.4396
    1CHTO  C118    6   6.121   7.003   2.371  0.3008 -1.1219 -0.4986
    1CHTO  H222    7   6.105   7.065   2.460  0.1482  0.8467 -1.8719
    1CHTO  C125    8   6.054   6.862   2.390  0.3280  0.1779  0.2621
    1CHTO   O84    9   6.083   6.807   2.521  0.4723 -0.1685 -0.4065
    1CHTO  H205   10   6.015   6.750   2.550  0.5160 -0.8318 -1.5984
    1CHTO  C114   11   6.270   6.982   2.341 -0.3136  0.0382 -0.0494
    1CHTO  H218   12   6.279   6.920   2.252  2.3815 -0.9164  0.8293
    1CHTO  C116   13   6.333   7.120   2.315  0.3880  0.4388 -0.2499
    1CHTO  H220   14   6.344   7.168   2.414  1.3176  1.5309 -0.8716
    1CHTO   O79   15   6.469   7.109   2.272  0.1834  0.1441  0.1603
    1CHTO  H201   16   6.496   7.195   2.247  0.2566 -0.5760 -2.3714
    1CHTO  C120   17   6.248   7.217   2.211  0.9271  0.1553  0.7776
    1CHTO  H224   18   6.261   7.176   2.109 -0.3873  0.6301  0.4178
    1CHTO   N21   19   6.307   7.356   2.204 -0.5466  0.5934  0.1624
    1CHTO  H211   20   6.235   7.421   2.155 -0.6282 -0.2607 -0.8748
    1CHTO  H212   21   6.391   7.356   2.136  1.2555  0.3486  2.3405
    1CHTO   O75   22   6.328   6.911   2.446 -0.5379 -0.0881 -0.0607
    1CHTO  C112   23   6.415   6.790   2.410  0.2067  1.0000  0.7651
    1CHTO  H216   24   6.419   6.781   2.301 -1.8012  0.1760  0.7366
    1CHTO   O73   25   6.351   6.681   2.467 -0.3426  0.4211 -0.0064
    1CHTO  C113   26   6.403   6.558   2.421 -0.0612 -0.5225 -0.1738
    1CHTO  H217   27   6.389   6.543   2.312 -1.0490  2.4429 -0.4825
    1CHTO  C124   28   6.322   6.439   2.479  0.1441  0.4909 -0.3724
    1CHTO   O83   29   6.189   6.457   2.440  0.4166  0.5599 -0.4092
    1CHTO  H204   30   6.142   6.497   2.511 -2.4339 -0.5935 -1.5933
    1CHTO  C109   31   6.550   6.537   2.469  0.1727  0.1968 -0.3593
    1CHTO  H213   32   6.542   6.527   2.578  0.2549  0.7821 -0.2949
    1CHTO  C110   33   6.634   6.666   2.439 -0.6916  0.2495 -0.2768
    1CHTO  H214   34   6.653   6.657   2.332 -2.1325  1.4067 -0.6504
    1CHTO   O78   35   6.757   6.662   2.516 -0.4694  0.3044 -0.3956
    1CHTO  H200   36   6.790   6.748   2.529  1.0776 -0.1938 -0.9443
    1CHTO  C111   37   6.560   6.796   2.469  0.0950 -0.7706  0.1007
    1CHTO  H215   38   6.544   6.806   2.577 -1.1849  0.8001 -0.2157
    1CHTO   N19   39   6.629   6.921   2.425  0.5717  0.1765 -0.0637
    1CHTO  H207   40   6.585   7.009   2.471  0.3472 -0.1511  0.3514
    1CHTO  H208   41   6.636   6.924   2.318  1.0813  1.8894 -0.0046
    1CHTO   O74   42   6.618   6.419   2.420 -0.5022 -0.1360  0.0221
    1CHTO  C115   43   6.689   6.321   2.523 -0.1391  0.9771 -0.1252
    1CHTO  H219   44   6.668   6.351   2.626 -0.6822 -0.4427  0.1872
    1CHTO   O76   45   6.637   6.168   2.504  0.3981 -0.2528  0.3250
    1CHTO  C122   46   6.645   6.111   2.372  0.3468  0.2022  0.0147
    1CHTO  H226   47   6.563   6.158   2.318  0.2432  0.3900  0.3319
    1CHTO  C126   48   6.623   5.951   2.369 -0.9536 -0.1201 -0.1440
    1CHTO   O85   49   6.585   5.921   2.240 -1.0385  0.4563  0.0303
    1CHTO  H206   50   6.564   5.830   2.244  0.4074  0.1834  2.8784
    1CHTO  C121   51   6.784   6.155   2.298 -0.6849  0.2328  0.6913
    1CHTO  H225   52   6.830   6.071   2.242 -0.6416  1.5116 -1.2111
    1CHTO   O81   53   6.755   6.263   2.209 -0.6711  0.2686  0.0182
    1CHTO  H202   54   6.835   6.309   2.195  1.1042 -2.7229 -0.1804
    1CHTO  C119   55   6.886   6.204   2.407  0.1514 -0.5629  0.0845
    1CHTO  H223   56   6.907   6.121   2.474 -0.5778 -1.2930 -0.5825
    1CHTO  C117   57   6.843   6.328   2.497 -0.3340 -0.3159 -0.0237
    1CHTO  H221   58   6.862   6.423   2.447  1.3785  0.2680  1.7145
    1CHTO   N20   59   6.926   6.338   2.616 -0.1654 -0.7013 -0.6229
    1CHTO  H209   60   6.991   6.423   2.622 -1.2923  0.0608  1.8409
    1CHTO  H210   61   6.861   6.357   2.701 -0.7707  0.0813 -1.2457
    1CHTO   O80   62   7.027   6.233   2.333  0.6760  0.6558 -0.2096
    1CHTO  C103   63   7.143   6.151   2.364  0.4194  0.5095  0.0124
    1CHTO  H190   64   7.143   6.143   2.472  1.2891  0.9227  0.0438
    1CHTO  C101   65   7.147   6.011   2.291 -0.1520 -0.0418  0.0551
    1CHTO  H188   66   7.126   6.029   2.186  0.9199 -0.9686 -0.3220
    1CHTO   O68   67   7.036   5.908   2.355 -0.6313  0.3243 -0.4464
    1CHTO  H168   68   6.948   5.940   2.360 -1.1604 -1.0591 -0.7600
    1CHTO   C99   69   7.296   5.947   2.295  0.1311 -0.6150  0.6444
    1CHTO  H186   70   7.309   5.905   2.397  0.5083  0.7471  1.1709
    1CHTO   N17   71   7.300   5.834   2.198 -0.1989 -0.3047 -0.0517
    1CHTO  H174   72   7.271   5.878   2.104 -0.5688  1.8131  1.0288
    1CHTO  H175   73   7.395   5.783   2.195  0.3431  0.5463  1.6604
    1CHTO   C97   74   7.408   6.049   2.273  0.0491  0.1762  0.5170
    1CHTO  H184   75   7.420   6.073   2.166  2.6481 -1.6141  0.3520
    1CHTO   O64   76   7.386   6.163   2.352  0.4598 -0.2852 -0.0784
    1CHTO  C104   77   7.266   6.239   2.327  0.3002 -0.0454 -0.2668
    1CHTO  H191   78   7.269   6.267   2.221 -1.0634  2.7335  0.3910
    1CHTO  C108   79   7.273   6.370   2.405  0.4087  0.1928  0.4194
    1CHTO   O71   80   7.383   6.449   2.369  0.7131  0.5715  0.3772
    1CHTO  H171   81   7.360   6.537   2.393  1.9611  0.3247  2.6194
    1CHTO   O62   82   7.528   5.997   2.336  0.5025  0.3731  0.1413
    1CHTO   C91   83   7.632   5.937   2.250 -0.1701 -0.7311  0.3143
    1CHTO  H178   84   7.593   5.938   2.148  0.7138 -1.6289 -0.0442
    1CHTO   C92   85   7.656   5.788   2.302 -0.0798  0.5365 -0.1640
    1CHTO  H179   86   7.569   5.755   2.360  1.4323 -0.2911  1.6810
    1CHTO   O66   87   7.678   5.700   2.192  0.1885 -0.1477 -0.1521
    1CHTO  H166   88   7.595   5.696   2.150  0.7623 -1.3934 -1.2120
    1CHTO   C93   89   7.785   5.765   2.387  0.0316 -0.7037 -0.0665
    1CHTO  H180   90   7.798   5.657   2.404  0.1900 -1.0029 -1.9822
    1CHTO   N16   91   7.772   5.816   2.524 -0.6736  0.8085 -0.3896
    1CHTO  H172   92   7.740   5.918   2.536  0.5936  0.9437  2.1961
    1CHTO  H173   93   7.863   5.804   2.581  0.5026  4.3659 -1.4111
    1CHTO   C94   94   7.910   5.823   2.308 -0.3372 -0.3763 -0.4014
    1CHTO  H181   95   7.988   5.858   2.376  0.1508 -2.1775  0.0030
    1CHTO   O61   96   7.882   5.925   2.205 -0.5729  0.2762 -0.4544
    1CHTO   C95   97   7.772   6.010   2.247  0.0704 -0.2445 -1.0541
    1CHTO  H182   98   7.799   6.051   2.345 -2.7147  1.9117 -1.1274
    1CHTO  C106   99   7.759   6.135   2.154  0.3437  0.5582 -0.3220
    1CHTO   O69  100   7.726   6.248   2.237  0.5614  0.5516 -0.9547
    1CHTO  H169  101   7.680   6.316   2.193  0.0798  1.1289  0.3881
    1CHTO   O63  102   7.962   5.686   2.228 -0.5150 -0.5561 -0.2327
    1CHTO   C96  103   8.119   5.636   2.288  0.5910  0.2545  0.6775
    1CHTO  H183  104   8.117   5.641   2.397 -0.2474  2.2343  0.6058
    1CHTO   C98  105   8.230   5.741   2.241 -0.4891 -1.4493 -0.4634
    1CHTO  H185  106   8.194   5.844   2.256 -0.5540 -1.0579 -3.0563
    1CHTO   O67  107   8.347   5.722   2.321  0.8693  0.5466  0.2878
    1CHTO  H167  108   8.323   5.754   2.406  0.2758  0.9437 -0.0277
    1CHTO  C102  109   8.277   5.731   2.090 -0.4558  0.4338 -0.1839
    1CHTO  H189  110   8.377   5.779   2.089  0.2855 -1.0788 -0.5649
    1CHTO   N18  111   8.196   5.812   1.990 -0.1780  0.0735  0.2329
    1CHTO  H176  112   8.176   5.764   1.895  1.1642 -2.0025  0.9542
    1CHTO  H177  113   8.246   5.907   1.980  1.2711 -0.8139 -1.1916
    1CHTO  C105  114   8.300   5.580   2.050 -0.3278  0.5199 -0.1622
    1CHTO  H192  115   8.296   5.571   1.941 -0.9816 -0.5299 -0.0647
    1CHTO   O65  116   8.206   5.485   2.098  0.3966  0.0008  0.2518
    1CHTO  C100  117   8.156   5.491   2.230  0.3693 -0.2154  0.0595
    1CHTO  H187  118   8.057   5.442   2.224 -0.2941  1.1886 -0.7794
    1CHTO  C107  119   8.247   5.405   2.323 -0.1958  0.1869  0.5907
    1CHTO   O70  120   8.226   5.265   2.299  0.6074 -0.0326 -0.1115
    1CHTO  H170  121   8.180   5.238   2.376  0.5885  1.7445  0.5305
    1CHTO   O57  122   8.447   5.556   2.094  0.0465  0.3867  0.2888
    1CHTO   C85  123   8.522   5.459   2.028  0.3580 -0.0357  0.5465
    1CHTO  H157  124   8.461   5.418   1.945  0.8671  0.1654  0.0693
    1CHTO   C83  125   8.557   5.338   2.119  0.1716  0.3841  0.5159
    1CHTO  H155  126   8.465   5.289   2.153  1.4115 -0.6585  2.4350
    1CHTO   O56  127   8.614   5.387   2.240  0.3252  0.6839 -0.5102
    1CHTO  H135  128   8.542   5.414   2.294 -0.2057  0.5043 -1.1289
    1CHTO   C81  129   8.639   5.238   2.029 -0.3227  0.0718 -0.8750
    1CHTO  H153  130   8.584   5.222   1.936 -0.3867  0.1047 -0.8432
    1CHTO   N14  131   8.655   5.101   2.085  0.2055 -0.1485 -0.3047
    1CHTO  H141  132   8.663   5.036   2.000 -1.7644 -1.2263  0.3036
    1CHTO  H142  133   8.751   5.105   2.133 -0.2846 -1.2413  0.7918
    1CHTO   C79  134   8.777   5.310   1.988  0.2558 -0.7285  0.3518
    1CHTO  H151  135   8.836   5.238   1.932  0.3937 -0.9089  0.7253
    1CHTO   O52  136   8.762   5.438   1.922  0.3167 -0.5142  0.2035
    1CHTO   C86  137   8.653   5.522   1.971 -0.8181 -0.2857  0.3041
    1CHTO  H158  138   8.699   5.583   2.053  1.6813 -0.5096 -0.8792
    1CHTO   C90  139   8.624   5.616   1.854 -0.4194 -0.1977  0.0233
    1CHTO   O60  140   8.528   5.722   1.861  0.4233  0.7523 -0.2470
    1CHTO  H138  141   8.568   5.807   1.863  1.4775  0.3262 -2.0656
    1CHTO   O50  142   8.855   5.345   2.108 -0.2296 -0.1973  0.2604
    1CHTO   C73  143   8.993   5.344   2.130 -0.5032  0.2749 -0.5847
    1CHTO  H145  144   9.043   5.353   2.033 -1.7425  0.0150 -1.2535
    1CHTO   C74  145   9.041   5.211   2.185 -0.4186 -0.4023 -0.1455
    1CHTO  H146  146   8.997   5.136   2.118 -0.2620  1.2601 -2.1295
    1CHTO   O54  147   9.184   5.208   2.175 -0.2059  0.4411  0.4374
    1CHTO  H133  148   9.217   5.178   2.093 -1.1077 -1.9393  0.9053
    1CHTO   C75  149   8.984   5.198   2.337 -0.1742  0.0290  0.4729
    1CHTO  H147  150   8.874   5.204   2.333 -0.2880 -2.3396 -1.4550
    1CHTO   N13  151   9.011   5.061   2.391 -0.2661 -0.4263 -0.0175
    1CHTO  H139  152   9.004   5.066   2.498 -0.6812  0.6642 -0.0890
    1CHTO  H140  153   8.979   4.972   2.339 -1.6523 -0.5316  0.9985
    1CHTO   C76  154   9.047   5.314   2.419  0.8898 -0.3268 -0.3666
    1CHTO  H148  155   9.155   5.306   2.409  0.9135 -0.4319 -0.0308
    1CHTO   O49  156   9.010   5.443   2.362 -0.4877 -0.0952  0.1017
    1CHTO   C77  157   9.051   5.461   2.225 -0.1842  0.1128 -0.0376
    1CHTO  H149  158   9.158   5.448   2.238 -0.1693  0.1475 -0.1222
    1CHTO   C88  159   9.026   5.606   2.182 -0.3423  0.4575  0.6026
    1CHTO   O58  160   9.060   5.626   2.035 -0.0485  0.0390  0.1206
    1CHTO  H136  161   9.027   5.707   2.001  1.7874  0.1187 -1.4836
    1CHTO   O51  162   9.001   5.308   2.585 -0.3416 -0.2886  0.0929
    1CHTO   C78  163   8.909   5.418   2.650 -0.4374  0.2251  0.2139
    1CHTO  H150  164   8.892   5.499   2.576  1.7353 -0.1809 -0.7592
    1CHTO   C80  165   8.975   5.482   2.774 -0.5339  0.2952 -0.2852
    1CHTO  H152  166   9.015   5.400   2.838 -2.0698 -0.4840 -0.3099
    1CHTO   O55  167   9.098   5.548   2.740  0.6143  0.3841  0.1094
    1CHTO  H134  168   9.163   5.481   2.730 -0.4605 -0.6563  0.1204
    1CHTO   C84  169   8.880   5.580   2.854 -0.0215 -0.3795  0.2478
    1CHTO  H156  170   8.880   5.665   2.786 -0.7447 -0.1986  0.4786
    1CHTO   N15  171   8.932   5.634   2.980  0.3419 -0.6468 -0.0948
    1CHTO  H143  172   8.905   5.572   3.063  0.9126 -0.9462 -0.1360
    1CHTO  H144  173   9.037   5.652   2.971 -0.1170  0.5232 -4.7410
    1CHTO   C87  174   8.735   5.529   2.868  0.2117 -0.5244  0.0064
    1CHTO  H159  175   8.727   5.471   2.960 -0.4078 -1.0313 -0.3643
    1CHTO   O53  176   8.685   5.443   2.761  0.1606 -0.1222  0.1890
    1CHTO   C82  177   8.775   5.353   2.686  0.3107 -0.1476  1.1465
    1CHTO  H154  178   8.798   5.256   2.730  0.3872 -0.5759  0.1673
    1CHTO   C89  179   8.699   5.317   2.559  0.0998  0.2415  0.7058
    1CHTO   O59  180   8.576   5.248   2.585 -0.6493 -0.5560 -0.0206
    1CHTO  H137  181   8.527   5.316   2.626  0.7738  1.4207 -1.4646
    1CHTO   O45  182   8.638   5.639   2.890 -0.1625 -0.2981 -0.1751
    1CHTO   C67  183   8.601   5.733   2.791  0.0055  0.0337 -0.0105
    1CHTO  H124  184   8.691   5.752   2.733 -0.4996 -1.4511 -1.3217
    1CHTO   C65  185   8.485   5.677   2.699  0.6544  0.0244  0.2082
    1CHTO  H122  186   8.469   5.572   2.723 -0.3157 -0.6205 -2.9211
    1CHTO   O44  187   8.533   5.686   2.562 -0.1117  0.6714  0.4871
    1CHTO  H102  188   8.488   5.623   2.509  2.6077 -1.0541  0.1029
    1CHTO   C63  189   8.349   5.751   2.731  0.1845  0.9682 -0.0618
    1CHTO  H120  190   8.329   5.738   2.838  0.7044  1.4199  0.0973
    1CHTO   N11  191   8.220   5.689   2.683  0.2327  0.5818  0.2397
    1CHTO  H108  192   8.205   5.702   2.578 -0.0459 -0.5988  0.1245
    1CHTO  H109  193   8.136   5.727   2.737 -0.4272 -1.5028  0.7309
    1CHTO   C61  194   8.368   5.902   2.706  0.1867  0.0268 -0.1212
    1CHTO  H118  195   8.288   5.954   2.761  0.1136  0.7117 -0.8502
    1CHTO   O40  196   8.497   5.955   2.752  0.4922  0.4803 -0.1148
    1CHTO   C68  197   8.563   5.870   2.856  0.2386  0.3847 -0.1789
    1CHTO  H125  198   8.493   5.853   2.941  0.2151  0.2999 -0.2142
    1CHTO   C72  199   8.692   5.944   2.914  0.1789  0.5826  0.0024
    1CHTO   O48  200   8.669   6.052   3.005 -0.5539  0.4571 -0.2562
    1CHTO  H105  201   8.613   6.026   3.076 -0.1747 -4.7810 -1.7453
    1CHTO   O38  202   8.358   5.935   2.565 -0.0479  0.2810 -0.3792
    1CHTO   C55  203   8.327   6.069   2.537 -0.4537 -0.0759 -0.8718
    1CHTO  H112  204   8.345   6.134   2.625 -0.4499  0.1671 -1.0514
    1CHTO   C56  205   8.168   6.083   2.484  0.3930 -0.5156 -0.1351
    1CHTO  H113  206   8.145   5.988   2.434 -0.8428  0.6857 -1.8787
    1CHTO   O42  207   8.078   6.080   2.592 -0.0438 -0.1542 -0.3332
    1CHTO  H100  208   8.004   6.025   2.574  0.6922 -1.8561  1.5779
    1CHTO   C57  209   8.148   6.212   2.396 -0.3171 -0.1211 -0.0766
    1CHTO  H114  210   8.061   6.271   2.424  0.3120  2.2237 -2.8249
    1CHTO   N10  211   8.113   6.181   2.252 -0.5059  0.0934 -0.0990
    1CHTO  H106  212   8.005   6.169   2.247 -0.6402  0.8961  0.6480
    1CHTO  H107  213   8.136   6.264   2.188 -2.8002  1.1102  0.3381
    1CHTO   C58  214   8.266   6.310   2.412 -0.4905  0.5909  0.5716
    1CHTO  H115  215   8.249   6.399   2.349  4.5956 -0.4139 -2.4521
    1CHTO   O37  216   8.399   6.256   2.387 -0.0840 -0.2881 -0.0470
    1CHTO   C59  217   8.418   6.118   2.416  0.7579  0.2033 -0.1592
    1CHTO  H116  218   8.401   6.068   2.321  0.8100  0.5689 -0.3613
    1CHTO   C70  219   8.571   6.099   2.439  0.1746 -0.3272  0.5635
    1CHTO   O46  220   8.635   6.155   2.554  0.1970 -0.0879 -0.4383
    1CHTO  H103  221   8.717   6.124   2.586  2.1499  4.4635 -0.6681
    1CHTO   O39  222   8.256   6.368   2.563  0.7505  0.3444 -0.6677
    1CHTO   C60  223   8.228   6.503   2.571  0.6906 -0.3006 -0.4420
    1CHTO  H117  224   8.253   6.548   2.475  2.6999 -2.8692 -1.1905
    1CHTO   C62  225   8.074   6.515   2.607 -0.0225  0.2418 -0.3866
    1CHTO  H119  226   8.011   6.469   2.527  1.1150  1.8785 -2.2523
    1CHTO   O43  227   8.039   6.450   2.733  0.1744 -0.5337  0.3196
    1CHTO  H101  228   8.111   6.464   2.791  0.7584 -0.4520 -0.4187
    1CHTO   C66  229   8.038   6.673   2.609  0.3625 -0.4592 -0.3315
    1CHTO  H123  230   8.075   6.717   2.517 -1.3908  1.7609 -0.0246
    1CHTO   N12  231   7.894   6.707   2.618 -0.1784 -0.5214  0.1763
    1CHTO  H110  232   7.852   6.707   2.518 -1.0006 -1.1903  0.5180
    1CHTO  H111  233   7.884   6.804   2.665 -1.1014 -0.2964 -0.4539
    1CHTO   C69  234   8.125   6.737   2.725 -0.0036 -0.1183 -0.4676
    1CHTO  H126  235   8.091   6.692   2.820 -1.0999  3.3989  0.9048
    1CHTO   O41  236   8.284   6.716   2.701  0.3649 -0.3625  0.6578
    1CHTO   C64  237   8.321   6.571   2.681 -1.0341  0.0234 -0.2564
    1CHTO  H121  238   8.311   6.516   2.776  2.9007 -0.9611 -0.3411
    1CHTO   C71  239   8.474   6.547   2.648 -0.0187 -0.6339  0.6344
    1CHTO   O47  240   8.520   6.601   2.523 -0.0745  0.4071 -0.2459
    1CHTO  H104  241   8.613   6.594   2.528 -0.2519 -1.0715  1.5959
    1CHTO   O34  242   8.115   6.877   2.736 -0.2662  0.3095 -0.8418
    1CHTO   C49  243   8.140   7.029   2.791  0.7267 -0.0677 -0.8470
    1CHTO   H91  244   8.210   7.012   2.873 -1.2662 -0.8992  0.7209
    1CHTO   C47  245   7.996   7.084   2.829 -0.0154  0.5121  0.3764
    1CHTO   H89  246   8.014   7.183   2.876  1.2190  0.1231  0.7444
    1CHTO   O33  247   7.939   6.990   2.920 -0.5067 -1.2278  0.8559
    1CHTO   H70  248   7.906   6.918   2.871  1.0326 -0.9551 -0.6521
    1CHTO   C45  249   7.914   7.113   2.691  0.5543  0.3400 -0.1452
    1CHTO   H87  250   7.909   7.014   2.643  1.5941  0.2284 -0.0361
    1CHTO    N8  251   7.775   7.151   2.715 -0.3466 -0.2112 -0.2336
    1CHTO   H75  252   7.748   7.182   2.815 -1.6340  0.8656 -0.8982
    1CHTO   H76  253   7.730   7.203   2.632 -0.2442  1.4486  0.7308
    1CHTO   C43  254   7.998   7.211   2.598  0.2779  0.4715 -0.2939
    1CHTO   H85  255   7.942   7.225   2.506 -1.8366  1.2419  1.0688
    1CHTO   O29  256   8.133   7.159   2.576  0.1197 -0.4455 -0.6052
    1CHTO   C50  257   8.212   7.110   2.689 -0.4034 -0.8374  0.0030
    1CHTO   H92  258   8.286   7.034   2.657 -0.9207 -0.9031 -1.0553
    1CHTO   C54  259   8.296   7.232   2.748  0.9260  0.7908  0.8069
    1CHTO   O36  260   8.387   7.263   2.641  0.0914 -0.1885  0.6219
    1CHTO   H72  261   8.405   7.354   2.631 -3.0200  0.1854 -2.4458
    1CHTO   O27  262   8.006   7.348   2.643 -0.1263 -0.2423  0.1849
    1CHTO   C37  263   7.965   7.480   2.614  0.2689  0.2773  0.1886
    1CHTO   H79  264   7.974   7.506   2.507 -0.5737 -0.4345 -0.0655
    1CHTO   C38  265   7.807   7.494   2.639  0.2367 -0.4753  0.1289
    1CHTO   H80  266   7.788   7.452   2.739  0.8937 -1.7079 -0.2397
    1CHTO   O31  267   7.746   7.407   2.542 -0.4875  0.0922  0.4577
    1CHTO   H68  268   7.653   7.420   2.548 -0.7339 -1.0914 -0.4630
    1CHTO   C39  269   7.751   7.646   2.629  0.3099  0.1601 -0.7981
    1CHTO   H81  270   7.762   7.681   2.527  0.0527  2.8651  0.0744
    1CHTO    N7  271   7.606   7.642   2.669  0.1017  0.2665  0.3067
    1CHTO   H73  272   7.600   7.642   2.777 -0.9562 -1.6275  0.2696
    1CHTO   H74  273   7.572   7.737   2.632  0.2974  0.5608  0.8799
    1CHTO   C40  274   7.844   7.745   2.725  0.1504  0.7271  0.5043
    1CHTO   H82  275   7.821   7.706   2.824 -0.9879  1.5932  0.5879
    1CHTO   O26  276   7.981   7.724   2.693  0.0956 -0.1972 -0.1842
    1CHTO   C41  277   8.042   7.586   2.703  0.4778  0.1852  0.6015
    1CHTO   H83  278   8.037   7.560   2.809  2.6670  0.8188  0.8964
    1CHTO   C52  279   8.193   7.594   2.670 -0.0918 -0.4290  0.6705
    1CHTO   O35  280   8.272   7.677   2.770 -0.1695  0.3956  0.4325
    1CHTO   H71  281   8.263   7.646   2.858 -0.8531 -2.1649 -0.4988
    1CHTO   O28  282   7.822   7.893   2.717  0.3149 -0.1934  0.8393
    1CHTO   C42  283   7.839   7.975   2.597 -0.1282 -0.5062 -0.2395
    1CHTO   H84  284   7.840   7.899   2.519  0.7173  0.3770 -1.1079
    1CHTO   C44  285   7.971   8.055   2.575 -0.5873  0.3702 -0.2163
    1CHTO   H86  286   7.971   8.144   2.637 -0.9108  0.4989 -0.4023
    1CHTO   O32  287   8.081   7.970   2.613  0.0669 -0.1678 -0.8223
    1CHTO   H69  288   8.145   8.022   2.657 -1.3650  0.2420  0.8416
    1CHTO   C48  289   7.978   8.114   2.425  0.4301 -0.3460  0.1069
    1CHTO   H90  290   7.994   8.032   2.355  0.6949  0.3350 -0.6393
    1CHTO    N9  291   8.101   8.207   2.408 -0.1804 -1.3491 -0.1710
    1CHTO   H77  292   8.087   8.269   2.321 -3.6129 -0.1160  1.1786
    1CHTO   H78  293   8.112   8.266   2.498 -2.5808  0.0464 -0.7459
    1CHTO   C51  294   7.842   8.196   2.393 -0.6776 -0.2930 -0.3736
    1CHTO   H93  295   7.843   8.283   2.458 -0.8452 -0.5062 -0.0844
    1CHTO   O30  296   7.724   8.119   2.415 -0.4405  0.0541  0.3542
    1CHTO   C46  297   7.716   8.067   2.570  0.8848  0.0323  0.3569
    1CHTO   H88  298   7.714   8.154   2.635  0.0676  0.2905 -0.0104
    1CHTO   C53  299   7.569   8.002   2.567 -0.1517  0.0187  0.0640
    1CHTO   O72  300   7.473   8.104   2.538  0.0379 -0.2441  0.6972
    1CHTO  H199  301   7.474   8.162   2.611  0.8723 -0.1365  0.6021
    1CHTO   O22  302   7.843   8.220   2.248 -0.2283  0.1508 -0.1150
    1CHTO   C31  303   7.756   8.319   2.187 -0.2470  0.0766  0.5139
    1CHTO   H59  304   7.678   8.342   2.263 -2.1698 -2.4767 -0.6083
    1CHTO   C29  305   7.826   8.457   2.153 -0.0835  0.4981  0.5418
    1CHTO   H57  306   7.917   8.421   2.104  0.7033  0.3466  2.0832
    1CHTO   O21  307   7.879   8.513   2.273 -0.3083 -0.0191  0.4023
    1CHTO   H37  308   7.898   8.605   2.264  1.7688 -0.5446 -1.0838
    1CHTO   C27  309   7.739   8.549   2.061 -0.1173  0.0393  0.1494
    1CHTO   H55  310   7.659   8.591   2.124 -0.6974 -4.2628  2.4946
    1CHTO    N5  311   7.829   8.661   2.008  0.1314  0.1117  0.0184
    1CHTO   H43  312   7.927   8.625   1.979 -0.6054  0.1592 -2.6075
    1CHTO   H44  313   7.774   8.717   1.934 -0.9016 -1.5194 -0.4764
    1CHTO   C25  314   7.665   8.477   1.948 -0.3663  0.2169  0.5060
    1CHTO   H53  315   7.742   8.441   1.877 -0.5683  0.1121  0.3415
    1CHTO   O17  316   7.592   8.371   2.013  0.0325 -0.7118  0.0800
    1CHTO   C32  317   7.676   8.267   2.067 -0.2661  0.3467  0.1418
    1CHTO   H60  318   7.745   8.246   1.985 -0.5956 -0.3395  0.0374
    1CHTO   C36  319   7.583   8.147   2.097  0.5898  0.2398 -0.5094
    1CHTO   O25  320   7.523   8.093   1.978 -0.6501 -0.4335  0.0508
    1CHTO   H40  321   7.444   8.136   1.950 -0.4980 -1.4088 -2.0430
    1CHTO   O15  322   7.579   8.568   1.866  0.3899 -0.5364  0.0171
    1CHTO   C19  323   7.528   8.514   1.738  0.0269  0.3601  0.5651
    1CHTO   H47  324   7.459   8.594   1.708 -0.9783 -0.0471  1.7193
    1CHTO   C20  325   7.640   8.494   1.627  0.0668  0.4127  0.3723
    1CHTO   H48  326   7.708   8.410   1.647  1.8613  0.9782 -2.8794
    1CHTO   O19  327   7.709   8.619   1.615  0.0974 -0.5612 -0.2868
    1CHTO   H35  328   7.798   8.619   1.644  0.4631 -0.0039 -1.3492
    1CHTO   C21  329   7.571   8.447   1.495 -0.0638 -0.3216  0.0138
    1CHTO   H49  330   7.498   8.524   1.470 -0.2636  0.0286  1.6533
    1CHTO    N4  331   7.662   8.434   1.383  0.0412 -0.1676  0.8220
    1CHTO   H41  332   7.739   8.365   1.415 -2.2221 -2.0751  2.3829
    1CHTO   H42  333   7.614   8.393   1.296  1.8847 -0.0918 -0.2440
    1CHTO   C22  334   7.499   8.313   1.525 -0.0739 -0.8473  0.4036
    1CHTO   H50  335   7.571   8.246   1.572  3.0315  1.9021 -0.2398
    1CHTO   O14  336   7.393   8.344   1.619  0.3980  0.1649  0.1897
    1CHTO   C23  337   7.443   8.383   1.751 -0.1792  0.5413  0.2077
    1CHTO   H51  338   7.497   8.298   1.795 -1.0669 -1.2031 -2.0079
    1CHTO   C34  339   7.309   8.410   1.818 -0.2292  0.1189 -0.2990
    1CHTO   O23  340   7.229   8.288   1.824  0.3391 -0.0524  0.2342
    1CHTO   H38  341   7.141   8.312   1.846  0.6596 -0.5592  2.2443
    1CHTO   O16  342   7.416   8.261   1.421  0.1493  0.6641 -0.2177
    1CHTO   C24  343   7.466   8.116   1.352  0.7235  0.4264 -0.7741
    1CHTO   H52  344   7.574   8.102   1.360  0.3651 -1.5854  0.7389
    1CHTO   C26  345   7.423   8.118   1.204 -0.5452 -0.4691  0.2890
    1CHTO   H54  346   7.317   8.151   1.201 -0.7228 -0.9607  0.9380
    1CHTO   O20  347   7.490   8.230   1.142 -0.1188  0.0026  0.4821
    1CHTO   H36  348   7.527   8.286   1.208  1.6819  0.1022 -0.5842
    1CHTO   C30  349   7.446   7.986   1.129 -0.5521  0.3681 -0.8735
    1CHTO   H58  350   7.553   7.965   1.125 -0.5500  0.4684 -1.3226
    1CHTO    N6  351   7.387   7.984   0.992 -0.0960 -0.0224  0.5744
    1CHTO   H45  352   7.463   8.000   0.917  1.7018 -0.7632  2.1870
    1CHTO   H46  353   7.305   8.053   0.975 -0.4576 -0.4770  0.4817
    1CHTO   C33  354   7.389   7.866   1.216  0.2933 -0.2589  0.1752
    1CHTO   H61  355   7.279   7.875   1.219  0.3308  0.2886 -0.0111
    1CHTO   O18  356   7.450   7.878   1.349  0.2891 -0.2337  0.2930
    1CHTO   C28  357   7.402   7.994   1.420  0.4739 -0.4738 -0.2832
    1CHTO   H56  358   7.295   8.011   1.420  0.2743 -1.6784  0.3606
    1CHTO   C35  359   7.459   7.983   1.568 -0.1943  0.1904  0.1641
    1CHTO   O24  360   7.373   7.896   1.647 -0.0394  0.3694 -0.0707
    1CHTO   H39  361   7.390   7.900   1.740 -1.0416 -1.6877  0.2157
    1CHTO    O9  362   7.418   7.740   1.160  0.8858 -0.2640  0.2058
    1CHTO   C13  363   7.376   7.630   1.235 -0.3349 -0.1101  0.3562
    1CHTO   H26  364   7.286   7.662   1.291  1.4618  1.6974  2.3179
    1CHTO   C11  365   7.489   7.580   1.336 -0.9106 -0.3021  0.2215
    1CHTO   H24  366   7.503   7.657   1.413 -1.1384  1.4764 -1.4620
    1CHTO    O8  367   7.619   7.564   1.276 -0.2061 -0.3054  0.3862
    1CHTO    H3  368   7.631   7.619   1.201 -0.6927  0.3999  0.8330
    1CHTO    C9  369   7.437   7.448   1.400  0.1311  0.2196 -0.3795
    1CHTO   H22  370   7.335   7.468   1.437 -1.1563 -1.9216 -2.6465
    1CHTO    N2  371   7.520   7.403   1.520  0.1477  0.3619  0.7184
    1CHTO   H10  372   7.620   7.376   1.491  0.3092  1.0827  0.5981
    1CHTO   H11  373   7.529   7.487   1.588 -1.2804  1.7826 -0.8135
    1CHTO    C7  374   7.432   7.337   1.282 -0.2648 -0.7598 -0.7031
    1CHTO   H20  375   7.359   7.263   1.321  0.1982 -0.6757  0.3580
    1CHTO    O4  376   7.410   7.391   1.148  0.4468  0.4835 -0.0465
    1CHTO   C14  377   7.325   7.508   1.146 -0.3077 -0.1933  0.1713
    1CHTO   H27  378   7.228   7.467   1.181 -0.6889  1.4782  1.1470
    1CHTO   C18  379   7.304   7.542   1.000 -0.0712 -0.2801  0.3790
    1CHTO   O13  380   7.211   7.652   0.992 -0.6210 -0.2494  0.6583
    1CHTO    H7  381   7.196   7.673   0.902  0.0637 -1.4140  0.2569
    1CHTO    O2  382   7.561   7.261   1.284 -0.1827  0.6468 -0.0191
    1CHTO    C1  383   7.589   7.161   1.186  0.6205 -0.6259 -1.0380
    1CHTO   H14  384   7.602   7.209   1.086  2.6319  1.0883 -0.0033
    1CHTO    C2  385   7.476   7.047   1.171 -0.2920 -0.1955  0.3060
    1CHTO   H15  386   7.465   7.000   1.270  1.9398  0.1171  0.7342
    1CHTO    O6  387   7.346   7.101   1.126 -0.5659 -1.1695  0.5728
    1CHTO    H1  388   7.313   7.149   1.200  0.4551  0.7024 -0.1610
    1CHTO    C3  389   7.530   6.930   1.074 -0.6115 -0.2591 -0.3194
    1CHTO   H16  390   7.553   6.956   0.969 -1.8919  0.7651 -0.3589
    1CHTO    N1  391   7.428   6.818   1.056  0.1068  0.8840 -0.4931
    1CHTO    H8  392   7.383   6.803   1.153  0.4152  1.7085 -0.2157
    1CHTO    H9  393   7.463   6.730   1.004 -1.3139  0.3862 -0.6292
    1CHTO    C4  394   7.665   6.879   1.138 -0.2860  0.3209  0.9025
    1CHTO   H17  395   7.644   6.842   1.238 -0.6604  1.3618  1.2145
    1CHTO    O1  396   7.762   6.985   1.139 -0.2196  0.2374 -0.1950
    1CHTO    C5  397   7.731   7.097   1.219 -0.1444 -0.7083 -0.3519
    1CHTO   H18  398   7.726   7.063   1.323  0.0367 -1.3258 -0.5425
    1CHTO   C16  399   7.858   7.189   1.201 -0.3348 -0.5131 -0.5748
    1CHTO   O11  400   7.837   7.319   1.246  0.3666 -0.1589  0.4189
    1CHTO    H5  401   7.817   7.311   1.337 -1.5376  0.0142  0.0223
    1CHTO    O3  402   7.724   6.785   1.045  0.0787  0.3044  0.2890
    1CHTO    C6  403   7.790   6.677   1.114  0.0017  0.0784  0.1036
    1CHTO   H19  404   7.778   6.669   1.222  0.1208  2.2369  0.2952
    1CHTO    C8  405   7.733   6.548   1.059 -0.0427 -0.9288  0.1705
    1CHTO   H21  406   7.750   6.554   0.951  3.4273  1.2538  0.7513
    1CHTO    O7  407   7.591   6.542   1.086 -0.2758 -0.2003 -0.2941
    1CHTO    H2  408   7.552   6.613   1.038 -0.1616 -1.5411 -2.4364
    1CHTO   C12  409   7.817   6.425   1.115 -0.5317 -0.0399  0.4685
    1CHTO   H25  410   7.793   6.431   1.223 -2.0026 -3.4572  0.3828
    1CHTO    N3  411   7.762   6.295   1.059  0.0141 -0.4094  0.0539
    1CHTO   H12  412   7.746   6.246   1.154 -1.4975 -0.9893 -0.4845
    1CHTO   H13  413   7.841   6.240   1.010  0.0940  0.3682 -0.6982
    1CHTO   C15  414   7.967   6.442   1.093 -0.3074 -0.5652 -0.2326
    1CHTO   H28  415   7.994   6.453   0.988  1.5457 -0.4679  0.2527
    1CHTO   O10  416   8.046   6.315   1.149 -0.5443  0.3914 -0.4469
    1CHTO    H4  417   8.019   6.233   1.113 -0.1717  0.3970 -0.7370
    1CHTO    O5  418   8.007   6.563   1.158 -0.7071 -0.1145  0.1488
    1CHTO   C10  419   7.944   6.675   1.095  0.1419 -0.2152 -0.3422
    1CHTO   H23  420   7.962   6.670   0.987 -0.6135 -2.0795 -0.3982
    1CHTO   C17  421   8.025   6.796   1.158  0.9905  0.8203 -0.1480
    1CHTO   O12  422   8.157   6.798   1.096 -0.4567 -0.1112 -0.0727
    1CHTO    H6  423   8.210   6.866   1.133 -0.4083 -0.2002  0.0217
    2CHTO  H203  424   7.212   4.900   2.427  0.4205 -0.7431 -1.3398
    2CHTO   O82  425   7.133   4.861   2.459  0.6140 -0.1103 -0.0343
    2CHTO  C123  426   7.023   4.951   2.443  0.3128  0.3475 -0.2240
    2CHTO  H227  427   7.064   5.053   2.434 -0.0717  0.6523  1.2584
    2CHTO   O77  428   6.945   4.910   2.330 -0.0448  0.8042  0.3615
    2CHTO  C118  429   6.815   4.975   2.302  0.2166  0.2131  0.6325
    2CHTO  H222  430   6.831   5.080   2.274  0.2280 -0.2077 -0.9687
    2CHTO  C125  431   6.744   4.885   2.178  0.0907 -0.7334 -0.6609
    2CHTO   O84  432   6.609   4.921   2.156 -0.5407  0.0676  0.0085
    2CHTO  H205  433   6.548   4.855   2.185  1.2507 -0.5783  2.4803
    2CHTO  C114  434   6.724   4.977   2.429 -0.6318  1.0000 -0.2207
    2CHTO  H218  435   6.690   4.877   2.456  3.6757 -0.2215  1.0410
    2CHTO  C116  436   6.795   5.032   2.552 -0.2311 -0.0750 -0.7551
    2CHTO  H220  437   6.816   5.140   2.537 -1.3319  0.7087  2.8244
    2CHTO   O79  438   6.705   5.021   2.665  0.8023 -0.2061 -0.1671
    2CHTO  H201  439   6.740   5.045   2.749  2.2838  1.6108 -1.2510
    2CHTO  C120  440   6.936   4.955   2.572  0.1571  0.4149 -0.0185
    2CHTO  H224  441   6.906   4.855   2.609 -0.2035  0.9121  1.0463
    2CHTO   N21  442   7.011   5.007   2.683  0.2299  0.7790 -0.3984
    2CHTO  H211  443   6.945   5.028   2.766  1.3366  0.3838  0.5938
    2CHTO  H212  444   7.049   5.105   2.659  3.6066 -0.2707  0.4116
    2CHTO   O75  445   6.606   5.044   2.395 -0.4580  0.1271 -0.1961
    2CHTO  C112  446   6.465   4.969   2.461 -0.7574 -0.3358  0.1638
    2CHTO  H216  447   6.488   4.932   2.562 -0.6496  0.6502  0.5121
    2CHTO   O73  448   6.423   4.865   2.370  0.1938  0.1038 -0.2238
    2CHTO  C113  449   6.303   4.795   2.393 -0.7397 -0.1212  0.5277
    2CHTO  H217  450   6.323   4.720   2.472 -2.5623 -1.3258 -0.1076
    2CHTO  C124  451   6.268   4.713   2.262 -0.5551 -1.0066  0.5138
    2CHTO   O83  452   6.356   4.602   2.238  0.3868  1.1458 -0.2935
    2CHTO  H204  453   6.305   4.526   2.255  1.4255  0.4843 -0.1082
    2CHTO  C109  454   6.194   4.898   2.419  0.6883 -0.5012 -0.2591
    2CHTO  H213  455   6.169   4.952   2.326 -1.7011 -0.5518  0.3286
    2CHTO  C110  456   6.234   5.000   2.537 -0.2592 -0.4635 -0.0559
    2CHTO  H214  457   6.263   4.937   2.621  1.2645 -0.8055 -0.8374
    2CHTO   O78  458   6.122   5.085   2.566 -0.4733  0.0547 -0.1612
    2CHTO  H200  459   6.041   5.042   2.585 -0.4003  0.1718  0.4232
    2CHTO  C111  460   6.359   5.075   2.475  0.9940 -0.2298  0.1183
    2CHTO  H215  461   6.327   5.112   2.377  0.5194  4.3309  1.8884
    2CHTO   N19  462   6.405   5.194   2.553  0.1270 -0.2913 -0.5099
    2CHTO  H207  463   6.505   5.183   2.590 -1.0703 -3.2817  2.0694
    2CHTO  H208  464   6.329   5.203   2.630  1.0749 -1.8970  0.6320
    2CHTO   O74  465   6.077   4.824   2.455  0.2234  0.2071  0.5244
    2CHTO  C115  466   5.933   4.871   2.407 -0.2406  0.1629  0.2080
    2CHTO  H219  467   5.923   4.979   2.414  0.3542  0.2414 -0.1032
    2CHTO   O76  468   5.912   4.837   2.248  0.5459 -0.3671 -0.2319
    2CHTO  C122  469   5.862   4.705   2.239 -0.5289  0.0341 -0.8145
    2CHTO  H226  470   5.922   4.635   2.297 -0.1586 -0.4554 -1.7809
    2CHTO  C126  471   5.873   4.651   2.093  0.3086  0.3914 -0.3054
    2CHTO   O85  472   5.922   4.516   2.100  0.4301 -0.4848  0.0818
    2CHTO  H206  473   5.877   4.464   2.163 -0.0799 -0.7634 -0.5116
    2CHTO  C121  474   5.713   4.699   2.294 -0.9218  0.2264 -0.2425
    2CHTO  H225  475   5.653   4.724   2.204 -0.3338  1.3429 -0.3207
    2CHTO   O81  476   5.697   4.567   2.348  0.0181  0.2295 -0.0804
    2CHTO  H202  477   5.733   4.501   2.292 -0.5091 -0.5048  0.4193
    2CHTO  C119  478   5.691   4.803   2.407 -0.5946 -0.2895 -0.6941
    2CHTO  H223  479   5.684   4.901   2.359 -0.3219 -0.3555 -0.8686
    2CHTO  C117  480   5.820   4.806   2.504  0.1364  0.1622  0.2472
    2CHTO  H221  481   5.849   4.709   2.543 -2.0067 -1.4688 -2.0480
    2CHTO   N20  482   5.798   4.886   2.628  0.3045  0.4377 -0.2084
    2CHTO  H209  483   5.749   4.981   2.612  1.8439  1.3508  0.3783
    2CHTO  H210  484   5.741   4.829   2.700 -1.9791  1.1235 -1.4163
    2CHTO   O80  485   5.545   4.787   2.481  0.4341 -0.0260  0.8503
    2CHTO  C103  486   5.430   4.812   2.407  0.0503  0.5243 -0.5017
    2CHTO  H190  487   5.442   4.830   2.300 -2.1707 -1.4654 -1.1287
    2CHTO  C101  488   5.326   4.697   2.415  0.3644 -0.6964 -0.4847
    2CHTO  H188  489   5.301   4.668   2.516  0.8780 -2.3968 -0.8286
    2CHTO   O68  490   5.388   4.572   2.347 -0.3319 -0.4630  0.8310
    2CHTO  H168  491   5.335   4.554   2.272  0.3377  2.7067 -0.5060
    2CHTO   C99  492   5.195   4.739   2.333 -0.2650 -0.2518  0.7489
    2CHTO  H186  493   5.221   4.752   2.226  0.3100 -0.1562  0.8960
    2CHTO   N17  494   5.080   4.638   2.335  0.0332  0.2242 -0.1628
    2CHTO  H174  495   5.024   4.647   2.428  1.3460 -3.9449  1.1717
    2CHTO  H175  496   5.025   4.633   2.242  0.2499 -0.1806 -0.2675
    2CHTO   C97  497   5.144   4.879   2.382 -0.1489 -0.4071 -0.2607
    2CHTO  H184  498   5.111   4.866   2.486  2.6324 -3.5560  0.3351
    2CHTO   O64  499   5.254   4.979   2.372  0.0372  0.4603 -0.1482
    2CHTO  C104  500   5.365   4.944   2.464  0.7546 -1.0434 -0.1812
    2CHTO  H191  501   5.323   4.928   2.563  1.0180 -0.0681  0.0841
    2CHTO  C108  502   5.464   5.063   2.473 -0.0664 -0.3152 -0.6458
    2CHTO   O71  503   5.411   5.178   2.535 -0.2973  0.7167 -0.4431
    2CHTO  H171  504   5.411   5.163   2.628  0.0032  1.3555 -0.3313
    2CHTO   O62  505   5.044   4.931   2.292 -0.3146  0.0697 -0.4645
    2CHTO   C91  506   4.946   5.025   2.341 -0.2251 -0.0318 -0.1866
    2CHTO  H178  507   4.895   4.972   2.421  1.8570 -1.2633  0.3835
    2CHTO   C92  508   4.842   5.036   2.226  0.4096  0.4948  0.7040
    2CHTO  H179  509   4.818   4.932   2.199  0.6273  0.5224  0.3976
    2CHTO   O66  510   4.717   5.087   2.276  0.3216 -0.2623 -0.1384
    2CHTO  H166  511   4.648   5.035   2.237  0.1007 -0.3223  0.3230
    2CHTO   C93  512   4.886   5.129   2.105  0.3363  0.1199  0.0190
    2CHTO  H180  513   4.793   5.152   2.052 -0.3719 -1.6896  0.4178
    2CHTO   N16  514   4.970   5.058   2.004  0.2558  0.4999  0.6012
    2CHTO  H172  515   4.928   5.041   1.906  0.9749  0.4253  0.3060
    2CHTO  H173  516   5.020   4.972   2.046  0.0123  0.6538  1.2260
    2CHTO   C94  517   4.957   5.266   2.162  0.5859  0.1652  0.3779
    2CHTO  H181  518   5.063   5.270   2.139  0.4459 -0.9843 -0.5338
    2CHTO   O61  519   4.938   5.272   2.302  0.0882 -0.1402  0.3179
    2CHTO   C95  520   5.004   5.167   2.379 -0.3156  0.1204 -0.3271
    2CHTO  H182  521   5.112   5.176   2.364 -0.0446 -1.3807  0.7166
    2CHTO  C106  522   4.972   5.203   2.524  0.1974  0.2566  0.5142
    2CHTO   O69  523   5.052   5.321   2.560  0.3491  0.0416 -0.3051
    2CHTO  H169  524   5.004   5.383   2.611  4.2700  2.1455  0.9974
    2CHTO   O63  525   4.883   5.386   2.090 -0.1272 -0.1285  0.2244
    2CHTO   C96  526   4.844   5.501   2.172  0.3741  0.8783 -0.5075
    2CHTO  H183  527   4.914   5.503   2.256  0.9311 -1.1366 -0.9110
    2CHTO   C98  528   4.699   5.499   2.216  0.0283 -0.3156 -0.4586
    2CHTO  H185  529   4.648   5.467   2.124  0.2546 -2.8916  0.2865
    2CHTO   O67  530   4.686   5.388   2.309 -0.0976 -0.1969 -0.5617
    2CHTO  H167  531   4.661   5.311   2.261  0.4181 -0.6887 -0.0333
    2CHTO  C102  532   4.649   5.644   2.278 -0.2216  0.5161  0.3017
    2CHTO  H189  533   4.711   5.667   2.366 -0.5637  1.3031  0.3412
    2CHTO   N18  534   4.508   5.641   2.321 -0.9845  0.0306 -0.5655
    2CHTO  H176  535   4.499   5.559   2.391 -0.1742 -0.2726 -0.8080
    2CHTO  H177  536   4.468   5.736   2.353  0.1970  0.6018 -0.7484
    2CHTO  C105  537   4.691   5.753   2.179  0.1153 -0.5291 -0.1876
    2CHTO  H192  538   4.637   5.736   2.086  1.3295 -1.4337 -0.7422
    2CHTO   O65  539   4.834   5.750   2.167  0.4215 -0.5815 -0.4902
    2CHTO  C100  540   4.877   5.634   2.092  0.0528 -0.1134  0.0281
    2CHTO  H187  541   4.824   5.649   1.997  0.5483 -2.4770 -0.6527
    2CHTO  C107  542   5.033   5.640   2.068  1.1663  0.1482  0.4968
    2CHTO   O70  543   5.071   5.573   1.946  0.3477 -0.0111 -0.3750
    2CHTO  H170  544   5.161   5.597   1.938  0.3185 -0.3398 -1.7134
    2CHTO   O57  545   4.637   5.902   2.243 -0.4097  0.1843 -0.1244
    2CHTO   C85  546   4.600   6.006   2.152  0.3485 -1.2080 -0.5924
    2CHTO  H157  547   4.524   5.964   2.084  0.8278 -3.9732  0.5341
    2CHTO   C83  548   4.719   6.044   2.055  0.0848 -0.6793 -0.0316
    2CHTO  H155  549   4.734   5.955   1.994 -0.6743 -0.5345 -0.4370
    2CHTO   O56  550   4.839   6.062   2.137 -0.1213 -0.5429  0.0547
    2CHTO  H135  551   4.915   6.084   2.087  0.5217 -2.6559  0.0651
    2CHTO   C81  552   4.671   6.158   1.962 -0.5867 -0.5804 -0.5830
    2CHTO  H153  553   4.582   6.126   1.909 -0.4860 -0.3526 -0.8942
    2CHTO   N14  554   4.774   6.172   1.856  0.1757  1.1647 -0.1668
    2CHTO  H141  555   4.868   6.168   1.908 -0.2716 -0.2319  0.5390
    2CHTO  H142  556   4.766   6.088   1.791  1.7824  1.7988 -1.2320
    2CHTO   C79  557   4.640   6.283   2.041  0.3233 -0.3798 -0.2759
    2CHTO  H151  558   4.601   6.362   1.977  1.8380  1.2172  0.7210
    2CHTO   O52  559   4.538   6.260   2.133 -0.4212 -0.4391 -0.3459
    2CHTO   C86  560   4.548   6.147   2.221 -0.2526 -0.4796 -0.1667
    2CHTO  H158  561   4.610   6.204   2.293  0.2619  1.1133 -1.8371
    2CHTO   C90  562   4.413   6.119   2.286  0.4140  0.3606 -0.5533
    2CHTO   O60  563   4.368   6.237   2.361  1.3129 -0.5271 -0.2558
    2CHTO  H138  564   4.281   6.226   2.396  0.3867  0.2845 -2.2101
    2CHTO   O50  565   4.753   6.342   2.105 -1.1721 -0.4377  0.7585
    2CHTO   C73  566   4.824   6.455   2.156  0.4213 -0.3515 -0.6711
    2CHTO  H145  567   4.761   6.497   2.235  1.0590 -2.1946  0.8563
    2CHTO   C74  568   4.848   6.569   2.045  0.6145  0.2231 -0.7734
    2CHTO  H146  569   4.754   6.596   1.994  0.5071  1.1393 -0.0900
    2CHTO   O54  570   4.904   6.679   2.117  0.0466  0.3975  0.4328
    2CHTO  H133  571   4.837   6.727   2.162 -0.2101 -1.7446  2.4679
    2CHTO   C75  572   4.949   6.500   1.943 -0.2344 -0.1358  0.4903
    2CHTO  H147  573   4.899   6.414   1.896  2.4478 -1.1109 -0.6331
    2CHTO   N13  574   5.001   6.588   1.836 -0.1599 -0.5238  0.1535
    2CHTO  H139  575   4.963   6.560   1.738 -0.1046 -1.7040  0.4654
    2CHTO  H140  576   4.978   6.693   1.849 -1.8564 -0.9691  0.9508
    2CHTO   C76  577   5.074   6.429   2.015 -0.5084 -0.4451  0.4864
    2CHTO  H148  578   5.127   6.513   2.060 -0.9995 -0.6895  1.5312
    2CHTO   O49  579   5.029   6.341   2.125 -0.5639  0.1592 -1.3034
    2CHTO   C77  580   4.948   6.411   2.221  0.3297  0.0498  0.6011
    2CHTO  H149  581   5.004   6.497   2.259 -0.7336  1.5492 -1.1377
    2CHTO   C88  582   4.923   6.314   2.336 -0.3894 -0.0197  0.3423
    2CHTO   O58  583   4.831   6.386   2.448  0.2707 -0.4532 -0.3036
    2CHTO  H136  584   4.874   6.459   2.487 -0.0356  0.2498 -1.2430
    2CHTO   O51  585   5.161   6.304   1.902 -0.0213 -0.9213  0.5419
    2CHTO   C78  586   5.281   6.206   1.993  0.0755 -0.1614 -0.2169
    2CHTO  H150  587   5.250   6.184   2.098 -1.3117 -1.9424 -0.9644
    2CHTO   C80  588   5.430   6.245   1.969  0.6978  0.6619 -0.3098
    2CHTO  H152  589   5.458   6.219   1.864 -1.1895 -0.2333 -0.6265
    2CHTO   O55  590   5.432   6.384   1.989 -0.3935 -0.1355 -0.1352
    2CHTO  H134  591   5.499   6.426   1.940  1.1599 -0.6314  1.5186
    2CHTO   C84  592   5.529   6.166   2.063  0.2942  0.2773  0.8192
    2CHTO  H156  593   5.500   6.190   2.165  0.2282 -1.3388  1.1961
    2CHTO   N15  594   5.674   6.205   2.050 -0.5022 -0.1231  0.5767
    2CHTO  H143  595   5.713   6.162   1.961  0.0486 -0.4826  0.9947
    2CHTO  H144  596   5.683   6.312   2.049  1.4186 -0.2493  2.7016
    2CHTO   C87  597   5.506   6.016   2.038  0.1796 -0.0427  0.1250
    2CHTO  H159  598   5.548   5.973   1.947 -0.8986 -2.2372  0.6359
    2CHTO   O53  599   5.338   5.978   2.033  0.2554 -0.1442 -0.2862
    2CHTO   C82  600   5.271   6.066   1.942  0.1669 -0.0799  0.5999
    2CHTO  H154  601   5.307   6.048   1.841  0.6585 -0.2991  0.8124
    2CHTO   C89  602   5.116   6.034   1.937  0.4750  0.7286  0.5880
    2CHTO   O59  603   5.090   5.921   1.846 -0.3718  0.0935 -0.4128
    2CHTO  H137  604   5.158   5.858   1.851  1.2112  1.7767 -0.2605
    2CHTO   O45  605   5.591   5.937   2.141  0.6608  0.4405  0.0438
    2CHTO   C67  606   5.510   5.864   2.239 -0.3134  0.1542  0.4913
    2CHTO  H124  607   5.417   5.920   2.247  0.1379  0.9531  0.2089
    2CHTO   C65  608   5.482   5.718   2.202 -0.0169  0.3292 -0.2836
    2CHTO  H122  609   5.563   5.704   2.131  2.3483  0.5603  2.3066
    2CHTO   O44  610   5.364   5.713   2.122 -0.2874 -0.3429 -0.3384
    2CHTO  H102  611   5.284   5.732   2.168  1.3441 -0.1819  2.5188
    2CHTO   C63  612   5.502   5.620   2.322  0.1493  0.4066  0.3306
    2CHTO  H120  613   5.609   5.619   2.344 -0.1882 -0.2435  2.0413
    2CHTO   N11  614   5.468   5.478   2.309  0.4806  0.1730 -0.4212
    2CHTO  H108  615   5.403   5.474   2.223  1.3597 -0.6009 -1.0632
    2CHTO  H109  616   5.426   5.437   2.398 -2.3886  0.1069 -1.7105
    2CHTO   C61  617   5.433   5.690   2.448 -0.1177  0.1521  0.3964
    2CHTO  H118  618   5.421   5.625   2.536 -1.3998  0.9794  0.8546
    2CHTO   O40  619   5.514   5.807   2.494  0.5721 -0.3484  0.1102
    2CHTO   C68  620   5.579   5.884   2.387 -0.4146  0.4054 -0.0803
    2CHTO  H125  621   5.687   5.861   2.391 -0.4800  0.1236  0.0887
    2CHTO   C72  622   5.572   6.038   2.417 -0.6079 -0.3253  0.3996
    2CHTO   O48  623   5.676   6.125   2.361 -0.4801  0.1143  0.1213
    2CHTO  H105  624   5.757   6.077   2.364 -0.8723 -0.5272  0.5147
    2CHTO   O38  625   5.293   5.718   2.421  0.7772 -0.1517  0.1465
    2CHTO   C55  626   5.211   5.785   2.523  0.3067  0.1258 -0.2231
    2CHTO  H112  627   5.259   5.876   2.562 -1.4494  0.7017  0.6129
    2CHTO   C56  628   5.166   5.690   2.635  0.3214 -0.8997  0.7316
    2CHTO  H113  629   5.151   5.591   2.591 -1.0669 -0.0117 -0.8608
    2CHTO   O42  630   5.282   5.680   2.720 -0.3701 -0.1715  0.5135
    2CHTO  H100  631   5.283   5.745   2.787  1.7219  0.2228  0.1424
    2CHTO   C57  632   5.039   5.731   2.718  0.1394  0.1053  0.1182
    2CHTO  H114  633   5.077   5.792   2.799  2.0917 -1.2916  0.2898
    2CHTO   N10  634   4.976   5.618   2.788  0.3385  0.6258 -0.0452
    2CHTO  H106  635   4.980   5.521   2.740  0.6356  0.3817  0.4622
    2CHTO  H107  636   5.017   5.610   2.888  1.5808  2.2406 -0.4120
    2CHTO   C58  637   4.937   5.812   2.632 -0.1035  0.6443  0.4748
    2CHTO  H115  638   4.875   5.744   2.570  3.6529 -1.0046 -1.6568
    2CHTO   O37  639   5.002   5.903   2.542 -0.0041  0.3889  0.0897
    2CHTO   C59  640   5.080   5.834   2.451  0.2286 -0.5911  0.5338
    2CHTO  H116  641   5.028   5.749   2.407  0.8520  1.0748 -3.7166
    2CHTO   C70  642   5.111   5.929   2.337 -0.0458  0.7257  0.1212
    2CHTO   O46  643   5.207   6.029   2.369 -0.6750 -0.3410 -0.0359
    2CHTO  H103  644   5.226   6.078   2.291 -0.3159  0.0075  0.2656
    2CHTO   O39  645   4.831   5.888   2.735  0.4648 -0.1534 -0.8908
    2CHTO   C60  646   4.723   5.971   2.683  0.4792 -0.7862 -0.3072
    2CHTO  H117  647   4.730   5.980   2.574 -0.7331 -0.4319 -0.3617
    2CHTO   C62  648   4.586   5.896   2.715 -0.0719  0.1426  0.0047
    2CHTO  H119  649   4.602   5.804   2.656  1.1688 -0.4984  1.3047
    2CHTO   O43  650   4.577   5.859   2.854  0.5188  0.0896 -0.0225
    2CHTO  H101  651   4.563   5.933   2.909  1.3982 -0.3555  0.8104
    2CHTO   C66  652   4.458   5.965   2.660 -0.2213  0.1536  0.4369
    2CHTO  H123  653   4.466   5.983   2.553 -2.4343 -2.2079 -0.1555
    2CHTO   N12  654   4.336   5.887   2.679 -0.1317 -0.1640  0.3446
    2CHTO  H110  655   4.310   5.867   2.782 -2.7547 -2.0313 -0.6073
    2CHTO  H111  656   4.348   5.793   2.627  3.4404  0.7659 -0.6662
    2CHTO   C69  657   4.444   6.111   2.716 -0.0900 -0.1290 -0.3152
    2CHTO  H126  658   4.417   6.097   2.823 -1.6124  1.0104 -0.5328
    2CHTO   O41  659   4.598   6.181   2.699  0.4667  0.1182 -0.2847
    2CHTO   C64  660   4.715   6.109   2.744 -0.4335  0.1910  0.1994
    2CHTO  H121  661   4.723   6.089   2.853  0.2844  2.3041  0.5570
    2CHTO   C71  662   4.845   6.191   2.693  0.3725 -0.0243 -0.3162
    2CHTO   O47  663   4.958   6.151   2.767 -0.6569 -0.1742 -0.1673
    2CHTO  H104  664   5.012   6.226   2.786  1.1905 -1.4051 -0.4326
    2CHTO   O34  665   4.350   6.204   2.646  0.2645  0.0810 -0.7649
    2CHTO   C49  666   4.266   6.324   2.734  0.3988  0.0523  0.5404
    2CHTO   H91  667   4.273   6.308   2.841 -0.0765 -1.3625  0.3610
    2CHTO   C47  668   4.119   6.312   2.700 -0.0424  0.5094 -0.6202
    2CHTO   H89  669   4.069   6.381   2.771 -1.1892 -1.4585  0.5447
    2CHTO   O33  670   4.069   6.182   2.725  0.5288 -0.5597 -0.3557
    2CHTO   H70  671   4.098   6.145   2.807  0.2745 -1.5463 -0.7038
    2CHTO   C45  672   4.103   6.347   2.544 -0.1464 -0.5225 -0.1638
    2CHTO   H87  673   4.154   6.277   2.477 -0.8307  0.6124 -1.9249
    2CHTO    N8  674   3.957   6.340   2.507  0.4424 -0.4768  0.1170
    2CHTO   H75  675   3.900   6.410   2.567 -0.3375 -1.4190  0.4925
    2CHTO   H76  676   3.948   6.371   2.404  0.1628  2.2213  0.9096
    2CHTO   C43  677   4.168   6.494   2.509  0.0285  0.4650  0.5151
    2CHTO   H85  678   4.169   6.503   2.401  1.5925 -0.0246  0.4703
    2CHTO   O29  679   4.299   6.502   2.566  0.0132  0.5328  0.2309
    2CHTO   C50  680   4.328   6.461   2.694 -0.2535  0.4718  0.1325
    2CHTO   H92  681   4.437   6.450   2.705 -0.2744 -0.0006 -0.1435
    2CHTO   C54  682   4.294   6.570   2.802 -0.2713 -0.6426  0.1884
    2CHTO   O36  683   4.372   6.553   2.914 -0.0119  0.0312  0.2505
    2CHTO   H72  684   4.343   6.602   2.988 -0.4813 -0.0801  0.1404
    2CHTO   O27  685   4.093   6.602   2.569 -0.0536  0.2079 -0.2389
    2CHTO   C37  686   4.042   6.730   2.520 -0.1990  0.2997 -0.1479
    2CHTO   H79  687   4.057   6.732   2.411  0.0839 -0.0794 -0.1199
    2CHTO   C38  688   3.892   6.751   2.546  0.3124  0.4395 -0.4587
    2CHTO   H80  689   3.864   6.717   2.646 -0.5967 -1.0579 -1.2082
    2CHTO   O31  690   3.832   6.657   2.449  0.3028 -0.5212  0.9869
    2CHTO   H68  691   3.823   6.575   2.493 -0.4614  0.0941  1.9860
    2CHTO   C39  692   3.834   6.894   2.515  0.3148  0.2258  0.2003
    2CHTO   H81  693   3.840   6.918   2.409 -0.2961  2.9211  0.7304
    2CHTO    N7  694   3.687   6.920   2.551 -0.1343 -0.2347 -0.2945
    2CHTO   H73  695   3.667   7.006   2.612  3.1387  0.0808  0.4422
    2CHTO   H74  696   3.648   6.824   2.582 -1.8524 -0.0278 -1.7488
    2CHTO   C40  697   3.928   6.996   2.590 -0.2276  0.0098 -0.6782
    2CHTO   H82  698   3.914   6.979   2.697  0.2323  0.6306 -0.5191
    2CHTO   O26  699   4.070   6.976   2.551 -0.0027  0.2836  0.0288
    2CHTO   C41  700   4.127   6.850   2.583  0.2999 -0.0676 -0.0266
    2CHTO   H83  701   4.129   6.828   2.690 -1.0534  1.3180  0.3011
    2CHTO   C52  702   4.276   6.849   2.528 -0.1037  0.0802 -0.1113
    2CHTO   O35  703   4.369   6.923   2.591 -0.5535  0.6814 -0.2048
    2CHTO   H71  704   4.348   7.014   2.585 -2.2068  0.3691  0.4978
    2CHTO   O28  705   3.899   7.132   2.552 -0.1722 -0.1184 -0.1284
    2CHTO   C42  706   3.942   7.246   2.632 -0.0741 -0.3413 -0.9711
    2CHTO   H84  707   3.935   7.340   2.577 -0.0484 -0.8925 -1.9361
    2CHTO   C44  708   4.092   7.248   2.686  0.3472  0.3030 -0.9872
    2CHTO   H86  709   4.117   7.147   2.720 -0.3637  1.5142  3.3151
    2CHTO   O32  710   4.173   7.278   2.571  0.3133 -0.3092 -0.2772
    2CHTO   H69  711   4.207   7.365   2.571 -0.2283 -0.1016  0.9005
    2CHTO   C48  712   4.121   7.354   2.801 -0.2661  0.1344 -0.1001
    2CHTO   H90  713   4.124   7.455   2.761  2.3408  0.6326  1.2587
    2CHTO    N9  714   4.253   7.349   2.869  0.4870  0.0003  1.1434
    2CHTO   H77  715   4.279   7.247   2.893  0.7896 -0.5993 -1.5666
    2CHTO   H78  716   4.245   7.414   2.955 -1.0632 -0.5125  1.3963
    2CHTO   C51  717   3.998   7.350   2.903 -0.3137 -0.0097  1.3073
    2CHTO   H93  718   4.000   7.252   2.952  3.6788 -0.1773  0.9710
    2CHTO   O30  719   3.874   7.374   2.834 -0.1543  0.1205  0.0037
    2CHTO   C46  720   3.842   7.262   2.751 -0.4971 -0.5633  0.6050
    2CHTO   H88  721   3.871   7.173   2.807 -1.1953 -0.0833  1.7501
    2CHTO   C53  722   3.696   7.284   2.689  0.2336  0.4394  1.0850
    2CHTO   O72  723   3.591   7.209   2.747  0.4668 -0.2021 -1.5640
    2CHTO  H199  724   3.505   7.231   2.717 -0.8231 -0.0330  2.0553
    2CHTO   O22  725   4.003   7.448   3.013 -0.3588 -0.0354  0.1894
    2CHTO   C31  726   3.965   7.407   3.142  0.2315  0.0333 -0.2007
    2CHTO   H59  727   3.967   7.498   3.207  2.6108 -0.4775  0.5244
    2CHTO   C29  728   3.820   7.352   3.142 -0.7597 -0.4697  0.9714
    2CHTO   H57  729   3.815   7.276   3.062 -0.3140  1.8785 -1.3795
    2CHTO   O21  730   3.734   7.461   3.107  0.1614 -0.0728  0.7356
    2CHTO   H37  731   3.754   7.541   3.151  0.7726 -0.7223  1.6794
    2CHTO   C27  732   3.787   7.280   3.283 -0.4037 -0.2098  0.6030
    2CHTO   H55  733   3.768   7.357   3.359  1.2199  0.4492  0.3576
    2CHTO    N5  734   3.665   7.194   3.274  0.2441 -0.4393 -0.4448
    2CHTO   H43  735   3.593   7.219   3.351  0.6604  2.1482 -0.8366
    2CHTO   H44  736   3.620   7.203   3.177  3.2755  1.5515 -1.7659
    2CHTO   C25  737   3.911   7.190   3.332  0.3075  0.4462  0.4936
    2CHTO   H53  738   3.917   7.110   3.256 -2.3362  1.6538 -1.0640
    2CHTO   O17  739   4.033   7.263   3.334 -0.0289  0.6331 -0.1947
    2CHTO   C32  740   4.073   7.312   3.205  0.2406  0.2750 -0.0472
    2CHTO   H60  741   4.087   7.225   3.140 -0.1992 -0.2689  0.5808
    2CHTO   C36  742   4.216   7.376   3.242 -0.4363 -0.1796  0.0803
    2CHTO   O25  743   4.296   7.266   3.292  0.2828 -0.6488 -0.4403
    2CHTO   H40  744   4.316   7.282   3.382  0.9005  0.5030 -0.7798
    2CHTO   O15  745   3.891   7.120   3.489  0.1585 -0.1981  0.1214
    2CHTO   C19  746   3.878   7.005   3.574  0.4769 -0.0753  0.1871
    2CHTO   H47  747   3.787   6.958   3.534 -1.6184  2.0716  2.2617
    2CHTO   C20  748   3.994   6.902   3.549  0.7174 -0.3375  0.2597
    2CHTO   H48  749   4.092   6.950   3.566  0.1805  0.5425  0.9344
    2CHTO   O19  750   3.984   6.867   3.407 -0.1772 -0.8209  0.0948
    2CHTO   H35  751   4.036   6.920   3.351 -1.7722  0.1974 -0.4596
    2CHTO   C21  752   3.969   6.773   3.635  0.2573 -0.0370  0.0850
    2CHTO   H49  753   3.889   6.714   3.589  0.0809  1.1966 -1.2136
    2CHTO    N4  754   4.088   6.687   3.621 -0.3074 -0.0092  0.8111
    2CHTO   H41  755   4.166   6.725   3.684  0.1689 -4.0099  2.8458
    2CHTO   H42  756   4.072   6.582   3.645  1.4218 -0.5615 -0.3623
    2CHTO   C22  757   3.932   6.821   3.777 -0.0532  0.1090  0.0363
    2CHTO   H50  758   4.020   6.871   3.815 -0.2433 -0.0729  0.7275
    2CHTO   O14  759   3.815   6.904   3.775 -0.6760 -0.3571  0.1759
    2CHTO   C23  760   3.852   7.033   3.722 -0.0570 -0.1993 -0.0421
    2CHTO   H51  761   3.941   7.074   3.772 -2.5255  4.3462  0.8718
    2CHTO   C34  762   3.743   7.134   3.743 -0.4447 -0.1380  0.1849
    2CHTO   O23  763   3.741   7.170   3.879 -0.0742 -0.6278 -0.3330
    2CHTO   H38  764   3.654   7.201   3.896 -0.3636 -1.3984 -0.3908
    2CHTO   O16  765   3.880   6.711   3.862  0.3674 -0.1718 -0.3931
    2CHTO   C24  766   3.902   6.769   4.029  0.4572  0.3660 -0.7312
    2CHTO   H52  767   3.916   6.877   4.034  0.7693  0.2580  1.0321
    2CHTO   C26  768   4.023   6.698   4.096 -0.2489  0.1950 -0.2495
    2CHTO   H54  769   4.004   6.590   4.084 -1.5861  0.2560  1.1013
    2CHTO   O20  770   4.147   6.737   4.038 -0.0979 -0.2212  0.1470
    2CHTO   H36  771   4.183   6.661   3.995  1.2653 -0.9536  2.4759
    2CHTO   C30  772   4.031   6.723   4.247  0.2856  0.0681 -0.2785
    2CHTO   H58  773   4.069   6.825   4.263 -0.1637  0.2028 -0.0618
    2CHTO    N6  774   4.117   6.620   4.315 -0.2044  0.1439 -0.9074
    2CHTO   H45  775   4.123   6.526   4.261  0.1521 -0.7525  0.6413
    2CHTO   H46  776   4.215   6.663   4.327 -0.6995  1.0205  0.0407
    2CHTO   C33  777   3.887   6.728   4.316 -0.5619  0.2018 -0.0322
    2CHTO   H61  778   3.847   6.629   4.344  2.7845 -1.0612  0.5363
    2CHTO   O18  779   3.793   6.801   4.234  0.4114  0.5379  0.1801
    2CHTO   C28  780   3.773   6.735   4.105  0.2668 -0.1007  0.7522
    2CHTO   H56  781   3.757   6.627   4.108 -0.2515 -0.0796 -1.0804
    2CHTO   C35  782   3.648   6.800   4.038 -0.0609  0.1319 -0.3679
    2CHTO   O24  783   3.538   6.814   4.134 -0.1508  0.4879 -0.5039
    2CHTO   H39  784   3.556   6.878   4.199 -0.4618  1.3919 -1.2987
    2CHTO    O9  785   3.906   6.798   4.438  0.0463  0.4903  0.2697
    2CHTO   C13  786   3.779   6.875   4.507 -0.5254  0.1963 -1.3295
    2CHTO   H26  787   3.690   6.810   4.500  0.4667 -1.8021  2.9952
    2CHTO   C11  788   3.754   7.023   4.446  0.5190  0.5686  0.9770
    2CHTO   H24  789   3.721   7.005   4.343  1.7872 -0.3714  0.7119
    2CHTO    O8  790   3.881   7.089   4.434  0.1306 -0.6689 -0.1010
    2CHTO    H3  791   3.960   7.041   4.417  1.8928  1.6033  1.3231
    2CHTO    C9  792   3.641   7.096   4.523 -0.4913  0.8710  0.6996
    2CHTO   H22  793   3.558   7.023   4.518  0.0613  0.4012 -2.5327
    2CHTO    N2  794   3.602   7.226   4.462 -0.1866  0.1338  0.7741
    2CHTO   H10  795   3.504   7.228   4.417 -1.7681  2.2895  4.1510
    2CHTO   H11  796   3.677   7.265   4.395 -1.5583  0.5708 -0.5232
    2CHTO    C7  797   3.683   7.108   4.676  0.3964 -0.3530  0.4513
    2CHTO   H20  798   3.590   7.149   4.721  0.4175 -0.2180  0.3746
    2CHTO    O4  799   3.720   6.987   4.740 -0.2151 -0.1363 -0.0560
    2CHTO   C14  800   3.808   6.897   4.669  0.3547  0.8053  0.4237
    2CHTO   H27  801   3.774   6.805   4.722 -0.3071  0.5924 -0.3383
    2CHTO   C18  802   3.959   6.925   4.706 -0.2949  0.1085 -0.0315
    2CHTO   O13  803   3.976   6.879   4.845  0.3278 -0.6317  0.4402
    2CHTO    H7  804   4.052   6.825   4.852  0.2245 -1.3630 -3.0497
    2CHTO    O2  805   3.800   7.213   4.708 -0.2134 -0.2080  0.3628
    2CHTO    C1  806   3.798   7.284   4.832  0.1606  0.6828  0.3427
    2CHTO   H14  807   3.780   7.215   4.917  0.4326 -1.9407 -1.6675
    2CHTO    C2  808   3.695   7.415   4.836 -0.1027 -0.4662  0.1568
    2CHTO   H15  809   3.705   7.455   4.734  1.4402 -3.9333 -1.1523
    2CHTO    O6  810   3.566   7.370   4.865  0.2259 -0.2680  0.1157
    2CHTO    H1  811   3.513   7.354   4.790 -1.3012  2.0221  0.6435
    2CHTO    C3  812   3.727   7.540   4.934 -0.6669 -0.1942 -0.4565
    2CHTO   H16  813   3.705   7.502   5.034  1.8092  2.7363  1.2924
    2CHTO    N1  814   3.644   7.658   4.915 -0.4023  0.1513 -0.3312
    2CHTO    H8  815   3.543   7.625   4.936 -0.1628 -0.7172 -0.5067
    2CHTO    H9  816   3.660   7.740   4.983 -0.2379 -0.9980  1.0365
    2CHTO    C4  817   3.885   7.567   4.934  0.2467 -0.9560  0.6073
    2CHTO   H17  818   3.914   7.605   4.836  0.2571 -0.8568  0.6487
    2CHTO    O1  819   3.946   7.442   4.967  0.0426 -0.3343 -0.4666
    2CHTO    C5  820   3.935   7.339   4.860  0.7323  0.4868  0.4052
    2CHTO   H18  821   3.957   7.389   4.766 -0.5482  1.9613  0.8746
    2CHTO   C16  822   4.033   7.225   4.885  0.4721 -0.0769 -0.1678
    2CHTO   O11  823   4.168   7.238   4.848  0.0012  0.1854 -0.4018
    2CHTO    H5  824   4.220   7.268   4.920  0.2745 -0.0347 -0.5048
    2CHTO    O3  825   3.928   7.664   5.036  0.2260 -0.5153 -0.2089
    2CHTO    C6  826   4.032   7.763   4.997  0.3526 -0.2218  0.3983
    2CHTO   H19  827   4.078   7.750   4.899  1.6688 -0.6605  1.0649
    2CHTO    C8  828   3.977   7.910   4.986 -0.4704 -0.1003  0.3012
    2CHTO   H21  829   3.925   7.946   5.075  0.3872 -0.5989  1.0112
    2CHTO    O7  830   3.877   7.908   4.883  0.0030  0.1024 -0.0474
    2CHTO    H2  831   3.800   7.865   4.916 -1.5997  2.2984 -0.8359
    2CHTO   C12  832   4.093   8.015   4.955  0.0883 -0.7984  0.8403
    2CHTO   H25  833   4.137   7.982   4.859  0.5679 -1.1818  1.1832
    2CHTO    N3  834   4.049   8.157   4.940 -0.0151 -0.3215  0.0181
    2CHTO   H12  835   4.004   8.183   5.035  0.3382  2.5265 -0.5563
    2CHTO   H13  836   3.974   8.155   4.862  0.3471  0.1871 -0.3449
    2CHTO   C15  837   4.206   7.993   5.061  0.2257 -0.2209 -0.5541
    2CHTO   H28  838   4.189   8.038   5.159  0.0651 -2.5996  0.5320
    2CHTO   O10  839   4.340   8.056   5.014 -0.2520 -0.1059 -0.2921
    2CHTO    H4  840   4.409   8.048   5.077  1.8929 -0.7761 -2.6377
    2CHTO    O5  841   4.242   7.851   5.074 -0.2031 -0.0859  0.4887
    2CHTO   C10  842   4.143   7.752   5.103 -0.1458 -0.7446 -0.1513
    2CHTO   H23  843   4.104   7.771   5.203 -1.3827 -0.8989 -0.5995
    2CHTO   C17  844   4.201   7.608   5.102  0.3407  0.0639 -0.0787
    2CHTO   O12  845   4.315   7.585   5.182 -0.1584  0.2012  0.3216
    2CHTO    H6  846   4.300   7.605   5.272  1.7508 -0.2415  0.7448
    3CHTO  H203  847   8.613   1.651   1.526  0.8708  0.5003 -1.2592
    3CHTO   O82  848   8.531   1.654   1.481  0.3305  0.1470 -0.3070
    3CHTO  C123  849   8.434   1.568   1.544 -0.5469 -0.4890  1.1898
    3CHTO  H227  850   8.457   1.567   1.651  0.4354 -1.7182  0.9753
    3CHTO   O77  851   8.312   1.637   1.523 -0.1960 -0.7572 -0.6268
    3CHTO  C118  852   8.195   1.591   1.585  1.1048 -0.4421  0.7354
    3CHTO  H222  853   8.210   1.580   1.693 -0.6476 -0.5938  0.9724
    3CHTO  C125  854   8.088   1.697   1.565  0.1937  1.0649  0.0812
    3CHTO   O84  855   8.054   1.720   1.432  0.5407  0.4874 -0.3976
    3CHTO  H205  856   7.995   1.791   1.412  1.0947  0.6657 -1.4413
    3CHTO  C114  857   8.155   1.452   1.523  0.1457  0.0129  0.5166
    3CHTO  H218  858   8.127   1.474   1.420 -0.2042  2.4224  1.0839
    3CHTO  C116  859   8.280   1.362   1.544 -0.0301 -0.6846  0.5429
    3CHTO  H220  860   8.288   1.334   1.651 -0.9180  2.2824  1.4349
    3CHTO   O79  861   8.248   1.244   1.469 -0.0465  0.7686 -0.2875
    3CHTO  H201  862   8.300   1.169   1.489 -0.7321  0.3183 -0.2144
    3CHTO  C120  863   8.419   1.426   1.496 -0.0924  0.6592 -0.2923
    3CHTO  H224  864   8.427   1.420   1.386  0.6628  0.3987 -0.2225
    3CHTO   N21  865   8.535   1.334   1.540  0.1251 -0.4633  0.7324
    3CHTO  H211  866   8.511   1.286   1.634  0.5249  0.2735  1.2161
    3CHTO  H212  867   8.575   1.272   1.461  2.5743  0.7370  0.9753
    3CHTO   O75  868   8.044   1.408   1.599 -0.1246  0.4504 -0.6249
    3CHTO  C112  869   7.895   1.377   1.531 -0.2511 -0.4198  0.3567
    3CHTO  H216  870   7.908   1.337   1.430 -1.9008  1.0941 -0.4792
    3CHTO   O73  871   7.822   1.503   1.528  0.7670 -0.0090 -0.2927
    3CHTO  C113  872   7.701   1.499   1.450  1.0383 -0.0455 -0.8482
    3CHTO  H217  873   7.720   1.448   1.354 -0.3422 -1.9848 -0.1170
    3CHTO  C124  874   7.664   1.644   1.411 -0.1423 -0.2298  0.1625
    3CHTO   O83  875   7.567   1.634   1.315 -0.0069  0.3356  0.0393
    3CHTO  H204  876   7.509   1.708   1.319 -0.1012  0.1609  3.2782
    3CHTO  C109  877   7.598   1.423   1.537 -0.5668  0.3184 -0.6743
    3CHTO  H213  878   7.576   1.485   1.625 -0.1253  1.4895 -1.3746
    3CHTO  C110  879   7.663   1.288   1.571 -0.2285  0.0874 -0.1178
    3CHTO  H214  880   7.650   1.223   1.484 -0.3805 -1.5413  1.0806
    3CHTO   O78  881   7.577   1.234   1.675  0.1026 -0.3577  0.2616
    3CHTO  H200  882   7.486   1.221   1.658  0.1337  0.7064 -0.6714
    3CHTO  C111  883   7.809   1.282   1.617 -0.4161  0.1140  0.3930
    3CHTO  H215  884   7.814   1.320   1.720 -0.4305  2.3504 -0.4122
    3CHTO   N19  885   7.866   1.141   1.625  0.2913  0.1980  0.3347
    3CHTO  H207  886   7.786   1.073   1.602  0.8195 -0.2499 -0.1777
    3CHTO  H208  887   7.894   1.107   1.724 -1.4096 -1.8398  0.1543
    3CHTO   O74  888   7.472   1.396   1.465 -0.2358  0.2998 -0.3610
    3CHTO  C115  889   7.338   1.412   1.558 -0.5089  0.2776  0.4503
    3CHTO  H219  890   7.355   1.374   1.659  0.6053 -0.6026 -0.0582
    3CHTO   O76  891   7.298   1.580   1.579 -0.1736  0.1426  0.3433
    3CHTO  C122  892   7.165   1.611   1.629  0.0482  0.3427  0.8782
    3CHTO  H226  893   7.146   1.716   1.608 -1.8724 -0.5411 -2.1922
    3CHTO  C126  894   7.166   1.602   1.782  0.4481  0.0109  0.2276
    3CHTO   O85  895   7.049   1.632   1.854  0.5749  0.2212  0.4849
    3CHTO  H206  896   7.068   1.704   1.911 -0.7051  1.1611 -0.2447
    3CHTO  C121  897   7.064   1.524   1.556 -0.2303 -0.2079  0.2500
    3CHTO  H225  898   6.962   1.552   1.589 -1.1714  0.7380 -3.2782
    3CHTO   O81  899   7.065   1.575   1.418 -0.1778  0.0104 -0.2820
    3CHTO  H202  900   7.038   1.521   1.347 -1.7267  0.7450 -0.2834
    3CHTO  C119  901   7.082   1.377   1.562 -0.4610  0.1512 -0.3008
    3CHTO  H223  902   7.098   1.341   1.663 -0.3992 -0.4648 -0.5264
    3CHTO  C117  903   7.217   1.333   1.490  0.1032 -0.0465  0.2653
    3CHTO  H221  904   7.224   1.340   1.381  2.0055  0.9107  0.4288
    3CHTO   N20  905   7.250   1.188   1.521 -0.2215  0.5884 -0.3421
    3CHTO  H209  906   7.239   1.161   1.625  2.8473  1.1671  0.1667
    3CHTO  H210  907   7.202   1.120   1.453 -0.5855  1.8546 -1.3801
    3CHTO   O80  908   6.952   1.302   1.525  0.5174 -0.3567  0.1825
    3CHTO  C103  909   6.827   1.321   1.629 -0.3772 -0.1851 -0.0736
    3CHTO  H190  910   6.848   1.367   1.726 -2.0426  0.2075  0.1019
    3CHTO  C101  911   6.710   1.393   1.559 -0.9355  0.8683 -0.6422
    3CHTO  H188  912   6.724   1.360   1.456  0.4033 -0.3667 -0.0918
    3CHTO   O68  913   6.731   1.537   1.563 -0.0701 -0.9578 -0.4031
    3CHTO  H168  914   6.796   1.570   1.503 -0.8746  0.9702 -0.2661
    3CHTO   C99  915   6.568   1.348   1.616 -0.9693  0.7960  0.3800
    3CHTO  H186  916   6.561   1.388   1.719 -1.4237  2.3305 -0.2232
    3CHTO   N17  917   6.457   1.405   1.540  0.8000 -0.5268  0.1946
    3CHTO  H174  918   6.487   1.433   1.441  1.3068 -1.6142  0.0369
    3CHTO  H175  919   6.418   1.491   1.592  2.7014  1.8609 -2.2075
    3CHTO   C97  920   6.562   1.192   1.627 -0.0759 -0.4142  0.0432
    3CHTO  H184  921   6.576   1.150   1.527  3.2260  1.6563 -0.4230
    3CHTO   O64  922   6.670   1.158   1.719  0.1731  0.3117  0.0104
    3CHTO  C104  923   6.793   1.165   1.655  0.3844  0.4147  0.1923
    3CHTO  H191  924   6.800   1.105   1.564 -1.7478 -0.9781  0.9064
    3CHTO  C108  925   6.890   1.100   1.760  0.0811  0.3084 -0.6822
    3CHTO   O71  926   6.847   0.973   1.807  0.0912 -0.6276 -0.3207
    3CHTO  H171  927   6.896   0.954   1.885 -2.2239  1.6059  1.8016
    3CHTO   O62  928   6.442   1.137   1.682  0.5560 -0.0552 -0.4774
    3CHTO   C91  929   6.388   1.017   1.631  0.0114  0.0713 -0.2333
    3CHTO  H178  930   6.429   0.995   1.532  0.4413 -1.2302  0.2218
    3CHTO   C92  931   6.235   1.049   1.613  0.0723 -0.3652 -0.8721
    3CHTO  H179  932   6.185   1.103   1.695 -0.4167  0.1281 -1.4898
    3CHTO   O66  933   6.225   1.143   1.499  0.4245 -0.2099 -0.1032
    3CHTO  H166  934   6.258   1.227   1.526  2.2227 -0.9300 -0.0016
    3CHTO   C93  935   6.160   0.916   1.580 -0.1432 -0.3057 -1.1029
    3CHTO  H180  936   6.189   0.877   1.482 -0.5697  0.2686 -1.4604
    3CHTO   N16  937   6.014   0.941   1.561 -0.5149 -0.2776  0.0320
    3CHTO  H172  938   5.973   0.966   1.658  0.2021 -0.7200  0.4550
    3CHTO  H173  939   6.006   1.028   1.498 -0.3075  1.1396  1.9162
    3CHTO   C94  940   6.185   0.799   1.686 -0.1325  0.3441  0.5358
    3CHTO  H181  941   6.095   0.779   1.744 -0.9446 -0.2892 -0.9079
    3CHTO   O61  942   6.297   0.831   1.772  0.5833  0.2341  0.0578
    3CHTO   C95  943   6.417   0.882   1.718 -0.3567  0.0412  0.1452
    3CHTO  H182  944   6.481   0.911   1.801  0.7613 -1.2877 -0.2439
    3CHTO  C106  945   6.506   0.770   1.642 -0.1210 -0.2126  0.2334
    3CHTO   O69  946   6.626   0.827   1.586  0.6877  0.6300  0.6935
    3CHTO  H169  947   6.607   0.882   1.512  1.0560 -0.5114 -0.2540
    3CHTO   O63  948   6.224   0.670   1.601 -0.3616  0.4867 -0.0050
    3CHTO   C96  949   6.122   0.551   1.616  0.2989 -0.3648 -0.5054
    3CHTO  H183  950   6.166   0.483   1.543 -2.5840 -0.4039 -2.2921
    3CHTO   C98  951   5.974   0.571   1.575  0.0444 -0.3294  0.0792
    3CHTO  H185  952   5.924   0.646   1.637 -0.8813 -0.7458 -0.1579
    3CHTO   O67  953   5.968   0.630   1.442 -0.2290  0.2858  0.5190
    3CHTO  H167  954   5.997   0.569   1.376 -0.0002 -0.9930  1.7716
    3CHTO  C102  955   5.895   0.427   1.570  0.0220  0.2000 -0.2936
    3CHTO  H189  956   5.941   0.364   1.493  0.1786 -0.5806  0.4357
    3CHTO   N18  957   5.752   0.438   1.536  0.1925 -0.2167  0.5225
    3CHTO  H176  958   5.727   0.503   1.454  1.7727  0.0675  0.2515
    3CHTO  H177  959   5.694   0.473   1.620  1.3357 -1.0652  1.6807
    3CHTO  C105  960   5.915   0.364   1.710  0.1082 -0.6322  0.0488
    3CHTO  H192  961   5.867   0.426   1.785  0.3098 -0.4043 -0.0115
    3CHTO   O65  962   6.059   0.354   1.741 -0.2444  0.0078  0.1037
    3CHTO  C100  963   6.127   0.478   1.760 -0.8379 -0.3635  0.5147
    3CHTO  H187  964   6.074   0.534   1.839  0.9940  0.4615  1.1888
    3CHTO  C107  965   6.268   0.460   1.820  0.5136  0.2191  0.5524
    3CHTO   O70  966   6.360   0.404   1.727  0.2403 -0.4569  0.0179
    3CHTO  H170  967   6.317   0.360   1.655  1.6021  0.4709 -1.3938
    3CHTO   O57  968   5.854   0.210   1.695 -1.1150  0.0632  0.5382
    3CHTO   C85  969   5.808   0.130   1.804 -0.2198 -0.6316  0.0171
    3CHTO  H157  970   5.786   0.028   1.766 -1.0837 -0.2238 -0.5986
    3CHTO   C83  971   5.670   0.182   1.848 -0.1113  0.5748 -0.0367
    3CHTO  H155  972   5.594   0.172   1.771 -0.2324 -1.2285  0.3017
    3CHTO   O56  973   5.671   0.324   1.874  0.2234  0.4339  1.4607
    3CHTO  H135  974   5.690   0.338   1.964 -0.7721  0.5214  1.6706
    3CHTO   C81  975   5.627   0.098   1.970 -0.2159  0.2274 -0.5038
    3CHTO  H153  976   5.636  -0.008   1.946 -1.2326  0.0258  0.0176
    3CHTO   N14  977   5.484   0.107   2.006  0.1077 -0.6653  0.4510
    3CHTO  H141  978   5.452   0.067   2.100 -0.1338 -0.9110  0.2629
    3CHTO  H142  979   5.419   0.073   1.929 -1.2395  1.0475  0.7951
    3CHTO   C79  980   5.717   0.135   2.090  0.0895  1.2027 -0.7909
    3CHTO  H151  981   5.672   0.084   2.175  1.2940  0.2007 -0.7294
    3CHTO   O52  982   5.847   0.072   2.057 -0.0080 -0.4418  0.4847
    3CHTO   C86  983   5.907   0.123   1.925 -0.0243  0.5537 -0.6727
    3CHTO  H158  984   5.936   0.225   1.960  1.1751  0.2925 -0.8654
    3CHTO   C90  985   6.039   0.056   1.889 -0.0378 -0.4487 -0.4051
    3CHTO   O60  986   6.154   0.120   1.948  0.2060 -0.1650  0.3293
    3CHTO  H138  987   6.231   0.081   1.911 -0.6391 -2.2553  0.6890
    3CHTO   O50  988   5.741   0.273   2.112  0.5498 -0.1184 -0.4922
    3CHTO   C73  989   5.771   0.348   2.224 -1.3843 -0.6041 -0.3035
    3CHTO  H145  990   5.850   0.297   2.282 -0.8570 -0.4391 -0.8703
    3CHTO   C74  991   5.652   0.371   2.311  0.4774  0.3464  0.2529
    3CHTO  H146  992   5.617   0.268   2.327  1.0528 -0.3172 -2.5033
    3CHTO   O54  993   5.695   0.411   2.444  0.4189 -0.2186 -0.0677
    3CHTO  H133  994   5.619   0.429   2.496  0.0302  0.7269 -0.9526
    3CHTO   C75  995   5.536   0.458   2.242  0.6750  0.3007  0.2558
    3CHTO  H147  996   5.510   0.405   2.149  0.3630  1.3662 -0.2747
    3CHTO   N13  997   5.417   0.496   2.317  0.0178  0.2564 -0.2047
    3CHTO  H139  998   5.334   0.430   2.296  0.9830 -1.4447  1.2127
    3CHTO  H140  999   5.448   0.490   2.420  1.8099 -0.4485 -0.7809
    3CHTO   C76 1000   5.605   0.587   2.182  0.5295  0.7140 -0.1534
    3CHTO  H148 1001   5.624   0.653   2.266 -0.8779  0.3191  0.4842
    3CHTO   O49 1002   5.719   0.555   2.106  0.1477  0.3738 -0.1002
    3CHTO   C77 1003   5.827   0.488   2.176 -0.1486 -0.2166  0.1616
    3CHTO  H149 1004   5.848   0.548   2.265  0.1170 -1.7673  1.1654
    3CHTO   C88 1005   5.955   0.489   2.090  0.7969 -0.0440 -0.2672
    3CHTO   O58 1006   6.074   0.411   2.134 -0.3740  0.2143  0.0558
    3CHTO  H136 1007   6.080   0.400   2.227 -0.2221 -1.2928 -0.1065
    3CHTO   O51 1008   5.482   0.675   2.084 -0.3211  0.1380  0.1293
    3CHTO   C78 1009   5.519   0.814   2.059 -0.7034  0.4120  0.2692
    3CHTO  H150 1010   5.610   0.851   2.112 -0.1851 -3.3847  2.1731
    3CHTO   C80 1011   5.392   0.895   2.103  0.0753  0.2557 -0.2015
    3CHTO  H152 1012   5.304   0.865   2.044  0.7902  0.4365 -1.3802
    3CHTO   O55 1013   5.371   0.871   2.245 -0.3695 -0.1336  0.1984
    3CHTO  H134 1014   5.331   0.788   2.263 -1.6805  0.5441  0.4721
    3CHTO   C84 1015   5.415   1.048   2.076  0.1113 -0.6315 -0.8434
    3CHTO  H156 1016   5.489   1.082   2.149 -0.6194 -1.2812  0.2038
    3CHTO   N15 1017   5.289   1.123   2.102 -0.1884 -0.1456 -0.0021
    3CHTO  H143 1018   5.203   1.090   2.048 -0.9569  3.3354 -1.0151
    3CHTO  H144 1019   5.264   1.131   2.206 -1.3580 -0.3349 -0.2627
    3CHTO   C87 1020   5.467   1.069   1.937  0.5109  0.2952  0.2474
    3CHTO  H159 1021   5.386   1.055   1.866  3.4389 -0.8934 -3.0123
    3CHTO   O53 1022   5.582   0.979   1.901 -0.4760 -0.3739 -0.0767
    3CHTO   C82 1023   5.545   0.837   1.909  0.2656  0.1764  0.6307
    3CHTO  H154 1024   5.451   0.818   1.859  1.0443  0.8818 -1.1351
    3CHTO   C89 1025   5.646   0.740   1.859  0.5928 -0.0225  0.1150
    3CHTO   O59 1026   5.666   0.758   1.722 -0.0501  0.1236 -0.5146
    3CHTO  H137 1027   5.756   0.742   1.701  0.7822  3.6461  0.0487
    3CHTO   O45 1028   5.528   1.230   1.920 -0.5858  0.0034  0.0392
    3CHTO   C67 1029   5.673   1.245   1.920 -0.5874  0.0908  0.7522
    3CHTO  H124 1030   5.725   1.159   1.962  3.0338  0.9701 -1.7186
    3CHTO   C65 1031   5.720   1.266   1.769  0.6848  0.1271 -0.0991
    3CHTO  H122 1032   5.640   1.309   1.711  1.3061 -0.3625 -1.3296
    3CHTO   O44 1033   5.740   1.132   1.729 -0.1327  0.3901  0.6427
    3CHTO  H102 1034   5.832   1.122   1.717  0.0057 -1.3621  2.8600
    3CHTO   C63 1035   5.848   1.362   1.751 -0.2093 -0.0908 -0.0362
    3CHTO  H120 1036   5.810   1.464   1.745 -0.7213 -0.2816 -0.0264
    3CHTO   N11 1037   5.928   1.353   1.625 -0.0485  0.6935 -0.1582
    3CHTO  H108 1038   5.908   1.422   1.545 -1.6465 -0.7608 -1.0601
    3CHTO  H109 1039   6.031   1.372   1.647 -0.1872  0.5859  0.5721
    3CHTO   C61 1040   5.936   1.356   1.886  0.1060  0.0152 -0.3298
    3CHTO  H118 1041   6.011   1.436   1.877  2.4833 -1.8572  2.0867
    3CHTO   O40 1042   5.871   1.370   2.018 -0.3404 -0.3125  0.5036
    3CHTO   C68 1043   5.728   1.374   2.012  0.2676  0.2764 -0.4577
    3CHTO  H125 1044   5.686   1.465   1.964 -1.0120  0.3147  0.6867
    3CHTO   C72 1045   5.677   1.369   2.159 -0.1367  0.1070 -0.2050
    3CHTO   O48 1046   5.544   1.407   2.175  0.9359 -0.0194  0.4632
    3CHTO  H105 1047   5.528   1.496   2.149  1.1012 -0.0098  0.3935
    3CHTO   O38 1048   6.007   1.236   1.889 -0.1595  0.0565 -0.3386
    3CHTO   C55 1049   6.111   1.201   1.989  0.0544  0.1579  0.8013
    3CHTO  H112 1050   6.080   1.246   2.085  2.1945  3.0094  0.2352
    3CHTO   C56 1051   6.254   1.252   1.948 -0.4214  0.0755  0.2494
    3CHTO  H113 1052   6.275   1.219   1.846  0.0931 -1.2962  0.7863
    3CHTO   O42 1053   6.253   1.399   1.941  0.2242  0.2646  0.3447
    3CHTO  H100 1054   6.238   1.437   2.025  2.2984  1.2834  0.2796
    3CHTO   C57 1055   6.366   1.198   2.054  0.2311  0.0245  0.2333
    3CHTO  H114 1056   6.340   1.245   2.148  0.0343  1.3503 -0.4766
    3CHTO   N10 1057   6.505   1.235   2.026  0.0780  0.3813  0.2203
    3CHTO  H106 1058   6.552   1.164   1.959 -0.2963  0.8536 -0.5553
    3CHTO  H107 1059   6.517   1.337   1.990  0.4269 -0.0521 -0.9255
    3CHTO   C58 1060   6.340   1.046   2.061  0.2086 -0.1351  0.1613
    3CHTO  H115 1061   6.367   1.005   1.961  2.0882 -1.6248  1.2384
    3CHTO   O37 1062   6.207   1.016   2.106  0.1723 -0.8378 -0.1419
    3CHTO   C59 1063   6.111   1.052   2.009  0.1569  0.2209 -0.7035
    3CHTO  H116 1064   6.135   1.002   1.916 -1.1375 -0.8390 -0.4881
    3CHTO   C70 1065   5.968   1.006   2.053 -0.4936 -0.7971 -0.0161
    3CHTO   O46 1066   5.961   0.870   2.081 -0.1986  0.1247  0.0708
    3CHTO  H103 1067   5.872   0.839   2.075 -0.0469 -0.6109  1.2716
    3CHTO   O39 1068   6.431   0.975   2.184 -0.6734 -0.4261  0.1628
    3CHTO   C60 1069   6.445   0.835   2.152 -0.0701  0.1848 -0.0371
    3CHTO  H117 1070   6.362   0.809   2.087  0.7514 -0.4028 -0.8587
    3CHTO   C62 1071   6.570   0.791   2.083 -0.1757 -0.4320 -0.2949
    3CHTO  H119 1072   6.557   0.860   1.997 -1.3398 -0.8246 -0.4481
    3CHTO   O43 1073   6.678   0.819   2.168  0.2105  0.3140  0.1588
    3CHTO  H101 1074   6.752   0.831   2.112 -0.4743 -0.1894 -0.8760
    3CHTO   C66 1075   6.560   0.639   2.039  1.0814  0.4075 -0.7370
    3CHTO  H123 1076   6.477   0.631   1.969  0.8696  0.6482 -0.5157
    3CHTO   N12 1077   6.675   0.591   1.961 -0.0231 -0.1836  0.0812
    3CHTO  H110 1078   6.682   0.640   1.865  1.9926 -0.7164 -0.0478
    3CHTO  H111 1079   6.763   0.604   2.021  0.9197  2.2134 -1.7310
    3CHTO   C69 1080   6.534   0.546   2.169 -0.2994  0.2694  0.2022
    3CHTO  H126 1081   6.629   0.541   2.226 -0.8031 -0.8169  0.9771
    3CHTO   O41 1082   6.425   0.608   2.267  0.0514 -0.4045 -0.3012
    3CHTO   C64 1083   6.419   0.754   2.282 -0.2196  0.3848 -0.2941
    3CHTO  H121 1084   6.491   0.791   2.357 -1.5260 -0.2052  1.2705
    3CHTO   C71 1085   6.286   0.795   2.340 -0.6068  0.5400 -0.3517
    3CHTO   O47 1086   6.178   0.752   2.271 -0.4853 -0.0930 -0.3178
    3CHTO  H104 1087   6.093   0.786   2.294 -0.4503  0.3346 -0.8254
    3CHTO   O34 1088   6.497   0.412   2.128 -0.4280  0.1251  0.3498
    3CHTO   C49 1089   6.573   0.290   2.060 -0.0483 -0.2311 -0.2596
    3CHTO   H91 1090   6.628   0.326   1.972 -0.8397  1.8732  0.0678
    3CHTO   C47 1091   6.471   0.190   2.016  0.4437  0.2536  0.1012
    3CHTO   H89 1092   6.405   0.253   1.952 -2.2453 -2.5459  0.0125
    3CHTO   O33 1093   6.392   0.135   2.130  0.0843  0.1924  0.7268
    3CHTO   H70 1094   6.442   0.116   2.208  0.5836  0.5389  0.4953
    3CHTO   C45 1095   6.533   0.052   1.959 -0.4715 -0.3195 -0.4400
    3CHTO   H87 1096   6.503  -0.024   2.032 -1.3460 -0.5239 -1.0039
    3CHTO    N8 1097   6.483   0.023   1.826  0.0141 -0.3750 -0.0283
    3CHTO   H75 1098   6.396  -0.042   1.826  0.9315 -1.6321 -0.0727
    3CHTO   H76 1099   6.559  -0.022   1.764  0.0371 -0.6356  0.1867
    3CHTO   C43 1100   6.696   0.042   1.960 -0.0051 -0.1018 -0.3771
    3CHTO   H85 1101   6.726  -0.062   1.952 -1.9042 -1.0003  3.0079
    3CHTO   O29 1102   6.750   0.107   2.079  0.3283  0.0675  0.0547
    3CHTO   C50 1103   6.685   0.218   2.140 -0.7478 -0.8666 -0.2222
    3CHTO   H92 1104   6.646   0.191   2.240 -0.7276  2.1860  0.6639
    3CHTO   C54 1105   6.795   0.323   2.192 -0.3252 -0.0002 -0.2734
    3CHTO   O36 1106   6.919   0.270   2.249  0.6703 -0.0630  0.2176
    3CHTO   H72 1107   6.976   0.245   2.179  1.2234  0.4586  0.4771
    3CHTO   O27 1108   6.753   0.121   1.856 -0.1993 -0.1708 -0.0092
    3CHTO   C37 1109   6.882   0.168   1.817 -0.0325  0.6372 -1.2239
    3CHTO   H79 1110   6.914   0.247   1.887 -0.9580 -0.5953  0.6147
    3CHTO   C38 1111   6.998   0.066   1.825  0.2025 -0.3453  0.0610
    3CHTO   H80 1112   6.966  -0.020   1.764 -2.7898  0.5311  0.3273
    3CHTO   O31 1113   7.013   0.010   1.956  0.1283  0.2030 -0.6256
    3CHTO   H68 1114   7.049  -0.074   1.936  0.3746 -0.0928  0.9651
    3CHTO   C39 1115   7.133   0.127   1.772  0.5085  0.0468 -0.0923
    3CHTO   H81 1116   7.158   0.201   1.848  1.3343 -0.9953  0.6709
    3CHTO    N7 1117   7.248   0.042   1.767 -0.2416  0.0478  0.2602
    3CHTO   H73 1118   7.329   0.066   1.699 -2.0437  0.6271 -1.7317
    3CHTO   H74 1119   7.211  -0.054   1.737 -2.5646 -0.2107  3.6431
    3CHTO   C40 1120   7.108   0.195   1.634  0.8181 -0.5349  0.3464
    3CHTO   H82 1121   7.092   0.120   1.556  0.3900 -0.1759  0.0926
    3CHTO   O26 1122   7.000   0.288   1.641  0.0293 -0.8291  0.0688
    3CHTO   C41 1123   6.875   0.230   1.671 -0.3923  0.1068 -0.3462
    3CHTO   H83 1124   6.857   0.154   1.594 -1.7660 -0.2324  0.2882
    3CHTO   C52 1125   6.783   0.357   1.667  0.3719  0.0929  0.0734
    3CHTO   O35 1126   6.642   0.319   1.670 -0.3328 -0.1580  0.3567
    3CHTO   H71 1127   6.625   0.290   1.757  0.9214  0.2742  0.7638
    3CHTO   O28 1128   7.223   0.272   1.591  0.1347  0.2698 -0.0163
    3CHTO   C42 1129   7.223   0.391   1.503  0.3211  0.4988 -0.2383
    3CHTO   H84 1130   7.323   0.384   1.459  0.4628 -0.0391  0.1606
    3CHTO   C44 1131   7.210   0.524   1.585  0.1854 -0.3948 -0.3965
    3CHTO   H86 1132   7.115   0.523   1.638  1.9299  1.4688  2.9365
    3CHTO   O32 1133   7.308   0.515   1.688 -0.4834  0.4875  0.2292
    3CHTO   H69 1134   7.395   0.528   1.655  0.5108  0.8149  2.8187
    3CHTO   C48 1135   7.210   0.659   1.493  0.2098  0.2489  0.6098
    3CHTO   H90 1136   7.307   0.671   1.445  0.3193  1.1257  1.0441
    3CHTO    N9 1137   7.195   0.795   1.569 -0.0596 -0.0848  0.0080
    3CHTO   H77 1138   7.242   0.869   1.505 -1.2232  1.4068  0.8715
    3CHTO   H78 1139   7.249   0.782   1.661  0.3371 -2.0234 -0.4744
    3CHTO   C51 1140   7.102   0.635   1.382  0.1040  0.1311 -0.5914
    3CHTO   H93 1141   7.005   0.637   1.433 -0.1453  0.8802 -1.0739
    3CHTO   O30 1142   7.115   0.517   1.303 -0.6895 -0.0262 -0.4377
    3CHTO   C46 1143   7.127   0.388   1.386  0.2940  0.4025  0.0343
    3CHTO   H88 1144   7.027   0.374   1.426  0.6236 -1.0149  0.3948
    3CHTO   C53 1145   7.162   0.271   1.288  0.2398 -0.2391 -0.5042
    3CHTO   O72 1146   7.100   0.144   1.333  0.3907 -0.1976 -0.0111
    3CHTO  H199 1147   7.007   0.146   1.332  0.3838  3.1328  0.3273
    3CHTO   O22 1148   7.120   0.741   1.291  0.1600  0.2699 -0.0193
    3CHTO   C31 1149   7.006   0.805   1.215  0.3714 -0.3444  0.1566
    3CHTO   H59 1150   6.938   0.724   1.183  0.1068 -0.3029  0.6050
    3CHTO   C29 1151   6.918   0.904   1.297 -0.0475  0.5969 -0.3999
    3CHTO   H57 1152   6.989   0.979   1.336 -1.6890  2.4744 -0.9088
    3CHTO   O21 1153   6.853   0.842   1.408 -0.1461 -0.4514  0.2976
    3CHTO   H37 1154   6.804   0.766   1.383  0.7941 -0.5259 -1.4096
    3CHTO   C27 1155   6.818   0.978   1.207 -0.8936  0.3393 -0.4363
    3CHTO   H55 1156   6.757   0.909   1.147 -1.4048  1.0869 -0.7808
    3CHTO    N5 1157   6.732   1.081   1.276 -0.6100 -0.7925  0.1136
    3CHTO   H43 1158   6.686   1.026   1.357 -0.4741  0.0382  0.7614
    3CHTO   H44 1159   6.798   1.156   1.317  1.0453 -2.4563  0.5668
    3CHTO   C25 1160   6.899   1.040   1.089 -0.5838  0.1865  0.5086
    3CHTO   H53 1161   6.971   1.116   1.122 -1.2176  0.9451  0.1488
    3CHTO   O17 1162   6.959   0.937   1.007  0.6029 -0.2613 -0.1847
    3CHTO   C32 1163   7.061   0.871   1.085  0.9323 -0.1321 -0.3815
    3CHTO   H60 1164   7.146   0.935   1.106 -0.5978  1.5747  0.7566
    3CHTO   C36 1165   7.111   0.762   0.994 -0.3015 -0.0643 -0.1047
    3CHTO   O25 1166   7.166   0.814   0.874  0.3628  0.3937  0.1326
    3CHTO   H40 1167   7.247   0.769   0.856  0.7606  1.4538 -0.7826
    3CHTO   O15 1168   6.818   1.119   0.975 -0.3043  0.1207 -0.5879
    3CHTO   C19 1169   6.803   1.206   0.853 -0.6055  0.4887  0.0482
    3CHTO   H47 1170   6.749   1.149   0.776 -0.7966  0.0925  0.4695
    3CHTO   C20 1171   6.715   1.338   0.884 -0.6072  0.3183  0.2574
    3CHTO   H48 1172   6.772   1.409   0.946  2.8849 -1.4923 -0.7665
    3CHTO   O19 1173   6.594   1.299   0.945 -0.6075  0.6822 -0.2868
    3CHTO   H35 1174   6.608   1.272   1.033 -1.4481 -0.4705 -0.4912
    3CHTO   C21 1175   6.696   1.413   0.747  0.4043 -0.1569 -0.5465
    3CHTO   H49 1176   6.632   1.350   0.684 -1.6726 -0.5729  1.8855
    3CHTO    N4 1177   6.623   1.545   0.774  0.0934  0.2044 -0.1211
    3CHTO   H41 1178   6.566   1.569   0.686 -1.4459  1.1040  1.0966
    3CHTO   H42 1179   6.551   1.536   0.854  0.3064 -1.6528 -0.1103
    3CHTO   C22 1180   6.832   1.443   0.682 -1.0285  0.0380  0.9385
    3CHTO   H50 1181   6.894   1.511   0.740  0.9604 -0.5048 -0.4804
    3CHTO   O14 1182   6.912   1.329   0.663 -0.6439 -0.3671  0.1774
    3CHTO   C23 1183   6.935   1.254   0.780  0.3993 -0.3351 -0.4367
    3CHTO   H51 1184   6.998   1.317   0.846 -0.0314 -1.6736  1.2775
    3CHTO   C34 1185   7.014   1.134   0.757 -0.2088  0.3351 -1.0355
    3CHTO   O23 1186   7.131   1.178   0.683  0.5450 -0.7306 -0.5064
    3CHTO   H38 1187   7.202   1.177   0.744 -0.7642  0.4501  1.0784
    3CHTO   O16 1188   6.806   1.480   0.545  0.1552 -0.3504  0.4079
    3CHTO   C24 1189   6.908   1.611   0.504 -0.4198 -0.5140 -0.2992
    3CHTO   H52 1190   6.961   1.651   0.590 -0.9898  4.3376 -2.0709
    3CHTO   C26 1191   6.826   1.725   0.441  0.2869  0.3606  0.4052
    3CHTO   H54 1192   6.774   1.687   0.351  1.6081  0.4631 -0.4183
    3CHTO   O20 1193   6.728   1.756   0.543  0.2744 -0.1255  0.0781
    3CHTO   H36 1194   6.761   1.813   0.610  0.4595 -0.7261  0.4945
    3CHTO   C30 1195   6.923   1.844   0.413  0.1718  0.5541  0.0794
    3CHTO   H58 1196   6.961   1.883   0.509 -1.0318  0.1942  0.7133
    3CHTO    N6 1197   6.845   1.958   0.350 -0.2147 -0.4128 -0.4119
    3CHTO   H45 1198   6.908   2.009   0.278  2.4372 -1.8810  0.8007
    3CHTO   H46 1199   6.750   1.933   0.306 -1.5248  1.5368  1.1931
    3CHTO   C33 1200   7.043   1.805   0.328 -0.3110 -0.7394  0.3495
    3CHTO   H61 1201   7.001   1.798   0.227 -0.9799  2.6542  0.3320
    3CHTO   O18 1202   7.098   1.682   0.360 -0.1312  0.0110  0.3618
    3CHTO   C28 1203   7.013   1.571   0.398  0.0420  0.6962 -0.2402
    3CHTO   H56 1204   6.953   1.532   0.316  0.1362  2.3162 -1.1054
    3CHTO   C35 1205   7.106   1.452   0.443  0.3013 -0.1804  0.2620
    3CHTO   O24 1206   7.184   1.407   0.332 -0.2043  0.6836 -0.3861
    3CHTO   H39 1207   7.205   1.316   0.334 -0.2020  0.7026  0.8507
    3CHTO    O9 1208   7.146   1.907   0.317  0.3755 -0.0238 -0.2957
    3CHTO   C13 1209   7.241   1.925   0.443  0.6776  0.7592 -0.4513
    3CHTO   H26 1210   7.180   1.897   0.532  1.8009  1.1980  0.4803
    3CHTO   C11 1211   7.292   2.070   0.458 -0.0108 -0.4014  0.5189
    3CHTO   H24 1212   7.204   2.133   0.477 -1.8837 -1.3659 -4.1190
    3CHTO    O8 1213   7.353   2.107   0.337 -0.1799  0.3299 -0.1537
    3CHTO    H3 1214   7.446   2.099   0.341  0.0559  1.7697 -1.8560
    3CHTO    C9 1215   7.380   2.072   0.585  0.0106 -0.4717  0.4906
    3CHTO   H22 1216   7.314   2.041   0.667  0.8751 -1.1494  0.9286
    3CHTO    N2 1217   7.420   2.211   0.627 -0.0677 -0.0894 -0.1570
    3CHTO   H10 1218   7.423   2.273   0.539  2.8173  4.3425  2.8137
    3CHTO   H11 1219   7.516   2.202   0.676  1.4941  0.2389 -3.0622
    3CHTO    C7 1220   7.504   1.983   0.561 -0.4114 -0.4265  0.0113
    3CHTO   H20 1221   7.549   1.971   0.662  1.7525 -0.9778 -1.0137
    3CHTO    O4 1222   7.471   1.850   0.519 -0.5790 -0.0733 -0.3353
    3CHTO   C14 1223   7.354   1.810   0.443 -0.6453 -0.7381  0.4363
    3CHTO   H27 1224   7.315   1.718   0.491 -2.0410 -1.1196 -1.3797
    3CHTO   C18 1225   7.415   1.770   0.307  0.1160 -0.1462  0.5438
    3CHTO   O13 1226   7.474   1.639   0.323  0.4678 -0.2108  0.4787
    3CHTO    H7 1227   7.499   1.599   0.242  0.8082 -1.6880  1.2985
    3CHTO    O2 1228   7.621   2.056   0.451  0.2996 -0.5729  0.2297
    3CHTO    C1 1229   7.712   1.962   0.396 -0.0476 -0.0500 -0.0409
    3CHTO   H14 1230   7.657   1.866   0.386  0.0756 -0.1542  0.2715
    3CHTO    C2 1231   7.838   1.937   0.492  0.4267  0.4127  0.3116
    3CHTO   H15 1232   7.897   2.028   0.512  0.5288  0.4631 -0.2150
    3CHTO    O6 1233   7.795   1.898   0.626  0.3397 -0.2662 -0.0448
    3CHTO    H1 1234   7.735   1.826   0.623 -0.0543  0.0662 -0.2410
    3CHTO    C3 1235   7.927   1.820   0.425 -0.0767 -0.8024 -0.2172
    3CHTO   H16 1236   7.871   1.727   0.443 -0.3701 -0.3622  1.2232
    3CHTO    N1 1237   8.054   1.793   0.501 -0.1261  0.0634 -0.7424
    3CHTO    H8 1238   8.083   1.878   0.561 -0.8264  1.3012 -2.1170
    3CHTO    H9 1239   8.043   1.706   0.564 -0.3851 -0.5663 -1.6441
    3CHTO    C4 1240   7.952   1.837   0.272 -0.3064  0.6578  0.0496
    3CHTO   H17 1241   8.041   1.896   0.251  0.9818 -1.3291 -0.1492
    3CHTO    O1 1242   7.840   1.896   0.194 -0.2258  0.3658 -0.3486
    3CHTO    C5 1243   7.765   2.007   0.249  0.3072 -0.2604 -0.5019
    3CHTO   H18 1244   7.843   2.082   0.253  0.2638 -0.2682  0.6872
    3CHTO   C16 1245   7.651   2.046   0.155 -0.2560  0.1439 -0.0359
    3CHTO   O11 1246   7.599   2.174   0.195  0.0090  0.1999  0.2992
    3CHTO    H5 1247   7.670   2.235   0.200 -0.0809  0.7616 -3.5764
    3CHTO    O3 1248   7.969   1.707   0.214  0.3506 -0.3235  0.2335
    3CHTO    C6 1249   8.043   1.680   0.085 -0.4913  0.3206  0.1084
    3CHTO   H19 1250   8.067   1.764   0.021 -1.8501 -0.3945 -1.3825
    3CHTO    C8 1251   8.167   1.602   0.135  0.0111  0.0279  0.5443
    3CHTO   H21 1252   8.133   1.521   0.200 -1.4023  2.2422  2.6200
    3CHTO    O7 1253   8.254   1.688   0.216  0.4595  0.1277 -0.0337
    3CHTO    H2 1254   8.339   1.654   0.236  1.4484  1.9616 -0.9489
    3CHTO   C12 1255   8.253   1.547   0.014  0.7983  0.4634 -0.4876
    3CHTO   H25 1256   8.284   1.635  -0.045  0.6091  0.3188 -0.8021
    3CHTO    N3 1257   8.371   1.466   0.051  0.7582 -0.3812  0.1835
    3CHTO   H12 1258   8.457   1.511   0.004 -0.4115  1.0179 -0.6922
    3CHTO   H13 1259   8.394   1.465   0.156  0.7222 -1.0787  0.1828
    3CHTO   C15 1260   8.151   1.464  -0.080 -0.2283  0.2075  0.3372
    3CHTO   H28 1261   8.121   1.371  -0.031  0.3218 -0.2949 -0.2662
    3CHTO   O10 1262   8.206   1.430  -0.208 -0.3176 -0.2859  1.1789
    3CHTO    H4 1263   8.247   1.346  -0.203  0.3893 -0.2363 -2.4688
    3CHTO    O5 1264   8.035   1.536  -0.115  0.0086 -0.0232  0.7929
    3CHTO   C10 1265   7.956   1.575  -0.004  0.5600  0.1706  0.3084
    3CHTO   H23 1266   7.930   1.480   0.043  0.9014 -0.0500  0.0552
    3CHTO   C17 1267   7.823   1.628  -0.063 -0.0684  0.1123  0.1578
    3CHTO   O12 1268   7.728   1.618   0.043 -0.2396  0.3022  0.5909
    3CHTO    H6 1269   7.657   1.675   0.023 -0.4709  0.5932  2.1940
    4CHTO  H203 1270   6.734   7.482   2.285  0.0108 -0.3229  0.4084
    4CHTO   O82 1271   6.733   7.544   2.215 -0.2819 -0.4642  0.2883
    4CHTO  C123 1272   6.715   7.683   2.257  0.1706 -0.2476  0.6608
    4CHTO  H227 1273   6.644   7.682   2.342  1.1326 -0.8319  1.4601
    4CHTO   O77 1274   6.848   7.723   2.294  0.2640  0.1545 -0.1588
    4CHTO  C118 1275   6.859   7.856   2.344 -0.4445 -0.1026  0.0603
    4CHTO  H222 1276   6.801   7.871   2.437  1.1823 -2.6869  1.5698
    4CHTO  C125 1277   7.011   7.891   2.375 -0.2481  0.0588  0.0022
    4CHTO   O84 1278   7.079   7.788   2.452  0.0440 -0.3469  0.2927
    4CHTO  H205 1279   7.167   7.819   2.460 -1.3885  3.1991  3.6006
    4CHTO  C114 1280   6.811   7.958   2.234  0.1806 -0.4563 -0.6389
    4CHTO  H218 1281   6.880   7.953   2.150 -1.4642 -1.5346 -1.9526
    4CHTO  C116 1282   6.664   7.919   2.198 -0.3524 -0.3024 -0.2060
    4CHTO  H220 1283   6.604   7.927   2.291  2.4175  1.8429  1.4718
    4CHTO   O79 1284   6.606   8.015   2.106 -0.2004  0.7145  0.3141
    4CHTO  H201 1285   6.534   7.987   2.054 -0.3274  1.9699 -0.2193
    4CHTO  C120 1286   6.665   7.769   2.144  0.1555  0.4194  0.4004
    4CHTO  H224 1287   6.737   7.773   2.059  0.1801  0.4336  0.4220
    4CHTO   N21 1288   6.526   7.727   2.101 -0.6924 -0.3025  0.3011
    4CHTO  H211 1289   6.455   7.782   2.161 -0.4344  0.4128 -0.0361
    4CHTO  H212 1290   6.517   7.770   2.002  0.4511  0.9030  0.6958
    4CHTO   O75 1291   6.818   8.086   2.299 -0.4542  0.4508  0.4082
    4CHTO  C112 1292   6.856   8.207   2.226 -0.1076  0.9341  0.9970
    4CHTO  H216 1293   6.846   8.187   2.118  1.3210  1.8496  0.6859
    4CHTO   O73 1294   6.988   8.236   2.263  0.3064  0.2963 -0.2152
    4CHTO  C113 1295   7.052   8.337   2.185 -0.0272  0.7359  0.7280
    4CHTO  H217 1296   7.042   8.300   2.081  0.6162 -1.1150  1.3058
    4CHTO  C124 1297   7.199   8.326   2.227  0.0596  0.1985 -0.0425
    4CHTO   O83 1298   7.221   8.361   2.365  0.1326  0.7103  0.3168
    4CHTO  H204 1299   7.303   8.405   2.371  0.3808  0.2522  0.3197
    4CHTO  C109 1300   6.975   8.464   2.220  0.7760 -0.3029 -0.2473
    4CHTO  H213 1301   6.984   8.479   2.329  0.7113 -0.6808 -0.1912
    4CHTO  C110 1302   6.820   8.447   2.179 -0.0418  0.3695 -0.4581
    4CHTO  H214 1303   6.816   8.434   2.070  0.8414  0.9413 -0.5635
    4CHTO   O78 1304   6.751   8.567   2.213  0.0035 -0.2715 -0.0329
    4CHTO  H200 1305   6.663   8.567   2.179 -0.1643  1.8563  0.3177
    4CHTO  C111 1306   6.763   8.328   2.257  0.5355  0.1797  0.0904
    4CHTO  H215 1307   6.761   8.347   2.366 -1.5110 -1.1023  0.3042
    4CHTO   N19 1308   6.622   8.298   2.225 -0.4899  0.0016  0.4567
    4CHTO  H207 1309   6.570   8.393   2.233 -2.8647 -1.3373  1.5241
    4CHTO  H208 1310   6.567   8.253   2.307 -0.4715  1.6357  1.4063
    4CHTO   O74 1311   7.038   8.586   2.159  0.5607  0.3283  0.3119
    4CHTO  C115 1312   7.032   8.715   2.239  0.2753 -0.2130  0.0683
    4CHTO  H219 1313   6.946   8.716   2.306 -1.1503  0.8384 -1.7321
    4CHTO   O76 1314   7.133   8.732   2.313 -0.1841 -0.8154 -0.1134
    4CHTO  C122 1315   7.257   8.760   2.248  0.1634  0.4935 -0.2435
    4CHTO  H226 1316   7.302   8.664   2.226  1.1294  1.1173 -0.9931
    4CHTO  C126 1317   7.355   8.824   2.349  0.3906  0.4974 -0.5578
    4CHTO   O85 1318   7.331   8.966   2.367 -0.3209  0.2552 -0.2952
    4CHTO  H206 1319   7.242   8.984   2.388  0.1691  1.3903  0.8943
    4CHTO  C121 1320   7.263   8.844   2.107 -0.1218  0.3148 -0.4071
    4CHTO  H225 1321   7.351   8.911   2.121  0.1621  0.1007 -1.1025
    4CHTO   O81 1322   7.304   8.759   1.990  0.1160  0.3708  0.3266
    4CHTO  H202 1323   7.350   8.809   1.925  1.1789 -0.0864  0.7041
    4CHTO  C119 1324   7.127   8.929   2.095  0.7876  0.4659  0.0542
    4CHTO  H223 1325   7.124   9.005   2.174  1.3945  0.0356  0.4955
    4CHTO  C117 1326   7.004   8.831   2.128 -0.1597  0.3809  0.4451
    4CHTO  H221 1327   6.963   8.775   2.043  1.3373 -0.7861  0.4792
    4CHTO   N20 1328   6.884   8.915   2.173 -0.0033 -0.5298 -0.6816
    4CHTO  H209 1329   6.858   8.991   2.102 -3.1672 -1.7251 -0.8665
    4CHTO  H210 1330   6.799   8.850   2.184 -0.7193  0.2514 -1.5422
    4CHTO   O80 1331   7.103   9.019   1.961 -0.2943  0.5522  0.1981
    4CHTO  C103 1332   7.127   9.180   1.960 -0.2433  0.2270  0.7515
    4CHTO  H190 1333   7.082   9.233   2.044 -0.7836 -1.5973  1.6446
    4CHTO  C101 1334   7.279   9.242   1.956  0.8926  0.6319 -0.5965
    4CHTO  H188 1335   7.336   9.192   1.878  0.3247 -3.6429  1.6169
    4CHTO   O68 1336   7.347   9.214   2.106 -0.1597 -0.2067  0.0328
    4CHTO  H168 1337   7.328   9.130   2.143 -3.1506 -0.2081 -1.3933
    4CHTO   C99 1338   7.277   9.398   1.928 -0.0794  0.3035  0.3943
    4CHTO  H186 1339   7.233   9.443   2.019  2.6158  1.6443  1.1110
    4CHTO   N17 1340   7.413   9.460   1.911 -0.1457 -0.2448 -0.2224
    4CHTO  H174 1341   7.490   9.392   1.875  1.3489  0.8196  0.8994
    4CHTO  H175 1342   7.402   9.548   1.849 -1.4459 -0.5218 -0.3839
    4CHTO   C97 1343   7.181   9.428   1.808 -0.3038  0.3031 -0.3479
    4CHTO  H184 1344   7.231   9.394   1.716 -0.6546  1.8505 -1.1297
    4CHTO   O64 1345   7.050   9.375   1.819 -0.0049 -0.1390  0.2390
    4CHTO  C104 1346   7.053   9.232   1.829  0.6920 -0.1028  0.7426
    4CHTO  H191 1347   7.099   9.186   1.742  1.2491  2.5208 -0.3833
    4CHTO  C108 1348   6.908   9.179   1.838 -0.4158  0.2977  0.3882
    4CHTO   O71 1349   6.832   9.220   1.947  0.1993  0.0882  0.4819
    4CHTO  H171 1350   6.828   9.149   2.009  1.2542 -1.9236 -1.6877
    4CHTO   O62 1351   7.160   9.571   1.808 -0.3717 -0.4493  0.3719
    4CHTO   C91 1352   7.129   9.610   1.671  0.1122 -0.3906 -0.1897
    4CHTO  H178 1353   7.107   9.527   1.604  0.8180  1.0737 -2.2891
    4CHTO   C92 1354   7.245   9.696   1.600  0.2625  0.3142 -0.0393
    4CHTO  H179 1355   7.269   9.779   1.668 -0.9852 -0.0416  0.8411
    4CHTO   O66 1356   7.363   9.614   1.595  0.2633 -0.1895 -0.5255
    4CHTO  H166 1357   7.363   9.539   1.538  0.5087 -2.0181  1.7933
    4CHTO   C93 1358   7.195   9.745   1.461 -0.2441 -0.8222  0.0915
    4CHTO  H180 1359   7.189   9.660   1.391 -1.1856 -0.0967 -0.7279
    4CHTO   N16 1360   7.293   9.837   1.405  0.1513 -0.0995 -0.3342
    4CHTO  H172 1361   7.284   9.862   1.301  0.7300 -2.1367 -0.8892
    4CHTO  H173 1362   7.308   9.927   1.463 -1.2566 -0.8821  1.3162
    4CHTO   C94 1363   7.049   9.810   1.468 -0.5306  0.5512 -0.1117
    4CHTO  H181 1364   7.048   9.897   1.534 -0.4859  0.3699  0.1299
    4CHTO   O61 1365   6.965   9.710   1.527  0.4797  0.0216  0.4668
    4CHTO   C95 1366   6.999   9.692   1.664 -0.0391  0.7478  0.1864
    4CHTO  H182 1367   7.021   9.790   1.708  1.4375  1.7732 -2.7283
    4CHTO  C106 1368   6.871   9.638   1.740 -0.3701 -0.3614  0.0135
    4CHTO   O69 1369   6.888   9.624   1.879 -0.5373  0.1796 -0.2873
    4CHTO  H169 1370   6.916   9.707   1.912  0.9795  0.9363 -3.3417
    4CHTO   O63 1371   6.983   9.845   1.326  0.5690 -0.1777 -0.5434
    4CHTO   C96 1372   6.992   9.757   1.204 -0.8464  0.7454 -0.5266
    4CHTO  H183 1373   7.088   9.706   1.197 -0.2221  1.9612 -1.0766
    4CHTO   C98 1374   6.972   9.837   1.077  0.2937  0.9856  0.0922
    4CHTO  H185 1375   6.872   9.884   1.075 -0.1714  0.0974  1.6796
    4CHTO   O67 1376   7.063   9.949   1.100  0.2984  0.2930  0.6755
    4CHTO  H167 1377   7.156   9.935   1.091  0.7122  2.9958  0.1405
    4CHTO  C102 1378   7.003   9.756   0.945 -0.0504 -0.4307  0.2607
    4CHTO  H189 1379   7.111   9.738   0.953  0.2959  1.6592  0.4627
    4CHTO   N18 1380   6.987   9.828   0.814  0.0913  0.1261 -0.3792
    4CHTO  H176 1381   6.989   9.759   0.731 -1.1347 -0.5997  0.1799
    4CHTO  H177 1382   7.048   9.917   0.801  0.5810  0.1255  1.6761
    4CHTO  C105 1383   6.936   9.617   0.954 -0.0740 -0.2077  0.3310
    4CHTO  H192 1384   6.880   9.591   0.864 -0.2419 -0.8516  0.6190
    4CHTO   O65 1385   6.843   9.605   1.065 -0.0937 -0.0069  0.0545
    4CHTO  C100 1386   6.879   9.654   1.200  0.1315  0.4117  0.1360
    4CHTO  H187 1387   6.785   9.701   1.231 -0.1947 -0.4252  0.4202
    4CHTO  C107 1388   6.905   9.533   1.286  1.0314  0.5667 -0.0534
    4CHTO   O70 1389   7.022   9.466   1.242 -0.0834  0.7202  0.5579
    4CHTO  H170 1390   7.052   9.409   1.310 -1.3358  0.6513  1.0619
    4CHTO   O57 1391   7.055   9.508   0.968 -0.9355 -0.0055  0.0148
    4CHTO   C85 1392   7.072   9.387   0.888  0.6766  0.3369 -0.7353
    4CHTO  H157 1393   6.981   9.385   0.824  0.2154  1.7393 -0.1461
    4CHTO   C83 1394   7.067   9.255   0.982 -0.6051 -0.3769 -0.9971
    4CHTO  H155 1395   6.971   9.253   1.035 -0.1230 -0.4600 -0.1108
    4CHTO   O56 1396   7.168   9.259   1.086 -0.1425  0.3705  0.4016
    4CHTO  H135 1397   7.167   9.350   1.112  0.0421  0.9567 -1.5381
    4CHTO   C81 1398   7.078   9.136   0.894 -0.1846  0.1486 -0.1082
    4CHTO  H153 1399   7.005   9.150   0.814 -0.8174 -2.0148  0.0627
    4CHTO   N14 1400   7.043   9.009   0.964  0.0824  0.2732 -0.6295
    4CHTO  H141 1401   6.939   8.998   0.943  0.7256 -0.7205 -3.5786
    4CHTO  H142 1402   7.061   9.020   1.069 -1.5189 -0.1985 -0.2996
    4CHTO   C79 1403   7.218   9.135   0.824  0.3083 -0.2827  0.6893
    4CHTO  H151 1404   7.214   9.046   0.760 -1.9433 -0.4093  0.9793
    4CHTO   O52 1405   7.224   9.255   0.732  0.2224  0.2665 -0.3441
    4CHTO   C86 1406   7.203   9.381   0.801  0.4457 -0.1457 -0.0048
    4CHTO  H158 1407   7.293   9.389   0.866  1.0019 -0.3272 -0.7363
    4CHTO   C90 1408   7.212   9.496   0.701  0.1010 -0.0551  0.0064
    4CHTO   O60 1409   7.348   9.509   0.659  0.3666  0.2159  0.2995
    4CHTO  H138 1410   7.411   9.542   0.721  0.8495 -0.6050  0.2479
    4CHTO   O50 1411   7.324   9.127   0.920  0.1527 -0.5481  0.1628
    4CHTO   C73 1412   7.459   9.129   0.967  0.1787 -0.2605 -0.2395
    4CHTO  H145 1413   7.464   9.168   1.069  1.3813 -1.7772  0.3108
    4CHTO   C74 1414   7.553   9.204   0.866 -0.2221  0.4242 -0.1596
    4CHTO  H146 1415   7.503   9.301   0.862  0.3703  0.6654 -1.9539
    4CHTO   O54 1416   7.690   9.222   0.917  0.1927  0.8599 -0.2744
    4CHTO  H133 1417   7.700   9.307   0.956 -2.4560  0.3674  1.6228
    4CHTO   C75 1418   7.560   9.132   0.715  0.7133  0.8089 -0.2826
    4CHTO  H147 1419   7.456   9.124   0.678  0.2454 -0.9290  1.3066
    4CHTO   N13 1420   7.646   9.197   0.614  0.4429  0.0755  0.0453
    4CHTO  H139 1421   7.742   9.147   0.604  0.9542  1.0533  0.0353
    4CHTO  H140 1422   7.663   9.303   0.628 -0.1651  0.1186  0.4345
    4CHTO   C76 1423   7.601   8.980   0.741  0.5370  0.3354 -0.1660
    4CHTO  H148 1424   7.705   8.979   0.773  0.2880  0.9435  0.6620
    4CHTO   O49 1425   7.515   8.917   0.840 -0.1459 -0.3419 -0.5204
    4CHTO   C77 1426   7.502   8.978   0.975 -0.0258 -0.2410  0.1023
    4CHTO  H149 1427   7.603   8.971   1.016 -0.2640 -1.9703  0.4290
    4CHTO   C88 1428   7.416   8.889   1.066  0.4381  0.1749  0.0147
    4CHTO   O58 1429   7.474   8.753   1.077  0.2920 -0.1712 -0.0016
    4CHTO  H136 1430   7.420   8.697   1.129 -0.7232 -0.1728 -1.0248
    4CHTO   O51 1431   7.574   8.891   0.610 -0.3860 -0.0839  0.4722
    4CHTO   C78 1432   7.709   8.839   0.541  0.2547  0.1452  0.1245
    4CHTO  H150 1433   7.779   8.921   0.567  0.4130  0.4087 -1.0706
    4CHTO   C80 1434   7.686   8.838   0.385 -0.0868  0.0853  0.2565
    4CHTO  H152 1435   7.600   8.771   0.367  1.4699 -2.3834  1.7105
    4CHTO   O55 1436   7.651   8.970   0.346 -0.2613  0.5134  0.5139
    4CHTO  H134 1437   7.618   8.971   0.258 -2.9258 -0.6885  1.4468
    4CHTO   C84 1438   7.816   8.783   0.309 -0.1600  0.2297  0.0696
    4CHTO  H156 1439   7.900   8.850   0.327  0.7925 -1.1406  0.8219
    4CHTO   N15 1440   7.789   8.786   0.164 -0.0052  0.1221  0.3949
    4CHTO  H143 1441   7.786   8.883   0.117  0.5499  0.5068  1.1333
    4CHTO  H144 1442   7.708   8.724   0.135  0.6767  0.2297 -1.8329
    4CHTO   C87 1443   7.847   8.637   0.367 -0.1527 -0.1009 -0.1400
    4CHTO  H159 1444   7.754   8.584   0.349 -0.4045  0.3676 -0.2402
    4CHTO   O53 1445   7.881   8.665   0.522  0.5463 -0.1618  0.3372
    4CHTO   C82 1446   7.759   8.701   0.593 -0.4789  0.4153  0.0634
    4CHTO  H154 1447   7.684   8.623   0.582  0.1346  0.2636 -3.7297
    4CHTO   C89 1448   7.795   8.712   0.743 -0.2501  0.4967  0.1030
    4CHTO   O59 1449   7.818   8.595   0.820 -0.1259 -0.1566  0.4425
    4CHTO  H137 1450   7.839   8.519   0.769  0.3192  0.1227  0.2000
    4CHTO   O45 1451   7.972   8.564   0.279 -0.4531 -0.5257 -0.0940
    4CHTO   C67 1452   8.023   8.439   0.324  0.2023 -0.2358  0.3501
    4CHTO  H124 1453   8.079   8.385   0.247 -0.2634  0.3468 -0.4003
    4CHTO   C65 1454   8.119   8.471   0.449 -0.3079  0.4607  0.1615
    4CHTO  H122 1455   8.126   8.578   0.468 -1.4345  0.0630  3.1478
    4CHTO   O44 1456   8.251   8.425   0.409 -0.1917 -0.0135 -0.3251
    4CHTO  H102 1457   8.313   8.422   0.479 -1.3456 -1.7334  0.6826
    4CHTO   C63 1458   8.065   8.403   0.580 -0.1420 -0.0616 -0.3428
    4CHTO  H120 1459   7.977   8.458   0.613  0.5972  0.1435  1.3848
    4CHTO   N11 1460   8.152   8.428   0.703  0.2633 -0.0605 -0.0102
    4CHTO  H108 1461   8.172   8.531   0.725  0.9467  0.3696 -2.5194
    4CHTO  H109 1462   8.113   8.386   0.794  1.3834  0.1100  0.5598
    4CHTO   C61 1463   8.042   8.248   0.554  0.3111  0.1833  0.4432
    4CHTO  H118 1464   7.994   8.209   0.645 -1.9988 -0.5642 -1.0636
    4CHTO   O40 1465   7.943   8.228   0.437 -0.0681  0.3381  0.1435
    4CHTO   C68 1466   7.902   8.336   0.360 -0.1460 -0.1952  0.5955
    4CHTO  H125 1467   7.820   8.377   0.422 -1.7812 -2.2144 -0.1604
    4CHTO   C72 1468   7.836   8.284   0.235 -0.4573 -0.0138  0.7843
    4CHTO   O48 1469   7.829   8.377   0.124 -0.0926  0.3130 -0.3245
    4CHTO  H105 1470   7.912   8.404   0.091 -0.4528  1.9589  0.0445
    4CHTO   O38 1471   8.172   8.173   0.540 -0.0159 -0.5096 -0.5014
    4CHTO   C55 1472   8.166   8.034   0.590 -0.3403  0.4595  0.2886
    4CHTO  H112 1473   8.062   7.999   0.600 -0.1273 -0.2605 -0.0119
    4CHTO   C56 1474   8.249   8.021   0.725  0.0939 -0.2007 -0.0376
    4CHTO  H113 1475   8.350   8.058   0.702  0.5033 -0.8089  0.7565
    4CHTO   O42 1476   8.197   8.102   0.830 -0.2782  0.1482 -0.0520
    4CHTO  H100 1477   8.196   8.045   0.904  2.2538 -0.2136 -0.2389
    4CHTO   C57 1478   8.257   7.869   0.762 -0.5081 -0.0417  0.3554
    4CHTO  H114 1479   8.156   7.832   0.778 -0.0152 -1.3215  0.5874
    4CHTO   N10 1480   8.337   7.852   0.885 -0.0555  0.2425 -0.0516
    4CHTO  H106 1481   8.403   7.936   0.905  0.0739  0.7114 -2.3801
    4CHTO  H107 1482   8.266   7.841   0.966 -2.2189 -0.0978 -1.9377
    4CHTO   C58 1483   8.311   7.782   0.646 -0.2240 -0.3080  0.0438
    4CHTO  H115 1484   8.416   7.810   0.624 -0.8231  0.0752 -2.4752
    4CHTO   O37 1485   8.234   7.805   0.522  0.3161 -0.0616  0.2155
    4CHTO   C59 1486   8.232   7.947   0.482  0.0314  0.6431 -0.0254
    4CHTO  H116 1487   8.329   7.992   0.463  1.3355 -2.4601 -1.0328
    4CHTO   C70 1488   8.161   7.960   0.347 -0.2009  0.1198  0.9612
    4CHTO   O46 1489   8.026   7.921   0.343 -0.0485  0.5132  0.3407
    4CHTO  H103 1490   8.023   7.828   0.330  0.4209  0.9366 -3.5012
    4CHTO   O39 1491   8.301   7.621   0.692 -0.1342  0.0785 -0.2603
    4CHTO   C60 1492   8.167   7.564   0.684  0.2692 -0.1495 -0.0432
    4CHTO  H117 1493   8.102   7.642   0.724  2.2703  0.8311  1.3333
    4CHTO   C62 1494   8.122   7.515   0.537 -0.1692  0.5157  0.5955
    4CHTO  H119 1495   8.104   7.604   0.474 -0.2957  0.4927  0.5990
    4CHTO   O43 1496   8.214   7.432   0.471 -0.3094  0.8675  0.1758
    4CHTO  H101 1497   8.271   7.492   0.427 -0.0754  1.2473  0.9814
    4CHTO   C66 1498   7.980   7.430   0.561 -0.8369  0.1836 -0.0629
    4CHTO  H123 1499   7.915   7.491   0.624 -3.5216 -1.0508 -1.5830
    4CHTO   N12 1500   7.914   7.405   0.434 -0.5649 -0.1195 -0.3410
    4CHTO  H110 1501   7.827   7.346   0.457  0.9700 -2.0476  0.6285
    4CHTO  H111 1502   7.908   7.498   0.380 -1.2505 -0.3319 -0.6359
    4CHTO   C69 1503   8.018   7.303   0.640 -0.5066 -0.1859 -0.3119
    4CHTO  H126 1504   8.106   7.255   0.592 -0.0154  1.2051 -0.8110
    4CHTO   O41 1505   8.038   7.355   0.782 -0.3183 -0.4531  0.0036
    4CHTO   C64 1506   8.159   7.446   0.788 -0.1304  0.7267  0.3346
    4CHTO  H121 1507   8.256   7.397   0.763 -0.6740  0.5523 -1.5724
    4CHTO   C71 1508   8.185   7.489   0.939  0.3404  0.5241 -0.7217
    4CHTO   O47 1509   8.241   7.390   1.028 -0.2019  0.5365  0.1650
    4CHTO  H104 1510   8.216   7.396   1.118 -1.2806  1.3501 -0.1789
    4CHTO   O34 1511   7.911   7.201   0.661 -0.3014  0.6316 -0.0520
    4CHTO   C49 1512   7.907   7.049   0.654  0.2949 -0.1321  0.2358
    4CHTO   H91 1513   7.984   7.025   0.580 -1.3514 -2.0381 -0.8992
    4CHTO   C47 1514   7.765   7.005   0.603 -0.9755 -0.4638 -0.4007
    4CHTO   H89 1515   7.774   7.008   0.492 -2.8748  0.2569 -0.5464
    4CHTO   O33 1516   7.665   7.095   0.639 -0.3712 -0.0170  0.1531
    4CHTO   H70 1517   7.668   7.136   0.723  1.2650  0.9773 -0.3535
    4CHTO   C45 1518   7.727   6.855   0.657  0.2011 -0.1738 -0.0977
    4CHTO   H87 1519   7.677   6.882   0.751  0.3368  1.5686 -0.4894
    4CHTO    N8 1520   7.633   6.783   0.571 -0.3118 -0.3465 -0.4353
    4CHTO   H75 1521   7.536   6.781   0.618  0.6789  0.4001  1.7250
    4CHTO   H76 1522   7.628   6.827   0.472 -0.5102 -1.8066 -1.0958
    4CHTO   C43 1523   7.864   6.777   0.683  0.2040 -0.6859 -1.1210
    4CHTO   H85 1524   7.838   6.675   0.711 -0.6080 -0.3065 -0.4990
    4CHTO   O29 1525   7.956   6.840   0.774  0.1784  0.1494  0.3342
    4CHTO   C50 1526   7.940   6.982   0.787 -0.0156  0.1409 -0.6271
    4CHTO   H92 1527   7.873   7.009   0.870 -0.3337  1.7979 -1.4053
    4CHTO   C54 1528   8.060   7.033   0.861 -0.1719 -0.2449  0.0594
    4CHTO   O36 1529   8.187   7.002   0.802 -0.0621  0.1322 -0.5462
    4CHTO   H72 1530   8.200   7.027   0.712 -1.3989 -1.8595 -1.3359
    4CHTO   O27 1531   7.931   6.760   0.555  0.7457  0.4157 -0.5964
    4CHTO   C37 1532   8.041   6.696   0.487  0.4649 -0.2251  0.8679
    4CHTO   H79 1533   8.022   6.730   0.384 -1.5485 -0.6791  1.0697
    4CHTO   C38 1534   8.174   6.759   0.536 -0.1991  0.5443 -0.0594
    4CHTO   H80 1535   8.164   6.770   0.645 -0.3574 -1.8232  0.1912
    4CHTO   O31 1536   8.175   6.895   0.485  0.5511 -0.2180 -0.0170
    4CHTO   H68 1537   8.126   6.897   0.405 -0.9961  0.3175  0.9288
    4CHTO   C39 1538   8.299   6.673   0.490  0.3464  0.5067 -0.4788
    4CHTO   H81 1539   8.328   6.702   0.389  0.0904 -3.7067 -1.8525
    4CHTO    N7 1540   8.424   6.688   0.571  0.2581 -0.5032  0.4772
    4CHTO   H73 1541   8.434   6.794   0.589 -1.2574 -0.0348 -1.2266
    4CHTO   H74 1542   8.415   6.637   0.666 -0.4760 -0.6782  0.3209
    4CHTO   C40 1543   8.267   6.518   0.471 -0.5721  0.3157 -0.2374
    4CHTO   H82 1544   8.265   6.474   0.570 -0.2260 -0.9503 -0.7871
    4CHTO   O26 1545   8.143   6.503   0.405 -0.2274 -0.1494  0.2163
    4CHTO   C41 1546   8.028   6.542   0.496 -0.3322  0.0085  0.1509
    4CHTO   H83 1547   8.044   6.491   0.592 -2.0481 -2.2471 -0.7127
    4CHTO   C52 1548   7.902   6.484   0.420  0.7562  0.4727 -0.5279
    4CHTO   O35 1549   7.769   6.466   0.507  0.4579 -0.5105 -0.4130
    4CHTO   H71 1550   7.745   6.534   0.566  0.8819  0.5195 -1.3941
    4CHTO   O28 1551   8.374   6.451   0.399  0.5041 -0.3897 -0.6842
    4CHTO   C42 1552   8.386   6.305   0.423 -0.0541 -0.4583 -0.1234
    4CHTO   H84 1553   8.475   6.284   0.364 -0.3798 -0.8335 -0.4779
    4CHTO   C44 1554   8.270   6.218   0.359 -0.0036  0.0226 -0.1170
    4CHTO   H86 1555   8.181   6.254   0.411  1.1756  1.0946  1.2004
    4CHTO   O32 1556   8.276   6.240   0.219 -0.6861  0.0802 -0.2139
    4CHTO   H69 1557   8.280   6.158   0.172 -0.0213 -0.6066  1.0101
    4CHTO   C48 1558   8.274   6.064   0.396 -0.1691 -0.4694  0.5599
    4CHTO   H90 1559   8.346   6.005   0.340 -1.6107 -1.0417 -0.7229
    4CHTO    N9 1560   8.150   5.984   0.377  0.6006  0.2953 -0.2797
    4CHTO   H77 1561   8.073   6.047   0.333  1.1518  0.0399 -1.6426
    4CHTO   H78 1562   8.163   5.893   0.321  0.6259 -0.4209  0.8707
    4CHTO   C51 1563   8.323   6.053   0.547  0.0678 -0.6981 -0.2281
    4CHTO   H93 1564   8.237   6.086   0.604  0.5028 -1.2957  0.7782
    4CHTO   O30 1565   8.435   6.133   0.574 -0.0392 -0.3792  0.3535
    4CHTO   C46 1566   8.415   6.267   0.571 -0.0936  0.5473  0.2668
    4CHTO   H88 1567   8.327   6.304   0.624  1.7085  3.8210  1.1411
    4CHTO   C53 1568   8.541   6.340   0.635 -0.1448  0.5923 -0.0080
    4CHTO   O72 1569   8.678   6.319   0.584 -0.1719 -0.5793 -0.6345
    4CHTO  H199 1570   8.737   6.350   0.651  0.7933 -2.2656 -0.6554
    4CHTO   O22 1571   8.365   5.920   0.565  0.6515  0.4578  0.2202
    4CHTO   C31 1572   8.399   5.880   0.710  0.4926 -0.1980  0.1859
    4CHTO   H59 1573   8.410   5.975   0.765 -2.0709 -0.3475  1.0140
    4CHTO   C29 1574   8.284   5.801   0.779 -0.7014 -0.1783 -0.5488
    4CHTO   H57 1575   8.269   5.707   0.726 -1.4950 -1.0966  1.2549
    4CHTO   O21 1576   8.166   5.880   0.777  0.2415 -0.5415 -1.1817
    4CHTO   H37 1577   8.087   5.834   0.792 -0.1387 -0.1911 -2.0742
    4CHTO   C27 1578   8.327   5.774   0.928 -0.4447 -0.2352  0.7801
    4CHTO   H55 1579   8.348   5.871   0.974 -1.8556  0.4580 -0.0080
    4CHTO    N5 1580   8.228   5.700   1.001  0.9090  0.0718  0.2043
    4CHTO   H43 1581   8.219   5.599   0.965 -1.0927  0.7624 -1.3363
    4CHTO   H44 1582   8.266   5.698   1.102 -1.3739 -3.0230  1.0667
    4CHTO   C25 1583   8.464   5.701   0.932  0.4393  0.4548  0.3866
    4CHTO   H53 1584   8.457   5.595   0.903  0.6957  0.6113 -0.2445
    4CHTO   O17 1585   8.562   5.763   0.852 -0.3273 -0.1942 -0.7007
    4CHTO   C32 1586   8.541   5.812   0.718  1.1477 -0.1166 -0.5755
    4CHTO   H60 1587   8.551   5.733   0.644 -1.1180  1.5348 -2.7192
    4CHTO   C36 1588   8.664   5.900   0.684 -0.9243  0.1168  0.0607
    4CHTO   O25 1589   8.791   5.835   0.664 -0.0759  0.2833  0.5954
    4CHTO   H40 1590   8.783   5.771   0.596  0.0147  1.9772 -1.0582
    4CHTO   O15 1591   8.522   5.718   1.083  0.4098 -0.5575  0.0771
    4CHTO   C19 1592   8.553   5.843   1.164  0.2879  0.1915  0.1348
    4CHTO   H47 1593   8.639   5.811   1.225  1.0571 -0.1038 -1.0807
    4CHTO   C20 1594   8.596   5.962   1.078  0.5594 -0.1277  0.3140
    4CHTO   H48 1595   8.534   5.969   0.987  0.1163 -3.3560  0.2928
    4CHTO   O19 1596   8.725   5.925   1.035 -0.3976  0.1929  0.2420
    4CHTO   H35 1597   8.759   5.983   0.969 -0.3418 -0.9039 -0.7235
    4CHTO   C21 1598   8.593   6.099   1.145 -0.5040 -0.1969 -0.1719
    4CHTO   H49 1599   8.683   6.112   1.205 -0.7700 -0.6645  0.3373
    4CHTO    N4 1600   8.599   6.208   1.054  0.8581 -0.2434  0.0289
    4CHTO   H41 1601   8.499   6.226   1.019  1.2145 -0.5875 -1.2326
    4CHTO   H42 1602   8.624   6.300   1.105  1.5622 -0.2740 -0.2423
    4CHTO   C22 1603   8.471   6.118   1.247  0.1991 -0.2164 -0.7410
    4CHTO   H50 1604   8.378   6.121   1.191 -0.2313 -1.0142 -0.0925
    4CHTO   O14 1605   8.475   6.004   1.333 -0.4760  0.0837 -0.3608
    4CHTO   C23 1606   8.446   5.882   1.266 -0.4811 -0.2059 -1.0459
    4CHTO   H51 1607   8.350   5.904   1.218 -0.5359  0.2405 -0.7270
    4CHTO   C34 1608   8.418   5.772   1.374 -0.4447  0.1673  0.2924
    4CHTO   O23 1609   8.382   5.651   1.300 -0.3335  0.0767  0.0888
    4CHTO   H38 1610   8.390   5.579   1.359  2.3561  0.3174  0.0797
    4CHTO   O16 1611   8.485   6.229   1.346  0.3221  0.7355  0.5079
    4CHTO   C24 1612   8.374   6.362   1.346 -0.8491  0.0036 -0.0293
    4CHTO   H52 1613   8.300   6.356   1.266  0.1445 -2.3616 -0.8276
    4CHTO   C26 1614   8.451   6.498   1.327 -0.4420  0.0673 -0.3997
    4CHTO   H54 1615   8.522   6.504   1.412 -0.9087 -2.4576  0.2319
    4CHTO   O20 1616   8.522   6.499   1.202 -0.5991  0.0058  0.8613
    4CHTO   H36 1617   8.565   6.421   1.174  0.4289  1.5381 -2.0591
    4CHTO   C30 1618   8.342   6.610   1.319  0.4379 -0.1373 -0.3591
    4CHTO   H58 1619   8.281   6.586   1.230 -1.1197  1.0436  0.3706
    4CHTO    N6 1620   8.395   6.747   1.300  0.4549 -0.1706 -0.0598
    4CHTO   H45 1621   8.502   6.752   1.300  0.3686  2.1944  0.0373
    4CHTO   H46 1622   8.353   6.780   1.206  1.9887 -0.8965 -1.0131
    4CHTO   C33 1623   8.240   6.609   1.446 -0.1199 -0.4405  0.5487
    4CHTO   H61 1624   8.301   6.628   1.535 -0.0895  1.3572  0.1601
    4CHTO   O18 1625   8.189   6.475   1.456 -0.2585  0.1131  0.6240
    4CHTO   C28 1626   8.284   6.374   1.475 -0.0117 -1.1444  0.3971
    4CHTO   H56 1627   8.340   6.398   1.565 -0.8121  0.1760  0.5484
    4CHTO   C35 1628   8.223   6.236   1.497 -0.1463 -0.3269 -0.3638
    4CHTO   O24 1629   8.150   6.179   1.396  0.7242 -0.6549 -0.8506
    4CHTO   H39 1630   8.106   6.105   1.433 -1.3579  1.0799  0.2620
    4CHTO    O9 1631   8.137   6.700   1.451 -0.0921 -0.0853  0.7138
    4CHTO   C13 1632   8.064   6.722   1.594  0.1165 -0.1762  0.4880
    4CHTO   H26 1633   8.077   6.629   1.652 -2.9585 -1.6857 -1.0808
    4CHTO   C11 1634   7.914   6.756   1.580 -0.7126 -0.6812  0.6462
    4CHTO   H24 1635   7.860   6.667   1.544 -1.9648  0.8452 -1.3678
    4CHTO    O8 1636   7.905   6.851   1.473 -0.0831  0.9229 -0.2041
    4CHTO    H3 1637   7.817   6.854   1.439  0.2019  1.4554 -0.9065
    4CHTO    C9 1638   7.841   6.781   1.717 -0.0754  0.2728  0.7051
    4CHTO   H22 1639   7.832   6.683   1.767  0.4170 -0.5603 -0.8002
    4CHTO    N2 1640   7.696   6.816   1.705  0.2801  0.0849 -0.0590
    4CHTO   H10 1641   7.676   6.836   1.600 -2.1097  0.4184  0.4483
    4CHTO   H11 1642   7.667   6.904   1.760  1.2499  1.3349 -1.4856
    4CHTO    C7 1643   7.924   6.880   1.809 -0.8123  0.3316 -0.3187
    4CHTO   H20 1644   7.888   6.865   1.913 -3.4039  1.9119 -0.9393
    4CHTO    O4 1645   8.071   6.864   1.806 -0.3175  0.0056 -0.0930
    4CHTO   C14 1646   8.145   6.832   1.686 -0.1747 -0.3950 -0.6461
    4CHTO   H27 1647   8.237   6.781   1.722 -1.2146 -1.1236  1.0578
    4CHTO   C18 1648   8.189   6.951   1.595  0.0279  0.4544 -0.3412
    4CHTO   O13 1649   8.332   6.979   1.611 -0.4090  0.1497 -0.0651
    4CHTO    H7 1650   8.338   7.069   1.636 -0.5147  0.0909  0.1654
    4CHTO    O2 1651   7.888   7.040   1.770  0.5550 -0.0045 -0.6011
    4CHTO    C1 1652   7.974   7.141   1.821 -0.1634 -0.2027  0.3643
    4CHTO   H14 1653   8.076   7.128   1.780  0.3273  0.8393  1.2340
    4CHTO    C2 1654   7.983   7.143   1.979 -0.5706  0.7067  0.3012
    4CHTO   H15 1655   7.886   7.170   2.024  0.4326  1.9592  1.7510
    4CHTO    O6 1656   8.028   7.016   2.024 -0.3290  0.0284 -0.2911
    4CHTO    H1 1657   8.098   6.977   1.975 -0.6968 -0.0152 -0.7915
    4CHTO    C3 1658   8.086   7.256   2.017  0.2321  0.4265 -0.5733
    4CHTO   H16 1659   8.182   7.221   1.976  0.7334  0.7657  0.3029
    4CHTO    N1 1660   8.105   7.283   2.165  0.1672 -0.1401 -0.1085
    4CHTO    H8 1661   8.208   7.281   2.197  0.4560 -1.2045 -1.0674
    4CHTO    H9 1662   8.053   7.199   2.210 -2.0443  1.4176  0.2905
    4CHTO    C4 1663   8.062   7.396   1.950 -0.0782 -0.0640  0.2407
    4CHTO   H17 1664   7.970   7.442   1.987 -0.9830 -0.9618 -0.8371
    4CHTO    O1 1665   8.050   7.369   1.809  0.0935 -0.1458  0.3161
    4CHTO    C5 1666   7.942   7.280   1.767  0.2746 -0.2865  0.1318
    4CHTO   H18 1667   7.850   7.307   1.819 -0.1278 -0.7947 -0.3077
    4CHTO   C16 1668   7.914   7.286   1.607 -0.3725 -0.4380  0.4917
    4CHTO   O11 1669   8.031   7.268   1.527 -0.1004 -0.0711 -0.1239
    4CHTO    H5 1670   8.002   7.252   1.439 -0.3969  0.4288 -0.1233
    4CHTO    O3 1671   8.182   7.473   1.968 -0.5276 -0.3196  0.3694
    4CHTO    C6 1672   8.200   7.614   1.939  0.4847  0.4320 -0.1751
    4CHTO   H19 1673   8.105   7.656   1.906 -0.0773 -1.1625 -0.6086
    4CHTO    C8 1674   8.239   7.694   2.072 -0.2153 -0.4771 -0.3840
    4CHTO   H21 1675   8.324   7.646   2.121  0.8911  2.2337  0.4526
    4CHTO    O7 1676   8.127   7.678   2.157  0.4562  0.4177  0.2091
    4CHTO    H2 1677   8.049   7.716   2.122 -0.9771 -0.2538  2.6393
    4CHTO   C12 1678   8.278   7.844   2.048  0.5356  0.4380 -0.0860
    4CHTO   H25 1679   8.181   7.894   2.028  0.4531  0.4753  0.3903
    4CHTO    N3 1680   8.332   7.916   2.164 -0.5014  0.3554 -0.0604
    4CHTO   H12 1681   8.417   7.976   2.135  0.6038 -0.8201  0.6637
    4CHTO   H13 1682   8.256   7.976   2.211 -0.7510  0.6146 -0.8037
    4CHTO   C15 1683   8.368   7.857   1.919  0.1666  1.0413 -0.1101
    4CHTO   H28 1684   8.474   7.835   1.932 -0.1913 -0.5776  0.1427
    4CHTO   O10 1685   8.366   8.000   1.874 -0.1270 -0.1800  0.6273
    4CHTO    H4 1686   8.286   8.040   1.902 -0.4371 -1.1726  1.1756
    4CHTO    O5 1687   8.321   7.777   1.802  0.1134  0.3467  0.6356
    4CHTO   C10 1688   8.308   7.639   1.824 -0.0737 -0.4969  0.6922
    4CHTO   H23 1689   8.404   7.598   1.855  0.5935 -0.3187 -1.0828
    4CHTO   C17 1690   8.262   7.576   1.685 -0.6525 -0.2083  0.0856
    4CHTO   O12 1691   8.128   7.628   1.659 -0.2489 -0.5837  0.3697
    4CHTO    H6 1692   8.068   7.562   1.631 -0.1617 -1.4527  2.1778
    5CHTO  H203 1693   8.693   3.806   0.981 -0.2416  0.8409  0.9102
    5CHTO   O82 1694   8.696   3.880   1.038 -0.2321  1.3894  0.2161
    5CHTO  C123 1695   8.667   3.844   1.177 -0.1442 -0.7979 -0.1467
    5CHTO  H227 1696   8.621   3.744   1.185  0.0217 -0.8861 -0.2984
    5CHTO   O77 1697   8.801   3.830   1.225  0.2346  0.5442  0.0288
    5CHTO  C118 1698   8.816   3.800   1.364  0.0117  0.1118 -0.2361
    5CHTO  H222 1699   8.759   3.706   1.378  0.0992  0.2426  1.1091
    5CHTO  C125 1700   8.969   3.775   1.405  0.7029 -0.0485  0.1146
    5CHTO   O84 1701   9.006   3.658   1.336  0.1467  0.5013  0.5176
    5CHTO  H205 1702   9.024   3.689   1.249  0.1640  0.6632  0.5804
    5CHTO  C114 1703   8.752   3.904   1.460  0.0993 -0.5929  0.3569
    5CHTO  H218 1704   8.804   3.999   1.446  0.0674 -0.9279 -2.3994
    5CHTO  C116 1705   8.600   3.931   1.414 -0.0753  0.0167 -0.3873
    5CHTO  H220 1706   8.537   3.844   1.444 -2.7972  1.5626 -1.4730
    5CHTO   O79 1707   8.545   4.046   1.485 -0.3064 -0.1525  0.0448
    5CHTO  H201 1708   8.518   4.008   1.566  1.0152 -1.0382  0.0813
    5CHTO  C120 1709   8.594   3.953   1.257 -0.4371  0.3597  0.4917
    5CHTO  H224 1710   8.645   4.050   1.239  0.5641 -0.3588 -0.6595
    5CHTO   N21 1711   8.452   3.980   1.214  0.0198  0.0894 -0.9278
    5CHTO  H211 1712   8.413   4.059   1.277 -1.1774 -1.0111 -0.2796
    5CHTO  H212 1713   8.388   3.894   1.223  1.1988 -0.8574 -1.4788
    5CHTO   O75 1714   8.768   3.860   1.598 -0.5254 -0.0350  0.0360
    5CHTO  C112 1715   8.660   3.764   1.659 -0.6536 -0.4562  0.0167
    5CHTO  H216 1716   8.609   3.713   1.575 -0.6998 -0.2830 -0.0612
    5CHTO   O73 1717   8.567   3.851   1.729  0.0865 -0.2259 -0.6223
    5CHTO  C113 1718   8.448   3.789   1.762 -0.0358 -0.2232  0.7123
    5CHTO  H217 1719   8.403   3.743   1.671 -1.0098  0.3951  0.8661
    5CHTO  C124 1720   8.359   3.902   1.807  0.2220 -1.0215  0.5298
    5CHTO   O83 1721   8.294   3.956   1.696  0.4603  0.3657 -0.3528
    5CHTO  H204 1722   8.201   3.952   1.698  0.5009  0.1273  2.8989
    5CHTO  C109 1723   8.470   3.681   1.865 -0.9075  0.0121 -0.1967
    5CHTO  H213 1724   8.518   3.728   1.952 -0.5211  2.4095 -1.6623
    5CHTO  C110 1725   8.574   3.577   1.807 -0.3935  0.4167 -0.4052
    5CHTO  H214 1726   8.533   3.529   1.718 -1.5546 -1.4303  1.0874
    5CHTO   O78 1727   8.592   3.468   1.900 -0.3304 -0.1751 -0.3296
    5CHTO  H200 1728   8.643   3.493   1.974  2.4515 -1.8015 -1.6036
    5CHTO  C111 1729   8.706   3.653   1.763  0.1928 -0.5291 -0.5708
    5CHTO  H215 1730   8.754   3.700   1.850 -2.1238  4.2335 -1.7170
    5CHTO   N19 1731   8.809   3.560   1.711 -0.0010 -0.4116 -0.3559
    5CHTO  H207 1732   8.895   3.615   1.676  0.3760 -1.8094 -1.6805
    5CHTO  H208 1733   8.778   3.492   1.633 -1.5765 -0.3628  0.2135
    5CHTO   O74 1734   8.341   3.620   1.900 -0.2458  0.3397  0.0443
    5CHTO  C115 1735   8.315   3.562   2.050  0.2825  0.2738 -0.3991
    5CHTO  H219 1736   8.396   3.495   2.079  1.2303  1.0740 -1.1641
    5CHTO   O76 1737   8.319   3.678   2.163  0.6630  0.2872  0.1696
    5CHTO  C122 1738   8.226   3.785   2.134  0.2257 -0.7647  0.3449
    5CHTO  H226 1739   8.258   3.842   2.047  0.6101  2.0014  2.2404
    5CHTO  C126 1740   8.255   3.880   2.251  0.2570 -0.6415 -0.4589
    5CHTO   O85 1741   8.378   3.949   2.248 -0.0144 -0.3167 -0.0845
    5CHTO  H206 1742   8.374   4.007   2.322  1.6324  2.0084 -1.7498
    5CHTO  C121 1743   8.080   3.738   2.118  0.1389 -0.3799 -0.6389
    5CHTO  H225 1744   8.028   3.797   2.196  2.8793  0.9594  0.2236
    5CHTO   O81 1745   8.027   3.786   1.994 -0.2884 -0.2570  0.1588
    5CHTO  H202 1746   8.078   3.745   1.928 -0.1620 -0.6213  0.4783
    5CHTO  C119 1747   8.069   3.583   2.144  0.2098  0.2465 -0.8942
    5CHTO  H223 1748   8.098   3.578   2.248 -1.9857 -1.2508 -0.3273
    5CHTO  C117 1749   8.168   3.499   2.056 -0.9749  0.3420  0.5671
    5CHTO  H221 1750   8.150   3.491   1.949 -1.6935  0.6530  0.6623
    5CHTO   N20 1751   8.187   3.357   2.108  0.3955 -0.1766  0.0196
    5CHTO  H209 1752   8.223   3.319   2.014  0.5967  1.3561 -0.5469
    5CHTO  H210 1753   8.094   3.311   2.137  0.2480 -0.5266 -1.0175
    5CHTO   O80 1754   7.920   3.526   2.149  0.1864 -0.0696  0.0146
    5CHTO  C103 1755   7.830   3.524   2.004  0.3055 -0.4792 -0.4708
    5CHTO  H190 1756   7.863   3.611   1.948  0.9471  1.7667  3.2757
    5CHTO  C101 1757   7.828   3.395   1.917 -0.0158  0.1724  0.2768
    5CHTO  H188 1758   7.814   3.313   1.988  1.1105  1.0485  1.5534
    5CHTO   O68 1759   7.962   3.369   1.845  0.4014 -0.3598 -0.2606
    5CHTO  H168 1760   7.964   3.276   1.837  0.5472 -0.3991  0.2131
    5CHTO   C99 1761   7.705   3.390   1.810 -0.9313 -0.1859 -0.5761
    5CHTO  H186 1762   7.712   3.480   1.746 -0.9708  1.2475  1.4130
    5CHTO   N17 1763   7.697   3.257   1.737  0.0465 -0.0002  0.3900
    5CHTO  H174 1764   7.614   3.250   1.668  0.5120 -1.1252 -0.0673
    5CHTO  H175 1765   7.780   3.237   1.671 -0.5954 -0.8065 -0.1968
    5CHTO   C97 1766   7.578   3.416   1.889  0.5224  0.5162  0.3922
    5CHTO  H184 1767   7.570   3.329   1.956  0.6493 -1.7769 -2.4920
    5CHTO   O64 1768   7.585   3.540   1.958  0.2057 -0.8522  0.4396
    5CHTO  C104 1769   7.680   3.559   2.058 -0.6593 -0.0489 -0.2411
    5CHTO  H191 1770   7.662   3.498   2.147  1.3948  2.4456  1.9828
    5CHTO  C108 1771   7.675   3.702   2.104  1.2323 -0.3231  0.2168
    5CHTO   O71 1772   7.555   3.731   2.173  0.1121  0.7674 -0.0506
    5CHTO  H171 1773   7.476   3.716   2.123 -0.0807  1.1494  0.1367
    5CHTO   O62 1774   7.459   3.433   1.805 -0.3313 -0.1395  0.0958
    5CHTO   C91 1775   7.334   3.411   1.875  0.8041 -0.2623 -0.1454
    5CHTO  H178 1776   7.347   3.421   1.983 -2.2566 -1.6643  0.3842
    5CHTO   C92 1777   7.279   3.273   1.861  0.0060 -0.0176  0.2047
    5CHTO  H179 1778   7.264   3.248   1.755  0.7073 -1.6449  0.4756
    5CHTO   O66 1779   7.376   3.185   1.911  0.8441 -0.3258 -0.1487
    5CHTO  H166 1780   7.383   3.104   1.866  1.0773 -0.0793 -0.5523
    5CHTO   C93 1781   7.139   3.231   1.922 -0.4514 -0.1777  0.2367
    5CHTO  H180 1782   7.143   3.240   2.031 -1.0785  0.0183  0.2462
    5CHTO   N16 1783   7.107   3.092   1.897 -0.3829 -0.1453  0.2347
    5CHTO  H172 1784   7.173   3.009   1.922 -1.8213 -1.1986  0.5961
    5CHTO  H173 1785   7.004   3.062   1.910  0.3615 -1.7864  2.8319
    5CHTO   C94 1786   7.043   3.338   1.873  0.2729 -0.7821 -0.7254
    5CHTO  H181 1787   7.026   3.330   1.766  0.2073 -0.0226 -0.7719
    5CHTO   O61 1788   7.090   3.476   1.907  0.4736 -0.0233  0.4931
    5CHTO   C95 1789   7.208   3.505   1.829  0.6194 -0.6968 -0.5025
    5CHTO  H182 1790   7.191   3.491   1.722 -0.6984 -0.1211 -0.3703
    5CHTO  C106 1791   7.224   3.660   1.837  0.3708  0.4514  0.5613
    5CHTO   O69 1792   7.346   3.700   1.774 -0.2180 -0.1824 -0.2097
    5CHTO  H169 1793   7.350   3.793   1.784 -2.1184  0.0721 -1.5103
    5CHTO   O63 1794   6.900   3.305   1.941  0.2017  0.0838 -0.7947
    5CHTO   C96 1795   6.791   3.274   1.838 -1.1282  0.2984 -0.7296
    5CHTO  H183 1796   6.835   3.202   1.768  1.1324 -0.4170  1.3810
    5CHTO   C98 1797   6.738   3.397   1.761 -0.0070  0.0884 -0.2374
    5CHTO  H185 1798   6.697   3.465   1.837 -0.6548  0.8143 -1.2188
    5CHTO   O67 1799   6.845   3.475   1.701 -0.6624 -0.3314 -0.0761
    5CHTO  H167 1800   6.902   3.418   1.652  0.8967 -0.0182  1.3328
    5CHTO  C102 1801   6.627   3.354   1.660 -0.5057  0.3099  0.8241
    5CHTO  H189 1802   6.685   3.329   1.570  0.8302  2.7961  0.9528
    5CHTO   N18 1803   6.542   3.469   1.619 -0.2855  0.4220 -0.0671
    5CHTO  H176 1804   6.577   3.561   1.661 -0.7379  0.2748  0.6405
    5CHTO  H177 1805   6.436   3.453   1.636 -0.0626 -1.1385 -0.0074
    5CHTO  C105 1806   6.541   3.242   1.714  0.2212  0.2697 -0.3438
    5CHTO  H192 1807   6.450   3.279   1.761 -0.7965 -1.2458 -1.0492
    5CHTO   O65 1808   6.595   3.143   1.805 -0.3002 -0.0526  0.6232
    5CHTO  C100 1809   6.670   3.202   1.906 -0.4058 -0.9578 -0.1764
    5CHTO  H187 1810   6.599   3.269   1.958  2.9303  2.3458  0.3587
    5CHTO  C107 1811   6.720   3.093   2.013 -0.3624 -0.1384  0.0625
    5CHTO   O70 1812   6.763   2.971   1.950 -0.3888 -0.1267 -0.6003
    5CHTO  H170 1813   6.843   3.000   1.911  1.0489 -1.4558  1.2370
    5CHTO   O57 1814   6.513   3.151   1.596 -0.0787 -0.4952  0.2311
    5CHTO   C85 1815   6.380   3.107   1.574 -0.4982  0.2799 -0.1050
    5CHTO  H157 1816   6.319   3.165   1.645  3.1166 -0.1338  3.4910
    5CHTO   C83 1817   6.366   2.964   1.626 -0.1589  0.1216  0.2298
    5CHTO  H155 1818   6.371   2.974   1.734 -2.0988  1.7226  0.2166
    5CHTO   O56 1819   6.475   2.885   1.593  0.7586 -0.2083 -0.1271
    5CHTO  H135 1820   6.487   2.818   1.657  1.4160  1.3531  1.4020
    5CHTO   C81 1821   6.224   2.912   1.586 -0.6218 -0.4694 -0.5965
    5CHTO  H153 1822   6.155   2.987   1.626  0.7171 -0.2702  1.3951
    5CHTO   N14 1823   6.184   2.794   1.672  0.2010 -0.0132 -0.3038
    5CHTO  H141 1824   6.268   2.729   1.683  0.0372 -0.2617 -0.5410
    5CHTO  H142 1825   6.164   2.831   1.771  0.0168  0.5140 -0.5337
    5CHTO   C79 1826   6.208   2.907   1.431 -0.3002 -0.3880  0.5776
    5CHTO  H151 1827   6.112   2.861   1.408  0.2706 -0.2555 -2.1921
    5CHTO   O52 1828   6.223   3.047   1.378 -0.2829 -0.1324  0.5718
    5CHTO   C86 1829   6.340   3.123   1.428  0.3043 -0.3900 -0.1406
    5CHTO  H158 1830   6.419   3.087   1.358  1.4052  1.8569 -0.1195
    5CHTO   C90 1831   6.319   3.274   1.389  0.4553 -0.1466 -0.2945
    5CHTO   O60 1832   6.296   3.291   1.247  0.3794 -0.0512  0.1147
    5CHTO  H138 1833   6.341   3.227   1.195 -0.3335 -0.7664  0.3656
    5CHTO   O50 1834   6.312   2.835   1.369  0.4878 -0.6673 -0.4192
    5CHTO   C73 1835   6.355   2.751   1.259 -0.9313 -0.4149 -0.6314
    5CHTO  H145 1836   6.295   2.762   1.167  0.0044 -2.6922 -1.5542
    5CHTO   C74 1837   6.327   2.608   1.305 -0.6075  0.0196  0.0045
    5CHTO  H146 1838   6.225   2.587   1.340 -0.4113  0.2478  0.7151
    5CHTO   O54 1839   6.349   2.523   1.191  0.4779  0.2507  0.1048
    5CHTO  H133 1840   6.297   2.445   1.193  1.5977 -0.5371 -0.9777
    5CHTO   C75 1841   6.438   2.580   1.419  0.0110  0.3886  0.1897
    5CHTO  H147 1842   6.406   2.635   1.508  1.0127  0.1937  0.6731
    5CHTO   N13 1843   6.436   2.438   1.456 -0.2157  0.6301 -0.0727
    5CHTO  H139 1844   6.344   2.390   1.426 -0.0214  0.3376 -0.2063
    5CHTO  H140 1845   6.461   2.425   1.560  0.4558 -1.3683 -0.4466
    5CHTO   C76 1846   6.586   2.626   1.382 -0.0393 -0.6919 -0.0188
    5CHTO  H148 1847   6.605   2.565   1.293 -1.0907  0.1545 -0.8438
    5CHTO   O49 1848   6.584   2.764   1.327 -0.3884 -0.3745  0.2181
    5CHTO   C77 1849   6.501   2.777   1.218  0.7196 -0.0783  0.1953
    5CHTO  H149 1850   6.532   2.703   1.144  0.7153  0.1454 -0.0339
    5CHTO   C88 1851   6.525   2.910   1.142  0.4554 -0.2095 -0.2675
    5CHTO   O58 1852   6.654   2.905   1.079  0.1536 -0.8187 -0.2038
    5CHTO  H136 1853   6.719   2.959   1.120  0.1529 -1.1425  0.2270
    5CHTO   O51 1854   6.678   2.625   1.495 -0.1518  0.0114 -0.6796
    5CHTO   C78 1855   6.850   2.648   1.456  0.0673  0.4135  0.5197
    5CHTO  H150 1856   6.866   2.704   1.362  0.0052  1.4097  1.0960
    5CHTO   C80 1857   6.924   2.518   1.443  0.2278 -0.6558  0.7468
    5CHTO  H152 1858   6.913   2.460   1.537  2.5555 -2.4200 -0.0186
    5CHTO   O55 1859   6.861   2.444   1.339 -0.2830 -1.0027 -0.5429
    5CHTO  H134 1860   6.805   2.378   1.378 -0.8031  0.6136  1.5638
    5CHTO   C84 1861   7.081   2.537   1.417 -0.2664  0.0654 -0.6052
    5CHTO  H156 1862   7.097   2.582   1.319 -0.5081  1.4698 -0.0195
    5CHTO   N15 1863   7.157   2.408   1.406 -0.1585 -0.2200  0.0396
    5CHTO  H143 1864   7.156   2.339   1.488 -1.4530  0.0639  0.2710
    5CHTO  H144 1865   7.132   2.350   1.319 -1.5077 -0.1551  0.3726
    5CHTO   C87 1866   7.142   2.636   1.518 -0.6765  0.2195  0.0730
    5CHTO  H159 1867   7.137   2.571   1.605 -1.7278 -0.3221 -0.3746
    5CHTO   O53 1868   7.053   2.765   1.528 -0.6476 -0.9633 -0.0595
    5CHTO   C82 1869   6.915   2.733   1.566  0.1140 -0.5946  0.4193
    5CHTO  H154 1870   6.911   2.683   1.663  0.1676  0.4237  0.9484
    5CHTO   C89 1871   6.834   2.868   1.575 -0.8710 -0.8443 -0.1862
    5CHTO   O59 1872   6.871   2.950   1.686  0.1563 -0.3893  0.1107
    5CHTO  H137 1873   6.964   2.938   1.697 -0.1904 -2.2827  1.0801
    5CHTO   O45 1874   7.296   2.677   1.484 -0.2953 -0.4637 -0.0887
    5CHTO   C67 1875   7.380   2.689   1.597 -0.3518  0.3020 -0.2072
    5CHTO  H124 1876   7.316   2.713   1.682 -3.2012  2.4242 -2.8466
    5CHTO   C65 1877   7.468   2.559   1.624  0.2195  0.0658 -0.0422
    5CHTO  H122 1878   7.468   2.499   1.534 -1.4579 -1.2627  0.8348
    5CHTO   O44 1879   7.392   2.479   1.729 -0.3952  0.0759 -0.0357
    5CHTO  H102 1880   7.432   2.400   1.761 -0.0865  0.5020  0.6180
    5CHTO   C63 1881   7.624   2.586   1.641  0.1759 -0.1185 -0.8542
    5CHTO  H120 1882   7.665   2.610   1.543  0.1540  0.2552 -0.7728
    5CHTO   N11 1883   7.707   2.467   1.691 -0.3300  0.1390  0.2622
    5CHTO  H108 1884   7.801   2.509   1.719 -0.2569  0.6586 -0.7528
    5CHTO  H109 1885   7.707   2.387   1.620 -0.4188 -0.6254  1.1071
    5CHTO   C61 1886   7.642   2.712   1.733  0.4602 -0.7938 -0.4134
    5CHTO  H118 1887   7.751   2.728   1.735 -0.0510  2.8823  0.8281
    5CHTO   O40 1888   7.583   2.827   1.667 -0.4108  0.0202  0.0219
    5CHTO   C68 1889   7.472   2.818   1.573 -0.4879 -0.2271 -1.3423
    5CHTO  H125 1890   7.509   2.817   1.469 -0.1996 -0.5695 -1.2397
    5CHTO   C72 1891   7.386   2.937   1.593  0.1537 -0.0083  0.4609
    5CHTO   O48 1892   7.444   3.058   1.644 -0.4328  0.3674  0.2613
    5CHTO  H105 1893   7.456   3.055   1.737  0.7540  1.3454  0.1494
    5CHTO   O38 1894   7.593   2.695   1.863 -0.3598 -0.4194  0.2953
    5CHTO   C55 1895   7.563   2.798   1.959  0.0159  0.0326 -0.0224
    5CHTO  H112 1896   7.531   2.887   1.903  0.9205  0.8445  0.7451
    5CHTO   C56 1897   7.686   2.822   2.058  0.2818  0.3025 -0.4599
    5CHTO  H113 1898   7.706   2.736   2.125  4.2545  1.2842 -0.2324
    5CHTO   O42 1899   7.803   2.836   1.976 -0.2307  0.2002 -0.3760
    5CHTO  H100 1900   7.859   2.761   1.970  0.3749  0.5619  0.6786
    5CHTO   C57 1901   7.647   2.951   2.137 -0.2757  0.0313 -0.9114
    5CHTO  H114 1902   7.617   3.034   2.073  0.0823  2.2291  1.7020
    5CHTO   N10 1903   7.756   2.998   2.229 -0.0994  0.0447  0.0973
    5CHTO  H106 1904   7.720   3.046   2.319 -0.2971 -1.0412  0.5958
    5CHTO  H107 1905   7.809   2.907   2.254 -0.6376 -0.6551 -1.2558
    5CHTO   C58 1906   7.521   2.911   2.216  0.4696 -0.6168 -0.9028
    5CHTO  H115 1907   7.543   2.822   2.278  0.8402 -0.8907 -1.4205
    5CHTO   O37 1908   7.412   2.868   2.133 -0.3210 -0.1286 -0.4482
    5CHTO   C59 1909   7.443   2.759   2.050 -0.5266 -0.8097  0.1915
    5CHTO  H116 1910   7.474   2.681   2.120 -0.6270 -0.5375  0.5436
    5CHTO   C70 1911   7.315   2.721   1.974  0.7210  0.5343 -0.1793
    5CHTO   O46 1912   7.206   2.687   2.064  0.1139  0.3127 -0.3261
    5CHTO  H103 1913   7.130   2.651   2.024 -0.0942  1.5134 -1.0594
    5CHTO   O39 1914   7.459   3.043   2.310  0.4280  0.7315  0.1508
    5CHTO   C60 1915   7.330   3.100   2.276 -0.5478  0.2878 -0.6353
    5CHTO  H117 1916   7.314   3.085   2.169 -0.2071 -2.4632 -0.3428
    5CHTO   C62 1917   7.216   3.030   2.356  0.0512 -0.3660  0.1625
    5CHTO  H119 1918   7.209   2.925   2.321  2.3129 -0.7450  0.7546
    5CHTO   O43 1919   7.243   3.034   2.496 -0.1466  0.4411  1.0222
    5CHTO  H101 1920   7.274   3.118   2.525  1.8709 -0.9538  3.1159
    5CHTO   C66 1921   7.085   3.107   2.308  0.2230  0.1960  0.0591
    5CHTO  H123 1922   7.075   3.108   2.199  0.7864  2.0779  0.0148
    5CHTO   N12 1923   6.964   3.051   2.352  0.7585 -0.1932  0.1678
    5CHTO  H110 1924   6.967   2.943   2.356 -2.0298 -0.2615  1.8386
    5CHTO  H111 1925   6.896   3.105   2.416  1.0425 -0.1916  0.4689
    5CHTO   C69 1926   7.093   3.255   2.352 -0.0350 -0.3222 -0.3255
    5CHTO  H126 1927   7.106   3.264   2.462  1.0353 -0.7837 -0.4109
    5CHTO   O41 1928   7.193   3.312   2.268 -0.5283 -0.1965 -0.3191
    5CHTO   C64 1929   7.325   3.260   2.299  0.0308  0.2357 -0.4469
    5CHTO  H121 1930   7.356   3.273   2.405  0.2223  0.5802 -0.5434
    5CHTO   C71 1931   7.431   3.317   2.212 -0.4927  0.0454  0.0618
    5CHTO   O47 1932   7.445   3.447   2.272  0.2225 -0.0789  0.4841
    5CHTO  H104 1933   7.506   3.490   2.216 -0.1709 -1.3157 -0.9452
    5CHTO   O34 1934   6.967   3.349   2.328  0.6755  0.4027  0.8036
    5CHTO   C49 1935   6.934   3.476   2.271  0.2064  0.3768 -0.0026
    5CHTO   H91 1936   6.992   3.484   2.180  0.9532  1.4144  0.5481
    5CHTO   C47 1937   6.973   3.584   2.369  0.1490  0.1298 -0.6051
    5CHTO   H89 1938   6.959   3.677   2.311  0.0628  1.4338  1.4621
    5CHTO   O33 1939   7.115   3.565   2.391  0.1387 -0.3359 -0.3049
    5CHTO   H70 1940   7.155   3.640   2.432 -0.1883 -0.5029  0.3230
    5CHTO   C45 1941   6.884   3.577   2.502  0.0342 -0.2447 -0.1709
    5CHTO   H87 1942   6.907   3.478   2.543 -0.7894 -0.2239  0.3505
    5CHTO    N8 1943   6.915   3.680   2.606  0.4143 -0.4371  0.0017
    5CHTO   H75 1944   6.993   3.750   2.579  0.4760  0.1506  1.6453
    5CHTO   H76 1945   6.947   3.632   2.697 -2.2055 -0.5518  0.8840
    5CHTO   C43 1946   6.723   3.576   2.465 -0.4761  0.4752  0.3468
    5CHTO   H85 1947   6.678   3.534   2.555 -1.1601  0.4842  0.0090
    5CHTO   O29 1948   6.698   3.490   2.353  0.3045 -0.0735 -0.3252
    5CHTO   C50 1949   6.785   3.489   2.238  0.7766  0.5203  0.2482
    5CHTO   H92 1950   6.740   3.405   2.184 -1.0748  0.0970  2.3443
    5CHTO   C54 1951   6.738   3.605   2.152  0.5245 -0.8955 -0.2520
    5CHTO   O36 1952   6.821   3.623   2.035  0.1162 -0.4014  0.2593
    5CHTO   H72 1953   6.801   3.562   1.967 -0.0207  2.0707 -1.9971
    5CHTO   O27 1954   6.661   3.704   2.441  0.1118  0.1125 -0.1951
    5CHTO   C37 1955   6.552   3.790   2.461 -0.6623 -0.2931 -0.0782
    5CHTO   H79 1956   6.535   3.863   2.381 -0.6387  0.2224  0.3835
    5CHTO   C38 1957   6.418   3.716   2.475 -0.0104 -0.4137  0.6444
    5CHTO   H80 1958   6.433   3.634   2.547 -2.4213 -0.8797  0.6616
    5CHTO   O31 1959   6.375   3.667   2.347 -0.3733  0.0349 -0.3606
    5CHTO   H68 1960   6.427   3.600   2.308  2.3289  2.2247 -0.6655
    5CHTO   C39 1961   6.304   3.805   2.540 -0.2501 -0.3628  1.3901
    5CHTO   H81 1962   6.279   3.871   2.457 -2.6968 -0.0927  2.2943
    5CHTO    N7 1963   6.180   3.730   2.573  0.1499 -0.1699 -0.6504
    5CHTO   H73 1964   6.205   3.666   2.656 -1.8945  0.3240  0.3665
    5CHTO   H74 1965   6.108   3.805   2.603  0.6912  0.0403  0.1431
    5CHTO   C40 1966   6.347   3.895   2.665 -0.0672  0.2636  0.1748
    5CHTO   H82 1967   6.365   3.840   2.758  1.4939  0.7264  0.1623
    5CHTO   O26 1968   6.465   3.963   2.624 -0.6727 -0.6573 -0.0363
    5CHTO   C41 1969   6.575   3.873   2.591 -0.1071 -0.3673  0.2243
    5CHTO   H83 1970   6.603   3.807   2.675 -0.4806 -0.0678  0.5858
    5CHTO   C52 1971   6.701   3.959   2.582  0.1448 -0.3621 -0.3061
    5CHTO   O35 1972   6.742   4.037   2.705  0.3225  0.2833  0.0970
    5CHTO   H71 1973   6.788   3.988   2.770 -2.3953 -0.6363  1.3911
    5CHTO   O28 1974   6.260   4.007   2.696 -0.0070 -0.1105  0.0046
    5CHTO   C42 1975   6.258   4.085   2.822  0.2046  0.1382  0.7549
    5CHTO   H84 1976   6.187   4.163   2.794 -2.2810 -1.7017  1.8019
    5CHTO   C44 1977   6.387   4.160   2.876 -0.7526 -0.4675  0.6028
    5CHTO   H86 1978   6.462   4.143   2.799 -2.0453 -3.4921 -0.0710
    5CHTO   O32 1979   6.359   4.302   2.899 -0.4085  0.1267 -0.9899
    5CHTO   H69 1980   6.371   4.358   2.824 -2.4931  0.3274 -1.1963
    5CHTO   C48 1981   6.461   4.110   3.008 -0.0680  0.4024 -0.8669
    5CHTO   H90 1982   6.423   4.158   3.098 -1.1460 -2.9761  0.5501
    5CHTO    N9 1983   6.609   4.130   3.018 -0.3628  0.1645 -0.5350
    5CHTO   H77 1984   6.631   4.155   3.120 -0.1260  0.6788 -0.7083
    5CHTO   H78 1985   6.650   4.209   2.956 -0.4692  1.2270  0.7361
    5CHTO   C51 1986   6.427   3.952   3.013  0.8015  0.1342  0.0230
    5CHTO   H93 1987   6.457   3.919   2.914  0.2768 -0.7594  0.1637
    5CHTO   O30 1988   6.289   3.936   3.032  0.6025  0.0560 -0.2500
    5CHTO   C46 1989   6.191   4.003   2.937  0.2682  0.4194  0.1541
    5CHTO   H88 1990   6.147   3.912   2.897 -0.0615  0.4231  0.5093
    5CHTO   C53 1991   6.093   4.090   3.019 -0.2148  0.0710 -1.1542
    5CHTO   O72 1992   5.983   4.141   2.940  0.7249 -0.7819  0.3123
    5CHTO  H199 1993   5.953   4.222   2.975 -1.4354 -1.3974 -0.0094
    5CHTO   O22 1994   6.490   3.869   3.114  0.1802  0.3087  0.1176
    5CHTO   C31 1995   6.509   3.722   3.104  0.2789 -0.2873  0.4941
    5CHTO   H59 1996   6.544   3.687   3.203 -0.7112 -0.1191  0.9068
    5CHTO   C29 1997   6.380   3.641   3.071  0.2591 -0.7605  0.1097
    5CHTO   H57 1998   6.343   3.696   2.983  4.5595  2.8374  0.3896
    5CHTO   O21 1999   6.284   3.668   3.174  0.0758 -0.4570 -0.6591
    5CHTO   H37 2000   6.203   3.623   3.162 -0.3478 -0.0752  0.7350
    5CHTO   C27 2001   6.406   3.484   3.043 -0.0553 -0.2667  0.2676
    5CHTO   H55 2002   6.432   3.435   3.138  2.1504  1.0211  0.3491
    5CHTO    N5 2003   6.282   3.414   2.996  0.6826  0.2129  0.1688
    5CHTO   H43 2004   6.238   3.451   2.904  1.3250  0.1231 -0.1802
    5CHTO   H44 2005   6.284   3.307   3.002  1.0085  0.1607 -0.7934
    5CHTO   C25 2006   6.535   3.473   2.948 -0.3180  0.2186 -0.2987
    5CHTO   H53 2007   6.500   3.512   2.852  0.2603  0.3330 -0.4643
    5CHTO   O17 2008   6.651   3.550   3.001 -0.2062 -0.1216  0.7345
    5CHTO   C32 2009   6.626   3.692   3.004 -0.7094  0.0972  0.8380
    5CHTO   H60 2010   6.606   3.727   2.903  1.3313 -1.3215 -0.0921
    5CHTO   C36 2011   6.760   3.757   3.052 -0.9168  0.1976 -0.3135
    5CHTO   O25 2012   6.874   3.698   2.988 -0.2079  0.2339  0.3281
    5CHTO   H40 2013   6.882   3.607   3.009  2.3919  0.1574 -0.7408
    5CHTO   O15 2014   6.582   3.339   2.926 -0.3114 -0.3901  0.3172
    5CHTO   C19 2015   6.666   3.227   2.969  0.9020  0.5937  0.5338
    5CHTO   H47 2016   6.712   3.271   3.059 -1.3194  0.2880  1.8549
    5CHTO   C20 2017   6.597   3.090   3.011  0.1120 -0.2727  0.6448
    5CHTO   H48 2018   6.545   3.042   2.927 -1.4334  1.5014  0.5475
    5CHTO   O19 2019   6.500   3.119   3.117 -0.2406  0.2638  0.2576
    5CHTO   H35 2020   6.442   3.046   3.110  0.9352 -0.6110 -0.5352
    5CHTO   C21 2021   6.704   2.984   3.063  0.2336  0.4375  0.2803
    5CHTO   H49 2022   6.752   3.019   3.155  0.0809 -2.3012  1.4581
    5CHTO    N4 2023   6.648   2.854   3.105  0.2038 -0.3986  0.1132
    5CHTO   H41 2024   6.682   2.772   3.043  0.9154  1.1297 -1.5239
    5CHTO   H42 2025   6.674   2.831   3.208  1.3289  2.0233  0.3920
    5CHTO   C22 2026   6.811   2.969   2.950 -0.6855  0.2354 -0.6410
    5CHTO   H50 2027   6.769   2.924   2.860 -1.4612  1.7567 -1.0555
    5CHTO   O14 2028   6.866   3.100   2.925  0.2928 -0.3615 -0.2954
    5CHTO   C23 2029   6.779   3.197   2.863 -0.1618 -0.3475 -0.7070
    5CHTO   H51 2030   6.736   3.151   2.772 -0.9098 -0.5147 -0.2761
    5CHTO   C34 2031   6.859   3.324   2.825  0.3765  0.8477 -0.7453
    5CHTO   O23 2032   6.959   3.301   2.728 -0.1342  0.4216  0.0613
    5CHTO   H38 2033   7.010   3.225   2.747  0.2924  0.1504 -2.0003
    5CHTO   O16 2034   6.924   2.883   2.991  0.2363 -0.2038 -0.5386
    5CHTO   C24 2035   6.990   2.798   2.870  1.1059 -0.0303  0.0701
    5CHTO   H52 2036   6.935   2.809   2.777 -0.6110 -0.9451  0.9556
    5CHTO   C26 2037   6.998   2.651   2.924  0.4509 -0.6448 -0.5733
    5CHTO   H54 2038   7.027   2.655   3.031 -0.3926  2.8028 -0.4249
    5CHTO   O20 2039   6.870   2.595   2.928 -0.1604 -0.1944 -0.1317
    5CHTO   H36 2040   6.871   2.516   2.977 -1.7752 -2.2673 -3.2847
    5CHTO   C30 2041   7.102   2.566   2.852 -0.4478  0.3552 -0.1030
    5CHTO   H58 2042   7.067   2.550   2.749  1.3681  1.8544 -0.9863
    5CHTO    N6 2043   7.134   2.429   2.902 -0.2678 -0.6071 -0.5232
    5CHTO   H45 2044   7.194   2.441   2.990  1.2788 -1.1573 -1.4766
    5CHTO   H46 2045   7.181   2.363   2.830  0.8820  0.4634 -0.7534
    5CHTO   C33 2046   7.237   2.649   2.839 -0.1025  0.1274 -0.0970
    5CHTO   H61 2047   7.273   2.682   2.938  0.3960  1.3532 -0.6781
    5CHTO   O18 2048   7.204   2.770   2.774 -0.1927 -0.4317  0.0185
    5CHTO   C28 2049   7.129   2.861   2.853  0.7239  0.3159 -0.7977
    5CHTO   H56 2050   7.174   2.878   2.951  1.2031 -1.4647 -0.6990
    5CHTO   C35 2051   7.131   2.993   2.771  0.2000  0.0958  0.5208
    5CHTO   O24 2052   7.265   3.044   2.784  0.2020  0.2910  0.1412
    5CHTO   H39 2053   7.326   2.977   2.758 -0.8842 -0.8296  0.3956
    5CHTO    O9 2054   7.346   2.589   2.777  0.4263  0.1624  0.0771
    5CHTO   C13 2055   7.334   2.553   2.616  0.0305 -0.3590  0.3960
    5CHTO   H26 2056   7.228   2.574   2.591  0.2648  0.3554 -0.0412
    5CHTO   C11 2057   7.379   2.407   2.583  0.8215  0.3516  0.2229
    5CHTO   H24 2058   7.313   2.335   2.633 -0.7621  2.4200  1.1915
    5CHTO    O8 2059   7.519   2.392   2.630  0.5178  0.2541  0.0161
    5CHTO    H3 2060   7.566   2.332   2.575 -2.7531 -1.0065 -1.5162
    5CHTO    C9 2061   7.358   2.387   2.429  0.7398 -0.3269 -0.2432
    5CHTO   H22 2062   7.255   2.420   2.408  0.4730 -0.0166  1.5173
    5CHTO    N2 2063   7.369   2.242   2.386  0.2628  0.6380 -0.5984
    5CHTO   H10 2064   7.287   2.192   2.436  0.2119 -3.0091 -4.0662
    5CHTO   H11 2065   7.465   2.198   2.408 -0.0055 -0.9652 -2.5210
    5CHTO    C7 2066   7.451   2.485   2.350  0.8880 -0.0230 -0.1004
    5CHTO   H20 2067   7.422   2.458   2.247  0.0748  0.4095  0.0159
    5CHTO    O4 2068   7.414   2.623   2.384 -0.6784 -0.1911  0.3589
    5CHTO   C14 2069   7.405   2.663   2.519  0.0956 -0.2366 -0.3803
    5CHTO   H27 2070   7.333   2.747   2.522  0.1985 -0.0141 -2.7318
    5CHTO   C18 2071   7.534   2.704   2.590  0.7661  0.1926  0.5445
    5CHTO   O13 2072   7.592   2.827   2.542 -0.8194 -0.3343 -0.0355
    5CHTO    H7 2073   7.542   2.907   2.545  1.6899  1.2600  2.3233
    5CHTO    O2 2074   7.606   2.456   2.385 -0.6144 -0.5866  0.3038
    5CHTO    C1 2075   7.686   2.472   2.266 -0.0945  0.7925 -0.4593
    5CHTO   H14 2076   7.664   2.571   2.220 -0.0999  1.6540  1.3282
    5CHTO    C2 2077   7.658   2.365   2.150  0.1211 -0.0908  0.6945
    5CHTO   H15 2078   7.620   2.271   2.193 -0.8085 -0.4300 -0.8319
    5CHTO    O6 2079   7.566   2.429   2.058  0.3932 -0.2862  0.4614
    5CHTO    H1 2080   7.479   2.415   2.092 -0.5426  2.1272 -0.8757
    5CHTO    C3 2081   7.788   2.334   2.057  0.3740  0.3546  0.3997
    5CHTO   H16 2082   7.791   2.410   1.977 -1.8953  0.8147  0.7071
    5CHTO    N1 2083   7.769   2.207   1.981 -0.3896  0.0496 -0.4425
    5CHTO    H8 2084   7.687   2.209   1.910  0.3719 -0.4172 -1.3557
    5CHTO    H9 2085   7.857   2.186   1.922 -0.0296 -0.8831  0.4125
    5CHTO    C4 2086   7.922   2.341   2.137 -0.1312  0.8638  0.1122
    5CHTO   H17 2087   7.930   2.264   2.214  0.6784 -0.0264 -0.8631
    5CHTO    O1 2088   7.929   2.471   2.208 -0.4129 -0.0174  0.6788
    5CHTO    C5 2089   7.839   2.485   2.313  0.1116  0.6456  0.6364
    5CHTO   H18 2090   7.852   2.409   2.389  0.4306  0.1138  0.0531
    5CHTO   C16 2091   7.863   2.624   2.371 -0.1847 -0.3414  0.5694
    5CHTO   O11 2092   7.994   2.642   2.416  0.1577 -0.0470 -0.2445
    5CHTO    H5 2093   8.051   2.611   2.348 -0.1684 -1.8655  0.2924
    5CHTO    O3 2094   8.025   2.350   2.038  0.0889 -0.1967 -0.1730
    5CHTO    C6 2095   8.152   2.265   2.070 -0.1711 -0.2857 -0.7859
    5CHTO   H19 2096   8.148   2.196   2.154 -0.0469 -1.1590 -1.4860
    5CHTO    C8 2097   8.177   2.172   1.941 -0.5234 -0.7452 -0.5175
    5CHTO   H21 2098   8.168   2.234   1.852 -4.0708  0.4564  0.5892
    5CHTO    O7 2099   8.063   2.079   1.931  0.2191 -0.2511  0.3812
    5CHTO    H2 2100   8.029   2.066   2.017  0.9970 -0.5376  0.6578
    5CHTO   C12 2101   8.314   2.094   1.948  0.3054 -0.1561 -0.1006
    5CHTO   H25 2102   8.314   2.015   2.026 -0.8209 -1.4449 -1.3717
    5CHTO    N3 2103   8.334   2.022   1.815  0.3691 -0.1017 -0.2810
    5CHTO   H12 2104   8.306   2.089   1.735 -0.4403 -1.4999 -1.1898
    5CHTO   H13 2105   8.282   1.927   1.817 -3.0459  1.6724 -0.4829
    5CHTO   C15 2106   8.427   2.193   1.989 -0.3858  0.5255  0.1843
    5CHTO   H28 2107   8.450   2.265   1.911 -1.9634 -0.0578 -0.8284
    5CHTO   O10 2108   8.556   2.115   2.027  0.6028 -0.1971  0.4059
    5CHTO    H4 2109   8.594   2.077   1.951  2.1846 -1.5222  1.8202
    5CHTO    O5 2110   8.396   2.269   2.109  0.3295 -0.7007  0.2340
    5CHTO   C10 2111   8.281   2.350   2.091  0.5869 -0.5383 -0.3311
    5CHTO   H23 2112   8.296   2.415   2.005 -1.4151  1.5270  0.8242
    5CHTO   C17 2113   8.267   2.450   2.208  0.4576 -0.2259  0.1521
    5CHTO   O12 2114   8.291   2.390   2.338  0.1317  0.1830  0.7962
    5CHTO    H6 2115   8.382   2.369   2.331 -0.0759  0.0336 -2.1956
    6CHTO  H203 2116   7.806   4.897   0.405  0.0759 -0.6014 -0.0736
    6CHTO   O82 2117   7.835   4.982   0.377 -0.3636 -0.5929 -0.5137
    6CHTO  C123 2118   7.721   5.067   0.382 -0.0520 -0.9082  0.1718
    6CHTO  H227 2119   7.741   5.151   0.314 -0.0814 -1.1976 -0.1993
    6CHTO   O77 2120   7.612   4.992   0.311  0.1477  0.1566 -0.1820
    6CHTO  C118 2121   7.496   5.075   0.283 -0.2692  0.5984  0.7480
    6CHTO  H222 2122   7.541   5.154   0.222  1.1449 -0.2400  0.6998
    6CHTO  C125 2123   7.391   4.990   0.209  0.3940  0.1156 -0.4328
    6CHTO   O84 2124   7.307   5.080   0.143  0.5259  0.3122 -0.3241
    6CHTO  H205 2125   7.343   5.107   0.060  1.6791 -1.3447 -0.3965
    6CHTO  C114 2126   7.443   5.141   0.415  0.0468  0.1324  0.8932
    6CHTO  H218 2127   7.398   5.064   0.476  0.8319 -0.2923  0.9384
    6CHTO  C116 2128   7.548   5.202   0.507 -0.8788  0.4925 -0.5360
    6CHTO  H220 2129   7.587   5.297   0.465 -0.4641  0.8492  0.6221
    6CHTO   O79 2130   7.480   5.236   0.633  0.2734  0.0140 -0.5028
    6CHTO  H201 2131   7.533   5.219   0.709  0.1714  1.1056 -0.1731
    6CHTO  C120 2132   7.674   5.108   0.529 -0.1005 -0.2491  0.5147
    6CHTO  H224 2133   7.652   5.018   0.590 -0.2111 -0.8856 -0.4546
    6CHTO   N21 2134   7.782   5.175   0.607  0.0286  0.6495 -0.0031
    6CHTO  H211 2135   7.856   5.213   0.539  1.6335  0.3101  1.5311
    6CHTO  H212 2136   7.745   5.248   0.677 -2.4466 -0.5057 -0.0381
    6CHTO   O75 2137   7.352   5.236   0.367 -0.0705 -0.6008 -0.0877
    6CHTO  C112 2138   7.212   5.238   0.444 -0.4695 -0.3143 -0.1989
    6CHTO  H216 2139   7.225   5.235   0.553 -0.7306 -0.2011 -0.1647
    6CHTO   O73 2140   7.139   5.126   0.394  0.2507 -0.0669 -0.1008
    6CHTO  C113 2141   7.012   5.118   0.459  0.5993 -0.1283  0.3507
    6CHTO  H217 2142   7.025   5.133   0.568 -2.3423  1.2283  0.5661
    6CHTO  C124 2143   6.959   4.975   0.431  0.4549 -0.2637  0.0265
    6CHTO   O83 2144   7.018   4.863   0.499  0.4611 -0.3517 -0.1089
    6CHTO  H204 2145   7.112   4.863   0.502  0.4352 -1.5901  1.6963
    6CHTO  C109 2146   6.913   5.231   0.416 -0.5844 -0.0531 -0.2232
    6CHTO  H213 2147   6.904   5.215   0.307  1.4852 -3.0702 -0.0134
    6CHTO  C110 2148   6.976   5.370   0.442 -0.1140  0.6160  0.1714
    6CHTO  H214 2149   6.975   5.397   0.548 -0.2633 -1.3186  0.6819
    6CHTO   O78 2150   6.895   5.465   0.370 -0.1277  0.1679 -0.2393
    6CHTO  H200 2151   6.907   5.555   0.393  0.8742 -0.2064  0.7490
    6CHTO  C111 2152   7.127   5.374   0.400  0.8979  0.2613 -0.1576
    6CHTO  H215 2153   7.126   5.380   0.290 -2.3744  1.7394 -0.1088
    6CHTO   N19 2154   7.193   5.493   0.445  0.0891 -0.4222 -0.4805
    6CHTO  H207 2155   7.226   5.557   0.365 -0.1630 -0.8086 -0.8965
    6CHTO  H208 2156   7.280   5.463   0.501  0.1081  1.1023  0.3230
    6CHTO   O74 2157   6.781   5.211   0.488  0.1440  0.3044 -0.0247
    6CHTO  C115 2158   6.771   5.178   0.656 -0.9681  0.9022  0.1342
    6CHTO  H219 2159   6.858   5.124   0.693 -0.5349 -0.0214 -2.1871
    6CHTO   O76 2160   6.772   5.316   0.745  0.3150  0.2727 -0.6502
    6CHTO  C122 2161   6.661   5.399   0.709  1.3125 -0.3322 -0.5016
    6CHTO  H226 2162   6.682   5.458   0.620  0.0532 -0.3931 -0.8490
    6CHTO  C126 2163   6.650   5.501   0.832 -0.1206 -0.0791 -0.8376
    6CHTO   O85 2164   6.745   5.607   0.811  0.5083 -0.0198  0.0463
    6CHTO  H206 2165   6.816   5.599   0.871 -0.6468 -1.8166  1.2468
    6CHTO  C121 2166   6.528   5.320   0.674 -0.0819 -0.2056 -0.3799
    6CHTO  H225 2167   6.444   5.383   0.711  0.2717 -0.5017  0.9483
    6CHTO   O81 2168   6.512   5.303   0.533  0.2713 -0.1430  0.2852
    6CHTO  H202 2169   6.423   5.293   0.504  0.1753 -0.1467  0.5817
    6CHTO  C119 2170   6.527   5.179   0.737  0.0248 -0.0312 -0.3956
    6CHTO  H223 2171   6.552   5.193   0.842  0.9281 -1.6211 -0.3754
    6CHTO  C117 2172   6.641   5.087   0.676 -0.0192 -0.1119 -0.2930
    6CHTO  H221 2173   6.620   5.046   0.577  0.3842  0.0900 -0.4664
    6CHTO   N20 2174   6.661   4.970   0.760  0.3853  0.5444 -0.2896
    6CHTO  H209 2175   6.576   4.903   0.753  1.5576 -1.2488  1.9365
    6CHTO  H210 2176   6.676   4.996   0.864  0.0937 -0.5826  0.0439
    6CHTO   O80 2177   6.384   5.091   0.741  0.2916 -0.0798 -0.2074
    6CHTO  C103 2178   6.332   5.030   0.860 -0.0500 -0.6207  0.1950
    6CHTO  H190 2179   6.412   4.972   0.907  1.5782  2.3489  1.2493
    6CHTO  C101 2180   6.258   5.115   0.959  0.9785 -0.6972  0.1635
    6CHTO  H188 2181   6.181   5.160   0.896  0.3963 -0.0082  1.3567
    6CHTO   O68 2182   6.355   5.240   0.997  0.0489  0.0904  0.4244
    6CHTO  H168 2183   6.416   5.206   1.060  1.3172  2.7119  0.7190
    6CHTO   C99 2184   6.202   5.031   1.079  0.2032  0.0548 -0.6271
    6CHTO  H186 2185   6.280   4.969   1.129  0.9318  0.6795 -0.9822
    6CHTO   N17 2186   6.142   5.119   1.178  0.6467  0.9060  0.2478
    6CHTO  H174 2187   6.062   5.069   1.232  1.5032 -2.5835 -1.5807
    6CHTO  H175 2188   6.224   5.143   1.244  1.5349 -2.4487  0.4412
    6CHTO   C97 2189   6.100   4.924   1.026 -0.3046  0.2823 -0.2610
    6CHTO  H184 2190   6.017   4.990   0.995  0.5740  0.3383 -2.6059
    6CHTO   O64 2191   6.157   4.856   0.916 -0.4737 -0.3684 -0.5410
    6CHTO  C104 2192   6.231   4.923   0.808  0.3178 -0.3008  0.1281
    6CHTO  H191 2193   6.154   4.972   0.748 -0.2926  0.7471  1.7163
    6CHTO  C108 2194   6.286   4.818   0.713  0.2410  1.4709  0.3590
    6CHTO   O71 2195   6.382   4.732   0.777 -0.3974  0.5843 -0.1846
    6CHTO  H171 2196   6.458   4.716   0.725  0.8868  0.3245  1.7439
    6CHTO   O62 2197   6.052   4.829   1.123  0.2949 -0.2168 -0.3513
    6CHTO   C91 2198   5.916   4.790   1.105 -0.2345  0.1670  0.4642
    6CHTO  H178 2199   5.858   4.880   1.082 -0.0317  0.0448 -0.5893
    6CHTO   C92 2200   5.861   4.736   1.247 -0.1757 -0.4736  0.5248
    6CHTO  H179 2201   5.888   4.817   1.317 -2.4818 -0.8992  1.9720
    6CHTO   O66 2202   5.717   4.723   1.237  0.1512 -0.3006  0.1222
    6CHTO  H166 2203   5.686   4.653   1.182  0.2396 -0.7824  0.6819
    6CHTO   C93 2204   5.905   4.599   1.297 -0.3583 -1.0709  0.2543
    6CHTO  H180 2205   5.827   4.563   1.366 -0.9796  0.1373  0.2076
    6CHTO   N16 2206   6.031   4.595   1.385  0.0379  0.5835 -0.4552
    6CHTO  H172 2207   6.021   4.660   1.471 -0.1096 -0.7654  0.5767
    6CHTO  H173 2208   6.122   4.616   1.331  0.1454  0.6038 -0.2679
    6CHTO   C94 2209   5.918   4.501   1.178 -0.0151  0.6688  0.1942
    6CHTO  H181 2210   6.020   4.499   1.139 -0.1374 -1.7177 -0.0497
    6CHTO   O61 2211   5.845   4.551   1.067  0.3185  0.4166 -0.5633
    6CHTO   C95 2212   5.881   4.673   0.998  0.4582 -0.2189 -0.1289
    6CHTO  H182 2213   5.970   4.654   0.937  0.1987 -0.8224 -0.3192
    6CHTO  C106 2214   5.760   4.721   0.921 -0.4753 -0.0178  0.3607
    6CHTO   O69 2215   5.745   4.648   0.799  0.3345 -1.2982 -0.3487
    6CHTO  H169 2216   5.666   4.681   0.761 -0.3938 -2.5746  0.0546
    6CHTO   O63 2217   5.856   4.368   1.217 -0.1063 -0.1226  0.5640
    6CHTO   C96 2218   5.904   4.253   1.129  0.1794  0.2730  0.0060
    6CHTO  H183 2219   5.971   4.293   1.054 -1.1788  0.4056 -1.1639
    6CHTO   C98 2220   5.783   4.181   1.063 -0.2610 -0.1048  0.2382
    6CHTO  H185 2221   5.721   4.131   1.139  1.6459 -1.8999  0.6808
    6CHTO   O67 2222   5.705   4.284   0.997  0.2870  0.4244  0.0788
    6CHTO  H167 2223   5.655   4.335   1.058 -0.5788  0.6423 -0.8061
    6CHTO  C102 2224   5.828   4.070   0.954 -0.5969  0.2748  0.0910
    6CHTO  H189 2225   5.817   4.121   0.857 -3.4658 -3.0600 -1.4204
    6CHTO   N18 2226   5.740   3.956   0.943  0.3890  1.0889 -0.0412
    6CHTO  H176 2227   5.786   3.876   0.888  0.2981  0.7507  0.3748
    6CHTO  H177 2228   5.650   3.987   0.892  0.6768 -0.8574 -1.7680
    6CHTO  C105 2229   5.975   4.025   0.982  0.3867 -0.4035  0.3441
    6CHTO  H192 2230   5.992   3.930   0.930 -0.3412  0.6533 -1.8680
    6CHTO   O65 2231   6.006   4.020   1.119  0.4902 -0.7530  0.1000
    6CHTO  C100 2232   5.976   4.134   1.203  0.0533  0.6341 -0.2540
    6CHTO  H187 2233   5.907   4.090   1.277 -0.9260 -1.1670 -2.2082
    6CHTO  C107 2234   6.104   4.166   1.273 -0.1327 -0.5908  0.2154
    6CHTO   O70 2235   6.162   4.065   1.357  0.3759  0.1536 -0.0007
    6CHTO  H170 2236   6.156   4.101   1.443  0.2156  0.3524 -0.0944
    6CHTO   O57 2237   6.063   4.131   0.910  0.2971  0.4650  0.0942
    6CHTO   C85 2238   6.177   4.109   0.831 -0.2202 -0.3320  0.0692
    6CHTO  H157 2239   6.146   4.043   0.747 -0.1397 -2.5321  1.7014
    6CHTO   C83 2240   6.292   4.013   0.893 -0.0961  0.2369 -0.2937
    6CHTO  H155 2241   6.253   3.912   0.881  1.8909 -0.3800 -1.7467
    6CHTO   O56 2242   6.307   4.038   1.030  0.7345 -0.4561  0.0325
    6CHTO  H135 2243   6.294   3.959   1.078  0.0261 -0.6437 -0.4656
    6CHTO   C81 2244   6.419   4.026   0.805 -0.3675 -0.2494  0.0329
    6CHTO  H153 2245   6.392   3.997   0.703 -0.6958 -2.3813  0.6979
    6CHTO   N14 2246   6.534   3.940   0.854 -0.0775  0.2037  0.5119
    6CHTO  H141 2247   6.623   4.000   0.854  0.4412 -0.5535  1.3257
    6CHTO  H142 2248   6.554   3.858   0.788 -4.2037 -0.0213 -0.5792
    6CHTO   C79 2249   6.469   4.180   0.798  0.1507 -0.4621  0.1149
    6CHTO  H151 2250   6.553   4.182   0.729 -1.5090 -0.9756 -1.9628
    6CHTO   O52 2251   6.370   4.270   0.737  0.3687  0.2271  0.1252
    6CHTO   C86 2252   6.232   4.258   0.784 -0.5666  0.1875  0.0898
    6CHTO  H158 2253   6.237   4.330   0.868 -0.5054  1.1974 -0.7713
    6CHTO   C90 2254   6.130   4.326   0.689 -0.0449 -0.1051 -0.1845
    6CHTO   O60 2255   6.150   4.469   0.674 -0.8060 -0.0442  0.0554
    6CHTO  H138 2256   6.073   4.505   0.636  0.8966 -0.0475 -3.6241
    6CHTO   O50 2257   6.515   4.247   0.924 -0.4322  0.0564  0.3143
    6CHTO   C73 2258   6.501   4.260   1.065 -0.4844  0.2229  1.0058
    6CHTO  H145 2259   6.492   4.160   1.109 -0.3481  0.5512  1.8028
    6CHTO   C74 2260   6.389   4.349   1.111 -0.5968 -0.0622  0.4616
    6CHTO  H146 2261   6.292   4.307   1.080 -0.3169 -0.8599  0.6525
    6CHTO   O54 2262   6.379   4.345   1.259  0.2881 -0.1024 -0.3833
    6CHTO  H133 2263   6.463   4.374   1.289  1.2258 -0.1294 -2.8515
    6CHTO   C75 2264   6.402   4.499   1.070  0.0253 -0.4910 -0.0988
    6CHTO  H147 2265   6.394   4.502   0.960  1.4268  3.1952 -0.1732
    6CHTO   N13 2266   6.297   4.596   1.113 -0.1417 -0.7437  0.0394
    6CHTO  H139 2267   6.304   4.683   1.050 -0.6511 -0.8850 -0.2188
    6CHTO  H140 2268   6.319   4.628   1.214  0.7454  0.0678 -0.4052
    6CHTO   C76 2269   6.551   4.554   1.118  0.2722  0.3138 -0.5001
    6CHTO  H148 2270   6.543   4.579   1.224  2.6707 -0.9134  0.0045
    6CHTO   O49 2271   6.659   4.460   1.092  0.4407  0.1580  0.4996
    6CHTO   C77 2272   6.635   4.326   1.127 -0.0370  0.5791  0.0413
    6CHTO  H149 2273   6.634   4.311   1.235 -1.7145  0.6169  0.0542
    6CHTO   C88 2274   6.758   4.256   1.074 -1.0104 -0.0810  0.2114
    6CHTO   O58 2275   6.877   4.311   1.120  0.3800 -0.0564  0.5439
    6CHTO  H136 2276   6.907   4.261   1.193 -0.4744 -1.0402  0.2263
    6CHTO   O51 2277   6.594   4.675   1.028 -0.5845 -0.3889 -0.2005
    6CHTO   C78 2278   6.701   4.771   1.111 -0.2268  0.0449  0.1162
    6CHTO  H150 2279   6.726   4.726   1.209  1.2763 -1.3952 -0.8901
    6CHTO   C80 2280   6.627   4.910   1.122  1.0535  0.3402 -0.0467
    6CHTO  H152 2281   6.586   4.935   1.022 -0.6940 -0.7481  0.3866
    6CHTO   O55 2282   6.518   4.891   1.209  0.5980  0.4613  0.5426
    6CHTO  H134 2283   6.545   4.871   1.297 -0.9938  0.1321  0.9723
    6CHTO   C84 2284   6.715   5.029   1.174  0.4568 -0.5595  0.6401
    6CHTO  H156 2285   6.745   5.004   1.276 -1.2979 -0.1207  1.2754
    6CHTO   N15 2286   6.640   5.160   1.169  0.5393 -0.1382 -0.8105
    6CHTO  H143 2287   6.714   5.233   1.193  1.0902 -1.1424  0.6230
    6CHTO  H144 2288   6.598   5.186   1.074 -0.3001  0.2224 -0.3488
    6CHTO   C87 2289   6.852   5.041   1.097  1.3413  0.4486 -0.0832
    6CHTO  H159 2290   6.834   5.088   1.000  0.3589 -0.7028 -0.4725
    6CHTO   O53 2291   6.910   4.912   1.083 -0.0879 -0.4002  0.3660
    6CHTO   C82 2292   6.836   4.793   1.035  0.0870  0.0763 -0.2162
    6CHTO  H154 2293   6.824   4.810   0.928 -0.0770 -0.9737 -0.3731
    6CHTO   C89 2294   6.930   4.675   1.050  0.5670 -0.8110 -0.6112
    6CHTO   O59 2295   7.045   4.704   0.969  0.4231 -0.8322  0.0336
    6CHTO  H137 2296   7.032   4.688   0.878  2.5305 -1.3188 -0.1962
    6CHTO   O45 2297   6.958   5.144   1.180  0.0275  0.6702  0.2146
    6CHTO   C67 2298   7.098   5.153   1.141 -0.1710  0.7065 -0.0433
    6CHTO  H124 2299   7.149   5.060   1.167 -1.1944  0.0542 -0.2985
    6CHTO   C65 2300   7.121   5.178   0.990 -0.0551 -0.7385  0.1341
    6CHTO  H122 2301   7.021   5.174   0.949  0.1014 -0.7571 -0.2434
    6CHTO   O44 2302   7.194   5.063   0.935  0.2749  0.1180 -0.5920
    6CHTO  H102 2303   7.284   5.077   0.956  0.3246 -2.8656  1.3813
    6CHTO   C63 2304   7.170   5.330   0.961  0.7222 -0.5686  0.3822
    6CHTO  H120 2305   7.101   5.399   1.010  1.0822 -0.4885  0.7790
    6CHTO   N11 2306   7.163   5.381   0.822 -0.5136  0.0682 -0.4885
    6CHTO  H108 2307   7.189   5.306   0.750 -1.5066 -0.5711 -0.1817
    6CHTO  H109 2308   7.074   5.433   0.793  0.1835  1.2895 -0.4781
    6CHTO   C61 2309   7.306   5.340   1.039  0.2425 -0.4493  0.0969
    6CHTO  H118 2310   7.313   5.449   1.054 -3.2196  0.2125 -2.4334
    6CHTO   O40 2311   7.298   5.287   1.170 -0.3403 -0.1095  0.0372
    6CHTO   C68 2312   7.172   5.268   1.229 -0.1473 -0.0773 -0.3235
    6CHTO  H125 2313   7.106   5.357   1.224 -1.6229 -1.1951 -1.2544
    6CHTO   C72 2314   7.188   5.229   1.382  0.5726 -0.1680 -0.0593
    6CHTO   O48 2315   7.258   5.332   1.453 -0.0173 -0.2671  0.7658
    6CHTO  H105 2316   7.245   5.317   1.545  2.0398 -1.9717  0.7998
    6CHTO   O38 2317   7.426   5.283   0.979 -0.1204 -0.5774  0.2381
    6CHTO   C55 2318   7.549   5.336   1.028  0.0290  0.3293 -0.0906
    6CHTO  H112 2319   7.549   5.375   1.130  0.6736 -2.4029  0.9855
    6CHTO   C56 2320   7.604   5.446   0.924  0.2279 -0.0833 -0.3580
    6CHTO  H113 2321   7.613   5.419   0.818 -0.8240  1.7596 -0.9417
    6CHTO   O42 2322   7.508   5.557   0.920 -0.1302 -0.1575 -0.1244
    6CHTO  H100 2323   7.555   5.638   0.924 -0.3400 -0.0513  0.2577
    6CHTO   C57 2324   7.749   5.490   0.974  0.0922 -0.2837  0.0707
    6CHTO  H114 2325   7.743   5.531   1.074  1.0805  1.2686 -0.4924
    6CHTO   N10 2326   7.820   5.586   0.888 -0.5392 -0.1280  0.0086
    6CHTO  H106 2327   7.924   5.597   0.912 -1.1051 -0.7261  2.9140
    6CHTO  H107 2328   7.774   5.684   0.890  0.7876  0.6364 -2.9191
    6CHTO   C58 2329   7.833   5.361   0.984 -0.0214 -0.1286  0.2298
    6CHTO  H115 2330   7.844   5.315   0.884  4.4350  0.1606  0.4908
    6CHTO   O37 2331   7.778   5.265   1.079 -0.2308  0.1345 -0.5185
    6CHTO   C59 2332   7.650   5.216   1.048 -0.4769  0.5986  0.1461
    6CHTO  H116 2333   7.660   5.155   0.959  2.1607  0.3704  0.5739
    6CHTO   C70 2334   7.616   5.127   1.170  0.4041 -0.2195  0.7432
    6CHTO   O46 2335   7.500   5.040   1.152 -0.1509 -0.5707 -0.0521
    6CHTO  H103 2336   7.425   5.089   1.178  0.0220 -0.3611  0.0459
    6CHTO   O39 2337   7.984   5.399   1.041  0.3493 -0.7529  0.7832
    6CHTO   C60 2338   8.075   5.298   0.997  0.4717  0.2640  0.3406
    6CHTO  H117 2339   8.023   5.202   0.998  1.6198 -0.3720  0.3525
    6CHTO   C62 2340   8.132   5.320   0.856  0.0008 -0.3743  0.4025
    6CHTO  H119 2341   8.050   5.311   0.782  0.3775 -0.5711  0.0052
    6CHTO   O43 2342   8.195   5.446   0.840 -0.1745  0.4946  0.0792
    6CHTO  H101 2343   8.193   5.473   0.750  0.1054 -0.5260 -0.2363
    6CHTO   C66 2344   8.246   5.206   0.817 -0.3897 -0.1602 -0.2144
    6CHTO  H123 2345   8.200   5.108   0.833  0.6055 -0.4435  1.0088
    6CHTO   N12 2346   8.294   5.208   0.673 -0.5256 -0.3177  0.5461
    6CHTO  H110 2347   8.249   5.270   0.597  2.6085 -0.2886 -1.3997
    6CHTO  H111 2348   8.362   5.128   0.645 -1.4098 -1.0628  0.4907
    6CHTO   C69 2349   8.358   5.229   0.923 -0.1870  0.6515  0.6310
    6CHTO  H126 2350   8.391   5.335   0.923 -0.3131  0.7013 -0.6743
    6CHTO   O41 2351   8.303   5.178   1.051 -0.0139 -0.3380  0.2772
    6CHTO   C64 2352   8.190   5.290   1.101 -0.5292  0.2649 -0.2080
    6CHTO  H121 2353   8.235   5.391   1.111 -0.0247  0.0822 -0.6331
    6CHTO   C71 2354   8.130   5.239   1.233  0.1796 -0.0743 -0.7787
    6CHTO   O47 2355   8.099   5.101   1.223 -0.0840 -0.2331 -0.8012
    6CHTO  H104 2356   8.066   5.064   1.303  1.1537 -0.2306 -0.2921
    6CHTO   O34 2357   8.488   5.140   0.897 -0.3230 -0.0041  0.4931
    6CHTO   C49 2358   8.648   5.208   0.878  0.1914 -0.3465  0.1132
    6CHTO   H91 2359   8.693   5.167   0.787  0.1865 -2.4737  1.0450
    6CHTO   C47 2360   8.728   5.165   1.003 -0.4319  0.2997 -0.5204
    6CHTO   H89 2361   8.833   5.196   0.987  0.8784 -2.9496  1.3532
    6CHTO   O33 2362   8.732   5.021   1.024  0.4611 -0.1044 -0.1296
    6CHTO   H70 2363   8.736   4.977   0.941 -0.3770 -0.2697 -0.0914
    6CHTO   C45 2364   8.661   5.236   1.133 -0.8194  0.2653  0.7681
    6CHTO   H87 2365   8.557   5.202   1.124 -0.1601 -2.0074  1.6303
    6CHTO    N8 2366   8.718   5.196   1.264  0.7850  0.5003 -0.1575
    6CHTO   H75 2367   8.825   5.180   1.268  0.7747  0.7635  2.9421
    6CHTO   H76 2368   8.669   5.109   1.305 -0.3398  1.0555 -0.3006
    6CHTO   C43 2369   8.669   5.394   1.119 -0.5536 -0.1759 -0.0699
    6CHTO   H85 2370   8.608   5.433   1.201 -1.6424  1.2655 -1.5404
    6CHTO   O29 2371   8.625   5.444   0.992  0.6090  0.7551 -0.6129
    6CHTO   C50 2372   8.653   5.369   0.879 -0.8092  0.0700 -0.3534
    6CHTO   H92 2373   8.576   5.398   0.806  1.5970  1.5772 -2.3804
    6CHTO   C54 2374   8.782   5.430   0.818  0.1233  0.0317 -0.1475
    6CHTO   O36 2375   8.763   5.561   0.770 -0.5792  0.3581  0.2965
    6CHTO   H72 2376   8.777   5.569   0.677 -3.0345 -1.3041 -0.2654
    6CHTO   O27 2377   8.805   5.453   1.143 -0.3174 -0.6432  0.1989
    6CHTO   C37 2378   8.904   5.538   1.192  0.1847 -0.4720 -0.7034
    6CHTO   H79 2379   8.998   5.482   1.207  1.5308  1.8975 -0.1426
    6CHTO   C38 2380   8.946   5.647   1.086  0.6424  0.2900  0.0450
    6CHTO   H80 2381   8.853   5.695   1.052 -0.5684 -1.6580  0.5136
    6CHTO   O31 2382   9.015   5.589   0.971  0.1224  0.0876 -0.0178
    6CHTO   H68 2383   8.950   5.552   0.914  1.0882  0.8153 -1.6462
    6CHTO   C39 2384   9.037   5.757   1.140  0.1347 -0.4456 -0.6839
    6CHTO   H81 2385   9.133   5.716   1.171  0.0111  1.2588  2.0349
    6CHTO    N7 2386   9.056   5.870   1.042  0.0362 -1.2052 -0.3516
    6CHTO   H73 2387   9.160   5.876   1.015  0.0200  0.9355  0.0211
    6CHTO   H74 2388   9.014   5.961   1.082  0.7483 -1.1856  0.3422
    6CHTO   C40 2389   8.986   5.801   1.281 -0.0290 -0.3850  0.4948
    6CHTO   H82 2390   8.885   5.836   1.259  0.3917  0.4893 -0.0439
    6CHTO   O26 2391   8.984   5.691   1.368  0.0230 -0.2725 -0.1748
    6CHTO   C41 2392   8.872   5.599   1.335  0.3447 -0.5306  0.5580
    6CHTO   H83 2393   8.778   5.656   1.333  0.9116  0.4890  1.7340
    6CHTO   C52 2394   8.861   5.483   1.441  0.0143 -0.0435 -0.1761
    6CHTO   O35 2395   8.779   5.507   1.563  0.0946  0.0757 -0.3726
    6CHTO   H71 2396   8.800   5.448   1.633 -1.6703 -0.8834 -0.6127
    6CHTO   O28 2397   9.075   5.907   1.348 -0.2898 -0.2317  0.4721
    6CHTO   C42 2398   9.030   5.981   1.472 -0.7811  0.0309  0.4857
    6CHTO   H84 2399   9.116   6.037   1.508 -1.1187  1.0355 -0.2635
    6CHTO   C44 2400   8.994   5.888   1.589 -0.4808 -0.4703  0.1277
    6CHTO   H86 2401   8.913   5.818   1.568 -0.9655  0.0605  0.1936
    6CHTO   O32 2402   9.115   5.819   1.619 -0.1037  0.8143 -0.6862
    6CHTO   H69 2403   9.108   5.745   1.676  2.8081  0.1457 -1.1477
    6CHTO   C48 2404   8.953   5.957   1.718 -0.1708 -0.1999  0.3644
    6CHTO   H90 2405   9.042   6.009   1.754 -0.2352  0.1717 -0.0025
    6CHTO    N9 2406   8.913   5.871   1.841 -0.3078 -0.3460 -0.2101
    6CHTO   H77 2407   8.926   5.766   1.820  1.7677 -0.2024  0.2496
    6CHTO   H78 2408   8.810   5.892   1.866  0.2508  0.4465  1.4604
    6CHTO   C51 2409   8.843   6.067   1.691  0.5436 -0.0443  0.0718
    6CHTO   H93 2410   8.747   6.024   1.665  0.3575 -0.6682  1.7517
    6CHTO   O30 2411   8.892   6.152   1.589 -0.3528  0.0390 -0.0372
    6CHTO   C46 2412   8.910   6.084   1.452 -0.7519 -0.4355  0.4767
    6CHTO   H88 2413   8.823   6.030   1.413  0.8940 -1.0661 -2.5195
    6CHTO   C53 2414   8.948   6.199   1.357 -0.5629  0.2164  0.0802
    6CHTO   O72 2415   8.943   6.144   1.224 -0.8455  0.7470 -0.3365
    6CHTO  H199 2416   8.888   6.197   1.170 -0.6124  0.3229 -0.9872
    6CHTO   O22 2417   8.832   6.153   1.807  0.0115 -0.1244  0.1096
    6CHTO   C31 2418   8.730   6.259   1.838  0.8138  0.3421  0.1403
    6CHTO   H59 2419   8.754   6.296   1.940  0.1684  1.9014 -0.2544
    6CHTO   C29 2420   8.729   6.384   1.752 -0.4483 -0.2546 -0.0436
    6CHTO   H57 2421   8.707   6.346   1.651 -2.2606  1.8060 -0.4511
    6CHTO   O21 2422   8.853   6.451   1.754 -0.8557 -0.5626 -0.0572
    6CHTO   H37 2423   8.903   6.446   1.833 -1.2728  0.2206  0.2508
    6CHTO   C27 2424   8.613   6.485   1.791 -0.1264  0.1229 -0.0513
    6CHTO   H55 2425   8.628   6.520   1.894 -0.0687 -0.7451  0.2411
    6CHTO    N5 2426   8.588   6.610   1.704 -0.7175 -0.4581 -0.2087
    6CHTO   H43 2427   8.516   6.672   1.755  1.8701  0.1040  2.8953
    6CHTO   H44 2428   8.680   6.666   1.709 -1.2836  0.4688 -0.1974
    6CHTO   C25 2429   8.484   6.409   1.812  0.3972  0.1902 -0.5589
    6CHTO   H53 2430   8.455   6.371   1.713  0.5781 -0.6720 -0.2819
    6CHTO   O17 2431   8.490   6.296   1.902  0.2878 -0.0724  0.2822
    6CHTO   C32 2432   8.582   6.196   1.859  0.1457 -0.3728 -0.1592
    6CHTO   H60 2433   8.547   6.149   1.767 -0.5215  0.0661 -0.1358
    6CHTO   C36 2434   8.579   6.076   1.949 -0.2282 -0.3436 -0.3498
    6CHTO   O25 2435   8.562   6.097   2.090 -0.1249  0.0749  0.1233
    6CHTO   H40 2436   8.635   6.063   2.137 -0.2069  1.2157  1.1096
    6CHTO   O15 2437   8.377   6.516   1.901  0.6601  0.0551  0.2409
    6CHTO   C19 2438   8.278   6.524   2.005 -0.9570  0.3823 -0.1908
    6CHTO   H47 2439   8.294   6.429   2.059 -1.0904  0.8143  0.6019
    6CHTO   C20 2440   8.314   6.642   2.100  0.0565 -0.2231 -0.2655
    6CHTO   H48 2441   8.328   6.732   2.038 -0.5395 -1.2180 -1.8591
    6CHTO   O19 2442   8.442   6.603   2.148  0.1926  0.6912  0.4210
    6CHTO   H35 2443   8.436   6.573   2.237  2.4113 -0.5546  0.2026
    6CHTO   C21 2444   8.201   6.668   2.203  0.3359 -0.6024 -0.1269
    6CHTO   H49 2445   8.193   6.586   2.275 -2.3926 -3.2187 -3.2330
    6CHTO    N4 2446   8.224   6.786   2.289  0.4728 -0.0870 -0.5777
    6CHTO   H41 2447   8.315   6.777   2.346 -1.2497  0.0561  2.3041
    6CHTO   H42 2448   8.143   6.799   2.360  1.3614  3.0736 -0.0355
    6CHTO   C22 2449   8.062   6.663   2.137  0.0460 -0.3576 -0.4008
    6CHTO   H50 2450   8.054   6.752   2.075 -0.2169  0.3617  0.6494
    6CHTO   O14 2451   8.042   6.539   2.069 -0.0753 -0.9658  0.0325
    6CHTO   C23 2452   8.129   6.524   1.958 -0.2135  0.0698  0.1604
    6CHTO   H51 2453   8.113   6.601   1.881 -0.7656  0.0323  0.2366
    6CHTO   C34 2454   8.097   6.400   1.873  0.1749 -0.5104 -0.1270
    6CHTO   O23 2455   8.069   6.284   1.945 -0.4515 -0.0300  0.1633
    6CHTO   H38 2456   8.128   6.220   1.910  1.1425  1.8637 -0.7172
    6CHTO   O16 2457   7.954   6.667   2.233  0.3370 -0.5296 -0.2148
    6CHTO   C24 2458   7.816   6.756   2.182  0.2582 -0.3276 -0.0162
    6CHTO   H52 2459   7.822   6.789   2.078 -0.6351 -0.4208 -0.1005
    6CHTO   C26 2460   7.804   6.874   2.278  0.3047  0.8117 -0.6293
    6CHTO   H54 2461   7.781   6.848   2.383  0.2693  2.0701 -0.3131
    6CHTO   O20 2462   7.928   6.941   2.289 -0.1818  0.0976  0.1361
    6CHTO   H36 2463   7.929   6.989   2.369 -0.4864 -1.5981  1.1643
    6CHTO   C30 2464   7.696   6.971   2.233 -0.2658 -0.1849 -0.3624
    6CHTO   H58 2465   7.717   7.002   2.130 -0.4822  3.0161  0.5056
    6CHTO    N6 2466   7.692   7.094   2.311 -0.4499 -0.0658  0.0643
    6CHTO   H45 2467   7.672   7.062   2.412 -2.0160 -0.1624 -0.2654
    6CHTO   H46 2468   7.613   7.162   2.280  1.0464  1.7395  0.1507
    6CHTO   C33 2469   7.562   6.893   2.229 -0.5373 -0.0709  0.4866
    6CHTO   H61 2470   7.526   6.870   2.331 -0.4529 -0.0864  0.5123
    6CHTO   O18 2471   7.582   6.769   2.154  0.6705  0.1087  0.2253
    6CHTO   C28 2472   7.685   6.676   2.191  0.5556  0.0347 -0.0788
    6CHTO   H56 2473   7.671   6.635   2.291 -0.7054  0.9320  0.1359
    6CHTO   C35 2474   7.701   6.556   2.097 -0.3566  0.0835  0.2902
    6CHTO   O24 2475   7.703   6.579   1.958 -0.4829 -0.2053  0.4272
    6CHTO   H39 2476   7.648   6.652   1.940  0.8068  0.4762 -0.8753
    6CHTO    O9 2477   7.457   6.973   2.168  0.0859 -0.1341 -0.3915
    6CHTO   C13 2478   7.312   6.980   2.244 -0.2405  0.6271 -0.2349
    6CHTO   H26 2479   7.315   7.057   2.324  2.3328  1.7412 -1.3183
    6CHTO   C11 2480   7.255   6.843   2.297 -0.8248 -0.8016 -0.0570
    6CHTO   H24 2481   7.311   6.819   2.389 -1.7005  1.4599  1.1170
    6CHTO    O8 2482   7.272   6.731   2.210  0.7910  0.9554 -0.5566
    6CHTO    H3 2483   7.236   6.729   2.123 -1.2373 -0.0169  0.2729
    6CHTO    C9 2484   7.107   6.867   2.337 -0.5695  0.1951  0.2945
    6CHTO   H22 2485   7.106   6.951   2.407  1.0932 -0.1151  0.6999
    6CHTO    N2 2486   7.053   6.763   2.430  0.7657  0.3295 -0.1042
    6CHTO   H10 2487   7.069   6.775   2.536 -0.3864  0.8728  0.0204
    6CHTO   H11 2488   7.085   6.665   2.398  0.0331 -0.9662  2.8785
    6CHTO    C7 2489   7.019   6.910   2.213  0.2397 -0.4926 -1.3463
    6CHTO   H20 2490   6.916   6.921   2.252  0.7554  0.3466 -0.2020
    6CHTO    O4 2491   7.072   7.027   2.153  0.3406 -0.0865 -0.9035
    6CHTO   C14 2492   7.215   7.037   2.129  0.4068 -0.1223 -0.4447
    6CHTO   H27 2493   7.232   7.146   2.134 -3.1527  0.5386 -1.0735
    6CHTO   C18 2494   7.256   6.999   1.989 -0.0423 -0.2815 -0.5188
    6CHTO   O13 2495   7.183   7.069   1.887  0.2577  0.3997  0.7887
    6CHTO    H7 2496   7.221   7.056   1.802  0.4192  2.2615  0.5734
    6CHTO    O2 2497   7.017   6.802   2.097 -0.7080  0.2649  0.1113
    6CHTO    C1 2498   6.891   6.783   2.026  0.3673  0.6734 -0.4045
    6CHTO   H14 2499   6.913   6.737   1.927  1.3359  1.8919 -0.7650
    6CHTO    C2 2500   6.798   6.910   2.000 -0.4760 -0.1059 -0.0754
    6CHTO   H15 2501   6.778   6.964   2.094  3.6628 -1.0406  1.4480
    6CHTO    O6 2502   6.879   6.990   1.915  0.0651 -0.4509 -0.3351
    6CHTO    H1 2503   6.852   7.080   1.911  2.3998  0.2106 -1.9585
    6CHTO    C3 2504   6.661   6.878   1.937  0.4732  0.1789  0.2794
    6CHTO   H16 2505   6.678   6.838   1.836 -1.2758 -0.5487  0.2635
    6CHTO    N1 2506   6.568   6.990   1.929  0.2354 -0.2347  0.2129
    6CHTO    H8 2507   6.586   7.056   1.846  0.7301  3.3984  3.0655
    6CHTO    H9 2508   6.571   7.039   2.026  1.4507 -2.4678  1.3580
    6CHTO    C4 2509   6.591   6.754   2.016  0.2101  0.0264  0.4777
    6CHTO   H17 2510   6.550   6.785   2.112 -0.9563 -1.1346  0.3670
    6CHTO    O1 2511   6.687   6.654   2.044  0.3171  0.2156  0.7695
    6CHTO    C5 2512   6.813   6.681   2.105  0.1371 -0.4595 -0.2651
    6CHTO   H18 2513   6.796   6.712   2.208 -0.4609 -0.4158 -0.3753
    6CHTO   C16 2514   6.886   6.546   2.114 -0.5050  0.1328 -0.8113
    6CHTO   O11 2515   7.015   6.559   2.176  0.3819 -0.3998 -0.4335
    6CHTO    H5 2516   7.080   6.543   2.110 -0.6463 -2.0499 -1.0716
    6CHTO    O3 2517   6.491   6.690   1.929  0.0946  0.4665  0.1923
    6CHTO    C6 2518   6.381   6.634   2.011 -0.4251 -0.4688 -0.6707
    6CHTO   H19 2519   6.394   6.659   2.116 -0.9578  0.2658 -0.7750
    6CHTO    C8 2520   6.253   6.701   1.960  0.0176  0.6028  0.1569
    6CHTO   H21 2521   6.246   6.673   1.854 -0.9894 -0.0329  0.3835
    6CHTO    O7 2522   6.282   6.841   1.970  0.9538  1.0005 -0.6788
    6CHTO    H2 2523   6.208   6.898   1.983  1.0670  0.7416  1.3338
    6CHTO   C12 2524   6.130   6.648   2.048 -0.4426  1.1583 -0.0622
    6CHTO   H25 2525   6.159   6.674   2.152 -0.6753  1.1970 -0.0070
    6CHTO    N3 2526   6.005   6.714   2.020 -0.1908 -0.1625 -0.2732
    6CHTO   H12 2527   6.010   6.820   2.042 -0.6407 -0.5796  1.9093
    6CHTO   H13 2528   5.990   6.691   1.916 -1.6533  1.4825 -0.4592
    6CHTO   C15 2529   6.122   6.492   2.042  0.3671  0.0587  0.3016
    6CHTO   H28 2530   6.089   6.459   1.943  0.5912 -0.4181  0.3872
    6CHTO   O10 2531   6.043   6.418   2.153 -0.6036  0.2270 -0.3141
    6CHTO    H4 2532   6.090   6.441   2.230  1.5424  0.8926 -1.7652
    6CHTO    O5 2533   6.253   6.431   2.068  0.0188 -0.3039 -0.3631
    6CHTO   C10 2534   6.366   6.475   1.995  0.0170 -0.0976 -0.3828
    6CHTO   H23 2535   6.345   6.444   1.893 -0.4481 -0.7678 -0.0891
    6CHTO   C17 2536   6.487   6.402   2.049 -0.4200  0.2801  0.3099
    6CHTO   O12 2537   6.483   6.262   2.030 -0.2566  0.3415 -0.2246
    6CHTO    H6 2538   6.548   6.235   1.968  0.5211 -0.1186  0.7677
    7CHTO  H203 2539   5.561   2.850   2.207 -0.1770  0.4281  1.3935
    7CHTO   O82 2540   5.602   2.776   2.248  0.4003 -0.0939 -0.1254
    7CHTO  C123 2541   5.742   2.809   2.261  0.7846 -0.7997 -0.6401
    7CHTO  H227 2542   5.746   2.906   2.312 -0.7462 -0.0560 -1.8864
    7CHTO   O77 2543   5.805   2.710   2.344  0.0401  0.5091  0.5475
    7CHTO  C118 2544   5.940   2.743   2.370 -0.5249  0.1892 -0.6872
    7CHTO  H222 2545   5.950   2.846   2.407  0.1810 -0.1640  0.1311
    7CHTO  C125 2546   5.992   2.639   2.485 -0.2894  0.0432  0.3696
    7CHTO   O84 2547   5.904   2.638   2.599  0.4057  0.1805 -0.3990
    7CHTO  H205 2548   5.925   2.562   2.651 -0.4443  0.9318  1.0691
    7CHTO  C114 2549   6.026   2.734   2.246  0.1346  0.5005  0.2857
    7CHTO  H218 2550   6.021   2.631   2.211  2.4833  0.8080 -1.0158
    7CHTO  C116 2551   5.972   2.825   2.134 -0.3536 -0.1044  0.2691
    7CHTO  H220 2552   6.007   2.929   2.152  0.2394  0.1941 -2.3216
    7CHTO   O79 2553   6.030   2.785   2.006 -0.0320  0.3138 -0.0009
    7CHTO  H201 2554   6.122   2.772   2.018  0.0273  0.2478 -0.5297
    7CHTO  C120 2555   5.818   2.817   2.126  0.2279 -0.4802  0.3542
    7CHTO  H224 2556   5.796   2.726   2.066 -0.2705 -0.6877  0.8469
    7CHTO   N21 2557   5.759   2.926   2.042  0.5894 -0.2499 -0.0373
    7CHTO  H211 2558   5.817   2.959   1.957  1.3470 -1.0852  0.1587
    7CHTO  H212 2559   5.651   2.923   2.039  0.5562 -2.5585  1.7871
    7CHTO   O75 2560   6.156   2.772   2.294  0.6299  0.2779  0.3757
    7CHTO  C112 2561   6.283   2.687   2.264  0.5857  0.6296 -0.3348
    7CHTO  H216 2562   6.281   2.642   2.164  1.3882 -1.8737  0.7423
    7CHTO   O73 2563   6.297   2.588   2.369  0.2655 -0.4185  0.1661
    7CHTO  C113 2564   6.415   2.511   2.356 -0.0140 -0.8085 -0.1551
    7CHTO  H217 2565   6.407   2.471   2.253 -0.3977  0.8454 -0.7862
    7CHTO  C124 2566   6.414   2.409   2.463 -0.2126 -0.0676 -1.1581
    7CHTO   O83 2567   6.299   2.316   2.459 -0.6632 -0.0460  0.2659
    7CHTO  H204 2568   6.301   2.234   2.505 -0.5551 -0.2442 -0.0962
    7CHTO  C109 2569   6.540   2.603   2.377 -0.0808 -0.2645  0.0131
    7CHTO  H213 2570   6.530   2.649   2.476  1.2788  0.0188  0.0315
    7CHTO  C110 2571   6.534   2.717   2.268  0.1482 -0.0825  0.7160
    7CHTO  H214 2572   6.550   2.667   2.172 -1.4040  0.2540  0.2659
    7CHTO   O78 2573   6.645   2.801   2.300 -0.2680 -0.2440  0.0765
    7CHTO  H200 2574   6.731   2.764   2.291 -0.3548 -0.4440  0.0693
    7CHTO  C111 2575   6.404   2.794   2.265  0.0117  0.7926 -0.0236
    7CHTO  H215 2576   6.392   2.850   2.359  0.9660  1.2359 -0.1666
    7CHTO   N19 2577   6.388   2.888   2.156 -0.2507 -0.2592  0.0209
    7CHTO  H207 2578   6.378   2.834   2.063  0.0956 -2.9469  1.5192
    7CHTO  H208 2579   6.479   2.946   2.149  0.8587 -1.4321  3.6244
    7CHTO   O74 2580   6.665   2.520   2.379 -0.4455 -0.3717  0.1290
    7CHTO  C115 2581   6.786   2.578   2.452  0.1482  0.2620 -0.8435
    7CHTO  H219 2582   6.770   2.683   2.477  0.5561 -0.2153  1.4494
    7CHTO   O76 2583   6.809   2.506   2.591 -0.4462 -0.0412  0.1442
    7CHTO  C122 2584   6.827   2.367   2.588 -0.6616 -0.0110  0.6740
    7CHTO  H226 2585   6.731   2.337   2.545  0.0035 -0.3497 -0.5931
    7CHTO  C126 2586   6.832   2.292   2.725  0.3615 -0.2556  0.7069
    7CHTO   O85 2587   6.720   2.328   2.810 -0.4671  0.1332  0.3221
    7CHTO  H206 2588   6.671   2.249   2.824  0.4523 -0.5315 -0.1975
    7CHTO  C121 2589   6.954   2.334   2.505  0.6895  0.2243 -0.0742
    7CHTO  H225 2590   7.033   2.393   2.556  0.3119 -0.7454  1.6779
    7CHTO   O81 2591   6.979   2.193   2.501  0.1804  0.0417  0.1231
    7CHTO  H202 2592   6.957   2.148   2.581  0.3193 -1.0996 -0.4680
    7CHTO  C119 2593   6.927   2.392   2.358  0.1773  0.3761 -0.4820
    7CHTO  H223 2594   7.017   2.372   2.301 -0.6450  0.8375 -1.9597
    7CHTO  C117 2595   6.905   2.553   2.354 -0.4137  0.5962 -0.1132
    7CHTO  H221 2596   6.872   2.595   2.259  0.0057  1.3345  0.0615
    7CHTO   N20 2597   7.032   2.631   2.389 -0.0888 -0.2122  0.4108
    7CHTO  H209 2598   7.102   2.598   2.313 -0.6718  0.3447 -0.3826
    7CHTO  H210 2599   7.068   2.606   2.488 -0.1100 -0.5669  0.3283
    7CHTO   O80 2600   6.830   2.328   2.285 -0.0880 -0.2041  0.5829
    7CHTO  C103 2601   6.866   2.209   2.177 -0.5286  0.0798  0.2192
    7CHTO  H190 2602   6.853   2.248   2.076 -0.9414  1.5255  0.8083
    7CHTO  C101 2603   7.001   2.118   2.185  0.6782 -0.8384 -0.1997
    7CHTO  H188 2604   7.012   2.072   2.283 -2.7838 -1.2760  0.0434
    7CHTO   O68 2605   7.121   2.209   2.151  0.5807  0.0746  0.0171
    7CHTO  H168 2606   7.118   2.239   2.062  2.5713 -0.3121 -0.1909
    7CHTO   C99 2607   6.987   2.003   2.077  0.5842 -0.9949  0.3414
    7CHTO  H186 2608   6.972   2.053   1.979 -1.5315 -2.8942 -0.3345
    7CHTO   N17 2609   7.112   1.909   2.071  0.4696 -0.1957  0.0979
    7CHTO  H174 2610   7.109   1.831   1.996  1.2663 -0.1749  0.0474
    7CHTO  H175 2611   7.120   1.870   2.172 -1.7467 -1.6822 -0.2632
    7CHTO   C97 2612   6.857   1.920   2.095  0.3728  0.5498 -0.3622
    7CHTO  H184 2613   6.858   1.855   2.184  0.5271  0.5524 -0.3612
    7CHTO   O64 2614   6.744   2.007   2.095  0.5407  0.1898  0.4415
    7CHTO  C104 2615   6.748   2.107   2.199  0.1721 -0.5928 -0.4403
    7CHTO  H191 2616   6.759   2.050   2.291  0.2930 -1.5502 -1.0407
    7CHTO  C108 2617   6.620   2.183   2.200 -0.0377 -0.0313  0.2472
    7CHTO   O71 2618   6.503   2.110   2.250 -0.6518  0.0429 -0.3730
    7CHTO  H171 2619   6.530   2.086   2.337 -1.2968 -0.4186 -0.2936
    7CHTO   O62 2620   6.838   1.839   1.973 -0.3996 -0.6043 -0.0409
    7CHTO   C91 2621   6.727   1.746   1.969  0.5078 -0.1042  0.1897
    7CHTO  H178 2622   6.752   1.668   1.898  2.3220  0.4970  0.1338
    7CHTO   C92 2623   6.602   1.809   1.903  0.3987 -0.0557  0.2899
    7CHTO  H179 2624   6.582   1.908   1.947  1.1734 -0.0407  0.6103
    7CHTO   O66 2625   6.634   1.845   1.768 -0.5262 -0.6116 -0.3377
    7CHTO  H166 2626   6.722   1.876   1.758 -0.1821 -1.0902  1.0952
    7CHTO   C93 2627   6.468   1.724   1.913 -0.3686  0.3682  0.3262
    7CHTO  H180 2628   6.479   1.634   1.851 -0.9876  0.1001  0.6020
    7CHTO   N16 2629   6.347   1.788   1.873 -0.2154 -0.0505 -0.2524
    7CHTO  H172 2630   6.318   1.858   1.950  0.7349 -0.1784  0.2246
    7CHTO  H173 2631   6.270   1.729   1.826 -0.3628 -0.1597  0.1177
    7CHTO   C94 2632   6.459   1.678   2.068 -0.4509  0.0637  0.5945
    7CHTO  H181 2633   6.471   1.765   2.133  3.3665  1.2235 -1.4849
    7CHTO   O61 2634   6.570   1.590   2.087 -0.2771  0.1157 -0.4820
    7CHTO   C95 2635   6.686   1.664   2.103 -0.0936 -0.0850 -0.1613
    7CHTO  H182 2636   6.680   1.734   2.187 -2.2434  1.8724 -1.8673
    7CHTO  C106 2637   6.802   1.554   2.130 -0.4863  0.0764 -0.5686
    7CHTO   O69 2638   6.928   1.600   2.166  0.0363 -0.1706 -0.2788
    7CHTO  H169 2639   6.979   1.525   2.189  0.0626  0.0323  0.3281
    7CHTO   O63 2640   6.310   1.601   2.107 -0.6000  0.4950 -0.2599
    7CHTO   C96 2641   6.226   1.661   2.208 -0.3451  0.4480  0.2991
    7CHTO  H183 2642   6.210   1.766   2.183 -0.2142  0.7201  1.3506
    7CHTO   C98 2643   6.286   1.660   2.351 -0.4162  0.2798 -0.2041
    7CHTO  H185 2644   6.389   1.701   2.352 -0.1813 -0.2793 -1.1076
    7CHTO   O67 2645   6.212   1.744   2.436  0.5073  0.1827 -0.0389
    7CHTO  H167 2646   6.262   1.761   2.514 -1.2551 -1.1237  1.4329
    7CHTO  C102 2647   6.293   1.509   2.408  0.4675 -0.3053 -0.2145
    7CHTO  H189 2648   6.305   1.510   2.517 -2.6131 -2.0081  0.2059
    7CHTO   N18 2649   6.423   1.454   2.368  0.5594 -0.4282 -0.2954
    7CHTO  H176 2650   6.409   1.348   2.384 -0.4256 -0.1485  0.7863
    7CHTO  H177 2651   6.506   1.489   2.427 -0.1347  0.8299 -0.0536
    7CHTO  C105 2652   6.176   1.425   2.358 -0.1136 -0.1610  0.2150
    7CHTO  H192 2653   6.201   1.365   2.271 -1.2043  1.3219 -1.1505
    7CHTO   O65 2654   6.061   1.503   2.320 -0.4746  0.4035 -0.4340
    7CHTO  C100 2655   6.080   1.585   2.203 -0.8781 -0.6273  0.2277
    7CHTO  H187 2656   6.065   1.523   2.114 -1.9734 -1.2138  0.8050
    7CHTO  C107 2657   5.974   1.693   2.183  0.0053 -0.3012 -0.3041
    7CHTO   O70 2658   5.839   1.643   2.175 -0.2402  0.2722 -0.4376
    7CHTO  H170 2659   5.811   1.623   2.262  1.5315 -1.0706 -0.1448
    7CHTO   O57 2660   6.134   1.344   2.477 -0.0810  0.0105  0.0434
    7CHTO   C85 2661   6.095   1.207   2.471  0.5235 -0.2979  0.1568
    7CHTO  H157 2662   6.129   1.166   2.374  0.4830 -0.8268  0.3648
    7CHTO   C83 2663   5.938   1.209   2.462  0.5019  0.0180  0.0364
    7CHTO  H155 2664   5.900   1.274   2.383 -0.0737 -1.3532 -0.8276
    7CHTO   O56 2665   5.887   1.271   2.579 -0.6730 -0.3867 -0.0528
    7CHTO  H135 2666   5.847   1.207   2.633 -0.6562  1.0421  1.6988
    7CHTO   C81 2667   5.888   1.068   2.431 -0.5670 -0.1291 -0.4595
    7CHTO  H153 2668   5.930   1.045   2.333  0.9677 -0.3076  0.2272
    7CHTO   N14 2669   5.744   1.056   2.392  0.3443  0.0269  0.1694
    7CHTO  H141 2670   5.720   0.972   2.331 -1.5628  1.7621 -1.5594
    7CHTO  H142 2671   5.684   1.055   2.480  0.4289 -2.4446  0.2156
    7CHTO   C79 2672   5.939   0.964   2.541 -0.5619 -0.3265  0.3826
    7CHTO  H151 2673   5.930   0.864   2.498  3.2534 -1.3751  1.8474
    7CHTO   O52 2674   6.081   0.980   2.558  0.2683  0.0014 -0.2709
    7CHTO   C86 2675   6.132   1.119   2.587 -0.8133  0.5505 -0.5695
    7CHTO  H158 2676   6.092   1.153   2.684  2.6550 -1.7248  1.7586
    7CHTO   C90 2677   6.286   1.119   2.608 -0.1234  0.0103  0.3761
    7CHTO   O60 2678   6.366   1.132   2.487  0.4726 -0.3239 -0.2078
    7CHTO  H138 2679   6.351   1.056   2.434 -1.9998 -0.9788  1.3677
    7CHTO   O50 2680   5.883   0.964   2.676  0.1581  0.6716 -0.0601
    7CHTO   C73 2681   5.880   0.849   2.762  0.0189  0.1972  0.1574
    7CHTO  H145 2682   5.978   0.799   2.770  0.0134  0.3261  1.0921
    7CHTO   C74 2683   5.782   0.740   2.715 -0.1716 -0.7192 -0.6327
    7CHTO  H146 2684   5.807   0.720   2.610  1.5522  2.4405 -0.8897
    7CHTO   O54 2685   5.812   0.617   2.792 -0.4298 -0.4219  0.2125
    7CHTO  H133 2686   5.788   0.627   2.882 -0.8357 -0.0627  0.0693
    7CHTO   C75 2687   5.634   0.795   2.732 -1.0950  1.0150 -0.2361
    7CHTO  H147 2688   5.624   0.886   2.670  3.4091  0.3350 -2.1771
    7CHTO   N13 2689   5.541   0.689   2.680  0.0233 -0.6409  0.3271
    7CHTO  H139 2690   5.553   0.593   2.728  0.0645 -0.0934  1.4425
    7CHTO  H140 2691   5.568   0.664   2.579  0.6427 -0.3967  0.4307
    7CHTO   C76 2692   5.609   0.839   2.882 -0.6802 -0.0028  0.2249
    7CHTO  H148 2693   5.613   0.755   2.951  1.7935 -0.0807  0.0105
    7CHTO   O49 2694   5.705   0.942   2.920  0.1664 -0.2129  0.7024
    7CHTO   C77 2695   5.844   0.899   2.909 -0.2303  0.0509  0.7769
    7CHTO  H149 2696   5.870   0.823   2.983 -2.0367 -1.5884 -0.2481
    7CHTO   C88 2697   5.932   1.016   2.951  0.0331  0.0157 -0.4689
    7CHTO   O58 2698   5.967   1.014   3.080  0.5382 -0.7104  0.2050
    7CHTO  H136 2699   6.058   1.038   3.087  0.4860 -0.7369  0.9994
    7CHTO   O51 2700   5.474   0.904   2.899  0.5501 -0.0148 -0.4779
    7CHTO   C78 2701   5.439   0.945   3.042 -0.0592 -0.3185  0.3063
    7CHTO  H150 2702   5.518   0.924   3.116  1.8583  1.7546 -1.1025
    7CHTO   C80 2703   5.309   0.868   3.070  0.5926 -0.9342  0.9191
    7CHTO  H152 2704   5.237   0.891   2.988  2.3692  0.6551 -0.2298
    7CHTO   O55 2705   5.333   0.727   3.069 -0.1866  0.5934 -0.2161
    7CHTO  H134 2706   5.370   0.693   2.989  0.2367  1.1945 -0.2826
    7CHTO   C84 2707   5.244   0.907   3.205  0.1096  0.0445  0.4860
    7CHTO  H156 2708   5.306   0.876   3.288  1.0145  1.1540  0.2406
    7CHTO   N15 2709   5.106   0.849   3.214  0.2102  0.6896  0.3909
    7CHTO  H143 2710   5.117   0.764   3.277 -1.9029 -0.7246 -1.0783
    7CHTO  H144 2711   5.039   0.917   3.263  0.6100 -0.1534  2.1499
    7CHTO   C87 2712   5.230   1.060   3.229  0.4688 -0.3118  0.3653
    7CHTO  H159 2713   5.151   1.105   3.170 -1.5062 -1.4219  2.0983
    7CHTO   O53 2714   5.372   1.124   3.190  0.3800  0.2239 -0.3505
    7CHTO   C82 2715   5.412   1.096   3.055 -0.5111 -0.7649 -0.1296
    7CHTO  H154 2716   5.330   1.119   2.986 -0.8813  0.3476  0.6673
    7CHTO   C89 2717   5.536   1.189   3.016  0.4670  0.3866 -0.3698
    7CHTO   O59 2718   5.513   1.322   3.058  0.0935  0.0697 -0.6612
    7CHTO  H137 2719   5.443   1.360   3.009  0.2242 -0.0260 -0.9200
    7CHTO   O45 2720   5.196   1.098   3.397 -0.6549  0.5362  0.1596
    7CHTO   C67 2721   5.285   1.187   3.464  0.1714 -0.0191  0.0430
    7CHTO  H124 2722   5.375   1.195   3.403 -0.4762  0.1353 -0.9045
    7CHTO   C65 2723   5.221   1.328   3.468  0.1164  0.0869 -0.1922
    7CHTO  H122 2724   5.114   1.312   3.482  0.5707 -2.0744  1.0630
    7CHTO   O44 2725   5.253   1.396   3.345 -0.1663 -0.3115 -0.0879
    7CHTO  H102 2726   5.188   1.459   3.316 -0.7188  0.0022  1.7947
    7CHTO   C63 2727   5.253   1.409   3.603 -0.2548 -0.4860  0.4912
    7CHTO  H120 2728   5.194   1.366   3.685 -0.7370 -0.2115  0.2886
    7CHTO   N11 2729   5.214   1.554   3.614  0.8086  0.0077 -0.1408
    7CHTO  H108 2730   5.122   1.559   3.559  1.3332  1.0515 -0.9475
    7CHTO  H109 2731   5.189   1.563   3.717  1.0267 -2.8706  0.2223
    7CHTO   C61 2732   5.395   1.372   3.657 -0.1764 -0.0110  0.0802
    7CHTO  H118 2733   5.406   1.421   3.754  0.0138  3.1130 -1.4660
    7CHTO   O40 2734   5.419   1.233   3.672 -0.4530 -0.1733 -0.2515
    7CHTO   C68 2735   5.327   1.134   3.611 -0.5133  0.4670 -0.4367
    7CHTO  H125 2736   5.234   1.133   3.673 -0.7127 -1.4827 -0.7591
    7CHTO   C72 2737   5.386   0.994   3.615  0.0553 -0.0554 -0.3485
    7CHTO   O48 2738   5.494   0.982   3.516  0.2320 -0.4840  0.9277
    7CHTO  H105 2739   5.531   0.898   3.536 -0.3075  0.2057  5.3546
    7CHTO   O38 2740   5.492   1.440   3.571 -0.0422  0.2219  0.2585
    7CHTO   C55 2741   5.627   1.429   3.610 -0.2917 -0.1270  0.5363
    7CHTO  H112 2742   5.644   1.345   3.679 -0.9958  0.4011  1.3480
    7CHTO   C56 2743   5.687   1.568   3.666 -0.2639 -0.8268  0.0949
    7CHTO  H113 2744   5.680   1.642   3.585  2.7642 -1.6234 -0.9856
    7CHTO   O42 2745   5.605   1.605   3.783 -0.7411  0.0518 -0.4592
    7CHTO  H100 2746   5.636   1.687   3.816  0.7507 -0.2651 -1.0057
    7CHTO   C57 2747   5.843   1.536   3.685  0.3676  0.5464 -0.2215
    7CHTO  H114 2748   5.853   1.451   3.752  0.3160 -1.7208 -2.9934
    7CHTO   N10 2749   5.911   1.651   3.745  0.3737 -0.8213  0.3455
    7CHTO  H106 2750   5.850   1.739   3.734 -0.6967 -1.3293  2.0327
    7CHTO  H107 2751   6.008   1.670   3.700 -0.0182  0.7858  0.1547
    7CHTO   C58 2752   5.906   1.499   3.544  0.4936  0.0163 -1.0248
    7CHTO  H115 2753   5.885   1.576   3.466  0.3486 -0.3743 -1.3771
    7CHTO   O37 2754   5.841   1.376   3.502 -0.0151  0.0324  0.0458
    7CHTO   C59 2755   5.700   1.382   3.481 -0.1646  0.5277  0.2661
    7CHTO  H116 2756   5.684   1.450   3.397  3.4902  2.1202  0.7489
    7CHTO   C70 2757   5.668   1.240   3.432  0.8904  0.3868 -0.4489
    7CHTO   O46 2758   5.722   1.204   3.313  0.1825 -0.6176  0.0998
    7CHTO  H103 2759   5.696   1.117   3.291  0.7487 -0.2117 -2.2886
    7CHTO   O39 2760   6.051   1.472   3.552  0.3791  0.4185  0.0388
    7CHTO   C60 2761   6.113   1.377   3.462  0.9920  0.2714  0.4075
    7CHTO  H117 2762   6.073   1.278   3.484  1.0951  0.3163  0.7918
    7CHTO   C62 2763   6.097   1.407   3.311 -0.3963  0.0754  0.6276
    7CHTO  H119 2764   5.990   1.392   3.289 -0.5164  0.9374  0.5872
    7CHTO   O43 2765   6.143   1.544   3.297  0.4779  0.0633  0.1787
    7CHTO  H101 2766   6.168   1.563   3.208  2.5195  1.6378  1.0439
    7CHTO   C66 2767   6.176   1.298   3.225 -0.0390  0.2769  0.5926
    7CHTO  H123 2768   6.131   1.202   3.251  1.9985 -0.9175 -0.1501
    7CHTO   N12 2769   6.158   1.320   3.081  0.0563  0.5127  0.4347
    7CHTO  H110 2770   6.234   1.259   3.033  0.3989  1.2053  0.0979
    7CHTO  H111 2771   6.144   1.423   3.050  0.6084  0.4585 -0.0071
    7CHTO   C69 2772   6.329   1.301   3.267 -0.2184  0.0692 -0.7435
    7CHTO  H126 2773   6.362   1.406   3.254 -0.5571  0.1631 -0.8612
    7CHTO   O41 2774   6.337   1.270   3.404 -0.0631 -0.9939  0.4074
    7CHTO   C64 2775   6.264   1.372   3.495  0.3926  0.1406  0.4537
    7CHTO  H121 2776   6.308   1.472   3.478  3.7749 -1.1961  0.9357
    7CHTO   C71 2777   6.301   1.338   3.645 -0.4609 -0.6425 -0.1375
    7CHTO   O47 2778   6.247   1.429   3.735 -0.1424  0.4269  0.1168
    7CHTO  H104 2779   6.181   1.392   3.791  0.9060 -3.6351 -1.2009
    7CHTO   O34 2780   6.421   1.199   3.185 -0.6222  0.0816 -0.3097
    7CHTO   C49 2781   6.519   1.101   3.140  0.1869  0.1467  0.5623
    7CHTO   H91 2782   6.538   1.028   3.219  0.3121  0.7787  1.1189
    7CHTO   C47 2783   6.647   1.176   3.095  0.4119 -0.6176 -0.3593
    7CHTO   H89 2784   6.717   1.194   3.179  0.5958 -1.1844 -0.3889
    7CHTO   O33 2785   6.617   1.299   3.029  0.1455 -0.2903 -0.8037
    7CHTO   H70 2786   6.555   1.290   2.960 -1.5277  0.5485  0.5622
    7CHTO   C45 2787   6.731   1.091   2.979  0.7040 -0.3137 -0.0354
    7CHTO   H87 2788   6.700   1.133   2.882 -1.2971  0.3603  0.8557
    7CHTO    N8 2789   6.881   1.115   2.994 -0.1816  0.3960  0.7280
    7CHTO   H75 2790   6.897   1.184   3.075 -1.1510  1.1452  0.3025
    7CHTO   H76 2791   6.940   1.026   3.009  0.4095  0.8025  0.8084
    7CHTO   C43 2792   6.683   0.937   2.977  0.5152  0.2972 -0.5512
    7CHTO   H85 2793   6.743   0.888   2.900  1.0466 -1.4768  0.9476
    7CHTO   O29 2794   6.545   0.924   2.946  0.2416  0.3008 -0.1483
    7CHTO   C50 2795   6.453   1.015   3.024 -0.2329 -0.0351  0.2651
    7CHTO   H92 2796   6.396   1.092   2.969 -0.8190 -0.3327  0.4534
    7CHTO   C54 2797   6.334   0.943   3.076  0.3277 -0.0983 -0.0532
    7CHTO   O36 2798   6.348   0.862   3.186 -0.3858 -0.0431 -0.8860
    7CHTO   H72 2799   6.266   0.839   3.225  0.4598  0.2121  1.1099
    7CHTO   O27 2800   6.729   0.862   3.095  0.4473  0.1639  0.4428
    7CHTO   C37 2801   6.766   0.726   3.121 -0.6217 -0.1190 -0.8410
    7CHTO   H79 2802   6.748   0.710   3.228 -0.0705  1.1823 -0.5534
    7CHTO   C38 2803   6.673   0.620   3.052 -0.1059  0.0815  0.0231
    7CHTO   H80 2804   6.661   0.657   2.949 -3.8140 -1.0468 -0.0374
    7CHTO   O31 2805   6.551   0.629   3.115  0.4940  0.1153  0.4728
    7CHTO   H68 2806   6.487   0.585   3.061  1.1617 -1.4202  0.9062
    7CHTO   C39 2807   6.731   0.480   3.049 -0.6663 -0.4859 -0.0594
    7CHTO   H81 2808   6.723   0.452   3.155  0.3055  1.6642  0.6073
    7CHTO    N7 2809   6.648   0.388   2.971 -0.2363  0.1190 -0.6633
    7CHTO   H73 2810   6.661   0.402   2.864  2.6759 -0.5083 -0.4511
    7CHTO   H74 2811   6.545   0.394   2.999  0.7190  3.6454  2.4289
    7CHTO   C40 2812   6.878   0.473   3.015 -1.0748 -0.8071  0.2697
    7CHTO   H82 2813   6.892   0.501   2.910  0.1275  1.1172  0.9172
    7CHTO   O26 2814   6.951   0.570   3.105  0.0060  0.1028 -0.1371
    7CHTO   C41 2815   6.914   0.703   3.084 -0.0245 -0.6514  0.5467
    7CHTO   H83 2816   6.934   0.729   2.979  0.0737 -0.5673  0.5861
    7CHTO   C52 2817   7.000   0.799   3.180 -0.0205  0.4082  0.4831
    7CHTO   O35 2818   7.116   0.795   3.181  1.0723 -0.6479 -0.1406
    7CHTO   H71 2819   7.148   0.707   3.185  1.9656 -0.4226 -1.7794
    7CHTO   O28 2820   6.943   0.347   3.053  0.3047  0.2099 -0.0440
    7CHTO   C42 2821   7.064   0.309   2.986  0.2705 -0.5621  0.0003
    7CHTO   H84 2822   7.108   0.237   3.055 -0.6469 -0.6924  0.4534
    7CHTO   C44 2823   7.171   0.421   2.961  0.6426 -0.4059  0.9081
    7CHTO   H86 2824   7.129   0.496   2.894  2.3188  0.3789  0.7260
    7CHTO   O32 2825   7.207   0.475   3.089  0.0758 -0.4766  0.2603
    7CHTO   H69 2826   7.134   0.508   3.138  0.2623  0.1813  0.1058
    7CHTO   C48 2827   7.292   0.376   2.875 -0.5880 -0.2769 -0.0672
    7CHTO   H90 2828   7.342   0.309   2.945  0.3292  0.5650  0.0985
    7CHTO    N9 2829   7.386   0.500   2.841 -0.0971 -0.0151 -0.2010
    7CHTO   H77 2830   7.349   0.566   2.764  0.9406  0.3673 -0.3788
    7CHTO   H78 2831   7.486   0.463   2.823  0.7839  2.4871 -0.6450
    7CHTO   C51 2832   7.248   0.289   2.755  0.8701  0.4372 -0.7178
    7CHTO   H93 2833   7.195   0.353   2.684  1.1202  2.1843  0.6327
    7CHTO   O30 2834   7.165   0.178   2.803 -0.1495 -0.4071 -0.3161
    7CHTO   C46 2835   7.029   0.230   2.849 -0.1821  0.1819 -0.6243
    7CHTO   H88 2836   6.991   0.296   2.771  2.4347  0.5866 -1.6225
    7CHTO   C53 2837   6.933   0.110   2.870 -0.5812 -0.2830  0.1041
    7CHTO   O72 2838   6.992   0.017   2.963  0.0666 -0.9956 -0.1663
    7CHTO  H199 2839   7.063  -0.028   2.921  0.9201 -1.2118  1.4442
    7CHTO   O22 2840   7.363   0.232   2.697 -0.7831 -0.2772 -0.2292
    7CHTO   C31 2841   7.396   0.215   2.549  0.1973 -0.3626  0.2069
    7CHTO   H59 2842   7.487   0.151   2.552  1.3069  1.0128 -2.0311
    7CHTO   C29 2843   7.305   0.139   2.451 -0.1303 -0.0779 -0.3570
    7CHTO   H57 2844   7.206   0.185   2.461  0.9784  2.4798 -0.9081
    7CHTO   O21 2845   7.288   0.006   2.504  0.4075 -0.3817 -0.0262
    7CHTO   H37 2846   7.202  -0.030   2.499 -0.4903  1.5363  0.9493
    7CHTO   C27 2847   7.355   0.146   2.303  0.3740 -0.2018 -0.1981
    7CHTO   H55 2848   7.454   0.100   2.290  0.3165 -0.8589  1.5862
    7CHTO    N5 2849   7.261   0.085   2.211 -0.3431  0.0369  0.4311
    7CHTO   H43 2850   7.303  -0.011   2.185  0.7467  0.4201  0.7746
    7CHTO   H44 2851   7.249   0.142   2.120 -0.4648  0.9314  0.9979
    7CHTO   C25 2852   7.368   0.300   2.271  0.0154  0.4025 -0.2055
    7CHTO   H53 2853   7.283   0.363   2.302  0.9923  1.7153 -0.1351
    7CHTO   O17 2854   7.478   0.341   2.350  0.0459 -0.7978 -0.4953
    7CHTO   C32 2855   7.446   0.348   2.491 -1.0343 -0.2799  0.2588
    7CHTO   H60 2856   7.379   0.433   2.507 -1.1121 -0.4034  0.5801
    7CHTO   C36 2857   7.573   0.396   2.564  0.4791 -0.8357 -0.3009
    7CHTO   O25 2858   7.623   0.529   2.539  0.0159 -0.4798 -0.2621
    7CHTO   H40 2859   7.707   0.543   2.581 -0.4987  1.6973  0.1277
    7CHTO   O15 2860   7.409   0.332   2.117  0.0441 -0.1963  0.0035
    7CHTO   C19 2861   7.377   0.465   2.066  0.0079 -0.2845  0.3245
    7CHTO   H47 2862   7.406   0.472   1.960  1.2394  0.5429  0.7057
    7CHTO   C20 2863   7.227   0.502   2.067 -0.4190 -0.2563 -0.2271
    7CHTO   H48 2864   7.192   0.512   2.171  0.7238  2.6349 -0.0667
    7CHTO   O19 2865   7.159   0.394   1.998 -0.4085  0.0010 -0.3487
    7CHTO   H35 2866   7.210   0.325   1.960 -1.0913  0.2501 -1.7364
    7CHTO   C21 2867   7.200   0.641   1.998 -0.1462 -0.7470 -0.5027
    7CHTO   H49 2868   7.212   0.633   1.890 -1.2573  1.9470 -0.8672
    7CHTO    N4 2869   7.058   0.686   2.011 -0.1802 -0.4009 -0.0165
    7CHTO   H41 2870   7.036   0.773   1.951  1.3825 -0.3253 -0.4861
    7CHTO   H42 2871   7.017   0.705   2.109  2.1003  0.5376  0.7903
    7CHTO   C22 2872   7.303   0.750   2.046  0.5932 -0.6746  0.3259
    7CHTO   H50 2873   7.281   0.786   2.146 -0.8673 -2.4638  0.6829
    7CHTO   O14 2874   7.441   0.696   2.053 -0.5307  0.3542 -0.0789
    7CHTO   C23 2875   7.459   0.580   2.136  0.3160 -0.2975  0.2082
    7CHTO   H51 2876   7.414   0.606   2.233 -0.7769 -3.5325  0.6142
    7CHTO   C34 2877   7.609   0.542   2.150 -0.0361  0.0055  0.1937
    7CHTO   O23 2878   7.689   0.628   2.232 -0.5090 -0.4296  0.1465
    7CHTO   H38 2879   7.655   0.642   2.319 -1.1394  0.1516 -0.1917
    7CHTO   O16 2880   7.304   0.860   1.953 -0.0349 -0.3343 -0.0532
    7CHTO   C24 2881   7.339   1.013   2.024  0.0377  0.6736  0.0167
    7CHTO   H52 2882   7.366   1.000   2.129  0.3786 -0.0919 -0.1656
    7CHTO   C26 2883   7.215   1.102   2.003  0.5477  0.5022  0.2355
    7CHTO   H54 2884   7.185   1.102   1.896  0.0548 -1.0613  0.3542
    7CHTO   O20 2885   7.110   1.029   2.067 -0.4345 -0.0954 -0.3838
    7CHTO   H36 2886   7.028   1.075   2.063 -0.1123  0.8501  2.7351
    7CHTO   C30 2887   7.241   1.245   2.062  1.1165  0.4579 -0.4930
    7CHTO   H58 2888   7.258   1.229   2.169  1.1038 -0.1952 -0.5868
    7CHTO    N6 2889   7.119   1.328   2.050 -0.1801 -0.2529  0.0088
    7CHTO   H45 2890   7.057   1.307   1.964  0.5881  0.7909 -0.8176
    7CHTO   H46 2891   7.153   1.431   2.052  0.0962 -0.3476  2.7362
    7CHTO   C33 2892   7.377   1.306   2.007 -0.4094 -0.7288 -0.0656
    7CHTO   H61 2893   7.381   1.332   1.901 -0.0008 -0.8316 -0.0760
    7CHTO   O18 2894   7.481   1.207   2.032 -0.7102  0.1799  0.3371
    7CHTO   C28 2895   7.461   1.082   1.961  0.8095  0.4309 -0.3681
    7CHTO   H56 2896   7.439   1.104   1.857  0.9200  2.1851 -0.0287
    7CHTO   C35 2897   7.586   0.987   1.969 -0.1128 -0.2068 -0.4156
    7CHTO   O24 2898   7.703   1.046   1.915  0.3641 -0.0750  0.0590
    7CHTO   H39 2899   7.785   0.999   1.914  1.3056  1.5322 -2.8113
    7CHTO    O9 2900   7.405   1.427   2.082 -0.4489  0.1438 -0.2698
    7CHTO   C13 2901   7.490   1.527   2.016 -0.8267  1.2104  0.0345
    7CHTO   H26 2902   7.448   1.544   1.914 -0.2933 -0.5790 -0.5073
    7CHTO   C11 2903   7.643   1.484   2.002  0.1500  0.5515 -0.7081
    7CHTO   H24 2904   7.657   1.393   1.942 -2.5927 -0.0876 -0.4271
    7CHTO    O8 2905   7.693   1.451   2.136  0.1650  0.2970 -0.1143
    7CHTO    H3 2906   7.721   1.526   2.186  1.5569  0.2354 -0.7566
    7CHTO    C9 2907   7.709   1.602   1.931  0.8479  0.2719 -0.3374
    7CHTO   H22 2908   7.651   1.617   1.839  1.8759  0.6869 -0.9283
    7CHTO    N2 2909   7.843   1.574   1.892 -0.1504  0.6070 -1.0801
    7CHTO   H10 2910   7.850   1.581   1.784 -0.5209  1.0286 -1.0723
    7CHTO   H11 2911   7.920   1.629   1.943 -0.7891  0.0159  0.5672
    7CHTO    C7 2912   7.695   1.730   2.017  0.0667 -0.3603 -0.0380
    7CHTO   H20 2913   7.752   1.806   1.959 -0.2304 -2.5592 -3.3359
    7CHTO    O4 2914   7.559   1.769   2.039 -0.0254 -0.1583 -0.5876
    7CHTO   C14 2915   7.472   1.664   2.088 -0.0481  0.0488  0.1717
    7CHTO   H27 2916   7.371   1.695   2.054  0.4875  1.3472 -0.2895
    7CHTO   C18 2917   7.468   1.672   2.239  0.0680 -0.0554 -0.0939
    7CHTO   O13 2918   7.403   1.792   2.290 -0.8299  0.2868 -0.0916
    7CHTO    H7 2919   7.310   1.794   2.277 -0.8960 -1.0128  0.1529
    7CHTO    O2 2920   7.781   1.722   2.169  0.3084 -0.4638 -0.0246
    7CHTO    C1 2921   7.877   1.820   2.190  0.3043  0.1584 -0.2922
    7CHTO   H14 2922   7.881   1.875   2.093  0.4711  0.8305  0.0918
    7CHTO    C2 2923   8.025   1.762   2.221 -0.4264  0.0120 -0.4226
    7CHTO   H15 2924   8.013   1.689   2.304  1.9941  2.0606  1.8255
    7CHTO    O6 2925   8.073   1.688   2.108  0.4944  0.0231  0.2390
    7CHTO    H1 2926   8.051   1.727   2.026 -1.7498 -1.1430  0.2192
    7CHTO    C3 2927   8.120   1.878   2.271 -0.5794 -0.3434  0.3984
    7CHTO   H16 2928   8.128   1.948   2.186  1.6703 -0.9413  0.1037
    7CHTO    N1 2929   8.246   1.820   2.310  0.0539  0.3424  0.1840
    7CHTO    H8 2930   8.248   1.797   2.415  0.5255 -1.7503 -0.2529
    7CHTO    H9 2931   8.317   1.891   2.272 -1.4367  0.4641 -2.5116
    7CHTO    C4 2932   8.048   1.958   2.387 -0.2225  0.5881 -0.2754
    7CHTO   H17 2933   8.016   1.883   2.460 -0.5491 -0.9856 -1.9850
    7CHTO    O1 2934   7.930   2.025   2.345 -0.2579  0.5089 -0.3526
    7CHTO    C5 2935   7.835   1.925   2.304 -0.5309  0.0897 -0.3230
    7CHTO   H18 2936   7.827   1.865   2.395  0.0452 -0.7907 -0.8471
    7CHTO   C16 2937   7.697   1.995   2.273  0.1109 -0.3663 -0.4255
    7CHTO   O11 2938   7.627   2.030   2.403 -0.1469  0.4353 -0.2712
    7CHTO    H5 2939   7.670   2.102   2.445 -1.8924  0.7653  1.0185
    7CHTO    O3 2940   8.143   2.059   2.440  0.4293 -0.5316 -0.3304
    7CHTO    C6 2941   8.146   2.070   2.590 -0.4698 -0.6601 -0.8815
    7CHTO   H19 2942   8.075   2.000   2.633 -1.9499  1.3656  0.0859
    7CHTO    C8 2943   8.290   2.032   2.641 -0.2920 -0.3315 -0.8405
    7CHTO   H21 2944   8.360   2.094   2.584  0.8044 -0.3239  0.4910
    7CHTO    O7 2945   8.316   1.895   2.607  0.6538  0.7109  0.3210
    7CHTO    H2 2946   8.391   1.862   2.652 -0.2811 -1.6311  0.2173
    7CHTO   C12 2947   8.307   2.046   2.798 -0.0835  0.2249 -0.0012
    7CHTO   H25 2948   8.260   1.960   2.849 -0.2810 -0.3156 -1.0951
    7CHTO    N3 2949   8.458   2.031   2.824 -0.0511 -0.0856 -0.5477
    7CHTO   H12 2950   8.490   1.929   2.813 -0.4509 -0.4209  1.2110
    7CHTO   H13 2951   8.515   2.099   2.763 -0.6351  1.6490  0.7807
    7CHTO   C15 2952   8.237   2.186   2.851 -0.1545 -0.2051  0.1363
    7CHTO   H28 2953   8.295   2.273   2.820 -0.0990 -0.4808 -0.5287
    7CHTO   O10 2954   8.202   2.173   3.014  0.3941  0.2822 -0.5358
    7CHTO    H4 2955   8.242   2.241   3.065  0.0468  0.5290 -0.5864
    7CHTO    O5 2956   8.104   2.188   2.796 -1.1626  0.4167 -0.0329
    7CHTO   C10 2957   8.113   2.207   2.652 -0.5196  0.3065 -0.5298
    7CHTO   H23 2958   8.185   2.282   2.620  1.5308 -1.2846  0.2103
    7CHTO   C17 2959   7.979   2.268   2.610  0.2176  0.1775 -0.8599
    7CHTO   O12 2960   7.960   2.398   2.665 -0.7906  0.4267 -0.2741
    7CHTO    H6 2961   8.009   2.457   2.612 -0.8169  1.6930  1.0992
    8CHTO  H203 2962   7.809   9.358   1.230  1.1751 -0.3922  0.5528
    8CHTO   O82 2963   7.777   9.274   1.204 -0.1863  0.1715  0.3730
    8CHTO  C123 2964   7.708   9.222   1.318  0.4301 -0.1836  0.0767
    8CHTO  H227 2965   7.753   9.271   1.406 -1.3266  0.8984  0.3741
    8CHTO   O77 2966   7.574   9.261   1.283  1.0819 -0.1518 -0.6650
    8CHTO  C118 2967   7.476   9.256   1.388  0.2469  0.2877  0.0701
    8CHTO  H222 2968   7.527   9.293   1.477 -0.7914  2.1548 -0.0697
    8CHTO  C125 2969   7.359   9.348   1.347  0.2201  0.3454  0.3246
    8CHTO   O84 2970   7.250   9.360   1.440 -0.2021  0.1376 -0.0160
    8CHTO  H205 2971   7.265   9.431   1.500 -0.2434 -0.5967  0.8821
    8CHTO  C114 2972   7.443   9.108   1.395 -0.2518 -0.1241  0.3319
    8CHTO  H218 2973   7.395   9.084   1.300 -0.7321  2.3567 -0.0925
    8CHTO  C116 2974   7.571   9.021   1.417  0.2315  1.1651  0.2773
    8CHTO  H220 2975   7.603   9.024   1.523 -1.7918 -0.8216  0.9923
    8CHTO   O79 2976   7.541   8.884   1.383 -0.0286 -0.4160  0.2111
    8CHTO  H201 2977   7.534   8.833   1.462  1.2305  0.5187  0.9435
    8CHTO  C120 2978   7.693   9.066   1.330  0.3692 -0.1022 -0.6450
    8CHTO  H224 2979   7.672   9.035   1.225 -1.2830 -1.8712  0.1827
    8CHTO   N21 2980   7.819   8.990   1.361  0.5599  0.6057 -0.2431
    8CHTO  H211 2981   7.823   8.952   1.462 -0.5598 -0.0478 -0.4426
    8CHTO  H212 2982   7.902   9.058   1.347 -1.9072  3.9639  0.6909
    8CHTO   O75 2983   7.342   9.102   1.498 -0.2867  0.3818  0.2109
    8CHTO  C112 2984   7.213   8.990   1.459  0.6640  0.0519 -0.5712
    8CHTO  H216 2985   7.252   8.915   1.389  1.9477  1.2792 -1.1985
    8CHTO   O73 2986   7.098   9.067   1.404  0.0820  0.6020  0.2236
    8CHTO  C113 2987   6.974   9.005   1.374  0.3676  0.1580 -0.4904
    8CHTO  H217 2988   7.001   8.933   1.294  1.2806  0.2363 -0.2557
    8CHTO  C124 2989   6.897   9.118   1.309  0.3758 -0.3834 -0.1622
    8CHTO   O83 2990   6.763   9.091   1.266 -0.0461  0.3726  0.2480
    8CHTO  H204 2991   6.694   9.116   1.324  0.1839  0.9963  0.2536
    8CHTO  C109 2992   6.916   8.939   1.503  0.1326 -0.0943 -0.2748
    8CHTO  H213 2993   6.883   9.015   1.575  2.2538  2.4528 -1.9162
    8CHTO  C110 2994   7.030   8.849   1.562 -0.3836  0.8393  0.1218
    8CHTO  H214 2995   7.047   8.765   1.494 -2.0727  0.4850  0.1158
    8CHTO   O78 2996   6.980   8.800   1.690  0.3386 -0.1610 -0.1797
    8CHTO  H200 2997   6.886   8.806   1.682  0.2980 -0.2984  0.1737
    8CHTO  C111 2998   7.165   8.915   1.586 -0.2988  0.1686 -0.1570
    8CHTO  H215 2999   7.149   8.995   1.659 -0.7874 -0.8083  0.8094
    8CHTO   N19 3000   7.281   8.833   1.631  0.6150 -0.1654  0.0770
    8CHTO  H207 3001   7.244   8.733   1.652 -0.7201  0.5532  1.2550
    8CHTO  H208 3002   7.302   8.869   1.731  0.7577 -1.7237  0.6172
    8CHTO   O74 3003   6.807   8.859   1.467  0.1878  0.4323 -0.0446
    8CHTO  C115 3004   6.683   8.855   1.577  0.2760  0.1397 -0.4737
    8CHTO  H219 3005   6.648   8.753   1.593 -0.4277  0.6712  1.5215
    8CHTO   O76 3006   6.724   8.917   1.714 -0.1536  0.1624  0.2854
    8CHTO  C122 3007   6.623   8.916   1.813  0.5695 -0.0785 -0.5307
    8CHTO  H226 3008   6.651   8.995   1.883 -1.6386 -1.2238  1.7240
    8CHTO  C126 3009   6.631   8.782   1.901  0.2493 -0.2097  0.9629
    8CHTO   O85 3010   6.657   8.666   1.820 -0.7614  0.5537 -0.4690
    8CHTO  H206 3011   6.615   8.587   1.849  0.4854 -1.0234 -2.8087
    8CHTO  C121 3012   6.478   8.952   1.752 -0.8165  1.0080  0.9144
    8CHTO  H225 3013   6.420   8.858   1.740 -0.7691  0.7702  2.4938
    8CHTO   O81 3014   6.403   9.027   1.849  0.4437  0.0959  0.4024
    8CHTO  H202 3015   6.362   9.105   1.815 -0.9132 -1.1817 -1.0000
    8CHTO  C119 3016   6.502   9.026   1.615 -0.1883  0.8130 -0.2012
    8CHTO  H223 3017   6.401   9.060   1.592 -0.4297  1.1443  1.2582
    8CHTO  C117 3018   6.561   8.929   1.505  0.1762 -0.3691 -0.0988
    8CHTO  H221 3019   6.613   8.968   1.418 -0.4756 -0.8660 -0.7143
    8CHTO   N20 3020   6.455   8.832   1.452 -0.0668 -0.1941  0.0755
    8CHTO  H209 3021   6.369   8.895   1.433  1.6872  2.1404 -0.3880
    8CHTO  H210 3022   6.488   8.790   1.358 -0.0201 -1.1980  0.5311
    8CHTO   O80 3023   6.567   9.145   1.624  0.3581  0.8514  0.4851
    8CHTO  C103 3024   6.474   9.296   1.625 -0.2916  0.1040  0.0191
    8CHTO  H190 3025   6.367   9.279   1.620  0.1575 -2.4807 -1.7759
    8CHTO  C101 3026   6.521   9.397   1.736  0.0111  0.0968  0.1149
    8CHTO  H188 3027   6.629   9.404   1.722 -0.4315  1.2009 -3.1729
    8CHTO   O68 3028   6.484   9.354   1.858  0.2744 -0.2787 -0.2018
    8CHTO  H168 3029   6.391   9.371   1.859  0.3024 -0.0002 -1.8170
    8CHTO   C99 3030   6.464   9.544   1.690 -0.9075 -0.1295 -0.0093
    8CHTO  H186 3031   6.354   9.543   1.679 -0.8226 -1.7327 -0.9225
    8CHTO   N17 3032   6.508   9.646   1.792  0.6806  0.5756 -0.8513
    8CHTO  H174 3033   6.571   9.596   1.863 -1.0454 -4.3499 -2.5706
    8CHTO  H175 3034   6.424   9.685   1.847  0.7174 -1.1028  0.4043
    8CHTO   C97 3035   6.507   9.585   1.549  0.5636  0.3632 -0.0008
    8CHTO  H184 3036   6.616   9.595   1.544  0.7260 -0.7274  1.2293
    8CHTO   O64 3037   6.456   9.481   1.462 -0.3418 -0.3988  0.1153
    8CHTO  C104 3038   6.517   9.358   1.493 -0.3289 -0.2401 -0.9953
    8CHTO  H191 3039   6.626   9.367   1.493 -0.3516  0.0870 -0.1264
    8CHTO  C108 3040   6.481   9.260   1.381 -0.2224  0.3645 -0.1211
    8CHTO   O71 3041   6.532   9.302   1.254  0.9134  0.1508  0.2162
    8CHTO  H171 3042   6.521   9.394   1.240 -2.9015 -0.1652  0.6138
    8CHTO   O62 3043   6.449   9.708   1.501  0.2721  0.1721  0.1811
    8CHTO   C91 3044   6.523   9.770   1.392  0.4272 -0.1679 -0.6356
    8CHTO  H178 3045   6.602   9.703   1.359  1.3248  0.8332 -0.5450
    8CHTO   C92 3046   6.576   9.906   1.448  0.8390 -0.1053  0.2770
    8CHTO  H179 3047   6.501   9.961   1.506  0.8536 -0.0451  0.2377
    8CHTO   O66 3048   6.670   9.869   1.554 -0.1481  0.1164  0.0807
    8CHTO  H166 3049   6.703   9.949   1.590  1.8585  1.0261 -3.5937
    8CHTO   C93 3050   6.635   9.996   1.339  0.1602  0.0932  0.1903
    8CHTO  H180 3051   6.719   9.944   1.291 -1.0669 -0.1935 -1.7383
    8CHTO   N16 3052   6.684  10.135   1.380  0.5473 -0.0143 -0.1065
    8CHTO  H172 3053   6.681  10.157   1.486  0.4775 -0.7538  0.0484
    8CHTO  H173 3054   6.788  10.142   1.353  0.2823 -1.6729 -1.6614
    8CHTO   C94 3055   6.523  10.012   1.232 -0.1920  1.3261 -0.4042
    8CHTO  H181 3056   6.431  10.052   1.274 -1.1561 -0.4185 -0.8381
    8CHTO   O61 3057   6.507   9.881   1.174  0.0022  0.2049 -0.5574
    8CHTO   C95 3058   6.430   9.797   1.263 -0.3656 -0.3704  0.4866
    8CHTO  H182 3059   6.344   9.854   1.298  0.0436  0.0243  0.8469
    8CHTO  C106 3060   6.385   9.659   1.195  0.3682 -0.1124 -0.5500
    8CHTO   O69 3061   6.503   9.603   1.136  0.5547 -0.4348 -0.1287
    8CHTO  H169 3062   6.500   9.649   1.055  0.5750  1.3234  0.8419
    8CHTO   O63 3063   6.583  10.110   1.104 -0.2434  0.1758 -0.4293
    8CHTO   C96 3064   6.503  10.114   0.987 -0.1162  0.0642 -0.1081
    8CHTO  H183 3065   6.423  10.040   0.983 -0.5275  0.5817 -2.7409
    8CHTO   C98 3066   6.584  10.084   0.853  0.4261  0.1878 -0.1059
    8CHTO  H185 3067   6.680  10.138   0.846  2.2212 -2.8573 -0.5488
    8CHTO   O67 3068   6.625   9.947   0.856  0.2444  0.1811  0.5542
    8CHTO  H167 3069   6.668   9.929   0.775 -0.3791  0.0463  0.2536
    8CHTO  C102 3070   6.500  10.110   0.712  0.1492  0.9355 -0.1440
    8CHTO  H189 3071   6.424  10.031   0.707 -0.4046  1.3371  1.4580
    8CHTO   N18 3072   6.583  10.105   0.587 -0.4998  0.5769  0.0400
    8CHTO  H176 3073   6.682  10.080   0.622  0.0407  0.7117 -1.3775
    8CHTO  H177 3074   6.553  10.038   0.508  3.4650 -2.1211  0.6491
    8CHTO  C105 3075   6.416  10.242   0.725 -0.0379  0.6659  0.1452
    8CHTO  H192 3076   6.478  10.328   0.700  1.6209 -1.2029 -2.4495
    8CHTO   O65 3077   6.351  10.257   0.847 -0.7835  0.5087  0.0047
    8CHTO  C100 3078   6.433  10.255   0.971  0.1790  0.1350  0.4511
    8CHTO  H187 3079   6.516  10.325   0.954 -0.4195  0.4677 -1.1621
    8CHTO  C107 3080   6.352  10.300   1.092 -0.0485 -0.0515  0.1836
    8CHTO   O70 3081   6.243  10.216   1.132 -0.0788 -0.3677  0.0144
    8CHTO  H170 3082   6.194  10.260   1.198  2.1585  0.7869  0.9378
    8CHTO   O57 3083   6.302  10.218   0.608 -0.5634 -0.6620 -0.0479
    8CHTO   C85 3084   6.259  10.326   0.517  0.1907  0.0363  0.1644
    8CHTO  H157 3085   6.355  10.369   0.482 -0.8131  0.9389 -1.5614
    8CHTO   C83 3086   6.181  10.439   0.595  0.4960  0.3668  0.0479
    8CHTO  H155 3087   6.245  10.488   0.669  1.6255  1.7534 -1.8092
    8CHTO   O56 3088   6.082  10.376   0.681  0.7842  0.1283 -0.2575
    8CHTO  H135 3089   6.131  10.335   0.750  0.1110  2.2285  1.5082
    8CHTO   C81 3090   6.120  10.544   0.501 -0.8019 -0.6028 -0.1597
    8CHTO  H153 3091   6.198  10.591   0.440  0.5673 -1.0014  1.2455
    8CHTO   N14 3092   6.063  10.662   0.565  0.0507 -0.2583 -0.3217
    8CHTO  H141 3093   6.032  10.730   0.489  0.0964  1.9208  1.5612
    8CHTO  H142 3094   5.981  10.624   0.621 -0.1517 -0.3476 -0.6824
    8CHTO   C79 3095   6.027  10.472   0.399  0.1259  0.1278 -0.5424
    8CHTO  H151 3096   6.000  10.547   0.325  1.2396  0.0441 -1.0513
    8CHTO   O52 3097   6.097  10.371   0.322  0.5316  0.0266 -0.3128
    8CHTO   C86 3098   6.175  10.272   0.396  0.0744  1.0483 -0.9508
    8CHTO  H158 3099   6.092  10.211   0.438 -1.4502  2.6701 -1.5268
    8CHTO   C90 3100   6.254  10.187   0.306 -0.0659  0.3477 -0.3617
    8CHTO   O60 3101   6.163  10.119   0.220  0.2614 -0.0071 -0.1232
    8CHTO  H138 3102   6.122  10.179   0.162 -1.4287 -0.2300  0.7993
    8CHTO   O50 3103   5.916  10.410   0.465  0.3191 -0.9198  0.4512
    8CHTO   C73 3104   5.777  10.377   0.423  0.4450 -0.4976 -0.3784
    8CHTO  H145 3105   5.777  10.357   0.315  1.9800 -0.7041 -0.3581
    8CHTO   C74 3106   5.687  10.497   0.461  0.2334  0.3993  0.7957
    8CHTO  H146 3107   5.718  10.593   0.418  1.1963  0.0959  0.7819
    8CHTO   O54 3108   5.558  10.473   0.410  0.0016 -0.1955 -0.0189
    8CHTO  H133 3109   5.523  10.391   0.438  1.8374 -0.5537  1.3168
    8CHTO   C75 3110   5.680  10.505   0.622  0.0617 -1.1073  0.1435
    8CHTO  H147 3111   5.779  10.527   0.664  0.5748 -2.2244 -0.4656
    8CHTO   N13 3112   5.591  10.615   0.673 -0.7912  0.3461 -0.0420
    8CHTO  H139 3113   5.515  10.574   0.737  1.8808 -1.2211  2.2027
    8CHTO  H140 3114   5.547  10.678   0.596 -0.2210  2.1074  1.0304
    8CHTO   C76 3115   5.636  10.371   0.687 -0.3579  0.4886  0.8649
    8CHTO  H148 3116   5.530  10.348   0.670 -1.1283  1.7881  3.5301
    8CHTO   O49 3117   5.717  10.253   0.644  0.3011  0.5632 -0.4263
    8CHTO   C77 3118   5.726  10.248   0.497  0.5007  0.3939 -0.4011
    8CHTO  H149 3119   5.629  10.221   0.456 -0.2378  1.4978  0.5895
    8CHTO   C88 3120   5.810  10.121   0.465  0.1270 -0.5319  0.2179
    8CHTO   O58 3121   5.790  10.072   0.316 -0.1112 -0.4143  0.5525
    8CHTO  H136 3122   5.835  10.122   0.251 -0.1642 -2.1974 -0.8912
    8CHTO   O51 3123   5.653  10.402   0.850  0.2222  0.1891 -0.2570
    8CHTO   C78 3124   5.705  10.282   0.951 -1.7308  0.2095 -0.3451
    8CHTO  H150 3125   5.733  10.185   0.905 -1.6725 -0.4752  1.0934
    8CHTO   C80 3126   5.585  10.263   1.048 -0.2738 -0.1747  0.0368
    8CHTO  H152 3127   5.544  10.361   1.081  1.3519  0.0353  1.5375
    8CHTO   O55 3128   5.493  10.194   0.963 -0.0223 -0.1177  0.1422
    8CHTO  H134 3129   5.470  10.248   0.890  1.8097  1.2451  0.5444
    8CHTO   C84 3130   5.630  10.173   1.172 -0.3616 -0.1214 -0.1202
    8CHTO  H156 3131   5.648  10.074   1.129  0.9425 -0.1516  0.4866
    8CHTO   N15 3132   5.514  10.166   1.267 -0.3216  0.0057  0.2856
    8CHTO  H143 3133   5.539  10.175   1.370  0.6463 -2.2861  0.2737
    8CHTO  H144 3134   5.443  10.240   1.237  0.8016  1.0327  0.1000
    8CHTO   C87 3135   5.750  10.231   1.248 -0.2287 -0.1022  0.1705
    8CHTO  H159 3136   5.720  10.333   1.270 -0.1991 -0.0631  0.0353
    8CHTO   O53 3137   5.872  10.261   1.136 -0.0433  0.4171  0.3952
    8CHTO   C82 3138   5.828  10.346   1.022 -0.2094 -0.4852 -0.1588
    8CHTO  H154 3139   5.801  10.448   1.051 -1.1126 -0.9852  0.7768
    8CHTO   C89 3140   5.958  10.363   0.940  0.4987 -0.4831  0.4961
    8CHTO   O59 3141   6.060  10.440   1.006  0.0925  0.5302 -0.1409
    8CHTO  H137 3142   6.127  10.448   0.942  0.5115 -2.6484 -0.1729
    8CHTO   O45 3143   5.808  10.145   1.362  0.1678  1.3204 -0.4385
    8CHTO   C67 3144   5.863  10.023   1.310 -0.5121 -0.2644  0.8868
    8CHTO  H124 3145   5.844  10.009   1.203 -0.9373  1.9808  0.6541
    8CHTO   C65 3146   6.015  10.010   1.329  0.3341 -0.2259 -0.4451
    8CHTO  H122 3147   6.064  10.101   1.293 -0.3751  0.1958 -0.3421
    8CHTO   O44 3148   6.057   9.897   1.246  0.1468 -0.2196 -0.1480
    8CHTO  H102 3149   6.141   9.921   1.211  0.2513  1.1584  0.9972
    8CHTO   C63 3150   6.056  10.009   1.486 -0.0287  0.0103  0.1802
    8CHTO  H120 3151   5.999  10.086   1.536 -1.1275 -1.1356  0.7232
    8CHTO   N11 3152   6.203  10.024   1.523  0.0484 -0.5386  0.0008
    8CHTO  H108 3153   6.253  10.114   1.492 -1.7940  0.6723  0.4499
    8CHTO  H109 3154   6.257   9.939   1.489 -1.1503 -1.8949  1.3923
    8CHTO   C61 3155   5.992   9.883   1.550 -0.0326  0.3536  0.6449
    8CHTO  H118 3156   5.992   9.910   1.657  1.8345  0.4445  0.6378
    8CHTO   O40 3157   5.850   9.870   1.507 -0.1533 -0.1384 -0.4551
    8CHTO   C68 3158   5.796   9.893   1.375 -1.0003  0.0242  0.0113
    8CHTO  H125 3159   5.690   9.913   1.404 -1.0793 -2.9961  1.9986
    8CHTO   C72 3160   5.796   9.766   1.283 -0.0739  0.3888 -0.3230
    8CHTO   O48 3161   5.696   9.668   1.312 -0.2925  0.5175  0.1300
    8CHTO  H105 3162   5.733   9.607   1.374  2.1874  1.8265 -0.0042
    8CHTO   O38 3163   6.055   9.755   1.518 -0.3376  0.1390  0.0351
    8CHTO   C55 3164   5.999   9.634   1.563  0.4715 -0.7255 -0.0555
    8CHTO  H112 3165   5.894   9.624   1.530  0.4239 -0.3124 -0.0330
    8CHTO   C56 3166   6.016   9.605   1.723 -0.6841 -0.6269 -0.0978
    8CHTO  H113 3167   6.122   9.607   1.749 -0.5019 -0.1897 -0.8516
    8CHTO   O42 3168   5.945   9.700   1.803  0.1097 -0.0442  0.4480
    8CHTO  H100 3169   5.853   9.691   1.788 -0.0897  1.0311  0.9509
    8CHTO   C57 3170   5.954   9.459   1.744  0.2120 -0.8623  0.4123
    8CHTO  H114 3171   5.846   9.466   1.737  0.1885 -1.7615 -0.2481
    8CHTO   N10 3172   5.984   9.402   1.876  0.4843 -0.6226  0.3335
    8CHTO  H106 3173   5.918   9.321   1.902 -0.0627 -0.1568  0.4160
    8CHTO  H107 3174   6.089   9.377   1.888  0.4944 -2.1848 -2.4913
    8CHTO   C58 3175   6.003   9.354   1.649  0.1349  0.4939  0.0177
    8CHTO  H115 3176   6.110   9.336   1.674  0.1496  1.2566  0.5074
    8CHTO   O37 3177   5.996   9.393   1.510  0.3353 -0.6067  0.1715
    8CHTO   C59 3178   6.063   9.514   1.480 -0.2033  0.7163 -0.8941
    8CHTO  H116 3179   6.165   9.497   1.515  0.1131  0.4722 -1.9347
    8CHTO   C70 3180   6.055   9.528   1.332 -0.6170  0.0891 -1.0739
    8CHTO   O46 3181   6.124   9.435   1.252 -0.2358 -0.1478 -0.1951
    8CHTO  H103 3182   6.211   9.456   1.222  0.6057 -1.8293  0.9500
    8CHTO   O39 3183   5.891   9.210   1.653 -0.4780 -0.0379 -0.1295
    8CHTO   C60 3184   5.749   9.237   1.636 -0.4817 -0.4227 -0.1418
    8CHTO  H117 3185   5.723   9.332   1.682  2.6497  1.2140 -1.6108
    8CHTO   C62 3186   5.708   9.234   1.485  0.4644 -0.7969 -0.8715
    8CHTO  H119 3187   5.764   9.318   1.438  0.6817 -1.1842 -1.3145
    8CHTO   O43 3188   5.753   9.112   1.412  0.7339 -0.5961  0.1640
    8CHTO  H101 3189   5.702   9.038   1.438 -0.1503 -0.4545 -1.0927
    8CHTO   C66 3190   5.540   9.264   1.473 -0.3114 -0.1825  0.0908
    8CHTO  H123 3191   5.520   9.364   1.509 -0.1530  0.3267 -1.2089
    8CHTO   N12 3192   5.506   9.283   1.327 -0.0332 -0.4815  0.0383
    8CHTO  H110 3193   5.557   9.372   1.293  0.1507 -0.6028 -0.0074
    8CHTO  H111 3194   5.553   9.198   1.279 -2.4468 -1.2328 -1.0720
    8CHTO   C69 3195   5.459   9.152   1.543 -0.0219  0.3677  1.1174
    8CHTO  H126 3196   5.469   9.058   1.483 -0.7044  0.9258  0.1033
    8CHTO   O41 3197   5.518   9.134   1.697  0.2292  0.4932  0.5873
    8CHTO   C64 3198   5.676   9.119   1.705  0.7763 -0.2835  0.9845
    8CHTO  H121 3199   5.706   9.021   1.663 -2.8620 -1.1238  0.1883
    8CHTO   C71 3200   5.710   9.118   1.855  0.0763 -0.0901 -0.1462
    8CHTO   O47 3201   5.692   8.987   1.917  0.1407 -0.3434 -0.6678
    8CHTO  H104 3202   5.746   8.980   1.993 -0.9920  0.3612  0.2135
    8CHTO   O34 3203   5.314   9.171   1.543 -0.4990  0.0976 -0.2395
    8CHTO   C49 3204   5.192   9.189   1.625  0.0649 -0.4350 -0.0856
    8CHTO   H91 3205   5.178   9.099   1.685 -1.4883  1.0613  1.8382
    8CHTO   C47 3206   5.067   9.219   1.536  0.3261  0.4114  0.0270
    8CHTO   H89 3207   4.985   9.239   1.608  0.3204 -1.4695  0.5674
    8CHTO   O33 3208   5.038   9.095   1.469  0.4590 -0.2016  0.0735
    8CHTO   H70 3209   4.979   9.042   1.519 -1.8510  0.7082 -1.6569
    8CHTO   C45 3210   5.100   9.346   1.442 -0.0128 -0.2597 -0.3641
    8CHTO   H87 3211   5.191   9.320   1.388 -0.0730  0.1413 -0.6572
    8CHTO    N8 3212   4.990   9.377   1.347  0.0354  0.3288  0.1579
    8CHTO   H75 3213   4.898   9.395   1.401 -0.3941 -1.9804  0.2438
    8CHTO   H76 3214   5.022   9.468   1.298  0.8932  0.7272  1.4598
    8CHTO   C43 3215   5.135   9.469   1.546  0.1387  0.3177  0.3514
    8CHTO   H85 3216   5.163   9.551   1.479  0.1934  0.5731  0.6795
    8CHTO   O29 3217   5.237   9.436   1.640  0.2463 -0.8463  0.1116
    8CHTO   C50 3218   5.219   9.315   1.717 -0.8101 -0.7826 -0.1290
    8CHTO   H92 3219   5.313   9.293   1.770 -0.8357 -3.3223 -1.0490
    8CHTO   C54 3220   5.109   9.335   1.828  0.0533  0.5046  0.6284
    8CHTO   O36 3221   5.151   9.410   1.941 -0.2375  0.6787 -0.2100
    8CHTO   H72 3222   5.199   9.374   2.013 -0.8359  0.1340 -0.0864
    8CHTO   O27 3223   5.023   9.527   1.615  0.1276  0.1238  0.1580
    8CHTO   C37 3224   4.994   9.661   1.651 -0.7344  0.7332  0.0758
    8CHTO   H79 3225   4.928   9.653   1.739 -1.4501  3.9510 -0.1168
    8CHTO   C38 3226   5.125   9.745   1.677 -0.1609  0.2781 -0.2932
    8CHTO   H80 3227   5.204   9.724   1.603  0.4204 -0.6063  0.5626
    8CHTO   O31 3228   5.177   9.702   1.804 -0.6052  0.3339  0.1552
    8CHTO   H68 3229   5.233   9.629   1.786  1.8613  1.9766  0.9813
    8CHTO   C39 3230   5.099   9.903   1.680  0.8216 -0.7245  0.2049
    8CHTO   H81 3231   5.039   9.925   1.768  1.4414  0.5543  0.3216
    8CHTO    N7 3232   5.233   9.976   1.686 -0.3226  0.4402 -0.5990
    8CHTO   H73 3233   5.284   9.953   1.778  2.0157  0.0622 -1.9559
    8CHTO   H74 3234   5.210  10.081   1.682 -0.0604  0.5820  1.1891
    8CHTO   C40 3235   4.998   9.943   1.562 -0.0491 -0.5372 -0.4130
    8CHTO   H82 3236   5.051   9.930   1.468 -0.0185  0.3360 -0.5159
    8CHTO   O26 3237   4.879   9.865   1.566 -0.3370  0.3898  0.2666
    8CHTO   C41 3238   4.911   9.723   1.538  1.1139  0.0478  0.0956
    8CHTO   H83 3239   4.962   9.703   1.443  0.2882 -0.0423 -0.3374
    8CHTO   C52 3240   4.783   9.645   1.513  0.1750  0.3892  0.2210
    8CHTO   O35 3241   4.708   9.701   1.401  0.4639 -0.4404  0.4456
    8CHTO   H71 3242   4.616   9.703   1.420  0.8029  1.8162  2.1167
    8CHTO   O28 3243   4.944  10.077   1.576 -0.0245  0.3263 -0.6040
    8CHTO   C42 3244   4.896  10.147   1.457  0.2498 -0.0929  0.8193
    8CHTO   H84 3245   4.846  10.237   1.493  1.0078  0.5611  0.2593
    8CHTO   C44 3246   4.780  10.074   1.376 -0.0867 -0.3652 -0.8096
    8CHTO   H86 3247   4.819   9.978   1.341  0.1134  0.4371 -2.8505
    8CHTO   O32 3248   4.673  10.056   1.462 -0.2337  0.4542 -0.1330
    8CHTO   H69 3249   4.635  10.133   1.502 -0.0793  0.4662 -0.0099
    8CHTO   C48 3250   4.742  10.156   1.245 -0.0845  0.6140 -0.2268
    8CHTO   H90 3251   4.699  10.251   1.277  1.2565  0.8217  0.9817
    8CHTO    N9 3252   4.649  10.082   1.161  0.0879 -0.4672  0.5328
    8CHTO   H77 3253   4.651  10.132   1.066 -2.4286 -0.5011  0.4444
    8CHTO   H78 3254   4.554  10.057   1.206 -0.6534  0.3994 -0.5287
    8CHTO   C51 3255   4.873  10.199   1.164  0.3032  0.1348 -0.4968
    8CHTO   H93 3256   4.918  10.107   1.125  1.6857  1.0843 -1.1913
    8CHTO   O30 3257   4.954  10.265   1.261  0.1141  0.2793  0.4943
    8CHTO   C46 3258   5.010  10.193   1.362  0.1131 -0.1127  0.0665
    8CHTO   H88 3259   5.074  10.112   1.327  1.3995 -0.3782  2.9591
    8CHTO   C53 3260   5.094  10.289   1.448 -0.5424  0.0619  0.3511
    8CHTO   O72 3261   5.191  10.362   1.364  0.0322 -0.5296  0.1176
    8CHTO  H199 3262   5.189  10.452   1.389  4.0783  0.4454 -2.6393
    8CHTO   O22 3263   4.842  10.290   1.063  0.0071 -0.5278 -0.4060
    8CHTO   C31 3264   4.930  10.320   0.953  0.2880  0.6347  0.6239
    8CHTO   H59 3265   4.886  10.410   0.905  1.2774 -0.0094 -1.5525
    8CHTO   C29 3266   5.079  10.353   0.981 -0.2651 -0.0292  0.0885
    8CHTO   H57 3267   5.124  10.263   1.027 -1.9097 -0.7024  0.3980
    8CHTO   O21 3268   5.082  10.459   1.082  0.2638  0.2791  0.1554
    8CHTO   H37 3269   5.169  10.464   1.117  0.6895  0.2530 -0.8928
    8CHTO   C27 3270   5.153  10.386   0.845  0.2413 -0.0822 -0.4289
    8CHTO   H55 3271   5.096  10.468   0.798  2.1622  2.3503  1.2849
    8CHTO    N5 3272   5.291  10.435   0.857 -0.5806  0.5644 -0.1784
    8CHTO   H43 3273   5.314  10.525   0.802 -0.7530  0.2198 -0.8106
    8CHTO   H44 3274   5.325  10.437   0.960 -0.1430  0.4317 -0.3179
    8CHTO   C25 3275   5.137  10.258   0.753  0.8017  1.0913 -0.2590
    8CHTO   H53 3276   5.162  10.166   0.809 -0.4176 -0.3297 -2.0019
    8CHTO   O17 3277   5.000  10.233   0.727 -0.2809 -0.1194 -0.4400
    8CHTO   C32 3278   4.917  10.203   0.844 -0.2257 -0.2270  0.2476
    8CHTO   H60 3279   4.945  10.108   0.890 -2.0354 -1.8542 -1.9135
    8CHTO   C36 3280   4.776  10.180   0.791  0.5331 -0.4175  0.3109
    8CHTO   O25 3281   4.776  10.098   0.673  0.8364 -0.1584  0.5507
    8CHTO   H40 3282   4.814  10.014   0.691  1.6021  0.2175  0.7503
    8CHTO   O15 3283   5.221  10.275   0.605  1.1446 -0.2479  0.4849
    8CHTO   C19 3284   5.225  10.225   0.473 -0.3781  0.0051  0.3404
    8CHTO   H47 3285   5.131  10.168   0.461 -0.2459 -0.0368 -0.5456
    8CHTO   C20 3286   5.232  10.326   0.358 -0.1028 -0.3249 -0.1416
    8CHTO   H48 3287   5.316  10.395   0.377 -0.4415 -0.9245  4.0060
    8CHTO   O19 3288   5.109  10.394   0.359 -0.4483  0.8140 -0.4555
    8CHTO   H35 3289   5.115  10.465   0.298 -2.8799  0.8145 -0.7482
    8CHTO   C21 3290   5.251  10.271   0.209  0.0170 -0.8871  0.2297
    8CHTO   H49 3291   5.160  10.228   0.168  0.0976  0.4775 -1.4353
    8CHTO    N4 3292   5.291  10.379   0.121 -0.1561 -0.4723  0.1547
    8CHTO   H41 3293   5.310  10.463   0.187  2.1133 -0.0645 -0.9662
    8CHTO   H42 3294   5.215  10.410   0.051  1.0466  1.0452 -0.5283
    8CHTO   C22 3295   5.361  10.159   0.222  0.3201 -0.2799 -0.4396
    8CHTO   H50 3296   5.460  10.199   0.239  0.1780 -0.5097  0.9983
    8CHTO   O14 3297   5.332  10.066   0.326  0.1044 -0.1067  0.7787
    8CHTO   C23 3298   5.339  10.119   0.460 -0.4126 -0.3602  0.3329
    8CHTO   H51 3299   5.440  10.159   0.477 -0.0431 -1.0316 -0.2416
    8CHTO   C34 3300   5.324   9.997   0.556  0.3596 -0.3378  0.3012
    8CHTO   O23 3301   5.185   9.947   0.548  0.2550 -0.1243  0.4641
    8CHTO   H38 3302   5.175   9.856   0.570 -1.2078 -0.2375 -0.5877
    8CHTO   O16 3303   5.363  10.076   0.105  0.0400  0.5735  0.3780
    8CHTO   C24 3304   5.499   9.994   0.083  0.0215  0.5499  0.1370
    8CHTO   H52 3305   5.554   9.984   0.177  0.3278 -2.7707 -0.3546
    8CHTO   C26 3306   5.598  10.065  -0.006 -0.1646  0.0132  0.1578
    8CHTO   H54 3307   5.545  10.109  -0.093 -0.3049 -0.3968  0.0319
    8CHTO   O20 3308   5.639  10.187   0.053  0.0559  0.3752  0.1814
    8CHTO   H36 3309   5.726  10.204   0.022  0.7624 -1.1005  1.3061
    8CHTO   C30 3310   5.720   9.977  -0.053  0.1278  0.0361 -0.0330
    8CHTO   H58 3311   5.781   9.955   0.035  0.5376  0.9735 -0.0697
    8CHTO    N6 3312   5.806  10.051  -0.144 -0.3791  0.3555  0.4272
    8CHTO   H45 3313   5.760  10.145  -0.171 -3.0330 -1.1419 -0.3241
    8CHTO   H46 3314   5.842  10.001  -0.232 -0.7270  0.0886  0.4372
    8CHTO   C33 3315   5.661   9.838  -0.112  0.4861  0.3527 -0.0124
    8CHTO   H61 3316   5.597   9.852  -0.200  2.1952 -1.5345 -1.5917
    8CHTO   O18 3317   5.585   9.779  -0.002 -0.3701  0.4392 -0.0985
    8CHTO   C28 3318   5.465   9.853   0.031  0.3843 -0.3792 -0.3161
    8CHTO   H56 3319   5.395   9.861  -0.052 -2.1811 -0.9112  1.7325
    8CHTO   C35 3320   5.381   9.770   0.131  1.1233 -0.0842  0.4525
    8CHTO   O24 3321   5.446   9.729   0.255  0.2458  0.3385  0.3340
    8CHTO   H39 3322   5.389   9.686   0.316  1.3596  0.3772  1.4222
    8CHTO    O9 3323   5.764   9.747  -0.157  0.2652  0.1013  0.1555
    8CHTO   C13 3324   5.721   9.614  -0.228  0.4260  1.1213 -0.1506
    8CHTO   H26 3325   5.632   9.635  -0.292 -1.9950 -3.9777  1.2445
    8CHTO   C11 3326   5.688   9.507  -0.107  0.3004  0.5979  0.1968
    8CHTO   H24 3327   5.578   9.501  -0.098  0.3655 -1.3765 -0.0958
    8CHTO    O8 3328   5.744   9.554   0.021  0.0119 -0.2009 -0.1466
    8CHTO    H3 3329   5.691   9.540   0.098  1.1745 -1.1016  0.5162
    8CHTO    C9 3330   5.732   9.363  -0.136 -0.1545  0.0626 -0.6087
    8CHTO   H22 3331   5.660   9.329  -0.212 -0.4523  2.5312 -1.4720
    8CHTO    N2 3332   5.710   9.255  -0.033 -0.3717 -0.0689 -0.3109
    8CHTO   H10 3333   5.604   9.238  -0.021 -0.5800 -0.1854 -2.1339
    8CHTO   H11 3334   5.754   9.290   0.058 -0.6729  0.4698 -0.3707
    8CHTO    C7 3335   5.880   9.367  -0.197 -0.1997 -0.4672 -0.2316
    8CHTO   H20 3336   5.869   9.307  -0.290 -1.8740  1.9428 -1.6477
    8CHTO    O4 3337   5.926   9.496  -0.236  0.7204 -0.7379  0.0838
    8CHTO   C14 3338   5.836   9.566  -0.322  0.9250  0.7643  0.1208
    8CHTO   H27 3339   5.793   9.495  -0.396  1.0746 -1.2036  1.8467
    8CHTO   C18 3340   5.893   9.687  -0.399  0.3829 -0.3041 -0.0410
    8CHTO   O13 3341   5.985   9.648  -0.499 -0.4687 -0.6637  0.0101
    8CHTO    H7 3342   6.074   9.675  -0.489 -1.0466  1.2364  0.1293
    8CHTO    O2 3343   5.997   9.310  -0.094  0.5843 -0.1839 -0.1518
    8CHTO    C1 3344   6.137   9.329  -0.121  0.1937 -0.2578 -0.4505
    8CHTO   H14 3345   6.157   9.437  -0.139 -0.9148  0.0428  0.0740
    8CHTO    C2 3346   6.186   9.248  -0.244 -0.4821 -0.9527 -0.4642
    8CHTO   H15 3347   6.148   9.146  -0.230 -0.6261 -0.8316  0.0420
    8CHTO    O6 3348   6.143   9.314  -0.365 -0.0724 -0.3210  0.5309
    8CHTO    H1 3349   6.054   9.342  -0.352  0.1758  1.4922 -1.4419
    8CHTO    C3 3350   6.350   9.240  -0.260 -0.4715  0.5007 -0.2454
    8CHTO   H16 3351   6.384   9.342  -0.283 -1.4471  1.0180  0.5566
    8CHTO    N1 3352   6.397   9.145  -0.368  0.0318 -0.4689  0.3060
    8CHTO    H8 3353   6.411   9.202  -0.459 -1.4248 -0.8587 -0.1792
    8CHTO    H9 3354   6.494   9.106  -0.342  0.3397  0.1718  0.1416
    8CHTO    C4 3355   6.414   9.212  -0.115  0.6304 -0.2133 -0.6521
    8CHTO   H17 3356   6.394   9.110  -0.083 -1.6308  0.5784  0.6119
    8CHTO    O1 3357   6.358   9.301  -0.016  0.0917 -0.8509  0.1387
    8CHTO    C5 3358   6.219   9.291   0.013 -0.4401  0.1735  0.0371
    8CHTO   H18 3359   6.191   9.190   0.041 -1.6624  0.7061  0.7580
    8CHTO   C16 3360   6.191   9.379   0.133  0.0524 -0.0346 -0.0212
    8CHTO   O11 3361   6.061   9.379   0.191  0.0481 -0.1955 -0.5640
    8CHTO    H5 3362   6.018   9.295   0.192  0.6199 -0.4743  1.2103
    8CHTO    O3 3363   6.552   9.251  -0.112  0.0325  0.1753  0.0983
    8CHTO    C6 3364   6.629   9.187  -0.012 -0.4751  0.0377 -0.3113
    8CHTO   H19 3365   6.563   9.146   0.065  2.9586  0.5229  3.0003
    8CHTO    C8 3366   6.713   9.074  -0.072  0.2067  0.4422  0.8160
    8CHTO   H21 3367   6.775   9.118  -0.150  1.1694 -0.4617  1.0666
    8CHTO    O7 3368   6.626   8.968  -0.120 -0.2508  0.5605  0.3477
    8CHTO    H2 3369   6.681   8.899  -0.154 -0.1471  2.4661 -3.7081
    8CHTO   C12 3370   6.817   9.014   0.037  0.4964  0.6524 -0.1246
    8CHTO   H25 3371   6.761   8.953   0.110  1.8498 -0.2298  0.1941
    8CHTO    N3 3372   6.918   8.915  -0.025 -0.3106 -0.2313 -0.1613
    8CHTO   H12 3373   6.963   8.947  -0.118 -0.8050 -0.9715 -0.6560
    8CHTO   H13 3374   6.892   8.811  -0.017 -1.7656  0.3382  3.5242
    8CHTO   C15 3375   6.886   9.127   0.127 -0.1206 -0.4477 -0.0950
    8CHTO   H28 3376   6.964   9.178   0.071  0.1289 -0.7757 -0.0489
    8CHTO   O10 3377   6.947   9.079   0.262  0.3587  0.6192  0.0542
    8CHTO    H4 3378   6.929   8.987   0.271 -0.4046  0.7011 -0.5336
    8CHTO    O5 3379   6.791   9.223   0.176  0.7244 -0.1338 -0.3108
    8CHTO   C10 3380   6.727   9.280   0.057  0.3188  0.5251  0.1145
    8CHTO   H23 3381   6.803   9.307  -0.017  1.4753 -1.9004  0.3488
    8CHTO   C17 3382   6.656   9.410   0.088 -0.4286 -0.4461 -0.3945
    8CHTO   O12 3383   6.558   9.403   0.192 -0.0355 -0.4854  0.0104
    8CHTO    H6 3384   6.519   9.486   0.213 -0.3947 -0.0766 -2.1881
    9CHTO  H203 3385   8.510   4.365   1.062  0.4637  0.7653 -1.8703
    9CHTO   O82 3386   8.580   4.304   1.079 -0.7859 -0.2625 -0.2289
    9CHTO  C123 3387   8.703   4.364   1.039  0.1185 -0.6071  0.0106
    9CHTO  H227 3388   8.733   4.441   1.112  0.4463  0.8366 -1.6207
    9CHTO   O77 3389   8.787   4.247   1.046  0.2402  0.7179 -0.2907
    9CHTO  C118 3390   8.922   4.284   1.010  0.3309  0.2217 -0.3882
    9CHTO  H222 3391   8.975   4.367   1.059  0.8584 -0.4710  0.2339
    9CHTO  C125 3392   9.008   4.154   1.040 -0.1364  0.1201  0.2043
    9CHTO   O84 3393   8.951   4.031   0.984  0.1118 -0.0014  0.5219
    9CHTO  H205 3394   9.020   3.993   0.933  1.6181  1.1167  1.6420
    9CHTO  C114 3395   8.926   4.310   0.859  0.0775  1.0767 -0.1102
    9CHTO  H218 3396   8.898   4.218   0.807  1.1119  1.9854 -2.3245
    9CHTO  C116 3397   8.830   4.428   0.816  0.7099  0.1711  0.1733
    9CHTO  H220 3398   8.880   4.525   0.836 -2.2413  1.6537  0.5503
    9CHTO   O79 3399   8.807   4.415   0.672  0.3722 -0.7520  0.4972
    9CHTO  H201 3400   8.772   4.491   0.630  2.0821 -0.0082  0.3849
    9CHTO  C120 3401   8.690   4.418   0.890 -0.1830  0.0811 -0.9762
    9CHTO  H224 3402   8.626   4.345   0.837  1.7339 -0.0181 -3.1889
    9CHTO   N21 3403   8.626   4.553   0.872  0.1169 -0.0709  0.0966
    9CHTO  H211 3404   8.681   4.607   0.796 -1.5236  0.9917 -0.3581
    9CHTO  H212 3405   8.621   4.604   0.967  2.5453 -0.5066  0.5125
    9CHTO   O75 3406   9.063   4.335   0.833 -0.0115 -0.5870 -0.3915
    9CHTO  C112 3407   9.099   4.311   0.676  0.6222 -0.4227  0.4970
    9CHTO  H216 3408   9.008   4.301   0.614 -1.0089 -0.4529  2.8613
    9CHTO   O73 3409   9.181   4.191   0.667  0.0931  0.2782 -0.2540
    9CHTO  C113 3410   9.207   4.141   0.536 -0.2402 -0.5272 -0.6705
    9CHTO  H217 3411   9.107   4.131   0.489 -0.4702  1.7679 -0.7248
    9CHTO  C124 3412   9.263   3.995   0.535 -0.0342  0.1286 -0.1356
    9CHTO   O83 3413   9.377   3.998   0.623  0.2537  0.3247 -0.8056
    9CHTO  H204 3414   9.407   3.910   0.628 -0.5051  0.0413 -1.0735
    9CHTO  C109 3415   9.305   4.236   0.461 -0.1557 -0.1158 -0.4394
    9CHTO  H213 3416   9.404   4.231   0.508 -0.9448 -0.2149  1.2580
    9CHTO  C110 3417   9.250   4.381   0.473 -0.6294 -0.3462 -1.1020
    9CHTO  H214 3418   9.176   4.408   0.397 -1.0502  1.2330 -0.1602
    9CHTO   O78 3419   9.349   4.476   0.428 -0.0295  0.1419  0.4941
    9CHTO  H200 3420   9.433   4.438   0.414 -0.2967 -1.1055  2.1729
    9CHTO  C111 3421   9.197   4.424   0.617 -0.2919 -0.6607  0.2995
    9CHTO  H215 3422   9.283   4.439   0.684  0.1084 -1.0262 -0.1201
    9CHTO   N19 3423   9.128   4.559   0.607  0.3069 -0.0118  0.5267
    9CHTO  H207 3424   9.022   4.553   0.587  0.4077 -0.8904  0.2350
    9CHTO  H208 3425   9.169   4.617   0.526  1.0773  1.3108  1.8270
    9CHTO   O74 3426   9.324   4.192   0.319  0.3967 -0.2030  0.1735
    9CHTO  C115 3427   9.469   4.210   0.266 -0.8627  0.3782 -0.6114
    9CHTO  H219 3428   9.533   4.272   0.329 -0.8794  0.0402 -0.2587
    9CHTO   O76 3429   9.555   4.063   0.265 -0.1678 -0.7806 -0.3239
    9CHTO  C122 3430   9.502   3.971   0.176  0.3847 -0.2788 -0.1723
    9CHTO  H226 3431   9.407   3.927   0.208 -0.6545  0.9670 -1.4934
    9CHTO  C126 3432   9.607   3.857   0.181  0.2263  0.1876  0.0687
    9CHTO   O85 3433   9.603   3.766   0.290  0.6393 -0.0834 -0.2590
    9CHTO  H206 3434   9.669   3.701   0.277  1.8692  1.2731 -1.0160
    9CHTO  C121 3435   9.479   4.022   0.028  0.2273  0.0257 -0.6069
    9CHTO  H225 3436   9.573   4.031  -0.032 -0.0013  0.2660 -0.9344
    9CHTO   O81 3437   9.407   3.920  -0.040  0.0029  0.4485 -0.2898
    9CHTO  H202 3438   9.325   3.907   0.004  0.2651  1.4724  0.5042
    9CHTO  C119 3439   9.403   4.155   0.027  0.2628 -0.3016 -0.1865
    9CHTO  H223 3440   9.406   4.197  -0.074 -0.0079  0.6588  0.2040
    9CHTO  C117 3441   9.473   4.264   0.115 -0.4710 -0.2668 -0.6008
    9CHTO  H221 3442   9.414   4.356   0.123 -0.8862 -0.4131 -1.8626
    9CHTO   N20 3443   9.619   4.304   0.075 -0.1333 -0.0319  0.4180
    9CHTO  H209 3444   9.679   4.215   0.084 -0.6165 -0.3564  0.4449
    9CHTO  H210 3445   9.620   4.349  -0.023  1.5742 -0.7027  0.1198
    9CHTO   O80 3446   9.224   4.145   0.055  0.1157 -0.9146 -0.1270
    9CHTO  C103 3447   9.127   4.255  -0.016  0.2479 -0.2946 -1.0436
    9CHTO  H190 3448   9.029   4.254   0.031  0.3853  1.8760 -0.6673
    9CHTO  C101 3449   9.163   4.407  -0.025  0.5618 -0.3366  0.2256
    9CHTO  H188 3450   9.263   4.407  -0.067  0.1403 -0.7166 -0.7920
    9CHTO   O68 3451   9.177   4.476   0.124  0.2419  0.2651  0.3391
    9CHTO  H168 3452   9.102   4.525   0.152 -0.4564 -0.6033 -0.0125
    9CHTO   C99 3453   9.069   4.482  -0.130 -0.1122 -0.2420 -0.2641
    9CHTO  H186 3454   8.972   4.502  -0.080 -0.2018  1.2372 -1.0167
    9CHTO   N17 3455   9.114   4.618  -0.160  0.4614 -0.5641 -0.1159
    9CHTO  H174 3456   9.052   4.673  -0.229  0.4010 -2.6329 -1.7676
    9CHTO  H175 3457   9.124   4.676  -0.069 -2.4990  0.1263 -0.1917
    9CHTO   C97 3458   9.031   4.398  -0.254 -0.0826  0.2048  0.3515
    9CHTO  H184 3459   9.115   4.406  -0.324  1.9217 -1.0297  2.5206
    9CHTO   O64 3460   9.001   4.261  -0.220  0.0372  0.0776  0.4123
    9CHTO  C104 3461   9.110   4.196  -0.157  0.8125  0.2103  0.2150
    9CHTO  H191 3462   9.204   4.215  -0.209  1.0885  1.9199  1.3181
    9CHTO  C108 3463   9.083   4.045  -0.171 -0.0865  0.2405 -0.2407
    9CHTO   O71 3464   9.105   3.996  -0.300 -0.3131 -0.5159  0.2026
    9CHTO  H171 3465   9.038   4.027  -0.359  0.3364 -0.5900 -0.5847
    9CHTO   O62 3466   8.911   4.458  -0.300  0.0649 -0.3239  0.5773
    9CHTO   C91 3467   8.869   4.411  -0.423  0.2979 -0.0706  0.8181
    9CHTO  H178 3468   8.929   4.330  -0.464  1.1330  0.3008  1.3125
    9CHTO   C92 3469   8.891   4.518  -0.529 -0.2766 -0.1798  0.6155
    9CHTO  H179 3470   8.996   4.550  -0.520 -0.1140 -0.4170 -0.4260
    9CHTO   O66 3471   8.869   4.451  -0.655  0.0890 -0.0112  0.1135
    9CHTO  H166 3472   8.852   4.508  -0.727  0.8575  0.7367  0.5226
    9CHTO   C93 3473   8.780   4.634  -0.521 -0.2492  0.8464  0.4280
    9CHTO  H180 3474   8.770   4.670  -0.624  0.8168 -0.6455 -0.2143
    9CHTO   N16 3475   8.830   4.745  -0.435  0.4951  0.5382  0.0396
    9CHTO  H172 3476   8.819   4.718  -0.331 -2.6633  1.8436  0.0892
    9CHTO  H173 3477   8.771   4.830  -0.466 -2.2086 -1.2689  0.0931
    9CHTO   C94 3478   8.641   4.571  -0.481  0.6797 -0.0560  0.0173
    9CHTO  H181 3479   8.619   4.577  -0.375 -2.6826 -1.7781 -0.5029
    9CHTO   O61 3480   8.638   4.432  -0.500 -0.3738  0.5073 -0.3614
    9CHTO   C95 3481   8.725   4.358  -0.416 -0.4677 -0.2691 -0.2896
    9CHTO  H182 3482   8.686   4.354  -0.314  0.1160  1.9835  0.0575
    9CHTO  C106 3483   8.698   4.216  -0.468  0.3461 -0.3873 -0.0025
    9CHTO   O69 3484   8.763   4.119  -0.390  0.2734 -0.3999  0.0421
    9CHTO  H169 3485   8.735   4.031  -0.407 -1.5550  0.3910 -1.3037
    9CHTO   O63 3486   8.535   4.637  -0.553  0.3464  0.8780 -0.1535
    9CHTO   C96 3487   8.382   4.595  -0.495 -0.9661  0.7294  0.2562
    9CHTO  H183 3488   8.390   4.544  -0.399  0.2016  0.3780 -0.0288
    9CHTO   C98 3489   8.286   4.511  -0.592 -0.2400  0.3660  0.3231
    9CHTO  H185 3490   8.301   4.543  -0.696  1.2326 -0.1389  0.3706
    9CHTO   O67 3491   8.334   4.381  -0.592  0.0033  0.1143 -0.5928
    9CHTO  H167 3492   8.408   4.374  -0.649  0.3066 -1.3191 -0.0392
    9CHTO  C102 3493   8.132   4.521  -0.555  0.0377 -0.5941  0.2662
    9CHTO  H189 3494   8.114   4.465  -0.462 -0.1242 -0.5979  0.2333
    9CHTO   N18 3495   8.042   4.460  -0.657  0.1488  0.2545 -0.1616
    9CHTO  H176 3496   8.026   4.528  -0.739  1.1928  0.6480 -0.0487
    9CHTO  H177 3497   7.952   4.429  -0.607  1.3632  0.4671  2.2399
    9CHTO  C105 3498   8.095   4.675  -0.525  0.0790  0.3654 -0.6052
    9CHTO  H192 3499   8.107   4.736  -0.615 -1.1239  0.7276 -0.5342
    9CHTO   O65 3500   8.178   4.711  -0.416 -0.3285 -0.7407  0.2449
    9CHTO  C100 3501   8.316   4.733  -0.456  0.2769  0.3283  0.7280
    9CHTO  H187 3502   8.324   4.797  -0.545 -0.6284 -0.7256 -0.1318
    9CHTO  C107 3503   8.390   4.797  -0.332  0.0803 -0.2333  0.1315
    9CHTO   O70 3504   8.406   4.722  -0.212 -0.0855 -0.1483  0.0880
    9CHTO  H170 3505   8.497   4.712  -0.191  0.1218 -0.2540 -0.8262
    9CHTO   O57 3506   7.926   4.678  -0.474  0.1515  0.5451 -0.4924
    9CHTO   C85 3507   7.842   4.793  -0.510 -0.0177  0.0201 -0.0229
    9CHTO  H157 3508   7.855   4.794  -0.620  2.7100 -1.2850  0.2519
    9CHTO   C83 3509   7.896   4.932  -0.461 -0.2012  0.4738 -0.6458
    9CHTO  H155 3510   7.992   4.946  -0.512  1.0343 -4.1441  0.1980
    9CHTO   O56 3511   7.904   4.904  -0.317 -0.2339 -0.2484  0.1763
    9CHTO  H135 3512   7.964   4.949  -0.260  1.8733 -0.9395 -1.4044
    9CHTO   C81 3513   7.798   5.045  -0.496  0.5074  0.4922 -0.8713
    9CHTO  H153 3514   7.777   5.042  -0.603  2.0216 -0.5172 -1.1547
    9CHTO   N14 3515   7.846   5.185  -0.481 -0.1412 -0.4698 -0.4018
    9CHTO  H141 3516   7.845   5.215  -0.379  1.8244 -3.2742  0.4967
    9CHTO  H142 3517   7.942   5.203  -0.524 -0.2057  1.2726  0.1510
    9CHTO   C79 3518   7.666   5.020  -0.415  0.3658  0.2186  0.0461
    9CHTO  H151 3519   7.594   5.097  -0.444  0.0097  0.5159  1.6266
    9CHTO   O52 3520   7.607   4.890  -0.457  0.2373 -0.0111 -0.4060
    9CHTO   C86 3521   7.692   4.767  -0.464  0.1179  0.1748 -0.5643
    9CHTO  H158 3522   7.684   4.714  -0.366 -0.6394  0.8826 -0.2437
    9CHTO   C90 3523   7.624   4.666  -0.559  0.4456  0.1305  0.5864
    9CHTO   O60 3524   7.479   4.665  -0.542 -0.7768  0.0037  0.5592
    9CHTO  H138 3525   7.442   4.609  -0.607 -2.1583  2.1489 -0.5382
    9CHTO   O50 3526   7.678   5.036  -0.269  0.6562  0.3691 -0.1502
    9CHTO   C73 3527   7.642   5.091  -0.143 -0.0406  0.3885 -0.7258
    9CHTO  H145 3528   7.532   5.089  -0.142 -0.0536 -3.3989  0.3519
    9CHTO   C74 3529   7.676   5.238  -0.122  0.1056 -0.3220 -0.1338
    9CHTO  H146 3530   7.635   5.289  -0.210 -2.3644 -1.2381  0.4565
    9CHTO   O54 3531   7.612   5.288  -0.007  0.3669  0.4838 -0.4587
    9CHTO  H133 3532   7.587   5.377  -0.023 -1.8375 -0.0678 -0.1862
    9CHTO   C75 3533   7.835   5.242  -0.118 -0.1013  0.0088 -0.4230
    9CHTO  H147 3534   7.873   5.214  -0.217 -1.7401 -1.7985 -0.5739
    9CHTO   N13 3535   7.884   5.382  -0.099 -0.7681 -0.1506  0.0466
    9CHTO  H139 3536   7.989   5.370  -0.080 -0.4253  2.2192 -0.1018
    9CHTO  H140 3537   7.864   5.446  -0.184  1.7798  0.0415 -0.4323
    9CHTO   C76 3538   7.899   5.140  -0.016  0.2854 -0.7573 -0.3819
    9CHTO  H148 3539   7.888   5.181   0.084 -3.4351 -0.5933 -0.8108
    9CHTO   O49 3540   7.833   5.009  -0.017  0.4111  0.3734 -0.6676
    9CHTO   C77 3541   7.695   5.008  -0.025 -0.2670 -0.1417  0.7512
    9CHTO  H149 3542   7.641   5.043   0.064 -1.3487 -0.5901  0.2848
    9CHTO   C88 3543   7.657   4.863  -0.030  0.3999 -0.1462 -0.2354
    9CHTO   O58 3544   7.695   4.783   0.103 -0.1533  0.3613 -0.1315
    9CHTO  H136 3545   7.786   4.761   0.109  0.0723  1.4193  0.5561
    9CHTO   O51 3546   8.047   5.114  -0.049  0.2407 -0.0844  0.0420
    9CHTO   C78 3547   8.130   5.081   0.072 -0.2494 -0.1142  0.0756
    9CHTO  H150 3548   8.074   5.067   0.167 -2.9535  1.5469 -1.2153
    9CHTO   C80 3549   8.234   5.194   0.099 -0.0767  0.4323  0.4446
    9CHTO  H152 3550   8.286   5.219   0.004 -1.4411 -0.5006 -0.5518
    9CHTO   O55 3551   8.147   5.304   0.133 -0.6902  0.3289 -0.2926
    9CHTO  H134 3552   8.134   5.359   0.058  1.9623  1.5923  0.1268
    9CHTO   C84 3553   8.320   5.168   0.215  0.0713 -0.5535  0.2808
    9CHTO  H156 3554   8.259   5.124   0.293 -1.3113 -2.5003 -1.8568
    9CHTO   N15 3555   8.413   5.288   0.255 -0.0762 -0.5903 -0.0275
    9CHTO  H143 3556   8.477   5.314   0.173 -0.3225 -1.0960 -0.3832
    9CHTO  H144 3557   8.476   5.255   0.335  0.5028  0.1334 -0.1714
    9CHTO   C87 3558   8.412   5.051   0.174  0.2573 -0.1420 -0.7502
    9CHTO  H159 3559   8.470   5.075   0.085  1.7201  1.8146  0.6628
    9CHTO   O53 3560   8.314   4.931   0.156 -0.0819 -0.3552  0.3993
    9CHTO   C82 3561   8.217   4.957   0.050  0.8634 -0.2611  0.5301
    9CHTO  H154 3562   8.269   4.970  -0.045 -0.6699  3.0757  0.0801
    9CHTO   C89 3563   8.131   4.838   0.033  0.6597  0.2073 -0.2367
    9CHTO   O59 3564   8.035   4.816   0.145  1.0050  0.2859  0.2792
    9CHTO  H137 3565   8.078   4.813   0.229  0.8884  1.6463  0.3997
    9CHTO   O45 3566   8.510   5.001   0.284 -0.0644  0.7087  0.0970
    9CHTO   C67 3567   8.592   4.887   0.246  0.4744  0.1276  0.1027
    9CHTO  H124 3568   8.528   4.808   0.205 -0.5907 -1.5210  4.6242
    9CHTO   C65 3569   8.716   4.927   0.149  0.6956  0.0204 -0.6325
    9CHTO  H122 3570   8.734   5.035   0.152 -0.1500  0.1396  0.0972
    9CHTO   O44 3571   8.668   4.893   0.020  0.0421  0.6110  0.3664
    9CHTO  H102 3572   8.585   4.935   0.005  0.3655  1.8135  1.8010
    9CHTO   C63 3573   8.855   4.859   0.184  0.8159 -0.1999 -0.1298
    9CHTO  H120 3574   8.894   4.914   0.270  0.5748  1.0324 -0.7962
    9CHTO   N11 3575   8.964   4.879   0.084  0.3425  0.2540  0.3963
    9CHTO  H108 3576   8.958   4.808   0.004  1.7523  0.0067  0.4914
    9CHTO  H109 3577   8.964   4.983   0.060  0.5744 -0.0995 -1.2277
    9CHTO   C61 3578   8.838   4.712   0.233  0.2626  0.0024 -0.1389
    9CHTO  H118 3579   8.938   4.691   0.275  0.7580  0.1018 -1.2609
    9CHTO   O40 3580   8.742   4.711   0.350 -0.0254  0.6355  0.6184
    9CHTO   C68 3581   8.660   4.825   0.374 -0.4914 -0.0356 -0.2845
    9CHTO  H125 3582   8.726   4.897   0.427 -1.4140  0.4268  0.2584
    9CHTO   C72 3583   8.554   4.776   0.471  0.1374  0.7021 -0.9082
    9CHTO   O48 3584   8.596   4.734   0.601  0.9327  0.0625  0.7269
    9CHTO  H105 3585   8.643   4.653   0.599  0.8174  0.0118 -0.1002
    9CHTO   O38 3586   8.813   4.620   0.126  0.2168 -0.4620  0.3087
    9CHTO   C55 3587   8.755   4.495   0.152  0.5584 -0.3291 -0.3236
    9CHTO  H112 3588   8.663   4.525   0.205  1.8715  2.9737  0.2186
    9CHTO   C56 3589   8.833   4.390   0.241  0.7095  0.5806  0.3616
    9CHTO  H113 3590   8.917   4.351   0.182  0.6414 -0.9312  1.2470
    9CHTO   O42 3591   8.884   4.441   0.365  0.1180 -0.5495  0.2764
    9CHTO  H100 3592   8.941   4.375   0.400  0.5421 -0.4895 -0.2868
    9CHTO   C57 3593   8.727   4.277   0.269  0.0707  0.1346  0.2055
    9CHTO  H114 3594   8.646   4.317   0.331  0.9340  2.0179  0.1439
    9CHTO   N10 3595   8.777   4.164   0.351  0.3370  0.1499  0.0607
    9CHTO  H106 3596   8.699   4.118   0.409 -0.0125 -0.3601 -0.8101
    9CHTO  H107 3597   8.813   4.089   0.282 -1.2121  1.0933 -1.8181
    9CHTO   C58 3598   8.666   4.219   0.136  0.1323  0.3141  0.4149
    9CHTO  H115 3599   8.733   4.141   0.094 -1.3791  0.4902 -2.4426
    9CHTO   O37 3600   8.645   4.324   0.035 -0.6184 -0.0800  0.3797
    9CHTO   C59 3601   8.726   4.436   0.014  0.1057 -0.1874 -0.2770
    9CHTO  H116 3602   8.820   4.410  -0.035  0.9963 -0.1189  1.3571
    9CHTO   C70 3603   8.646   4.520  -0.079  0.3445  0.1919  0.5555
    9CHTO   O46 3604   8.710   4.629  -0.142  0.5071  0.6888 -0.2785
    9CHTO  H103 3605   8.788   4.594  -0.182  0.5336  1.6194 -1.0611
    9CHTO   O39 3606   8.515   4.153   0.173 -0.1826  0.4503 -0.2528
    9CHTO   C60 3607   8.492   4.013   0.144  0.6609 -0.0593  0.5706
    9CHTO  H117 3608   8.584   3.954   0.134  0.8826  0.6207 -1.5719
    9CHTO   C62 3609   8.398   3.954   0.256  0.0334  0.2397 -0.5741
    9CHTO  H119 3610   8.450   3.945   0.354 -3.1073  0.2448  1.1746
    9CHTO   O43 3611   8.294   4.049   0.296 -0.7379 -0.3453  0.6033
    9CHTO  H101 3612   8.242   4.062   0.219 -1.8567 -0.0858  1.3901
    9CHTO   C66 3613   8.343   3.812   0.223  0.3929 -0.6817  0.0386
    9CHTO  H123 3614   8.425   3.740   0.219  1.5663  0.5467  1.5673
    9CHTO   N12 3615   8.248   3.752   0.322  0.0520  0.7543 -0.0929
    9CHTO  H110 3616   8.235   3.648   0.293  0.0516  0.6035  0.4493
    9CHTO  H111 3617   8.151   3.799   0.320 -0.2627  0.1395  0.4727
    9CHTO   C69 3618   8.274   3.805   0.084  0.1521  0.6665 -0.2501
    9CHTO  H126 3619   8.180   3.863   0.092 -0.2198 -0.2061  1.8784
    9CHTO   O41 3620   8.366   3.859  -0.024 -0.0140  0.3207  0.2530
    9CHTO   C64 3621   8.417   4.001   0.009 -0.5138 -0.8704  0.5386
    9CHTO  H121 3622   8.328   4.068   0.015  0.6517  0.6559  1.2090
    9CHTO   C71 3623   8.515   4.044  -0.104  0.4204  0.1472 -0.0697
    9CHTO   O47 3624   8.631   3.970  -0.123  0.0820  0.4414 -0.7095
    9CHTO  H104 3625   8.687   3.974  -0.049 -1.5607 -1.4296  0.6835
    9CHTO   O34 3626   8.222   3.643   0.030 -0.1785 -0.4582  0.2273
    9CHTO   C49 3627   8.334   3.570  -0.082 -0.3045 -0.2586 -0.3875
    9CHTO   H91 3628   8.309   3.622  -0.175  1.3267 -0.0175 -0.7039
    9CHTO   C47 3629   8.315   3.418  -0.110  0.3416  0.4404  0.1764
    9CHTO   H89 3630   8.380   3.399  -0.197  1.9263 -1.6117  1.7504
    9CHTO   O33 3631   8.183   3.393  -0.157  0.3221  0.3212 -0.1337
    9CHTO   H70 3632   8.161   3.436  -0.237 -1.8552 -0.2197  0.1267
    9CHTO   C45 3633   8.338   3.327   0.029  0.0823  0.0931  0.0731
    9CHTO   H87 3634   8.237   3.300   0.064 -0.3567  0.9582 -0.5397
    9CHTO    N8 3635   8.403   3.198  -0.016 -0.1675 -0.6760  0.3921
    9CHTO   H75 3636   8.338   3.126  -0.063 -0.2254 -1.5859  1.8324
    9CHTO   H76 3637   8.456   3.153   0.067 -1.6353 -3.5488 -0.1704
    9CHTO   C43 3638   8.426   3.416   0.128  0.4438 -0.4507  0.0170
    9CHTO   H85 3639   8.360   3.489   0.173  2.2534  0.9731  0.4059
    9CHTO   O29 3640   8.529   3.480   0.048  0.2270 -0.7730 -0.4883
    9CHTO   C50 3641   8.478   3.582  -0.038  0.4106 -0.4294  0.6649
    9CHTO   H92 3642   8.502   3.670   0.024  4.5714 -0.1976 -1.0814
    9CHTO   C54 3643   8.586   3.596  -0.150  0.0867 -0.7070  0.0847
    9CHTO   O36 3644   8.552   3.695  -0.250 -1.0275  0.4843  0.4678
    9CHTO   H72 3645   8.534   3.774  -0.201  0.5193  0.8321  0.4892
    9CHTO   O27 3646   8.486   3.350   0.241 -0.7574  0.4700 -0.1117
    9CHTO   C37 3647   8.557   3.386   0.362 -0.3258  0.4012  0.2447
    9CHTO   H79 3648   8.604   3.294   0.399 -2.2959 -1.9274 -2.7883
    9CHTO   C38 3649   8.664   3.499   0.333  0.9863 -0.0514 -0.0718
    9CHTO   H80 3650   8.628   3.570   0.257  1.2500  1.4698  1.2022
    9CHTO   O31 3651   8.784   3.438   0.271  0.4197 -0.3753 -0.2268
    9CHTO   H68 3652   8.808   3.476   0.189  2.3253  2.0195  1.3819
    9CHTO   C39 3653   8.702   3.584   0.455  0.0119 -0.4485 -0.4565
    9CHTO   H81 3654   8.763   3.517   0.516  0.5715  0.8688  0.4392
    9CHTO    N7 3655   8.772   3.712   0.422  0.2200  0.4988 -0.7335
    9CHTO   H73 3656   8.793   3.743   0.523  0.6834 -3.4800  0.4645
    9CHTO   H74 3657   8.855   3.699   0.353  0.9733 -1.3897  0.4934
    9CHTO   C40 3658   8.573   3.617   0.532 -0.4552 -0.5793 -0.9043
    9CHTO   H82 3659   8.508   3.686   0.479 -0.9999  0.0241  0.5220
    9CHTO   O26 3660   8.509   3.496   0.566 -0.1706  0.7352 -0.0392
    9CHTO   C41 3661   8.441   3.426   0.451  0.4202  0.2672  0.0975
    9CHTO   H83 3662   8.379   3.504   0.405  1.0859 -0.0402 -1.3390
    9CHTO   C52 3663   8.351   3.305   0.502  1.1533  0.5539 -0.1204
    9CHTO   O35 3664   8.289   3.254   0.411 -0.5030  0.1734 -0.4371
    9CHTO   H71 3665   8.204   3.227   0.440 -0.3631  1.5758  1.3465
    9CHTO   O28 3666   8.598   3.671   0.665  0.0823  0.0523 -0.9211
    9CHTO   C42 3667   8.507   3.750   0.739  0.3330 -0.4716 -0.5572
    9CHTO   H84 3668   8.549   3.751   0.840  0.1045 -0.2318 -0.4648
    9CHTO   C44 3669   8.361   3.698   0.757 -0.2195 -0.4007  0.2007
    9CHTO   H86 3670   8.323   3.671   0.659 -0.0381 -1.8335  0.5117
    9CHTO   O32 3671   8.369   3.578   0.835 -0.7539 -0.3741  0.4105
    9CHTO   H69 3672   8.441   3.521   0.819  0.9873  1.7682  0.3722
    9CHTO   C48 3673   8.256   3.806   0.819  0.1386 -0.1186  0.4373
    9CHTO   H90 3674   8.266   3.807   0.928  0.4115 -3.1470  0.5011
    9CHTO    N9 3675   8.117   3.764   0.808  0.3145  0.4910 -0.2631
    9CHTO   H77 3676   8.042   3.807   0.872  1.0316  0.7430  0.3992
    9CHTO   H78 3677   8.083   3.746   0.707  1.0422  0.3372 -0.4831
    9CHTO   C51 3678   8.278   3.944   0.748 -0.1455 -0.1052  0.0952
    9CHTO   H93 3679   8.267   3.917   0.643  1.0425 -0.6599  0.1006
    9CHTO   O30 3680   8.411   3.981   0.781  0.7939  0.0176 -0.1363
    9CHTO   C46 3681   8.511   3.898   0.691 -0.2039  0.5980  1.0194
    9CHTO   H88 3682   8.488   3.896   0.585 -0.4214  0.8328  1.0628
    9CHTO   C53 3683   8.648   3.957   0.714 -0.3965  0.2778 -0.2721
    9CHTO   O72 3684   8.684   4.065   0.628  0.1878  0.4412 -0.5853
    9CHTO  H199 3685   8.763   4.033   0.588  0.9705 -0.6499  1.7490
    9CHTO   O22 3686   8.186   4.052   0.776  0.9430 -0.1349  0.5298
    9CHTO   C31 3687   8.178   4.165   0.695 -0.9041 -0.5590 -0.6066
    9CHTO   H59 3688   8.104   4.229   0.746  1.5801  0.5271  1.7481
    9CHTO   C29 3689   8.309   4.250   0.687  0.3907 -0.2042 -0.5621
    9CHTO   H57 3690   8.394   4.185   0.660  1.0536  1.3059 -2.1694
    9CHTO   O21 3691   8.334   4.285   0.824  0.1762 -0.2296 -0.6355
    9CHTO   H37 3692   8.411   4.337   0.838 -1.1853  1.1336  2.5391
    9CHTO   C27 3693   8.306   4.375   0.584  0.4243 -0.7586 -0.0439
    9CHTO   H55 3694   8.250   4.457   0.630 -0.0530 -0.0917 -1.8097
    9CHTO    N5 3695   8.442   4.423   0.556 -0.0339 -0.1509 -0.4947
    9CHTO   H43 3696   8.522   4.351   0.559  1.0090  1.0632  1.7003
    9CHTO   H44 3697   8.457   4.503   0.627  2.2418 -0.3364 -0.7542
    9CHTO   C25 3698   8.237   4.328   0.453  0.8486  0.2847 -0.5347
    9CHTO   H53 3699   8.309   4.266   0.399  0.2828 -0.5422 -0.3503
    9CHTO   O17 3700   8.110   4.262   0.480  0.3657  0.1244 -0.1619
    9CHTO   C32 3701   8.120   4.141   0.557  0.6216 -0.3082 -0.0733
    9CHTO   H60 3702   8.179   4.065   0.508  1.9654  0.3098  0.5527
    9CHTO   C36 3703   7.973   4.083   0.565 -0.3915  0.1606  0.2098
    9CHTO   O25 3704   7.944   4.024   0.438 -0.4727  0.4049  0.4407
    9CHTO   H40 3705   7.888   4.075   0.382  0.3261 -0.7339 -1.4253
    9CHTO   O15 3706   8.207   4.440   0.351 -0.8419  0.9072 -0.0942
    9CHTO   C19 3707   8.167   4.476   0.214 -0.4779  0.6073  0.0741
    9CHTO   H47 3708   8.174   4.585   0.210 -0.8686  0.6885  1.5143
    9CHTO   C20 3709   8.261   4.413   0.104  1.0151  0.3979 -0.3801
    9CHTO   H48 3710   8.274   4.305   0.120  1.0170  0.6584  1.4970
    9CHTO   O19 3711   8.399   4.455   0.135  0.6855  0.4482  0.6501
    9CHTO   H35 3712   8.415   4.452   0.227  1.9504 -1.0418  0.3909
    9CHTO   C21 3713   8.210   4.449  -0.044  0.1481 -0.1703 -0.8143
    9CHTO   H49 3714   8.230   4.556  -0.058  1.3021 -0.4492 -1.4004
    9CHTO    N4 3715   8.294   4.384  -0.144  0.3574 -0.1085 -0.6727
    9CHTO   H41 3716   8.399   4.408  -0.137  0.4233 -0.4426 -0.4785
    9CHTO   H42 3717   8.293   4.277  -0.130  0.3908 -0.0465 -0.1943
    9CHTO   C22 3718   8.061   4.403  -0.050  0.3546  0.7117  0.6789
    9CHTO   H50 3719   8.054   4.296  -0.031 -2.5248  0.8848  0.8113
    9CHTO   O14 3720   7.986   4.473   0.046  0.0759 -0.1330 -0.0455
    9CHTO   C23 3721   8.020   4.439   0.179  0.5894 -0.3385  0.0147
    9CHTO   H51 3722   7.999   4.334   0.202  0.0440 -0.4369 -0.9138
    9CHTO   C34 3723   7.937   4.506   0.290  0.0019  0.5815 -0.2325
    9CHTO   O23 3724   7.800   4.484   0.245  0.3276 -0.5003 -0.3173
    9CHTO   H38 3725   7.746   4.493   0.321 -0.4830  0.5240 -0.9989
    9CHTO   O16 3726   7.995   4.436  -0.178 -0.0953  0.0112 -0.6854
    9CHTO   C24 3727   7.873   4.325  -0.221  0.3214 -0.4504 -0.1314
    9CHTO   H52 3728   7.850   4.254  -0.142 -1.5892  1.2367  0.9073
    9CHTO   C26 3729   7.902   4.243  -0.351 -0.3276 -0.0483  1.0476
    9CHTO   H54 3730   7.931   4.321  -0.425 -1.1170  0.0404  0.8243
    9CHTO   O20 3731   8.006   4.156  -0.324  0.3436 -0.3095 -0.6228
    9CHTO   H36 3732   8.032   4.109  -0.401 -0.9727 -2.4065  0.1578
    9CHTO   C30 3733   7.782   4.165  -0.407  1.2657  0.2650 -0.6543
    9CHTO   H58 3734   7.753   4.078  -0.347  0.0887 -0.4623 -2.2274
    9CHTO    N6 3735   7.816   4.091  -0.535 -0.1491 -0.3676 -0.0025
    9CHTO   H45 3736   7.737   4.029  -0.574 -2.5055  1.5928  1.5272
    9CHTO   H46 3737   7.910   4.038  -0.536 -0.0502 -0.1928 -0.1958
    9CHTO   C33 3738   7.650   4.253  -0.407 -0.0699  0.2542  0.2135
    9CHTO   H61 3739   7.654   4.334  -0.481 -0.7322  1.5765  1.5813
    9CHTO   O18 3740   7.642   4.315  -0.279 -0.0234  0.1045  0.1529
    9CHTO   C28 3741   7.743   4.405  -0.240 -1.2582  0.5043 -0.2232
    9CHTO   H56 3742   7.756   4.473  -0.324  0.5225 -0.1141 -0.4741
    9CHTO   C35 3743   7.695   4.461  -0.109 -1.3877 -0.1398  0.5041
    9CHTO   O24 3744   7.569   4.525  -0.123  0.1922  0.2516  0.2686
    9CHTO   H39 3745   7.516   4.506  -0.048 -0.3164 -2.4491 -0.7304
    9CHTO    O9 3746   7.526   4.181  -0.438 -0.2024  0.2085 -0.3365
    9CHTO   C13 3747   7.389   4.278  -0.492  0.4125  0.5345 -0.5853
    9CHTO   H26 3748   7.435   4.339  -0.572  2.4927 -0.3131 -0.0837
    9CHTO   C11 3749   7.327   4.357  -0.376  0.9547  0.3803 -0.3283
    9CHTO   H24 3750   7.392   4.439  -0.340  1.4825 -0.4891  0.7103
    9CHTO    O8 3751   7.307   4.268  -0.262 -0.7339  0.1196  0.5883
    9CHTO    H3 3752   7.392   4.233  -0.242  0.0038  1.0711 -0.8344
    9CHTO    C9 3753   7.199   4.426  -0.428 -0.8135 -0.0733  0.2710
    9CHTO   H22 3754   7.234   4.478  -0.518 -1.0276  1.5416  1.0823
    9CHTO    N2 3755   7.152   4.535  -0.334  0.4914 -0.0385 -0.1026
    9CHTO   H10 3756   7.056   4.574  -0.363  0.0646 -0.6132  0.5439
    9CHTO   H11 3757   7.156   4.510  -0.229 -0.3470 -0.1258 -0.0920
    9CHTO    C7 3758   7.091   4.319  -0.465 -0.4006  0.4160 -0.2426
    9CHTO   H20 3759   7.003   4.375  -0.502 -1.4606  0.7214  2.5501
    9CHTO    O4 3760   7.143   4.237  -0.568  0.1789  0.5889  0.1382
    9CHTO   C14 3761   7.278   4.180  -0.568 -0.2760 -0.3904  0.7935
    9CHTO   H27 3762   7.311   4.170  -0.674 -0.3490  0.4130  0.6917
    9CHTO   C18 3763   7.273   4.036  -0.514  0.1547  0.4567 -0.8361
    9CHTO   O13 3764   7.225   3.941  -0.614 -0.4356 -0.2459 -0.2838
    9CHTO    H7 3765   7.184   3.996  -0.678 -1.5009  1.4320  1.7978
    9CHTO    O2 3766   7.060   4.219  -0.338 -0.3011 -0.2911  0.4388
    9CHTO    C1 3767   6.928   4.185  -0.305  0.2775  0.4190 -0.9366
    9CHTO   H14 3768   6.928   4.102  -0.231  1.0066  1.3138  0.0908
    9CHTO    C2 3769   6.830   4.143  -0.425 -0.2043  0.3575 -0.0931
    9CHTO   H15 3770   6.835   4.229  -0.495  2.1577 -0.3007 -0.7647
    9CHTO    O6 3771   6.879   4.015  -0.476  0.8775 -0.3784  0.0784
    9CHTO    H1 3772   6.865   3.954  -0.406 -2.0730 -1.6552 -1.5353
    9CHTO    C3 3773   6.676   4.123  -0.377  0.5076 -0.8467 -0.0987
    9CHTO   H16 3774   6.669   4.033  -0.315 -0.4328  0.5374  1.8716
    9CHTO    N1 3775   6.580   4.108  -0.500 -0.4208 -0.7885 -0.2510
    9CHTO    H8 3776   6.629   4.145  -0.589 -1.2480 -0.7347 -0.6820
    9CHTO    H9 3777   6.491   4.168  -0.489  0.5844  1.1084 -2.0035
    9CHTO    C4 3778   6.637   4.241  -0.279  0.6848  0.1331  0.7196
    9CHTO   H17 3779   6.623   4.327  -0.345  2.3136 -0.4115 -0.3506
    9CHTO    O1 3780   6.740   4.267  -0.178  0.5148 -0.2118  0.0716
    9CHTO    C5 3781   6.869   4.300  -0.226 -0.2322  0.9154  0.1309
    9CHTO   H18 3782   6.860   4.385  -0.294 -1.0820  0.3900 -0.4260
    9CHTO   C16 3783   6.943   4.335  -0.101  0.2360 -0.2701  0.0017
    9CHTO   O11 3784   6.905   4.462  -0.047  0.1865 -0.6271 -0.1519
    9CHTO    H5 3785   6.814   4.447  -0.030  0.2773 -1.4164 -0.3435
    9CHTO    O3 3786   6.516   4.211  -0.198 -0.3126 -0.0024  0.1231
    9CHTO    C6 3787   6.404   4.310  -0.201 -0.2105 -0.5586  0.4596
    9CHTO   H19 3788   6.425   4.388  -0.274 -1.4680  0.8063  1.5272
    9CHTO    C8 3789   6.263   4.239  -0.237 -0.7941 -0.4134 -0.3333
    9CHTO   H21 3790   6.258   4.144  -0.185  0.7606 -0.0856  0.4270
    9CHTO    O7 3791   6.263   4.227  -0.382 -0.0215  0.5674 -0.5296
    9CHTO    H2 3792   6.174   4.229  -0.411 -0.1767 -2.2806 -0.4697
    9CHTO   C12 3793   6.136   4.335  -0.204 -0.0489 -0.2909 -0.3291
    9CHTO   H25 3794   6.139   4.419  -0.278 -0.8425 -0.0099 -0.0433
    9CHTO    N3 3795   5.996   4.279  -0.219 -0.3805  0.2220  0.3296
    9CHTO   H12 3796   5.927   4.361  -0.212 -0.8664  0.0538 -2.1976
    9CHTO   H13 3797   5.976   4.209  -0.139 -0.2273 -0.0167  0.1592
    9CHTO   C15 3798   6.145   4.408  -0.065 -0.3950  0.0244 -0.2715
    9CHTO   H28 3799   6.133   4.348   0.025 -0.4100  1.1634  0.5029
    9CHTO   O10 3800   6.037   4.534  -0.034 -0.8044 -0.2973 -0.8118
    9CHTO    H4 3801   6.076   4.591   0.030 -0.7961  0.3440 -1.3872
    9CHTO    O5 3802   6.275   4.470  -0.067  0.1078 -0.1985 -0.2602
    9CHTO   C10 3803   6.387   4.371  -0.068 -0.3800 -0.0133 -0.0675
    9CHTO   H23 3804   6.369   4.289   0.001 -1.9434 -0.2018 -0.6882
    9CHTO   C17 3805   6.508   4.456  -0.033 -0.1162 -0.1802  0.9824
    9CHTO   O12 3806   6.523   4.573  -0.113 -0.0433  0.5220 -0.1500
    9CHTO    H6 3807   6.450   4.632  -0.110  0.0434  0.5896  0.7035
   10CHTO  H203 3808   5.745   6.470   2.264  0.4976  0.0413 -1.0111
   10CHTO   O82 3809   5.729   6.563   2.263  0.3558  0.0279 -0.2369
   10CHTO  C123 3810   5.592   6.602   2.232  0.3227 -0.2726  0.1354
   10CHTO  H227 3811   5.573   6.576   2.127 -0.2378  1.0734 -0.0951
   10CHTO   O77 3812   5.504   6.510   2.299 -0.2068  0.4158  0.2417
   10CHTO  C118 3813   5.366   6.542   2.277 -0.6012  0.2585 -0.5468
   10CHTO  H222 3814   5.346   6.525   2.170  3.0225 -0.7531 -1.1089
   10CHTO  C125 3815   5.284   6.442   2.357  0.2594  0.4754 -0.3845
   10CHTO   O84 3816   5.303   6.456   2.505  0.3478 -0.2611  0.3754
   10CHTO  H205 3817   5.261   6.384   2.548  1.0981 -1.6962 -1.2309
   10CHTO  C114 3818   5.326   6.687   2.315  0.7215  0.5919 -0.0416
   10CHTO  H218 3819   5.359   6.698   2.418  3.0260 -0.7142 -0.6182
   10CHTO  C116 3820   5.418   6.787   2.236  0.4814  0.7542 -0.3671
   10CHTO  H220 3821   5.400   6.772   2.128 -0.8315  1.0058 -0.1811
   10CHTO   O79 3822   5.380   6.916   2.274  0.1563  0.0662  0.1991
   10CHTO  H201 3823   5.305   6.952   2.231  0.9254  0.1174 -1.1249
   10CHTO  C120 3824   5.568   6.757   2.274 -0.4628 -0.1847 -0.9408
   10CHTO  H224 3825   5.568   6.769   2.385  0.8385 -0.9077 -0.8505
   10CHTO   N21 3826   5.671   6.844   2.209 -0.3238 -0.1362 -0.1643
   10CHTO  H211 3827   5.696   6.931   2.269  0.0620 -0.9071  0.8166
   10CHTO  H212 3828   5.640   6.867   2.108 -1.1342  2.1006  0.5572
   10CHTO   O75 3829   5.180   6.705   2.299 -0.3702 -0.1336 -0.2774
   10CHTO  C112 3830   5.108   6.765   2.441  0.0992 -0.1845 -1.1010
   10CHTO  H216 3831   5.177   6.826   2.501  0.5656  1.0615 -2.8578
   10CHTO   O73 3832   5.055   6.655   2.517 -0.0548 -0.4220  0.6638
   10CHTO  C113 3833   5.011   6.692   2.648  0.0704  0.6997  0.2707
   10CHTO  H217 3834   5.088   6.738   2.715  1.5442 -0.3691 -0.6822
   10CHTO  C124 3835   4.969   6.564   2.720 -0.4460 -0.0226  0.1177
   10CHTO   O83 3836   5.074   6.481   2.754 -0.1051  0.1199  0.0357
   10CHTO  H204 3837   5.080   6.408   2.694 -0.8072 -0.0279  0.1389
   10CHTO  C109 3838   4.900   6.794   2.638  0.3007 -0.1499  1.1987
   10CHTO  H213 3839   4.815   6.742   2.591  0.1215  0.3322  0.9870
   10CHTO  C110 3840   4.931   6.917   2.552  0.2429 -0.3187  0.5000
   10CHTO  H214 3841   4.996   6.983   2.611 -0.8438 -0.6873  2.1275
   10CHTO   O78 3842   4.809   6.992   2.529 -0.0201 -0.7845 -0.4161
   10CHTO  H200 3843   4.809   7.077   2.568 -1.4243 -2.7303  4.0289
   10CHTO  C111 3844   4.994   6.873   2.416 -0.0097  1.3241 -0.2086
   10CHTO  H215 3845   4.919   6.822   2.353 -1.1017  0.0081  2.0918
   10CHTO   N19 3846   5.047   6.987   2.336  0.5189  0.2958  0.0537
   10CHTO  H207 3847   5.112   7.043   2.402  1.9545 -1.5300  0.2561
   10CHTO  H208 3848   5.099   6.959   2.245  0.6487  3.1548 -0.7913
   10CHTO   O74 3849   4.855   6.833   2.775 -0.4104  0.1388 -0.2806
   10CHTO  C115 3850   4.708   6.818   2.789 -0.2713 -0.1313 -0.2386
   10CHTO  H219 3851   4.656   6.856   2.701  0.1401  1.0187 -0.0013
   10CHTO   O76 3852   4.667   6.668   2.816 -0.1885 -0.1637  1.0398
   10CHTO  C122 3853   4.705   6.613   2.940  0.0656  0.1637 -0.2130
   10CHTO  H226 3854   4.811   6.616   2.966 -0.4383 -2.2242  2.4220
   10CHTO  C126 3855   4.673   6.454   2.925 -0.8405 -0.7924 -0.0316
   10CHTO   O85 3856   4.695   6.370   3.039 -0.1686  0.0267 -0.5664
   10CHTO  H206 3857   4.650   6.406   3.113 -0.0049  1.7986 -1.2849
   10CHTO  C121 3858   4.637   6.687   3.054 -0.8854 -0.5951 -0.3380
   10CHTO  H225 3859   4.561   6.625   3.106 -0.6971 -0.1407  0.4886
   10CHTO   O81 3860   4.730   6.712   3.156  0.3830  0.4671  0.2065
   10CHTO  H202 3861   4.728   6.656   3.231  0.1593 -1.2097 -1.0483
   10CHTO  C119 3862   4.572   6.825   3.010  0.2021 -0.0451 -0.5847
   10CHTO  H223 3863   4.480   6.796   2.959  0.6901  1.1504 -2.1815
   10CHTO  C117 3864   4.672   6.908   2.916 -0.0405  0.3252  0.1142
   10CHTO  H221 3865   4.765   6.940   2.962  0.9635 -1.3191 -0.6947
   10CHTO   N20 3866   4.616   7.037   2.874 -1.2412  0.2583 -0.0568
   10CHTO  H209 3867   4.687   7.116   2.896  0.2104 -0.5558 -1.6349
   10CHTO  H210 3868   4.523   7.055   2.925 -1.6906 -0.6357 -0.5380
   10CHTO   O80 3869   4.505   6.906   3.152  0.2494 -0.2015  0.0642
   10CHTO  C103 3870   4.352   6.904   3.169 -0.2173 -0.9220  0.5146
   10CHTO  H190 3871   4.328   6.964   3.256  2.8242  0.0839  0.6973
   10CHTO  C101 3872   4.268   6.933   3.046  0.2023 -0.1484  0.7882
   10CHTO  H188 3873   4.289   6.851   2.977 -4.1034 -1.9689  1.4764
   10CHTO   O68 3874   4.322   7.073   2.985 -0.1796  0.6563 -0.3960
   10CHTO  H168 3875   4.271   7.106   2.913 -3.0331 -3.2067 -0.3150
   10CHTO   C99 3876   4.111   6.924   3.090 -0.3999  0.3933 -0.1142
   10CHTO  H186 3877   4.094   6.979   3.185  1.3840  0.8025 -0.0193
   10CHTO   N17 3878   4.022   6.974   2.985  0.1587  0.1764  0.4717
   10CHTO  H174 3879   4.078   7.025   2.909  0.3463 -0.6731  0.0421
   10CHTO  H175 3880   3.952   7.038   3.037 -0.2920  0.3126 -0.2957
   10CHTO   C97 3881   4.091   6.774   3.122  0.4198 -0.3445  0.1748
   10CHTO  H184 3882   4.129   6.718   3.036 -0.2411  0.1244 -0.4290
   10CHTO   O64 3883   4.166   6.746   3.239 -0.5893 -0.3807 -0.1192
   10CHTO  C104 3884   4.309   6.755   3.212  0.1075 -0.2088 -0.0898
   10CHTO  H191 3885   4.331   6.685   3.132 -0.4136 -1.7087  1.0479
   10CHTO  C108 3886   4.395   6.718   3.335 -0.0509  0.2128  0.8139
   10CHTO   O71 3887   4.351   6.601   3.406  0.0991  0.3018  0.1658
   10CHTO  H171 3888   4.320   6.613   3.493 -1.9668 -1.3326 -0.3129
   10CHTO   O62 3889   3.964   6.718   3.159  0.0084 -0.7668  0.6917
   10CHTO   C91 3890   3.957   6.572   3.128  0.0504 -0.2114 -0.4660
   10CHTO  H178 3891   3.994   6.566   3.025 -0.9985  2.8954 -1.0728
   10CHTO   C92 3892   3.806   6.529   3.131  0.4272 -0.3564 -0.2516
   10CHTO  H179 3893   3.738   6.592   3.072  0.7495  0.6335  0.4196
   10CHTO   O66 3894   3.791   6.408   3.057 -0.3812  0.6611 -0.2368
   10CHTO  H166 3895   3.807   6.417   2.965  0.7621  1.5819  0.0361
   10CHTO   C93 3896   3.748   6.517   3.275 -0.1215 -0.0939 -0.2899
   10CHTO  H180 3897   3.663   6.450   3.256 -1.1050  1.1884 -0.5259
   10CHTO   N16 3898   3.680   6.630   3.337 -0.2511  0.3263  0.2524
   10CHTO  H172 3899   3.613   6.595   3.414  0.2173  0.1298  0.5794
   10CHTO  H173 3900   3.636   6.691   3.260 -2.7638 -0.4848  1.0210
   10CHTO   C94 3901   3.845   6.445   3.376  0.3470 -0.3000  0.1279
   10CHTO  H181 3902   3.886   6.515   3.449  0.3642 -0.4989  0.3084
   10CHTO   O61 3903   3.952   6.385   3.303 -0.1830 -0.1014 -0.5218
   10CHTO   C95 3904   4.035   6.478   3.226  0.1234 -0.1606 -0.3904
   10CHTO  H182 3905   4.092   6.538   3.296 -1.6500 -0.3671  1.2898
   10CHTO  C106 3906   4.127   6.394   3.125  0.2644 -0.0559  0.5025
   10CHTO   O69 3907   4.249   6.354   3.180 -0.3769 -0.5375 -0.6993
   10CHTO  H169 3908   4.268   6.267   3.150 -0.3680 -0.6805 -0.2835
   10CHTO   O63 3909   3.761   6.324   3.455 -0.2391  0.4247  0.0002
   10CHTO   C96 3910   3.835   6.265   3.594  0.1628 -0.3360  0.4158
   10CHTO  H183 3911   3.937   6.303   3.598 -0.8457  2.2872  2.5638
   10CHTO   C98 3912   3.852   6.105   3.601 -0.4637  0.3459 -0.4670
   10CHTO  H185 3913   3.759   6.053   3.576 -0.3752  0.0644 -0.2015
   10CHTO   O67 3914   3.940   6.070   3.499 -0.9475  0.4961  0.2978
   10CHTO  H167 3915   3.887   6.032   3.431 -1.9799  0.1682  1.2610
   10CHTO  C102 3916   3.915   6.047   3.737  0.3973  0.0450 -1.3695
   10CHTO  H189 3917   4.022   6.070   3.727  0.6701 -0.5642 -0.0627
   10CHTO   N18 3918   3.899   5.898   3.745 -0.2349 -0.0250 -0.0671
   10CHTO  H176 3919   3.823   5.857   3.811  1.3752 -2.1673  0.5070
   10CHTO  H177 3920   3.993   5.847   3.732  0.3971  1.7329 -2.5490
   10CHTO  C105 3921   3.860   6.132   3.858 -0.3155 -0.0820  0.5291
   10CHTO  H192 3922   3.764   6.092   3.888 -1.3964  0.7580 -1.7114
   10CHTO   O65 3923   3.830   6.274   3.834 -0.5930 -0.3001 -0.3801
   10CHTO  C100 3924   3.754   6.311   3.722 -0.0522 -0.0287  0.1462
   10CHTO  H187 3925   3.662   6.251   3.725  0.5077 -0.8560  0.8745
   10CHTO  C107 3926   3.727   6.454   3.731  0.0493  0.3085 -0.2541
   10CHTO   O70 3927   3.662   6.492   3.855 -0.5437 -0.2586  0.8485
   10CHTO  H170 3928   3.630   6.580   3.852  1.2723  0.3654 -1.4670
   10CHTO   O57 3929   3.990   6.116   3.975 -0.3783 -0.6535  0.4583
   10CHTO   C85 3930   3.950   6.091   4.105  0.6968 -0.1468 -0.1325
   10CHTO  H157 3931   3.878   6.008   4.093 -0.0155  0.4893 -0.3243
   10CHTO   C83 3932   3.878   6.210   4.166 -0.9382  0.6942 -0.9991
   10CHTO  H155 3933   3.785   6.226   4.113 -1.7025  1.7349  0.6070
   10CHTO   O56 3934   3.960   6.328   4.138  0.1556  0.8481  0.1262
   10CHTO  H135 3935   3.945   6.347   4.047  1.5087 -1.9282 -0.7459
   10CHTO   C81 3936   3.841   6.186   4.315  0.0634  0.2731  0.3219
   10CHTO  H153 3937   3.777   6.098   4.319  1.9973 -1.2623 -1.3713
   10CHTO   N14 3938   3.767   6.299   4.374  0.4661  0.0910 -0.1514
   10CHTO  H141 3939   3.719   6.374   4.315  2.2779 -0.3445 -2.2463
   10CHTO  H142 3940   3.839   6.354   4.431 -0.2394  0.6568  0.2112
   10CHTO   C79 3941   3.965   6.148   4.401  0.2724 -0.9525  0.0831
   10CHTO  H151 3942   3.926   6.109   4.495  0.2094 -0.1698  0.3854
   10CHTO   O52 3943   4.023   6.031   4.336 -0.1117  0.1111 -0.2543
   10CHTO   C86 3944   4.067   6.056   4.199 -0.1115 -0.1965  0.3816
   10CHTO  H158 3945   4.134   6.144   4.202  0.9475 -0.9476 -0.6921
   10CHTO   C90 3946   4.153   5.943   4.140  0.4247  0.2323  0.2418
   10CHTO   O60 3947   4.262   5.926   4.232 -0.1205  0.1723 -0.2386
   10CHTO  H138 3948   4.278   5.835   4.248 -0.4935  0.6106  2.8526
   10CHTO   O50 3949   4.071   6.242   4.437 -0.7317  0.0169  0.4732
   10CHTO   C73 3950   4.134   6.222   4.565  1.2991  0.4091 -0.7523
   10CHTO  H145 3951   4.153   6.115   4.581 -1.9077 -0.3130 -1.4071
   10CHTO   C74 3952   4.040   6.279   4.684  0.8986 -0.2161 -0.1276
   10CHTO  H146 3953   3.935   6.249   4.684  0.4701  1.2269  0.2005
   10CHTO   O54 3954   4.096   6.230   4.812 -0.2542  0.1861 -0.1927
   10CHTO  H133 3955   4.025   6.218   4.872 -0.2445  1.8633  0.2063
   10CHTO   C75 3956   4.048   6.435   4.682  0.8665  1.3464 -0.1308
   10CHTO  H147 3957   3.996   6.473   4.593 -3.1202  0.1340  1.5650
   10CHTO   N13 3958   3.971   6.503   4.791 -0.9291  0.3980  0.0760
   10CHTO  H139 3959   3.913   6.435   4.853  0.5916  1.9517  3.3529
   10CHTO  H140 3960   4.032   6.557   4.862  0.1163 -1.2619  0.4871
   10CHTO   C76 3961   4.199   6.483   4.683  0.5484 -0.3475  0.0824
   10CHTO  H148 3962   4.239   6.447   4.778 -0.2153  1.0908  0.9633
   10CHTO   O49 3963   4.278   6.434   4.573 -0.0129 -0.6066  0.2235
   10CHTO   C77 3964   4.272   6.295   4.568  0.8917  0.0873 -0.1612
   10CHTO  H149 3965   4.331   6.253   4.650  1.1343 -0.1137 -0.4352
   10CHTO   C88 3966   4.354   6.259   4.441  0.3831  0.3639 -0.1287
   10CHTO   O58 3967   4.369   6.118   4.417 -0.0551 -0.1989 -0.2209
   10CHTO  H136 3968   4.405   6.110   4.331 -0.6700  1.3235 -0.6411
   10CHTO   O51 3969   4.211   6.643   4.665  0.1961  0.0062 -0.2091
   10CHTO   C78 3970   4.361   6.710   4.696 -0.2332  0.0455  0.7982
   10CHTO  H150 3971   4.425   6.675   4.612  0.0617 -2.0867  1.8967
   10CHTO   C80 3972   4.425   6.668   4.828  0.6795  0.2498 -0.0341
   10CHTO  H152 3973   4.350   6.687   4.908  0.2301  0.4801 -0.5025
   10CHTO   O55 3974   4.457   6.527   4.825  0.6471  0.0593  0.0053
   10CHTO  H134 3975   4.519   6.511   4.893 -0.7359  0.5549  1.4244
   10CHTO   C84 3976   4.552   6.760   4.862 -0.0209 -0.0394 -0.2278
   10CHTO  H156 3977   4.631   6.739   4.790  0.3527  2.7791 -0.7172
   10CHTO   N15 3978   4.610   6.735   5.002  0.1717 -0.4256  0.2854
   10CHTO  H143 3979   4.710   6.772   5.003 -0.2041  0.6973 -1.3078
   10CHTO  H144 3980   4.551   6.784   5.077 -2.9268 -0.2006 -2.1679
   10CHTO   C87 3981   4.509   6.911   4.843 -0.8084  0.0548 -0.7408
   10CHTO  H159 3982   4.431   6.952   4.907  0.6598  1.8865 -0.0922
   10CHTO   O53 3983   4.475   6.920   4.708  0.1055 -0.2234  0.2164
   10CHTO   C82 3984   4.347   6.863   4.678  0.7534  0.0574 -0.4133
   10CHTO  H154 3985   4.274   6.899   4.751  2.4852  0.9320  0.9485
   10CHTO   C89 3986   4.295   6.897   4.535 -0.8713  0.0083 -0.4540
   10CHTO   O59 3987   4.263   7.033   4.528 -0.2225 -0.2662  0.3956
   10CHTO  H137 3988   4.180   7.049   4.569  0.5695 -0.0007  1.9183
   10CHTO   O45 3989   4.636   7.002   4.858  0.1394 -0.1457  0.1771
   10CHTO   C67 3990   4.628   7.139   4.826  0.4330  0.2797 -0.6814
   10CHTO  H124 3991   4.564   7.155   4.739  1.3290 -3.0347 -1.9924
   10CHTO   C65 3992   4.574   7.219   4.950  0.6964  0.7266  0.0314
   10CHTO  H122 3993   4.584   7.142   5.027  0.8931 -0.7616 -1.4505
   10CHTO   O44 3994   4.431   7.222   4.932  0.2391  0.1943  0.1546
   10CHTO  H102 3995   4.376   7.208   5.006 -0.3503 -0.5246 -0.4082
   10CHTO   C63 3996   4.657   7.349   4.985 -0.6587  0.1939 -0.0446
   10CHTO  H120 3997   4.754   7.327   5.028 -0.9020 -0.6185  0.0959
   10CHTO   N11 3998   4.601   7.439   5.089  0.0490 -0.2985  0.3482
   10CHTO  H108 3999   4.552   7.519   5.037  0.0867 -0.7184 -0.3343
   10CHTO  H109 4000   4.674   7.464   5.164 -0.1711  1.0177  0.1422
   10CHTO   C61 4001   4.701   7.425   4.858  0.5639  0.6199 -0.5575
   10CHTO  H118 4002   4.778   7.496   4.894 -0.5217  1.2904  0.4696
   10CHTO   O40 4003   4.760   7.333   4.757 -0.5969 -0.0304 -0.0330
   10CHTO   C68 4004   4.774   7.187   4.788  0.1345 -1.3547  0.2185
   10CHTO  H125 4005   4.853   7.170   4.864 -1.8684  2.3088  3.2747
   10CHTO   C72 4006   4.824   7.128   4.655 -0.3461 -0.1750 -0.9048
   10CHTO   O48 4007   4.823   6.984   4.652  0.3864 -0.1086 -0.0579
   10CHTO  H105 4008   4.851   6.963   4.565 -0.2242 -1.9784  0.1728
   10CHTO   O38 4009   4.600   7.489   4.784  0.4816 -0.0655  0.4219
   10CHTO   C55 4010   4.631   7.595   4.693 -0.1869  0.0803  0.5647
   10CHTO  H112 4011   4.544   7.612   4.629  0.7874 -0.4889 -0.9304
   10CHTO   C56 4012   4.763   7.584   4.601 -0.1629  0.7069 -0.0975
   10CHTO  H113 4013   4.843   7.555   4.671 -0.9856 -0.4422  0.3828
   10CHTO   O42 4014   4.768   7.482   4.501  0.3587 -1.0423 -0.3958
   10CHTO  H100 4015   4.704   7.491   4.434 -0.8085 -0.7107  0.7381
   10CHTO   C57 4016   4.812   7.727   4.541  0.5831  0.1162  0.0331
   10CHTO  H114 4017   4.761   7.727   4.444 -1.4319  2.2895  1.0436
   10CHTO   N10 4018   4.958   7.730   4.515  0.3667 -0.2065 -0.1036
   10CHTO  H106 4019   4.994   7.631   4.490  0.7170 -0.6268  2.0031
   10CHTO  H107 4020   4.981   7.800   4.435  1.5418 -0.6501 -0.1660
   10CHTO   C58 4021   4.773   7.851   4.626  0.2377 -0.3053 -0.5516
   10CHTO  H115 4022   4.848   7.861   4.708  1.7897  0.1680 -1.9857
   10CHTO   O37 4023   4.641   7.840   4.684  0.4589  0.3598  0.4518
   10CHTO   C59 4024   4.632   7.723   4.777  0.4720 -0.8220  0.3968
   10CHTO  H116 4025   4.713   7.729   4.849  0.5303 -0.2862  0.2945
   10CHTO   C70 4026   4.507   7.750   4.858 -0.2551 -0.7093  0.1713
   10CHTO   O46 4027   4.379   7.740   4.796  0.4315 -0.4396 -0.4558
   10CHTO  H103 4028   4.348   7.651   4.803 -1.8370  0.4630  1.7576
   10CHTO   O39 4029   4.765   7.969   4.548 -0.2240 -0.6486 -0.0793
   10CHTO   C60 4030   4.812   8.096   4.603  0.2554  0.4242 -0.2785
   10CHTO  H117 4031   4.799   8.103   4.711 -1.0662  1.5485 -0.4955
   10CHTO   C62 4032   4.962   8.117   4.586  0.3174  0.1800 -1.1974
   10CHTO  H119 4033   5.006   8.038   4.651  1.6509  1.2847 -0.7176
   10CHTO   O43 4034   4.995   8.099   4.446 -0.5481 -0.6711 -0.4844
   10CHTO  H101 4035   5.083   8.112   4.418 -0.7960  0.3394 -0.7867
   10CHTO   C66 4036   5.002   8.265   4.647  0.7863 -0.0755  0.2119
   10CHTO  H123 4037   4.974   8.268   4.752  2.1221 -1.9847  0.6350
   10CHTO   N12 4038   5.142   8.292   4.645  0.2465  0.6424 -0.0571
   10CHTO  H110 4039   5.199   8.203   4.622  0.4687  0.9534 -0.7323
   10CHTO  H111 4040   5.174   8.364   4.719 -0.7523  1.1229 -0.0892
   10CHTO   C69 4041   4.923   8.377   4.571 -0.6673 -0.2854 -0.1473
   10CHTO  H126 4042   4.943   8.373   4.462 -3.2607  1.0081 -0.7238
   10CHTO   O41 4043   4.773   8.347   4.583 -0.1252  0.0021  0.0726
   10CHTO   C64 4044   4.733   8.215   4.542  0.6814  0.5654  0.7195
   10CHTO  H121 4045   4.747   8.199   4.433  3.7471  2.2408  0.8218
   10CHTO   C71 4046   4.589   8.212   4.572  0.6389 -0.2099 -0.5415
   10CHTO   O47 4047   4.507   8.314   4.519 -0.5546  0.3407  0.7126
   10CHTO  H104 4048   4.423   8.323   4.559 -1.4047  2.7300 -1.5043
   10CHTO   O34 4049   4.944   8.530   4.609 -0.6642  0.5378  0.8634
   10CHTO   C49 4050   4.990   8.673   4.588 -0.3002 -0.3570 -0.2788
   10CHTO   H91 4051   5.090   8.660   4.547  0.3009  0.4605  0.8885
   10CHTO   C47 4052   4.988   8.752   4.720 -0.2694 -0.3802 -0.3545
   10CHTO   H89 4053   5.032   8.851   4.697  3.6413 -1.9565 -0.0199
   10CHTO   O33 4054   5.068   8.689   4.817 -0.0178  0.1411  0.6517
   10CHTO   H70 4055   5.129   8.749   4.858  1.7752 -1.0231 -0.2480
   10CHTO   C45 4056   4.832   8.775   4.764  0.2920  0.4607  0.5179
   10CHTO   H87 4057   4.770   8.684   4.756 -0.5153  0.8271  2.3719
   10CHTO    N8 4058   4.818   8.819   4.904 -0.0330 -0.6134 -0.3163
   10CHTO   H75 4059   4.714   8.808   4.930 -0.0334  0.2677  0.0923
   10CHTO   H76 4060   4.840   8.925   4.898 -0.7641 -0.4946 -1.1007
   10CHTO   C43 4061   4.754   8.858   4.654  0.5811 -0.3077 -0.3606
   10CHTO   H85 4062   4.652   8.857   4.692  0.1593  0.8125 -1.4259
   10CHTO   O29 4063   4.765   8.791   4.522 -0.5500  0.0470  0.4864
   10CHTO   C50 4064   4.903   8.742   4.481  0.4819 -0.2938 -0.2047
   10CHTO   H92 4065   4.886   8.669   4.400  0.4307 -1.1631  0.5769
   10CHTO   C54 4066   4.986   8.859   4.404 -0.1205 -0.2758  0.1434
   10CHTO   O36 4067   4.906   8.917   4.290 -0.3084  0.1098  0.2451
   10CHTO   H72 4068   4.920   9.009   4.279 -0.1279  0.1312  0.6252
   10CHTO   O27 4069   4.806   8.995   4.656 -0.0638  0.3423 -0.1393
   10CHTO   C37 4070   4.833   9.122   4.597  0.3775 -0.1179  0.1420
   10CHTO   H79 4071   4.926   9.127   4.538  1.0368  0.2051  1.2057
   10CHTO   C38 4072   4.716   9.168   4.501 -0.1716  0.1566 -0.8625
   10CHTO   H80 4073   4.621   9.161   4.556 -0.5924  0.3755 -1.5632
   10CHTO   O31 4074   4.713   9.073   4.396 -0.5159  0.2243 -0.0266
   10CHTO   H68 4075   4.668   9.118   4.327  1.1013  0.4751 -0.9595
   10CHTO   C39 4076   4.739   9.324   4.458 -0.4243  0.2658 -0.0106
   10CHTO   H81 4077   4.835   9.327   4.405 -0.6763 -0.4659 -0.5062
   10CHTO    N7 4078   4.637   9.362   4.359 -0.5095 -0.5908  0.0791
   10CHTO   H73 4079   4.677   9.416   4.275  1.4416 -1.1095  0.6248
   10CHTO   H74 4080   4.551   9.410   4.403  0.0153  0.5651 -0.1489
   10CHTO   C40 4081   4.749   9.415   4.584 -0.0581 -0.3581  0.0088
   10CHTO   H82 4082   4.649   9.419   4.627 -0.8652 -2.6089 -1.5953
   10CHTO   O26 4083   4.848   9.370   4.679  0.1548  0.7165  0.3122
   10CHTO   C41 4084   4.850   9.224   4.710  0.2915 -0.6069  0.3654
   10CHTO   H83 4085   4.766   9.207   4.780 -1.0864  1.9888 -0.6165
   10CHTO   C52 4086   4.973   9.190   4.799  0.5129  0.2292 -0.2119
   10CHTO   O35 4087   4.984   9.249   4.924 -0.2622 -0.4991 -0.5413
   10CHTO   H71 4088   5.032   9.329   4.921  0.5304 -0.9865 -0.8516
   10CHTO   O28 4089   4.800   9.546   4.548 -0.4634  0.2926  0.9397
   10CHTO   C42 4090   4.740   9.668   4.596 -0.2221  0.8525  0.6634
   10CHTO   H84 4091   4.699   9.642   4.693  1.1234 -1.3937  0.6456
   10CHTO   C44 4092   4.621   9.720   4.509 -0.7362 -0.3580 -0.1956
   10CHTO   H86 4093   4.660   9.721   4.408  1.8131  1.3101  0.7279
   10CHTO   O32 4094   4.507   9.632   4.509 -0.4592 -0.5330  0.1496
   10CHTO   H69 4095   4.450   9.670   4.445  0.3265  0.2148 -0.1124
   10CHTO   C48 4096   4.579   9.875   4.544 -0.8401  0.3497  0.2510
   10CHTO   H90 4097   4.520   9.874   4.636  0.6676  0.5784  1.2565
   10CHTO    N9 4098   4.500   9.935   4.436 -0.8376  0.0918  0.3960
   10CHTO   H77 4099   4.519  10.041   4.429  0.2196  0.1209  3.0710
   10CHTO   H78 4100   4.400   9.913   4.469 -1.2294  0.3682 -0.5877
   10CHTO   C51 4101   4.710   9.960   4.567 -0.5382  0.0566  0.0602
   10CHTO   H93 4102   4.769   9.972   4.476  0.6525  0.0337  0.8148
   10CHTO   O30 4103   4.787   9.890   4.669 -0.1435  0.2217 -0.3673
   10CHTO   C46 4104   4.850   9.771   4.617 -0.4200  0.0872  0.0531
   10CHTO   H88 4105   4.906   9.798   4.527 -0.7302 -2.2631 -0.8616
   10CHTO   C53 4106   4.952   9.722   4.721 -0.3939  0.1910  0.3993
   10CHTO   O72 4107   5.047   9.830   4.746  0.4700  0.6562  0.1535
   10CHTO  H199 4108   5.127   9.802   4.786  1.0078  0.4740 -1.0098
   10CHTO   O22 4109   4.680  10.089   4.633 -0.5896  0.3448  0.3510
   10CHTO   C31 4110   4.772  10.205   4.637 -0.0971  0.1293  1.0737
   10CHTO   H59 4111   4.734  10.285   4.703  0.0636  1.0065  0.1270
   10CHTO   C29 4112   4.911  10.171   4.696 -0.5975 -0.9697 -0.0018
   10CHTO   H57 4113   4.953  10.100   4.624  1.8588  0.2608  0.1806
   10CHTO   O21 4114   4.882  10.112   4.827  0.6141  0.9379 -0.1215
   10CHTO   H37 4115   4.901  10.174   4.895  0.3603  1.6349 -0.6816
   10CHTO   C27 4116   5.010  10.294   4.697 -0.2842 -0.0080  1.2758
   10CHTO   H55 4117   4.965  10.368   4.765 -3.1757 -1.6618  1.2265
   10CHTO    N5 4118   5.144  10.263   4.747 -0.2608  0.1183 -0.5941
   10CHTO   H43 4119   5.206  10.200   4.685  1.5610  0.4526  0.8169
   10CHTO   H44 4120   5.192  10.358   4.766  1.6658 -0.9501  0.0360
   10CHTO   C25 4121   5.015  10.354   4.556 -0.3699 -0.0961  0.6258
   10CHTO   H53 4122   5.059  10.281   4.486  0.8132 -2.3838  3.6015
   10CHTO   O17 4123   4.884  10.387   4.507  0.2238 -0.1321  0.3397
   10CHTO   C32 4124   4.792  10.275   4.501 -0.1296 -0.6116  0.4882
   10CHTO   H60 4125   4.822  10.200   4.427  0.3868 -1.3350  1.4134
   10CHTO   C36 4126   4.655  10.326   4.450 -0.1768  0.3810 -0.3257
   10CHTO   O25 4127   4.607  10.444   4.520  0.3698  0.4328 -0.2309
   10CHTO   H40 4128   4.513  10.439   4.528  0.3694 -4.2534 -1.7322
   10CHTO   O15 4129   5.120  10.496   4.560 -1.6186 -0.4538 -0.3834
   10CHTO   C19 4130   5.130  10.580   4.447  0.4580 -0.0879 -0.0624
   10CHTO   H47 4131   5.069  10.531   4.371  0.2424 -0.5920  0.4351
   10CHTO   C20 4132   5.074  10.731   4.456 -0.0253  0.6787 -0.2502
   10CHTO   H48 4133   5.119  10.786   4.540  1.0615  0.4241 -0.6581
   10CHTO   O19 4134   4.939  10.701   4.487  0.8003  0.5587  0.1226
   10CHTO   H35 4135   4.895  10.782   4.504  0.6837  0.1468  1.9269
   10CHTO   C21 4136   5.082  10.825   4.332 -0.2041 -0.2198 -0.4386
   10CHTO   H49 4137   5.026  10.779   4.250  2.0932 -0.4296 -1.9380
   10CHTO    N4 4138   5.034  10.964   4.355 -0.0967  0.3219  0.0443
   10CHTO   H41 4139   5.093  11.011   4.433 -0.7718  1.4133 -0.0848
   10CHTO   H42 4140   4.931  10.961   4.390 -0.1840 -0.6953 -0.2875
   10CHTO   C22 4141   5.233  10.818   4.286  0.4102 -1.2267  0.1046
   10CHTO   H50 4142   5.291  10.866   4.366 -0.4062  0.7197 -0.4480
   10CHTO   O14 4143   5.273  10.685   4.272  0.0774  0.5699 -0.0266
   10CHTO   C23 4144   5.270  10.597   4.388  0.2510  1.2154  0.0359
   10CHTO   H51 4145   5.341  10.644   4.458 -0.2660  2.0695  0.0030
   10CHTO   C34 4146   5.324  10.455   4.350  0.7323 -0.3785 -0.1943
   10CHTO   O23 4147   5.458  10.455   4.298 -0.3789  0.5711  0.0750
   10CHTO   H38 4148   5.517  10.473   4.369  1.5736  1.4452 -1.7542
   10CHTO   O16 4149   5.249  10.883   4.161 -0.1443 -0.4257 -0.7477
   10CHTO   C24 4150   5.388  10.926   4.125 -0.2348  0.3535 -0.0734
   10CHTO   H52 4151   5.460  10.919   4.206 -0.3816 -0.2547  0.0104
   10CHTO   C26 4152   5.384  11.074   4.092  0.5217  0.4135 -0.3680
   10CHTO   H54 4153   5.311  11.089   4.009 -0.9249  0.5022  0.8974
   10CHTO   O20 4154   5.333  11.146   4.209 -0.7322  0.3755 -0.1540
   10CHTO   H36 4155   5.369  11.232   4.218 -1.0282  0.5920 -1.0047
   10CHTO   C30 4156   5.523  11.129   4.042  0.0521 -0.0104 -0.0159
   10CHTO   H58 4157   5.582  11.124   4.135 -1.8542 -0.2292  1.2106
   10CHTO    N6 4158   5.526  11.274   4.004 -0.0726  0.1887  0.3519
   10CHTO   H45 4159   5.517  11.289   3.897  0.4218 -0.7317  0.1783
   10CHTO   H46 4160   5.619  11.322   4.033 -0.3439  2.5098 -2.2843
   10CHTO   C33 4161   5.591  11.028   3.946  0.2095  0.1889  0.0777
   10CHTO   H61 4162   5.547  11.036   3.845 -1.6467  1.0301  0.9187
   10CHTO   O18 4163   5.579  10.889   3.986 -0.1799  0.1015 -0.3153
   10CHTO   C28 4164   5.445  10.847   4.004  0.2486 -0.2362  0.4208
   10CHTO   H56 4165   5.387  10.868   3.914 -2.2298 -0.2547  1.9781
   10CHTO   C35 4166   5.456  10.701   4.027  0.2265 -0.2132 -0.4333
   10CHTO   O24 4167   5.328  10.636   4.001 -0.4084 -0.1643 -0.2814
   10CHTO   H39 4168   5.301  10.644   3.912  2.7653 -0.5029 -1.3523
   10CHTO    O9 4169   5.734  11.064   3.933 -0.0082 -0.7280  0.4594
   10CHTO   C13 4170   5.785  11.063   3.783 -0.6623 -1.2503  0.8418
   10CHTO   H26 4171   5.722  11.129   3.721  2.1702 -1.4583 -2.4194
   10CHTO   C11 4172   5.780  10.917   3.730 -0.4035  0.1746  0.4937
   10CHTO   H24 4173   5.677  10.881   3.716 -0.0810 -1.0048  1.1358
   10CHTO    O8 4174   5.841  10.830   3.831  0.0404 -0.0334  0.4123
   10CHTO    H3 4175   5.770  10.824   3.891  0.5575  0.4036  1.0793
   10CHTO    C9 4176   5.853  10.920   3.594  0.3245  0.2745 -0.2762
   10CHTO   H22 4177   5.808  11.002   3.536 -0.0296 -2.4173 -3.9936
   10CHTO    N2 4178   5.828  10.796   3.513  0.0116 -0.2742  0.1738
   10CHTO   H10 4179   5.736  10.750   3.546 -1.7691  1.0649 -2.7190
   10CHTO   H11 4180   5.817  10.836   3.413  1.3228 -1.3082 -0.4114
   10CHTO    C7 4181   6.007  10.947   3.615  0.0135 -0.6586  0.2909
   10CHTO   H20 4182   6.036  11.001   3.522  0.1990 -2.3025 -0.6169
   10CHTO    O4 4183   6.031  11.040   3.723 -0.4410 -0.0224 -0.2310
   10CHTO   C14 4184   5.927  11.124   3.775  1.1905  0.1708  0.0231
   10CHTO   H27 4185   5.926  11.209   3.703 -1.3390  1.8587  1.9505
   10CHTO   C18 4186   5.978  11.174   3.914  1.3021  0.2321  0.0253
   10CHTO   O13 4187   6.075  11.276   3.909  0.5848  0.0315 -0.2923
   10CHTO    H7 4188   6.129  11.283   3.833  0.4810 -0.9668 -0.4659
   10CHTO    O2 4189   6.104  10.830   3.627  0.1695  0.1372 -0.1543
   10CHTO    C1 4190   6.239  10.843   3.664 -1.0537 -0.1864  0.1090
   10CHTO   H14 4191   6.245  10.920   3.743  1.8513  0.0656 -0.2887
   10CHTO    C2 4192   6.335  10.898   3.558  0.1683  0.2766  0.0107
   10CHTO   H15 4193   6.297  10.843   3.471 -0.7247  1.4487 -0.3519
   10CHTO    O6 4194   6.311  11.041   3.544  0.1136  0.0930 -0.3352
   10CHTO    H1 4195   6.352  11.062   3.462  2.2250 -3.5898 -0.3281
   10CHTO    C3 4196   6.492  10.871   3.564 -0.3075 -0.6671 -0.2889
   10CHTO   H16 4197   6.535  10.926   3.649 -1.2099 -0.1567 -0.1524
   10CHTO    N1 4198   6.572  10.912   3.443 -0.1653 -0.2266  0.0472
   10CHTO    H8 4199   6.575  11.015   3.412  1.3063  0.0313  1.0094
   10CHTO    H9 4200   6.546  10.843   3.363  0.0449 -0.8289  0.4960
   10CHTO    C4 4201   6.506  10.720   3.609  0.5264 -0.4487  0.3198
   10CHTO   H17 4202   6.476  10.654   3.528 -0.0277  0.2929 -0.0852
   10CHTO    O1 4203   6.430  10.693   3.727  0.3277  0.0182 -0.0293
   10CHTO    C5 4204   6.287  10.701   3.711 -0.2538 -0.4361  0.4758
   10CHTO   H18 4205   6.270  10.620   3.640 -0.0148  0.3430 -0.4812
   10CHTO   C16 4206   6.222  10.668   3.845  0.2300 -0.4439  0.0414
   10CHTO   O11 4207   6.270  10.550   3.906  0.2439 -0.4245 -0.9394
   10CHTO    H5 4208   6.362  10.555   3.922  0.3568 -1.3881 -1.2104
   10CHTO    O3 4209   6.633  10.689   3.670 -0.1858 -0.3826 -0.1222
   10CHTO    C6 4210   6.686  10.560   3.662 -0.2072 -0.1447 -0.0823
   10CHTO   H19 4211   6.619  10.481   3.627 -1.5335  0.8037  0.2851
   10CHTO    C8 4212   6.801  10.550   3.551 -0.6982  0.4077  0.2929
   10CHTO   H21 4213   6.877  10.621   3.583 -2.0913  2.1221 -0.1445
   10CHTO    O7 4214   6.738  10.593   3.430  0.0526  0.1040  0.7144
   10CHTO    H2 4215   6.793  10.589   3.355 -2.0077 -2.2759 -0.7470
   10CHTO   C12 4216   6.854  10.399   3.538 -0.4315  0.4867  0.0744
   10CHTO   H25 4217   6.770  10.347   3.488  0.8958 -2.2564  0.5683
   10CHTO    N3 4218   6.986  10.401   3.460 -0.5197  1.0882 -0.5227
   10CHTO   H12 4219   7.034  10.304   3.460 -0.6106  1.0428 -1.0752
   10CHTO   H13 4220   7.063  10.471   3.490  3.5322 -2.7892 -1.2786
   10CHTO   C15 4221   6.876  10.328   3.682 -0.0366  0.6137 -0.5395
   10CHTO   H28 4222   6.966  10.367   3.729 -1.0939  0.8308  1.3591
   10CHTO   O10 4223   6.877  10.171   3.678  0.3360 -0.4915  0.4224
   10CHTO    H4 4224   6.896  10.131   3.761  1.2915 -1.3674 -0.2072
   10CHTO    O5 4225   6.772  10.365   3.777 -0.3192  0.4651 -0.0275
   10CHTO   C10 4226   6.754  10.504   3.794 -0.4163  0.2205 -0.7803
   10CHTO   H23 4227   6.855  10.544   3.810  0.7427 -2.1747 -1.7639
   10CHTO   C17 4228   6.665  10.520   3.918  0.4809  0.5211 -0.6988
   10CHTO   O12 4229   6.655  10.654   3.962  0.0294 -0.2312 -0.9363
   10CHTO    H6 4230   6.658  10.655   4.056 -3.2346 -1.5952 -0.7581
   11CHTO  H203 4231   8.022   5.287   0.359 -0.6849 -2.3768  1.5815
   11CHTO   O82 4232   7.937   5.323   0.374  0.0690  0.0408  0.2964
   11CHTO  C123 4233   7.927   5.461   0.374  0.5420 -0.5798  0.5960
   11CHTO  H227 4234   7.963   5.498   0.277  0.6570 -0.6504  0.6115
   11CHTO   O77 4235   7.783   5.475   0.377  0.0209  0.1583 -0.7401
   11CHTO  C118 4236   7.747   5.615   0.373 -0.4102 -0.4337  0.0105
   11CHTO  H222 4237   7.789   5.658   0.280  0.8215 -0.0363  0.7427
   11CHTO  C125 4238   7.591   5.620   0.367 -0.1331 -0.2925 -0.9381
   11CHTO   O84 4239   7.545   5.576   0.240  0.2464  0.1602 -0.5819
   11CHTO  H205 4240   7.478   5.512   0.256  2.3296 -1.9056  0.1705
   11CHTO  C114 4241   7.796   5.692   0.497 -0.1491  0.6409  0.0060
   11CHTO  H218 4242   7.760   5.642   0.587  2.9758 -1.8598 -0.0659
   11CHTO  C116 4243   7.947   5.679   0.509 -0.3321 -0.9273  0.0507
   11CHTO  H220 4244   7.994   5.732   0.424 -0.7257 -2.6935 -1.2974
   11CHTO   O79 4245   7.987   5.740   0.636  0.2091 -0.5455  0.2412
   11CHTO  H201 4246   8.059   5.800   0.634 -0.2972  0.2994  3.4285
   11CHTO  C120 4247   7.996   5.525   0.500  0.2904 -0.7011  0.0345
   11CHTO  H224 4248   7.958   5.474   0.591  1.3900  0.1036  0.9612
   11CHTO   N21 4249   8.146   5.526   0.494  0.6309 -0.2750 -0.6804
   11CHTO  H211 4250   8.195   5.433   0.519  1.6309  0.6188  0.7391
   11CHTO  H212 4251   8.190   5.595   0.564 -1.1573 -1.4189  1.6369
   11CHTO   O75 4252   7.759   5.832   0.487  0.3436  0.7574  0.2736
   11CHTO  C112 4253   7.664   5.878   0.619  0.5087  0.2611  0.5246
   11CHTO  H216 4254   7.703   5.835   0.713 -1.4808  1.3518  1.8964
   11CHTO   O73 4255   7.527   5.844   0.593  0.6025  0.2871  0.0918
   11CHTO  C113 4256   7.422   5.882   0.685 -0.5443  0.8759  0.2926
   11CHTO  H217 4257   7.433   5.832   0.783 -1.3070 -0.8290 -0.4737
   11CHTO  C124 4258   7.291   5.826   0.627 -0.4865  0.2206  0.0835
   11CHTO   O83 4259   7.189   5.817   0.729  0.2707 -0.0641  0.0010
   11CHTO  H204 4260   7.128   5.888   0.726 -0.7912 -0.9148  1.4063
   11CHTO  C109 4261   7.413   6.033   0.692  0.1684 -0.2715 -0.5117
   11CHTO  H213 4262   7.400   6.067   0.588  2.6559 -1.1475 -1.1496
   11CHTO  C110 4263   7.559   6.078   0.744  0.0401 -0.4687  0.6001
   11CHTO  H214 4264   7.574   6.050   0.848 -0.0761  4.1288  1.9591
   11CHTO   O78 4265   7.549   6.219   0.743 -0.0314 -0.5654  0.2959
   11CHTO  H200 4266   7.562   6.252   0.656 -0.7663 -1.2522 -0.0733
   11CHTO  C111 4267   7.672   6.035   0.645  0.3173  0.8992 -0.8663
   11CHTO  H215 4268   7.658   6.073   0.542  1.7720  1.1560 -0.9809
   11CHTO   N19 4269   7.807   6.069   0.689 -0.4923 -0.0879 -1.0387
   11CHTO  H207 4270   7.831   6.013   0.778 -1.6206  0.8988 -0.1011
   11CHTO  H208 4271   7.819   6.172   0.721 -1.4511  0.2420 -1.7198
   11CHTO   O74 4272   7.304   6.082   0.779  0.4150 -0.4686  0.1034
   11CHTO  C115 4273   7.235   6.222   0.718  0.1179 -0.2202 -0.5079
   11CHTO  H219 4274   7.302   6.269   0.646  0.3981 -1.3107 -0.9823
   11CHTO   O76 4275   7.107   6.197   0.631 -0.2530 -0.0063  0.1034
   11CHTO  C122 4276   6.993   6.171   0.710  0.3736 -0.1762 -0.6142
   11CHTO  H226 4277   7.016   6.082   0.768 -0.0131  0.3239  0.3093
   11CHTO  C126 4278   6.871   6.122   0.617  0.7058 -0.0912 -0.0548
   11CHTO   O85 4279   6.830   6.236   0.542  0.1161 -0.0500  0.1465
   11CHTO  H206 4280   6.750   6.269   0.579  0.9114  1.7474  0.3273
   11CHTO  C121 4281   6.964   6.292   0.810  0.1302  0.0827  0.2548
   11CHTO  H225 4282   6.869   6.338   0.776 -0.9684 -2.4197 -0.1819
   11CHTO   O81 4283   6.932   6.234   0.938  0.1284  0.2617  0.2792
   11CHTO  H202 4284   6.883   6.282   1.002 -1.1129 -1.0662  0.3278
   11CHTO  C119 4285   7.074   6.393   0.816 -0.6395  0.0772 -0.2999
   11CHTO  H223 4286   7.070   6.441   0.718  1.1606  1.2267  0.1750
   11CHTO  C117 4287   7.211   6.321   0.836 -0.1244  0.0735 -0.3401
   11CHTO  H221 4288   7.223   6.266   0.930  1.7229 -0.6246 -0.9601
   11CHTO   N20 4289   7.327   6.420   0.833  0.6385  0.2241  0.6716
   11CHTO  H209 4290   7.359   6.438   0.935  2.0782 -0.9956  0.4624
   11CHTO  H210 4291   7.407   6.379   0.773 -1.7315 -1.4258 -1.4206
   11CHTO   O80 4292   7.040   6.520   0.905  0.3363 -0.2832  0.2066
   11CHTO  C103 4293   6.997   6.516   1.069  0.0097  0.3512  0.1598
   11CHTO  H190 4294   6.911   6.451   1.085  0.1118 -0.1810 -1.4017
   11CHTO  C101 4295   7.111   6.461   1.169  0.1686  1.5848  0.2211
   11CHTO  H188 4296   7.203   6.505   1.130  0.7236 -0.1603 -0.5032
   11CHTO   O68 4297   7.122   6.288   1.151  0.1309 -0.3212  0.1297
   11CHTO  H168 4298   7.036   6.258   1.175  1.1279 -4.8669 -1.4492
   11CHTO   C99 4299   7.088   6.502   1.321  0.1423 -0.1865  0.5668
   11CHTO  H186 4300   6.993   6.457   1.356  0.3399  0.7358  2.3492
   11CHTO   N17 4301   7.205   6.454   1.400  0.4993 -0.1710 -0.3945
   11CHTO  H174 4302   7.177   6.437   1.503 -0.2783 -0.4823 -0.6524
   11CHTO  H175 4303   7.291   6.518   1.386  0.9949 -1.1455 -1.9409
   11CHTO   C97 4304   7.060   6.656   1.320 -0.3066  0.7098  0.5112
   11CHTO  H184 4305   7.146   6.707   1.275 -0.3455  2.2734  2.1534
   11CHTO   O64 4306   6.938   6.681   1.252  0.0845 -0.2892 -0.1483
   11CHTO  C104 4307   6.965   6.664   1.113 -0.1918  0.5585 -0.1699
   11CHTO  H191 4308   7.048   6.727   1.080  1.1430 -0.7158  0.7176
   11CHTO  C108 4309   6.841   6.716   1.036  0.3364  0.0765 -0.2718
   11CHTO   O71 4310   6.842   6.857   1.046 -1.0105  1.0603  0.1435
   11CHTO  H171 4311   6.915   6.888   0.995  0.8802 -0.5413  1.7515
   11CHTO   O62 4312   7.031   6.704   1.454 -0.2925 -0.0001  0.2831
   11CHTO   C91 4313   7.021   6.849   1.453  0.3625 -0.5145  0.4404
   11CHTO  H178 4314   7.025   6.884   1.350 -0.6769 -1.2324  0.1460
   11CHTO   C92 4315   7.136   6.924   1.523 -0.3157  0.7265 -0.1240
   11CHTO  H179 4316   7.137   6.899   1.630  1.8182 -2.0352 -0.7379
   11CHTO   O66 4317   7.256   6.867   1.473 -0.0472  0.3557  0.1619
   11CHTO  H166 4318   7.284   6.800   1.533  2.8020  1.3432  0.0165
   11CHTO   C93 4319   7.126   7.079   1.507  0.1924 -0.0374 -0.1103
   11CHTO  H180 4320   7.128   7.093   1.397  2.3451 -2.2249 -0.3902
   11CHTO   N16 4321   7.244   7.157   1.559 -0.1394 -0.0547  0.0122
   11CHTO  H172 4322   7.290   7.233   1.498  0.6846  0.8238  1.7022
   11CHTO  H173 4323   7.236   7.197   1.659  1.2883  2.1130 -0.7036
   11CHTO   C94 4324   6.988   7.127   1.562 -0.5113 -0.1080 -0.2204
   11CHTO  H181 4325   6.974   7.092   1.664  2.9879 -0.1089  0.3115
   11CHTO   O61 4326   6.888   7.054   1.485  0.4214  0.0693  0.4343
   11CHTO   C95 4327   6.883   6.911   1.514 -0.6528  1.1494  0.5048
   11CHTO  H182 4328   6.880   6.895   1.622  0.0825  1.0172  0.5059
   11CHTO  C106 4329   6.754   6.835   1.462  0.5755 -0.9314 -0.5480
   11CHTO   O69 4330   6.629   6.895   1.508  1.0422 -0.1806 -0.3343
   11CHTO  H169 4331   6.649   6.938   1.589 -2.7460  0.0728  0.5444
   11CHTO   O63 4332   6.978   7.292   1.550 -0.4123 -0.5605  0.2398
   11CHTO   C96 4333   6.941   7.353   1.663 -0.2945  0.3681 -0.2028
   11CHTO  H183 4334   6.997   7.311   1.746  1.6655 -1.8589 -2.5747
   11CHTO   C98 4335   6.797   7.335   1.706 -0.4452  0.5422 -0.4444
   11CHTO  H185 4336   6.728   7.386   1.637 -0.9146  0.5099 -0.0003
   11CHTO   O67 4337   6.754   7.195   1.708  0.6861 -0.3618 -0.7419
   11CHTO  H167 4338   6.815   7.149   1.763  0.3826  0.8974  0.6850
   11CHTO  C102 4339   6.776   7.387   1.863  0.2595  0.4120  0.4177
   11CHTO  H189 4340   6.811   7.306   1.928  1.2549  1.0377  0.6694
   11CHTO   N18 4341   6.634   7.411   1.905 -0.1439 -0.0930  0.0010
   11CHTO  H176 4342   6.569   7.330   1.874  0.5243 -0.4380 -0.5159
   11CHTO  H177 4343   6.599   7.509   1.875  1.2785  1.3265  2.7839
   11CHTO  C105 4344   6.870   7.504   1.896  0.2295 -0.3198 -0.1132
   11CHTO  H192 4345   6.817   7.584   1.949  2.1396  0.0787  1.2351
   11CHTO   O65 4346   6.925   7.573   1.783 -0.5955  0.1196  0.7284
   11CHTO  C100 4347   6.968   7.505   1.665  0.5203  0.0107 -0.5422
   11CHTO  H187 4348   6.910   7.556   1.586 -2.3294  0.1158  1.5484
   11CHTO  C107 4349   7.113   7.534   1.631 -0.2264  0.3044 -0.0754
   11CHTO   O70 4350   7.140   7.667   1.608 -0.1010 -0.4620 -0.3413
   11CHTO  H170 4351   7.116   7.714   1.686 -1.8062 -0.6786 -0.7096
   11CHTO   O57 4352   6.987   7.445   1.987 -0.1250  0.4850  0.0455
   11CHTO   C85 4353   7.050   7.512   2.086 -0.2190 -0.1115 -0.7045
   11CHTO  H157 4354   6.974   7.561   2.149 -1.6041  0.3832 -2.7263
   11CHTO   C83 4355   7.143   7.630   2.027 -0.6801  0.4708  0.9187
   11CHTO  H155 4356   7.079   7.707   1.982 -1.5602  0.2101  1.6897
   11CHTO   O56 4357   7.228   7.575   1.927 -0.0314 -0.0333  0.5544
   11CHTO  H135 4358   7.199   7.599   1.841 -0.8129  1.2495  1.1549
   11CHTO   C81 4359   7.233   7.695   2.134 -0.5024  0.0543 -0.1096
   11CHTO  H153 4360   7.171   7.730   2.216 -0.1804 -0.2655  0.2740
   11CHTO   N14 4361   7.300   7.817   2.082  0.6981  0.2996  0.4269
   11CHTO  H141 4362   7.386   7.832   2.143  1.4207  0.1361 -0.5370
   11CHTO  H142 4363   7.335   7.800   1.982  0.0793 -0.5426  0.3469
   11CHTO   C79 4364   7.334   7.589   2.199 -0.0498  0.2159 -0.0977
   11CHTO  H151 4365   7.397   7.638   2.273 -0.6072 -0.3469  0.7642
   11CHTO   O52 4366   7.247   7.488   2.263 -0.3461  0.4972  0.0413
   11CHTO   C86 4367   7.147   7.417   2.173  0.8994  0.6874 -0.6468
   11CHTO  H158 4368   7.216   7.344   2.126 -1.6473 -0.4941 -2.6864
   11CHTO   C90 4369   7.050   7.338   2.265 -0.5591  0.2119 -0.3512
   11CHTO   O60 4370   7.108   7.271   2.373 -0.0187 -0.6669  0.3394
   11CHTO  H138 4371   7.074   7.183   2.372  1.9161 -1.5220  2.8405
   11CHTO   O50 4372   7.424   7.528   2.105 -0.0197  0.5028 -0.4660
   11CHTO   C73 4373   7.551   7.457   2.119 -0.8210  0.3745  0.3967
   11CHTO  H145 4374   7.532   7.356   2.157 -0.8138 -0.0423 -0.6641
   11CHTO   C74 4375   7.645   7.541   2.213 -0.1861  0.2665  0.1481
   11CHTO  H146 4376   7.583   7.554   2.303 -1.6149 -1.2542 -0.5945
   11CHTO   O54 4377   7.759   7.449   2.240 -0.0983 -0.0704  0.2236
   11CHTO  H133 4378   7.839   7.497   2.249 -1.0188  1.4503  0.5020
   11CHTO   C75 4379   7.675   7.675   2.142 -0.0452  0.3218  0.6280
   11CHTO  H147 4380   7.581   7.731   2.147 -1.1029 -1.0776 -2.5482
   11CHTO   N13 4381   7.775   7.760   2.208 -0.1382 -0.0047 -0.1036
   11CHTO  H139 4382   7.745   7.755   2.311  0.3503 -1.9981 -0.0363
   11CHTO  H140 4383   7.877   7.733   2.187 -0.1484  1.1942 -1.8142
   11CHTO   C76 4384   7.716   7.655   1.986  0.3302 -0.5285 -0.4766
   11CHTO  H148 4385   7.811   7.601   1.984  0.7289  0.1648 -0.4441
   11CHTO   O49 4386   7.622   7.567   1.907 -0.3562 -0.4047  0.5362
   11CHTO   C77 4387   7.602   7.440   1.978 -0.5265  0.0865 -0.3751
   11CHTO  H149 4388   7.700   7.392   1.984 -0.0474  1.0435 -0.5187
   11CHTO   C88 4389   7.507   7.344   1.897  0.0056  0.0899 -0.0743
   11CHTO   O58 4390   7.502   7.221   1.931  0.2310  0.2822  0.0990
   11CHTO  H136 4391   7.580   7.179   1.963 -0.1777  0.9347  2.0066
   11CHTO   O51 4392   7.733   7.809   1.917  0.2420 -0.2132  0.2087
   11CHTO   C78 4393   7.854   7.850   1.836 -0.0582  0.0972  0.6080
   11CHTO  H150 4394   7.930   7.770   1.848  0.4961  0.5507  0.1603
   11CHTO   C80 4395   7.918   7.983   1.876 -0.4235  0.0161  0.4756
   11CHTO  H152 4396   7.842   8.063   1.886 -0.1643  0.2802  0.3456
   11CHTO   O55 4397   7.971   7.972   2.014  0.4047 -0.0672  0.4128
   11CHTO  H134 4398   7.902   7.981   2.076  0.9608  0.4616  0.9605
   11CHTO   C84 4399   8.019   8.038   1.770 -0.2308  0.2601 -0.0695
   11CHTO  H156 4400   8.093   7.958   1.764 -1.8992 -1.2702 -0.6198
   11CHTO   N15 4401   8.076   8.173   1.807  0.2555 -0.0853  0.1584
   11CHTO  H143 4402   8.158   8.200   1.745  0.0249  0.2293 -0.0116
   11CHTO  H144 4403   8.003   8.248   1.788  1.3534  1.7846  3.0144
   11CHTO   C87 4404   7.952   8.042   1.636  0.0896 -0.0954 -0.1256
   11CHTO  H159 4405   7.869   8.109   1.617 -0.3426 -0.9532 -1.3116
   11CHTO   O53 4406   7.902   7.899   1.599 -0.3149 -0.0912 -0.1216
   11CHTO   C82 4407   7.802   7.858   1.691 -1.0204 -0.0310  0.2620
   11CHTO  H154 4408   7.722   7.931   1.690 -0.8537  0.1473 -0.0101
   11CHTO   C89 4409   7.740   7.726   1.637  0.0952 -0.3921  0.1465
   11CHTO   O59 4410   7.839   7.624   1.624 -0.7318  0.3731 -0.0968
   11CHTO  H137 4411   7.811   7.571   1.551 -0.9664 -0.7973  0.8293
   11CHTO   O45 4412   8.079   8.073   1.525 -0.1046 -0.3924 -0.0698
   11CHTO   C67 4413   8.052   8.044   1.386 -0.3034  0.1574 -0.0737
   11CHTO  H124 4414   7.975   7.967   1.382 -0.2244  0.0806 -0.1175
   11CHTO   C65 4415   7.983   8.172   1.328 -0.4803  0.0789 -0.2364
   11CHTO  H122 4416   8.023   8.255   1.386 -0.8465  0.1178 -0.0371
   11CHTO   O44 4417   7.842   8.150   1.355 -0.1601 -0.0791  0.0244
   11CHTO  H102 4418   7.830   8.168   1.446 -4.2076 -0.6097 -0.3155
   11CHTO   C63 4419   8.027   8.206   1.183  0.5195 -0.1633 -0.0053
   11CHTO  H120 4420   8.129   8.244   1.182  0.6079 -0.3276  1.5404
   11CHTO   N11 4421   7.950   8.317   1.119  0.2688 -0.1759 -0.0825
   11CHTO  H108 4422   7.886   8.351   1.198 -0.3972 -3.1997  0.7394
   11CHTO  H109 4423   8.009   8.386   1.062 -0.0194  1.5096  1.5976
   11CHTO   C61 4424   8.023   8.072   1.100 -0.7338 -0.0486 -0.2367
   11CHTO  H118 4425   8.055   8.098   0.998 -0.3172 -1.5221 -0.4862
   11CHTO   O40 4426   8.132   7.983   1.149  0.1044 -0.4158 -0.8055
   11CHTO   C68 4427   8.177   7.988   1.299  0.3891 -0.1764 -0.3509
   11CHTO  H125 4428   8.270   8.046   1.314  0.0436  0.3793 -0.3474
   11CHTO   C72 4429   8.206   7.850   1.353  0.5997 -0.2804 -0.2247
   11CHTO   O48 4430   8.299   7.794   1.266 -0.2848  0.4828  0.1543
   11CHTO  H105 4431   8.276   7.805   1.176 -0.4315  3.2062  0.4855
   11CHTO   O38 4432   7.894   8.011   1.101 -0.2589  0.0591  0.6522
   11CHTO   C55 4433   7.882   7.914   0.995  0.0076 -0.3417  0.6717
   11CHTO  H112 4434   7.984   7.885   0.969  1.0603  4.2111 -0.7107
   11CHTO   C56 4435   7.806   7.985   0.867 -0.3471  0.5076  0.4969
   11CHTO  H113 4436   7.715   8.034   0.904 -0.3497  0.4168  0.6093
   11CHTO   O42 4437   7.894   8.091   0.823 -0.0506  0.8687  0.1233
   11CHTO  H100 4438   7.970   8.058   0.779  0.8542 -0.0559  2.2975
   11CHTO   C57 4439   7.787   7.877   0.754  0.2781 -0.0291  0.1991
   11CHTO  H114 4440   7.880   7.843   0.710 -0.3731  0.0018 -1.2565
   11CHTO   N10 4441   7.694   7.932   0.647 -0.1055  0.4087 -0.1621
   11CHTO  H106 4442   7.714   7.881   0.553 -3.1244  0.5759 -0.9731
   11CHTO  H107 4443   7.697   8.039   0.634  1.0121  0.2969 -0.9490
   11CHTO   C58 4444   7.720   7.756   0.820  1.0980 -0.2749  0.2187
   11CHTO  H115 4445   7.619   7.784   0.857  0.8503 -0.6414 -0.1736
   11CHTO   O37 4446   7.794   7.704   0.928  0.3508  0.0345 -1.1407
   11CHTO   C59 4447   7.805   7.788   1.046  0.2477 -0.1066  0.0658
   11CHTO  H116 4448   7.702   7.815   1.066  0.8553  3.1754 -0.9464
   11CHTO   C70 4449   7.890   7.723   1.158  0.6183  0.4330 -0.1169
   11CHTO   O46 4450   7.852   7.749   1.299 -0.7697  0.4308  0.4032
   11CHTO  H103 4451   7.820   7.667   1.331 -1.9820  0.0054 -1.7972
   11CHTO   O39 4452   7.712   7.639   0.719  0.5597  0.3066 -0.1540
   11CHTO   C60 4453   7.593   7.558   0.717 -0.1602  0.3421  0.2384
   11CHTO  H117 4454   7.529   7.586   0.801  1.6978 -0.6016  2.0147
   11CHTO   C62 4455   7.525   7.574   0.584  0.5121  0.0703  0.5450
   11CHTO  H119 4456   7.511   7.684   0.572  0.2270 -0.0457 -0.2146
   11CHTO   O43 4457   7.616   7.539   0.479  0.4219 -0.0128 -0.4012
   11CHTO  H101 4458   7.649   7.612   0.431 -0.2092 -0.4479 -1.5373
   11CHTO   C66 4459   7.390   7.495   0.582  0.1096  0.1525  0.0117
   11CHTO  H123 4460   7.336   7.526   0.672  1.0724  2.4744 -0.1786
   11CHTO   N12 4461   7.307   7.540   0.460  0.5270 -0.0416 -0.3481
   11CHTO  H110 4462   7.272   7.465   0.391  1.5442 -0.4622 -0.4195
   11CHTO  H111 4463   7.227   7.606   0.490  1.8323  1.3767  0.1027
   11CHTO   C69 4464   7.416   7.339   0.586  0.5725  0.1980  0.4598
   11CHTO  H126 4465   7.480   7.308   0.501  0.5014 -0.9571  0.8237
   11CHTO   O41 4466   7.495   7.299   0.715 -0.0471 -0.2943  0.3252
   11CHTO   C64 4467   7.630   7.408   0.743  0.8225  0.5761  0.3333
   11CHTO  H121 4468   7.709   7.383   0.669  0.5244 -0.2141  0.2846
   11CHTO   C71 4469   7.685   7.380   0.880 -0.9224 -0.7838 -0.2323
   11CHTO   O47 4470   7.725   7.241   0.888 -0.4404 -0.1013  0.5568
   11CHTO  H104 4471   7.729   7.195   0.806  0.1033  2.7707 -1.1237
   11CHTO   O34 4472   7.277   7.238   0.571 -0.5907 -0.4394  0.3176
   11CHTO   C49 4473   7.155   7.242   0.635  0.8475  0.2582  0.2877
   11CHTO   H91 4474   7.153   7.338   0.687  0.2598  0.6672 -0.4693
   11CHTO   C47 4475   7.131   7.137   0.747 -0.0665 -1.0089 -0.3807
   11CHTO   H89 4476   7.042   7.163   0.808  0.9913 -0.1150  0.8239
   11CHTO   O33 4477   7.241   7.137   0.845  0.0413 -1.1604  0.4050
   11CHTO   H70 4478   7.253   7.226   0.874 -0.2000 -1.0346  0.1182
   11CHTO   C45 4479   7.133   6.987   0.688  0.5813 -0.3662  0.1044
   11CHTO   H87 4480   7.234   6.966   0.649  0.3547 -1.8095  0.2628
   11CHTO    N8 4481   7.104   6.879   0.789 -0.1702  0.2582  0.2305
   11CHTO   H75 4482   7.069   6.912   0.885 -0.5073  1.4621 -0.2978
   11CHTO   H76 4483   7.187   6.810   0.793 -1.2824 -1.0519  1.4603
   11CHTO   C43 4484   7.034   6.982   0.564  0.0164  0.7970 -0.0519
   11CHTO   H85 4485   7.054   6.892   0.505  1.2956  0.8096  0.3498
   11CHTO   O29 4486   7.040   7.101   0.479 -0.3824 -0.2758 -0.3844
   11CHTO   C50 4487   7.047   7.234   0.530  0.0934 -0.1158  0.6833
   11CHTO   H92 4488   7.060   7.304   0.446 -6.6838  2.2936  1.2782
   11CHTO   C54 4489   6.908   7.287   0.569  0.3292 -0.0802 -0.0949
   11CHTO   O36 4490   6.813   7.297   0.457 -0.1640  0.0737 -0.1667
   11CHTO   H72 4491   6.736   7.344   0.483  0.2658  0.9644 -0.4938
   11CHTO   O27 4492   6.898   6.973   0.605  0.1272 -0.5539 -0.1675
   11CHTO   C37 4493   6.786   6.915   0.676  0.4680 -0.6246 -0.2551
   11CHTO   H79 4494   6.817   6.863   0.768  0.4763 -2.1570 -1.1022
   11CHTO   C38 4495   6.673   7.014   0.716  0.3490  0.3416 -0.0274
   11CHTO   H80 4496   6.648   7.075   0.628 -0.2396 -1.6194 -1.2397
   11CHTO   O31 4497   6.722   7.106   0.821  0.2354  0.1490 -0.1200
   11CHTO   H68 4498   6.725   7.054   0.899 -0.9288  0.5140  0.1708
   11CHTO   C39 4499   6.542   6.944   0.767 -0.3517  0.2446 -0.1411
   11CHTO   H81 4500   6.570   6.909   0.867 -1.8066 -0.9900 -0.1461
   11CHTO    N7 4501   6.424   7.037   0.775 -0.2387  0.1443 -0.6615
   11CHTO   H73 4502   6.448   7.129   0.827  0.1870 -0.6997  0.6547
   11CHTO   H74 4503   6.344   7.024   0.704 -0.7749 -1.9907  0.2959
   11CHTO   C40 4504   6.500   6.818   0.695 -0.1916  0.4591 -0.8428
   11CHTO   H82 4505   6.430   6.831   0.612  0.5348  1.9525 -1.2385
   11CHTO   O26 4506   6.617   6.739   0.659  0.2914  0.2552 -0.2331
   11CHTO   C41 4507   6.719   6.809   0.585  0.5066  0.2905  0.6843
   11CHTO   H83 4508   6.679   6.867   0.502  0.2839  0.0524  0.6256
   11CHTO   C52 4509   6.819   6.704   0.535 -0.3287  0.2221  0.4964
   11CHTO   O35 4510   6.850   6.742   0.402 -0.0379  0.4871 -0.0592
   11CHTO   H71 4511   6.784   6.707   0.345  2.1198 -2.0084 -1.1416
   11CHTO   O28 4512   6.431   6.726   0.783 -0.5636  0.6569  0.3744
   11CHTO   C42 4513   6.375   6.605   0.724 -0.1614  0.1461  0.2475
   11CHTO   H84 4514   6.408   6.600   0.620 -0.8679 -1.0975  0.0765
   11CHTO   C44 4515   6.218   6.604   0.719  0.1474  0.6591  0.0569
   11CHTO   H86 4516   6.180   6.593   0.821  0.5757  2.5168  0.4363
   11CHTO   O32 4517   6.181   6.728   0.653 -0.4044  0.3529 -0.0512
   11CHTO   H69 4518   6.224   6.804   0.686  1.7212 -0.3651 -1.1293
   11CHTO   C48 4519   6.169   6.471   0.646  0.0201  0.8777  0.4226
   11CHTO   H90 4520   6.206   6.474   0.544 -2.9627  0.8472 -0.7097
   11CHTO    N9 4521   6.021   6.476   0.638  0.2164  0.0216 -0.6731
   11CHTO   H77 4522   5.969   6.466   0.731  0.9669  0.5087 -0.1947
   11CHTO   H78 4523   5.999   6.568   0.586  2.1254  0.7472 -0.2216
   11CHTO   C51 4524   6.213   6.359   0.737  0.1333  0.2398 -0.5330
   11CHTO   H93 4525   6.173   6.370   0.838  0.5221  0.2460 -0.3782
   11CHTO   O30 4526   6.357   6.351   0.740 -0.4128  0.0531  0.4239
   11CHTO   C46 4527   6.429   6.475   0.799  0.2016 -0.4431  0.0433
   11CHTO   H88 4528   6.403   6.480   0.905 -0.9453  1.4000 -0.2944
   11CHTO   C53 4529   6.584   6.451   0.789  0.0502 -0.4675  0.1137
   11CHTO   O72 4530   6.627   6.384   0.671 -0.5012 -0.4045  0.0793
   11CHTO  H199 4531   6.674   6.442   0.615 -0.4345 -1.7124 -1.2712
   11CHTO   O22 4532   6.168   6.231   0.692 -0.0924  0.3797  0.3552
   11CHTO   C31 4533   6.166   6.126   0.792 -0.4066  0.6672  0.3814
   11CHTO   H59 4534   6.229   6.161   0.876  2.1353  0.8735 -1.5547
   11CHTO   C29 4535   6.024   6.100   0.848 -0.0532 -0.1188  0.2942
   11CHTO   H57 4536   5.947   6.093   0.769 -0.9878  0.3613  1.1525
   11CHTO   O21 4537   5.985   6.208   0.939 -0.7974  0.1554  0.6124
   11CHTO   H37 4538   5.900   6.196   0.976 -0.9094  0.5608  0.4917
   11CHTO   C27 4539   6.014   5.966   0.936 -0.8293  0.0795 -0.0889
   11CHTO   H55 4540   6.066   5.982   1.032 -0.2782 -1.2625 -0.1556
   11CHTO    N5 4541   5.877   5.923   0.970 -0.3668 -0.3291  0.1025
   11CHTO   H43 4542   5.805   5.982   0.917  1.0723  0.3037 -1.1957
   11CHTO   H44 4543   5.855   5.966   1.067 -2.0377 -2.6322  0.7863
   11CHTO   C25 4544   6.092   5.844   0.866  0.2705 -0.6167 -0.1711
   11CHTO   H53 4545   6.039   5.813   0.774 -1.5194 -0.8044  0.9107
   11CHTO   O17 4546   6.227   5.885   0.840 -0.6962  0.5507 -0.2745
   11CHTO   C32 4547   6.237   5.990   0.742 -0.3369 -0.8496 -0.1341
   11CHTO   H60 4548   6.189   5.948   0.653  2.1212 -0.9555 -1.4480
   11CHTO   C36 4549   6.388   6.011   0.704  0.2190  0.1715 -0.5597
   11CHTO   O25 4550   6.403   6.098   0.593 -0.4325  0.0540 -0.3717
   11CHTO   H40 4551   6.375   6.185   0.614  1.0041  0.5280 -0.3359
   11CHTO   O15 4552   6.099   5.722   0.955  0.2582 -0.3849 -0.2278
   11CHTO   C19 4553   6.045   5.589   0.994 -0.0736  0.1473  0.3594
   11CHTO   H47 4554   6.127   5.516   0.999  1.7563  1.9616 -2.0383
   11CHTO   C20 4555   5.968   5.584   1.131 -1.2370 -0.6015  0.0449
   11CHTO   H48 4556   5.881   5.650   1.134 -0.7035  0.1104  4.4671
   11CHTO   O19 4557   6.076   5.622   1.221 -0.2863 -0.2386 -0.0997
   11CHTO   H35 4558   6.050   5.588   1.305 -1.5481  0.8732 -0.0262
   11CHTO   C21 4559   5.916   5.439   1.160  0.2125 -0.5433 -0.5222
   11CHTO   H49 4560   6.002   5.377   1.184 -0.9678 -2.5257 -1.2811
   11CHTO    N4 4561   5.838   5.433   1.287  0.1129 -0.7107 -0.6406
   11CHTO   H41 4562   5.762   5.510   1.289  1.7578  0.9043  1.7117
   11CHTO   H42 4563   5.791   5.337   1.301 -0.7673 -0.1374  0.4332
   11CHTO   C22 4564   5.840   5.391   1.036 -0.0002  0.0552 -0.8370
   11CHTO   H50 4565   5.752   5.454   1.029  0.2379  0.4258 -0.5573
   11CHTO   O14 4566   5.922   5.397   0.923 -0.2324 -0.3456 -0.2016
   11CHTO   C23 4567   5.954   5.530   0.883 -0.1179 -0.9098  0.7772
   11CHTO   H51 4568   5.865   5.592   0.863  0.6538 -0.8055 -2.7640
   11CHTO   C34 4569   6.018   5.508   0.742  0.5241 -0.0080  0.8968
   11CHTO   O23 4570   6.147   5.456   0.754 -0.2240  0.6164  0.3105
   11CHTO   H38 4571   6.142   5.366   0.781 -1.4298  0.1702 -1.3561
   11CHTO   O16 4572   5.797   5.250   1.054 -0.2230 -0.1600  0.0007
   11CHTO   C24 4573   5.684   5.226   0.923  0.7713  0.6715  0.1553
   11CHTO   H52 4574   5.684   5.309   0.852 -0.2271  2.4570  2.1934
   11CHTO   C26 4575   5.539   5.214   0.982  0.4323  0.2274 -0.1062
   11CHTO   H54 4576   5.536   5.126   1.050 -0.7473 -0.2284 -0.7407
   11CHTO   O20 4577   5.520   5.328   1.062  0.2759 -0.0106  0.5878
   11CHTO   H36 4578   5.442   5.305   1.110  0.3383 -1.5239  0.0130
   11CHTO   C30 4579   5.434   5.185   0.868 -0.2619 -0.3357  0.0763
   11CHTO   H58 4580   5.417   5.265   0.795  1.0433  0.5758  0.7671
   11CHTO    N6 4581   5.300   5.147   0.925 -0.8411  0.3743  0.0359
   11CHTO   H45 4582   5.251   5.227   0.979 -0.8671  0.3504  0.0491
   11CHTO   H46 4583   5.321   5.077   1.004 -3.2658  1.0210  1.2932
   11CHTO   C33 4584   5.488   5.075   0.769  0.1313  0.2695 -0.8925
   11CHTO   H61 4585   5.470   4.978   0.817  1.0177  0.1497 -0.8086
   11CHTO   O18 4586   5.622   5.087   0.736 -0.2439  0.1832  0.1418
   11CHTO   C28 4587   5.714   5.091   0.846 -0.6029  0.2682  0.7172
   11CHTO   H56 4588   5.705   5.008   0.916  2.8602 -1.0027 -0.2149
   11CHTO   C35 4589   5.863   5.082   0.776  0.3452  0.7563  0.3753
   11CHTO   O24 4590   5.884   4.965   0.701 -0.0301 -0.2363  0.6041
   11CHTO   H39 4591   5.853   4.995   0.618  0.4845  2.4732  1.3328
   11CHTO    O9 4592   5.404   5.076   0.655 -0.1085  0.1448  0.3018
   11CHTO   C13 4593   5.463   5.180   0.532  0.3972  0.6371 -0.7593
   11CHTO   H26 4594   5.508   5.265   0.588  1.2754 -0.2099 -0.1653
   11CHTO   C11 4595   5.343   5.233   0.438 -0.1783  0.3592 -0.5110
   11CHTO   H24 4596   5.270   5.281   0.505 -1.2010 -2.6585  0.6179
   11CHTO    O8 4597   5.281   5.118   0.380 -0.9921 -0.3760 -0.1893
   11CHTO    H3 4598   5.190   5.117   0.405  0.1442 -1.2708  4.2744
   11CHTO    C9 4599   5.397   5.358   0.358 -0.4967  0.0038  0.3641
   11CHTO   H22 4600   5.403   5.438   0.433  0.5662  2.2504 -2.0822
   11CHTO    N2 4601   5.287   5.402   0.265  0.2010  0.7038  0.0379
   11CHTO   H10 4602   5.220   5.464   0.323  0.8075  1.5758 -0.1980
   11CHTO   H11 4603   5.328   5.445   0.175  0.2321 -0.1494 -0.3576
   11CHTO    C7 4604   5.539   5.327   0.300  0.3742  1.0128 -0.6940
   11CHTO   H20 4605   5.600   5.390   0.369  0.8715  1.7915 -1.8203
   11CHTO    O4 4606   5.567   5.183   0.302  0.4551 -0.4539  0.3495
   11CHTO   C14 4607   5.576   5.122   0.428  0.1362 -0.3678  0.6183
   11CHTO   H27 4608   5.673   5.148   0.476 -0.3585 -1.1842  2.0927
   11CHTO   C18 4609   5.580   4.972   0.396  0.4714  0.3415 -0.1580
   11CHTO   O13 4610   5.631   4.895   0.506 -0.2400  0.1136  0.6355
   11CHTO    H7 4611   5.556   4.854   0.546 -0.7490 -1.1341 -1.5178
   11CHTO    O2 4612   5.572   5.384   0.139 -0.5423  0.6714  1.1210
   11CHTO    C1 4613   5.690   5.464   0.134  0.3507  0.0473 -0.6498
   11CHTO   H14 4614   5.753   5.431   0.219 -1.0432 -0.7463  0.0920
   11CHTO    C2 4615   5.658   5.619   0.157 -0.1860 -0.0530 -0.8348
   11CHTO   H15 4616   5.579   5.642   0.084 -2.6987  0.2940  1.9373
   11CHTO    O6 4617   5.605   5.640   0.291 -0.1090  0.1751 -0.0862
   11CHTO    H1 4618   5.577   5.729   0.302 -0.4866  0.3462 -2.2074
   11CHTO    C3 4619   5.797   5.706   0.136  0.3914 -0.5863  0.1248
   11CHTO   H16 4620   5.862   5.672   0.218  0.8222  2.2140  0.9720
   11CHTO    N1 4621   5.773   5.854   0.158  0.1901  0.3386 -1.0633
   11CHTO    H8 4622   5.671   5.874   0.188  1.0405  1.8792  0.9455
   11CHTO    H9 4623   5.823   5.887   0.248  1.0596  1.0045 -1.7821
   11CHTO    C4 4624   5.866   5.669  -0.000  0.1074  0.0630 -0.3811
   11CHTO   H17 4625   5.804   5.709  -0.080 -2.2728  0.4495  1.6051
   11CHTO    O1 4626   5.884   5.528  -0.018 -0.4686  0.4682  0.5554
   11CHTO    C5 4627   5.764   5.442  -0.004 -0.5076 -0.0145 -0.0245
   11CHTO   H18 4628   5.683   5.465  -0.073 -0.5174  1.3533  0.4365
   11CHTO   C16 4629   5.804   5.295  -0.017  0.5238 -0.8313  0.3937
   11CHTO   O11 4630   5.902   5.248   0.065 -0.2466  0.0964 -0.0751
   11CHTO    H5 4631   5.937   5.166   0.036 -2.4217 -0.8311 -0.1186
   11CHTO    O3 4632   5.997   5.718  -0.006 -0.2650  0.0540  0.2578
   11CHTO    C6 4633   6.043   5.750  -0.145  0.2667 -0.1553 -0.2050
   11CHTO   H19 4634   5.978   5.701  -0.217 -0.5391  0.2713  0.2202
   11CHTO    C8 4635   6.049   5.903  -0.155  0.0432 -0.5718 -0.0329
   11CHTO   H21 4636   6.104   5.936  -0.067 -0.2969 -0.9114  0.3038
   11CHTO    O7 4637   5.912   5.961  -0.146 -0.1936  0.0875 -0.4662
   11CHTO    H2 4638   5.915   6.048  -0.111 -0.2548 -0.6146  1.3389
   11CHTO   C12 4639   6.129   5.963  -0.278 -0.1102 -0.1191  0.5797
   11CHTO   H25 4640   6.071   5.962  -0.372 -1.4123 -0.7395  1.3762
   11CHTO    N3 4641   6.157   6.105  -0.258 -0.6057  0.7794 -0.2731
   11CHTO   H12 4642   6.191   6.157  -0.346  1.2849 -0.8238 -0.5331
   11CHTO   H13 4643   6.227   6.109  -0.177 -1.3797 -2.6246  0.6569
   11CHTO   C15 4644   6.262   5.883  -0.294 -0.1542 -0.5957 -0.0500
   11CHTO   H28 4645   6.342   5.907  -0.225  0.9325  0.5450 -1.6560
   11CHTO   O10 4646   6.328   5.916  -0.452  0.5485  0.0694  0.3464
   11CHTO    H4 4647   6.377   5.996  -0.449  0.5153  0.1541 -1.0275
   11CHTO    O5 4648   6.240   5.743  -0.298 -0.1106 -0.1974  0.0254
   11CHTO   C10 4649   6.184   5.694  -0.174  0.0179 -0.4315  0.0643
   11CHTO   H23 4650   6.247   5.734  -0.095 -0.1898  1.1512 -0.5397
   11CHTO   C17 4651   6.191   5.543  -0.169 -0.0909 -0.8958  0.4981
   11CHTO   O12 4652   6.148   5.485  -0.046 -0.2875 -0.3704  0.0350
   11CHTO    H6 4653   6.063   5.519  -0.026 -0.4055  0.7622 -2.1730
   12CHTO  H203 4654   5.781   2.513   2.319 -0.2438 -0.7558  1.6036
   12CHTO   O82 4655   5.779   2.426   2.284 -0.2947  0.0915 -0.5882
   12CHTO  C123 4656   5.766   2.322   2.386  0.4314 -0.0279  0.4626
   12CHTO  H227 4657   5.793   2.371   2.480 -1.2954  2.9011 -0.5000
   12CHTO   O77 4658   5.629   2.285   2.395 -0.0671  0.3770  0.2870
   12CHTO  C118 4659   5.582   2.188   2.495  0.2962  0.4541 -0.2331
   12CHTO  H222 4660   5.591   2.230   2.596 -0.9972 -0.6159  0.3466
   12CHTO  C125 4661   5.431   2.164   2.471  0.0982  0.2279 -0.5261
   12CHTO   O84 4662   5.356   2.272   2.422 -1.0994 -0.8790  0.3318
   12CHTO  H205 4663   5.356   2.343   2.484  2.0061 -1.8585  1.5963
   12CHTO  C114 4664   5.657   2.059   2.470 -0.2072 -0.1098 -0.6581
   12CHTO  H218 4665   5.623   2.019   2.374  1.8631 -3.3922 -0.0942
   12CHTO  C116 4666   5.815   2.079   2.459 -0.5690  0.2219  0.0064
   12CHTO  H220 4667   5.864   2.101   2.556 -0.4397 -0.5742  0.1241
   12CHTO   O79 4668   5.868   1.954   2.417 -0.1242 -0.5384  0.2851
   12CHTO  H201 4669   5.856   1.886   2.480  0.4446 -0.3469  0.6082
   12CHTO  C120 4670   5.844   2.191   2.353 -0.6577  0.0677 -0.1616
   12CHTO  H224 4671   5.830   2.152   2.250  1.3073 -0.6870 -0.1546
   12CHTO   N21 4672   5.989   2.219   2.351  0.3238 -0.4905  0.8319
   12CHTO  H211 4673   6.032   2.160   2.272  0.9669 -0.6167  1.2701
   12CHTO  H212 4674   6.011   2.321   2.324 -2.4141 -0.1649 -0.4009
   12CHTO   O75 4675   5.630   1.966   2.579  0.7245  0.1035 -0.3367
   12CHTO  C112 4676   5.576   1.814   2.504 -0.0342 -0.8917 -0.0211
   12CHTO  H216 4677   5.631   1.809   2.408 -1.9880 -0.1821 -1.2158
   12CHTO   O73 4678   5.432   1.821   2.486 -0.1386 -0.6526 -0.1059
   12CHTO  C113 4679   5.377   1.699   2.443 -0.0992 -0.1219  0.4239
   12CHTO  H217 4680   5.432   1.673   2.350  1.5553  0.0158  1.3427
   12CHTO  C124 4681   5.227   1.711   2.408 -0.3287 -0.1571 -0.6357
   12CHTO   O83 4682   5.205   1.818   2.320  0.2436  0.1391  1.0942
   12CHTO  H204 4683   5.278   1.850   2.270  0.4043 -0.1186  1.1635
   12CHTO  C109 4684   5.395   1.581   2.539  0.1837  0.0572 -0.2362
   12CHTO  H213 4685   5.345   1.610   2.632  1.6851  0.8007  0.3600
   12CHTO  C110 4686   5.552   1.558   2.556 -0.5374 -0.0220  0.3664
   12CHTO  H214 4687   5.583   1.515   2.460 -0.3313  3.4154 -1.1861
   12CHTO   O78 4688   5.573   1.464   2.661 -0.1024  0.3584 -0.3187
   12CHTO  H200 4689   5.659   1.467   2.697 -0.5083  3.3279  0.4826
   12CHTO  C111 4690   5.623   1.693   2.591  0.2853  0.0474 -0.2260
   12CHTO  H215 4691   5.594   1.723   2.693 -0.1573  1.5048 -0.7672
   12CHTO   N19 4692   5.767   1.682   2.591  0.3527 -0.0895 -0.7441
   12CHTO  H207 4693   5.809   1.605   2.655 -0.4689 -1.1821 -1.5044
   12CHTO  H208 4694   5.822   1.768   2.627 -1.4820  0.4480  0.8949
   12CHTO   O74 4695   5.335   1.458   2.486 -0.0387  0.6384 -0.0663
   12CHTO  C115 4696   5.277   1.368   2.616  1.5318  0.6648  0.1949
   12CHTO  H219 4697   5.345   1.363   2.701 -0.8428 -2.3370  2.0192
   12CHTO   O76 4698   5.138   1.427   2.664 -0.6509 -0.5452 -0.5094
   12CHTO  C122 4699   5.094   1.362   2.782 -0.0699 -0.2249  0.0659
   12CHTO  H226 4700   4.994   1.402   2.803 -1.0032 -1.8860 -1.1116
   12CHTO  C126 4701   5.184   1.398   2.904 -0.5880  0.3931  0.1869
   12CHTO   O85 4702   5.153   1.525   2.954 -0.2865 -0.2030  0.0328
   12CHTO  H206 4703   5.151   1.509   3.046  2.6292 -2.5074 -0.2080
   12CHTO  C121 4704   5.068   1.210   2.762  0.1897 -0.1269 -0.1531
   12CHTO  H225 4705   5.042   1.164   2.859  1.0324 -1.5464 -0.5886
   12CHTO   O81 4706   4.956   1.190   2.676  0.1045 -0.1025 -0.2765
   12CHTO  H202 4707   4.892   1.255   2.698 -0.0677  0.1724 -1.5246
   12CHTO  C119 4708   5.188   1.138   2.694 -0.1523 -0.0062  0.4781
   12CHTO  H223 4709   5.266   1.139   2.770  0.0048  0.8509  0.3067
   12CHTO  C117 4710   5.253   1.219   2.563 -0.6388 -0.4142  0.1878
   12CHTO  H221 4711   5.187   1.231   2.478  1.3706 -1.0545 -1.4976
   12CHTO   N20 4712   5.379   1.159   2.511  0.2271 -0.5148  0.1666
   12CHTO  H209 4713   5.459   1.231   2.503 -0.8843  0.6039 -1.2816
   12CHTO  H210 4714   5.349   1.116   2.417  1.9553 -1.6971  0.1392
   12CHTO   O80 4715   5.167   0.971   2.689  0.0170  0.2276 -0.1199
   12CHTO  C103 4716   5.065   0.908   2.605  0.3861 -0.7565 -0.2261
   12CHTO  H190 4717   4.979   0.974   2.604 -0.1136 -1.4112 -0.6639
   12CHTO  C101 4718   5.108   0.882   2.453 -0.6860  0.2885 -0.6884
   12CHTO  H188 4719   5.210   0.846   2.458 -0.6208  0.5496 -0.0950
   12CHTO   O68 4720   5.101   1.015   2.382 -0.5175  0.0084  0.0874
   12CHTO  H168 4721   5.112   1.002   2.290 -0.8355  0.5804 -0.0375
   12CHTO   C99 4722   5.014   0.770   2.384  0.2673  0.0985 -0.2727
   12CHTO  H186 4723   4.915   0.819   2.369 -0.0707 -0.7317 -0.7926
   12CHTO   N17 4724   5.068   0.724   2.250 -0.2538  0.4375  0.4797
   12CHTO  H174 4725   5.150   0.787   2.217  1.6003 -0.8019  2.6311
   12CHTO  H175 4726   5.107   0.624   2.251  1.3287  1.0340  0.8516
   12CHTO   C97 4727   4.991   0.652   2.481  0.9750  0.7116 -0.8318
   12CHTO  H184 4728   5.089   0.607   2.501  0.5951  0.1762 -0.1481
   12CHTO   O64 4729   4.935   0.703   2.601 -0.6873  0.5262 -0.6034
   12CHTO  C104 4730   5.026   0.777   2.681  0.1733  0.2431  0.4051
   12CHTO  H191 4731   5.114   0.714   2.692 -0.9995 -1.0933  2.2090
   12CHTO  C108 4732   4.973   0.803   2.819  0.3391 -0.3777 -0.0201
   12CHTO   O71 4733   4.959   0.677   2.882  0.3375  0.1187 -0.4016
   12CHTO  H171 4734   4.975   0.687   2.973  0.5154  0.8995 -0.5155
   12CHTO   O62 4735   4.895   0.552   2.443 -0.1888  0.1027  0.1504
   12CHTO   C91 4736   4.899   0.429   2.523 -0.6101  0.7779  0.7607
   12CHTO  H178 4737   4.944   0.451   2.619  0.1614  0.5281  0.4611
   12CHTO   C92 4738   4.983   0.320   2.462 -0.1258 -0.2276  0.7371
   12CHTO  H179 4739   4.946   0.312   2.359  0.9882 -0.0212  0.3165
   12CHTO   O66 4740   5.118   0.368   2.458 -0.2598 -0.2313 -0.6386
   12CHTO  H166 4741   5.166   0.307   2.403  0.3361 -0.1685 -0.1918
   12CHTO   C93 4742   4.969   0.176   2.540 -0.4396 -0.4292  0.3759
   12CHTO  H180 4743   5.006   0.200   2.641 -1.4732  0.7164  0.4989
   12CHTO   N16 4744   5.058   0.063   2.485 -0.2388  0.4943 -0.6822
   12CHTO  H172 4745   5.122   0.095   2.404  0.3307 -0.7431 -0.7244
   12CHTO  H173 4746   5.118   0.022   2.565 -0.1259 -0.4976 -1.2655
   12CHTO   C94 4747   4.817   0.136   2.542 -0.1146  0.7252  0.0428
   12CHTO  H181 4748   4.779   0.126   2.440  3.4829 -1.0232 -1.1936
   12CHTO   O61 4749   4.743   0.235   2.618  0.0582  0.5177 -0.5909
   12CHTO   C95 4750   4.747   0.363   2.544  0.4887 -0.4431  0.6471
   12CHTO  H182 4751   4.701   0.350   2.446 -1.3999 -0.1346  1.4726
   12CHTO  C106 4752   4.653   0.464   2.626  0.0978 -0.2789  0.4029
   12CHTO   O69 4753   4.526   0.404   2.646 -0.6041 -0.0796  0.0975
   12CHTO  H169 4754   4.499   0.414   2.735 -2.0481  0.9267 -0.4289
   12CHTO   O63 4755   4.776  -0.010   2.622  0.5710 -0.3148 -0.1911
   12CHTO   C96 4756   4.866  -0.069   2.736 -0.3933 -0.5276 -0.3820
   12CHTO  H183 4757   4.949  -0.000   2.754 -1.7925  0.6321  1.8989
   12CHTO   C98 4758   4.913  -0.217   2.718 -0.8495 -0.3445  0.5061
   12CHTO  H185 4759   4.819  -0.273   2.701 -0.7075 -0.7650  1.0834
   12CHTO   O67 4760   4.994  -0.228   2.598  0.0754 -0.6113  0.2733
   12CHTO  H167 4761   5.037  -0.151   2.566  1.0449  0.0188  2.9742
   12CHTO  C102 4762   4.979  -0.274   2.850 -0.4481 -0.3781  0.1493
   12CHTO  H189 4763   5.070  -0.212   2.854 -1.9625  1.7784  1.9257
   12CHTO   N18 4764   5.027  -0.413   2.830 -0.0642  0.1952  0.1524
   12CHTO  H176 4765   5.110  -0.398   2.763  0.8382 -0.1533  1.1575
   12CHTO  H177 4766   5.061  -0.452   2.926 -0.7725 -0.7317  0.0364
   12CHTO  C105 4767   4.886  -0.249   2.974 -0.1939 -0.1075 -0.0731
   12CHTO  H192 4768   4.797  -0.311   2.965 -0.4326 -0.1679  2.3535
   12CHTO   O65 4769   4.847  -0.111   2.998 -0.1623 -0.3911  0.0375
   12CHTO  C100 4770   4.783  -0.054   2.876 -0.2741  0.4987  0.0795
   12CHTO  H187 4771   4.697  -0.121   2.862 -0.1624  0.3124  0.2742
   12CHTO  C107 4772   4.736   0.091   2.909  0.2781  0.0248  0.5952
   12CHTO   O70 4773   4.846   0.174   2.939 -0.1052 -0.4124 -0.4096
   12CHTO  H170 4774   4.824   0.259   2.971  0.7263 -0.8276  1.3431
   12CHTO   O57 4775   4.974  -0.283   3.096 -0.3670  0.0926 -0.0081
   12CHTO   C85 4776   4.912  -0.363   3.205 -0.3101 -0.3347 -0.3577
   12CHTO  H157 4777   4.850  -0.431   3.143 -0.2300 -1.7600  1.1042
   12CHTO   C83 4778   4.833  -0.262   3.290 -0.3686 -0.0596 -0.0340
   12CHTO  H155 4779   4.758  -0.210   3.231 -0.0070  1.2047  0.6047
   12CHTO   O56 4780   4.923  -0.154   3.337 -0.1017  0.4563  0.1851
   12CHTO  H135 4781   4.989  -0.192   3.392 -0.5026  1.2040  1.1913
   12CHTO   C81 4782   4.762  -0.346   3.403 -0.9606 -0.2191 -0.0129
   12CHTO  H153 4783   4.704  -0.419   3.347 -0.2076 -0.8064 -0.0284
   12CHTO   N14 4784   4.667  -0.268   3.477  0.0676 -0.1966  0.7697
   12CHTO  H141 4785   4.665  -0.166   3.446 -1.5681 -0.3164  0.4519
   12CHTO  H142 4786   4.697  -0.278   3.579 -1.3662 -4.1353  0.9037
   12CHTO   C79 4787   4.864  -0.421   3.496  0.2938  0.0484  0.1193
   12CHTO  H151 4788   4.811  -0.493   3.559  2.2192  0.8004  2.6748
   12CHTO   O52 4789   4.938  -0.510   3.408 -0.4652 -0.3004 -0.0805
   12CHTO   C86 4790   5.002  -0.444   3.303 -0.1221 -0.0915 -0.4506
   12CHTO  H158 4791   5.077  -0.374   3.347 -1.3445  0.1137  1.3548
   12CHTO   C90 4792   5.088  -0.550   3.226  0.5310  0.2337 -0.0638
   12CHTO   O60 4793   5.193  -0.491   3.152  0.6627  0.1998  0.3348
   12CHTO  H138 4794   5.172  -0.478   3.062 -0.1268 -0.5027  0.4041
   12CHTO   O50 4795   4.942  -0.331   3.584  0.1083  0.0397 -0.0187
   12CHTO   C73 4796   5.015  -0.365   3.704 -0.0641 -0.5144 -0.2091
   12CHTO  H145 4797   4.950  -0.417   3.776  0.9972 -0.2116  0.9915
   12CHTO   C74 4798   5.071  -0.232   3.758  0.9317  0.4000 -0.0196
   12CHTO  H146 4799   4.985  -0.164   3.774  0.4066 -0.0520 -0.9034
   12CHTO   O54 4800   5.111  -0.250   3.901 -0.2781  0.0412  0.8865
   12CHTO  H133 4801   5.184  -0.309   3.901 -0.3876 -0.1208 -0.5396
   12CHTO   C75 4802   5.186  -0.164   3.666  0.4360 -0.7639  0.6123
   12CHTO  H147 4803   5.145  -0.129   3.570  1.4232  0.3478  0.5768
   12CHTO   N13 4804   5.230  -0.035   3.720  0.0506 -0.4831  0.4462
   12CHTO  H139 4805   5.331  -0.011   3.689 -0.6186  0.5437 -0.9789
   12CHTO  H140 4806   5.222  -0.045   3.827  1.3865 -2.1789  0.4075
   12CHTO   C76 4807   5.300  -0.264   3.630 -0.3052  0.2054  0.5717
   12CHTO  H148 4808   5.359  -0.278   3.721  1.4352  0.0273 -0.5593
   12CHTO   O49 4809   5.243  -0.393   3.588  0.2067  0.0568 -0.5904
   12CHTO   C77 4810   5.140  -0.443   3.677  0.2211 -0.3577 -0.5578
   12CHTO  H149 4811   5.189  -0.464   3.772  1.2454  0.1413 -0.9764
   12CHTO   C88 4812   5.123  -0.588   3.628  0.2090  0.7778 -0.5635
   12CHTO   O58 4813   5.246  -0.672   3.659  0.2102 -0.0480  0.5299
   12CHTO  H136 4814   5.316  -0.646   3.602 -1.0361  1.8806 -0.1879
   12CHTO   O51 4815   5.373  -0.209   3.493  0.6219  0.0861 -0.2449
   12CHTO   C78 4816   5.530  -0.274   3.487 -0.3352  0.1838  0.0133
   12CHTO  H150 4817   5.535  -0.360   3.557 -0.2492  0.4279  0.3098
   12CHTO   C80 4818   5.626  -0.162   3.529  0.1670 -0.0092  0.6432
   12CHTO  H152 4819   5.598  -0.068   3.477 -1.4118 -0.8298 -0.0046
   12CHTO   O55 4820   5.597  -0.142   3.670  0.1258 -0.5580  0.3821
   12CHTO  H134 4821   5.604  -0.051   3.687  0.4610 -0.1129 -1.9418
   12CHTO   C84 4822   5.776  -0.185   3.507 -0.2273 -0.7453  0.4459
   12CHTO  H156 4823   5.811  -0.243   3.593  0.9306 -0.2561  0.3155
   12CHTO   N15 4824   5.848  -0.058   3.522  0.4083  0.1203 -0.0344
   12CHTO  H143 4825   5.781   0.019   3.552  0.3712  1.3891 -3.2057
   12CHTO  H144 4826   5.931  -0.070   3.589 -1.2042  0.4187  2.0867
   12CHTO   C87 4827   5.796  -0.257   3.365 -0.0181 -0.1568 -0.1598
   12CHTO  H159 4828   5.780  -0.187   3.282 -0.0484  0.8662  0.6985
   12CHTO   O53 4829   5.695  -0.374   3.347 -0.3628  1.0498  0.5700
   12CHTO   C82 4830   5.556  -0.332   3.348 -0.3198  0.5942 -0.0160
   12CHTO  H154 4831   5.546  -0.261   3.266 -0.5341  1.1567  0.4858
   12CHTO   C89 4832   5.463  -0.438   3.323  0.1379 -0.7602 -0.4665
   12CHTO   O59 4833   5.489  -0.490   3.197  0.6342  0.5197 -0.3591
   12CHTO  H137 4834   5.419  -0.548   3.176  0.2872 -0.1559  2.3911
   12CHTO   O45 4835   5.968  -0.306   3.359 -0.2266 -0.1402  0.8976
   12CHTO   C67 4836   6.044  -0.295   3.234  0.0185  0.3250  0.1293
   12CHTO  H124 4837   6.141  -0.336   3.264 -0.5999  0.6118  2.6262
   12CHTO   C65 4838   5.982  -0.375   3.111 -0.0794 -0.8667 -0.3661
   12CHTO  H122 4839   5.898  -0.434   3.148 -1.8102  0.2950 -2.3503
   12CHTO   O44 4840   6.075  -0.458   3.049 -0.0651 -0.3212 -0.3300
   12CHTO  H102 4841   6.035  -0.503   2.977 -1.5598 -0.5875  0.6447
   12CHTO   C63 4842   5.921  -0.265   3.015  0.0381 -0.1541  0.2990
   12CHTO  H120 4843   5.862  -0.197   3.076 -2.1870 -2.5568  0.9274
   12CHTO   N11 4844   5.823  -0.309   2.906  0.1204  0.6812 -0.4164
   12CHTO  H108 4845   5.749  -0.372   2.950  1.0727  0.0465  0.2996
   12CHTO  H109 4846   5.776  -0.234   2.845  1.8408  2.9528  0.9534
   12CHTO   C61 4847   6.042  -0.185   2.954  0.1267 -0.1921  0.3134
   12CHTO  H118 4848   5.996  -0.107   2.892  0.7759 -1.2318 -1.5036
   12CHTO   O40 4849   6.112  -0.116   3.062  0.0490 -0.0367  0.2611
   12CHTO   C68 4850   6.075  -0.139   3.198 -0.4635  0.5696  0.0784
   12CHTO  H125 4851   5.988  -0.073   3.222  0.5935  1.3296  1.9764
   12CHTO   C72 4852   6.190  -0.085   3.284 -0.8081  0.1231 -0.8211
   12CHTO   O48 4853   6.179  -0.109   3.425 -0.2748 -0.7277 -0.1589
   12CHTO  H105 4854   6.090  -0.110   3.453 -0.1589  0.1381  0.2480
   12CHTO   O38 4855   6.136  -0.261   2.870 -0.0800 -0.1044 -0.2101
   12CHTO   C55 4856   6.217  -0.201   2.769  0.6164 -0.2135  0.8787
   12CHTO  H112 4857   6.223  -0.094   2.795 -0.0310 -0.1966  0.9594
   12CHTO   C56 4858   6.162  -0.216   2.626  0.1236  0.2598  0.7951
   12CHTO  H113 4859   6.146  -0.324   2.620 -0.2647  0.4007 -1.0758
   12CHTO   O42 4860   6.027  -0.159   2.620  0.6149  0.0688 -0.1639
   12CHTO  H100 4861   5.995  -0.172   2.533 -0.4496 -0.9212  0.3690
   12CHTO   C57 4862   6.257  -0.160   2.519 -0.0612  0.5773  0.7146
   12CHTO  H114 4863   6.256  -0.052   2.529 -0.9522  0.7294 -0.7989
   12CHTO   N10 4864   6.221  -0.216   2.383 -0.4365  0.5753 -0.0691
   12CHTO  H106 4865   6.260  -0.150   2.306 -0.5271  1.2854  0.4855
   12CHTO  H107 4866   6.114  -0.222   2.371 -0.4501 -3.7250  1.3846
   12CHTO   C58 4867   6.400  -0.213   2.545 -0.3732  0.5781 -0.1780
   12CHTO  H115 4868   6.399  -0.324   2.555  0.9989  0.4601 -1.2619
   12CHTO   O37 4869   6.436  -0.163   2.676 -0.1094  0.3649  0.8836
   12CHTO   C59 4870   6.364  -0.243   2.782 -0.2957  0.0103 -0.2824
   12CHTO  H116 4871   6.394  -0.347   2.772 -1.1093 -0.3688  1.1316
   12CHTO   C70 4872   6.425  -0.203   2.919  0.4508  0.3313 -0.2317
   12CHTO   O46 4873   6.379  -0.294   3.020  0.2366 -0.2636  0.2992
   12CHTO  H103 4874   6.358  -0.373   2.974 -0.6577 -0.1000  0.4181
   12CHTO   O39 4875   6.506  -0.170   2.453  0.9184  0.6804  0.0737
   12CHTO   C60 4876   6.624  -0.259   2.454 -0.1311  1.1838 -0.1133
   12CHTO  H117 4877   6.633  -0.326   2.539 -0.4396  0.3610 -0.7302
   12CHTO   C62 4878   6.628  -0.358   2.334  0.2407  0.1460 -0.2971
   12CHTO  H119 4879   6.528  -0.406   2.333 -0.6197  1.8734  1.0721
   12CHTO   O43 4880   6.612  -0.283   2.212 -0.3792 -0.7562  0.0988
   12CHTO  H101 4881   6.527  -0.300   2.178  0.1243 -0.3302 -1.4070
   12CHTO   C66 4882   6.752  -0.456   2.336  0.7691 -0.1673 -0.0367
   12CHTO  H123 4883   6.749  -0.507   2.432  1.9887  0.7572  0.5010
   12CHTO   N12 4884   6.752  -0.574   2.230 -0.1846 -0.0907 -0.1076
   12CHTO  H110 4885   6.722  -0.668   2.273  0.7734  0.7880  2.5864
   12CHTO  H111 4886   6.708  -0.550   2.135  0.7344  1.1518 -0.2375
   12CHTO   C69 4887   6.884  -0.378   2.351  0.6035 -0.3203 -0.2287
   12CHTO  H126 4888   6.907  -0.324   2.256  0.7947  0.3393  0.1909
   12CHTO   O41 4889   6.881  -0.267   2.468  0.2413 -0.2716 -0.3344
   12CHTO   C64 4890   6.745  -0.162   2.462  0.1012 -0.4021  0.2763
   12CHTO  H121 4891   6.745  -0.105   2.367 -0.2121 -1.5489 -0.4259
   12CHTO   C71 4892   6.772  -0.078   2.591 -0.5931 -0.3469  0.0729
   12CHTO   O47 4893   6.862   0.024   2.553  0.4636  0.1574 -0.1367
   12CHTO  H104 4894   6.851   0.107   2.595  0.9439 -0.0252  0.3480
   12CHTO   O34 4895   6.996  -0.489   2.378 -0.4095 -0.8429  0.6150
   12CHTO   C49 4896   7.150  -0.483   2.326  0.2961 -0.0172 -0.4626
   12CHTO   H91 4897   7.155  -0.478   2.217  1.8647 -0.0217 -0.4028
   12CHTO   C47 4898   7.230  -0.608   2.364 -0.5858  0.3716 -0.0377
   12CHTO   H89 4899   7.323  -0.617   2.304 -0.4218 -2.7072  0.6063
   12CHTO   O33 4900   7.152  -0.727   2.329  0.1825 -0.3118 -0.5016
   12CHTO   H70 4901   7.179  -0.763   2.246  1.8977 -1.7130  0.6271
   12CHTO   C45 4902   7.275  -0.608   2.524  0.5073  0.6703  0.0018
   12CHTO   H87 4903   7.224  -0.690   2.576  1.4714  0.5739  0.8073
   12CHTO    N8 4904   7.419  -0.620   2.542 -0.2526  0.2638 -0.2015
   12CHTO   H75 4905   7.466  -0.613   2.445 -4.3324 -0.5005 -2.3150
   12CHTO   H76 4906   7.447  -0.712   2.591  2.2141  0.3099 -1.4652
   12CHTO   C43 4907   7.214  -0.477   2.598  0.2333 -0.2222  0.0017
   12CHTO   H85 4908   7.106  -0.493   2.590  0.2565 -1.5205  1.9481
   12CHTO   O29 4909   7.255  -0.358   2.524  0.3728  0.5452  0.4829
   12CHTO   C50 4910   7.225  -0.359   2.379 -0.3511 -0.4869  0.9583
   12CHTO   H92 4911   7.166  -0.270   2.352  3.2160  1.6088 -0.2729
   12CHTO   C54 4912   7.349  -0.320   2.291 -0.3485  0.4405  0.7067
   12CHTO   O36 4913   7.411  -0.199   2.331  0.3998  0.9520 -0.2496
   12CHTO   H72 4914   7.505  -0.193   2.327  0.7044  0.1701  3.4526
   12CHTO   O27 4915   7.239  -0.472   2.741 -0.4895  0.7538  0.5898
   12CHTO   C37 4916   7.165  -0.448   2.854 -0.0935  0.1798 -0.6441
   12CHTO   H79 4917   7.225  -0.396   2.930  0.2939 -1.0782 -0.0830
   12CHTO   C38 4918   7.038  -0.363   2.831 -0.2703 -0.1086 -0.7925
   12CHTO   H80 4919   6.969  -0.410   2.759 -0.8882  0.5675 -0.6532
   12CHTO   O31 4920   7.090  -0.242   2.783  0.1723  0.4043  0.2670
   12CHTO   H68 4921   7.132  -0.265   2.702 -0.4566 -1.5768  0.5043
   12CHTO   C39 4922   6.944  -0.355   2.967 -0.6719  0.1043 -0.0178
   12CHTO   H81 4923   6.998  -0.301   3.045  0.5587 -2.1507  0.7498
   12CHTO    N7 4924   6.814  -0.286   2.936  0.2085  0.2819 -0.1378
   12CHTO   H73 4925   6.834  -0.195   2.881 -1.8328  0.8261 -0.0348
   12CHTO   H74 4926   6.743  -0.357   2.897 -0.7643  1.3118 -0.2800
   12CHTO   C40 4927   6.924  -0.495   3.025 -0.1233 -0.1459 -0.2257
   12CHTO   H82 4928   6.864  -0.558   2.960  0.9688 -0.8736 -0.5462
   12CHTO   O26 4929   7.052  -0.549   3.047 -0.0659  0.5678 -0.0686
   12CHTO   C41 4930   7.119  -0.582   2.915 -0.8839  0.1448 -0.0546
   12CHTO   H83 4931   7.055  -0.641   2.847  1.1377  1.0949 -2.8637
   12CHTO   C52 4932   7.238  -0.677   2.942 -0.4797  0.5126 -0.4877
   12CHTO   O35 4933   7.231  -0.799   3.031  0.1758 -0.0812  0.1456
   12CHTO   H71 4934   7.165  -0.856   2.996 -0.0361  1.1688 -1.5394
   12CHTO   O28 4935   6.863  -0.483   3.154  0.9679  0.1797 -0.0667
   12CHTO   C42 4936   6.784  -0.591   3.217  0.1506  0.2766 -0.8814
   12CHTO   H84 4937   6.828  -0.598   3.317 -0.1379 -0.9708 -0.8453
   12CHTO   C44 4938   6.788  -0.735   3.157 -0.1025 -0.0817 -0.7177
   12CHTO   H86 4939   6.750  -0.731   3.055 -1.8629 -0.2488 -0.0908
   12CHTO   O32 4940   6.923  -0.783   3.161  0.0909 -0.2425  0.3550
   12CHTO   H69 4941   6.954  -0.789   3.249  1.1727 -3.0576 -0.1614
   12CHTO   C48 4942   6.696  -0.835   3.239 -0.4291  0.1130  0.1298
   12CHTO   H90 4943   6.734  -0.853   3.339  1.7884 -2.3304 -1.0851
   12CHTO    N9 4944   6.694  -0.971   3.176 -0.2018 -0.3492  0.6372
   12CHTO   H77 4945   6.697  -1.064   3.230  0.9512 -1.5027 -1.3271
   12CHTO   H78 4946   6.620  -0.974   3.097  0.0852 -0.8775  0.3887
   12CHTO   C51 4947   6.553  -0.770   3.246  0.4988 -0.8969 -0.2578
   12CHTO   H93 4948   6.513  -0.763   3.144  2.2620 -0.3315 -0.9265
   12CHTO   O30 4949   6.570  -0.635   3.304 -0.0301  0.3618 -0.0447
   12CHTO   C46 4950   6.634  -0.542   3.236  0.1457 -0.5025 -0.2760
   12CHTO   H88 4951   6.590  -0.526   3.137 -0.0397 -0.4975 -0.1934
   12CHTO   C53 4952   6.616  -0.410   3.316  0.4220  0.3723 -0.0125
   12CHTO   O72 4953   6.664  -0.298   3.235  0.1561 -0.1962 -0.4572
   12CHTO  H199 4954   6.652  -0.215   3.277  1.9227  0.3662 -1.0234
   12CHTO   O22 4955   6.475  -0.836   3.340  0.1109  0.1337  0.3543
   12CHTO   C31 4956   6.325  -0.818   3.348 -0.1592 -0.1280 -0.5637
   12CHTO   H59 4957   6.285  -0.905   3.404  0.1405  0.2639  0.2828
   12CHTO   C29 4958   6.291  -0.688   3.426 -0.3011  0.4485  0.6678
   12CHTO   H57 4959   6.316  -0.609   3.353  2.3682 -1.7311 -0.8825
   12CHTO   O21 4960   6.371  -0.678   3.542 -0.1725 -0.6538  0.4599
   12CHTO   H37 4961   6.337  -0.742   3.602 -2.7137  0.8169  0.6258
   12CHTO   C27 4962   6.135  -0.688   3.452 -0.1913 -1.2573 -0.4410
   12CHTO   H55 4963   6.103  -0.778   3.507 -0.4580 -1.7329 -1.3494
   12CHTO    N5 4964   6.091  -0.572   3.532  0.3317 -0.1769 -0.5589
   12CHTO   H43 4965   6.146  -0.488   3.492  1.2714 -1.0792 -1.1943
   12CHTO   H44 4966   6.109  -0.585   3.637  0.2547  0.3565 -0.4764
   12CHTO   C25 4967   6.064  -0.697   3.319  0.5050 -0.9273  0.1894
   12CHTO   H53 4968   6.083  -0.605   3.261 -0.3885 -0.5228  0.5325
   12CHTO   O17 4969   6.106  -0.812   3.240  0.0410  0.1781  0.2843
   12CHTO   C32 4970   6.246  -0.810   3.212  0.6926  0.0026  0.5660
   12CHTO   H60 4971   6.273  -0.722   3.155 -2.0669  0.4639 -0.1078
   12CHTO   C36 4972   6.272  -0.936   3.131 -0.0342  0.2635 -0.4027
   12CHTO   O25 4973   6.301  -0.899   2.989 -0.7181 -0.6300  0.0124
   12CHTO   H40 4974   6.296  -0.978   2.939 -1.0559 -1.9275  2.0293
   12CHTO   O15 4975   5.913  -0.698   3.336 -0.5684 -0.1152  1.0285
   12CHTO   C19 4976   5.789  -0.706   3.265 -0.0751 -0.4128  0.0834
   12CHTO   H47 4977   5.751  -0.602   3.259  2.2250  0.4731  0.4983
   12CHTO   C20 4978   5.776  -0.753   3.118  0.0569  0.5150  0.9116
   12CHTO   H48 4979   5.810  -0.857   3.105  2.5701  1.1134  2.4690
   12CHTO   O19 4980   5.867  -0.683   3.034 -0.1991 -0.3739  0.3181
   12CHTO   H35 4981   5.827  -0.616   2.982  1.8131 -0.6925 -1.6840
   12CHTO   C21 4982   5.631  -0.737   3.064 -0.4811  0.2322  0.2793
   12CHTO   H49 4983   5.616  -0.631   3.043  1.0541  0.1047 -1.6194
   12CHTO    N4 4984   5.602  -0.796   2.927 -0.4332 -0.2917 -0.5946
   12CHTO   H41 4985   5.631  -0.900   2.934 -0.6437 -0.2669  0.6334
   12CHTO   H42 4986   5.500  -0.791   2.891 -0.0680 -0.5476 -1.6824
   12CHTO   C22 4987   5.521  -0.796   3.160 -0.0926  0.5933 -0.1389
   12CHTO   H50 4988   5.526  -0.904   3.146 -0.4535  0.2782  1.9805
   12CHTO   O14 4989   5.548  -0.753   3.297  0.4393 -0.6073  0.7914
   12CHTO   C23 4990   5.678  -0.776   3.349 -0.0895 -0.2903  0.3335
   12CHTO   H51 4991   5.678  -0.885   3.337 -0.3031 -0.2074 -0.4174
   12CHTO   C34 4992   5.670  -0.730   3.497 -0.1099  1.1124 -0.7747
   12CHTO   O23 4993   5.572  -0.803   3.577  0.1480  0.1362 -0.8631
   12CHTO   H38 4994   5.574  -0.896   3.569  0.8839  0.0526  0.2634
   12CHTO   O16 4995   5.387  -0.751   3.130 -0.2426  0.1777  0.3375
   12CHTO   C24 4996   5.301  -0.857   3.045  0.1321  0.4772 -0.1467
   12CHTO   H52 4997   5.365  -0.935   3.003  0.5442  0.3987  0.6284
   12CHTO   C26 4998   5.220  -0.768   2.946  0.3852  0.1150  0.8099
   12CHTO   H54 4999   5.154  -0.697   3.001  0.3807  0.7763 -0.0387
   12CHTO   O20 5000   5.322  -0.696   2.867  0.0598  0.7263 -0.2669
   12CHTO   H36 5001   5.372  -0.642   2.926  0.2253  0.9193 -0.5875
   12CHTO   C30 5002   5.132  -0.858   2.853 -0.2767 -0.5489 -0.1733
   12CHTO   H58 5003   5.196  -0.929   2.800 -0.2980 -1.9371  1.6207
   12CHTO    N6 5004   5.070  -0.783   2.743  0.0471 -0.0457 -0.4881
   12CHTO   H45 5005   5.135  -0.738   2.670  1.6967 -1.8165 -0.1447
   12CHTO   H46 5006   5.014  -0.705   2.792  2.0247  0.1509  1.5353
   12CHTO   C33 5007   5.040  -0.948   2.940 -0.5175  0.3052 -0.2230
   12CHTO   H61 5008   4.954  -0.891   2.981 -1.3430  0.1182 -1.6573
   12CHTO   O18 5009   5.108  -1.006   3.054 -0.6298 -0.1972 -0.6682
   12CHTO   C28 5010   5.197  -0.923   3.131  0.7079 -0.1409  0.6192
   12CHTO   H56 5011   5.137  -0.846   3.181  0.3171 -1.6088  2.4559
   12CHTO   C35 5012   5.264  -1.015   3.241 -0.7267 -0.4019 -0.1780
   12CHTO   O24 5013   5.179  -1.077   3.340  0.3446  0.0561 -0.5440
   12CHTO   H39 5014   5.126  -1.139   3.295 -1.0707  0.0096  1.1062
   12CHTO    O9 5015   4.981  -1.054   2.861 -0.0076  0.2256  0.4036
   12CHTO   C13 5016   5.058  -1.181   2.850 -0.7083 -0.5549 -0.0356
   12CHTO   H26 5017   5.152  -1.183   2.908 -0.8074 -0.9305  0.1102
   12CHTO   C11 5018   5.084  -1.204   2.700 -0.4851  0.0296 -0.8170
   12CHTO   H24 5019   5.166  -1.134   2.680  0.1957 -0.6533 -0.4557
   12CHTO    O8 5020   4.966  -1.177   2.622  0.1575  0.0020  0.1787
   12CHTO    H3 5021   4.985  -1.122   2.548 -2.0537  1.3217  0.5301
   12CHTO    C9 5022   5.143  -1.344   2.676  0.2886  0.2272 -0.0609
   12CHTO   H22 5023   5.240  -1.347   2.727  0.4589  0.5095 -0.3622
   12CHTO    N2 5024   5.169  -1.374   2.535 -0.3199  0.2934 -0.0550
   12CHTO   H10 5025   5.244  -1.450   2.518 -0.6921  0.2254 -1.4330
   12CHTO   H11 5026   5.084  -1.394   2.471  0.3414 -1.1022 -0.5201
   12CHTO    C7 5027   5.054  -1.462   2.748  0.7833 -0.8488 -0.0927
   12CHTO   H20 5028   5.126  -1.546   2.750  0.2503 -1.2835  2.9855
   12CHTO    O4 5029   5.037  -1.427   2.891  0.1339 -0.2051  0.0605
   12CHTO   C14 5030   4.983  -1.300   2.924  0.2185  0.2012  0.1658
   12CHTO   H27 5031   4.996  -1.287   3.034 -3.1458 -0.1307  0.6643
   12CHTO   C18 5032   4.833  -1.286   2.902  0.0717  0.4679  0.2154
   12CHTO   O13 5033   4.771  -1.409   2.951 -0.2846 -0.5096  0.0420
   12CHTO    H7 5034   4.746  -1.403   3.042 -0.2042  2.1235 -0.0885
   12CHTO    O2 5035   4.912  -1.504   2.673  0.6941  0.1425  0.2001
   12CHTO    C1 5036   4.896  -1.645   2.637  0.4796 -0.8655 -0.0506
   12CHTO   H14 5037   4.994  -1.696   2.624  0.1890 -1.6216  0.6658
   12CHTO    C2 5038   4.818  -1.670   2.495  0.3268  0.0037 -0.0543
   12CHTO   H15 5039   4.741  -1.592   2.484  1.8991  1.5570 -0.3009
   12CHTO    O6 5040   4.911  -1.631   2.394  0.2506  0.1220 -0.2957
   12CHTO    H1 5041   4.881  -1.668   2.313  1.7093 -2.1600  0.1629
   12CHTO    C3 5042   4.766  -1.819   2.477 -0.2673  0.3511  0.3355
   12CHTO   H16 5043   4.857  -1.872   2.447 -1.0351 -0.2945 -0.8940
   12CHTO    N1 5044   4.669  -1.827   2.363 -0.2283  0.0614 -0.1119
   12CHTO    H8 5045   4.576  -1.882   2.374 -1.4330  2.3459  1.4853
   12CHTO    H9 5046   4.716  -1.860   2.272 -0.6773  2.3789 -1.2113
   12CHTO    C4 5047   4.723  -1.886   2.612  0.6091  0.1032  0.3744
   12CHTO   H17 5048   4.632  -1.840   2.650 -0.0477  0.8457 -1.9763
   12CHTO    O1 5049   4.825  -1.861   2.709 -0.2583 -0.1455  0.4116
   12CHTO    C5 5050   4.824  -1.730   2.751  0.3013 -0.0378 -0.8647
   12CHTO   H18 5051   4.718  -1.708   2.765  0.0649 -0.6358 -1.6847
   12CHTO   C16 5052   4.890  -1.731   2.895 -0.0396  0.6862 -0.8525
   12CHTO   O11 5053   4.805  -1.758   3.011 -0.8023 -0.3353 -0.2744
   12CHTO    H5 5054   4.851  -1.724   3.086  0.2496 -0.6676 -0.7519
   12CHTO    O3 5055   4.690  -2.023   2.601  0.0809  0.8453 -0.0386
   12CHTO    C6 5056   4.637  -2.095   2.712 -0.5978  0.1353 -0.3777
   12CHTO   H19 5057   4.671  -2.041   2.801 -1.0181  2.9819 -1.8727
   12CHTO    C8 5058   4.483  -2.115   2.719  0.5099  0.2266 -0.0158
   12CHTO   H21 5059   4.452  -2.162   2.626 -1.6313 -2.2322  1.8725
   12CHTO    O7 5060   4.428  -1.982   2.725 -0.0656 -0.0627  0.8070
   12CHTO    H2 5061   4.334  -1.983   2.728 -0.0809  1.9714  1.6909
   12CHTO   C12 5062   4.440  -2.208   2.842  0.0414 -0.0095 -0.1158
   12CHTO   H25 5063   4.468  -2.153   2.935 -2.6020  1.5965 -0.2308
   12CHTO    N3 5064   4.293  -2.222   2.844 -0.5946 -0.4246  0.1163
   12CHTO   H12 5065   4.249  -2.124   2.843  0.1813 -0.0494  1.2547
   12CHTO   H13 5066   4.264  -2.283   2.760  0.3363  0.0430 -0.5500
   12CHTO   C15 5067   4.519  -2.342   2.838 -1.1700 -0.1569  0.0951
   12CHTO   H28 5068   4.497  -2.393   2.744 -0.1696  2.0758 -1.3981
   12CHTO   O10 5069   4.498  -2.424   2.981 -0.3749 -0.3437  0.2048
   12CHTO    H4 5070   4.406  -2.431   3.000 -0.6286 -2.1108 -1.5394
   12CHTO    O5 5071   4.659  -2.307   2.845  0.1250  0.2805 -0.3487
   12CHTO   C10 5072   4.707  -2.240   2.724 -0.8936  0.0849  0.4694
   12CHTO   H23 5073   4.686  -2.296   2.633 -2.1091  2.3598 -0.6961
   12CHTO   C17 5074   4.860  -2.217   2.732  0.2131 -0.4615 -0.7537
   12CHTO   O12 5075   4.904  -2.218   2.596  0.6113 -0.5778 -0.4900
   12CHTO    H6 5076   4.996  -2.228   2.584  0.9201  2.3902 -0.9282
   13CHTO  H203 5077   8.960   4.673   1.728  0.8288  0.6479  0.4957
   13CHTO   O82 5078   8.934   4.742   1.786 -0.0943  0.5926  0.1537
   13CHTO  C123 5079   8.846   4.823   1.714  0.3098  1.5259 -0.3421
   13CHTO  H227 5080   8.842   4.791   1.609  2.8347  1.5854 -0.4821
   13CHTO   O77 5081   8.716   4.795   1.773 -0.5879 -0.4935  0.6084
   13CHTO  C118 5082   8.602   4.844   1.706  0.5041 -0.7608  0.2339
   13CHTO  H222 5083   8.601   4.810   1.601 -0.5863  0.7960 -0.2780
   13CHTO  C125 5084   8.472   4.793   1.779  0.5038 -0.3682  0.2323
   13CHTO   O84 5085   8.357   4.825   1.692 -1.1766 -0.1078 -0.1396
   13CHTO  H205 5086   8.278   4.797   1.734 -2.6628  0.3204 -2.5795
   13CHTO  C114 5087   8.608   4.995   1.702  0.3166 -0.1412  0.1300
   13CHTO  H218 5088   8.596   5.028   1.805 -0.2345 -0.3898  0.1435
   13CHTO  C116 5089   8.746   5.051   1.656 -0.1868 -0.3517  0.2375
   13CHTO  H220 5090   8.756   5.033   1.547 -0.6130 -1.3688  0.3638
   13CHTO   O79 5091   8.743   5.190   1.676  0.0188  0.0356  0.4025
   13CHTO  H201 5092   8.818   5.224   1.630 -1.2981  0.3579 -1.5982
   13CHTO  C120 5093   8.865   4.977   1.728 -0.3198 -0.2608  0.2730
   13CHTO  H224 5094   8.863   4.999   1.837  0.0446  0.5024  0.1291
   13CHTO   N21 5095   8.996   5.033   1.682  0.5706  0.7090 -0.3292
   13CHTO  H211 5096   9.013   5.115   1.749  0.0067 -1.3917  2.4535
   13CHTO  H212 5097   9.083   4.969   1.683 -0.0114 -0.0862 -0.1326
   13CHTO   O75 5098   8.503   5.048   1.619 -0.1158 -0.2097 -0.1233
   13CHTO  C112 5099   8.412   5.167   1.688 -0.4586 -0.0972  0.3122
   13CHTO  H216 5100   8.489   5.227   1.738  1.0640  0.0288 -2.0891
   13CHTO   O73 5101   8.314   5.113   1.779 -0.3427  0.3947  0.1863
   13CHTO  C113 5102   8.249   5.213   1.860 -0.3412 -0.1966  0.1626
   13CHTO  H217 5103   8.332   5.275   1.902 -0.7766  0.5768 -0.0971
   13CHTO  C124 5104   8.189   5.146   1.979 -0.2915 -0.1327 -0.2514
   13CHTO   O83 5105   8.297   5.122   2.074  0.3831  0.1135 -0.2183
   13CHTO  H204 5106   8.266   5.096   2.159  2.1540 -1.8232 -0.1460
   13CHTO  C109 5107   8.156   5.291   1.764 -0.1082 -0.0572  0.6468
   13CHTO  H213 5108   8.093   5.215   1.716  0.6367  0.3719 -1.0086
   13CHTO  C110 5109   8.250   5.363   1.663 -0.5151 -0.5904  0.2833
   13CHTO  H214 5110   8.316   5.422   1.727 -0.7356 -0.0404 -0.0023
   13CHTO   O78 5111   8.171   5.456   1.578  0.6642  0.6975 -0.1762
   13CHTO  H200 5112   8.105   5.505   1.624 -1.2953  0.3931 -2.5382
   13CHTO  C111 5113   8.337   5.260   1.589  0.2484 -0.3805 -0.4176
   13CHTO  H215 5114   8.278   5.194   1.523  1.0362  1.1617 -2.7343
   13CHTO   N19 5115   8.438   5.323   1.499  0.0065  0.4781  0.2596
   13CHTO  H207 5116   8.422   5.429   1.487  1.2180  0.8628  1.9701
   13CHTO  H208 5117   8.430   5.279   1.400 -0.0395  1.4069 -0.1561
   13CHTO   O74 5118   8.070   5.393   1.832 -0.0693  0.1140 -0.3641
   13CHTO  C115 5119   7.926   5.409   1.772 -0.4910  0.2390 -0.0657
   13CHTO  H219 5120   7.921   5.479   1.689  0.9857  1.8435  1.1712
   13CHTO   O76 5121   7.858   5.269   1.731  0.3106  0.4344 -0.1063
   13CHTO  C122 5122   7.725   5.281   1.674 -0.9568  0.6047 -0.1057
   13CHTO  H226 5123   7.687   5.179   1.663  1.5327 -0.3669 -0.2212
   13CHTO  C126 5124   7.718   5.353   1.526  0.7988  0.1995  0.2236
   13CHTO   O85 5125   7.776   5.275   1.427  0.1810  0.5210  0.9275
   13CHTO  H206 5126   7.870   5.273   1.436  0.1386 -2.5910  1.0592
   13CHTO  C121 5127   7.631   5.357   1.777 -0.7453  0.1336  0.0835
   13CHTO  H225 5128   7.532   5.369   1.728 -1.1528 -1.9134  0.3394
   13CHTO   O81 5129   7.607   5.260   1.889 -0.0117 -0.3570  0.3844
   13CHTO  H202 5130   7.672   5.265   1.956  0.1568  0.2604  0.1843
   13CHTO  C119 5131   7.687   5.486   1.829 -0.1683  0.6219 -0.7203
   13CHTO  H223 5132   7.687   5.552   1.742 -0.2112 -1.3238 -2.2348
   13CHTO  C117 5133   7.832   5.483   1.882  0.5062 -0.0589  0.5366
   13CHTO  H221 5134   7.849   5.424   1.972  3.2186 -1.0931 -0.6027
   13CHTO   N20 5135   7.891   5.616   1.907 -0.1467  0.6157  0.0421
   13CHTO  H209 5136   7.998   5.602   1.916 -0.8138 -4.1274  1.7844
   13CHTO  H210 5137   7.863   5.693   1.837 -1.8573  1.8682  2.0164
   13CHTO   O80 5138   7.580   5.561   1.932  0.7695 -0.0138 -0.1684
   13CHTO  C103 5139   7.432   5.603   1.885 -0.0142 -0.4470 -0.0982
   13CHTO  H190 5140   7.404   5.688   1.947  0.1380  0.0495 -0.6985
   13CHTO  C101 5141   7.411   5.647   1.744 -0.1757  0.2576 -0.0141
   13CHTO  H188 5142   7.442   5.573   1.670 -2.8290 -0.5773 -0.3540
   13CHTO   O68 5143   7.502   5.771   1.719  0.1357 -0.0733 -0.3825
   13CHTO  H168 5144   7.532   5.790   1.632 -0.2462 -0.0897 -0.5193
   13CHTO   C99 5145   7.256   5.684   1.730 -0.1256 -0.3079  0.5734
   13CHTO  H186 5146   7.226   5.754   1.810  2.3145 -0.0127  1.2853
   13CHTO   N17 5147   7.216   5.743   1.605 -0.1529  0.2209 -0.4658
   13CHTO  H174 5148   7.243   5.684   1.519 -1.2029  0.3866 -0.9157
   13CHTO  H175 5149   7.264   5.839   1.595 -2.7779  1.6697  0.2306
   13CHTO   C97 5150   7.173   5.557   1.752  0.1992 -0.3009 -0.0674
   13CHTO  H184 5151   7.207   5.485   1.675  0.3860 -0.2450 -0.0383
   13CHTO   O64 5152   7.196   5.511   1.886  0.0938 -0.3590  0.2472
   13CHTO  C104 5153   7.334   5.482   1.916  0.3290  0.0597  0.8343
   13CHTO  H191 5154   7.361   5.393   1.859  1.9097  1.9089 -1.3797
   13CHTO  C108 5155   7.333   5.437   2.064 -0.0192  0.1055  0.2193
   13CHTO   O71 5156   7.449   5.355   2.091 -0.7184 -0.0909  0.4130
   13CHTO  H171 5157   7.463   5.291   2.024 -0.7970  0.8285 -0.4971
   13CHTO   O62 5158   7.026   5.572   1.735  0.2160  0.3633  0.1267
   13CHTO   C91 5159   6.954   5.469   1.665  0.3567 -0.0684  0.3492
   13CHTO  H178 5160   7.021   5.384   1.658  0.0113 -0.4292  1.3014
   13CHTO   C92 5161   6.910   5.516   1.519  0.4394 -0.3681  0.3905
   13CHTO  H179 5162   6.863   5.612   1.544  0.0714 -0.9574  2.0921
   13CHTO   O66 5163   7.030   5.533   1.439 -0.2294  0.2942 -0.0333
   13CHTO  H166 5164   7.006   5.567   1.355  0.4622  0.7955 -0.0365
   13CHTO   C93 5165   6.812   5.417   1.444 -0.5231 -0.0191  0.7809
   13CHTO  H180 5166   6.876   5.335   1.408  1.6193  0.8082  2.5530
   13CHTO   N16 5167   6.740   5.489   1.336 -0.2790  0.3771  0.6013
   13CHTO  H172 5168   6.692   5.581   1.366  1.6874  1.6669 -0.0588
   13CHTO  H173 5169   6.796   5.500   1.244 -1.8612 -0.0508 -0.4322
   13CHTO   C94 5170   6.702   5.361   1.540  0.1769  0.2320  0.0366
   13CHTO  H181 5171   6.633   5.438   1.573 -0.7831 -1.0395  1.0247
   13CHTO   O61 5172   6.758   5.315   1.662  0.1113  0.1800  0.2502
   13CHTO   C95 5173   6.827   5.411   1.743  0.1910 -0.1286  0.0316
   13CHTO  H182 5174   6.754   5.488   1.769  1.0815  1.0121 -0.7558
   13CHTO  C106 5175   6.881   5.346   1.873  0.1491  0.2902  0.1440
   13CHTO   O69 5176   6.778   5.265   1.943 -0.3759 -0.4031  0.3327
   13CHTO  H169 5177   6.828   5.194   1.978 -0.9254 -1.0807 -0.2582
   13CHTO   O63 5178   6.644   5.240   1.468  0.0084 -0.2935  0.1946
   13CHTO   C96 5179   6.487   5.197   1.532 -0.7954 -0.2565  0.9694
   13CHTO  H183 5180   6.453   5.109   1.478 -1.0414  0.0799  0.5680
   13CHTO   C98 5181   6.381   5.309   1.514 -0.1265 -0.2828  0.2179
   13CHTO  H185 5182   6.428   5.397   1.559  1.1972 -0.5223 -0.6566
   13CHTO   O67 5183   6.362   5.348   1.373  0.4169 -0.3388 -0.4371
   13CHTO  H167 5184   6.440   5.392   1.344  0.9470  0.4285  2.0275
   13CHTO  C102 5185   6.236   5.281   1.583 -0.1053 -0.5110 -0.5384
   13CHTO  H189 5186   6.184   5.204   1.524 -0.6323  0.7932 -1.7959
   13CHTO   N18 5187   6.144   5.402   1.584 -0.0501  0.0903  0.3492
   13CHTO  H176 5188   6.061   5.387   1.652  1.3035 -0.3077  1.9237
   13CHTO  H177 5189   6.110   5.430   1.485 -0.3531  3.0207  1.2340
   13CHTO  C105 5190   6.264   5.228   1.727  0.4362 -0.0831  0.1736
   13CHTO  H192 5191   6.315   5.307   1.782  1.9364  1.8342 -3.7679
   13CHTO   O65 5192   6.359   5.113   1.727 -0.2220 -0.5873  0.1026
   13CHTO  C100 5193   6.495   5.143   1.679  0.7419  0.1522 -0.2099
   13CHTO  H187 5194   6.538   5.217   1.748  0.8393  0.0346 -0.1443
   13CHTO  C107 5195   6.594   5.019   1.682  0.2112 -0.0433 -0.1640
   13CHTO   O70 5196   6.674   5.010   1.802  0.2052  0.1868  0.1162
   13CHTO  H170 5197   6.766   5.018   1.786  0.0937 -1.6254 -1.7255
   13CHTO   O57 5198   6.130   5.185   1.791 -0.2696 -0.3666  0.5690
   13CHTO   C85 5199   6.058   5.064   1.796 -0.2205 -0.6621 -0.2021
   13CHTO  H157 5200   6.129   4.984   1.769  3.5355  1.8734  1.7469
   13CHTO   C83 5201   5.957   5.064   1.680  0.2858 -0.8573 -0.1462
   13CHTO  H155 5202   6.002   5.063   1.581 -2.3706  1.7783 -1.4590
   13CHTO   O56 5203   5.893   5.188   1.658 -0.1574 -0.2838 -0.4557
   13CHTO  H135 5204   5.848   5.188   1.576  0.8565  1.0854 -1.0452
   13CHTO   C81 5205   5.855   4.944   1.690 -0.1465 -0.6621 -0.5380
   13CHTO  H153 5206   5.913   4.852   1.686 -3.5170 -2.8049 -1.9745
   13CHTO   N14 5207   5.767   4.937   1.572 -0.3111 -0.0326  0.0206
   13CHTO  H141 5208   5.783   4.844   1.520  1.1489  1.3287 -2.0600
   13CHTO  H142 5209   5.787   5.017   1.504  0.8123 -1.0231 -0.8504
   13CHTO   C79 5210   5.791   4.946   1.831  0.6197  0.4528 -0.5129
   13CHTO  H151 5211   5.722   4.862   1.832 -0.6773  1.4932  1.7770
   13CHTO   O52 5212   5.896   4.929   1.942 -0.5331  0.4324 -0.0618
   13CHTO   C86 5213   5.996   5.036   1.937  0.3285  0.4674 -0.0852
   13CHTO  H158 5214   5.936   5.125   1.966 -0.1941 -0.3936  1.5112
   13CHTO   C90 5215   6.113   5.016   2.042  0.6076 -0.2463 -0.0619
   13CHTO   O60 5216   6.186   4.898   2.011 -0.6186  0.0919  0.1779
   13CHTO  H138 5217   6.273   4.912   2.044  0.8465 -2.9451 -2.1126
   13CHTO   O50 5218   5.699   5.059   1.852 -0.1926 -0.1995 -0.1199
   13CHTO   C73 5219   5.565   5.087   1.842  0.6557 -0.0648  0.2682
   13CHTO  H145 5220   5.506   5.002   1.806 -0.4129 -0.2487  2.3817
   13CHTO   C74 5221   5.546   5.206   1.750  0.5197  0.5076 -0.5266
   13CHTO  H146 5222   5.593   5.173   1.656  0.6956 -3.7370  0.9740
   13CHTO   O54 5223   5.410   5.224   1.720  0.2002  0.0595 -0.9757
   13CHTO  H133 5224   5.385   5.156   1.661 -0.7738 -0.3062 -0.1617
   13CHTO   C75 5225   5.622   5.327   1.815 -0.6749 -0.6173 -0.6756
   13CHTO  H147 5226   5.728   5.303   1.826 -0.3015  1.2204  0.0631
   13CHTO   N13 5227   5.623   5.455   1.740 -0.4599  0.6738  0.4415
   13CHTO  H139 5228   5.712   5.512   1.757 -1.2751  2.0264  0.2090
   13CHTO  H140 5229   5.623   5.431   1.635 -0.0887 -2.1162  1.0389
   13CHTO   C76 5230   5.570   5.365   1.959 -0.1578  0.4760 -0.0819
   13CHTO  H148 5231   5.465   5.381   1.936 -0.2752 -0.5143 -0.2592
   13CHTO   O49 5232   5.575   5.242   2.039 -0.1226  0.3868  0.2258
   13CHTO   C77 5233   5.508   5.120   1.983  0.2932 -0.0265  0.6115
   13CHTO  H149 5234   5.401   5.142   1.976  0.3815  0.4435  0.6863
   13CHTO   C88 5235   5.524   5.000   2.075 -0.3707  0.2963 -0.0451
   13CHTO   O58 5236   5.423   4.881   2.057 -0.0988  0.2567  0.3489
   13CHTO  H136 5237   5.343   4.910   2.018  1.2213  1.1247 -1.8057
   13CHTO   O51 5238   5.655   5.496   2.051 -0.4267  0.3208  0.6324
   13CHTO   C78 5239   5.819   5.528   2.070  0.2250 -0.4124  0.1462
   13CHTO  H150 5240   5.823   5.590   2.161 -1.0812 -2.3162  1.5467
   13CHTO   C80 5241   5.875   5.610   1.955 -0.8441 -0.5448  0.1047
   13CHTO  H152 5242   5.859   5.551   1.862 -4.1771 -0.7749  0.7638
   13CHTO   O55 5243   5.797   5.726   1.951 -1.0861 -0.2250  0.5899
   13CHTO  H134 5244   5.771   5.746   1.863  2.2258  2.4521  0.1212
   13CHTO   C84 5245   6.027   5.649   1.980  0.1074  0.0147  0.1765
   13CHTO  H156 5246   6.027   5.706   2.073  0.5557  0.1435  0.0987
   13CHTO   N15 5247   6.090   5.728   1.871 -0.2666  0.2474  0.1478
   13CHTO  H143 5248   6.009   5.755   1.807 -0.3104  0.8799  0.4719
   13CHTO  H144 5249   6.130   5.817   1.914  0.5061 -0.4627  0.9074
   13CHTO   C87 5250   6.104   5.518   2.017 -0.0648 -1.0764  0.0364
   13CHTO  H159 5251   6.115   5.452   1.930 -2.4899 -1.3461 -0.0814
   13CHTO   O53 5252   6.043   5.447   2.122 -0.2493  0.5523  0.3189
   13CHTO   C82 5253   5.908   5.401   2.084 -0.1804 -0.3775 -0.0628
   13CHTO  H154 5254   5.908   5.339   1.994 -1.4321  0.6777 -0.8104
   13CHTO   C89 5255   5.852   5.305   2.198 -0.3898  0.4988 -0.5305
   13CHTO   O59 5256   5.831   5.381   2.319 -0.1935  0.0419 -0.6189
   13CHTO  H137 5257   5.739   5.402   2.319 -0.1889  0.0626 -0.2794
   13CHTO   O45 5258   6.257   5.555   2.076 -0.6405  0.9872 -0.2949
   13CHTO   C67 5259   6.349   5.449   2.041 -0.2622 -0.1571 -0.4377
   13CHTO  H124 5260   6.306   5.367   1.984  1.2105 -1.4933  0.3459
   13CHTO   C65 5261   6.469   5.512   1.965 -0.2483 -0.2047  0.0450
   13CHTO  H122 5262   6.419   5.558   1.880 -0.0741  1.3978  0.7930
   13CHTO   O44 5263   6.539   5.404   1.910 -0.1740 -0.2816 -0.0622
   13CHTO  H102 5264   6.590   5.368   1.980  0.0084  2.5041  1.2765
   13CHTO   C63 5265   6.536   5.621   2.053  0.5374  0.1561 -0.2283
   13CHTO  H120 5266   6.466   5.700   2.080 -1.2694 -1.4126 -0.2583
   13CHTO   N11 5267   6.636   5.699   1.972 -0.3522  0.2744  0.2271
   13CHTO  H108 5268   6.609   5.701   1.869  0.8124  0.6666 -0.0802
   13CHTO  H109 5269   6.718   5.632   1.956  1.5755  1.9497  2.7461
   13CHTO   C61 5270   6.592   5.565   2.191  0.1131  0.4156  0.5016
   13CHTO  H118 5271   6.617   5.651   2.255 -1.4069  2.0582 -1.0743
   13CHTO   O40 5272   6.489   5.486   2.251 -0.3785 -0.2460 -0.0833
   13CHTO   C68 5273   6.407   5.390   2.181 -0.2550  0.0364  0.1868
   13CHTO  H125 5274   6.317   5.364   2.241 -0.8064  0.9411 -0.2448
   13CHTO   C72 5275   6.485   5.261   2.168  0.7862  0.5993 -0.6386
   13CHTO   O48 5276   6.410   5.152   2.107 -0.1029 -0.4858 -0.0578
   13CHTO  H105 5277   6.470   5.091   2.067 -0.0682  0.2093 -1.1006
   13CHTO   O38 5278   6.699   5.471   2.179 -0.4578  0.3203  0.2363
   13CHTO   C55 5279   6.809   5.472   2.272  0.0050 -0.7987 -0.1574
   13CHTO  H112 5280   6.883   5.399   2.237  0.7064  0.1665 -0.6871
   13CHTO   C56 5281   6.761   5.446   2.420 -0.1237 -0.1245  0.6317
   13CHTO  H113 5282   6.686   5.522   2.444  0.8127  1.1722 -0.4258
   13CHTO   O42 5283   6.697   5.315   2.414  0.0373 -0.2199  0.1713
   13CHTO  H100 5284   6.667   5.285   2.497 -1.7485 -0.1258 -0.4191
   13CHTO   C57 5285   6.889   5.441   2.515 -0.3190  0.0519  0.3393
   13CHTO  H114 5286   6.949   5.356   2.483 -0.0106  0.8410 -1.2062
   13CHTO   N10 5287   6.851   5.415   2.658 -0.8028 -0.2215 -0.2637
   13CHTO  H106 5288   6.920   5.362   2.722 -0.1109  0.6250 -0.3021
   13CHTO  H107 5289   6.818   5.508   2.704  1.1036  0.8302 -0.9543
   13CHTO   C58 5290   6.974   5.573   2.506 -0.4122 -0.5923  0.1721
   13CHTO  H115 5291   6.916   5.660   2.544  2.2126  1.1074  0.4177
   13CHTO   O37 5292   7.004   5.601   2.367  0.4047  0.5498 -0.6280
   13CHTO   C59 5293   6.887   5.609   2.273 -0.0121 -0.7499  0.3530
   13CHTO  H116 5294   6.831   5.699   2.298  0.1450 -0.2665 -0.9599
   13CHTO   C70 5295   6.952   5.636   2.134  0.6309  0.0230 -0.3487
   13CHTO   O46 5296   6.981   5.773   2.112  0.2108 -0.3128  0.4781
   13CHTO  H103 5297   7.036   5.811   2.178  1.4590  0.5242 -1.0035
   13CHTO   O39 5298   7.117   5.554   2.579 -0.4279  0.1780  0.3855
   13CHTO   C60 5299   7.190   5.682   2.579  0.0947 -0.0048  0.1063
   13CHTO  H117 5300   7.168   5.737   2.488 -0.6315  0.8039  0.7615
   13CHTO   C62 5301   7.138   5.773   2.696 -0.8701 -0.3109 -0.0811
   13CHTO  H119 5302   7.028   5.778   2.678 -1.4464 -0.4797  3.0500
   13CHTO   O43 5303   7.133   5.711   2.827 -0.0717 -0.3969 -0.6087
   13CHTO  H101 5304   7.219   5.688   2.856 -0.3247  0.5514  0.9666
   13CHTO   C66 5305   7.220   5.915   2.688  1.2468  0.5289 -0.1228
   13CHTO  H123 5306   7.212   5.961   2.590  0.4589  0.2183 -0.2059
   13CHTO   N12 5307   7.155   6.013   2.774  0.0405  1.0400 -0.2270
   13CHTO  H110 5308   7.155   6.107   2.722 -1.6219  0.0024 -2.1544
   13CHTO  H111 5309   7.186   6.016   2.878 -0.2195  1.1773 -0.1537
   13CHTO   C69 5310   7.370   5.884   2.701 -0.6325 -0.2037 -0.5299
   13CHTO  H126 5311   7.400   5.831   2.794 -0.9250  0.2338 -0.1819
   13CHTO   O41 5312   7.422   5.792   2.580  0.3272 -0.2325 -0.6036
   13CHTO   C64 5313   7.342   5.647   2.573 -0.3938 -0.4018 -0.4448
   13CHTO  H121 5314   7.352   5.587   2.667 -0.8601  0.3046  0.0602
   13CHTO   C71 5315   7.368   5.560   2.448 -0.0382  0.2435  0.4127
   13CHTO   O47 5316   7.503   5.515   2.456  0.2030 -0.5783 -0.2683
   13CHTO  H104 5317   7.557   5.588   2.431  0.2166 -1.6106 -3.4237
   13CHTO   O34 5318   7.443   6.029   2.691  0.2716  0.1338 -0.0183
   13CHTO   C49 5319   7.556   6.077   2.717 -0.3001  0.2409 -0.2455
   13CHTO   H91 5320   7.626   6.001   2.680  0.1498  0.1791  0.7178
   13CHTO   C47 5321   7.566   6.108   2.871  0.5415 -0.5829 -0.7367
   13CHTO   H89 5322   7.667   6.154   2.878 -0.2310  1.3376 -1.5733
   13CHTO   O33 5323   7.560   6.002   2.961 -0.0879 -0.1259  0.1058
   13CHTO   H70 5324   7.556   5.918   2.918 -0.7462  0.1966 -0.4753
   13CHTO   C45 5325   7.460   6.225   2.914  0.1314 -0.3142  0.2599
   13CHTO   H87 5326   7.376   6.169   2.958  1.2503 -0.8297  1.7875
   13CHTO    N8 5327   7.519   6.307   3.020  0.1037  0.1753 -0.0405
   13CHTO   H75 5328   7.563   6.400   2.987 -2.0909  0.3308 -2.7754
   13CHTO   H76 5329   7.456   6.322   3.106  0.8621  3.0047  0.0890
   13CHTO   C43 5330   7.418   6.308   2.777 -0.3766  0.2639  0.3199
   13CHTO   H85 5331   7.341   6.255   2.722  0.1470  0.7175 -0.8590
   13CHTO   O29 5332   7.539   6.330   2.699 -0.1567  0.8695 -0.1890
   13CHTO   C50 5333   7.586   6.201   2.637 -0.0756 -0.5355 -0.5332
   13CHTO   H92 5334   7.532   6.181   2.544 -3.4067  1.6536  0.8438
   13CHTO   C54 5335   7.732   6.231   2.588  0.4355 -0.0428 -0.7162
   13CHTO   O36 5336   7.822   6.225   2.700 -0.1410 -0.0335 -0.0507
   13CHTO   H72 5337   7.815   6.304   2.750  2.1556  0.1979 -0.0408
   13CHTO   O27 5338   7.361   6.435   2.802 -0.5449  0.5147 -0.0106
   13CHTO   C37 5339   7.380   6.578   2.834  0.1658  0.6285 -0.3579
   13CHTO   H79 5340   7.433   6.589   2.930 -0.2325  2.1346 -0.2949
   13CHTO   C38 5341   7.467   6.659   2.727  0.5164  0.3440  0.0414
   13CHTO   H80 5342   7.435   6.637   2.624  1.2644  3.1250 -0.8439
   13CHTO   O31 5343   7.598   6.617   2.751  0.1736 -0.3803 -0.0935
   13CHTO   H68 5344   7.663   6.621   2.683 -1.2880  1.1842 -1.4496
   13CHTO   C39 5345   7.444   6.816   2.748 -0.1179  0.3430  0.7160
   13CHTO   H81 5346   7.484   6.845   2.845 -0.6334 -0.0789  1.0591
   13CHTO    N7 5347   7.508   6.891   2.630  0.2137  0.0858 -0.1627
   13CHTO   H73 5348   7.535   6.823   2.551 -0.5913  0.2236 -0.5639
   13CHTO   H74 5349   7.445   6.964   2.581  0.7690  1.0940  0.6139
   13CHTO   C40 5350   7.290   6.846   2.759  0.1882 -0.7474 -0.1685
   13CHTO   H82 5351   7.226   6.836   2.672  0.9851 -0.1018 -0.8332
   13CHTO   O26 5352   7.238   6.777   2.867 -0.3684 -0.2419 -0.8815
   13CHTO   C41 5353   7.241   6.634   2.845  0.0215 -0.7048 -0.1263
   13CHTO   H83 5354   7.188   6.605   2.754 -0.3105 -2.6332  0.6576
   13CHTO   C52 5355   7.165   6.578   2.969 -0.0995  0.0910  0.0834
   13CHTO   O35 5356   7.226   6.610   3.116 -0.0813  0.4218  0.1402
   13CHTO   H71 5357   7.156   6.599   3.177  0.5815 -0.8966  0.6798
   13CHTO   O28 5358   7.269   6.977   2.820  0.0320  0.1308 -0.0650
   13CHTO   C42 5359   7.212   7.083   2.735  0.2696  0.0069  0.1504
   13CHTO   H84 5360   7.220   7.056   2.630 -0.8495  1.5576 -0.3597
   13CHTO   C44 5361   7.280   7.226   2.756 -0.2153  0.2590  0.5779
   13CHTO   H86 5362   7.273   7.257   2.861 -0.8954 -0.0442  0.6268
   13CHTO   O32 5363   7.419   7.206   2.736  0.4433 -0.7549  0.2588
   13CHTO   H69 5364   7.439   7.203   2.645  0.5350 -2.0931  0.3126
   13CHTO   C48 5365   7.218   7.337   2.662  0.3352 -0.5786 -0.1252
   13CHTO   H90 5366   7.244   7.308   2.561  1.6844  1.4005 -0.3846
   13CHTO    N9 5367   7.286   7.469   2.683 -0.6619  0.8816 -0.3182
   13CHTO   H77 5368   7.308   7.484   2.788  0.8279 -2.8959 -0.0355
   13CHTO   H78 5369   7.379   7.460   2.628 -1.0881  0.5100 -0.9888
   13CHTO   C51 5370   7.063   7.348   2.682  0.2052  0.1272  0.1699
   13CHTO   H93 5371   7.044   7.375   2.786  3.3797  0.2459  0.7496
   13CHTO   O30 5372   7.011   7.213   2.650  0.0696 -0.0560  0.2286
   13CHTO   C46 5373   7.059   7.104   2.760  0.3278  0.0702  0.4966
   13CHTO   H88 5374   7.042   7.131   2.864 -0.4484 -0.2370  0.4532
   13CHTO   C53 5375   6.982   6.970   2.724 -0.0398  0.1538  0.0430
   13CHTO   O72 5376   6.860   6.956   2.796  0.2958  0.3607 -0.0517
   13CHTO  H199 5377   6.882   6.919   2.880 -0.8592  1.3873  0.7190
   13CHTO   O22 5378   7.002   7.443   2.595 -0.2858  0.3094  0.4475
   13CHTO   C31 5379   6.869   7.493   2.607 -0.2655  0.4860  0.5050
   13CHTO   H59 5380   6.856   7.569   2.527 -2.5211 -0.2360  0.1319
   13CHTO   C29 5381   6.761   7.388   2.586  0.3547  0.4750 -0.2441
   13CHTO   H57 5382   6.766   7.299   2.650 -2.8294 -0.4245 -1.1581
   13CHTO   O21 5383   6.779   7.324   2.460  0.7030 -0.0354  0.4523
   13CHTO   H37 5384   6.795   7.232   2.461 -0.7194 -0.2907  1.5646
   13CHTO   C27 5385   6.615   7.442   2.588  0.2050  0.0769 -0.0988
   13CHTO   H55 5386   6.608   7.515   2.506 -0.5008 -1.6547 -1.6011
   13CHTO    N5 5387   6.508   7.334   2.569 -1.0632 -0.0362  0.2393
   13CHTO   H43 5388   6.541   7.233   2.587  2.3123  0.8523 -0.7043
   13CHTO   H44 5389   6.427   7.361   2.636 -0.9091 -1.1568  0.9021
   13CHTO   C25 5390   6.603   7.531   2.720  0.2520  0.7039  0.3172
   13CHTO   H53 5391   6.603   7.467   2.809 -0.5918  0.5582  0.2209
   13CHTO   O17 5392   6.711   7.636   2.733 -0.1032 -0.1035 -0.1817
   13CHTO   C32 5393   6.845   7.574   2.736  1.2746  0.4115 -0.5596
   13CHTO   H60 5394   6.863   7.509   2.822 -0.9599 -1.3052 -1.3448
   13CHTO   C36 5395   6.940   7.695   2.756  0.8440  0.0373 -0.4559
   13CHTO   O25 5396   6.942   7.736   2.897  0.2442  0.0616  1.1762
   13CHTO   H40 5397   6.973   7.666   2.950  1.2743  1.0815  1.9453
   13CHTO   O15 5398   6.468   7.588   2.733 -0.2901 -0.0601  0.2058
   13CHTO   C19 5399   6.356   7.664   2.689  0.2602 -0.4017  0.5585
   13CHTO   H47 5400   6.328   7.729   2.773 -0.6253 -0.9569  0.6932
   13CHTO   C20 5401   6.384   7.758   2.566  0.3030  0.1941 -0.1822
   13CHTO   H48 5402   6.419   7.698   2.480  0.9747  0.6581 -0.2349
   13CHTO   O19 5403   6.496   7.846   2.609 -0.2072 -0.3895 -0.0262
   13CHTO   H35 5404   6.492   7.933   2.575  1.0262 -0.0418  0.6444
   13CHTO   C21 5405   6.253   7.840   2.525  0.3296  0.3374  0.0609
   13CHTO   H49 5406   6.214   7.891   2.613  0.9056 -0.0513  0.5459
   13CHTO    N4 5407   6.268   7.925   2.410 -0.2488 -0.0387 -0.1063
   13CHTO   H41 5408   6.345   8.000   2.407 -0.6482  0.4308  1.0797
   13CHTO   H42 5409   6.271   7.860   2.324 -0.1655  0.1517 -0.2480
   13CHTO   C22 5410   6.134   7.744   2.505  0.7834  0.4896  0.3726
   13CHTO   H50 5411   6.164   7.680   2.422  1.3814  0.8419  0.3110
   13CHTO   O14 5412   6.117   7.671   2.629  0.3562  0.0568  0.1750
   13CHTO   C23 5413   6.226   7.580   2.666  0.7925  0.5303 -0.3271
   13CHTO   H51 5414   6.239   7.509   2.583 -2.2358 -0.8748  0.3292
   13CHTO   C34 5415   6.194   7.495   2.789  0.3718 -0.9289  0.2156
   13CHTO   O23 5416   6.140   7.579   2.892 -0.4028  0.2925 -0.4066
   13CHTO   H38 5417   6.052   7.551   2.905 -0.9692  2.1866 -0.0247
   13CHTO   O16 5418   6.009   7.809   2.467  0.0457 -0.5363 -0.0387
   13CHTO   C24 5419   5.877   7.716   2.476  0.1982 -0.0650  0.5244
   13CHTO   H52 5420   5.872   7.668   2.574 -0.9179  0.8231  0.9071
   13CHTO   C26 5421   5.874   7.604   2.366 -0.8685  0.6256  0.1490
   13CHTO   H54 5422   5.864   7.660   2.270 -2.1779  1.3549  0.6977
   13CHTO   O20 5423   5.996   7.523   2.355 -0.5024 -0.5265 -0.3453
   13CHTO   H36 5424   6.053   7.539   2.282 -0.4745 -0.9328 -0.4139
   13CHTO   C30 5425   5.751   7.509   2.379 -0.5665  0.4407 -0.3063
   13CHTO   H58 5426   5.752   7.461   2.478  0.5882  0.4360 -0.3068
   13CHTO    N6 5427   5.748   7.400   2.276 -0.1929 -0.5091  0.3951
   13CHTO   H45 5428   5.828   7.329   2.291 -1.8807 -2.6768 -0.4592
   13CHTO   H46 5429   5.653   7.349   2.266 -1.4946  2.1271 -1.4344
   13CHTO   C33 5430   5.624   7.599   2.379 -0.1813 -0.0785  0.7764
   13CHTO   H61 5431   5.619   7.655   2.284  1.4959 -1.2932 -0.0455
   13CHTO   O18 5432   5.644   7.693   2.485 -0.1998 -0.1170 -0.1372
   13CHTO   C28 5433   5.747   7.789   2.461 -0.0417 -0.4230  0.1057
   13CHTO   H56 5434   5.741   7.825   2.358 -2.7750 -0.5401  0.1989
   13CHTO   C35 5435   5.715   7.905   2.564  0.5945 -0.1465  0.1075
   13CHTO   O24 5436   5.602   7.981   2.522  0.3720 -0.2466 -0.2333
   13CHTO   H39 5437   5.575   8.039   2.590  0.6547 -0.7929  0.3402
   13CHTO    O9 5438   5.503   7.523   2.397 -0.4094 -0.3507  0.3549
   13CHTO   C13 5439   5.487   7.445   2.537  0.9878  0.0327 -0.3674
   13CHTO   H26 5440   5.576   7.457   2.602  0.0000  1.0481  0.8380
   13CHTO   C11 5441   5.454   7.292   2.493  0.0905  0.1993 -1.2332
   13CHTO   H24 5442   5.545   7.243   2.455  0.2737 -0.5599  0.1357
   13CHTO    O8 5443   5.356   7.303   2.388 -0.1273  0.3474 -0.6600
   13CHTO    H3 5444   5.294   7.233   2.378 -0.6799  0.8001 -0.3741
   13CHTO    C9 5445   5.417   7.210   2.623  0.1767 -0.0035  0.5737
   13CHTO   H22 5446   5.513   7.199   2.675  2.6149 -2.6469 -4.1304
   13CHTO    N2 5447   5.399   7.067   2.589  0.3492 -0.3225  0.6408
   13CHTO   H10 5448   5.371   7.018   2.681 -0.4070 -0.3038  0.4194
   13CHTO   H11 5449   5.321   7.054   2.516 -0.1287  0.6699  0.9688
   13CHTO    C7 5450   5.298   7.286   2.702 -0.4825 -1.3188 -0.3093
   13CHTO   H20 5451   5.339   7.301   2.804  0.3742  1.1868 -1.0083
   13CHTO    O4 5452   5.262   7.416   2.652 -0.1247  0.5439  0.1703
   13CHTO   C14 5453   5.372   7.505   2.633 -0.5555  0.3514 -0.0542
   13CHTO   H27 5454   5.421   7.513   2.732 -0.0443 -0.5813 -0.2279
   13CHTO   C18 5455   5.309   7.643   2.605  0.4638  0.4322  0.6293
   13CHTO   O13 5456   5.405   7.743   2.603 -0.5548 -0.5489 -0.1224
   13CHTO    H7 5457   5.360   7.823   2.586 -2.6471 -1.6458  0.1016
   13CHTO    O2 5458   5.160   7.194   2.722  0.2828 -0.3856  0.0740
   13CHTO    C1 5459   5.084   7.215   2.841  0.1475  0.0043  0.0992
   13CHTO   H14 5460   4.987   7.161   2.832  0.2106  0.3839 -3.6051
   13CHTO    C2 5461   5.057   7.375   2.874 -0.4895  0.2838  0.3753
   13CHTO   H15 5462   5.153   7.423   2.897  0.1301 -1.1473  0.8915
   13CHTO    O6 5463   5.002   7.435   2.756 -0.1402 -0.2197 -0.5394
   13CHTO    H1 5464   5.064   7.433   2.686 -0.4302  1.7779 -0.8825
   13CHTO    C3 5465   4.964   7.387   3.010 -0.2459  0.4032  0.0718
   13CHTO   H16 5466   4.863   7.347   2.993  0.4729 -1.0403 -0.8653
   13CHTO    N1 5467   4.950   7.532   3.055 -0.1976 -0.1365  0.6613
   13CHTO    H8 5468   5.048   7.579   3.058 -0.9693  1.4121  2.8074
   13CHTO    H9 5469   4.893   7.579   2.976 -0.3688  1.9832  1.9978
   13CHTO    C4 5470   5.031   7.298   3.123  0.5720 -0.0197  0.1982
   13CHTO   H17 5471   5.125   7.345   3.151  0.2118  0.5513  0.4537
   13CHTO    O1 5472   5.070   7.163   3.080  0.2586  0.2251  0.1823
   13CHTO    C5 5473   5.158   7.155   2.965  0.3731  0.3786  0.3388
   13CHTO   H18 5474   5.241   7.223   2.985 -0.9318  1.9404  0.5699
   13CHTO   C16 5475   5.205   7.016   2.936 -0.1876 -0.2202 -0.2885
   13CHTO   O11 5476   5.105   6.912   2.947  0.8464  0.8518  0.5861
   13CHTO    H5 5477   5.032   6.933   2.891  0.8540  1.3242  0.7501
   13CHTO    O3 5478   4.947   7.276   3.239 -0.8409 -0.0229  0.7900
   13CHTO    C6 5479   4.837   7.176   3.236 -0.4598 -0.7101 -0.0757
   13CHTO   H19 5480   4.799   7.154   3.135 -0.4593  0.3480 -0.3063
   13CHTO    C8 5481   4.881   7.038   3.299 -0.7963 -0.2684  0.0654
   13CHTO   H21 5482   4.955   7.062   3.376  0.2454  0.0839 -1.0293
   13CHTO    O7 5483   4.941   6.962   3.195  0.1924  0.7217  0.2611
   13CHTO    H2 5484   5.028   6.994   3.186  0.3997  1.0562  3.2222
   13CHTO   C12 5485   4.769   6.954   3.375  0.1456 -0.4509 -0.7435
   13CHTO   H25 5486   4.718   6.908   3.287  2.1604  1.6314 -3.0809
   13CHTO    N3 5487   4.815   6.840   3.461 -0.2920  0.4463 -0.1786
   13CHTO   H12 5488   4.889   6.864   3.537  0.6792  0.3006 -1.0762
   13CHTO   H13 5489   4.842   6.770   3.384  0.5431 -0.6154  1.0524
   13CHTO   C15 5490   4.669   7.051   3.440  0.5982  0.2831  0.1230
   13CHTO   H28 5491   4.710   7.094   3.532  1.4801 -0.4758  0.0919
   13CHTO   O10 5492   4.530   6.977   3.470  0.4358 -0.9157  0.1474
   13CHTO    H4 5493   4.554   6.910   3.531  0.6280 -1.7698 -0.8359
   13CHTO    O5 5494   4.626   7.149   3.346 -0.3985  0.5956  0.3716
   13CHTO   C10 5495   4.721   7.247   3.308  0.1850 -0.9253 -0.1280
   13CHTO   H23 5496   4.772   7.292   3.393  0.0734 -1.7173  0.3669
   13CHTO   C17 5497   4.651   7.355   3.225  0.2377  0.7931  0.0730
   13CHTO   O12 5498   4.580   7.301   3.111  0.0474 -0.2702 -0.1711
   13CHTO    H6 5499   4.636   7.246   3.059  0.7457  1.7131 -1.5896
   14CHTO  H203 5500   7.252   5.155   1.863  2.8890  0.4165 -0.6042
   14CHTO   O82 5501   7.260   5.066   1.837 -0.4695 -0.2196  0.2222
   14CHTO  C123 5502   7.136   4.996   1.841  0.2345 -0.0896 -0.6708
   14CHTO  H227 5503   7.065   5.051   1.904 -0.4995 -1.4886 -0.2616
   14CHTO   O77 5504   7.092   4.999   1.700 -0.0134  0.8306 -0.3054
   14CHTO  C118 5505   6.988   4.915   1.655 -0.4748 -0.8012 -0.4828
   14CHTO  H222 5506   6.898   4.940   1.713 -2.6763 -0.4972 -3.9559
   14CHTO  C125 5507   6.954   4.928   1.493 -0.6871  0.4807 -0.4014
   14CHTO   O84 5508   6.903   5.060   1.476 -0.4265 -0.6327 -0.3770
   14CHTO  H205 5509   6.815   5.062   1.444 -0.6726 -1.1653  0.2464
   14CHTO  C114 5510   7.023   4.767   1.692  0.2008 -0.1042 -0.0595
   14CHTO  H218 5511   7.122   4.740   1.655  0.0670  0.9840 -1.2787
   14CHTO  C116 5512   7.050   4.756   1.847 -0.1836  0.0255 -0.8699
   14CHTO  H220 5513   6.964   4.787   1.910  0.4112 -0.8481  0.4031
   14CHTO   O79 5514   7.063   4.619   1.880  0.1452  0.3464  0.4581
   14CHTO  H201 5515   7.066   4.606   1.973  1.6733 -0.9529  0.2484
   14CHTO  C120 5516   7.165   4.844   1.894 -0.4333 -0.1843 -0.4412
   14CHTO  H224 5517   7.260   4.801   1.854 -0.8711 -0.7913 -0.8343
   14CHTO   N21 5518   7.192   4.849   2.044  0.3218  0.7936 -0.0412
   14CHTO  H211 5519   7.102   4.844   2.103  1.7074 -1.3614  1.9624
   14CHTO  H212 5520   7.247   4.938   2.070  3.1526 -1.1756  0.9776
   14CHTO   O75 5521   6.922   4.676   1.634  0.0969  0.2455  0.2056
   14CHTO  C112 5522   6.776   4.681   1.704 -0.2218  0.2811 -0.4071
   14CHTO  H216 5523   6.753   4.786   1.726  0.2459 -0.1874  2.5756
   14CHTO   O73 5524   6.777   4.597   1.821 -0.0480  0.1339  0.9489
   14CHTO  C113 5525   6.652   4.586   1.889  0.0664  0.6019 -0.0046
   14CHTO  H217 5526   6.620   4.686   1.924 -1.0458 -0.2198  1.3787
   14CHTO  C124 5527   6.675   4.495   2.007 -0.1580  0.4818  0.0011
   14CHTO   O83 5528   6.557   4.475   2.088 -0.4824 -0.3100 -0.0295
   14CHTO  H204 5529   6.551   4.538   2.157 -0.8648 -3.6552  3.1921
   14CHTO  C109 5530   6.543   4.525   1.804 -0.2006  0.2827  0.3760
   14CHTO  H213 5531   6.565   4.418   1.790 -1.5253  0.2014 -1.2610
   14CHTO  C110 5532   6.534   4.595   1.670 -0.6858  0.6550 -0.7021
   14CHTO  H214 5533   6.471   4.684   1.670 -0.7497  0.6408 -2.8383
   14CHTO   O78 5534   6.448   4.519   1.580  0.3544  0.3334 -1.0568
   14CHTO  H200 5535   6.378   4.472   1.620  0.7930 -0.7886 -1.5987
   14CHTO  C111 5536   6.675   4.616   1.605 -0.3500 -0.1239 -0.5039
   14CHTO  H215 5537   6.711   4.516   1.576  0.1411  0.2001 -1.0079
   14CHTO   N19 5538   6.674   4.694   1.477 -0.3437  0.1608  0.0878
   14CHTO  H207 5539   6.579   4.736   1.446 -0.1953 -0.8022 -1.7100
   14CHTO  H208 5540   6.754   4.765   1.463  0.2476 -0.7235 -1.0235
   14CHTO   O74 5541   6.412   4.537   1.871 -0.6410 -0.8144  0.0092
   14CHTO  C115 5542   6.315   4.429   1.841 -0.2072  0.3693  0.3741
   14CHTO  H219 5543   6.322   4.389   1.740 -0.5984  0.7877  0.1792
   14CHTO   O76 5544   6.335   4.299   1.945  0.6305 -0.6712  0.3158
   14CHTO  C122 5545   6.256   4.185   1.912 -0.3190  0.3809  0.5182
   14CHTO  H226 5546   6.273   4.119   1.997  0.6828  1.1303  0.9041
   14CHTO  C126 5547   6.317   4.112   1.777  0.4302 -0.2918  0.6689
   14CHTO   O85 5548   6.452   4.067   1.785 -0.5706 -0.0651 -0.1821
   14CHTO  H206 5549   6.479   4.014   1.712 -3.0182 -2.2358  0.4226
   14CHTO  C121 5550   6.104   4.212   1.883 -0.3802 -0.3337 -0.8404
   14CHTO  H225 5551   6.068   4.126   1.822  0.8185 -2.1604  0.9873
   14CHTO   O81 5552   6.040   4.214   2.010  0.0532 -0.6042  0.4387
   14CHTO  H202 5553   5.955   4.176   2.007 -0.6352  0.8976  0.6322
   14CHTO  C119 5554   6.077   4.340   1.803  0.8349  0.5112  0.3392
   14CHTO  H223 5555   6.107   4.312   1.703  0.7197  2.1803 -0.1860
   14CHTO  C117 5556   6.161   4.460   1.858  0.2075  0.1380 -0.6116
   14CHTO  H221 5557   6.164   4.486   1.964  1.8926  1.7424 -1.0195
   14CHTO   N20 5558   6.128   4.587   1.790  0.5496 -0.0150  0.2864
   14CHTO  H209 5559   6.126   4.587   1.682 -0.9233  2.3831  0.2678
   14CHTO  H210 5560   6.029   4.620   1.817  0.1758 -2.1291  1.5268
   14CHTO   O80 5561   5.927   4.358   1.789 -0.2413  0.5543 -0.4295
   14CHTO  C103 5562   5.864   4.346   1.659 -0.1684  0.0914  0.4558
   14CHTO  H190 5563   5.919   4.393   1.578 -2.6137  1.0240 -0.7084
   14CHTO  C101 5564   5.822   4.198   1.612 -0.0796 -0.4554  0.4858
   14CHTO  H188 5565   5.764   4.157   1.694 -1.0652  1.1013  0.5897
   14CHTO   O68 5566   5.949   4.111   1.591  0.2388  0.3399  0.7549
   14CHTO  H168 5567   5.976   4.068   1.669 -0.6984 -1.0488  0.3314
   14CHTO   C99 5568   5.733   4.210   1.482 -0.0979  0.2096  0.1481
   14CHTO  H186 5569   5.796   4.245   1.398  0.3092  1.5578  0.9914
   14CHTO   N17 5570   5.675   4.087   1.435  0.2977  0.3069  0.1723
   14CHTO  H174 5571   5.627   4.099   1.340  1.6096  2.0750 -0.2938
   14CHTO  H175 5572   5.756   4.015   1.430  1.5314  1.7440 -1.4434
   14CHTO   C97 5573   5.618   4.311   1.511  0.2522  0.2222 -0.1165
   14CHTO  H184 5574   5.552   4.272   1.590 -0.2050  0.2223 -0.4978
   14CHTO   O64 5575   5.670   4.439   1.546 -0.0798 -0.0769  0.1731
   14CHTO  C104 5576   5.733   4.428   1.673 -0.2268 -0.0259  0.2846
   14CHTO  H191 5577   5.673   4.377   1.748 -2.4521  1.8659 -0.1609
   14CHTO  C108 5578   5.756   4.568   1.734  0.7028  0.5453  0.6918
   14CHTO   O71 5579   5.635   4.624   1.787 -0.7970 -0.4405 -0.0720
   14CHTO  H171 5580   5.633   4.630   1.881  0.9493  1.3800 -0.1371
   14CHTO   O62 5581   5.543   4.350   1.389 -0.5977 -0.0840 -0.1807
   14CHTO   C91 5582   5.412   4.400   1.429  0.4778  0.5263 -0.1142
   14CHTO  H178 5583   5.372   4.351   1.518 -0.6732  0.8384 -0.4485
   14CHTO   C92 5584   5.311   4.366   1.323 -0.5398 -1.2667 -0.3411
   14CHTO  H179 5585   5.321   4.259   1.299 -0.7221 -1.0651 -1.3489
   14CHTO   O66 5586   5.184   4.388   1.381 -0.2120  0.1047 -0.4877
   14CHTO  H166 5587   5.110   4.364   1.330 -0.6392  2.7241 -1.1684
   14CHTO   C93 5588   5.312   4.455   1.197  0.0720 -0.6204  0.2237
   14CHTO  H180 5589   5.215   4.444   1.146 -0.9697  2.0145  1.5772
   14CHTO   N16 5590   5.418   4.397   1.102  0.1624  0.2142 -0.6433
   14CHTO  H172 5591   5.431   4.291   1.113  1.6661  0.5749  1.5425
   14CHTO  H173 5592   5.509   4.450   1.126 -0.1883  0.3073  0.5138
   14CHTO   C94 5593   5.339   4.607   1.234  1.1033  0.2256 -0.0911
   14CHTO  H181 5594   5.442   4.636   1.215  1.6950 -1.8031 -0.1379
   14CHTO   O61 5595   5.315   4.629   1.372  0.4285  0.2785  0.5500
   14CHTO   C95 5596   5.410   4.559   1.453  0.3432 -1.0857 -0.0355
   14CHTO  H182 5597   5.507   4.608   1.446  0.3209 -1.0862 -0.3253
   14CHTO  C106 5598   5.364   4.590   1.594 -0.2046  0.2788  0.6649
   14CHTO   O69 5599   5.391   4.726   1.625 -0.1046 -0.1499 -0.0683
   14CHTO  H169 5600   5.355   4.757   1.706 -1.1724 -1.7726  0.1068
   14CHTO   O63 5601   5.245   4.697   1.165 -0.6308 -0.3247 -0.1181
   14CHTO   C96 5602   5.238   4.855   1.196  0.3595  0.1546 -0.2087
   14CHTO  H183 5603   5.223   4.896   1.096 -0.5005 -0.2057 -0.2328
   14CHTO   C98 5604   5.363   4.920   1.253 -0.9349 -0.1151 -0.0396
   14CHTO  H185 5605   5.397   4.856   1.336 -1.1884  0.7801  0.7611
   14CHTO   O67 5606   5.463   4.900   1.147  0.4201  0.6365  0.3802
   14CHTO  H167 5607   5.500   4.978   1.110 -0.3132  1.3823  1.2078
   14CHTO  C102 5608   5.349   5.073   1.298  0.0208  0.0560  0.1362
   14CHTO  H189 5609   5.326   5.133   1.209 -0.4878  0.7820  0.7401
   14CHTO   N18 5610   5.477   5.130   1.359 -0.1135  0.3226 -0.4274
   14CHTO  H176 5611   5.554   5.058   1.334 -0.7090 -0.4383 -0.0786
   14CHTO  H177 5612   5.507   5.225   1.317  0.0544  0.9098  1.0223
   14CHTO  C105 5613   5.228   5.078   1.398 -0.1084 -0.2971 -0.1565
   14CHTO  H192 5614   5.253   5.009   1.480  1.6592  1.8551  1.1812
   14CHTO   O65 5615   5.108   5.038   1.322  0.7852  0.6571 -0.5337
   14CHTO  C100 5616   5.110   4.897   1.284 -0.3329  0.8260  0.6204
   14CHTO  H187 5617   5.114   4.832   1.373 -3.9531  0.2426  0.4287
   14CHTO  C107 5618   4.980   4.885   1.211  0.1729 -0.1723 -0.2113
   14CHTO   O70 5619   4.929   4.759   1.184 -0.5562 -0.2067  0.3263
   14CHTO  H170 5620   4.849   4.747   1.232 -0.8868  1.0276  0.0840
   14CHTO   O57 5621   5.214   5.225   1.453  0.0934 -0.2836  0.2175
   14CHTO   C85 5622   5.139   5.326   1.390  0.7758 -0.6302  0.3569
   14CHTO  H157 5623   5.062   5.285   1.321  0.2302  0.9817 -0.0059
   14CHTO   C83 5624   5.232   5.412   1.298 -0.4281  0.2276 -0.1785
   14CHTO  H155 5625   5.251   5.340   1.218 -0.5644  1.3463 -1.2301
   14CHTO   O56 5626   5.356   5.434   1.360  0.7711  0.3597  0.1473
   14CHTO  H135 5627   5.423   5.375   1.331  1.3259  0.9162  0.3016
   14CHTO   C81 5628   5.155   5.533   1.237  0.3103  0.1799 -0.4346
   14CHTO  H153 5629   5.081   5.493   1.168 -0.3425 -1.1483  1.0005
   14CHTO   N14 5630   5.241   5.616   1.144  0.4730 -0.1901  0.4227
   14CHTO  H141 5631   5.183   5.695   1.102 -0.2074 -0.7078  0.3924
   14CHTO  H142 5632   5.321   5.656   1.203  1.2984  0.0397 -0.8399
   14CHTO   C79 5633   5.086   5.612   1.357 -0.4119  0.2780  0.3448
   14CHTO  H151 5634   5.013   5.681   1.314 -0.1708  0.5315  0.3417
   14CHTO   O52 5635   5.010   5.532   1.448 -0.2122 -0.2391  0.3521
   14CHTO   C86 5636   5.074   5.414   1.502 -0.9904  0.1376  0.8606
   14CHTO  H158 5637   5.151   5.459   1.568 -0.2391 -1.8504  1.3632
   14CHTO   C90 5638   4.981   5.326   1.589  0.0064  0.1100 -0.0835
   14CHTO   O60 5639   5.040   5.238   1.692 -0.0990  0.1443  0.1268
   14CHTO  H138 5640   5.045   5.152   1.656  0.0150  0.8389 -1.5655
   14CHTO   O50 5641   5.184   5.683   1.439  0.4949 -0.0456 -0.1617
   14CHTO   C73 5642   5.208   5.803   1.524 -0.5799  0.5169  0.8949
   14CHTO  H145 5643   5.131   5.825   1.599  0.6716 -0.6523  2.5640
   14CHTO   C74 5644   5.214   5.934   1.439 -0.2159 -0.2724  0.0302
   14CHTO  H146 5645   5.126   5.933   1.373  1.2819 -1.3939 -1.9748
   14CHTO   O54 5646   5.214   6.044   1.533 -0.3293  0.5273 -0.1045
   14CHTO  H133 5647   5.184   6.116   1.481  2.1093  2.0392  0.4805
   14CHTO   C75 5648   5.349   5.913   1.356 -0.1605  0.7102 -0.6539
   14CHTO  H147 5649   5.338   5.819   1.299  1.8040 -0.1571  0.3438
   14CHTO   N13 5650   5.368   6.026   1.262 -0.1372  0.0475 -0.1165
   14CHTO  H139 5651   5.326   6.120   1.297 -0.8469 -0.1936 -0.3101
   14CHTO  H140 5652   5.346   5.999   1.160  4.3092  4.3033 -2.3754
   14CHTO   C76 5653   5.470   5.894   1.455  0.2573 -0.4347  0.2851
   14CHTO  H148 5654   5.478   5.980   1.520  1.2827 -1.2968  1.3282
   14CHTO   O49 5655   5.457   5.768   1.532  0.0403  0.4300 -0.1018
   14CHTO   C77 5656   5.339   5.784   1.607  0.0424  0.2268 -0.3273
   14CHTO  H149 5657   5.339   5.865   1.679 -0.3199 -0.0267 -0.0393
   14CHTO   C88 5658   5.323   5.665   1.706  0.1382  0.0096  0.2473
   14CHTO   O58 5659   5.420   5.698   1.817 -0.4349  0.2577  0.5207
   14CHTO  H136 5660   5.386   5.770   1.866 -0.4444  0.3169  0.4240
   14CHTO   O51 5661   5.595   5.870   1.368  1.0349  0.3057 -0.4472
   14CHTO   C78 5662   5.728   5.933   1.425 -0.1989  0.9435 -0.3251
   14CHTO  H150 5663   5.711   5.963   1.531 -1.6838 -0.1981 -0.2184
   14CHTO   C80 5664   5.772   6.050   1.339  0.6367  0.5129 -0.5848
   14CHTO  H152 5665   5.769   6.014   1.234  0.6614 -0.5499 -0.2331
   14CHTO   O55 5666   5.676   6.159   1.358  0.1443 -0.2884  0.6477
   14CHTO  H134 5667   5.665   6.199   1.443 -0.6468 -0.9475  0.8663
   14CHTO   C84 5668   5.923   6.095   1.364  0.2412  0.0768 -0.3025
   14CHTO  H156 5669   5.929   6.144   1.462  0.6958 -2.2254  0.8578
   14CHTO   N15 5670   5.965   6.197   1.262  0.5518  0.5144  0.5095
   14CHTO  H143 5671   5.880   6.255   1.231 -0.3132 -0.4561  1.0566
   14CHTO  H144 5672   6.012   6.151   1.178  1.3947 -0.9608  1.7749
   14CHTO   C87 5673   6.014   5.972   1.362  0.3659  0.5623 -0.4426
   14CHTO  H159 5674   6.006   5.936   1.260  2.2035  0.8959 -0.7135
   14CHTO   O53 5675   5.969   5.873   1.459 -0.1560  0.2765  0.3374
   14CHTO   C82 5676   5.836   5.824   1.438  0.1565  0.2106  0.0223
   14CHTO  H154 5677   5.838   5.761   1.349  0.1944 -1.3016  1.0714
   14CHTO   C89 5678   5.786   5.734   1.550  0.2456  0.2449 -0.3092
   14CHTO   O59 5679   5.863   5.615   1.572 -0.2207 -0.9211 -0.0977
   14CHTO  H137 5680   5.847   5.594   1.662  0.1655 -2.3978 -0.3589
   14CHTO   O45 5681   6.182   6.003   1.402 -0.1378 -0.6789 -0.1641
   14CHTO   C67 5682   6.274   5.888   1.376 -0.4168 -0.8518  0.3222
   14CHTO  H124 5683   6.216   5.796   1.389  1.4855 -2.0101  0.7665
   14CHTO   C65 5684   6.321   5.904   1.227  0.3136 -0.2284  0.6837
   14CHTO  H122 5685   6.232   5.920   1.166  0.0419  1.5036  1.4898
   14CHTO   O44 5686   6.391   5.783   1.189 -0.4968 -0.5629  0.5006
   14CHTO  H102 5687   6.386   5.768   1.097  0.9497 -0.0443  0.3248
   14CHTO   C63 5688   6.398   6.040   1.218 -0.2917 -0.2598 -0.0498
   14CHTO  H120 5689   6.329   6.115   1.257  0.1016  0.7107 -1.1933
   14CHTO   N11 5690   6.427   6.093   1.080 -0.3213 -0.2108  0.2390
   14CHTO  H108 5691   6.337   6.086   1.023 -1.5196  2.2430  1.7349
   14CHTO  H109 5692   6.457   6.196   1.080 -0.8444 -0.0561  0.4406
   14CHTO   C61 5693   6.525   6.034   1.315 -0.6721  0.4466 -0.0230
   14CHTO  H118 5694   6.565   6.136   1.325  0.8490 -0.0502 -0.9339
   14CHTO   O40 5695   6.491   5.989   1.450 -0.2111  0.0254 -0.4753
   14CHTO   C68 5696   6.394   5.878   1.472  0.4260  0.1442  0.2517
   14CHTO  H125 5697   6.354   5.906   1.572  1.4517  0.6023  0.5344
   14CHTO   C72 5698   6.469   5.736   1.487 -0.2488 -0.3645  0.2766
   14CHTO   O48 5699   6.577   5.727   1.582  0.3280 -0.1643 -0.3219
   14CHTO  H105 5700   6.540   5.778   1.651  0.2618 -0.9600  0.2359
   14CHTO   O38 5701   6.622   5.936   1.284 -0.3395  0.2471 -0.1709
   14CHTO   C55 5702   6.750   5.977   1.228  0.0902  0.3808 -0.1791
   14CHTO  H112 5703   6.740   6.078   1.186 -0.6135 -0.0147 -0.9984
   14CHTO   C56 5704   6.788   5.873   1.122 -0.3461 -0.6392 -0.6200
   14CHTO  H113 5705   6.789   5.772   1.167  0.5897  0.2442  1.3963
   14CHTO   O42 5706   6.680   5.858   1.028  0.4097  0.5525  0.1481
   14CHTO  H100 5707   6.604   5.831   1.075  0.4603 -3.0962 -1.6905
   14CHTO   C57 5708   6.936   5.894   1.060 -0.2450  0.1489  0.0168
   14CHTO  H114 5709   6.932   5.989   1.007 -2.4371 -0.6025 -1.2841
   14CHTO   N10 5710   6.977   5.787   0.964 -0.1008 -0.4838  0.0822
   14CHTO  H106 5711   6.947   5.686   0.987  1.3214 -0.7332  0.8938
   14CHTO  H107 5712   7.083   5.787   0.945  0.3859  1.1425  2.7022
   14CHTO   C58 5713   7.039   5.909   1.175 -0.5979 -0.0225 -0.6622
   14CHTO  H115 5714   7.041   5.815   1.234 -0.5148  1.4421  1.7877
   14CHTO   O37 5715   6.992   6.007   1.265 -0.0588  0.0515 -0.4500
   14CHTO   C59 5716   6.867   5.974   1.331  0.1809  0.7165 -0.0077
   14CHTO  H116 5717   6.868   5.871   1.367  3.2443  0.4423 -0.8052
   14CHTO   C70 5718   6.860   6.061   1.458 -0.3803  0.3190  0.8867
   14CHTO   O46 5719   6.849   6.199   1.420  0.0618 -0.2494 -0.3676
   14CHTO  H103 5720   6.767   6.215   1.378  0.2101 -1.8558 -1.2984
   14CHTO   O39 5721   7.190   5.944   1.111  0.0757  0.3869 -0.0525
   14CHTO   C60 5722   7.298   5.905   1.200 -0.8764  0.3626 -0.3195
   14CHTO  H117 5723   7.285   5.946   1.300  2.6987  1.3611 -0.1691
   14CHTO   C62 5724   7.316   5.759   1.235  0.0760 -0.0282  0.2517
   14CHTO  H119 5725   7.227   5.731   1.295 -1.9002  2.1556 -1.5698
   14CHTO   O43 5726   7.308   5.679   1.113 -0.3488 -0.3211 -0.2306
   14CHTO  H101 5727   7.277   5.593   1.133  1.8878 -0.6197  2.2413
   14CHTO   C66 5728   7.441   5.724   1.332 -0.1305 -0.1333  0.2980
   14CHTO  H123 5729   7.422   5.767   1.430  2.1825  0.8104  0.3640
   14CHTO   N12 5730   7.459   5.579   1.353  0.3094  0.3966 -0.0966
   14CHTO  H110 5731   7.525   5.536   1.279  0.1116 -1.0683  0.5662
   14CHTO  H111 5732   7.492   5.549   1.451 -2.2790 -1.4787  0.2377
   14CHTO   C69 5733   7.566   5.787   1.269 -0.0211 -0.0043  0.2448
   14CHTO  H126 5734   7.577   5.730   1.174 -0.5168  0.6535 -0.2086
   14CHTO   O41 5735   7.538   5.942   1.234  0.6958  0.5882  0.4990
   14CHTO   C64 5736   7.431   5.965   1.143 -0.3245 -0.4032 -0.4318
   14CHTO  H121 5737   7.450   5.935   1.038 -1.7249 -1.3751 -0.4148
   14CHTO   C71 5738   7.404   6.116   1.135  0.0731  0.1143  0.9621
   14CHTO   O47 5739   7.415   6.193   1.253 -0.1167 -1.1166  0.1208
   14CHTO  H104 5740   7.434   6.284   1.240 -2.4467 -0.5259  0.5094
   14CHTO   O34 5741   7.700   5.772   1.345 -0.0122 -0.8833 -0.5679
   14CHTO   C49 5742   7.844   5.796   1.263 -0.0124 -0.2428  0.1862
   14CHTO   H91 5743   7.841   5.738   1.171 -0.4546  2.0250 -1.2870
   14CHTO   C47 5744   7.952   5.740   1.357 -0.5048  0.0891 -0.9176
   14CHTO   H89 5745   8.043   5.755   1.296  0.7946 -1.1095  0.6943
   14CHTO   O33 5746   7.926   5.600   1.388  0.0965 -0.0616  0.3220
   14CHTO   H70 5747   8.004   5.565   1.426  0.5515  0.1519 -0.4161
   14CHTO   C45 5748   7.954   5.834   1.494  0.3581  0.5961 -0.6199
   14CHTO   H87 5749   7.879   5.792   1.562 -0.2062 -1.3443 -2.3730
   14CHTO    N8 5750   8.090   5.821   1.555 -0.0396 -0.9924  0.1773
   14CHTO   H75 5751   8.159   5.890   1.509 -1.1602 -0.4889 -0.7846
   14CHTO   H76 5752   8.111   5.718   1.577 -1.5509 -1.1657  0.9187
   14CHTO   C43 5753   7.894   5.983   1.468 -0.2615 -1.0720  0.1215
   14CHTO   H85 5754   7.786   5.974   1.483 -0.7848  1.2537 -1.8400
   14CHTO   O29 5755   7.925   6.025   1.335 -1.0087  0.1532  0.3470
   14CHTO   C50 5756   7.874   5.945   1.231  0.5423 -0.0162  0.1591
   14CHTO   H92 5757   7.775   5.988   1.210 -0.4523 -1.8838  0.8561
   14CHTO   C54 5758   7.966   5.969   1.110  0.3818  0.0920  0.0497
   14CHTO   O36 5759   7.904   5.918   0.992  0.0905  0.2929 -0.2081
   14CHTO   H72 5760   7.873   5.992   0.944  2.2443  0.5378 -1.2849
   14CHTO   O27 5761   7.931   6.081   1.566 -0.4796  0.1337  0.0917
   14CHTO   C37 5762   7.849   6.177   1.644 -0.0156 -0.1192  0.6603
   14CHTO   H79 5763   7.906   6.234   1.719 -0.8581 -0.4680  1.5918
   14CHTO   C38 5764   7.791   6.285   1.553 -0.0916  0.1286 -0.0539
   14CHTO   H80 5765   7.760   6.233   1.461  0.1729  0.4498 -0.3294
   14CHTO   O31 5766   7.891   6.378   1.513 -0.2222  0.0853 -0.4721
   14CHTO   H68 5767   7.953   6.342   1.452  2.2352  3.1639  0.0856
   14CHTO   C39 5768   7.670   6.367   1.622 -0.7720  0.0151 -0.6201
   14CHTO   H81 5769   7.719   6.440   1.686 -0.0879 -0.6296 -0.4001
   14CHTO    N7 5770   7.581   6.439   1.526 -0.0283 -0.3824  0.0895
   14CHTO   H73 5771   7.641   6.516   1.481 -0.2983  0.1198  0.5831
   14CHTO   H74 5772   7.563   6.378   1.438 -1.1193  1.6662 -1.1331
   14CHTO   C40 5773   7.579   6.278   1.710  0.1845  0.6452  0.4366
   14CHTO   H82 5774   7.502   6.222   1.657  1.4685  0.8695 -1.7516
   14CHTO   O26 5775   7.660   6.196   1.797 -0.4364 -0.4072 -0.0802
   14CHTO   C41 5776   7.735   6.107   1.718  0.5099 -0.1784 -0.1697
   14CHTO   H83 5777   7.666   6.059   1.647 -1.1285  0.4158  1.0008
   14CHTO   C52 5778   7.792   5.989   1.814 -0.4054  0.9301  0.0633
   14CHTO   O35 5779   7.687   5.928   1.889  0.2814 -0.4255  0.1397
   14CHTO   H71 5780   7.645   5.990   1.946  0.6008 -0.2204  0.1472
   14CHTO   O28 5781   7.513   6.350   1.815  0.2561 -0.5263  0.4729
   14CHTO   C42 5782   7.376   6.338   1.858  0.1237  0.4578 -0.9369
   14CHTO   H84 5783   7.381   6.362   1.964 -1.4276  1.8067 -1.1604
   14CHTO   C44 5784   7.321   6.193   1.847  0.0532  0.0782  0.5172
   14CHTO   H86 5785   7.320   6.171   1.740  0.2082 -0.8122  0.6959
   14CHTO   O32 5786   7.419   6.105   1.911  0.2109 -0.1241 -0.5687
   14CHTO   H69 5787   7.408   6.090   2.003 -1.2621  1.3922 -0.4714
   14CHTO   C48 5788   7.171   6.176   1.902  0.2223 -0.6200 -0.0351
   14CHTO   H90 5789   7.178   6.184   2.011  2.3402  0.1011 -0.2010
   14CHTO    N9 5790   7.129   6.025   1.893 -1.2232  0.1768  0.5505
   14CHTO   H77 5791   7.193   5.956   1.839 -0.2709 -0.5307  2.5501
   14CHTO   H78 5792   7.022   6.020   1.884 -0.9229 -0.1911 -4.0127
   14CHTO   C51 5793   7.074   6.278   1.833  0.7062  0.3559 -0.4831
   14CHTO   H93 5794   7.074   6.259   1.726  0.8310 -0.2353 -0.3785
   14CHTO   O30 5795   7.117   6.413   1.858 -0.1265 -0.0820  0.5265
   14CHTO   C46 5796   7.278   6.435   1.797 -0.4921  0.2940 -0.2456
   14CHTO   H88 5797   7.278   6.415   1.689  0.6332  0.4195 -0.2695
   14CHTO   C53 5798   7.310   6.582   1.826 -0.3922  1.0624  0.2988
   14CHTO   O72 5799   7.220   6.670   1.759 -0.3836  0.6439  0.1906
   14CHTO  H199 5800   7.137   6.671   1.803 -0.1269 -1.9014  0.7985
   14CHTO   O22 5801   6.945   6.278   1.884  0.4841 -0.8920 -0.5236
   14CHTO   C31 5802   6.828   6.259   1.787  0.0414  0.6975 -0.1997
   14CHTO   H59 5803   6.878   6.237   1.691  2.8098 -1.0917  1.5819
   14CHTO   C29 5804   6.735   6.142   1.828  0.0644 -0.5266 -0.3097
   14CHTO   H57 5805   6.703   6.163   1.931 -1.1782  0.1371 -0.8145
   14CHTO   O21 5806   6.812   6.016   1.817 -0.4021 -0.5200 -0.1771
   14CHTO   H37 5807   6.825   5.986   1.729  0.4846  0.6530 -0.4781
   14CHTO   C27 5808   6.612   6.118   1.735  0.3416 -0.1922 -0.2125
   14CHTO   H55 5809   6.648   6.069   1.644 -1.2930  1.3468 -1.7330
   14CHTO    N5 5810   6.511   6.027   1.799 -0.1058  0.4519  0.1449
   14CHTO   H43 5811   6.536   5.923   1.792  1.4541  0.8655 -0.7071
   14CHTO   H44 5812   6.522   6.049   1.905 -0.7631  0.8999  0.1252
   14CHTO   C25 5813   6.545   6.259   1.704  0.6943  0.3237  0.2601
   14CHTO   H53 5814   6.489   6.295   1.792 -0.6483 -0.0748 -0.4107
   14CHTO   O17 5815   6.647   6.356   1.661 -0.4173  0.0870  0.6717
   14CHTO   C32 5816   6.743   6.392   1.754  0.5152  0.2388 -0.2331
   14CHTO   H60 5817   6.689   6.423   1.844 -1.0891  1.5280 -1.6083
   14CHTO   C36 5818   6.830   6.513   1.708 -0.3081 -0.4762  0.0823
   14CHTO   O25 5819   6.751   6.633   1.723 -0.2238 -0.3356  0.5777
   14CHTO   H40 5820   6.786   6.681   1.796  1.6469 -0.2875 -0.3314
   14CHTO   O15 5821   6.438   6.247   1.588 -0.2139  0.2001 -0.0812
   14CHTO   C19 5822   6.311   6.318   1.567  0.6626  0.1877  0.7964
   14CHTO   H47 5823   6.286   6.294   1.463 -0.9824 -1.5904  1.5781
   14CHTO   C20 5824   6.190   6.278   1.660 -0.0516 -0.0557  0.1070
   14CHTO   H48 5825   6.199   6.323   1.760  1.9283  1.6014 -0.7771
   14CHTO   O19 5826   6.191   6.132   1.673  0.1088  0.5768 -0.1857
   14CHTO   H35 5827   6.225   6.102   1.755  1.9878  3.0199  0.0051
   14CHTO   C21 5828   6.063   6.340   1.603 -0.1109  0.1762  0.1746
   14CHTO   H49 5829   6.050   6.310   1.498 -0.8244  1.0928 -0.0116
   14CHTO    N4 5830   5.942   6.303   1.679 -0.3740 -0.6199 -0.0352
   14CHTO   H41 5831   5.902   6.202   1.673 -0.6826 -0.6340  1.8023
   14CHTO   H42 5832   5.936   6.348   1.777 -0.5766 -0.6284 -0.0442
   14CHTO   C22 5833   6.079   6.496   1.598 -0.3694  0.4761 -1.3805
   14CHTO   H50 5834   6.072   6.527   1.702  0.2764 -1.2440 -0.8111
   14CHTO   O14 5835   6.194   6.533   1.524 -0.0893  0.0053 -0.1967
   14CHTO   C23 5836   6.317   6.473   1.569  0.9807 -0.6289 -0.0123
   14CHTO   H51 5837   6.338   6.516   1.668  1.0397  2.3469 -1.2654
   14CHTO   C34 5838   6.427   6.520   1.470  0.2052  0.4554  0.4168
   14CHTO   O23 5839   6.451   6.662   1.480  0.3822  0.5402  0.0643
   14CHTO   H38 5840   6.435   6.690   1.569 -0.6005  0.1155  0.0267
   14CHTO   O16 5841   5.970   6.555   1.526  0.7384  0.0892 -0.1847
   14CHTO   C24 5842   5.929   6.723   1.559  0.1605  1.0549  0.2432
   14CHTO   H52 5843   5.893   6.774   1.469 -1.4957  0.5086  0.5745
   14CHTO   C26 5844   6.046   6.809   1.610  0.0969 -0.3368  0.3447
   14CHTO   H54 5845   6.083   6.764   1.705 -1.7454 -1.1115  0.7348
   14CHTO   O20 5846   6.154   6.812   1.513  0.2622  0.1212 -0.0366
   14CHTO   H36 5847   6.130   6.749   1.449  1.0165 -1.4381  1.1858
   14CHTO   C30 5848   5.994   6.956   1.642 -0.1565  0.0418 -0.1680
   14CHTO   H58 5849   5.961   7.002   1.548  1.0241 -0.6192 -0.9116
   14CHTO    N6 5850   6.108   7.036   1.705 -0.2222  0.4496  0.4357
   14CHTO   H45 5851   6.075   7.138   1.706 -1.4927  0.0452  1.2026
   14CHTO   H46 5852   6.119   7.007   1.809 -1.2066  0.5480  0.5664
   14CHTO   C33 5853   5.865   6.944   1.736 -0.5380  0.4286  0.7393
   14CHTO   H61 5854   5.900   6.905   1.833 -0.3490  0.2937  0.6157
   14CHTO   O18 5855   5.760   6.855   1.685 -0.0166  0.4443 -0.4041
   14CHTO   C28 5856   5.809   6.724   1.659 -0.1528 -0.1369  0.5433
   14CHTO   H56 5857   5.841   6.666   1.746  0.3034  0.8615  1.0408
   14CHTO   C35 5858   5.699   6.624   1.610  0.4688  0.6383 -0.1023
   14CHTO   O24 5859   5.616   6.667   1.500  0.0966  0.0919 -0.2430
   14CHTO   H39 5860   5.545   6.718   1.536 -1.7411 -1.4277 -1.5854
   14CHTO    O9 5861   5.813   7.077   1.759  0.4808 -0.3057  0.2569
   14CHTO   C13 5862   5.741   7.093   1.881 -0.9823  0.0670  0.3832
   14CHTO   H26 5863   5.794   7.048   1.968 -2.0613  1.0894  1.5953
   14CHTO   C11 5864   5.597   7.029   1.860 -0.1059  0.0097  0.3125
   14CHTO   H24 5865   5.610   6.919   1.866 -0.8855 -0.0671  0.6990
   14CHTO    O8 5866   5.540   7.055   1.729  0.4502  0.5380  0.1235
   14CHTO    H3 5867   5.615   7.065   1.673  0.2731  2.3888  0.1592
   14CHTO    C9 5868   5.505   7.098   1.966 -0.2554  0.4568  0.4329
   14CHTO   H22 5869   5.546   7.074   2.066 -0.1910 -1.9032 -0.1257
   14CHTO    N2 5870   5.370   7.041   1.973 -0.4168 -0.7563  0.0525
   14CHTO   H10 5871   5.360   6.937   1.946  0.8560 -0.5226 -1.3723
   14CHTO   H11 5872   5.315   7.110   1.911  1.7844  1.9528  1.0157
   14CHTO    C7 5873   5.504   7.259   1.962 -0.0002  0.2462 -0.2257
   14CHTO   H20 5874   5.507   7.289   2.068 -0.6086 -0.0063 -0.1302
   14CHTO    O4 5875   5.617   7.313   1.894  0.2715  0.3512  0.1601
   14CHTO   C14 5876   5.741   7.245   1.929 -0.0006 -0.3142 -0.6317
   14CHTO   H27 5877   5.751   7.245   2.039  2.9712 -0.8814 -0.8608
   14CHTO   C18 5878   5.860   7.328   1.866 -0.7018 -0.0609 -0.3620
   14CHTO   O13 5879   5.893   7.450   1.940 -0.5563 -0.5637  0.1104
   14CHTO    H7 5880   5.934   7.518   1.889 -0.4128 -1.8288 -1.4789
   14CHTO    O2 5881   5.383   7.325   1.894  0.2060 -0.3489  0.1619
   14CHTO    C1 5882   5.345   7.458   1.929  0.0922  0.1135  0.0596
   14CHTO   H14 5883   5.266   7.490   1.858  0.6751  2.0253  0.2312
   14CHTO    C2 5884   5.462   7.565   1.934  0.4587  0.4027  0.7713
   14CHTO   H15 5885   5.536   7.529   2.007 -0.8113 -1.2608  1.2601
   14CHTO    O6 5886   5.519   7.572   1.804 -0.7372 -0.3831 -0.0327
   14CHTO    H1 5887   5.596   7.518   1.809 -0.4817 -0.0134 -0.0286
   14CHTO    C3 5888   5.404   7.708   1.968 -0.2422  0.2274  0.1741
   14CHTO   H16 5889   5.330   7.734   1.891 -0.2235 -2.0412 -0.6255
   14CHTO    N1 5890   5.496   7.825   1.963  0.5031  0.0797  0.5674
   14CHTO    H8 5891   5.591   7.798   1.920 -0.1698 -0.2400 -0.7329
   14CHTO    H9 5892   5.510   7.865   2.062 -0.3473  1.4794  0.1375
   14CHTO    C4 5893   5.321   7.693   2.104 -0.3312  0.3757  0.3465
   14CHTO   H17 5894   5.388   7.666   2.185 -2.3557 -0.0190  1.9218
   14CHTO    O1 5895   5.220   7.596   2.089  0.6760 -0.7724 -0.2023
   14CHTO    C5 5896   5.271   7.465   2.069 -0.6033 -0.5906 -0.8051
   14CHTO   H18 5897   5.353   7.431   2.132  0.2219  0.3154 -1.3631
   14CHTO   C16 5898   5.158   7.366   2.080  0.2207  0.4333  0.0918
   14CHTO   O11 5899   5.108   7.345   2.209 -0.2170  0.1774  0.3838
   14CHTO    H5 5900   5.082   7.428   2.245  0.5629  0.7600 -0.4000
   14CHTO    O3 5901   5.250   7.812   2.141  0.0696  0.3760  0.2454
   14CHTO    C6 5902   5.239   7.850   2.282 -1.2131 -0.3088  0.0963
   14CHTO   H19 5903   5.283   7.777   2.350  0.9924  1.3964  0.5685
   14CHTO    C8 5904   5.304   7.999   2.306  0.5132 -0.1840 -0.4789
   14CHTO   H21 5905   5.266   8.071   2.233 -3.4380  1.0378  2.6283
   14CHTO    O7 5906   5.447   7.993   2.293  0.3291  0.2092 -0.1865
   14CHTO    H2 5907   5.484   8.078   2.294 -3.0941  1.7897  1.6084
   14CHTO   C12 5908   5.269   8.053   2.450 -0.5646 -0.3789 -0.0067
   14CHTO   H25 5909   5.325   7.987   2.519 -1.5092  0.8593  1.9668
   14CHTO    N3 5910   5.317   8.194   2.470 -0.1499  0.3156  0.1020
   14CHTO   H12 5911   5.293   8.219   2.573  0.7647  1.3565  0.0731
   14CHTO   H13 5912   5.265   8.260   2.403 -1.6060 -1.8285 -0.9107
   14CHTO   C15 5913   5.111   8.039   2.473 -0.0126 -0.2507 -0.0223
   14CHTO   H28 5914   5.051   8.114   2.422 -0.9826 -0.4980  0.7502
   14CHTO   O10 5915   5.077   8.031   2.620  0.4643  0.2947 -0.1517
   14CHTO    H4 5916   5.026   8.105   2.646 -1.6736 -0.4083 -2.1965
   14CHTO    O5 5917   5.060   7.910   2.436  0.5749 -0.1134  0.8071
   14CHTO   C10 5918   5.088   7.864   2.306 -0.1059 -0.4373  0.2651
   14CHTO   H23 5919   5.055   7.942   2.238  1.3690  1.6502  1.8837
   14CHTO   C17 5920   5.013   7.729   2.291  0.4449  0.0954  0.7484
   14CHTO   O12 5921   5.042   7.629   2.395 -0.0394 -0.3756  0.0833
   14CHTO    H6 5922   4.999   7.551   2.366  0.0513 -0.5697  0.4684
   15CHTO  H203 5923   7.978   4.862   1.894  0.9776 -0.3679 -0.2603
   15CHTO   O82 5924   7.966   4.932   1.832  0.0830 -0.4708 -0.2078
   15CHTO  C123 5925   7.904   4.884   1.709  0.2257 -0.6597 -0.2574
   15CHTO  H227 5926   7.926   4.777   1.699  1.3794 -0.6251  1.6134
   15CHTO   O77 5927   7.763   4.917   1.739  0.0722  0.2221 -0.1972
   15CHTO  C118 5928   7.677   4.851   1.644 -0.6485 -0.2668  0.1261
   15CHTO  H222 5929   7.693   4.743   1.652 -0.3537 -0.1265  1.6960
   15CHTO  C125 5930   7.529   4.879   1.685 -0.6381  0.0944 -0.7270
   15CHTO   O84 5931   7.506   4.860   1.827 -0.1739  0.1142 -0.0908
   15CHTO  H205 5932   7.552   4.923   1.878  0.9246 -1.0535  0.3798
   15CHTO  C114 5933   7.706   4.919   1.501 -0.5435  0.2991 -0.6766
   15CHTO  H218 5934   7.677   5.024   1.511 -1.5694 -0.0399  0.0033
   15CHTO  C116 5935   7.855   4.913   1.457  0.3276 -0.3854 -0.2205
   15CHTO  H220 5936   7.883   4.811   1.423  1.0126  0.2969 -1.7808
   15CHTO   O79 5937   7.869   5.001   1.349 -0.8754 -0.2728  0.3927
   15CHTO  H201 5938   7.869   5.088   1.385 -1.8306  0.2864 -0.9181
   15CHTO  C120 5939   7.951   4.960   1.577 -0.2733 -0.0893 -0.6419
   15CHTO  H224 5940   7.932   5.068   1.592  0.7115 -0.2038  1.5019
   15CHTO   N21 5941   8.095   4.940   1.548 -0.5458  0.5538 -0.0738
   15CHTO  H211 5942   8.148   5.012   1.607 -1.1320  1.0785 -0.1818
   15CHTO  H212 5943   8.116   4.845   1.596 -2.1451  0.2267  0.0041
   15CHTO   O75 5944   7.615   4.880   1.401 -0.2295 -0.0871 -0.6184
   15CHTO  C112 5945   7.575   4.725   1.405 -0.7915 -0.2424  0.2569
   15CHTO  H216 5946   7.522   4.691   1.494 -0.7391  0.7366  0.6632
   15CHTO   O73 5947   7.696   4.647   1.384  0.3560  0.4107 -0.2761
   15CHTO  C113 5948   7.668   4.508   1.359 -0.3101  0.1984  0.0616
   15CHTO  H217 5949   7.626   4.470   1.455  3.1733 -1.2623  1.0612
   15CHTO  C124 5950   7.798   4.434   1.336  0.4272 -0.1443  1.0281
   15CHTO   O83 5951   7.796   4.296   1.380 -0.3331 -0.2678  0.2350
   15CHTO  H204 5952   7.759   4.302   1.466  2.3716  0.9504  1.3887
   15CHTO  C109 5953   7.577   4.492   1.232  0.0788 -0.5772 -0.2977
   15CHTO  H213 5954   7.631   4.534   1.146  3.3020  0.5344  2.1649
   15CHTO  C110 5955   7.438   4.555   1.251  0.6976  0.2603  0.4842
   15CHTO  H214 5956   7.388   4.506   1.334  0.8461 -3.2405 -1.4152
   15CHTO   O78 5957   7.352   4.541   1.137 -0.3189 -0.6817  0.0430
   15CHTO  H200 5958   7.314   4.455   1.131  1.2934 -1.4045  0.0311
   15CHTO  C111 5959   7.463   4.706   1.288  0.0903  0.5884  0.5437
   15CHTO  H215 5960   7.501   4.756   1.198 -3.2175  1.9430 -0.1805
   15CHTO   N19 5961   7.344   4.775   1.326  1.0301  0.7473 -0.0302
   15CHTO  H207 5962   7.274   4.704   1.368 -0.1261  0.8417 -1.7541
   15CHTO  H208 5963   7.298   4.815   1.237 -0.2369  4.9914  2.3765
   15CHTO   O74 5964   7.555   4.351   1.219  0.4917 -0.5018 -0.1992
   15CHTO  C115 5965   7.493   4.294   1.084 -0.7015 -0.0682 -0.4039
   15CHTO  H219 5966   7.453   4.373   1.021 -1.9301  0.6958  1.3011
   15CHTO   O76 5967   7.603   4.219   1.000  0.8106  0.1197 -0.4401
   15CHTO  C122 5968   7.683   4.127   1.071  0.5570  0.5042  0.0035
   15CHTO  H226 5969   7.739   4.182   1.146 -0.8625  1.3470  0.4679
   15CHTO  C126 5970   7.791   4.067   0.983  0.2376  0.4588  0.2035
   15CHTO   O85 5971   7.895   4.157   0.950  0.0873 -0.2963 -0.2158
   15CHTO  H206 5972   7.966   4.142   1.009 -0.8102 -0.2664  0.8630
   15CHTO  C121 5973   7.590   4.016   1.137  0.1070 -0.5786 -0.3162
   15CHTO  H225 5974   7.626   3.915   1.106  2.4614 -0.0935  0.6849
   15CHTO   O81 5975   7.605   4.024   1.284 -0.4952  0.3989  0.1394
   15CHTO  H202 5976   7.696   4.012   1.305  0.0408 -2.0151 -3.0998
   15CHTO  C119 5977   7.434   4.035   1.097 -0.1946 -0.3037  0.3693
   15CHTO  H223 5978   7.440   4.019   0.990  0.0632 -0.8840  0.4623
   15CHTO  C117 5979   7.384   4.181   1.126  0.5615 -0.2874  0.0570
   15CHTO  H221 5980   7.368   4.202   1.232 -0.6712  0.1361 -0.1974
   15CHTO   N20 5981   7.254   4.218   1.059 -0.4078 -0.0600  0.5234
   15CHTO  H209 5982   7.184   4.136   1.073 -0.0580 -0.5805 -0.6578
   15CHTO  H210 5983   7.208   4.302   1.109 -1.6827 -0.2752 -0.2632
   15CHTO   O80 5984   7.339   3.909   1.151  0.3127  0.1985  0.0852
   15CHTO  C103 5985   7.248   3.824   1.049 -0.3279  0.6902  0.2861
   15CHTO  H190 5986   7.191   3.758   1.114  0.0253 -0.3390 -0.4510
   15CHTO  C101 5987   7.143   3.884   0.960  0.1660  0.3165 -1.0642
   15CHTO  H188 5988   7.198   3.951   0.894  1.9168  0.1847  0.2156
   15CHTO   O68 5989   7.035   3.949   1.055  0.2224  0.3858  0.4187
   15CHTO  H168 5990   7.029   4.034   1.017  2.5073 -0.5232 -2.1342
   15CHTO   C99 5991   7.066   3.777   0.869  0.5151  0.2500  0.0418
   15CHTO  H186 5992   7.006   3.706   0.929 -1.6006  1.7651 -0.2053
   15CHTO   N17 5993   6.969   3.837   0.768  0.5214  0.0940 -0.4454
   15CHTO  H174 5994   6.874   3.845   0.819  0.2461 -2.1820 -0.5576
   15CHTO  H175 5995   6.951   3.765   0.689 -0.2426  1.6545 -1.7320
   15CHTO   C97 5996   7.176   3.688   0.801  0.6495  0.8425  0.4076
   15CHTO  H184 5997   7.230   3.747   0.725 -0.5300  2.0120  0.4513
   15CHTO   O64 5998   7.269   3.629   0.896  0.6969 -0.1978  0.4534
   15CHTO  C104 5999   7.346   3.729   0.966  0.7355  0.7485 -0.2417
   15CHTO  H191 6000   7.405   3.789   0.896  1.9648 -0.6065 -0.3728
   15CHTO  C108 6001   7.451   3.652   1.050  0.3518 -0.2736 -0.4233
   15CHTO   O71 6002   7.380   3.582   1.152  0.0871 -0.1930 -0.4883
   15CHTO  H171 6003   7.419   3.496   1.158 -2.7279 -1.7014 -2.7952
   15CHTO   O62 6004   7.113   3.572   0.752  0.1204 -0.0808 -0.3929
   15CHTO   C91 6005   7.171   3.494   0.648 -0.2245  0.2164 -0.5641
   15CHTO  H178 6006   7.233   3.559   0.586 -0.6328 -1.6015 -2.9268
   15CHTO   C92 6007   7.056   3.441   0.552 -0.3819  0.0359 -0.7414
   15CHTO  H179 6008   6.989   3.525   0.529 -0.8732 -0.5771 -1.5825
   15CHTO   O66 6009   7.120   3.400   0.429 -0.1619 -0.4954 -0.0935
   15CHTO  H166 6010   7.195   3.344   0.427 -0.4952 -0.9163 -1.0308
   15CHTO   C93 6011   6.978   3.308   0.601  0.4050 -0.3991  0.1635
   15CHTO  H180 6012   6.924   3.268   0.514  1.7371 -0.7976 -0.4959
   15CHTO   N16 6013   6.866   3.335   0.697  0.2344  1.1312 -0.1373
   15CHTO  H172 6014   6.826   3.250   0.750  0.7030 -0.0275 -1.6266
   15CHTO  H173 6015   6.798   3.410   0.660  0.7186  1.0802 -1.1517
   15CHTO   C94 6016   7.083   3.205   0.658 -0.4239  0.1270  0.5485
   15CHTO  H181 6017   7.069   3.188   0.765 -2.2885 -1.8599  0.0275
   15CHTO   O61 6018   7.218   3.247   0.629  0.6259  0.2168 -0.3651
   15CHTO   C95 6019   7.255   3.372   0.695  0.2794 -0.1616 -0.1163
   15CHTO  H182 6020   7.234   3.359   0.801  0.9489  0.9477  0.1696
   15CHTO  C106 6021   7.401   3.417   0.675 -0.2583 -0.2628 -0.4888
   15CHTO   O69 6022   7.495   3.313   0.703 -0.6346  0.4304 -0.2211
   15CHTO  H169 6023   7.491   3.314   0.797  2.2970  1.5743 -0.0581
   15CHTO   O63 6024   7.062   3.074   0.583 -0.3588 -0.6366 -0.2512
   15CHTO   C96 6025   7.075   2.957   0.687  0.2822  0.2561  0.7283
   15CHTO  H183 6026   7.121   2.990   0.780 -0.4761  0.3362  1.0785
   15CHTO   C98 6027   7.168   2.842   0.631 -0.2143  0.7313 -0.2514
   15CHTO  H185 6028   7.140   2.826   0.525 -1.4739  1.6045 -0.0604
   15CHTO   O67 6029   7.297   2.900   0.637 -0.3952 -0.2714 -0.3044
   15CHTO  H167 6030   7.323   2.923   0.550 -2.9737 -0.1265 -1.0906
   15CHTO  C102 6031   7.146   2.703   0.714 -0.3128 -0.1804  0.4125
   15CHTO  H189 6032   7.178   2.715   0.818  1.6620 -1.0973 -0.0739
   15CHTO   N18 6033   7.229   2.590   0.661 -0.3277 -0.5828 -0.3395
   15CHTO  H176 6034   7.253   2.603   0.556 -0.4103 -1.2833 -0.4520
   15CHTO  H177 6035   7.315   2.580   0.724 -0.5033 -0.0939 -0.0201
   15CHTO  C105 6036   6.993   2.671   0.714 -0.0987 -0.1042  0.5882
   15CHTO  H192 6037   6.955   2.685   0.613  1.4958  0.9079  0.1094
   15CHTO   O65 6038   6.939   2.770   0.796  0.1050  0.1898 -0.1008
   15CHTO  C100 6039   6.930   2.899   0.735  0.4638 -0.1418  0.5716
   15CHTO  H187 6040   6.866   2.889   0.646  0.2405  0.7398  0.6250
   15CHTO  C107 6041   6.860   2.993   0.832 -0.3340 -0.5266 -0.4260
   15CHTO   O70 6042   6.715   2.982   0.839  0.1733  0.0816  0.0495
   15CHTO  H170 6043   6.673   3.063   0.817 -0.7067 -0.1176  0.9649
   15CHTO   O57 6044   6.949   2.509   0.775 -0.8522 -0.2707 -0.0044
   15CHTO   C85 6045   6.956   2.447   0.902  0.0149  0.0144  0.6561
   15CHTO  H157 6046   7.005   2.523   0.966 -0.2835  0.5268  0.2788
   15CHTO   C83 6047   7.050   2.326   0.898  0.1189 -0.9128  0.1489
   15CHTO  H155 6048   7.147   2.356   0.859 -0.5521  1.8935  0.5231
   15CHTO   O56 6049   7.007   2.230   0.802 -0.7016  0.7012  0.3302
   15CHTO  H135 6050   6.931   2.178   0.819  0.2917 -0.5995  0.8511
   15CHTO   C81 6051   7.066   2.268   1.043  0.6642  0.4698 -0.8345
   15CHTO  H153 6052   7.093   2.353   1.106 -0.4309  0.9162 -0.9471
   15CHTO   N14 6053   7.177   2.161   1.060 -0.2663 -0.0302 -0.1540
   15CHTO  H141 6054   7.164   2.099   1.146  0.0783  0.6426  0.3859
   15CHTO  H142 6055   7.268   2.215   1.072  1.1807 -1.9162 -2.4229
   15CHTO   C79 6056   6.921   2.209   1.088  0.1174  0.5224  0.4382
   15CHTO  H151 6057   6.926   2.190   1.195  1.7328 -2.3194 -0.0895
   15CHTO   O52 6058   6.825   2.319   1.078  0.1715  0.1066 -0.2667
   15CHTO   C86 6059   6.818   2.399   0.955 -0.1809  0.0306  0.0623
   15CHTO  H158 6060   6.765   2.336   0.880  0.5252 -0.0264 -0.3916
   15CHTO   C90 6061   6.718   2.518   0.973 -0.6295  0.3185  0.0102
   15CHTO   O60 6062   6.610   2.488   1.058  0.6502  0.1998 -0.2692
   15CHTO  H138 6063   6.623   2.436   1.134 -0.0077 -1.3099 -1.1549
   15CHTO   O50 6064   6.879   2.093   1.020 -0.4749  0.2244  0.2387
   15CHTO   C73 6065   6.763   2.005   1.007  0.3496 -0.2191 -0.1194
   15CHTO  H145 6066   6.678   2.068   0.976  1.4047  0.6041 -1.4057
   15CHTO   C74 6067   6.725   1.942   1.140 -0.1448  0.2580  0.5485
   15CHTO  H146 6068   6.710   2.026   1.210 -1.1713  0.2252  0.3727
   15CHTO   O54 6069   6.605   1.868   1.126  0.0424 -0.8480  0.3445
   15CHTO  H133 6070   6.536   1.927   1.148  0.6128  0.5749 -1.4910
   15CHTO   C75 6071   6.842   1.845   1.188  0.0430  0.3464  0.3260
   15CHTO  H147 6072   6.931   1.906   1.207  1.9461 -2.0211 -0.7587
   15CHTO   N13 6073   6.814   1.772   1.320 -0.2614  0.3010 -0.3105
   15CHTO  H139 6074   6.878   1.794   1.404 -0.9382 -0.0124  0.2891
   15CHTO  H140 6075   6.723   1.817   1.357 -0.2958  0.0747 -0.1190
   15CHTO   C76 6076   6.892   1.748   1.066  0.3909 -0.6247 -0.6128
   15CHTO  H148 6077   6.818   1.670   1.048 -0.8176  0.1868  0.7510
   15CHTO   O49 6078   6.900   1.814   0.934  0.3489  0.4750 -0.3230
   15CHTO   C77 6079   6.785   1.896   0.897 -0.6717  0.1296  0.0552
   15CHTO  H149 6080   6.699   1.831   0.888  0.1040 -0.6931 -1.6040
   15CHTO   C88 6081   6.822   1.949   0.759  0.0117  0.2836 -0.6323
   15CHTO   O58 6082   6.724   2.052   0.693 -0.2319 -0.2281  0.3170
   15CHTO  H136 6083   6.663   2.016   0.632 -0.2456 -0.3310  0.3905
   15CHTO   O51 6084   7.050   1.701   1.108 -0.2726  0.8239 -0.4472
   15CHTO   C78 6085   7.130   1.603   1.007  0.5738 -0.2623  0.6625
   15CHTO  H150 6086   7.081   1.588   0.908  3.3107 -0.9432 -0.6183
   15CHTO   C80 6087   7.143   1.465   1.074 -0.3159  0.3817 -0.0738
   15CHTO  H152 6088   7.183   1.488   1.174 -2.7179  1.7761  0.6177
   15CHTO   O55 6089   7.020   1.401   1.095  0.5030 -0.1923  0.0516
   15CHTO  H134 6090   6.981   1.450   1.165 -0.3893  0.3226 -0.7927
   15CHTO   C84 6091   7.241   1.369   1.007  0.2194 -0.7825 -0.3853
   15CHTO  H156 6092   7.204   1.344   0.908  0.6188  2.6617 -1.4703
   15CHTO   N15 6093   7.259   1.238   1.083 -0.0012 -0.6120 -0.5005
   15CHTO  H143 6094   7.299   1.257   1.180 -3.0148  1.2424  0.4314
   15CHTO  H144 6095   7.324   1.175   1.026 -0.5241 -0.8390 -0.8536
   15CHTO   C87 6096   7.371   1.442   0.983 -0.0082 -0.3660  0.1832
   15CHTO  H159 6097   7.418   1.462   1.079  0.4467  1.2287 -0.3530
   15CHTO   O53 6098   7.350   1.581   0.904 -1.0511  0.5804  0.1058
   15CHTO   C82 6099   7.269   1.671   0.986  0.1353  0.4679  0.4451
   15CHTO  H154 6100   7.317   1.694   1.081  0.6964  0.5682  0.1388
   15CHTO   C89 6101   7.255   1.803   0.905  1.3308  0.0235  0.1014
   15CHTO   O59 6102   7.375   1.876   0.916 -0.0692 -0.2482  0.0950
   15CHTO  H137 6103   7.437   1.845   0.853  0.2969 -1.2887  0.9356
   15CHTO   O45 6104   7.470   1.349   0.887 -0.0703 -0.4633  0.0656
   15CHTO   C67 6105   7.608   1.408   0.890  0.3209 -1.0926 -0.1139
   15CHTO  H124 6106   7.602   1.500   0.948 -1.0937 -1.0509 -0.3168
   15CHTO   C65 6107   7.706   1.307   0.965 -0.1481 -0.4841  0.5181
   15CHTO  H122 6108   7.680   1.207   0.932  1.9914 -1.5511  1.9837
   15CHTO   O44 6109   7.684   1.313   1.108 -0.2089  0.6107  0.0010
   15CHTO  H102 6110   7.721   1.387   1.152 -1.7433  0.6953  1.2358
   15CHTO   C63 6111   7.851   1.319   0.914 -0.1485  0.4963  0.7952
   15CHTO  H120 6112   7.851   1.266   0.818  0.5180 -2.0790  2.1884
   15CHTO   N11 6113   7.957   1.243   0.985  0.2130 -0.0404 -0.6842
   15CHTO  H108 6114   7.974   1.142   0.954  1.1256 -0.4524  1.1568
   15CHTO  H109 6115   7.936   1.245   1.090  0.8394  1.6199 -0.5869
   15CHTO   C61 6116   7.888   1.469   0.873  0.5495  0.0949 -0.1259
   15CHTO  H118 6117   7.986   1.481   0.825  0.6062  1.2837  0.2882
   15CHTO   O40 6118   7.787   1.527   0.778  0.1179  0.2259  0.2234
   15CHTO   C68 6119   7.671   1.449   0.751 -0.0005 -0.1174  0.1701
   15CHTO  H125 6120   7.701   1.358   0.695  0.5544 -0.2060  0.6094
   15CHTO   C72 6121   7.581   1.522   0.652  0.4368 -0.0548 -0.3559
   15CHTO   O48 6122   7.548   1.650   0.702  0.0905  0.0047  0.0435
   15CHTO  H105 6123   7.502   1.658   0.784  1.1478 -0.5971  0.7046
   15CHTO   O38 6124   7.886   1.558   0.991 -0.2689 -0.4322  0.2371
   15CHTO   C55 6125   7.938   1.687   0.976 -0.6492 -0.4449 -0.5229
   15CHTO  H112 6126   7.932   1.732   0.876  0.5584  0.7103 -0.0922
   15CHTO   C56 6127   8.088   1.684   1.030  0.1698  0.6277 -0.2197
   15CHTO  H113 6128   8.082   1.642   1.132 -1.0749 -2.3739 -1.4876
   15CHTO   O42 6129   8.168   1.594   0.954 -0.1483 -0.0374 -0.4711
   15CHTO  H100 6130   8.131   1.508   0.942  1.0017 -0.8154  1.3321
   15CHTO   C57 6131   8.150   1.824   1.027  0.3547  0.5126  0.9280
   15CHTO  H114 6132   8.159   1.847   0.921 -1.5832 -0.6138  0.4991
   15CHTO   N10 6133   8.286   1.836   1.081  0.2385  0.7249 -0.8290
   15CHTO  H106 6134   8.335   1.740   1.082  0.0004  0.6149  1.0489
   15CHTO  H107 6135   8.286   1.878   1.180  0.1859  0.8435 -0.8790
   15CHTO   C58 6136   8.055   1.929   1.093 -0.1991  0.1242  1.0773
   15CHTO  H115 6137   8.060   1.911   1.202 -2.6090 -2.0839  0.8624
   15CHTO   O37 6138   7.920   1.917   1.043 -0.2146 -0.0097 -0.6859
   15CHTO   C59 6139   7.861   1.788   1.066 -0.0474 -0.5449 -0.0150
   15CHTO  H116 6140   7.872   1.748   1.166  1.3847  1.3568  0.6232
   15CHTO   C70 6141   7.711   1.776   1.034 -0.0960 -0.3938  0.1796
   15CHTO   O46 6142   7.686   1.831   0.903 -0.5032  0.3205 -0.3651
   15CHTO  H103 6143   7.688   1.925   0.900 -0.7580  0.3206 -0.5747
   15CHTO   O39 6144   8.106   2.085   1.064  0.2394 -0.4491 -0.0618
   15CHTO   C60 6145   8.079   2.133   0.933  0.5548 -0.1587 -0.3271
   15CHTO  H117 6146   8.076   2.054   0.858 -1.8198 -0.6697  0.2771
   15CHTO   C62 6147   7.937   2.201   0.919  0.5096  0.0006 -0.1385
   15CHTO  H119 6148   7.873   2.125   0.968  1.2401 -0.3485  0.2966
   15CHTO   O43 6149   7.939   2.313   1.012 -0.2021 -0.0955  0.7246
   15CHTO  H101 6150   7.898   2.282   1.091 -0.8781 -0.9694  0.0417
   15CHTO   C66 6151   7.906   2.243   0.777  0.3648 -0.6280  0.8092
   15CHTO  H123 6152   7.931   2.160   0.709 -2.9377 -0.8578 -0.2153
   15CHTO   N12 6153   7.766   2.278   0.750  0.5776  0.5925 -0.2033
   15CHTO  H110 6154   7.713   2.184   0.754 -2.3890  2.2171  0.1175
   15CHTO  H111 6155   7.755   2.320   0.651 -0.3899 -0.8830 -0.7524
   15CHTO   C69 6156   8.001   2.357   0.735  0.4556 -0.5956 -0.1657
   15CHTO  H126 6157   7.990   2.443   0.804  0.2106 -2.6629  2.4610
   15CHTO   O41 6158   8.150   2.303   0.750 -0.2442  0.2084  0.4193
   15CHTO   C64 6159   8.193   2.231   0.885 -0.7357 -0.4657 -0.1830
   15CHTO  H121 6160   8.220   2.308   0.961  0.1377  0.2950 -1.2477
   15CHTO   C71 6161   8.326   2.165   0.854 -0.1873  0.3302  0.1623
   15CHTO   O47 6162   8.323   2.096   0.734  0.6829 -0.4893  0.2254
   15CHTO  H104 6163   8.351   2.008   0.751 -2.3965 -1.6380 -0.2585
   15CHTO   O34 6164   7.983   2.411   0.585 -0.8824  0.1411  0.7033
   15CHTO   C49 6165   7.959   2.445   0.443 -0.1706  0.7553 -0.3869
   15CHTO   H91 6166   7.964   2.353   0.386 -0.7745  0.1283  0.5452
   15CHTO   C47 6167   8.064   2.549   0.399 -0.2746  0.5331 -0.4199
   15CHTO   H89 6168   8.056   2.559   0.288  2.7335  1.6478 -0.5940
   15CHTO   O33 6169   8.194   2.492   0.432  0.2561  0.4438  0.2995
   15CHTO   H70 6170   8.221   2.414   0.387  2.9133  2.8152 -2.5256
   15CHTO   C45 6171   8.044   2.685   0.466 -0.1488 -0.4327  0.0191
   15CHTO   H87 6172   8.054   2.668   0.574  0.5039 -0.7436 -0.0932
   15CHTO    N8 6173   8.151   2.780   0.423  0.5051  0.1916 -0.1562
   15CHTO   H75 6174   8.146   2.814   0.321 -0.1126  2.2831  0.5502
   15CHTO   H76 6175   8.165   2.864   0.489  1.6248 -0.5490  0.5854
   15CHTO   C43 6176   7.890   2.740   0.448 -0.1660  0.0523 -0.8760
   15CHTO   H85 6177   7.890   2.825   0.515  2.2592  0.1067 -0.9008
   15CHTO   O29 6178   7.794   2.629   0.486 -0.2161 -0.9806  0.0468
   15CHTO   C50 6179   7.813   2.495   0.439  0.2869 -0.5588  0.5152
   15CHTO   H92 6180   7.751   2.416   0.483 -0.4431  0.0738  0.6301
   15CHTO   C54 6181   7.751   2.477   0.298  0.1798 -0.6458  0.2312
   15CHTO   O36 6182   7.608   2.495   0.300  0.7124 -0.0779  0.6869
   15CHTO   H72 6183   7.595   2.547   0.223 -1.9015  0.7373  1.6376
   15CHTO   O27 6184   7.862   2.783   0.314 -0.1837  0.0184 -0.6074
   15CHTO   C37 6185   7.761   2.864   0.241 -0.0375 -0.2813 -0.2157
   15CHTO   H79 6186   7.700   2.796   0.180 -0.2647 -2.0349  1.8894
   15CHTO   C38 6187   7.680   2.942   0.349  0.8451 -0.0423 -0.0882
   15CHTO   H80 6188   7.749   3.009   0.403 -0.8306  1.7839 -0.1407
   15CHTO   O31 6189   7.617   2.839   0.430  0.1563 -0.0217 -0.6966
   15CHTO   H68 6190   7.683   2.824   0.495 -1.2848 -0.9660  0.5773
   15CHTO   C39 6191   7.568   3.028   0.279  0.1084 -0.6773 -0.3756
   15CHTO   H81 6192   7.502   2.970   0.215 -1.3793  2.2310 -1.5699
   15CHTO    N7 6193   7.483   3.107   0.377  0.6658 -0.6066  0.4083
   15CHTO   H73 6194   7.378   3.082   0.383  0.3375 -0.1421 -2.3574
   15CHTO   H74 6195   7.499   3.214   0.380 -2.2139 -0.0233 -2.3875
   15CHTO   C40 6196   7.643   3.120   0.168 -0.4634  0.0460 -0.4024
   15CHTO   H82 6197   7.701   3.201   0.211 -1.3748  0.2027  0.5605
   15CHTO   O26 6198   7.722   3.037   0.080 -0.0471 -0.1079 -0.1429
   15CHTO   C41 6199   7.831   2.969   0.143  0.1399  0.0208  0.2477
   15CHTO   H83 6200   7.897   3.041   0.193 -1.7611  1.1827  1.1292
   15CHTO   C52 6201   7.915   2.904   0.027  0.1901 -0.0047 -0.3932
   15CHTO   O35 6202   7.978   2.998  -0.085 -0.3962  0.1548  0.0744
   15CHTO   H71 6203   8.039   2.948  -0.136  0.6115  0.1284  1.2748
   15CHTO   O28 6204   7.543   3.185   0.081  0.2674  0.2000 -0.4858
   15CHTO   C42 6205   7.568   3.308   0.006  0.3529 -0.2518 -0.3192
   15CHTO   H84 6206   7.540   3.288  -0.098 -2.7536  3.0997 -0.1927
   15CHTO   C44 6207   7.711   3.362  -0.011 -0.7533 -0.1166  0.5195
   15CHTO   H86 6208   7.747   3.399   0.085 -0.7791 -0.3470  0.6182
   15CHTO   O32 6209   7.784   3.255  -0.079 -0.4482 -0.5874 -0.0778
   15CHTO   H69 6210   7.839   3.206  -0.021  0.7529 -0.5149 -1.1149
   15CHTO   C48 6211   7.718   3.494  -0.100 -0.2857 -0.0777 -0.3694
   15CHTO   H90 6212   7.718   3.464  -0.205  2.5072 -0.9133 -0.1639
   15CHTO    N9 6213   7.860   3.552  -0.089  0.6681 -0.2674  0.2974
   15CHTO   H77 6214   7.854   3.643  -0.032 -0.9830  0.2323 -0.6275
   15CHTO   H78 6215   7.885   3.575  -0.192  3.2516 -1.2456  0.6626
   15CHTO   C51 6216   7.606   3.598  -0.064  0.4970 -0.1667  0.2354
   15CHTO   H93 6217   7.632   3.646   0.030 -0.8180  0.4493  0.3035
   15CHTO   O30 6218   7.485   3.512  -0.055  0.5125 -0.6024  0.6032
   15CHTO   C46 6219   7.480   3.429   0.043 -0.1266 -0.3061  1.0269
   15CHTO   H88 6220   7.519   3.476   0.133 -0.6466 -1.0370  1.6381
   15CHTO   C53 6221   7.330   3.379   0.067  0.0394 -0.3773  0.2618
   15CHTO   O72 6222   7.311   3.307   0.191  0.1561  1.1423  0.6976
   15CHTO  H199 6223   7.358   3.227   0.177 -1.1406  0.3960  0.5750
   15CHTO   O22 6224   7.598   3.690  -0.171  0.0522 -0.6127  0.3677
   15CHTO   C31 6225   7.545   3.829  -0.150  1.2049  0.7446  0.2435
   15CHTO   H59 6226   7.570   3.878  -0.246  2.0010 -0.6395 -0.2749
   15CHTO   C29 6227   7.386   3.838  -0.145 -0.2245  0.1154  0.1070
   15CHTO   H57 6228   7.342   3.770  -0.070  0.2321 -1.0364 -0.6529
   15CHTO   O21 6229   7.337   3.810  -0.281  0.3398  0.2648  0.0993
   15CHTO   H37 6230   7.347   3.718  -0.298 -0.1020 -0.4522  3.4996
   15CHTO   C27 6231   7.333   3.983  -0.118 -0.1247 -0.3070  0.0763
   15CHTO   H55 6232   7.354   4.049  -0.204 -0.1671  1.9459  1.7449
   15CHTO    N5 6233   7.185   3.989  -0.095 -0.3431 -0.0231 -0.3852
   15CHTO   H43 6234   7.141   4.081  -0.061 -3.4542 -1.7546  0.5253
   15CHTO   H44 6235   7.132   3.959  -0.184 -1.0925 -0.9925  0.3793
   15CHTO   C25 6236   7.398   4.033   0.012 -0.6695 -0.2529  0.6006
   15CHTO   H53 6237   7.385   3.962   0.095  0.4552  0.0838  1.0844
   15CHTO   O17 6238   7.546   4.040  -0.017 -0.3793  0.1607  0.2415
   15CHTO   C32 6239   7.613   3.910  -0.031  0.5345  0.8231  0.2996
   15CHTO   H60 6240   7.594   3.858   0.063 -1.9830  0.5164 -0.3447
   15CHTO   C36 6241   7.769   3.920  -0.044  0.4722  0.5485  0.1116
   15CHTO   O25 6242   7.829   3.927   0.087  0.0631  0.2839 -0.4070
   15CHTO   H40 6243   7.891   3.997   0.097 -0.5794  0.8054 -0.0342
   15CHTO   O15 6244   7.353   4.181   0.061  0.0630  0.0543  0.1144
   15CHTO   C19 6245   7.403   4.306   0.120  0.6712  0.7912  0.5726
   15CHTO   H47 6246   7.466   4.354   0.044  0.3256  2.2757  1.1921
   15CHTO   C20 6247   7.285   4.411   0.145  0.8392  0.0202 -0.7354
   15CHTO   H48 6248   7.197   4.364   0.192 -0.4445  1.6210 -1.4445
   15CHTO   O19 6249   7.228   4.452   0.015 -0.3457  0.0837  0.5489
   15CHTO   H35 6250   7.136   4.463   0.027  0.1367  3.8063  1.4607
   15CHTO   C21 6251   7.347   4.529   0.225  0.3569  0.3067 -0.6919
   15CHTO   H49 6252   7.433   4.570   0.172  1.4910  1.0740  1.6915
   15CHTO    N4 6253   7.248   4.633   0.256  0.1745 -0.2054  0.0219
   15CHTO   H41 6254   7.143   4.605   0.252  0.6845 -2.0458 -1.0379
   15CHTO   H42 6255   7.264   4.720   0.193  0.8132 -0.6838 -0.4821
   15CHTO   C22 6256   7.425   4.491   0.349 -0.1519  0.3025  0.1240
   15CHTO   H50 6257   7.349   4.454   0.418  1.6518  0.2138  2.1050
   15CHTO   O14 6258   7.532   4.388   0.316 -0.2268  0.5650 -0.0803
   15CHTO   C23 6259   7.487   4.274   0.248 -0.4289  0.4939 -0.1717
   15CHTO   H51 6260   7.430   4.213   0.320 -0.6915 -0.3633 -1.0949
   15CHTO   C34 6261   7.619   4.209   0.215 -0.0227  0.0199 -0.0314
   15CHTO   O23 6262   7.690   4.167   0.330  0.4074  0.1792 -0.0321
   15CHTO   H38 6263   7.668   4.083   0.366 -1.2061  1.5046  2.2497
   15CHTO   O16 6264   7.492   4.605   0.410  0.3732  0.5245 -0.4125
   15CHTO   C24 6265   7.538   4.591   0.565 -0.4282  0.2390 -0.3025
   15CHTO   H52 6266   7.481   4.515   0.618 -1.8539 -0.4206 -2.6731
   15CHTO   C26 6267   7.493   4.725   0.628  0.6989 -0.0630 -0.9702
   15CHTO   H54 6268   7.520   4.805   0.556  0.1785  0.2270 -0.8393
   15CHTO   O20 6269   7.346   4.728   0.631 -0.2231 -0.6680  0.0819
   15CHTO   H36 6270   7.318   4.801   0.682  0.2567  1.5422 -2.6500
   15CHTO   C30 6271   7.557   4.747   0.775  0.9579  0.5104  0.8769
   15CHTO   H58 6272   7.526   4.672   0.850 -0.1199 -1.7672 -1.7517
   15CHTO    N6 6273   7.519   4.880   0.832  0.1038  0.0997  0.3999
   15CHTO   H45 6274   7.433   4.925   0.785  0.2143 -3.1276 -3.1463
   15CHTO   H46 6275   7.506   4.860   0.937  1.7158 -0.9989  0.4072
   15CHTO   C33 6276   7.707   4.717   0.756 -0.2625  0.2718  0.5301
   15CHTO   H61 6277   7.759   4.786   0.688 -1.6528  1.2459  0.4314
   15CHTO   O18 6278   7.726   4.580   0.720  0.7065 -0.5390  0.1393
   15CHTO   C28 6279   7.690   4.554   0.584 -0.4992 -0.2800 -0.0271
   15CHTO   H56 6280   7.752   4.603   0.510  0.2971 -0.5554  0.4536
   15CHTO   C35 6281   7.716   4.392   0.569  0.3059 -0.6624 -0.1266
   15CHTO   O24 6282   7.645   4.316   0.669  0.1786 -1.3044  0.0694
   15CHTO   H39 6283   7.705   4.311   0.741 -0.4343  1.2716  0.8095
   15CHTO    O9 6284   7.772   4.746   0.887  0.1865 -0.0309 -0.2879
   15CHTO   C13 6285   7.903   4.829   0.876  0.4874  0.6478 -0.0248
   15CHTO   H26 6286   7.877   4.924   0.825  2.4275  0.3997 -1.5456
   15CHTO   C11 6287   8.011   4.745   0.790  0.4082 -0.5210  0.3699
   15CHTO   H24 6288   7.975   4.750   0.686  1.4566  0.3845  0.0382
   15CHTO    O8 6289   8.014   4.612   0.837  1.0233  0.8372  0.3807
   15CHTO    H3 6290   8.047   4.555   0.771 -1.1889  2.0183 -1.8480
   15CHTO    C9 6291   8.147   4.825   0.798  0.6739  0.3451  0.0434
   15CHTO   H22 6292   8.122   4.929   0.771 -1.4699 -0.9777 -3.4228
   15CHTO    N2 6293   8.253   4.763   0.709  0.2002  0.0886 -0.2393
   15CHTO   H10 6294   8.247   4.803   0.609 -0.3106  0.2664 -0.1364
   15CHTO   H11 6295   8.228   4.658   0.700 -1.9985  0.6363 -0.8563
   15CHTO    C7 6296   8.189   4.836   0.946 -0.3711  0.6046  0.3230
   15CHTO   H20 6297   8.279   4.900   0.943  0.7657 -0.9483  0.5707
   15CHTO    O4 6298   8.086   4.900   1.027  0.2355 -0.1743 -0.4258
   15CHTO   C14 6299   7.951   4.854   1.021 -0.7504  0.9457 -0.2367
   15CHTO   H27 6300   7.890   4.938   1.061  0.4056  0.9772  1.5221
   15CHTO   C18 6301   7.945   4.735   1.115 -0.0953 -0.6326  0.0284
   15CHTO   O13 6302   7.814   4.675   1.129  0.3917 -0.9034 -0.0054
   15CHTO    H7 6303   7.773   4.724   1.197 -0.2774  0.1464 -1.1298
   15CHTO    O2 6304   8.228   4.671   1.021  0.0812  0.1295  0.6004
   15CHTO    C1 6305   8.274   4.664   1.150 -0.2373 -0.9627  0.8119
   15CHTO   H14 6306   8.203   4.705   1.225 -0.6063  0.8019 -0.4682
   15CHTO    C2 6307   8.413   4.749   1.173 -0.2186  0.5774 -0.3659
   15CHTO   H15 6308   8.482   4.713   1.096 -0.6109  2.1503 -1.4712
   15CHTO    O6 6309   8.380   4.882   1.163  0.2202  0.3424 -0.0186
   15CHTO    H1 6310   8.451   4.933   1.129  2.6377 -2.4536  0.6997
   15CHTO    C3 6311   8.475   4.726   1.310  0.1718 -0.0851 -0.3959
   15CHTO   H16 6312   8.417   4.768   1.393 -0.1477 -0.3969 -0.4632
   15CHTO    N1 6313   8.614   4.791   1.321 -1.1162  0.7069  0.0301
   15CHTO    H8 6314   8.697   4.724   1.332 -0.7821  0.9200 -1.1857
   15CHTO    H9 6315   8.612   4.855   1.408  0.5413  0.6954  0.0877
   15CHTO    C4 6316   8.472   4.565   1.339 -0.2241  0.2479  0.3248
   15CHTO   H17 6317   8.544   4.512   1.277 -1.3418  0.7029 -1.4040
   15CHTO    O1 6318   8.341   4.513   1.322  0.0590  0.4916  0.9221
   15CHTO    C5 6319   8.291   4.518   1.190 -0.1379  0.2283 -0.4839
   15CHTO   H18 6320   8.351   4.472   1.111 -1.1572 -0.6020 -0.7830
   15CHTO   C16 6321   8.167   4.434   1.201  0.7329  0.5191  0.0161
   15CHTO   O11 6322   8.123   4.387   1.078  0.3787  0.3375  0.5007
   15CHTO    H5 6323   8.032   4.405   1.069 -0.2112 -2.5360  0.0918
   15CHTO    O3 6324   8.506   4.539   1.472 -0.8499 -0.3368 -0.5604
   15CHTO    C6 6325   8.554   4.409   1.508  0.0987  0.3936  0.2499
   15CHTO   H19 6326   8.519   4.333   1.438  2.3878  0.2980 -0.8274
   15CHTO    C8 6327   8.708   4.419   1.524  0.4184 -0.3743  0.1984
   15CHTO   H21 6328   8.723   4.498   1.599 -2.4530 -1.0543  1.5756
   15CHTO    O7 6329   8.779   4.451   1.396 -0.0323  0.0523  0.4674
   15CHTO    H2 6330   8.718   4.506   1.350 -2.0995 -1.0758  1.7709
   15CHTO   C12 6331   8.775   4.297   1.594  0.1849  0.3092  0.3489
   15CHTO   H25 6332   8.782   4.213   1.523 -0.7853  0.1391  0.4391
   15CHTO    N3 6333   8.918   4.311   1.630  0.5220 -0.1412 -0.2784
   15CHTO   H12 6334   8.939   4.220   1.683  1.7894  0.2558 -0.0762
   15CHTO   H13 6335   8.966   4.320   1.533 -0.0095 -1.1195 -0.6329
   15CHTO   C15 6336   8.689   4.256   1.721 -0.4980  0.3673  0.1682
   15CHTO   H28 6337   8.703   4.317   1.811  0.6086 -0.3683  0.5037
   15CHTO   O10 6338   8.707   4.121   1.756  0.4290  0.1424 -0.2205
   15CHTO    H4 6339   8.798   4.100   1.752  0.6597  1.0643  0.2560
   15CHTO    O5 6340   8.547   4.250   1.694  0.7233 -0.2721 -0.5528
   15CHTO   C10 6341   8.490   4.375   1.641  0.0446  0.3073  0.6595
   15CHTO   H23 6342   8.512   4.448   1.719  3.3956  0.4823 -0.3835
   15CHTO   C17 6343   8.337   4.352   1.643 -0.3365 -0.0820  0.5362
   15CHTO   O12 6344   8.269   4.477   1.659 -0.1179 -0.2594 -0.4029
   15CHTO    H6 6345   8.177   4.472   1.642 -0.1780 -0.7945  0.0562
   16CHTO  H203 6346   6.475   4.667   0.286 -0.0098 -0.5343 -0.9700
   16CHTO   O82 6347   6.487   4.605   0.355 -0.0853  0.6168  0.1057
   16CHTO  C123 6348   6.617   4.625   0.402 -0.1255 -0.0890 -0.3810
   16CHTO  H227 6349   6.621   4.725   0.448 -2.0596  0.1671 -0.7432
   16CHTO   O77 6350   6.606   4.527   0.504  0.0347 -0.7973 -0.1525
   16CHTO  C118 6351   6.719   4.537   0.596  0.9180  0.1783  0.3153
   16CHTO  H222 6352   6.741   4.640   0.628  2.6969  0.4682 -1.7861
   16CHTO  C125 6353   6.689   4.452   0.720  0.1613 -0.5126  0.0043
   16CHTO   O84 6354   6.578   4.505   0.787  0.0352 -0.2755 -0.3564
   16CHTO  H205 6355   6.525   4.431   0.810  0.5576 -0.3823  0.5430
   16CHTO  C114 6356   6.838   4.477   0.516 -0.5754 -0.1500 -0.4368
   16CHTO  H218 6357   6.813   4.379   0.477 -1.9761  0.0925 -0.1525
   16CHTO  C116 6358   6.867   4.556   0.380  0.0299  0.2740 -0.0087
   16CHTO  H220 6359   6.904   4.659   0.394 -0.1281  0.6304 -2.0494
   16CHTO   O79 6360   6.963   4.481   0.306 -0.0192 -0.3365 -0.0242
   16CHTO  H201 6361   7.025   4.443   0.364 -3.1531 -1.9572  2.4254
   16CHTO  C120 6362   6.736   4.583   0.303 -0.5222  0.6928  0.2704
   16CHTO  H224 6363   6.706   4.487   0.256  1.8033  0.9353 -1.8106
   16CHTO   N21 6364   6.740   4.675   0.185 -0.3723  0.2979  0.3341
   16CHTO  H211 6365   6.654   4.740   0.183 -0.9545 -0.4944 -1.2007
   16CHTO  H212 6366   6.746   4.624   0.090  1.7692  0.1581  0.5109
   16CHTO   O75 6367   6.946   4.477   0.618  0.0917 -0.3888  0.4496
   16CHTO  C112 6368   7.084   4.400   0.576 -0.3510 -0.7935 -0.6955
   16CHTO  H216 6369   7.143   4.464   0.508 -1.3565  3.6007  2.3521
   16CHTO   O73 6370   7.044   4.276   0.517 -0.1634  0.2060  0.6090
   16CHTO  C113 6371   7.155   4.200   0.466  0.0495 -0.0905 -0.1394
   16CHTO  H217 6372   7.206   4.252   0.382 -0.0138 -1.7236 -1.2108
   16CHTO  C124 6373   7.094   4.078   0.390  0.0458  1.1720  0.0375
   16CHTO   O83 6374   7.012   4.122   0.284  0.7082  0.0209 -0.3872
   16CHTO  H204 6375   7.041   4.070   0.211  0.0217 -1.5257  0.4226
   16CHTO  C109 6376   7.246   4.154   0.581 -0.0939 -0.8950 -1.0953
   16CHTO  H213 6377   7.186   4.081   0.638 -1.7102  0.7341 -0.6306
   16CHTO  C110 6378   7.302   4.278   0.659  0.3087 -0.1629  0.0655
   16CHTO  H214 6379   7.375   4.332   0.599  1.2192  0.7360  1.9529
   16CHTO   O78 6380   7.389   4.223   0.763 -0.0946 -0.9561  0.6417
   16CHTO  H200 6381   7.455   4.284   0.792 -2.3227  0.2022  3.5981
   16CHTO  C111 6382   7.173   4.361   0.699  0.2001 -0.5638 -0.3305
   16CHTO  H215 6383   7.108   4.308   0.770  0.3776 -1.9116 -1.1666
   16CHTO   N19 6384   7.219   4.487   0.763 -0.2642  0.2482  0.3917
   16CHTO  H207 6385   7.136   4.551   0.790 -1.0876 -1.7294  2.7517
   16CHTO  H208 6386   7.297   4.539   0.708 -1.3963  0.9730 -0.5642
   16CHTO   O74 6387   7.359   4.081   0.528  0.1291 -0.4095 -0.0044
   16CHTO  C115 6388   7.384   3.945   0.588 -0.1951  0.0242  0.5730
   16CHTO  H219 6389   7.345   3.932   0.689 -1.1356 -1.7903 -0.0006
   16CHTO   O76 6390   7.309   3.830   0.503  0.3698 -0.1438 -0.1699
   16CHTO  C122 6391   7.370   3.791   0.378 -0.4332 -0.5373 -0.5531
   16CHTO  H226 6392   7.384   3.881   0.319  1.3116  0.4238  1.2672
   16CHTO  C126 6393   7.259   3.702   0.294 -0.2406 -0.0618 -0.4134
   16CHTO   O85 6394   7.145   3.782   0.245 -0.4264 -0.0045  0.4336
   16CHTO  H206 6395   7.158   3.873   0.265 -2.4892  0.2627  0.6411
   16CHTO  C121 6396   7.517   3.730   0.408  0.1957 -0.1784 -0.0174
   16CHTO  H225 6397   7.521   3.621   0.387  2.9814  0.3231 -2.4565
   16CHTO   O81 6398   7.628   3.773   0.326 -0.4378  0.1421 -0.1603
   16CHTO  H202 6399   7.600   3.843   0.271 -0.6569 -0.5134 -0.8868
   16CHTO  C119 6400   7.564   3.759   0.553 -0.1645  0.0781  0.4217
   16CHTO  H223 6401   7.498   3.699   0.616  0.1504 -2.4416 -1.5643
   16CHTO  C117 6402   7.537   3.918   0.582 -0.1375  0.2245 -0.1475
   16CHTO  H221 6403   7.578   3.992   0.513  2.1116 -0.7086  0.1255
   16CHTO   N20 6404   7.602   3.956   0.708 -0.3674 -0.3104  0.1590
   16CHTO  H209 6405   7.595   3.885   0.790  1.0016  1.5580  1.9399
   16CHTO  H210 6406   7.681   4.029   0.697 -0.0953 -1.1089 -3.9989
   16CHTO   O80 6407   7.718   3.694   0.587 -0.0564 -0.1309  0.1804
   16CHTO  C103 6408   7.751   3.534   0.569  0.1617  0.0426  0.4672
   16CHTO  H190 6409   7.657   3.480   0.563  0.3850 -0.1968 -1.0410
   16CHTO  C101 6410   7.836   3.492   0.453  0.1529 -0.2760  0.1410
   16CHTO  H188 6411   7.938   3.531   0.462  0.6971 -1.3067 -1.3979
   16CHTO   O68 6412   7.778   3.529   0.327  0.3200 -0.5863 -0.1628
   16CHTO  H168 6413   7.749   3.618   0.333 -0.6368 -0.7290 -2.1624
   16CHTO   C99 6414   7.849   3.335   0.454  1.9879 -0.3111 -0.0916
   16CHTO  H186 6415   7.748   3.291   0.440  2.4164 -1.1946 -0.3890
   16CHTO   N17 6416   7.947   3.286   0.349 -0.2113  0.3879 -1.0460
   16CHTO  H174 6417   7.998   3.200   0.390 -1.0929 -0.9615 -2.6675
   16CHTO  H175 6418   7.897   3.263   0.256 -1.5103 -0.6845 -0.1108
   16CHTO   C97 6419   7.892   3.281   0.600 -1.0655 -1.3348  0.2747
   16CHTO  H184 6420   7.999   3.306   0.612 -1.1247 -1.9765  2.3943
   16CHTO   O64 6421   7.816   3.347   0.705 -0.1471  0.5190 -0.1462
   16CHTO  C104 6422   7.821   3.485   0.701 -0.5804 -0.0143  0.0180
   16CHTO  H191 6423   7.924   3.519   0.696 -0.3122 -0.6607  1.0787
   16CHTO  C108 6424   7.762   3.537   0.830  0.3422 -0.1812 -0.7513
   16CHTO   O71 6425   7.851   3.497   0.933 -0.0696 -0.2158 -0.2046
   16CHTO  H171 6426   7.925   3.554   0.940  0.5773 -0.8237 -1.6821
   16CHTO   O62 6427   7.881   3.136   0.609 -0.2464  0.5860 -0.3895
   16CHTO   C91 6428   7.898   3.067   0.732  0.9383  0.2951  0.1470
   16CHTO  H178 6429   7.902   3.143   0.810  2.5152  0.8280 -0.4262
   16CHTO   C92 6430   8.044   3.004   0.742 -0.1880  0.4725 -0.0641
   16CHTO  H179 6431   8.065   2.926   0.667 -1.0424 -0.4748  0.6668
   16CHTO   O66 6432   8.144   3.108   0.728 -0.0164  0.3413  0.8063
   16CHTO  H166 6433   8.144   3.130   0.637 -0.3659  2.6128  1.3192
   16CHTO   C93 6434   8.051   2.942   0.886 -0.0576  0.6670  0.5091
   16CHTO  H180 6435   8.045   3.021   0.963  2.1325  0.7344  0.6559
   16CHTO   N16 6436   8.173   2.864   0.902 -0.0679 -0.4779 -0.4905
   16CHTO  H172 6437   8.158   2.784   0.972 -0.3294 -0.1279 -0.1471
   16CHTO  H173 6438   8.186   2.818   0.805  0.9732 -0.4581 -0.3644
   16CHTO   C94 6439   7.930   2.841   0.918  0.2776  0.1908 -0.1723
   16CHTO  H181 6440   7.929   2.751   0.856  1.4293 -1.2949  1.9390
   16CHTO   O61 6441   7.805   2.914   0.907  0.0173  0.1311 -0.2117
   16CHTO   C95 6442   7.787   2.959   0.772 -0.0291  0.0204 -0.4421
   16CHTO  H182 6443   7.797   2.875   0.704  1.2011  0.2075 -0.4988
   16CHTO  C106 6444   7.648   3.020   0.776 -0.0376 -0.0031  0.1059
   16CHTO   O69 6445   7.549   2.919   0.752 -0.1562 -0.1345  0.9262
   16CHTO  H169 6446   7.536   2.873   0.833  0.4307  0.3890  1.3252
   16CHTO   O63 6447   7.935   2.783   1.071  0.1690 -0.4809 -0.2552
   16CHTO   C96 6448   7.813   2.710   1.126 -0.0970  0.4421  0.2249
   16CHTO  H183 6449   7.849   2.626   1.185 -0.1142  0.9419  0.9474
   16CHTO   C98 6450   7.706   2.650   1.020  0.1211  0.3455  0.0518
   16CHTO  H185 6451   7.697   2.718   0.933  1.3499 -1.7334 -1.7354
   16CHTO   O67 6452   7.761   2.530   0.968  0.2443  0.0028 -0.3017
   16CHTO  H167 6453   7.797   2.470   1.031  0.3909 -1.2006 -1.5139
   16CHTO  C102 6454   7.561   2.635   1.082  0.4139 -0.4864  0.8306
   16CHTO  H189 6455   7.572   2.561   1.164 -1.8484 -0.9601  0.7399
   16CHTO   N18 6456   7.453   2.576   0.996  0.2520  0.1436 -0.0417
   16CHTO  H176 6457   7.488   2.529   0.905  0.4973 -2.7599  1.5098
   16CHTO  H177 6458   7.398   2.499   1.047  0.9979 -0.0085  0.5477
   16CHTO  C105 6459   7.535   2.774   1.134 -0.0637 -0.0192 -0.1557
   16CHTO  H192 6460   7.556   2.843   1.052  0.6882 -0.8747 -0.6896
   16CHTO   O65 6461   7.610   2.796   1.251  1.0448 -0.4114  0.1545
   16CHTO  C100 6462   7.750   2.810   1.229 -0.0569  0.5390  0.1294
   16CHTO  H187 6463   7.767   2.912   1.193 -0.1948 -0.0597 -1.6877
   16CHTO  C107 6464   7.822   2.797   1.365 -0.4058  0.5042  0.7595
   16CHTO   O70 6465   7.768   2.896   1.461 -0.6613  0.0979 -0.3615
   16CHTO  H170 6466   7.733   2.845   1.531 -1.9023 -1.5904 -2.1648
   16CHTO   O57 6467   7.380   2.794   1.171 -0.1731 -0.2988  0.0406
   16CHTO   C85 6468   7.303   2.899   1.107 -0.6678  0.1412  0.3049
   16CHTO  H157 6469   7.328   2.889   0.999  1.7078 -0.1225  0.8560
   16CHTO   C83 6470   7.348   3.037   1.153 -0.9177 -0.4624  0.1125
   16CHTO  H155 6471   7.455   3.042   1.132 -0.8769  0.2049  0.4580
   16CHTO   O56 6472   7.342   3.044   1.294  0.1299  0.5708  0.4686
   16CHTO  H135 6473   7.299   3.123   1.320  0.2850  0.6138  0.5947
   16CHTO   C81 6474   7.273   3.132   1.062  0.9699 -0.3201  0.2400
   16CHTO  H153 6475   7.296   3.108   0.959  1.0233 -1.0177  0.4093
   16CHTO   N14 6476   7.310   3.271   1.074 -0.1897 -0.1501 -0.0944
   16CHTO  H141 6477   7.384   3.297   1.147  0.9171  0.9464 -1.5659
   16CHTO  H142 6478   7.221   3.329   1.090  0.1313  0.0283  1.0901
   16CHTO   C79 6479   7.117   3.116   1.087  0.1901  0.4003  0.2441
   16CHTO  H151 6480   7.066   3.182   1.017  1.3190  1.5121  0.4391
   16CHTO   O52 6481   7.077   2.987   1.058  0.2455  0.4892 -0.1908
   16CHTO   C86 6482   7.149   2.884   1.131  0.0215  0.0295  0.1667
   16CHTO  H158 6483   7.127   2.911   1.236  0.5703  2.0441 -0.2138
   16CHTO   C90 6484   7.098   2.735   1.114 -0.4879 -0.6196 -0.4521
   16CHTO   O60 6485   6.957   2.725   1.151 -0.3102  0.2139 -0.0193
   16CHTO  H138 6486   6.946   2.634   1.171 -0.7513  0.0451 -1.0165
   16CHTO   O50 6487   7.067   3.158   1.212 -0.2306  0.2879 -0.0254
   16CHTO   C73 6488   6.953   3.158   1.298 -0.5551  0.0328  0.2296
   16CHTO  H145 6489   6.938   3.063   1.350 -0.3959  0.4601  1.0641
   16CHTO   C74 6490   6.819   3.184   1.219  0.2080  0.2091  0.6797
   16CHTO  H146 6491   6.829   3.116   1.133  1.6605  1.4445 -0.1400
   16CHTO   O54 6492   6.711   3.140   1.303  0.3450  0.5495  0.0636
   16CHTO  H133 6493   6.679   3.057   1.275  1.9248  0.6639 -2.1451
   16CHTO   C75 6494   6.808   3.333   1.168 -0.0824 -0.0399  0.5053
   16CHTO  H147 6495   6.888   3.357   1.097  0.0827  1.5268  1.1920
   16CHTO   N13 6496   6.678   3.370   1.104  0.3978  0.3546 -0.0233
   16CHTO  H139 6497   6.677   3.477   1.089  1.1965  0.1994 -1.2715
   16CHTO  H140 6498   6.595   3.340   1.165  0.1321  1.7871  0.3351
   16CHTO   C76 6499   6.848   3.434   1.291  0.2901 -0.0180  0.1783
   16CHTO  H148 6500   6.773   3.436   1.371  0.3684  0.5790  0.2408
   16CHTO   O49 6501   6.969   3.402   1.364 -0.6835 -0.0009 -0.4134
   16CHTO   C77 6502   6.968   3.268   1.412  0.1209 -0.6857 -0.0958
   16CHTO  H149 6503   6.884   3.257   1.479 -1.0886 -0.7961 -1.6001
   16CHTO   C88 6504   7.092   3.238   1.505  0.5819  0.1515  0.1201
   16CHTO   O58 6505   7.096   3.091   1.552 -0.9776  0.1696  0.0741
   16CHTO  H136 6506   7.033   3.036   1.509 -2.1376  0.6820  1.1115
   16CHTO   O51 6507   6.875   3.585   1.239 -0.1727 -0.1811  0.4026
   16CHTO   C78 6508   6.829   3.705   1.356  0.1167  0.4700 -0.1208
   16CHTO  H150 6509   6.810   3.644   1.447  1.7937 -1.8064 -1.2194
   16CHTO   C80 6510   6.705   3.783   1.314  0.0428  0.2989  0.2771
   16CHTO  H152 6511   6.719   3.835   1.217  0.7774 -3.2252 -1.5434
   16CHTO   O55 6512   6.603   3.683   1.290 -0.0664  0.2933  0.3887
   16CHTO  H134 6513   6.599   3.655   1.201  2.0133 -2.0070  0.9512
   16CHTO   C84 6514   6.669   3.897   1.418 -0.7095 -0.3821  0.7858
   16CHTO  H156 6515   6.647   3.850   1.514  0.5100 -2.8172 -0.0927
   16CHTO   N15 6516   6.543   3.982   1.400  0.0497 -0.4415 -0.1907
   16CHTO  H143 6517   6.523   4.030   1.493  1.3799 -0.3670  0.0765
   16CHTO  H144 6518   6.543   4.050   1.318 -1.1881  1.0625  1.0379
   16CHTO   C87 6519   6.800   3.987   1.416  0.5031 -0.6858  0.0356
   16CHTO  H159 6520   6.831   4.030   1.321  2.6885 -1.7794  0.2327
   16CHTO   O53 6521   6.908   3.907   1.473  0.0007 -0.1755 -0.5785
   16CHTO   C82 6522   6.943   3.807   1.377  0.6318 -0.3373  0.1105
   16CHTO  H154 6523   6.978   3.853   1.284 -0.3920  0.1676 -0.0328
   16CHTO   C89 6524   7.070   3.729   1.435  0.1186 -0.6960  0.6288
   16CHTO   O59 6525   7.164   3.656   1.347  0.7414  0.0403  0.5762
   16CHTO  H137 6526   7.249   3.695   1.341  0.8740 -0.5224 -1.3519
   16CHTO   O45 6527   6.790   4.114   1.542  0.2665 -0.1648 -0.2528
   16CHTO   C67 6528   6.924   4.183   1.555 -0.2801  0.4288 -0.0041
   16CHTO  H124 6529   7.002   4.107   1.565 -1.0108 -0.3004  0.2340
   16CHTO   C65 6530   6.957   4.271   1.432  0.1352 -0.1721 -0.1444
   16CHTO  H122 6531   6.859   4.300   1.395  0.6238  0.3987 -1.0142
   16CHTO   O44 6532   7.030   4.182   1.342 -0.1239 -0.4424 -0.2421
   16CHTO  H102 6533   6.978   4.142   1.275  0.3144 -2.3558  0.5428
   16CHTO   C63 6534   7.013   4.409   1.467  0.5026 -0.3095  0.3234
   16CHTO  H120 6535   6.931   4.476   1.493 -0.1436  0.2447 -3.0294
   16CHTO   N11 6536   7.064   4.484   1.351 -0.3011  0.5113 -0.0533
   16CHTO  H108 6537   7.052   4.589   1.366 -1.3885  0.3384  0.3363
   16CHTO  H109 6538   7.002   4.461   1.267  0.9929  2.8859 -1.7188
   16CHTO   C61 6539   7.109   4.408   1.589 -0.1329 -0.3640 -0.2665
   16CHTO  H118 6540   7.137   4.514   1.601  0.0728 -0.0035 -3.3946
   16CHTO   O40 6541   7.050   4.357   1.715 -0.3814 -0.4242  0.6398
   16CHTO   C68 6542   6.926   4.273   1.693 -0.6810  0.0228  0.6539
   16CHTO  H125 6543   6.839   4.343   1.692 -0.2516  0.5734  1.4787
   16CHTO   C72 6544   6.904   4.179   1.820 -0.0499  0.2808  0.4824
   16CHTO   O48 6545   7.011   4.082   1.824 -0.0204  0.0832  0.3459
   16CHTO  H105 6546   6.999   4.028   1.749  1.8916 -0.7262  0.5989
   16CHTO   O38 6547   7.228   4.336   1.551 -0.2079  0.2050 -0.5823
   16CHTO   C55 6548   7.338   4.279   1.634  0.1140  0.0696 -0.2036
   16CHTO  H112 6549   7.274   4.235   1.711 -0.9473  0.7916 -0.6543
   16CHTO   C56 6550   7.434   4.391   1.694 -1.0988  0.6336  0.2917
   16CHTO  H113 6551   7.473   4.448   1.609 -1.3349  1.1382  0.5201
   16CHTO   O42 6552   7.345   4.472   1.777  0.2758  0.6118 -0.6057
   16CHTO  H100 6553   7.277   4.511   1.725  0.0486 -0.6367 -1.2790
   16CHTO   C57 6554   7.560   4.323   1.768 -0.2743  0.1604  0.0444
   16CHTO  H114 6555   7.514   4.276   1.855  1.1927 -1.6400 -0.1090
   16CHTO   N10 6556   7.665   4.420   1.809 -0.0304 -0.6121 -0.6028
   16CHTO  H106 6557   7.638   4.450   1.910  1.2371  3.1082 -1.2924
   16CHTO  H107 6558   7.660   4.511   1.751  2.6226 -0.2971 -0.3920
   16CHTO   C58 6559   7.614   4.202   1.683 -0.0759 -0.4806  0.9936
   16CHTO  H115 6560   7.651   4.245   1.587  2.1814 -0.0336  2.0324
   16CHTO   O37 6561   7.504   4.105   1.655  0.6444 -0.3184 -0.4754
   16CHTO   C59 6562   7.411   4.164   1.566  0.0098 -0.7069  0.3160
   16CHTO  H116 6563   7.456   4.197   1.473 -1.6568  3.6596  0.9277
   16CHTO   C70 6564   7.312   4.062   1.518 -0.0348 -0.3328  0.1305
   16CHTO   O46 6565   7.257   3.981   1.627 -0.3096  0.7716  0.1224
   16CHTO  H103 6566   7.258   3.893   1.593  1.3606  1.1888 -0.9814
   16CHTO   O39 6567   7.751   4.093   1.744 -0.0288  0.3714  0.2104
   16CHTO   C60 6568   7.808   4.021   1.637  0.0264 -0.3567  0.2195
   16CHTO  H117 6569   7.747   4.035   1.547 -1.0900  0.1829  1.0491
   16CHTO   C62 6570   7.939   4.074   1.598  0.0326  0.5740 -0.1657
   16CHTO  H119 6571   7.922   4.181   1.572 -1.2351  0.7647  1.3173
   16CHTO   O43 6572   8.036   4.068   1.710 -0.0573 -0.5547  0.3638
   16CHTO  H101 6573   8.118   4.109   1.693  0.2571 -1.1182  0.5184
   16CHTO   C66 6574   7.992   4.000   1.470 -0.5595 -0.2072  0.4761
   16CHTO  H123 6575   7.922   4.011   1.387  2.0827  1.6786 -1.5858
   16CHTO   N12 6576   8.117   4.062   1.425  0.1089 -0.4954  0.4601
   16CHTO  H110 6577   8.123   4.154   1.482 -0.2005  0.7932 -1.5537
   16CHTO  H111 6578   8.116   4.077   1.318  0.4306 -1.1063  0.3728
   16CHTO   C69 6579   8.014   3.854   1.493 -0.6345  0.5455 -0.1287
   16CHTO  H126 6580   8.086   3.837   1.576  0.5335 -0.3634 -1.2994
   16CHTO   O41 6581   7.878   3.807   1.535  0.2135  0.0507  0.3474
   16CHTO   C64 6582   7.822   3.870   1.665  0.5444  0.8186  0.0104
   16CHTO  H121 6583   7.897   3.857   1.745 -0.3078 -0.7683  0.5813
   16CHTO   C71 6584   7.685   3.806   1.706 -0.6357  0.0632  0.3332
   16CHTO   O47 6585   7.580   3.821   1.613 -0.6950 -0.4552  0.0028
   16CHTO  H104 6586   7.563   3.911   1.594 -0.7756 -0.2232  1.1351
   16CHTO   O34 6587   8.068   3.766   1.344  0.3716 -0.4055  0.6785
   16CHTO   C49 6588   8.123   3.625   1.316 -0.4117 -0.1024 -0.5504
   16CHTO   H91 6589   8.202   3.649   1.244 -0.5955  1.8191 -0.1475
   16CHTO   C47 6590   8.016   3.523   1.264  0.0642 -0.2988 -0.1932
   16CHTO   H89 6591   8.075   3.441   1.218  1.4192  1.8282 -2.3676
   16CHTO   O33 6592   7.948   3.596   1.162  0.4787  0.4251  0.2908
   16CHTO   H70 6593   7.862   3.559   1.150  0.4580  0.4351  0.4167
   16CHTO   C45 6594   7.929   3.473   1.386 -0.5348  0.0973  0.3745
   16CHTO   H87 6595   7.875   3.552   1.441 -1.0791 -0.2736  0.3771
   16CHTO    N8 6596   7.823   3.374   1.336 -0.4193  0.0046  0.1083
   16CHTO   H75 6597   7.774   3.404   1.244 -1.0622 -3.2971 -0.7006
   16CHTO   H76 6598   7.749   3.374   1.415 -0.0957  1.1114  0.4172
   16CHTO   C43 6599   8.015   3.407   1.500  0.0664  0.0692  0.2357
   16CHTO   H85 6600   7.951   3.375   1.582 -1.2457 -0.9241 -1.1714
   16CHTO   O29 6601   8.105   3.510   1.542 -0.5160  0.0033 -0.2319
   16CHTO   C50 6602   8.194   3.579   1.450 -0.2822 -0.0242  0.7781
   16CHTO   H92 6603   8.238   3.669   1.495  1.0088 -1.2006  1.9237
   16CHTO   C54 6604   8.317   3.495   1.413 -0.1197 -0.0256 -0.3957
   16CHTO   O36 6605   8.401   3.462   1.524  0.5831 -0.3086 -0.3757
   16CHTO   H72 6606   8.354   3.418   1.593  0.1332  1.9948  0.8322
   16CHTO   O27 6607   8.091   3.290   1.455  0.1960  0.1072  0.1732
   16CHTO   C37 6608   8.169   3.179   1.486  0.0297  0.2008 -0.3770
   16CHTO   H79 6609   8.276   3.199   1.476  0.1137 -0.3621 -0.6269
   16CHTO   C38 6610   8.148   3.151   1.637  0.1840 -0.6010 -0.0202
   16CHTO   H80 6611   8.043   3.174   1.662  0.2830  0.3911 -0.4581
   16CHTO   O31 6612   8.225   3.248   1.717  0.0364  0.3421 -0.3466
   16CHTO   H68 6613   8.185   3.333   1.719 -1.4554 -0.3633  3.0326
   16CHTO   C39 6614   8.185   3.010   1.691  0.1549 -0.4645  0.3577
   16CHTO   H81 6615   8.293   3.009   1.702  0.1975  1.3072  0.3533
   16CHTO    N7 6616   8.125   2.978   1.822  0.6675 -0.3525  0.5027
   16CHTO   H73 6617   8.180   3.036   1.894  1.6744  0.0460 -0.5729
   16CHTO   H74 6618   8.155   2.876   1.842 -0.3266  0.0371  4.2881
   16CHTO   C40 6619   8.149   2.897   1.589  0.9393 -0.0244 -0.5079
   16CHTO   H82 6620   8.042   2.875   1.592  1.1435 -1.2260 -1.5167
   16CHTO   O26 6621   8.192   2.940   1.454  0.8992  0.0819 -0.3457
   16CHTO   C41 6622   8.123   3.056   1.401 -0.3826  0.2728 -0.1936
   16CHTO   H83 6623   8.014   3.052   1.420 -0.3009 -2.0427 -0.1345
   16CHTO   C52 6624   8.137   3.061   1.246 -0.4977 -0.2548  0.5839
   16CHTO   O35 6625   8.066   3.181   1.178 -0.5117  0.2423  0.2181
   16CHTO   H71 6626   8.085   3.199   1.087 -2.1165 -1.4440 -0.4758
   16CHTO   O28 6627   8.229   2.779   1.604 -0.4759 -0.4379  0.1925
   16CHTO   C42 6628   8.209   2.647   1.553 -0.7781 -0.3061 -0.9607
   16CHTO   H84 6629   8.289   2.596   1.608 -1.7069  0.2754  0.9527
   16CHTO   C44 6630   8.238   2.626   1.408 -0.0211 -0.0441  0.2180
   16CHTO   H86 6631   8.185   2.703   1.351  1.0289  0.2835 -0.3282
   16CHTO   O32 6632   8.375   2.649   1.384 -0.3493  0.1129 -0.5293
   16CHTO   H69 6633   8.395   2.737   1.410 -1.2501  0.5133 -1.1380
   16CHTO   C48 6634   8.192   2.489   1.346 -0.4465  0.6171 -0.4752
   16CHTO   H90 6635   8.277   2.428   1.377  0.8236  2.5254 -0.1319
   16CHTO    N9 6636   8.188   2.493   1.198 -0.3974  0.1140 -0.0890
   16CHTO   H77 6637   8.147   2.404   1.151 -1.4485 -0.1177  1.2482
   16CHTO   H78 6638   8.284   2.522   1.159  0.5570 -1.4429  1.0283
   16CHTO   C51 6639   8.052   2.450   1.399 -0.5447  0.4413  0.4056
   16CHTO   H93 6640   7.988   2.533   1.369 -0.1761  0.5949  0.0427
   16CHTO   O30 6641   8.068   2.445   1.541  0.1297 -0.4885 -0.0584
   16CHTO   C46 6642   8.083   2.573   1.599 -0.3157 -0.6490  0.2718
   16CHTO   H88 6643   7.996   2.633   1.574  0.6666  1.0745  0.8814
   16CHTO   C53 6644   8.090   2.561   1.753 -0.4511 -0.1338 -0.1000
   16CHTO   O72 6645   8.104   2.683   1.832  0.8166 -0.5624  0.0683
   16CHTO  H199 6646   8.055   2.679   1.911 -0.2836  1.1531 -0.5137
   16CHTO   O22 6647   8.009   2.320   1.361 -0.2112  0.1636  0.0406
   16CHTO   C31 6648   7.883   2.264   1.410 -0.1170 -0.2955 -0.1608
   16CHTO   H59 6649   7.854   2.317   1.503  2.6396 -0.4334  0.8312
   16CHTO   C29 6650   7.768   2.267   1.300  0.5129 -0.3731  0.0901
   16CHTO   H57 6651   7.811   2.238   1.203  1.9878 -0.2661  0.7090
   16CHTO   O21 6652   7.733   2.407   1.280  0.7418  0.1541 -0.1631
   16CHTO   H37 6653   7.659   2.417   1.223  0.9533 -1.0222 -0.6513
   16CHTO   C27 6654   7.644   2.179   1.331  0.1800  0.2517  0.6843
   16CHTO   H55 6655   7.588   2.222   1.415 -1.6236  0.1422 -0.4395
   16CHTO    N5 6656   7.550   2.158   1.218  0.0249 -0.1637 -0.1300
   16CHTO   H43 6657   7.582   2.072   1.161  1.4813  0.0586  0.3226
   16CHTO   H44 6658   7.451   2.159   1.260 -0.0428 -2.0336 -0.2057
   16CHTO   C25 6659   7.682   2.039   1.394  0.9138  0.3911 -0.1814
   16CHTO   H53 6660   7.728   1.982   1.311  1.2154  2.7234 -1.6772
   16CHTO   O17 6661   7.785   2.059   1.507  0.1704 -0.0637 -0.8744
   16CHTO   C32 6662   7.907   2.117   1.460 -0.7140 -0.0917  0.3145
   16CHTO   H60 6663   7.947   2.054   1.380 -1.6356  0.5717 -0.6831
   16CHTO   C36 6664   8.007   2.105   1.578 -0.0414 -0.3396  0.2531
   16CHTO   O25 6665   7.962   2.171   1.698 -0.6913 -0.1802 -0.9187
   16CHTO   H40 6666   8.036   2.210   1.741 -2.4345  1.0594  1.0176
   16CHTO   O15 6667   7.564   1.963   1.454  0.0020 -0.1538  0.4744
   16CHTO   C19 6668   7.469   1.956   1.564  0.4373 -0.0165  0.5904
   16CHTO   H47 6669   7.477   1.849   1.589  1.1077  0.1256  0.9993
   16CHTO   C20 6670   7.503   2.036   1.701  0.0365 -0.3420 -0.3765
   16CHTO   H48 6671   7.534   2.139   1.678 -2.3427  0.1749 -1.5315
   16CHTO   O19 6672   7.615   1.968   1.768  0.2177  0.4822  0.0184
   16CHTO   H35 6673   7.652   2.024   1.833  0.8704 -1.4813  1.3937
   16CHTO   C21 6674   7.376   2.046   1.795 -0.1591  0.4492  0.0911
   16CHTO   H49 6675   7.354   1.949   1.838  1.7423 -1.5423 -3.2118
   16CHTO    N4 6676   7.411   2.138   1.910  0.3978  0.1470 -0.2899
   16CHTO   H41 6677   7.407   2.087   2.005  1.0128 -1.0146 -0.8818
   16CHTO   H42 6678   7.340   2.220   1.906  0.1097 -0.1682 -2.4243
   16CHTO   C22 6679   7.252   2.086   1.712  0.3815  0.6910  0.0176
   16CHTO   H50 6680   7.270   2.179   1.658 -1.4614  0.6020 -0.7704
   16CHTO   O14 6681   7.227   1.975   1.622  0.2484 -0.4591 -0.5588
   16CHTO   C23 6682   7.320   1.978   1.508  0.4118  0.4550 -0.0814
   16CHTO   H51 6683   7.305   2.074   1.458 -1.7606  0.5331  0.6687
   16CHTO   C34 6684   7.279   1.872   1.398 -0.1440  0.1913 -0.3810
   16CHTO   O23 6685   7.160   1.905   1.328 -0.0562 -0.1883  0.0580
   16CHTO   H38 6686   7.181   1.978   1.274  2.0528 -0.2991  0.6735
   16CHTO   O16 6687   7.127   2.094   1.783 -0.1759 -0.4260  0.3012
   16CHTO   C24 6688   7.020   2.231   1.724  0.2164  0.4911 -0.3203
   16CHTO   H52 6689   7.053   2.275   1.631  1.5981  1.6121  0.6757
   16CHTO   C26 6690   7.022   2.340   1.838  0.4441 -0.5665  0.2962
   16CHTO   H54 6691   7.009   2.285   1.934 -1.5883 -0.9225 -0.1400
   16CHTO   O20 6692   7.147   2.403   1.829  0.0247 -0.7203 -0.0476
   16CHTO   H36 6693   7.148   2.483   1.878  0.3095  0.2355 -1.5712
   16CHTO   C30 6694   6.893   2.433   1.823  0.7363  0.8234 -0.5390
   16CHTO   H58 6695   6.913   2.507   1.744  2.3617  1.1057  0.1172
   16CHTO    N6 6696   6.883   2.522   1.948 -0.3744 -0.0373 -0.2834
   16CHTO   H45 6697   6.884   2.476   2.045 -0.4905  0.5909  0.0171
   16CHTO   H46 6698   6.953   2.604   1.947 -0.7753  0.3321  0.9207
   16CHTO   C33 6699   6.772   2.340   1.800  0.3200 -0.0657 -0.1599
   16CHTO   H61 6700   6.757   2.274   1.887  1.0230  0.1925  0.1576
   16CHTO   O18 6701   6.788   2.256   1.682 -0.4044  0.8000  0.0137
   16CHTO   C28 6702   6.885   2.154   1.701 -0.2873  0.6860  0.5170
   16CHTO   H56 6703   6.862   2.097   1.791 -0.0615 -0.0264  0.1379
   16CHTO   C35 6704   6.881   2.067   1.571  0.1169 -0.6178 -0.2960
   16CHTO   O24 6705   6.902   2.145   1.451 -0.2460  0.1425 -0.6106
   16CHTO   H39 6706   6.991   2.172   1.447  0.0579 -0.4710  1.3227
   16CHTO    O9 6707   6.652   2.424   1.785 -0.4883  0.2935 -0.2648
   16CHTO   C13 6708   6.542   2.411   1.896  0.0462  0.1708  0.5443
   16CHTO   H26 6709   6.592   2.413   1.995  0.5552  0.4207  0.2828
   16CHTO   C11 6710   6.461   2.279   1.872  0.0258 -0.4428  0.1556
   16CHTO   H24 6711   6.527   2.198   1.906 -0.6481 -0.0469  2.5178
   16CHTO    O8 6712   6.424   2.263   1.731 -0.1023  0.4024  0.1674
   16CHTO    H3 6713   6.444   2.179   1.696  0.5557  0.2469  0.9070
   16CHTO    C9 6714   6.335   2.284   1.958  0.2209  0.5397  0.3133
   16CHTO   H22 6715   6.363   2.313   2.061 -2.9066  0.3571  1.2846
   16CHTO    N2 6716   6.270   2.148   1.982  0.5889 -0.6836  0.0207
   16CHTO   H10 6717   6.243   2.144   2.086 -0.2747 -0.5267 -0.1850
   16CHTO   H11 6718   6.332   2.068   1.945  2.7436  1.3977 -0.9919
   16CHTO    C7 6719   6.234   2.396   1.901 -0.2203 -0.6661 -0.5434
   16CHTO   H20 6720   6.181   2.445   1.985  1.8948  1.2193 -0.2647
   16CHTO    O4 6721   6.311   2.505   1.834 -0.4699  0.6886 -0.0495
   16CHTO   C14 6722   6.436   2.537   1.890  0.1626 -1.0847 -0.1825
   16CHTO   H27 6723   6.407   2.567   1.993  0.5734  3.5219 -1.2734
   16CHTO   C18 6724   6.490   2.667   1.824  0.1308  0.4087 -0.6378
   16CHTO   O13 6725   6.613   2.713   1.875 -0.0696  0.0960  0.1383
   16CHTO    H7 6726   6.617   2.804   1.854 -0.7339  0.7031  2.4121
   16CHTO    O2 6727   6.135   2.330   1.793  0.7521 -0.0239  0.8420
   16CHTO    C1 6728   6.000   2.372   1.787  0.1477  0.3427 -0.4682
   16CHTO   H14 6729   5.993   2.482   1.795 -2.6468  0.1825 -0.2687
   16CHTO    C2 6730   5.910   2.302   1.904 -0.4823  0.0199 -0.5276
   16CHTO   H15 6731   5.923   2.194   1.895  1.5606  0.1269  0.7108
   16CHTO    O6 6732   5.960   2.354   2.030 -0.7594 -0.3596  0.4122
   16CHTO    H1 6733   6.034   2.303   2.056  0.1312  0.7279  0.0534
   16CHTO    C3 6734   5.760   2.338   1.882  0.1037  0.3237 -0.2895
   16CHTO   H16 6735   5.755   2.448   1.879 -0.9799  0.3056  0.4863
   16CHTO    N1 6736   5.663   2.291   1.991  0.5618  0.4972  0.0786
   16CHTO    H8 6737   5.633   2.379   2.047 -1.5198 -1.0947  1.5256
   16CHTO    H9 6738   5.577   2.234   1.961  1.7230 -1.9432  1.2658
   16CHTO    C4 6739   5.723   2.298   1.733 -0.8482 -0.1791  0.5372
   16CHTO   H17 6740   5.744   2.192   1.719  0.9690  0.3926 -1.3560
   16CHTO    O1 6741   5.811   2.380   1.648 -0.3023 -0.2733  0.2827
   16CHTO    C5 6742   5.943   2.335   1.648  0.2658  0.2545  0.1137
   16CHTO   H18 6743   5.952   2.227   1.637 -0.8443  0.2319 -0.7134
   16CHTO   C16 6744   6.025   2.408   1.540 -0.7340  0.4237  0.3195
   16CHTO   O11 6745   5.983   2.547   1.528 -0.2928  0.1715  0.0679
   16CHTO    H5 6746   5.996   2.593   1.609  2.0026 -0.0750 -0.1363
   16CHTO    O3 6747   5.590   2.340   1.690 -0.2308 -0.6062 -0.0988
   16CHTO    C6 6748   5.519   2.238   1.619 -0.3873  0.3510 -0.3543
   16CHTO   H19 6749   5.576   2.147   1.600  0.9874  1.1984 -0.3767
   16CHTO    C8 6750   5.385   2.197   1.691 -0.6125 -0.7191 -0.3444
   16CHTO   H21 6751   5.322   2.285   1.702 -0.1417 -0.5933  1.5730
   16CHTO    O7 6752   5.422   2.147   1.827 -0.1956 -0.1781 -0.4052
   16CHTO    H2 6753   5.343   2.116   1.868  0.6440 -1.6585  0.1007
   16CHTO   C12 6754   5.316   2.091   1.604  0.7720  0.5747 -0.1507
   16CHTO   H25 6755   5.387   2.005   1.598 -0.5192 -0.3679 -2.5788
   16CHTO    N3 6756   5.192   2.044   1.671  0.5969 -0.9802 -0.0592
   16CHTO   H12 6757   5.204   2.030   1.778  2.5847  0.1225 -0.1234
   16CHTO   H13 6758   5.119   2.122   1.657  3.8951  2.3903  0.7903
   16CHTO   C15 6759   5.282   2.128   1.454  0.3520 -0.0273  0.9373
   16CHTO   H28 6760   5.188   2.184   1.448  0.4302  0.0768  0.6733
   16CHTO   O10 6761   5.269   2.015   1.356 -0.5383  0.5355 -0.1094
   16CHTO    H4 6762   5.232   2.058   1.281 -0.4449 -0.1206 -0.5314
   16CHTO    O5 6763   5.390   2.210   1.402 -0.3411 -0.1570 -0.0452
   16CHTO   C10 6764   5.475   2.297   1.480 -0.3069  0.2631 -0.6796
   16CHTO   H23 6765   5.403   2.378   1.495 -1.4850 -0.5652 -1.8001
   16CHTO   C17 6766   5.607   2.346   1.404  0.2839 -0.2748 -0.1675
   16CHTO   O12 6767   5.706   2.246   1.377 -0.2392 -0.0047 -0.0410
   16CHTO    H6 6768   5.783   2.284   1.415  0.4204  2.7237 -3.7610
   17CHTO  H203 6769   6.355   4.605   0.204  0.3226  0.1652 -0.4539
   17CHTO   O82 6770   6.275   4.649   0.184  0.0263 -0.1020  0.1176
   17CHTO  C123 6771   6.248   4.750   0.284 -0.2606  0.3511  0.6016
   17CHTO  H227 6772   6.266   4.703   0.382  2.4422  0.0388  0.0006
   17CHTO   O77 6773   6.352   4.850   0.247 -0.3109  0.2988 -0.1372
   17CHTO  C118 6774   6.351   4.965   0.326 -0.5107  0.1833  0.5090
   17CHTO  H222 6775   6.351   4.954   0.435 -0.0494 -1.5886  0.3413
   17CHTO  C125 6776   6.479   5.048   0.281 -0.5099  0.3111  0.3133
   17CHTO   O84 6777   6.596   4.969   0.327  0.2276  0.2946 -0.2497
   17CHTO  H205 6778   6.628   4.925   0.251  0.1788 -0.3033  0.0792
   17CHTO  C114 6779   6.217   5.039   0.294  0.4142  0.2163 -0.3673
   17CHTO  H218 6780   6.219   5.071   0.190 -0.0116 -0.8935 -0.7234
   17CHTO  C116 6781   6.090   4.953   0.339 -0.4651  0.1523 -0.1755
   17CHTO  H220 6782   6.091   4.951   0.450  0.0173  3.0463 -0.0797
   17CHTO   O79 6783   5.970   5.025   0.290  0.2093  0.2396 -0.1900
   17CHTO  H201 6784   5.904   5.017   0.356  0.7070  1.2902  0.4567
   17CHTO  C120 6785   6.100   4.808   0.273 -0.1314  0.0355  0.9983
   17CHTO  H224 6786   6.070   4.825   0.168  0.0261 -2.5382  0.5024
   17CHTO   N21 6787   5.999   4.722   0.336  0.5516  0.1497  0.1171
   17CHTO  H211 6788   5.915   4.783   0.367 -1.1142 -2.4708  0.9195
   17CHTO  H212 6789   6.036   4.671   0.424 -0.9522 -0.1381  0.6042
   17CHTO   O75 6790   6.226   5.157   0.379 -0.4017  0.1046  0.2183
   17CHTO  C112 6791   6.208   5.291   0.310  0.2661  0.3069  0.9438
   17CHTO  H216 6792   6.159   5.275   0.213 -2.5493  0.1145  2.3437
   17CHTO   O73 6793   6.338   5.342   0.302 -0.4362  0.1752 -0.1733
   17CHTO  C113 6794   6.356   5.474   0.233 -0.6533 -0.1027  0.1181
   17CHTO  H217 6795   6.312   5.461   0.132 -0.0965 -0.5655 -0.0626
   17CHTO  C124 6796   6.507   5.506   0.222 -0.5159 -0.1396 -0.0500
   17CHTO   O83 6797   6.536   5.575   0.098 -0.1724 -0.0196  0.2068
   17CHTO  H204 6798   6.604   5.527   0.054 -1.5304 -1.1021 -0.7579
   17CHTO  C109 6799   6.280   5.588   0.314  0.3127  0.7588  0.3515
   17CHTO  H213 6800   6.333   5.596   0.410 -0.9883 -0.4131  1.1783
   17CHTO  C110 6801   6.137   5.540   0.340 -0.1025 -0.4206 -0.5009
   17CHTO  H214 6802   6.090   5.548   0.242 -0.2294 -0.8881 -0.4819
   17CHTO   O78 6803   6.077   5.645   0.425  0.3494 -0.4881 -0.2495
   17CHTO  H200 6804   6.100   5.640   0.516 -0.8640  2.7208  0.3045
   17CHTO  C111 6805   6.122   5.393   0.395  0.2490 -0.3759  0.1324
   17CHTO  H215 6806   6.156   5.396   0.499 -2.0005  1.0252  0.8622
   17CHTO   N19 6807   5.981   5.350   0.395  0.7064  0.2783  0.4777
   17CHTO  H207 6808   5.965   5.244   0.409 -0.0751  0.4099  0.5982
   17CHTO  H208 6809   5.935   5.375   0.301 -1.0195 -0.1667  1.1740
   17CHTO   O74 6810   6.284   5.718   0.248  0.1993 -0.1816  0.3375
   17CHTO  C115 6811   6.317   5.841   0.332 -0.1804 -0.9279 -0.3687
   17CHTO  H219 6812   6.295   5.819   0.437 -1.2889  0.2802 -0.3363
   17CHTO   O76 6813   6.463   5.871   0.325 -0.2646  0.1473  0.4612
   17CHTO  C122 6814   6.517   5.905   0.198  0.2205 -0.5647 -0.0327
   17CHTO  H226 6815   6.509   5.820   0.130 -1.3262  0.4171 -1.1326
   17CHTO  C126 6816   6.673   5.931   0.218 -0.0917  0.1066 -0.2772
   17CHTO   O85 6817   6.721   6.050   0.282  0.1857 -0.1985 -0.3224
   17CHTO  H206 6818   6.807   6.068   0.248 -0.1736  0.2971 -0.9875
   17CHTO  C121 6819   6.447   6.042   0.149  0.5875  0.1945 -0.5435
   17CHTO  H225 6820   6.527   6.118   0.151  0.3699  0.5362 -2.7801
   17CHTO   O81 6821   6.403   6.019   0.014 -0.2216 -0.0111  0.4860
   17CHTO  H202 6822   6.436   6.087  -0.041 -0.0784  1.0540  1.8451
   17CHTO  C119 6823   6.326   6.087   0.237 -0.8396 -0.0757  0.1054
   17CHTO  H223 6824   6.375   6.118   0.329 -2.6219  2.5515  0.1920
   17CHTO  C117 6825   6.233   5.969   0.272 -0.0023 -0.1578 -0.1316
   17CHTO  H221 6826   6.182   5.922   0.188  2.4564 -0.0785 -1.7306
   17CHTO   N20 6827   6.128   6.019   0.364  0.5586  0.0128 -0.4250
   17CHTO  H209 6828   6.067   6.094   0.318  0.0247  0.3471  0.8125
   17CHTO  H210 6829   6.055   5.944   0.389  1.2268  0.6131  3.6467
   17CHTO   O80 6830   6.260   6.216   0.193  0.5359  0.0324 -0.0793
   17CHTO  C103 6831   6.285   6.352   0.269  0.0632 -0.4773 -0.0070
   17CHTO  H190 6832   6.273   6.341   0.376  2.6596  1.5024  0.5497
   17CHTO  C101 6833   6.428   6.411   0.233  0.5119  0.3767  0.1420
   17CHTO  H188 6834   6.445   6.402   0.126  0.0913 -1.7232  0.2182
   17CHTO   O68 6835   6.561   6.323   0.297 -0.1174  0.3541 -0.3828
   17CHTO  H168 6836   6.537   6.249   0.349 -1.1373  0.4745 -0.6629
   17CHTO   C99 6837   6.437   6.566   0.272 -0.3656  0.0276 -0.1400
   17CHTO  H186 6838   6.447   6.573   0.382  1.7200 -1.0904 -0.2338
   17CHTO   N17 6839   6.574   6.623   0.229  0.2280 -0.3076 -0.1652
   17CHTO  H174 6840   6.651   6.633   0.303  1.2210 -1.1280 -1.0682
   17CHTO  H175 6841   6.583   6.685   0.141 -0.6631  1.7514  1.1497
   17CHTO   C97 6842   6.308   6.643   0.236  0.5272  0.4596  0.0848
   17CHTO  H184 6843   6.315   6.656   0.127  1.9676  0.0581  0.1081
   17CHTO   O64 6844   6.188   6.574   0.275 -0.1361  0.4125  0.1896
   17CHTO  C104 6845   6.167   6.448   0.219 -0.4311 -0.7354 -0.2358
   17CHTO  H191 6846   6.172   6.460   0.111  2.9135  0.5366 -0.0175
   17CHTO  C108 6847   6.029   6.392   0.252  0.1224 -0.2229 -0.6510
   17CHTO   O71 6848   6.003   6.270   0.176 -0.2674  0.0989  0.4884
   17CHTO  H171 6849   6.034   6.200   0.230  2.2385  1.3646  0.7707
   17CHTO   O62 6850   6.313   6.766   0.304 -0.0518 -0.0939 -0.0867
   17CHTO   C91 6851   6.207   6.864   0.270  0.3366  0.4927 -0.4102
   17CHTO  H178 6852   6.129   6.804   0.225  1.0112 -0.3450 -0.4902
   17CHTO   C92 6853   6.258   6.970   0.176  0.0999  0.0418  0.4280
   17CHTO  H179 6854   6.306   6.915   0.094 -0.7282 -1.1643  0.7484
   17CHTO   O66 6855   6.153   7.047   0.108 -0.8625  0.3793  0.3729
   17CHTO  H166 6856   6.078   7.065   0.161 -0.3858  2.0837  0.4891
   17CHTO   C93 6857   6.350   7.068   0.248 -0.3833  0.2415  0.4974
   17CHTO  H180 6858   6.366   7.156   0.182  1.7981  1.4342  2.5429
   17CHTO   N16 6859   6.487   7.012   0.262  0.5067 -0.1003 -0.1985
   17CHTO  H172 6860   6.543   7.015   0.170 -0.4669 -0.3334 -0.8036
   17CHTO  H173 6861   6.546   7.064   0.337  2.4298  1.3320 -2.6248
   17CHTO   C94 6862   6.287   7.118   0.384 -0.5879  0.2753  0.8925
   17CHTO  H181 6863   6.347   7.083   0.467 -0.6957 -0.8279  0.5127
   17CHTO   O61 6864   6.156   7.071   0.409 -0.3583  0.5613 -0.3134
   17CHTO   C95 6865   6.142   6.931   0.398  0.2551 -0.0553 -0.6454
   17CHTO  H182 6866   6.185   6.888   0.488 -0.7563  0.0777 -0.0906
   17CHTO  C106 6867   5.982   6.895   0.413  0.2014 -0.6709 -0.2485
   17CHTO   O69 6868   5.952   6.753   0.402 -0.2976 -0.4162  0.6128
   17CHTO  H169 6869   5.859   6.751   0.415 -0.0466  0.7183  2.9872
   17CHTO   O63 6870   6.280   7.287   0.380 -0.0773  0.0975  0.6980
   17CHTO   C96 6871   6.261   7.352   0.514 -0.0151 -0.4785  0.7051
   17CHTO  H183 6872   6.282   7.268   0.580  2.4786 -0.2272  0.2866
   17CHTO   C98 6873   6.118   7.407   0.555 -0.0507  0.4945  0.2531
   17CHTO  H185 6874   6.076   7.467   0.473  0.0137 -0.5841 -0.5712
   17CHTO   O67 6875   6.028   7.286   0.559 -0.0809  0.0187  0.2994
   17CHTO  H167 6876   5.999   7.253   0.476 -0.0072  1.7521 -0.4448
   17CHTO  C102 6877   6.117   7.483   0.703  0.1193  0.1011 -0.5701
   17CHTO  H189 6878   6.098   7.406   0.779  0.4585  0.9967  0.4315
   17CHTO   N18 6879   6.001   7.567   0.711 -0.3649  0.3975  0.3070
   17CHTO  H176 6880   5.992   7.605   0.812 -0.4347 -0.2667  0.5495
   17CHTO  H177 6881   5.913   7.514   0.679  0.1385 -0.7747  0.8463
   17CHTO  C105 6882   6.249   7.567   0.712  0.0180  0.0825  0.4843
   17CHTO  H192 6883   6.236   7.649   0.641  0.8946  0.5938  0.9091
   17CHTO   O65 6884   6.369   7.493   0.674 -0.2802 -0.4532  0.9026
   17CHTO  C100 6885   6.371   7.456   0.535 -0.1202 -0.2637  0.0486
   17CHTO  H187 6886   6.349   7.538   0.466 -0.4456 -0.7674 -0.4520
   17CHTO  C107 6887   6.514   7.397   0.499 -0.1047 -0.1780 -0.8701
   17CHTO   O70 6888   6.550   7.279   0.575  0.2814  0.3825 -0.0576
   17CHTO  H170 6889   6.612   7.299   0.642  1.0637  0.1683 -0.7133
   17CHTO   O57 6890   6.253   7.618   0.864 -0.4047 -0.0256  0.1111
   17CHTO   C85 6891   6.341   7.721   0.904 -0.2123  0.1395 -0.1099
   17CHTO  H157 6892   6.307   7.804   0.840 -0.6566  0.2977  0.3230
   17CHTO   C83 6893   6.493   7.688   0.857  0.1137  0.9814 -0.1178
   17CHTO  H155 6894   6.493   7.671   0.750  0.8243  1.4721 -0.1983
   17CHTO   O56 6895   6.535   7.562   0.916  0.8413 -0.2231  0.3713
   17CHTO  H135 6896   6.477   7.493   0.892 -0.9787  1.7952 -1.1832
   17CHTO   C81 6897   6.589   7.804   0.891 -0.9377  0.1441  0.3706
   17CHTO  H153 6898   6.558   7.894   0.838  2.8549 -0.0462 -2.3743
   17CHTO   N14 6899   6.730   7.788   0.835 -0.2387  0.0972 -1.2119
   17CHTO  H141 6900   6.739   7.747   0.736  0.3220  0.8766 -1.4967
   17CHTO  H142 6901   6.791   7.876   0.845  0.4054 -0.3798 -0.9286
   17CHTO   C79 6902   6.589   7.827   1.050  0.4572 -0.0745  0.8807
   17CHTO  H151 6903   6.638   7.923   1.067 -1.3531  1.1951 -0.7961
   17CHTO   O52 6904   6.447   7.837   1.098 -0.6149 -0.2619  0.0956
   17CHTO   C86 6905   6.340   7.754   1.058  0.5137  0.0014  0.1148
   17CHTO  H158 6906   6.349   7.664   1.121 -3.4396 -1.7139 -1.6176
   17CHTO   C90 6907   6.196   7.807   1.094  0.7209 -0.4187 -0.5109
   17CHTO   O60 6908   6.158   7.767   1.225  0.3648  0.5147  0.0248
   17CHTO  H138 6909   6.066   7.752   1.231  0.3328  0.8626  0.4944
   17CHTO   O50 6910   6.660   7.725   1.122 -0.2135 -0.3141  0.2881
   17CHTO   C73 6911   6.735   7.672   1.235  1.0279  0.6815 -0.1015
   17CHTO  H145 6912   6.779   7.749   1.301 -0.6599  0.5443  1.2328
   17CHTO   C74 6913   6.850   7.579   1.185  0.1567  0.8258  0.3901
   17CHTO  H146 6914   6.915   7.640   1.121  0.2737  2.3300  1.9245
   17CHTO   O54 6915   6.937   7.533   1.291 -0.0005 -0.0643 -0.4222
   17CHTO  H133 6916   6.998   7.602   1.307 -0.5531  0.6373 -1.2935
   17CHTO   C75 6917   6.780   7.457   1.104  0.3931  0.2131 -0.4784
   17CHTO  H147 6918   6.729   7.489   1.012 -2.8062  0.5665  1.3231
   17CHTO   N13 6919   6.875   7.355   1.060 -0.7180  0.0765 -0.5492
   17CHTO  H139 6920   6.937   7.317   1.140  1.8861  1.8176 -1.6551
   17CHTO  H140 6921   6.835   7.282   0.992 -1.6830  2.2481 -2.3862
   17CHTO   C76 6922   6.661   7.388   1.190 -0.1685  0.0027  0.2494
   17CHTO  H148 6923   6.708   7.329   1.268  1.3771  2.5296  1.2866
   17CHTO   O49 6924   6.575   7.489   1.242  0.3927 -0.2582 -0.2373
   17CHTO   C77 6925   6.636   7.586   1.323  0.2092  0.0275  0.2927
   17CHTO  H149 6926   6.690   7.531   1.400  0.8881  0.3560  0.0525
   17CHTO   C88 6927   6.527   7.677   1.383  0.3398  0.8380 -0.2701
   17CHTO   O58 6928   6.455   7.602   1.476  0.0125  0.0043  0.5713
   17CHTO  H136 6929   6.417   7.657   1.542  1.4619  0.6603  0.8631
   17CHTO   O51 6930   6.563   7.293   1.091 -0.1495 -0.2146  0.2742
   17CHTO   C78 6931   6.481   7.180   1.176  0.3051  0.0535 -0.7216
   17CHTO  H150 6932   6.481   7.198   1.285 -2.1041  1.8090 -0.9889
   17CHTO   C80 6933   6.536   7.041   1.144 -0.2495  0.2586  0.3332
   17CHTO  H152 6934   6.541   7.032   1.034  3.4991 -0.7486  0.4905
   17CHTO   O55 6935   6.668   7.037   1.203  0.0414 -0.2852  0.0962
   17CHTO  H134 6936   6.702   6.949   1.198  0.1085 -0.2717  0.2971
   17CHTO   C84 6937   6.441   6.932   1.209  0.2784 -0.0098  0.6403
   17CHTO  H156 6938   6.449   6.942   1.317  2.2583  0.1378  0.4893
   17CHTO   N15 6939   6.487   6.797   1.164  0.0969  0.4121 -0.3027
   17CHTO  H143 6940   6.500   6.791   1.058 -0.2772 -2.1942 -0.2303
   17CHTO  H144 6941   6.429   6.715   1.200  1.3273 -1.2135 -1.9291
   17CHTO   C87 6942   6.290   6.948   1.161 -0.2708 -0.6450 -0.6560
   17CHTO  H159 6943   6.285   6.930   1.053  2.5947  1.5650 -1.2300
   17CHTO   O53 6944   6.247   7.099   1.190 -0.4819 -0.2832 -0.0188
   17CHTO   C82 6945   6.337   7.190   1.120  0.2768 -0.0964  0.1581
   17CHTO  H154 6946   6.339   7.161   1.015 -0.3253 -1.5626  0.5338
   17CHTO   C89 6947   6.294   7.339   1.118 -0.0469  0.9557 -0.3649
   17CHTO   O59 6948   6.161   7.346   1.068 -0.1451 -0.7989  0.6488
   17CHTO  H137 6949   6.109   7.281   1.111 -0.0905 -1.7441 -0.6651
   17CHTO   O45 6950   6.201   6.851   1.225  0.4576 -0.2029 -0.3303
   17CHTO   C67 6951   6.083   6.809   1.153  0.1466  0.4187  0.4331
   17CHTO  H124 6952   6.002   6.792   1.225 -1.0515  2.1245 -0.4979
   17CHTO   C65 6953   6.015   6.911   1.044 -0.1137  0.6330 -0.0723
   17CHTO  H122 6954   6.086   6.991   1.025 -1.6370  2.0783  0.1796
   17CHTO   O44 6955   5.912   6.975   1.111  0.3854 -0.4923  0.3799
   17CHTO  H102 6956   5.937   7.008   1.195 -0.0439 -1.7117  1.0013
   17CHTO   C63 6957   5.982   6.844   0.905  0.0215 -0.3562 -0.1943
   17CHTO  H120 6958   6.081   6.821   0.865  0.7520  3.8256 -0.9643
   17CHTO   N11 6959   5.934   6.930   0.798  0.5579 -0.4206 -0.0567
   17CHTO  H108 6960   5.919   6.885   0.702  2.1651  1.2803 -1.1226
   17CHTO  H109 6961   5.844   6.980   0.827  1.3477  0.6309  0.5849
   17CHTO   C61 6962   5.907   6.713   0.930 -0.2010 -0.1683 -0.2966
   17CHTO  H118 6963   5.894   6.664   0.832  1.7159  0.1800 -0.7556
   17CHTO   O40 6964   5.992   6.625   1.003 -0.4178 -0.4299 -0.0582
   17CHTO   C68 6965   6.108   6.669   1.081 -0.1631 -0.5241 -0.3486
   17CHTO  H125 6966   6.200   6.671   1.019  0.3054 -0.9315  0.3289
   17CHTO   C72 6967   6.126   6.559   1.188  0.4792  1.1133 -0.2422
   17CHTO   O48 6968   6.132   6.424   1.137  0.3822 -0.2406  0.4010
   17CHTO  H105 6969   6.069   6.410   1.070  0.9723  0.0326 -0.2194
   17CHTO   O38 6970   5.781   6.725   0.987 -0.1419  0.2178 -0.0607
   17CHTO   C55 6971   5.721   6.640   1.083  0.2797  0.5037  0.7972
   17CHTO  H112 6972   5.784   6.632   1.173 -0.3696  2.7409  1.4762
   17CHTO   C56 6973   5.696   6.496   1.009 -0.1928  0.5250  0.3685
   17CHTO  H113 6974   5.648   6.529   0.915 -1.7008 -1.3225  0.4552
   17CHTO   O42 6975   5.821   6.427   0.971  0.2225  0.3750 -0.4376
   17CHTO  H100 6976   5.790   6.342   0.945 -2.4559  1.8283 -2.2902
   17CHTO   C57 6977   5.600   6.398   1.094 -0.1789 -0.1829  0.3338
   17CHTO  H114 6978   5.642   6.372   1.191  1.1344  0.5983 -0.0119
   17CHTO   N10 6979   5.571   6.279   1.011  0.2592 -0.0121 -0.2904
   17CHTO  H106 6980   5.497   6.306   0.936  1.2760 -0.6016 -1.5132
   17CHTO  H107 6981   5.527   6.204   1.075  3.7077 -1.3649  0.5625
   17CHTO   C58 6982   5.467   6.478   1.119 -0.1293  0.2806 -0.6761
   17CHTO  H115 6983   5.423   6.511   1.023 -0.7902  1.9283  0.1773
   17CHTO   O37 6984   5.508   6.599   1.193 -0.1481  0.3739 -0.1898
   17CHTO   C59 6985   5.582   6.694   1.116  0.1574 -0.0810 -0.0602
   17CHTO  H116 6986   5.523   6.715   1.027 -0.6963  0.3343  0.5954
   17CHTO   C70 6987   5.585   6.826   1.200  0.5789 -0.2491 -0.1205
   17CHTO   O46 6988   5.452   6.871   1.227  0.4994  0.7097 -0.4208
   17CHTO  H103 6989   5.439   6.945   1.171 -0.5381 -0.4574 -1.7655
   17CHTO   O39 6990   5.371   6.395   1.222  0.6614  0.1265 -0.2526
   17CHTO   C60 6991   5.239   6.453   1.224  0.4499 -0.1515  0.2989
   17CHTO  H117 6992   5.243   6.562   1.223 -1.8284 -0.0541 -1.7623
   17CHTO   C62 6993   5.163   6.407   1.100 -0.0605 -0.0584  0.1773
   17CHTO  H119 6994   5.215   6.452   1.013 -1.0145  2.3571  0.8064
   17CHTO   O43 6995   5.176   6.262   1.105  0.6547 -0.0375 -0.1565
   17CHTO  H101 6996   5.183   6.234   1.016 -0.1817 -0.1645 -0.1794
   17CHTO   C66 6997   5.010   6.466   1.111 -0.4458 -0.4012 -0.2698
   17CHTO  H123 6998   5.014   6.574   1.094  0.9464 -0.4905 -0.5303
   17CHTO   N12 6999   4.927   6.415   0.998  0.4222  0.0195  0.0342
   17CHTO  H110 7000   4.846   6.478   0.965  0.7420  0.3194 -0.1786
   17CHTO  H111 7001   4.916   6.308   0.992  2.2382 -0.1166 -1.2741
   17CHTO   C69 7002   4.952   6.433   1.248 -0.3236 -0.3743 -0.1521
   17CHTO  H126 7003   4.935   6.324   1.264  3.3617 -0.9958 -0.0025
   17CHTO   O41 7004   5.042   6.480   1.371  0.3360 -0.2433 -0.0812
   17CHTO   C64 7005   5.177   6.412   1.356  0.0084 -0.1461 -0.1048
   17CHTO  H121 7006   5.158   6.304   1.341  0.9125 -0.1930 -0.9381
   17CHTO   C71 7007   5.265   6.451   1.478 -0.2018 -0.2534 -0.5496
   17CHTO   O47 7008   5.200   6.395   1.590 -0.4415  0.0923 -0.4263
   17CHTO  H104 7009   5.211   6.305   1.568  0.7017  0.1377 -0.0913
   17CHTO   O34 7010   4.811   6.515   1.265 -0.2592  0.5123  0.3104
   17CHTO   C49 7011   4.731   6.664   1.308  0.3765  0.3111 -0.0713
   17CHTO   H91 7012   4.790   6.748   1.271  0.7976  1.5344  3.1472
   17CHTO   C47 7013   4.740   6.676   1.464  0.2321  0.0475 -0.5241
   17CHTO   H89 7014   4.715   6.781   1.491 -3.4980 -0.2090 -2.6182
   17CHTO   O33 7015   4.880   6.650   1.500 -0.2770 -0.4643 -0.4117
   17CHTO   H70 7016   4.898   6.673   1.589 -0.6879  1.5451 -0.8327
   17CHTO   C45 7017   4.641   6.555   1.528  0.6486 -0.6943 -0.5905
   17CHTO   H87 7018   4.695   6.464   1.558  0.2700 -0.9730 -0.7514
   17CHTO    N8 7019   4.574   6.616   1.649  0.2880 -0.2100 -0.2215
   17CHTO   H75 7020   4.572   6.540   1.726 -1.4620 -1.7593 -1.7529
   17CHTO   H76 7021   4.627   6.706   1.676  0.0791  0.6910 -2.7364
   17CHTO   C43 7022   4.532   6.511   1.420 -0.1462 -0.5481 -0.2939
   17CHTO   H85 7023   4.590   6.441   1.359 -1.1318 -0.7932 -0.9652
   17CHTO   O29 7024   4.481   6.619   1.343 -0.2485 -0.5754 -0.1165
   17CHTO   C50 7025   4.586   6.669   1.260 -0.2998  0.5848 -0.6890
   17CHTO   H92 7026   4.593   6.614   1.165  1.7067 -0.9007  0.2860
   17CHTO   C54 7027   4.549   6.807   1.219 -0.1430 -0.5223  0.3551
   17CHTO   O36 7028   4.443   6.799   1.119 -0.0233  0.0919 -0.2360
   17CHTO   H72 7029   4.446   6.875   1.065  0.9790  0.1683 -0.0817
   17CHTO   O27 7030   4.423   6.429   1.477  0.4918 -0.5825 -0.2643
   17CHTO   C37 7031   4.366   6.317   1.401 -0.0191 -0.0631  0.2618
   17CHTO   H79 7032   4.286   6.280   1.466  0.0154 -0.0777  0.2962
   17CHTO   C38 7033   4.295   6.367   1.264  0.0646 -0.0056 -0.5959
   17CHTO   H80 7034   4.369   6.426   1.208  0.1718  0.6308  0.2055
   17CHTO   O31 7035   4.183   6.459   1.300  0.0807  0.6404  0.1430
   17CHTO   H68 7036   4.214   6.499   1.380  0.1804  0.3718  0.2387
   17CHTO   C39 7037   4.245   6.240   1.180  0.3229  0.1144  0.4244
   17CHTO   H81 7038   4.151   6.201   1.220  0.0513 -2.2742 -2.4219
   17CHTO    N7 7039   4.220   6.283   1.039 -0.1273 -0.5072 -0.5988
   17CHTO   H73 7040   4.184   6.196   0.987  0.4073 -0.4201 -1.1159
   17CHTO   H74 7041   4.129   6.341   1.049  0.1994 -0.1173  0.1704
   17CHTO   C40 7042   4.354   6.128   1.180 -0.3705  0.5426  0.0730
   17CHTO   H82 7043   4.446   6.151   1.125  1.1334 -1.3906  1.7258
   17CHTO   O26 7044   4.383   6.096   1.315 -0.1781  0.2999 -0.7897
   17CHTO   C41 7045   4.460   6.203   1.373 -0.0972  0.0920 -1.7151
   17CHTO   H83 7046   4.542   6.237   1.308  2.3702 -0.3450  1.0523
   17CHTO   C52 7047   4.532   6.144   1.504 -0.7753  0.3344  0.4449
   17CHTO   O35 7048   4.637   6.037   1.473 -0.2339  0.0049 -0.0160
   17CHTO   H71 7049   4.646   6.014   1.383  0.8126  0.5480 -0.0538
   17CHTO   O28 7050   4.300   6.001   1.135 -0.3949  0.4048  0.5322
   17CHTO   C42 7051   4.388   5.887   1.086  0.1733 -0.2833  0.5965
   17CHTO   H84 7052   4.312   5.810   1.070 -0.6047 -0.1840  3.4637
   17CHTO   C44 7053   4.499   5.822   1.187 -0.3354 -0.2907 -0.3524
   17CHTO   H86 7054   4.555   5.907   1.225 -0.2155 -0.4220 -0.2402
   17CHTO   O32 7055   4.428   5.766   1.296  0.0857 -0.1136 -0.3537
   17CHTO   H69 7056   4.402   5.680   1.269  0.8111 -0.2631 -0.6062
   17CHTO   C48 7057   4.601   5.722   1.110 -0.4267 -0.2286  0.3504
   17CHTO   H90 7058   4.545   5.643   1.060 -0.7680  0.8753 -1.0581
   17CHTO    N9 7059   4.707   5.661   1.199  0.6722  0.0921  0.4602
   17CHTO   H77 7060   4.791   5.727   1.214  0.4052  1.1367 -2.3947
   17CHTO   H78 7061   4.738   5.568   1.153  0.7587 -0.0731  0.8535
   17CHTO   C51 7062   4.662   5.805   0.991 -0.1513  0.1369 -0.2180
   17CHTO   H93 7063   4.687   5.900   1.039 -0.5969 -0.8644  2.0869
   17CHTO   O30 7064   4.555   5.825   0.897  0.7297 -0.0960 -0.1664
   17CHTO   C46 7065   4.452   5.925   0.939 -0.4484  0.4019 -0.9414
   17CHTO   H88 7066   4.504   6.021   0.937 -0.2436  0.4607  2.6206
   17CHTO   C53 7067   4.341   5.918   0.828  0.0071  1.0385  0.5169
   17CHTO   O72 7068   4.219   5.988   0.844  0.0590  0.4759 -0.9619
   17CHTO  H199 7069   4.195   6.006   0.933  1.2050 -0.7103 -0.3976
   17CHTO   O22 7070   4.771   5.730   0.926  0.7834  0.1115  0.2086
   17CHTO   C31 7071   4.869   5.796   0.836 -0.4090 -0.0417 -0.1716
   17CHTO   H59 7072   4.960   5.734   0.834  0.8686  1.7842 -0.2434
   17CHTO   C29 7073   4.819   5.809   0.683  0.1804 -0.9154 -1.1641
   17CHTO   H57 7074   4.725   5.866   0.683  1.4571  1.2841  0.5220
   17CHTO   O21 7075   4.790   5.684   0.630  0.4378 -0.7575 -0.1178
   17CHTO   H37 7076   4.715   5.696   0.575 -1.2598 -1.2703  2.0309
   17CHTO   C27 7077   4.926   5.885   0.593  0.2468 -0.6757 -0.5016
   17CHTO   H55 7078   5.011   5.818   0.573 -1.2680 -2.5545 -0.8421
   17CHTO    N5 7079   4.867   5.937   0.465  0.0821 -0.2925 -0.2574
   17CHTO   H43 7080   4.760   5.926   0.460 -0.0387  0.6764  0.1479
   17CHTO   H44 7081   4.920   5.893   0.381  0.5416 -1.1621  0.4753
   17CHTO   C25 7082   4.977   6.013   0.669  0.4468 -0.2703  0.5592
   17CHTO   H53 7083   4.892   6.081   0.685  1.0725  0.4268  0.9511
   17CHTO   O17 7084   5.021   5.982   0.804 -0.3017  0.1199 -0.3405
   17CHTO   C32 7085   4.917   5.932   0.893  0.2380  0.1369 -0.0721
   17CHTO   H60 7086   4.833   6.002   0.895 -0.2767 -0.5067  1.1318
   17CHTO   C36 7087   4.986   5.908   1.034 -0.1407 -0.0177 -0.0412
   17CHTO   O25 7088   5.050   6.024   1.089  0.1031  0.8113 -0.0938
   17CHTO   H40 7089   5.140   6.003   1.108  0.1041 -0.6352 -1.6288
   17CHTO   O15 7090   5.106   6.071   0.598 -0.3547  0.2676 -0.2052
   17CHTO   C19 7091   5.144   6.204   0.594  0.4652  0.3432  0.3304
   17CHTO   H47 7092   5.218   6.189   0.514 -0.3606 -1.1715 -0.1519
   17CHTO   C20 7093   5.045   6.315   0.550  0.3755  0.6321  0.2578
   17CHTO   H48 7094   4.954   6.320   0.612  0.9383 -1.1123  1.2485
   17CHTO   O19 7095   4.998   6.254   0.426 -0.0147  0.4056  0.1968
   17CHTO   H35 7096   4.948   6.317   0.378 -1.5155  0.4987  1.8327
   17CHTO   C21 7097   5.118   6.448   0.535  0.0539  0.4868  0.1445
   17CHTO   H49 7098   5.194   6.443   0.458 -0.3026  2.8860 -0.3877
   17CHTO    N4 7099   5.023   6.554   0.503 -0.1149 -0.3740 -0.3855
   17CHTO   H41 7100   5.079   6.646   0.492 -0.3368  0.3247  3.7097
   17CHTO   H42 7101   4.951   6.566   0.581  0.1298  0.0739 -0.2263
   17CHTO   C22 7102   5.199   6.484   0.660  0.1081  0.5440 -0.1412
   17CHTO   H50 7103   5.126   6.483   0.742 -0.6865  0.5619 -0.8387
   17CHTO   O14 7104   5.292   6.382   0.678 -0.4595  0.1056 -0.6176
   17CHTO   C23 7105   5.233   6.253   0.709  0.5252 -0.4365 -0.0355
   17CHTO   H51 7106   5.178   6.257   0.805  1.5854  1.8562  0.5134
   17CHTO   C34 7107   5.346   6.151   0.736 -0.5325 -0.1102  0.3324
   17CHTO   O23 7108   5.302   6.022   0.787 -0.1762  0.0981  0.3663
   17CHTO   H38 7109   5.288   5.958   0.720  0.9280 -0.5214  0.7065
   17CHTO   O16 7110   5.268   6.604   0.643 -0.0324 -0.0141 -0.1950
   17CHTO   C24 7111   5.318   6.687   0.780 -0.4267  0.5714 -0.4456
   17CHTO   H52 7112   5.355   6.618   0.855  2.4662  0.8483 -1.5618
   17CHTO   C26 7113   5.209   6.772   0.840  0.6366  0.6405 -0.4866
   17CHTO   H54 7114   5.156   6.829   0.762 -1.3549  0.0562  0.4156
   17CHTO   O20 7115   5.112   6.688   0.902  0.0078  0.6504 -0.4914
   17CHTO   H36 7116   5.149   6.640   0.974  0.2378  1.4658 -0.0574
   17CHTO   C30 7117   5.255   6.879   0.944  0.2742  0.1357  0.0376
   17CHTO   H58 7118   5.291   6.823   1.031  2.1307 -1.8321 -1.9253
   17CHTO    N6 7119   5.143   6.971   0.998  0.1825  0.7241 -0.7681
   17CHTO   H45 7120   5.160   7.078   0.992  0.8934  0.7257  1.1481
   17CHTO   H46 7121   5.120   6.947   1.100  0.9493  3.4163  0.0888
   17CHTO   C33 7122   5.374   6.961   0.876 -0.2682  0.2634  0.3838
   17CHTO   H61 7123   5.342   7.016   0.787 -0.8716  0.0268  0.4542
   17CHTO   O18 7124   5.479   6.861   0.838  0.0662 -0.1871 -0.4954
   17CHTO   C28 7125   5.433   6.776   0.731  0.1459 -0.6462  0.4911
   17CHTO   H56 7126   5.393   6.841   0.654 -2.4051  0.0359  2.2942
   17CHTO   C35 7127   5.541   6.686   0.668  0.0302  0.1023 -0.0053
   17CHTO   O24 7128   5.642   6.772   0.614  0.6358 -0.3597 -0.2585
   17CHTO   H39 7129   5.668   6.756   0.526 -0.2823  2.5866 -1.1281
   17CHTO    O9 7130   5.427   7.061   0.961 -0.0006  0.0760  0.5862
   17CHTO   C13 7131   5.529   7.160   0.900 -0.2936  0.3261  0.5897
   17CHTO   H26 7132   5.596   7.114   0.825  0.7959  1.0080  1.1339
   17CHTO   C11 7133   5.617   7.217   1.026  0.5493  0.1949  0.4891
   17CHTO   H24 7134   5.672   7.136   1.076 -0.6953  1.3143  3.8075
   17CHTO    O8 7135   5.535   7.269   1.130  0.6769 -0.3863 -0.2079
   17CHTO    H3 7136   5.449   7.230   1.130  1.6387 -2.6230 -0.5516
   17CHTO    C9 7137   5.720   7.323   0.973  0.3749  0.6677  0.0689
   17CHTO   H22 7138   5.773   7.280   0.886  1.2120  2.1250 -0.1673
   17CHTO    N2 7139   5.825   7.358   1.067 -0.2178  0.3084  0.4720
   17CHTO   H10 7140   5.798   7.417   1.154 -0.8703  3.8325 -2.0341
   17CHTO   H11 7141   5.881   7.272   1.101 -0.4362 -0.3359 -0.7948
   17CHTO    C7 7142   5.628   7.443   0.908 -0.0422 -0.5541  0.2822
   17CHTO   H20 7143   5.711   7.496   0.858 -1.4263 -0.9055 -2.4860
   17CHTO    O4 7144   5.527   7.407   0.808  0.1395  0.0412 -0.4310
   17CHTO   C14 7145   5.455   7.281   0.826  0.0499  0.6014  0.2176
   17CHTO   H27 7146   5.432   7.239   0.726  1.2447 -0.7982  0.4988
   17CHTO   C18 7147   5.325   7.318   0.895  0.1895 -0.1255 -0.3720
   17CHTO   O13 7148   5.213   7.269   0.825 -0.5681  0.4139  0.1923
   17CHTO    H7 7149   5.149   7.227   0.879 -2.0365  1.3546 -0.7514
   17CHTO    O2 7150   5.558   7.540   1.016  0.0026 -1.0010  0.1158
   17CHTO    C1 7151   5.542   7.678   0.995 -0.1442 -0.0773  0.1359
   17CHTO   H14 7152   5.483   7.692   0.902 -1.1868  3.2165  1.2271
   17CHTO    C2 7153   5.684   7.752   0.990 -0.2645  0.2295  0.0564
   17CHTO   H15 7154   5.738   7.693   1.065 -1.3967  0.1536  0.8222
   17CHTO    O6 7155   5.736   7.752   0.855 -0.1356 -0.2474  0.3744
   17CHTO    H1 7156   5.809   7.811   0.857 -1.0390  0.9113 -0.1562
   17CHTO    C3 7157   5.676   7.903   1.046  0.3729 -0.0549  0.5456
   17CHTO   H16 7158   5.636   7.966   0.965  1.6640  1.2327  0.8900
   17CHTO    N1 7159   5.807   7.952   1.078 -0.1983  0.5245 -0.1987
   17CHTO    H8 7160   5.808   8.059   1.069 -0.1154  0.8320  2.7873
   17CHTO    H9 7161   5.833   7.920   1.178  0.1275 -0.1777 -0.5024
   17CHTO    C4 7162   5.575   7.926   1.167 -0.2907  0.1672 -0.3012
   17CHTO   H17 7163   5.610   7.866   1.252  0.7355 -1.4543 -1.8421
   17CHTO    O1 7164   5.448   7.873   1.134 -0.2084 -0.6399 -0.3921
   17CHTO    C5 7165   5.446   7.729   1.110  0.4478 -0.1874  0.7272
   17CHTO   H18 7166   5.486   7.686   1.202 -0.2435 -1.4694  0.4463
   17CHTO   C16 7167   5.293   7.684   1.092 -0.0398  0.0150 -0.1327
   17CHTO   O11 7168   5.287   7.543   1.121 -0.3188  0.0257 -0.1899
   17CHTO    H5 7169   5.205   7.505   1.096 -0.3200  1.2272 -2.1034
   17CHTO    O3 7170   5.563   8.066   1.191  0.1125 -0.2990  0.2777
   17CHTO    C6 7171   5.488   8.122   1.300  0.0855  0.0376 -0.3985
   17CHTO   H19 7172   5.410   8.188   1.263 -0.7821 -0.9905 -0.4400
   17CHTO    C8 7173   5.418   8.022   1.404  0.0334  0.4446 -0.7234
   17CHTO   H21 7174   5.492   7.949   1.437 -1.4049 -1.1553 -0.9356
   17CHTO    O7 7175   5.309   7.957   1.345  0.6785  0.4310  0.7992
   17CHTO    H2 7176   5.256   7.899   1.396  1.4802 -1.7623 -0.7956
   17CHTO   C12 7177   5.361   8.099   1.528  0.4904  0.3186 -0.1105
   17CHTO   H25 7178   5.280   8.165   1.489 -0.6514 -0.2692  1.2304
   17CHTO    N3 7179   5.300   8.009   1.631  0.1146 -0.6394 -0.1078
   17CHTO   H12 7180   5.208   7.964   1.599 -1.2686  1.6811  0.4962
   17CHTO   H13 7181   5.276   8.066   1.719  0.6300 -3.9971  2.2910
   17CHTO   C15 7182   5.474   8.185   1.589 -1.2668 -0.5298  0.4710
   17CHTO   H28 7183   5.555   8.118   1.618 -1.5578 -0.2920  1.8761
   17CHTO   O10 7184   5.430   8.282   1.699 -0.6281 -0.1467 -0.0673
   17CHTO    H4 7185   5.362   8.339   1.669  0.0581  1.4076  1.2411
   17CHTO    O5 7186   5.526   8.279   1.496 -0.5112  0.8041 -0.2689
   17CHTO   C10 7187   5.586   8.220   1.378  0.3931  0.3623 -0.8874
   17CHTO   H23 7188   5.679   8.168   1.400  2.2175  3.8672  0.1251
   17CHTO   C17 7189   5.633   8.334   1.286  0.1253  0.6996  0.6068
   17CHTO   O12 7190   5.523   8.418   1.239 -0.5042  0.3473  0.8187
   17CHTO    H6 7191   5.507   8.478   1.309  0.0927 -0.2881  1.5188
   18CHTO  H203 7192   6.959   7.990   1.911 -0.8814  0.0873 -0.2113
   18CHTO   O82 7193   6.924   8.077   1.917 -0.5527  0.2427 -0.5656
   18CHTO  C123 7194   6.862   8.106   1.788 -0.6093  0.3922  1.0059
   18CHTO  H227 7195   6.754   8.121   1.802 -0.7825  1.1297 -1.0197
   18CHTO   O77 7196   6.931   8.232   1.759 -0.0504 -0.3334  0.4439
   18CHTO  C118 7197   6.898   8.279   1.627  0.2713 -0.8747  0.5368
   18CHTO  H222 7198   6.788   8.277   1.628  0.2869 -1.6191  1.6087
   18CHTO  C125 7199   6.948   8.424   1.618 -0.5429 -0.3834 -0.0389
   18CHTO   O84 7200   7.077   8.416   1.583 -0.1465 -0.1609 -0.0233
   18CHTO  H205 7201   7.126   8.462   1.648 -2.1609  1.6609  0.2795
   18CHTO  C114 7202   6.935   8.181   1.519  0.6254  0.2352  0.3755
   18CHTO  H218 7203   7.043   8.167   1.522  0.5859 -1.3602 -3.1699
   18CHTO  C116 7204   6.865   8.046   1.550  0.2795  0.3188 -0.4346
   18CHTO  H220 7205   6.759   8.065   1.525  0.1856  1.7455  0.9141
   18CHTO   O79 7206   6.914   7.955   1.450  0.1773  0.4812  0.3540
   18CHTO  H201 7207   6.911   7.989   1.363 -0.5606  1.5743  0.8007
   18CHTO  C120 7208   6.898   7.989   1.688 -0.4460 -0.2858 -1.2039
   18CHTO  H224 7209   7.008   7.974   1.696 -0.2703 -0.1388 -3.1541
   18CHTO   N21 7210   6.827   7.862   1.725 -0.0186 -0.2323 -0.4168
   18CHTO  H211 7211   6.894   7.784   1.692 -0.8649 -0.8166 -0.7754
   18CHTO  H212 7212   6.829   7.849   1.832  0.9109 -0.4949 -0.4572
   18CHTO   O75 7213   6.895   8.236   1.383  0.1502  0.1507  0.1952
   18CHTO  C112 7214   7.033   8.271   1.278 -0.4802  0.2506 -0.3412
   18CHTO  H216 7215   7.118   8.209   1.310 -0.7891 -0.0876 -0.1751
   18CHTO   O73 7216   7.068   8.412   1.285  0.5550 -0.1111  0.1895
   18CHTO  C113 7217   7.191   8.450   1.223 -0.7166 -0.1100  0.2080
   18CHTO  H217 7218   7.267   8.376   1.258 -0.1730  0.0353 -0.6508
   18CHTO  C124 7219   7.238   8.587   1.281  0.1681  0.5227  0.1258
   18CHTO   O83 7220   7.269   8.571   1.416 -0.1178  0.3733  0.1091
   18CHTO  H204 7221   7.259   8.653   1.461  2.5487  0.7613  0.0679
   18CHTO  C109 7222   7.166   8.440   1.075 -0.2523  0.1970 -0.3991
   18CHTO  H213 7223   7.083   8.509   1.053  0.0469  0.9016  0.6585
   18CHTO  C110 7224   7.117   8.294   1.043 -0.1613  0.0393 -0.7420
   18CHTO  H214 7225   7.211   8.239   1.046  0.3328  0.7354 -2.5956
   18CHTO   O78 7226   7.070   8.291   0.905  0.3672  0.4154 -0.2931
   18CHTO  H200 7227   7.068   8.199   0.885  2.0670  0.4828 -0.8621
   18CHTO  C111 7228   7.004   8.231   1.134 -0.1614 -0.3632  0.0885
   18CHTO  H215 7229   6.907   8.277   1.108 -0.7022 -2.2501 -1.3513
   18CHTO   N19 7230   6.988   8.081   1.123  0.1596 -0.5699 -0.2937
   18CHTO  H207 7231   6.891   8.062   1.165  0.0309  1.0437  0.1561
   18CHTO  H208 7232   7.027   8.046   1.028  4.8876  1.4433  0.7446
   18CHTO   O74 7233   7.295   8.484   1.010 -0.3479  0.0628  0.5608
   18CHTO  C115 7234   7.265   8.543   0.851  0.4253  0.1229 -0.1729
   18CHTO  H219 7235   7.204   8.472   0.796  1.4758 -1.6530  0.9181
   18CHTO   O76 7236   7.178   8.676   0.855 -0.2319  0.1692  0.0553
   18CHTO  C122 7237   7.141   8.730   0.727 -0.4303  0.7467 -0.4659
   18CHTO  H226 7238   7.120   8.835   0.749  3.3048  1.2456  0.9590
   18CHTO  C126 7239   7.014   8.671   0.667  1.1223  0.4045 -0.2406
   18CHTO   O85 7240   6.890   8.713   0.724  0.2484  0.5150  0.2172
   18CHTO  H206 7241   6.873   8.793   0.678  0.1289  0.1730 -0.3396
   18CHTO  C121 7242   7.258   8.728   0.619 -0.4023 -0.3747  0.2310
   18CHTO  H225 7243   7.216   8.746   0.518  2.0560  0.3078 -0.6876
   18CHTO   O81 7244   7.330   8.846   0.636 -0.4613 -0.2992  0.1742
   18CHTO  H202 7245   7.354   8.875   0.550 -0.1799 -0.2667  0.2647
   18CHTO  C119 7246   7.345   8.600   0.623  0.0092 -0.3747 -0.6329
   18CHTO  H223 7247   7.276   8.521   0.593 -0.7616 -0.0797  0.3350
   18CHTO  C117 7248   7.394   8.576   0.766  0.0433 -0.0399  0.4435
   18CHTO  H221 7249   7.454   8.656   0.809  1.6368 -0.5709 -0.7198
   18CHTO   N20 7250   7.487   8.459   0.762  0.2791 -0.1703 -0.0380
   18CHTO  H209 7251   7.578   8.496   0.717 -0.9577  2.6237 -0.3464
   18CHTO  H210 7252   7.449   8.376   0.704  0.4964 -3.3185  4.0638
   18CHTO   O80 7253   7.448   8.610   0.491 -0.0359 -0.4742  0.1567
   18CHTO  C103 7254   7.413   8.511   0.344  0.4062  0.1310  0.2173
   18CHTO  H190 7255   7.479   8.527   0.259 -2.4351 -0.6975 -2.2299
   18CHTO  C101 7256   7.426   8.359   0.377 -0.6132  0.8076 -0.4773
   18CHTO  H188 7257   7.360   8.330   0.458  0.0458 -0.5617 -0.4221
   18CHTO   O68 7258   7.583   8.339   0.420  0.0421  0.0296  0.6414
   18CHTO  H168 7259   7.626   8.303   0.346 -2.5495  0.6212 -1.2375
   18CHTO   C99 7260   7.388   8.270   0.254 -0.3869  0.9726  0.0698
   18CHTO  H186 7261   7.443   8.305   0.164  2.5762 -1.1957  0.9654
   18CHTO   N17 7262   7.408   8.124   0.267  0.4032  0.0442 -0.4611
   18CHTO  H174 7263   7.346   8.078   0.192 -1.4547  0.1033  0.9989
   18CHTO  H175 7264   7.509   8.092   0.288 -0.4728 -0.9541  2.4097
   18CHTO   C97 7265   7.244   8.311   0.228  0.4121 -0.1356  0.1751
   18CHTO  H184 7266   7.183   8.287   0.317 -0.0356  0.7961  0.1200
   18CHTO   O64 7267   7.240   8.453   0.193  0.2845 -0.3339  0.2760
   18CHTO  C104 7268   7.277   8.539   0.301  0.3255 -0.2190  0.0831
   18CHTO  H191 7269   7.212   8.527   0.387  2.2763  0.9333  1.7504
   18CHTO  C108 7270   7.266   8.684   0.255  0.5864 -0.2649  0.2645
   18CHTO   O71 7271   7.127   8.717   0.226 -0.3603  0.0197  0.3176
   18CHTO  H171 7272   7.074   8.716   0.304 -1.4848  0.0831 -0.4296
   18CHTO   O62 7273   7.178   8.261   0.104 -0.3229  0.1352  0.0776
   18CHTO   C91 7274   7.032   8.271   0.098  0.3852  0.2149 -0.1627
   18CHTO  H178 7275   6.997   8.316   0.190  3.0708 -0.7073  1.3520
   18CHTO   C92 7276   6.976   8.124   0.090 -0.5382 -0.7018 -0.0641
   18CHTO  H179 7277   7.002   8.075  -0.005  3.3898  1.6582 -0.2771
   18CHTO   O66 7278   7.044   8.044   0.190  0.5811 -0.2700 -0.1450
   18CHTO  H166 7279   7.011   8.049   0.277 -1.0095  0.9922 -0.7870
   18CHTO   C93 7280   6.823   8.127   0.117  0.2267  0.8441  0.0041
   18CHTO  H180 7281   6.803   8.163   0.219 -1.8196  0.4476 -0.2457
   18CHTO   N16 7282   6.751   7.997   0.122  0.1186  0.0109 -0.6318
   18CHTO  H172 7283   6.784   7.935   0.205 -0.2404  2.0081  1.0374
   18CHTO  H173 7284   6.731   7.944   0.030  4.2189  1.1126 -2.2762
   18CHTO   C94 7285   6.763   8.230   0.018 -1.0511  0.3017 -0.3682
   18CHTO  H181 7286   6.779   8.196  -0.084 -1.3109 -1.8265  0.2664
   18CHTO   O61 7287   6.830   8.352   0.019 -0.4095 -0.6064 -0.1056
   18CHTO   C95 7288   6.966   8.355  -0.016 -0.4082  0.6220  0.6000
   18CHTO  H182 7289   6.984   8.320  -0.118  1.1427  0.4759  0.9165
   18CHTO  C106 7290   7.007   8.505  -0.011 -0.8667 -0.5060  0.1408
   18CHTO   O69 7291   7.137   8.531  -0.071  0.1157  0.2224  0.0896
   18CHTO  H169 7292   7.159   8.459  -0.127  3.3131  1.7919 -0.7593
   18CHTO   O63 7293   6.591   8.250   0.060  0.5232 -0.0001  0.5579
   18CHTO   C96 7294   6.546   8.401   0.071  0.1208  0.4284  0.4662
   18CHTO  H183 7295   6.590   8.458  -0.011 -2.0446 -1.3928 -2.0328
   18CHTO   C98 7296   6.577   8.473   0.200 -0.5087  0.0350 -0.3920
   18CHTO  H185 7297   6.546   8.407   0.282 -1.5456  0.5231 -0.3835
   18CHTO   O67 7298   6.720   8.491   0.215  0.1010  0.4935  0.0081
   18CHTO  H167 7299   6.751   8.532   0.294  1.1333  1.3427 -0.8144
   18CHTO  C102 7300   6.512   8.623   0.203 -0.8006  0.0650 -0.9178
   18CHTO  H189 7301   6.580   8.685   0.143  0.3746 -0.9255 -0.6291
   18CHTO   N18 7302   6.513   8.676   0.346 -0.5611  0.0093  0.7318
   18CHTO  H176 7303   6.613   8.666   0.384  0.0857  0.2018 -0.8699
   18CHTO  H177 7304   6.493   8.782   0.351  0.9358  0.4125 -1.3282
   18CHTO  C105 7305   6.375   8.630   0.130  1.0077 -0.4689  0.2915
   18CHTO  H192 7306   6.297   8.610   0.203 -1.5650 -1.8374 -2.7430
   18CHTO   O65 7307   6.352   8.534   0.025 -0.2124 -0.3558  0.3914
   18CHTO  C100 7308   6.393   8.400   0.044  1.4304 -0.1140  0.4250
   18CHTO  H187 7309   6.330   8.363   0.126  1.5937  1.1103  1.1207
   18CHTO  C107 7310   6.352   8.315  -0.078  0.1137 -0.5773  0.0810
   18CHTO   O70 7311   6.213   8.316  -0.092 -0.1610  0.1416 -0.6255
   18CHTO  H170 7312   6.186   8.228  -0.106 -0.7595  0.1820  0.2412
   18CHTO   O57 7313   6.361   8.795   0.089  0.4677  0.5603 -0.2769
   18CHTO   C85 7314   6.245   8.846   0.020  0.2903  0.2134  0.3611
   18CHTO  H157 7315   6.277   8.944  -0.023 -0.9381  0.5151  0.0978
   18CHTO   C83 7316   6.139   8.890   0.132  0.4739 -0.9947  0.4310
   18CHTO  H155 7317   6.187   8.968   0.191  1.4522 -1.8071  0.7266
   18CHTO   O56 7318   6.113   8.786   0.226 -0.1777  0.0868  0.4077
   18CHTO  H135 7319   6.154   8.706   0.198  0.2634  0.9197 -1.4527
   18CHTO   C81 7320   6.012   8.948   0.066  0.0071  0.7769 -0.1533
   18CHTO  H153 7321   6.042   9.039   0.014  0.4542  1.4337  1.2294
   18CHTO   N14 7322   5.920   9.005   0.170 -0.1361  0.2225  0.7109
   18CHTO  H141 7323   5.836   9.054   0.124 -0.1583  0.3383  0.8741
   18CHTO  H142 7324   5.972   9.080   0.227  1.3607 -0.4053  0.2016
   18CHTO   C79 7325   5.950   8.845  -0.032  0.2107 -0.3004  0.0751
   18CHTO  H151 7326   5.859   8.889  -0.074  0.1598 -1.0993 -0.6606
   18CHTO   O52 7327   6.044   8.807  -0.138  0.5825  0.2862  0.1825
   18CHTO   C86 7328   6.176   8.757  -0.092 -0.2600  0.0994  0.2137
   18CHTO  H158 7329   6.154   8.652  -0.064  0.0268  0.3884  1.5328
   18CHTO   C90 7330   6.276   8.747  -0.215 -0.2746 -0.3179  0.0527
   18CHTO   O60 7331   6.415   8.727  -0.186  0.5447  0.7623  0.0922
   18CHTO  H138 7332   6.453   8.697  -0.267 -1.7415 -1.2504 -0.2941
   18CHTO   O50 7333   5.896   8.735   0.037 -0.5132 -0.2703  0.0756
   18CHTO   C73 7334   5.807   8.625   0.036  0.6105 -0.3240 -0.2674
   18CHTO  H145 7335   5.828   8.555  -0.047  0.2300 -0.7241 -0.0257
   18CHTO   C74 7336   5.658   8.662   0.011 -0.0918  0.3518  0.3235
   18CHTO  H146 7337   5.648   8.709  -0.088 -1.1710 -0.5172  0.0047
   18CHTO   O54 7338   5.568   8.546   0.007 -0.2023  0.2898  0.4989
   18CHTO  H133 7339   5.487   8.563   0.050 -0.2498  0.7609  0.2220
   18CHTO   C75 7340   5.616   8.759   0.128  0.4457 -0.5228  0.2612
   18CHTO  H147 7341   5.668   8.856   0.118  0.5288 -0.3945  1.7903
   18CHTO   N13 7342   5.471   8.806   0.109  0.1847 -0.9956  0.2047
   18CHTO  H139 7343   5.469   8.896   0.050  0.1711  0.6749  2.6844
   18CHTO  H140 7344   5.418   8.817   0.202 -2.4357  1.3559 -1.4944
   18CHTO   C76 7345   5.639   8.683   0.267 -0.5048 -0.5110 -0.1873
   18CHTO  H148 7346   5.573   8.598   0.283 -0.5910 -0.3191  0.4778
   18CHTO   O49 7347   5.778   8.645   0.275 -0.0966 -0.7005  1.2012
   18CHTO   C77 7348   5.813   8.552   0.169  0.2339 -0.6874  0.0426
   18CHTO  H149 7349   5.745   8.467   0.163 -0.1530 -0.2585 -2.3333
   18CHTO   C88 7350   5.952   8.508   0.205 -0.1670  0.3105 -0.0299
   18CHTO   O58 7351   5.955   8.436   0.340  0.0876  0.2510  0.2287
   18CHTO  H136 7352   5.886   8.456   0.400 -1.5315  0.7171 -1.7404
   18CHTO   O51 7353   5.635   8.791   0.384  0.6485 -0.0636 -0.1346
   18CHTO   C78 7354   5.679   8.732   0.544  0.4032 -0.3915 -1.0050
   18CHTO  H150 7355   5.726   8.632   0.542  1.2218 -0.0358  0.0164
   18CHTO   C80 7356   5.552   8.727   0.634  0.5026  0.2419  0.4438
   18CHTO  H152 7357   5.505   8.827   0.631  0.3610  0.1578 -0.0992
   18CHTO   O55 7358   5.460   8.638   0.565 -0.1302 -0.0665  0.2267
   18CHTO  H134 7359   5.462   8.555   0.609  0.1606 -0.4025 -0.4126
   18CHTO   C84 7360   5.574   8.694   0.783  0.0010  0.5479 -0.3471
   18CHTO  H156 7361   5.621   8.596   0.784  0.1906  0.6442  0.4955
   18CHTO   N15 7362   5.454   8.682   0.874 -0.2860 -0.2865 -0.0130
   18CHTO  H143 7363   5.487   8.695   0.975 -1.1873 -0.5356  0.3215
   18CHTO  H144 7364   5.431   8.577   0.868 -3.6568  0.3188  1.1971
   18CHTO   C87 7365   5.681   8.793   0.830  0.8978  0.2078  0.9000
   18CHTO  H159 7366   5.643   8.894   0.846  3.8848  1.1877  2.0994
   18CHTO   O53 7367   5.806   8.791   0.723  0.1682  0.0257  0.2832
   18CHTO   C82 7368   5.783   8.833   0.592 -0.2049 -0.5466  0.0481
   18CHTO  H154 7369   5.749   8.937   0.591 -2.4330 -1.2326  0.6594
   18CHTO   C89 7370   5.914   8.835   0.504 -0.0589  0.1074 -0.4157
   18CHTO   O59 7371   5.977   8.705   0.497  0.0527  0.4969 -0.0735
   18CHTO  H137 7372   6.064   8.715   0.530  0.1944  0.2778 -0.3752
   18CHTO   O45 7373   5.732   8.774   0.968  0.1721  0.1880 -0.4274
   18CHTO   C67 7374   5.869   8.812   1.005  0.2793 -0.1502  0.3063
   18CHTO  H124 7375   5.932   8.788   0.920 -0.1391  1.7995 -0.5882
   18CHTO   C65 7376   5.891   8.968   1.035 -0.2913 -0.1034 -0.5895
   18CHTO  H122 7377   5.798   8.997   1.083 -0.2761 -1.5462  0.3475
   18CHTO   O44 7378   5.912   9.032   0.908 -0.4393  0.6191 -0.3802
   18CHTO  H102 7379   5.837   9.023   0.853 -0.2038 -0.5780 -0.5181
   18CHTO   C63 7380   5.997   8.984   1.146  0.4762  0.2510 -0.6466
   18CHTO  H120 7381   5.952   8.963   1.243 -0.5327 -0.3906 -1.2401
   18CHTO   N11 7382   6.049   9.124   1.170 -0.3204 -0.1884 -0.0941
   18CHTO  H108 7383   6.113   9.149   1.088 -0.8149  1.1990 -0.0669
   18CHTO  H109 7384   5.971   9.196   1.182  0.8274  0.7280  2.1068
   18CHTO   C61 7385   6.106   8.874   1.133 -0.1511  0.2026 -0.3370
   18CHTO  H118 7386   6.185   8.900   1.206 -0.7290  1.2868 -0.0859
   18CHTO   O40 7387   6.060   8.743   1.162  0.1986  0.1386  0.2373
   18CHTO   C68 7388   5.917   8.717   1.128  0.0756 -0.1079 -0.0456
   18CHTO  H125 7389   5.852   8.725   1.218  1.1244 -0.6261  0.7610
   18CHTO   C72 7390   5.905   8.575   1.087 -0.4444 -0.0849  0.1967
   18CHTO   O48 7391   5.938   8.482   1.196 -0.5490  0.2761 -0.2249
   18CHTO  H105 7392   5.931   8.391   1.174 -0.2994 -0.0865  1.1780
   18CHTO   O38 7393   6.168   8.872   1.002  0.1271 -0.2476  0.3697
   18CHTO   C55 7394   6.303   8.815   0.988  0.3364  0.1695 -0.0396
   18CHTO  H112 7395   6.311   8.758   1.082  1.0488  1.7111  0.8609
   18CHTO   C56 7396   6.423   8.921   0.977  0.1761  0.2264  0.0922
   18CHTO  H113 7397   6.424   8.970   0.879 -1.4154 -1.5140 -0.8306
   18CHTO   O42 7398   6.413   9.017   1.082  0.4616 -0.3272 -0.0078
   18CHTO  H100 7399   6.492   9.066   1.072  0.6058 -0.1973  1.6534
   18CHTO   C57 7400   6.561   8.851   0.983  0.2565  0.1157 -0.6533
   18CHTO  H114 7401   6.584   8.811   1.082  1.0460 -0.2200 -0.9601
   18CHTO   N10 7402   6.674   8.933   0.943  0.5090  0.4475  0.6258
   18CHTO  H106 7403   6.707   9.000   1.021  0.7589  0.0694  0.8445
   18CHTO  H107 7404   6.755   8.873   0.905  0.5876 -0.2785  1.9175
   18CHTO   C58 7405   6.556   8.726   0.889 -0.1972 -0.0598 -0.2720
   18CHTO  H115 7406   6.571   8.754   0.783  0.6968  0.2198 -0.0725
   18CHTO   O37 7407   6.440   8.640   0.888 -0.3341  0.3581  0.1132
   18CHTO   C59 7408   6.321   8.716   0.872 -0.1757 -0.1894  0.2748
   18CHTO  H116 7409   6.311   8.772   0.779 -2.2083  1.7327  1.5914
   18CHTO   C70 7410   6.212   8.607   0.864 -0.7838  0.1072  0.6834
   18CHTO   O46 7411   6.243   8.515   0.757  0.9763  0.2187 -0.6559
   18CHTO  H103 7412   6.219   8.433   0.794 -3.0469  1.3372 -0.5308
   18CHTO   O39 7413   6.684   8.613   0.923  0.0965 -0.2686  0.1683
   18CHTO   C60 7414   6.643   8.523   1.035  0.8626  0.3479 -0.1944
   18CHTO  H117 7415   6.559   8.565   1.090  1.2713 -1.3421  1.8003
   18CHTO   C62 7416   6.600   8.381   0.984 -0.3403 -0.0721  0.6824
   18CHTO  H119 7417   6.526   8.401   0.904  0.5256 -2.8128 -0.8563
   18CHTO   O43 7418   6.716   8.315   0.926  0.3635 -0.0695 -0.4032
   18CHTO  H101 7419   6.785   8.370   0.896  1.0298 -0.6146  0.0976
   18CHTO   C66 7420   6.541   8.294   1.098 -0.9621  0.1079 -0.4702
   18CHTO  H123 7421   6.454   8.346   1.139  0.3037 -0.2315  2.8014
   18CHTO   N12 7422   6.491   8.164   1.051  0.1164  0.9592 -0.1652
   18CHTO  H110 7423   6.383   8.159   1.049  0.1412  0.9396 -2.8714
   18CHTO  H111 7424   6.527   8.137   0.953 -2.1871  0.7668 -0.9794
   18CHTO   C69 7425   6.644   8.269   1.212 -0.0326  0.9068 -0.0311
   18CHTO  H126 7426   6.717   8.187   1.193 -0.2862  0.6701  0.0200
   18CHTO   O41 7427   6.728   8.399   1.240  0.3177  0.2257  0.1624
   18CHTO   C64 7428   6.758   8.511   1.130  0.5826 -0.2494 -0.3897
   18CHTO  H121 7429   6.847   8.486   1.070  1.6494  1.1883  0.5613
   18CHTO   C71 7430   6.804   8.639   1.197 -0.7709  0.1821  0.4076
   18CHTO   O47 7431   6.690   8.700   1.260 -0.1228 -0.2875  0.2528
   18CHTO  H104 7432   6.712   8.747   1.338 -1.4599  0.6531  0.0910
   18CHTO   O34 7433   6.569   8.226   1.352  0.7471 -0.5432  0.0476
   18CHTO   C49 7434   6.501   8.238   1.473  0.9721 -0.1101  0.2447
   18CHTO   H91 7435   6.576   8.207   1.547  1.0854 -0.3253  0.0433
   18CHTO   C47 7436   6.378   8.145   1.477 -0.1659 -0.8830 -0.8908
   18CHTO   H89 7437   6.348   8.141   1.584  0.6858 -2.2547 -0.6866
   18CHTO   O33 7438   6.409   8.005   1.440 -0.2866 -0.0302 -0.1975
   18CHTO   H70 7439   6.455   7.971   1.514 -0.8669  0.7308  0.5159
   18CHTO   C45 7440   6.258   8.205   1.380 -0.2291 -0.0224 -0.0676
   18CHTO   H87 7441   6.307   8.201   1.282 -1.2494  0.2466 -0.5925
   18CHTO    N8 7442   6.143   8.120   1.370  0.0713  0.3748  0.2386
   18CHTO   H75 7443   6.090   8.162   1.286  0.9032  0.0630 -0.4470
   18CHTO   H76 7444   6.186   8.022   1.354 -0.8339  0.1006 -0.5747
   18CHTO   C43 7445   6.236   8.363   1.410 -0.3071  0.3598  0.1696
   18CHTO   H85 7446   6.176   8.396   1.326 -0.1898 -2.4727 -1.0915
   18CHTO   O29 7447   6.359   8.439   1.426  1.0485  0.0007  0.0288
   18CHTO   C50 7448   6.463   8.384   1.506  0.1494  0.4031 -0.3540
   18CHTO   H92 7449   6.561   8.430   1.489  0.0888  2.0356  3.3291
   18CHTO   C54 7450   6.438   8.420   1.658  0.0429  0.2429  0.4185
   18CHTO   O36 7451   6.554   8.380   1.734  0.1526  0.5035 -0.1972
   18CHTO   H72 7452   6.562   8.419   1.819 -0.8003  0.9303 -0.3008
   18CHTO   O27 7453   6.154   8.374   1.524  0.1451  0.2258  0.2708
   18CHTO   C37 7454   6.069   8.476   1.581  0.4576 -0.0029  0.0761
   18CHTO   H79 7455   6.078   8.480   1.690 -0.3367 -0.1335  0.1482
   18CHTO   C38 7456   6.101   8.613   1.527 -0.2093  0.0044  0.1961
   18CHTO   H80 7457   6.111   8.606   1.417 -0.7891 -0.0331  0.1455
   18CHTO   O31 7458   6.240   8.642   1.563  0.0042 -0.1559 -0.0166
   18CHTO   H68 7459   6.296   8.637   1.488 -1.7451  0.3160 -1.3903
   18CHTO   C39 7460   5.994   8.716   1.572  0.0834  0.0294  0.6799
   18CHTO   H81 7461   5.986   8.715   1.681 -0.1316 -1.1688  0.6524
   18CHTO    N7 7462   6.026   8.858   1.522  0.9299  0.2223  0.8094
   18CHTO   H73 7463   5.969   8.932   1.576  4.3097  2.5652  1.3191
   18CHTO   H74 7464   5.987   8.859   1.421  4.6610 -0.4357 -0.7249
   18CHTO   C40 7465   5.857   8.667   1.524  0.0986 -0.3140 -0.3554
   18CHTO   H82 7466   5.851   8.666   1.415  0.8911 -1.1320 -0.4003
   18CHTO   O26 7467   5.824   8.540   1.583 -0.2584 -0.4975 -0.0493
   18CHTO   C41 7468   5.922   8.437   1.545  0.0263  0.1069 -0.2566
   18CHTO   H83 7469   5.904   8.401   1.443 -2.0771 -1.1420  0.5255
   18CHTO   C52 7470   5.878   8.324   1.642  0.1391 -0.3124 -0.5394
   18CHTO   O35 7471   5.765   8.278   1.633  0.3626 -0.1481 -0.0314
   18CHTO   H71 7472   5.747   8.229   1.711  1.4424 -1.4303 -0.5639
   18CHTO   O28 7473   5.751   8.761   1.572  0.5444  0.6126 -0.1763
   18CHTO   C42 7474   5.613   8.741   1.604 -0.6812 -0.3482  0.5787
   18CHTO   H84 7475   5.578   8.839   1.637  0.5344  0.9102 -1.7682
   18CHTO   C44 7476   5.573   8.645   1.709  0.0293  0.1900 -0.7993
   18CHTO   H86 7477   5.603   8.544   1.684 -2.5057 -1.4815  2.4035
   18CHTO   O32 7478   5.666   8.675   1.818  0.4452 -0.2947 -0.9940
   18CHTO   H69 7479   5.624   8.747   1.861  0.3634 -0.6412 -0.4869
   18CHTO   C48 7480   5.413   8.653   1.743  0.0951  0.0775 -0.3575
   18CHTO   H90 7481   5.386   8.755   1.769 -1.0366 -0.6997  1.5768
   18CHTO    N9 7482   5.372   8.569   1.865  0.5714  0.4850  0.2571
   18CHTO   H77 7483   5.436   8.582   1.951  1.4223  0.3264 -0.3523
   18CHTO   H78 7484   5.372   8.463   1.844  1.1494  0.3645  0.8472
   18CHTO   C51 7485   5.335   8.614   1.609  0.5222 -0.1820 -0.2622
   18CHTO   H93 7486   5.356   8.513   1.573 -2.0836 -0.8368 -0.0274
   18CHTO   O30 7487   5.376   8.714   1.525 -0.8230  0.1463  0.3233
   18CHTO   C46 7488   5.534   8.704   1.474 -0.9492 -0.6185  0.2318
   18CHTO   H88 7489   5.568   8.608   1.435  0.7448 -0.3919  1.1553
   18CHTO   C53 7490   5.559   8.809   1.363 -0.2359 -0.0605 -0.2040
   18CHTO   O72 7491   5.506   8.772   1.235 -0.0751 -0.5914 -0.6063
   18CHTO  H199 7492   5.481   8.848   1.186 -2.0624 -0.7110  0.1934
   18CHTO   O22 7493   5.190   8.626   1.604  0.0608 -0.3846 -0.3554
   18CHTO   C31 7494   5.099   8.590   1.492  0.3011 -0.3690  0.4383
   18CHTO   H59 7495   4.996   8.596   1.533  1.0264 -0.9444  2.4348
   18CHTO   C29 7496   5.103   8.702   1.382 -0.3550  0.6982  0.4174
   18CHTO   H57 7497   5.209   8.708   1.353 -0.9587  0.2208 -1.9556
   18CHTO   O21 7498   5.069   8.829   1.444  0.1578 -0.0531 -1.1770
   18CHTO   H37 7499   4.981   8.824   1.476  0.9725  0.0942  1.1814
   18CHTO   C27 7500   5.013   8.675   1.254  1.0077  0.0726  0.8467
   18CHTO   H55 7501   4.908   8.663   1.284  0.5696  0.3752 -0.5086
   18CHTO    N5 7502   5.028   8.779   1.149 -0.5889  0.1043  0.1782
   18CHTO   H43 7503   4.934   8.833   1.143 -0.4801  0.0252 -2.7541
   18CHTO   H44 7504   5.044   8.731   1.053  2.1486  0.6126  0.3325
   18CHTO   C25 7505   5.064   8.541   1.197  0.4828  0.0672  0.3990
   18CHTO   H53 7506   5.171   8.545   1.172 -0.0144  1.9771 -1.5962
   18CHTO   O17 7507   5.049   8.442   1.300 -0.5306 -0.0051  0.2577
   18CHTO   C32 7508   5.116   8.449   1.427  0.2208 -0.1339 -0.5028
   18CHTO   H60 7509   5.222   8.428   1.413  0.6580  0.2627  1.9299
   18CHTO   C36 7510   5.055   8.344   1.521  0.3781  0.3152  0.2998
   18CHTO   O25 7511   5.152   8.331   1.628 -0.1485  0.5766  0.2398
   18CHTO   H40 7512   5.106   8.336   1.709 -1.4208 -0.4964 -0.3938
   18CHTO   O15 7513   4.985   8.486   1.079 -0.5812 -0.3030 -0.4367
   18CHTO   C19 7514   5.030   8.420   0.950 -0.0759 -0.1735  0.6059
   18CHTO   H47 7515   4.943   8.365   0.911 -0.0669  1.7347 -2.3083
   18CHTO   C20 7516   5.082   8.517   0.841 -0.8717 -0.3866 -0.1262
   18CHTO   H48 7517   5.160   8.584   0.880 -3.0190  0.7412  2.4447
   18CHTO   O19 7518   4.969   8.601   0.804  0.4339 -0.5677 -0.0960
   18CHTO   H35 7519   4.996   8.682   0.765  2.4487 -0.8975  0.5588
   18CHTO   C21 7520   5.143   8.448   0.705 -0.3700 -0.2274 -0.2079
   18CHTO   H49 7521   5.067   8.387   0.655  1.1982 -2.2468 -0.2017
   18CHTO    N4 7522   5.190   8.551   0.603 -0.1584 -0.2519 -0.0275
   18CHTO   H41 7523   5.110   8.616   0.570  0.4784 -0.9612 -3.1591
   18CHTO   H42 7524   5.265   8.610   0.654 -0.1941 -1.5501  1.5858
   18CHTO   C22 7525   5.247   8.345   0.761 -0.0136 -0.2673 -0.2858
   18CHTO   H50 7526   5.325   8.399   0.815 -0.9949  1.0144 -0.1125
   18CHTO   O14 7527   5.177   8.256   0.849  0.1799  0.1726 -0.0201
   18CHTO   C23 7528   5.136   8.312   0.977  0.0682 -0.2292  0.1188
   18CHTO   H51 7529   5.220   8.356   1.034  2.2987 -2.2698 -1.5215
   18CHTO   C34 7530   5.074   8.197   1.055  0.2501  0.4931  0.1023
   18CHTO   O23 7531   5.166   8.086   1.076  0.3371 -0.5407 -0.0474
   18CHTO   H38 7532   5.154   8.069   1.167 -0.5917  0.0627 -0.0481
   18CHTO   O16 7533   5.296   8.257   0.658  0.1350  0.9830  0.3283
   18CHTO   C24 7534   5.437   8.314   0.585 -0.6458  0.5437  0.1362
   18CHTO   H52 7535   5.456   8.419   0.606  2.7640 -0.2099  1.1916
   18CHTO   C26 7536   5.421   8.295   0.436  0.4448  0.0733 -0.4961
   18CHTO   H54 7537   5.363   8.201   0.420  1.6882 -0.4632 -1.9533
   18CHTO   O20 7538   5.345   8.400   0.372  0.3461  0.3922 -0.2468
   18CHTO   H36 7539   5.321   8.373   0.286 -0.3833 -1.8789  0.6197
   18CHTO   C30 7540   5.550   8.274   0.344  0.1343 -0.3852 -0.0804
   18CHTO   H58 7541   5.606   8.368   0.329  0.4219 -0.5137  0.1847
   18CHTO    N6 7542   5.518   8.223   0.206  0.0719  0.9332 -0.8395
   18CHTO   H45 7543   5.548   8.297   0.134  0.4562 -0.7569 -2.4539
   18CHTO   H46 7544   5.567   8.128   0.186  1.8273  0.6199  4.0397
   18CHTO   C33 7545   5.652   8.182   0.419 -0.0747  0.1181  0.2606
   18CHTO   H61 7546   5.602   8.085   0.429  0.2570 -0.2278 -1.3107
   18CHTO   O18 7547   5.672   8.245   0.553  0.3048  0.2967 -0.1642
   18CHTO   C28 7548   5.559   8.233   0.645 -0.4819 -0.1273  0.2431
   18CHTO   H56 7549   5.526   8.129   0.658  2.5648 -1.8479 -4.3786
   18CHTO   C35 7550   5.615   8.290   0.780  0.3481 -0.0312  0.0906
   18CHTO   O24 7551   5.720   8.206   0.837  0.0887 -0.3550  0.1020
   18CHTO   H39 7552   5.809   8.236   0.831  0.3888 -1.6799 -2.9651
   18CHTO    O9 7553   5.773   8.170   0.343 -0.1765 -0.0133 -0.4860
   18CHTO   C13 7554   5.859   8.048   0.399 -0.6204  0.1100  0.2412
   18CHTO   H26 7555   5.786   7.965   0.404 -1.4943  0.8100 -0.8102
   18CHTO   C11 7556   5.917   8.082   0.546 -0.2216 -0.4570  0.3868
   18CHTO   H24 7557   5.839   8.113   0.618 -1.4300  2.3662 -2.0074
   18CHTO    O8 7558   5.991   8.208   0.541  0.0306 -0.4565 -0.4492
   18CHTO    H3 7559   6.021   8.233   0.627  0.0241 -0.5165 -0.4293
   18CHTO    C9 7560   6.003   7.960   0.593 -0.0600  0.1405  0.7158
   18CHTO   H22 7561   5.934   7.874   0.581  2.1547 -1.3438 -2.0174
   18CHTO    N2 7562   6.044   7.969   0.736 -0.1929  0.3470  0.2285
   18CHTO   H10 7563   5.971   8.020   0.796 -0.3108 -1.6801  1.8993
   18CHTO   H11 7564   6.139   8.018   0.750 -0.4557  0.4647  1.6358
   18CHTO    C7 7565   6.120   7.933   0.491 -0.7610 -0.1108 -0.8032
   18CHTO   H20 7566   6.167   7.835   0.512  1.6613  1.0768 -0.5600
   18CHTO    O4 7567   6.074   7.917   0.352 -0.8579  0.8739  0.0613
   18CHTO   C14 7568   5.972   8.007   0.300  0.6170 -0.5323  0.1460
   18CHTO   H27 7569   5.927   7.945   0.219 -1.7217  1.9709 -0.5296
   18CHTO   C18 7570   6.041   8.137   0.231  0.4736  0.3011 -0.9886
   18CHTO   O13 7571   6.135   8.098   0.130  0.2740 -0.4540 -0.5328
   18CHTO    H7 7572   6.096   8.054   0.056 -5.2489  1.4871  0.9454
   18CHTO    O2 7573   6.221   8.041   0.500 -0.6318  0.2916  0.6090
   18CHTO    C1 7574   6.354   8.026   0.453  1.0421 -0.1233 -0.2493
   18CHTO   H14 7575   6.345   8.045   0.344 -0.4541  1.4180  0.1234
   18CHTO    C2 7576   6.419   7.882   0.470 -0.3268  0.5060  0.3267
   18CHTO   H15 7577   6.404   7.851   0.574 -0.8322  0.5429  0.2625
   18CHTO    O6 7578   6.350   7.799   0.378  0.1980 -0.5451 -0.3842
   18CHTO    H1 7579   6.401   7.721   0.364 -0.0150 -0.5921 -0.9195
   18CHTO    C3 7580   6.578   7.887   0.441  0.0670 -0.2162 -0.3631
   18CHTO   H16 7581   6.591   7.914   0.335  1.1601  2.1175  0.3418
   18CHTO    N1 7582   6.644   7.750   0.450  0.1259  0.8280 -0.4079
   18CHTO    H8 7583   6.749   7.766   0.430  0.4795 -0.7860  0.1309
   18CHTO    H9 7584   6.633   7.701   0.546  0.2119  0.6565 -0.4868
   18CHTO    C4 7585   6.642   8.003   0.516  0.3111  0.0859 -0.3851
   18CHTO   H17 7586   6.643   7.981   0.623  1.4915  1.3550 -0.1263
   18CHTO    O1 7587   6.571   8.127   0.480  0.2806 -0.6254 -0.2154
   18CHTO    C5 7588   6.430   8.140   0.524  0.1901 -0.3467 -0.1105
   18CHTO   H18 7589   6.424   8.129   0.632 -0.3695 -0.2430 -0.1316
   18CHTO   C16 7590   6.392   8.285   0.490  0.4965 -0.4595 -0.5378
   18CHTO   O11 7591   6.461   8.383   0.576 -0.7166  0.3062  0.2599
   18CHTO    H5 7592   6.454   8.363   0.667 -2.5459 -0.6297 -0.0492
   18CHTO    O3 7593   6.775   8.036   0.471  0.2338  0.3199 -0.1840
   18CHTO    C6 7594   6.877   8.063   0.572  0.2219  0.5274 -0.0579
   18CHTO   H19 7595   6.840   8.063   0.674 -0.6815 -0.6173 -0.3781
   18CHTO    C8 7596   6.991   7.956   0.552  0.3895 -0.3914  0.4400
   18CHTO   H21 7597   7.017   7.963   0.447  0.8338  1.2511  0.6346
   18CHTO    O7 7598   6.934   7.827   0.578 -0.6161 -0.1954  0.1878
   18CHTO    H2 7599   6.994   7.762   0.549 -2.0540 -0.2702 -2.7830
   18CHTO   C12 7600   7.125   7.997   0.633  0.7035  0.4702 -0.2471
   18CHTO   H25 7601   7.094   7.993   0.740  0.1165  1.4561 -0.3665
   18CHTO    N3 7602   7.233   7.895   0.616 -0.5542 -0.0569  0.3334
   18CHTO   H12 7603   7.245   7.862   0.718  0.0099  0.8828  0.5872
   18CHTO   H13 7604   7.318   7.941   0.567  0.1507 -1.6299  0.0801
   18CHTO   C15 7605   7.169   8.140   0.604 -0.3678  0.2686 -0.4001
   18CHTO   H28 7606   7.201   8.154   0.501  0.3911  1.1308 -0.0436
   18CHTO   O10 7607   7.278   8.184   0.702  0.1000  0.2154 -0.1819
   18CHTO    H4 7608   7.241   8.197   0.787  2.3322 -1.0179  1.0327
   18CHTO    O5 7609   7.054   8.220   0.635  0.1735 -0.2418  0.1878
   18CHTO   C10 7610   6.944   8.201   0.544 -0.4484 -0.2085 -0.5487
   18CHTO   H23 7611   6.990   8.202   0.445  0.2649  0.0042 -0.2230
   18CHTO   C17 7612   6.854   8.318   0.567 -0.6819  0.2819  0.3791
   18CHTO   O12 7613   6.889   8.424   0.477  0.0530 -0.5591  0.0676
   18CHTO    H6 7614   6.855   8.505   0.509 -2.1507 -2.0695  1.7566
   19CHTO  H203 7615   5.263   9.763   2.304  0.9093  2.1203  0.7497
   19CHTO   O82 7616   5.323   9.749   2.234  0.0769  0.0591  0.4005
   19CHTO  C123 7617   5.309   9.611   2.204 -0.2205 -0.4787  0.4650
   19CHTO  H227 7618   5.231   9.604   2.127 -0.5458  1.4300  0.5985
   19CHTO   O77 7619   5.439   9.567   2.142  0.5052  0.1474  0.0526
   19CHTO  C118 7620   5.439   9.434   2.097 -0.9420 -0.4013  0.9467
   19CHTO  H222 7621   5.362   9.413   2.022 -1.6372 -0.0150  1.5503
   19CHTO  C125 7622   5.580   9.413   2.039  0.1203 -0.2520 -0.0042
   19CHTO   O84 7623   5.629   9.504   1.934  0.1492  0.0923 -0.3412
   19CHTO  H205 7624   5.687   9.457   1.877 -0.0346  1.4000 -1.6215
   19CHTO  C114 7625   5.415   9.339   2.217  0.3018 -0.4692  0.4037
   19CHTO  H218 7626   5.487   9.363   2.295 -0.5511 -3.1759  2.1043
   19CHTO  C116 7627   5.286   9.374   2.286 -0.1153  0.1531  0.0617
   19CHTO  H220 7628   5.206   9.362   2.211 -0.5258 -0.2479  0.5607
   19CHTO   O79 7629   5.254   9.274   2.386  0.0917  0.2909 -0.1936
   19CHTO  H201 7630   5.287   9.293   2.472 -0.2184 -2.4683  0.5797
   19CHTO  C120 7631   5.278   9.524   2.333  0.6709  0.5462  0.7661
   19CHTO  H224 7632   5.367   9.543   2.396 -0.0345  0.7687  1.7224
   19CHTO   N21 7633   5.150   9.562   2.405  0.3504 -0.3532 -0.8785
   19CHTO  H211 7634   5.132   9.668   2.398  0.1112 -0.4324 -1.5141
   19CHTO  H212 7635   5.135   9.514   2.500 -1.7863 -2.6034 -2.2680
   19CHTO   O75 7636   5.424   9.209   2.164 -0.4463  0.0156 -0.1892
   19CHTO  C112 7637   5.515   9.097   2.267 -0.5087  0.2698 -0.2200
   19CHTO  H216 7638   5.505   9.123   2.374  1.6681 -3.2908  0.9516
   19CHTO   O73 7639   5.654   9.105   2.225  0.1840 -0.8089  0.8327
   19CHTO  C113 7640   5.737   9.013   2.292  0.1029  0.5272 -0.0098
   19CHTO  H217 7641   5.730   9.037   2.400  0.5626 -2.0629  0.6407
   19CHTO  C124 7642   5.878   9.047   2.239  0.0210 -0.3176  0.5995
   19CHTO   O83 7643   5.896   9.016   2.102  0.0539  0.6109 -0.3283
   19CHTO  H204 7644   5.875   8.925   2.090 -0.1173  0.5353  0.5451
   19CHTO  C109 7645   5.701   8.864   2.247 -0.0499 -0.0295 -0.0043
   19CHTO  H213 7646   5.702   8.862   2.137 -0.2396  0.3260 -0.0143
   19CHTO  C110 7647   5.554   8.838   2.292  0.2822  0.0705 -0.0400
   19CHTO  H214 7648   5.552   8.836   2.401 -0.7418  1.2225 -0.0238
   19CHTO   O78 7649   5.523   8.710   2.255 -0.4390  0.3985  0.0259
   19CHTO  H200 7650   5.448   8.702   2.199  1.1071 -0.5344 -1.9477
   19CHTO  C111 7651   5.456   8.948   2.240  0.3349 -0.6886  0.1221
   19CHTO  H215 7652   5.453   8.943   2.130 -1.3734  0.0598  0.1220
   19CHTO   N19 7653   5.312   8.931   2.283  0.7370 -0.1534 -0.7976
   19CHTO  H207 7654   5.244   8.979   2.214 -1.2789 -0.5696  0.8462
   19CHTO  H208 7655   5.290   8.826   2.297  0.7624  0.1076  1.3333
   19CHTO   O74 7656   5.797   8.767   2.300 -0.1056 -0.3354  0.3888
   19CHTO  C115 7657   5.905   8.700   2.180  0.7573  0.8497 -0.0407
   19CHTO  H219 7658   5.863   8.706   2.080  0.0556  1.3287  0.2812
   19CHTO   O76 7659   6.033   8.775   2.173 -0.3468  0.7129 -0.7511
   19CHTO  C122 7660   6.125   8.733   2.078  0.0429  0.3125  1.0438
   19CHTO  H226 7661   6.217   8.784   2.105  0.7479 -0.0604 -0.6296
   19CHTO  C126 7662   6.091   8.782   1.936  0.7604  0.2952  1.1339
   19CHTO   O85 7663   6.200   8.780   1.848  0.0136 -0.1555  0.2553
   19CHTO  H206 7664   6.223   8.867   1.823 -2.0226  0.5408  0.6958
   19CHTO  C121 7665   6.157   8.579   2.076  0.2020 -0.4098  0.2124
   19CHTO  H225 7666   6.194   8.554   1.974 -1.9370  1.2111 -0.9989
   19CHTO   O81 7667   6.259   8.549   2.177 -0.0083 -0.6265  0.6416
   19CHTO  H202 7668   6.339   8.515   2.143  0.9468  0.8486  1.3574
   19CHTO  C119 7669   6.031   8.491   2.102 -0.4913  0.4440 -0.2684
   19CHTO  H223 7670   5.971   8.490   2.011  1.3790  1.7828 -1.5564
   19CHTO  C117 7671   5.936   8.546   2.217  0.7148 -0.4707 -0.1822
   19CHTO  H221 7672   5.983   8.553   2.316 -0.4536  0.6929  0.3062
   19CHTO   N20 7673   5.820   8.458   2.247 -0.0943  0.1888 -0.1974
   19CHTO  H209 7674   5.856   8.363   2.282  1.7868  1.4834  1.5280
   19CHTO  H210 7675   5.744   8.494   2.314  1.6275  1.9438  0.8718
   19CHTO   O80 7676   6.077   8.335   2.119  0.1695  0.1141  0.0129
   19CHTO  C103 7677   6.120   8.241   1.979 -0.2814 -1.1078  0.0582
   19CHTO  H190 7678   6.104   8.301   1.890 -3.3671 -1.7758  0.1107
   19CHTO  C101 7679   6.260   8.181   1.965  0.0538  0.0287 -0.0131
   19CHTO  H188 7680   6.284   8.127   2.056 -2.2723 -1.8367 -0.4379
   19CHTO   O68 7681   6.342   8.302   1.953  0.1651 -0.0799  0.0182
   19CHTO  H168 7682   6.423   8.287   1.998  0.4489  0.5895 -0.2531
   19CHTO   C99 7683   6.264   8.086   1.843  0.2966  0.1689 -0.5304
   19CHTO  H186 7684   6.250   8.143   1.749  0.3470 -0.3722 -0.8680
   19CHTO   N17 7685   6.398   8.022   1.827  0.0084  0.0933  0.1166
   19CHTO  H174 7686   6.412   7.933   1.888 -1.1643 -0.0483  0.2045
   19CHTO  H175 7687   6.478   8.088   1.855  0.3430 -0.4540  0.4726
   19CHTO   C97 7688   6.142   7.985   1.846 -0.5270 -0.0080  0.4230
   19CHTO  H184 7689   6.154   7.910   1.925 -1.7635 -3.3833 -2.4410
   19CHTO   O64 7690   6.021   8.056   1.853  0.2738  0.1837  0.2471
   19CHTO  C104 7691   6.007   8.131   1.972  0.0537 -0.6151 -0.2356
   19CHTO  H191 7692   6.017   8.064   2.057  0.0952  0.0755  0.3004
   19CHTO  C108 7693   5.872   8.198   1.980  0.3158  0.0125 -0.4798
   19CHTO   O71 7694   5.759   8.104   1.963  0.0124 -0.3792  0.1440
   19CHTO  H171 7695   5.717   8.086   2.045 -1.7575  0.7352 -0.4842
   19CHTO   O62 7696   6.141   7.915   1.721  0.1344 -0.2586 -0.1382
   19CHTO   C91 7697   6.058   7.798   1.703  0.1259  0.1024 -0.0626
   19CHTO  H178 7698   6.014   7.769   1.798 -0.3753 -1.9620 -0.8913
   19CHTO   C92 7699   6.159   7.684   1.676 -0.5580  0.6630 -0.0525
   19CHTO  H179 7700   6.213   7.720   1.587 -0.1098 -1.0941 -0.5162
   19CHTO   O66 7701   6.251   7.672   1.781 -0.3914  0.2095  0.3717
   19CHTO  H166 7702   6.333   7.711   1.756 -0.2971 -0.2331 -0.0182
   19CHTO   C93 7703   6.082   7.546   1.637  0.2361  0.2071 -0.1505
   19CHTO  H180 7704   6.040   7.518   1.734  0.4314 -1.6579 -0.5834
   19CHTO   N16 7705   6.159   7.425   1.599 -1.2519  0.2955  0.0358
   19CHTO  H172 7706   6.094   7.340   1.585  0.7550 -1.2942  0.1671
   19CHTO  H173 7707   6.226   7.408   1.682 -1.3153  0.5532  0.1408
   19CHTO   C94 7708   5.957   7.576   1.542 -0.6418 -0.3860  0.6328
   19CHTO  H181 7709   5.990   7.590   1.439 -0.8168  2.4499  0.9136
   19CHTO   O61 7710   5.880   7.679   1.586  0.2716 -0.0404 -0.3824
   19CHTO   C95 7711   5.944   7.806   1.589 -0.3966 -0.0912  0.1385
   19CHTO  H182 7712   5.993   7.829   1.494 -2.2194  1.5638 -0.4467
   19CHTO  C106 7713   5.837   7.915   1.613  0.2642  0.3759 -0.7127
   19CHTO   O69 7714   5.772   7.956   1.492  0.0085 -0.0544  0.7777
   19CHTO  H169 7715   5.681   7.970   1.509  0.2928  1.9564  0.7272
   19CHTO   O63 7716   5.853   7.446   1.537 -0.1345 -0.6763 -0.2999
   19CHTO   C96 7717   5.718   7.441   1.458  0.6905  0.0483  0.0729
   19CHTO  H183 7718   5.752   7.440   1.354  0.5605 -0.5906  0.0356
   19CHTO   C98 7719   5.624   7.562   1.472 -0.9304  0.6085  0.0072
   19CHTO  H185 7720   5.644   7.606   1.571  1.9474 -0.9301  0.1672
   19CHTO   O67 7721   5.677   7.661   1.385 -0.4268 -0.2556  0.4176
   19CHTO  H167 7722   5.737   7.724   1.418 -0.8885  0.5263 -0.2175
   19CHTO  C102 7723   5.470   7.529   1.440 -0.7395 -0.5806 -0.3076
   19CHTO  H189 7724   5.473   7.515   1.331  0.9550 -0.6712 -0.2672
   19CHTO   N18 7725   5.386   7.644   1.458  0.0620 -0.0666  0.3855
   19CHTO  H176 7726   5.285   7.606   1.443  0.1110  0.7071 -2.2017
   19CHTO  H177 7727   5.411   7.710   1.376  0.1708  1.3144  1.5348
   19CHTO  C105 7728   5.430   7.397   1.515  0.0933  0.4969 -0.1612
   19CHTO  H192 7729   5.437   7.417   1.622  0.7726  0.5470 -0.2120
   19CHTO   O65 7730   5.514   7.291   1.472  0.3808  0.5816 -0.2975
   19CHTO  C100 7731   5.657   7.307   1.501  0.1377  0.4069  1.4056
   19CHTO  H187 7732   5.670   7.308   1.610  1.6858 -1.2004  1.2627
   19CHTO  C107 7733   5.746   7.196   1.447 -0.0886  0.0762  0.1454
   19CHTO   O70 7734   5.694   7.063   1.473 -0.1381 -0.4865  0.0941
   19CHTO  H170 7735   5.673   7.055   1.564  1.4569  0.6523  0.5768
   19CHTO   O57 7736   5.272   7.368   1.484 -0.4061 -0.7251  0.2686
   19CHTO   C85 7737   5.209   7.273   1.561  0.1880 -0.0058 -0.7906
   19CHTO  H157 7738   5.272   7.260   1.651  3.2746  2.3198 -2.5111
   19CHTO   C83 7739   5.228   7.135   1.482  0.1606 -0.2870 -0.3759
   19CHTO  H155 7740   5.335   7.114   1.478 -0.0144 -0.9631 -1.9776
   19CHTO   O56 7741   5.190   7.152   1.342  0.3730 -0.2583 -0.8162
   19CHTO  H135 7742   5.098   7.162   1.330  0.5450  0.5490 -1.5084
   19CHTO   C81 7743   5.162   7.016   1.556  0.5910  0.4009 -0.0328
   19CHTO  H153 7744   5.194   7.015   1.660 -1.8095 -0.0388  0.7421
   19CHTO   N14 7745   5.196   6.880   1.501 -0.5722  0.2228 -0.0557
   19CHTO  H141 7746   5.301   6.861   1.504 -0.8086 -1.2589 -0.6262
   19CHTO  H142 7747   5.141   6.811   1.562 -1.5614  2.0664  1.2257
   19CHTO   C79 7748   5.002   7.043   1.564  0.2972  0.5514  0.1075
   19CHTO  H151 7749   4.961   6.964   1.627 -0.5981 -0.4186 -1.6677
   19CHTO   O52 7750   4.977   7.170   1.634 -0.6807 -0.7715 -0.6981
   19CHTO   C86 7751   5.052   7.295   1.596  0.3479  0.1219 -0.2173
   19CHTO  H158 7752   4.994   7.319   1.505  0.1640 -2.5323 -0.8383
   19CHTO   C90 7753   5.029   7.405   1.696 -0.3844  0.3542  0.2003
   19CHTO   O60 7754   5.057   7.533   1.632 -0.0070  0.4191  0.0926
   19CHTO  H138 7755   5.031   7.607   1.684 -1.9929 -0.0245 -0.2130
   19CHTO   O50 7756   4.921   7.048   1.446 -0.3332 -0.4807 -0.2728
   19CHTO   C73 7757   4.802   7.047   1.369 -0.0630 -0.1042 -0.1997
   19CHTO  H145 7758   4.769   6.943   1.353  1.0108 -0.5126  0.1779
   19CHTO   C74 7759   4.821   7.111   1.231 -0.0491 -0.7042 -0.7912
   19CHTO  H146 7760   4.913   7.063   1.193  0.2983  0.7628 -1.8379
   19CHTO   O54 7761   4.705   7.072   1.154  0.2540 -0.6046 -0.0998
   19CHTO  H133 7762   4.639   7.138   1.148  1.3263  0.5960  1.2080
   19CHTO   C75 7763   4.851   7.269   1.243 -0.4833  0.2182  0.1400
   19CHTO  H147 7764   4.948   7.285   1.292 -1.7503  0.3025  2.6806
   19CHTO   N13 7765   4.848   7.337   1.111  0.0099  0.9235  0.1032
   19CHTO  H139 7766   4.883   7.439   1.109 -1.2827  1.3680 -0.1137
   19CHTO  H140 7767   4.907   7.282   1.039 -0.0652  0.1703  0.6120
   19CHTO   C76 7768   4.754   7.332   1.347  0.4244  0.0443  0.1801
   19CHTO  H148 7769   4.653   7.343   1.308  0.4126  1.4803  0.5708
   19CHTO   O49 7770   4.745   7.255   1.474  1.0351  0.1629 -0.0409
   19CHTO   C77 7771   4.693   7.122   1.449  0.3563  0.4104  0.1366
   19CHTO  H149 7772   4.605   7.124   1.385  1.0470 -3.4061 -1.0109
   19CHTO   C88 7773   4.657   7.066   1.588  0.0699 -0.4593  0.0623
   19CHTO   O58 7774   4.533   7.080   1.622 -0.1210 -0.0695 -0.2264
   19CHTO  H136 7775   4.476   7.085   1.547 -0.4309 -1.9066 -0.1259
   19CHTO   O51 7776   4.800   7.435   1.399 -0.2247 -0.3670  0.4528
   19CHTO   C78 7777   4.734   7.590   1.341 -0.4205  0.0385  0.2711
   19CHTO  H150 7778   4.680   7.567   1.246 -1.2393 -0.5096  0.8658
   19CHTO   C80 7779   4.846   7.693   1.314  0.0056 -0.2510  0.6370
   19CHTO  H152 7780   4.906   7.704   1.407  0.3710  1.3989  0.2125
   19CHTO   O55 7781   4.920   7.633   1.210 -0.2592  0.0172 -0.0118
   19CHTO  H134 7782   4.999   7.682   1.199 -0.3769  0.5047  1.2206
   19CHTO   C84 7783   4.791   7.833   1.273  0.1908 -0.1166 -0.3969
   19CHTO  H156 7784   4.741   7.817   1.177 -1.6882  0.2963  0.4824
   19CHTO   N15 7785   4.896   7.941   1.250  1.0749 -0.0292 -0.3101
   19CHTO  H143 7786   4.921   7.970   1.350  0.6592  1.2965 -0.5828
   19CHTO  H144 7787   4.865   8.025   1.191  0.5172 -0.2162 -0.2777
   19CHTO   C87 7788   4.686   7.883   1.368  0.6905  1.0169  0.6904
   19CHTO  H159 7789   4.730   7.926   1.458  0.6085  2.9456 -0.1659
   19CHTO   O53 7790   4.573   7.771   1.392 -0.7095  0.0086 -0.2642
   19CHTO   C82 7791   4.625   7.646   1.436  0.5842  0.0389  0.0045
   19CHTO  H154 7792   4.675   7.649   1.532  1.7021 -1.0112 -0.5420
   19CHTO   C89 7793   4.498   7.549   1.454  0.2215  0.6182  0.1056
   19CHTO   O59 7794   4.412   7.589   1.563  0.6443  0.4609 -0.4107
   19CHTO  H137 7795   4.327   7.618   1.538  0.7238  3.4868  2.5921
   19CHTO   O45 7796   4.604   8.001   1.298  0.0293 -0.0124  0.3480
   19CHTO   C67 7797   4.522   8.068   1.393  0.5912 -0.8540 -0.0233
   19CHTO  H124 7798   4.505   8.004   1.479 -0.1684  1.0645  1.2641
   19CHTO   C65 7799   4.593   8.200   1.447 -0.0970  0.0078 -0.2883
   19CHTO  H122 7800   4.643   8.244   1.361  1.7193  0.2317  0.8611
   19CHTO   O44 7801   4.694   8.154   1.535 -0.1553  0.5819 -0.1620
   19CHTO  H102 7802   4.726   8.219   1.594  1.3194 -0.5403  0.2856
   19CHTO   C63 7803   4.486   8.307   1.502 -0.4370  0.4977  0.8612
   19CHTO  H120 7804   4.449   8.355   1.412  0.2738 -2.5440 -1.1209
   19CHTO   N11 7805   4.537   8.415   1.586  0.0402 -0.4678  0.5820
   19CHTO  H108 7806   4.591   8.485   1.525 -0.2817 -1.5938 -1.0246
   19CHTO  H109 7807   4.457   8.480   1.615  0.0922  0.6227 -1.5910
   19CHTO   C61 7808   4.359   8.234   1.556  0.3813 -0.0466  0.5246
   19CHTO  H118 7809   4.287   8.307   1.594  1.4322  0.5686  1.3448
   19CHTO   O40 7810   4.293   8.155   1.449 -0.1271 -0.0937  0.4152
   19CHTO   C68 7811   4.378   8.095   1.339  0.4392 -0.1044 -0.2979
   19CHTO  H125 7812   4.383   8.167   1.255  0.9333  1.8935  1.4026
   19CHTO   C72 7813   4.310   7.967   1.285  0.0134  0.3416  0.3393
   19CHTO   O48 7814   4.300   7.868   1.390 -0.2113  0.0941 -0.0924
   19CHTO  H105 7815   4.305   7.781   1.355 -1.1405 -0.6774  1.6229
   19CHTO   O38 7816   4.385   8.146   1.671 -0.2647 -0.6914 -0.2084
   19CHTO   C55 7817   4.288   8.052   1.718  0.3122  1.3053  0.3403
   19CHTO  H112 7818   4.261   7.996   1.628 -1.4297  1.1322  0.9449
   19CHTO   C56 7819   4.165   8.120   1.780  0.1841  0.1663  0.1311
   19CHTO  H113 7820   4.197   8.205   1.841  1.5137 -1.3997  1.6675
   19CHTO   O42 7821   4.088   8.181   1.677  1.0109  0.3370  0.6240
   19CHTO  H100 7822   4.078   8.270   1.704  1.5702  0.3241  0.8841
   19CHTO   C57 7823   4.073   8.015   1.854 -0.1658 -0.7756  0.1796
   19CHTO  H114 7824   4.020   7.957   1.778 -0.0119 -2.7130  1.4984
   19CHTO   N10 7825   3.975   8.082   1.944 -0.2721  0.1649 -0.4648
   19CHTO  H106 7826   3.938   8.170   1.894  1.0904  0.9833 -0.0657
   19CHTO  H107 7827   3.891   8.018   1.968  0.8238 -2.1579 -2.6223
   19CHTO   C58 7828   4.153   7.912   1.937  0.0932  0.1684 -0.3532
   19CHTO  H115 7829   4.182   7.967   2.029 -1.1536  2.0434 -1.0513
   19CHTO   O37 7830   4.262   7.855   1.866  0.1340  0.3300  0.1060
   19CHTO   C59 7831   4.357   7.954   1.825 -0.0794  1.1054  0.1232
   19CHTO  H116 7832   4.387   8.008   1.914  0.4883 -0.1886  0.7421
   19CHTO   C70 7833   4.478   7.873   1.758  0.1175  0.3753 -0.4534
   19CHTO   O46 7834   4.585   7.962   1.708  0.3216  0.7499 -0.8600
   19CHTO  H103 7835   4.573   8.042   1.661 -0.8747  0.3923 -1.1958
   19CHTO   O39 7836   4.060   7.772   1.969 -0.0821  0.6237 -0.1648
   19CHTO   C60 7837   4.081   7.654   1.889 -0.2487 -0.9375  0.1771
   19CHTO  H117 7838   4.109   7.683   1.787 -0.8185  0.4200  0.4005
   19CHTO   C62 7839   4.195   7.567   1.947 -0.7301 -0.1759  0.5294
   19CHTO  H119 7840   4.281   7.636   1.936 -1.4100  0.7042  0.7468
   19CHTO   O43 7841   4.176   7.535   2.088 -0.3743 -0.5588  0.0632
   19CHTO  H101 7842   4.138   7.602   2.142 -0.6675 -1.3722  0.8825
   19CHTO   C66 7843   4.220   7.442   1.850 -0.6811 -0.8969  0.4510
   19CHTO  H123 7844   4.252   7.477   1.752  2.6318  1.3382  2.2471
   19CHTO   N12 7845   4.334   7.355   1.897 -0.2925 -0.9551 -0.2586
   19CHTO  H110 7846   4.290   7.323   1.990  0.8622 -0.3237  0.5076
   19CHTO  H111 7847   4.334   7.272   1.828  1.1897 -3.1817  2.3373
   19CHTO   C69 7848   4.089   7.359   1.833 -0.0149  0.5809  0.3746
   19CHTO  H126 7849   4.070   7.296   1.922 -0.4004  0.3282  0.1143
   19CHTO   O41 7850   3.947   7.450   1.807  0.7777 -0.2397  0.1195
   19CHTO   C64 7851   3.948   7.577   1.888  0.5616  0.3108 -0.0917
   19CHTO  H121 7852   3.922   7.557   1.994 -1.8249  1.6918 -0.3936
   19CHTO   C71 7853   3.837   7.667   1.834  0.4378 -0.1924 -0.5629
   19CHTO   O47 7854   3.705   7.630   1.871 -0.4361 -0.1736 -0.1244
   19CHTO  H104 7855   3.647   7.701   1.851 -1.3963 -0.0865  2.7776
   19CHTO   O34 7856   4.095   7.269   1.699  0.8404  0.4836  0.4021
   19CHTO   C49 7857   4.023   7.293   1.581  0.0637  0.4885 -0.1981
   19CHTO   H91 7858   3.919   7.281   1.611  0.4917 -2.0662  0.3275
   19CHTO   C47 7859   4.046   7.175   1.482  0.0703 -0.1410  0.1416
   19CHTO   H89 7860   3.981   7.185   1.393 -0.5429  0.3618  0.6416
   19CHTO   O33 7861   3.998   7.055   1.556 -0.4293  0.5024 -0.6664
   19CHTO   H70 7862   3.976   6.993   1.489  1.5409 -0.9505 -0.0240
   19CHTO   C45 7863   4.194   7.184   1.425 -0.9098 -1.1572  0.7240
   19CHTO   H87 7864   4.268   7.183   1.506  0.1753 -0.8935 -0.2567
   19CHTO    N8 7865   4.218   7.060   1.342 -0.2015  0.3612 -0.2010
   19CHTO   H75 7866   4.230   6.990   1.422  0.7156  1.5180  0.6892
   19CHTO   H76 7867   4.132   7.037   1.280 -3.8474  4.1835  3.1406
   19CHTO   C43 7868   4.215   7.320   1.348 -0.1014  0.5013 -0.0762
   19CHTO   H85 7869   4.315   7.330   1.307  0.9432 -1.8366  1.7637
   19CHTO   O29 7870   4.184   7.423   1.445 -0.2700 -0.0819  0.2885
   19CHTO   C50 7871   4.058   7.434   1.514 -0.0342  0.3349  0.4029
   19CHTO   H92 7872   4.071   7.505   1.597  0.2177 -0.5934  1.1676
   19CHTO   C54 7873   3.936   7.489   1.429 -0.4539 -0.1408  0.0235
   19CHTO   O36 7874   3.952   7.630   1.405  0.0090  1.1146  0.4367
   19CHTO   H72 7875   3.928   7.680   1.480 -1.7148  0.8168  0.1173
   19CHTO   O27 7876   4.132   7.330   1.232  0.3389  0.8464  0.2771
   19CHTO   C37 7877   4.157   7.375   1.096 -0.0945 -0.1391 -0.3558
   19CHTO   H79 7878   4.109   7.313   1.019  0.0268 -0.1125 -0.4527
   19CHTO   C38 7879   4.080   7.514   1.079 -0.3170  0.4519 -0.5387
   19CHTO   H80 7880   4.102   7.578   1.165 -0.4445  1.6079 -1.3604
   19CHTO   O31 7881   3.935   7.498   1.081  0.4378 -0.7175 -0.5022
   19CHTO   H68 7882   3.901   7.411   1.089 -3.1890  0.5217 -1.0891
   19CHTO   C39 7883   4.121   7.592   0.960 -0.1901 -0.8612  0.7960
   19CHTO   H81 7884   4.080   7.563   0.863  1.4018  1.6708 -0.7008
   19CHTO    N7 7885   4.079   7.733   0.963 -0.4430 -0.0452  0.2632
   19CHTO   H73 7886   4.063   7.766   0.862  1.2781 -2.4026 -0.8141
   19CHTO   H74 7887   4.148   7.792   1.021  0.6547 -0.3250 -0.7428
   19CHTO   C40 7888   4.275   7.594   0.942 -0.5426  0.1192  0.2471
   19CHTO   H82 7889   4.326   7.647   1.022 -0.2797 -3.4981  2.5838
   19CHTO   O26 7890   4.322   7.459   0.931  0.2498 -0.5322 -0.6929
   19CHTO   C41 7891   4.309   7.391   1.052 -0.0658 -0.0134 -0.1632
   19CHTO   H83 7892   4.362   7.454   1.126 -2.5542  1.2293  0.6028
   19CHTO   C52 7893   4.377   7.256   1.040 -0.4659  0.0696 -0.1888
   19CHTO   O35 7894   4.549   7.270   1.034  0.4548 -0.0820 -0.0960
   19CHTO   H71 7895   4.568   7.337   0.971  0.2522 -0.2609 -0.3473
   19CHTO   O28 7896   4.321   7.647   0.813 -0.2721 -0.4703 -0.4947
   19CHTO   C42 7897   4.432   7.750   0.802 -0.0620 -0.4054 -0.5843
   19CHTO   H84 7898   4.422   7.817   0.888 -0.0294  1.0984 -1.7320
   19CHTO   C44 7899   4.426   7.843   0.681 -0.3456  0.5977  0.8238
   19CHTO   H86 7900   4.419   7.785   0.589  2.2348  2.3112 -0.5355
   19CHTO   O32 7901   4.301   7.908   0.697  0.0121  0.0992  0.2093
   19CHTO   H69 7902   4.254   7.896   0.617 -0.7419  1.4644  0.4326
   19CHTO   C48 7903   4.547   7.945   0.662  0.4955 -0.7267  0.6746
   19CHTO   H90 7904   4.549   7.997   0.758 -1.1503 -1.2582  1.0032
   19CHTO    N9 7905   4.527   8.044   0.548 -0.1628 -0.0007 -0.6769
   19CHTO   H77 7906   4.475   8.134   0.580 -0.8654 -0.2225 -1.1703
   19CHTO   H78 7907   4.464   7.999   0.472 -0.3415  1.0464 -1.1583
   19CHTO   C51 7908   4.683   7.866   0.648 -0.9374  0.4234  0.8061
   19CHTO   H93 7909   4.692   7.804   0.559  1.8119  0.3563  1.0624
   19CHTO   O30 7910   4.693   7.787   0.766  0.0693  0.2405  0.1983
   19CHTO   C46 7911   4.576   7.683   0.808 -1.0701  0.0608 -0.1999
   19CHTO   H88 7912   4.584   7.604   0.733 -1.4877 -0.1391 -0.0379
   19CHTO   C53 7913   4.612   7.635   0.942 -0.0540  0.1979 -0.4797
   19CHTO   O72 7914   4.745   7.592   0.949 -0.1827 -0.0566  0.4129
   19CHTO  H199 7915   4.765   7.538   1.023  0.7162  0.5659  0.6328
   19CHTO   O22 7916   4.806   7.948   0.666 -0.0920 -0.0533  0.0630
   19CHTO   C31 7917   4.942   7.903   0.618 -0.0657  0.0051  0.7863
   19CHTO   H59 7918   4.930   7.797   0.587 -2.5707  1.1301 -2.3579
   19CHTO   C29 7919   4.992   7.982   0.498  0.3108 -0.6558 -0.3452
   19CHTO   H57 7920   4.990   8.091   0.511  0.1748 -0.7631  0.6207
   19CHTO   O21 7921   4.891   7.953   0.403  0.5674 -0.3391  0.8693
   19CHTO   H37 7922   4.875   7.860   0.404  2.4519 -0.6726  1.8515
   19CHTO   C27 7923   5.136   7.931   0.455 -0.8426  0.2777  0.5888
   19CHTO   H55 7924   5.131   7.826   0.423  0.2010 -0.0766  1.5906
   19CHTO    N5 7925   5.181   7.999   0.333  0.1348 -0.3646 -0.4443
   19CHTO   H43 7926   5.244   8.081   0.364 -2.1534  0.9629  0.8103
   19CHTO   H44 7927   5.232   7.939   0.258 -0.2441  0.3816 -1.3179
   19CHTO   C25 7928   5.240   7.944   0.571  0.2870 -0.9969  0.5101
   19CHTO   H53 7929   5.252   8.049   0.599  1.8317 -1.0771  0.1939
   19CHTO   O17 7930   5.181   7.890   0.689  0.2177 -0.5958 -0.7299
   19CHTO   C32 7931   5.045   7.905   0.733  0.5577 -0.2988 -0.5120
   19CHTO   H60 7932   5.044   8.006   0.774 -2.6733 -0.6824  0.5694
   19CHTO   C36 7933   5.006   7.810   0.852  0.1037 -0.1271 -0.1511
   19CHTO   O25 7934   5.003   7.670   0.814 -0.0309  0.3985 -0.9027
   19CHTO   H40 7935   4.923   7.639   0.851 -1.8411  3.4001 -2.1638
   19CHTO   O15 7936   5.401   7.855   0.524 -0.0594 -0.1419  0.3563
   19CHTO   C19 7937   5.456   7.743   0.449  0.4451 -0.4617 -0.1464
   19CHTO   H47 7938   5.383   7.730   0.368 -0.4035 -0.6681  0.6344
   19CHTO   C20 7939   5.590   7.781   0.374 -0.7739 -0.7966  0.1275
   19CHTO   H48 7940   5.665   7.820   0.445  1.2569 -0.3537 -2.1991
   19CHTO   O19 7941   5.554   7.876   0.273 -0.3657  0.4004 -0.1826
   19CHTO   H35 7942   5.637   7.902   0.238 -0.5283 -0.3359 -1.1339
   19CHTO   C21 7943   5.649   7.657   0.294  0.0007 -0.0109 -0.5355
   19CHTO   H49 7944   5.587   7.647   0.205 -0.7863  1.0923 -0.1279
   19CHTO    N4 7945   5.794   7.677   0.256  0.2768  0.2490  0.1256
   19CHTO   H41 7946   5.808   7.761   0.189 -0.8740 -0.9341 -1.6263
   19CHTO   H42 7947   5.845   7.592   0.215  0.5526  0.2172  0.5298
   19CHTO   C22 7948   5.631   7.518   0.369 -0.6165  0.4047 -0.1017
   19CHTO   H50 7949   5.704   7.499   0.448 -1.2515  0.5809  0.5314
   19CHTO   O14 7950   5.500   7.503   0.428  0.0408 -0.0224 -0.1747
   19CHTO   C23 7951   5.462   7.608   0.517 -1.0994  0.7344 -0.3340
   19CHTO   H51 7952   5.540   7.611   0.594 -3.2272  0.7043  1.8503
   19CHTO   C34 7953   5.324   7.561   0.568 -0.0689 -0.2507 -0.0092
   19CHTO   O23 7954   5.292   7.599   0.705  0.0940 -0.4525 -0.3255
   19CHTO   H38 7955   5.277   7.691   0.701  1.4938 -0.2351 -0.9040
   19CHTO   O16 7956   5.632   7.420   0.269  0.1841 -0.2151  0.0735
   19CHTO   C24 7957   5.715   7.295   0.276 -0.2035 -0.4778  1.1609
   19CHTO   H52 7958   5.798   7.300   0.346  0.4165 -1.4866  0.5083
   19CHTO   C26 7959   5.775   7.275   0.138  0.3060 -0.5154 -0.1631
   19CHTO   H54 7960   5.703   7.309   0.061  0.4209  1.6255  0.6481
   19CHTO   O20 7961   5.892   7.370   0.121 -0.4636  0.2313  0.2710
   19CHTO   H36 7962   5.908   7.375   0.029 -0.3797 -0.0493  0.2722
   19CHTO   C30 7963   5.815   7.128   0.111 -0.2176 -0.5894 -0.6505
   19CHTO   H58 7964   5.916   7.112   0.151 -0.4858 -1.8814 -0.4778
   19CHTO    N6 7965   5.821   7.115  -0.038 -0.4007 -0.2099 -0.1178
   19CHTO   H45 7966   5.720   7.125  -0.074 -0.0410  0.2506 -1.0166
   19CHTO   H46 7967   5.881   7.193  -0.084 -2.2218  0.2577 -1.7567
   19CHTO   C33 7968   5.719   7.025   0.171 -0.1943 -0.1532 -0.5431
   19CHTO   H61 7969   5.625   7.035   0.113  0.0058  1.8250 -0.5602
   19CHTO   O18 7970   5.694   7.057   0.310  0.3876  0.4807  0.4862
   19CHTO   C28 7971   5.625   7.179   0.326  0.9667 -0.5189  0.2841
   19CHTO   H56 7972   5.533   7.177   0.267  0.7153 -2.0728  0.7058
   19CHTO   C35 7973   5.597   7.190   0.482  0.7412  0.0206  0.3037
   19CHTO   O24 7974   5.504   7.084   0.523 -0.1234 -0.3474 -0.2821
   19CHTO   H39 7975   5.475   7.076   0.612 -1.4056 -1.2775 -0.7657
   19CHTO    O9 7976   5.765   6.890   0.155  0.0513 -0.5216 -0.0863
   19CHTO   C13 7977   5.629   6.793   0.099 -0.6062  0.2942 -0.5498
   19CHTO   H26 7978   5.575   6.847   0.018  2.0714  1.5111 -1.6277
   19CHTO   C11 7979   5.546   6.768   0.226 -0.0931 -0.1571  0.5055
   19CHTO   H24 7980   5.495   6.855   0.269  0.2229  0.1093  0.3374
   19CHTO    O8 7981   5.625   6.718   0.336 -0.2848  0.1697  0.2318
   19CHTO    H3 7982   5.678   6.645   0.311 -2.6959 -1.2355 -0.9415
   19CHTO    C9 7983   5.444   6.656   0.194  0.6817  0.2483 -0.0189
   19CHTO   H22 7984   5.388   6.683   0.103  0.2306  1.1736  0.5256
   19CHTO    N2 7985   5.340   6.647   0.298  0.1087  0.4468 -0.1821
   19CHTO   H10 7986   5.297   6.742   0.327  0.0114 -0.1875  1.8160
   19CHTO   H11 7987   5.387   6.602   0.384 -0.2219 -1.0832 -0.7817
   19CHTO    C7 7988   5.518   6.518   0.163  0.2727  0.6889  0.2946
   19CHTO   H20 7989   5.472   6.467   0.076 -0.5860  1.2097  0.4443
   19CHTO    O4 7990   5.655   6.537   0.126 -0.1336  0.3010  0.2567
   19CHTO   C14 7991   5.691   6.651   0.047  0.0951  0.2309  0.0782
   19CHTO   H27 7992   5.649   6.629  -0.053  2.6055  0.6338 -1.0985
   19CHTO   C18 7993   5.845   6.643   0.039 -0.0180 -0.5087  0.3964
   19CHTO   O13 7994   5.894   6.535  -0.037 -0.0987 -0.6208 -0.6850
   19CHTO    H7 7995   5.898   6.464   0.025  2.2891 -2.4234 -2.7748
   19CHTO    O2 7996   5.516   6.422   0.285 -0.7419 -0.2350 -0.3012
   19CHTO    C1 7997   5.526   6.283   0.282  0.3476  0.5812 -0.0572
   19CHTO   H14 7998   5.604   6.254   0.209  0.5864 -0.0555  0.4399
   19CHTO    C2 7999   5.389   6.210   0.235  0.0159  0.0738  0.2037
   19CHTO   H15 8000   5.313   6.266   0.292  2.5107  2.5185  1.2775
   19CHTO    O6 8001   5.375   6.235   0.091 -0.0587 -0.2800 -0.0617
   19CHTO    H1 8002   5.312   6.298   0.065 -1.7093 -2.2832 -1.0549
   19CHTO    C3 8003   5.394   6.058   0.274  0.3746 -0.2920  0.1185
   19CHTO   H16 8004   5.455   5.998   0.204  1.4842  0.8220  0.1029
   19CHTO    N1 8005   5.253   6.008   0.271 -0.8417  0.4720  0.2460
   19CHTO    H8 8006   5.251   5.906   0.305 -0.3200 -1.4099 -4.9847
   19CHTO    H9 8007   5.214   6.017   0.171 -1.1025  1.1759  0.4099
   19CHTO    C4 8008   5.463   6.037   0.414 -0.0218 -0.3392 -0.3434
   19CHTO   H17 8009   5.390   6.066   0.490 -1.0998 -2.3920 -0.5769
   19CHTO    O1 8010   5.588   6.096   0.433 -0.0518 -0.0467  0.5922
   19CHTO    C5 8011   5.590   6.237   0.421 -0.0885  0.5886  0.1612
   19CHTO   H18 8012   5.525   6.267   0.502  0.5960 -1.2687  1.4306
   19CHTO   C16 8013   5.740   6.285   0.446  0.1483 -0.7493 -0.6112
   19CHTO   O11 8014   5.736   6.428   0.473  0.0303 -0.7308 -0.5056
   19CHTO    H5 8015   5.811   6.481   0.452 -1.4812  2.1028  0.9615
   19CHTO    O3 8016   5.492   5.898   0.423  0.3797 -0.0507  0.0566
   19CHTO    C6 8017   5.510   5.843   0.565 -0.5630 -0.3894  0.0315
   19CHTO   H19 8018   5.500   5.927   0.634  0.4888  0.6748 -1.0985
   19CHTO    C8 8019   5.398   5.735   0.595  0.3768 -0.2879  0.3804
   19CHTO   H21 8020   5.406   5.655   0.521  0.6864  0.6533 -0.6322
   19CHTO    O7 8021   5.276   5.804   0.581  0.2752  0.2984 -0.1667
   19CHTO    H2 8022   5.261   5.831   0.493  1.6898  2.1368  0.1410
   19CHTO   C12 8023   5.405   5.684   0.743 -0.3494  0.1147 -0.1497
   19CHTO   H25 8024   5.392   5.777   0.801  1.9131 -0.0111  0.6027
   19CHTO    N3 8025   5.306   5.586   0.785  0.2573 -0.5370 -0.8084
   19CHTO   H12 8026   5.307   5.571   0.892 -1.0808 -2.6925 -1.0732
   19CHTO   H13 8027   5.211   5.589   0.733 -0.6065  0.8750  0.8057
   19CHTO   C15 8028   5.555   5.637   0.777  0.4588  0.1155  0.4676
   19CHTO   H28 8029   5.592   5.544   0.734  1.1334 -0.1203  1.5179
   19CHTO   O10 8030   5.584   5.630   0.939 -0.4782 -0.1767 -0.1301
   19CHTO    H4 8031   5.536   5.561   0.980 -0.2875 -0.5247 -0.4842
   19CHTO    O5 8032   5.657   5.734   0.728 -0.1796  0.2569 -0.7620
   19CHTO   C10 8033   5.647   5.772   0.590 -0.1017  0.5562  0.0673
   19CHTO   H23 8034   5.652   5.678   0.535  2.1804 -0.6530  2.1891
   19CHTO   C17 8035   5.772   5.841   0.546 -0.1542  0.3290 -0.5138
   19CHTO   O12 8036   5.784   5.965   0.619  0.3232 -0.5149  0.0734
   19CHTO    H6 8037   5.824   6.036   0.572 -0.2583  0.2592  0.7276
   20CHTO  H203 8038   5.184   1.377   2.104 -2.0869  1.7634 -0.6670
   20CHTO   O82 8039   5.243   1.447   2.123 -0.0408  0.0908 -0.7611
   20CHTO  C123 8040   5.238   1.549   2.014 -0.0853 -0.4781  0.0674
   20CHTO  H227 8041   5.142   1.603   2.011  0.2061 -0.0369 -2.7820
   20CHTO   O77 8042   5.342   1.647   2.050  0.2172  0.5981 -0.3801
   20CHTO  C118 8043   5.382   1.753   1.967  0.8157 -0.6499  0.8711
   20CHTO  H222 8044   5.299   1.823   1.952  0.6216 -1.1847 -0.5877
   20CHTO  C125 8045   5.502   1.825   2.033  0.3731 -0.1666 -0.0472
   20CHTO   O84 8046   5.467   1.892   2.159 -0.1439  0.2887 -0.2689
   20CHTO  H205 8047   5.435   1.829   2.221  3.4117 -3.9473 -2.4174
   20CHTO  C114 8048   5.430   1.684   1.838 -0.3844  0.0449  0.3124
   20CHTO  H218 8049   5.512   1.620   1.871 -0.8742 -0.2870  0.8990
   20CHTO  C116 8050   5.318   1.592   1.779 -0.5768  0.8719  0.0208
   20CHTO  H220 8051   5.227   1.651   1.757 -2.9647 -2.8447 -0.4918
   20CHTO   O79 8052   5.363   1.534   1.658  0.2820 -0.2277  0.0239
   20CHTO  H201 8053   5.440   1.485   1.681  0.8308  0.0758 -1.1202
   20CHTO  C120 8054   5.284   1.481   1.883  0.1115 -0.9716  0.8205
   20CHTO  H224 8055   5.378   1.422   1.891  0.8222  0.0236  0.0191
   20CHTO   N21 8056   5.179   1.387   1.827 -0.4362 -0.1054 -0.3823
   20CHTO  H211 8057   5.186   1.383   1.719  2.2526  0.1876 -0.2524
   20CHTO  H212 8058   5.083   1.428   1.855 -1.2854 -1.6309 -0.9936
   20CHTO   O75 8059   5.464   1.781   1.751 -0.0508 -0.1473  0.0209
   20CHTO  C112 8060   5.587   1.743   1.663  0.5985  0.3042  0.4290
   20CHTO  H216 8061   5.579   1.634   1.659  1.0808  0.2900 -0.1197
   20CHTO   O73 8062   5.708   1.786   1.735 -0.3622 -0.1986 -0.3220
   20CHTO  C113 8063   5.830   1.748   1.678 -0.2045  0.6419 -0.7399
   20CHTO  H217 8064   5.833   1.643   1.643  2.2749 -0.3595  2.3030
   20CHTO  C124 8065   5.937   1.771   1.783  0.9553 -0.5052  0.2854
   20CHTO   O83 8066   6.066   1.714   1.743 -0.1892 -0.0650  0.3019
   20CHTO  H204 8067   6.083   1.626   1.771  0.9586  0.9208  2.8429
   20CHTO  C109 8068   5.844   1.836   1.556  0.6210  0.3166 -0.1658
   20CHTO  H213 8069   5.838   1.940   1.592  1.4359  0.5970 -0.8398
   20CHTO  C110 8070   5.723   1.795   1.458  0.5184  0.1422  0.5678
   20CHTO  H214 8071   5.729   1.689   1.435 -0.9302  0.0138  0.7361
   20CHTO   O78 8072   5.736   1.875   1.340  0.0089  0.2200  0.6882
   20CHTO  H200 8073   5.718   1.827   1.261  0.2614  1.5485 -0.2051
   20CHTO  C111 8074   5.579   1.811   1.522  0.6700 -0.5898  0.0678
   20CHTO  H215 8075   5.566   1.919   1.536  1.1615 -0.3252 -1.3658
   20CHTO   N19 8076   5.467   1.759   1.442 -0.1150  0.2071  0.0803
   20CHTO  H207 8077   5.458   1.814   1.350 -2.1215 -0.6120 -0.2360
   20CHTO  H208 8078   5.373   1.766   1.494 -0.1951  0.8080 -0.1436
   20CHTO   O74 8079   5.977   1.814   1.491  0.5665  0.3975  0.0907
   20CHTO  C115 8080   6.030   1.970   1.422 -0.5501 -0.5366 -0.2802
   20CHTO  H219 8081   5.978   2.055   1.467  0.1701 -0.8480  1.1760
   20CHTO   O76 8082   6.165   1.999   1.463 -0.0672 -0.2599  0.0288
   20CHTO  C122 8083   6.253   1.892   1.420 -0.4443 -0.4482 -0.3595
   20CHTO  H226 8084   6.235   1.802   1.479 -2.1283 -0.1409 -0.3669
   20CHTO  C126 8085   6.395   1.941   1.464 -0.9185  0.1743  0.2563
   20CHTO   O85 8086   6.435   2.070   1.421 -0.1516  0.4763  0.3630
   20CHTO  H206 8087   6.452   2.073   1.328  1.0163  2.0114  0.6035
   20CHTO  C121 8088   6.248   1.860   1.262 -0.7072  0.0664 -0.4749
   20CHTO  H225 8089   6.352   1.865   1.223 -0.0931  1.5904  1.2963
   20CHTO   O81 8090   6.203   1.724   1.250 -0.0325 -1.1164 -0.7030
   20CHTO  H202 8091   6.253   1.688   1.179  1.5284 -0.5042  0.0504
   20CHTO  C119 8092   6.157   1.965   1.193 -0.3877  0.7611 -0.3286
   20CHTO  H223 8093   6.214   2.056   1.208  0.4190  0.2214 -0.1421
   20CHTO  C117 8094   6.020   1.978   1.264 -0.7743 -0.3197 -0.0515
   20CHTO  H221 8095   5.949   1.902   1.231 -2.0125  0.5564  0.6085
   20CHTO   N20 8096   5.946   2.103   1.216 -0.6315  0.9677 -0.2165
   20CHTO  H209 8097   5.839   2.093   1.208 -0.4291 -0.8746 -0.8784
   20CHTO  H210 8098   5.989   2.150   1.128 -3.1479 -0.2597 -2.1584
   20CHTO   O80 8099   6.150   1.958   1.040 -0.0679  0.6035  0.4085
   20CHTO  C103 8100   6.288   1.967   0.948  1.0276 -0.1590 -0.2306
   20CHTO  H190 8101   6.375   1.943   1.010  1.8837 -1.0395 -1.7555
   20CHTO  C101 8102   6.282   1.874   0.820  0.7417 -0.2445  0.5992
   20CHTO  H188 8103   6.181   1.876   0.778  0.7324  2.9243  0.6179
   20CHTO   O68 8104   6.311   1.737   0.874  0.2494  0.4154 -0.3260
   20CHTO  H168 8105   6.334   1.677   0.806  2.8360 -0.9388  1.6605
   20CHTO   C99 8106   6.388   1.916   0.708 -0.3306  1.0782 -0.1627
   20CHTO  H186 8107   6.491   1.894   0.742 -0.3327 -1.9683 -1.9707
   20CHTO   N17 8108   6.377   1.831   0.581  0.3996  0.0699 -0.2088
   20CHTO  H174 8109   6.301   1.869   0.515 -0.2007 -0.0637  0.4089
   20CHTO  H175 8110   6.475   1.836   0.535 -0.1608  0.2423 -1.4186
   20CHTO   C97 8111   6.376   2.072   0.682  0.8859 -0.1265  0.5487
   20CHTO  H184 8112   6.271   2.089   0.656  0.5424 -0.4676  1.7081
   20CHTO   O64 8113   6.409   2.135   0.811  0.2190  0.0644 -0.1687
   20CHTO  C104 8114   6.300   2.124   0.902 -0.4004 -0.4515  0.3631
   20CHTO  H191 8115   6.203   2.153   0.863 -0.2515 -1.0488 -0.4701
   20CHTO  C108 8116   6.338   2.225   1.009 -0.1164  0.3156  0.7085
   20CHTO   O71 8117   6.454   2.186   1.092  0.1213  0.1628  0.4994
   20CHTO  H171 8118   6.422   2.157   1.176  0.2494 -0.6963  0.2537
   20CHTO   O62 8119   6.461   2.122   0.572  0.2160  0.1409 -0.5211
   20CHTO   C91 8120   6.421   2.256   0.529  0.0925  0.0475  0.4885
   20CHTO  H178 8121   6.349   2.298   0.600  0.2876  0.3232  0.5235
   20CHTO   C92 8122   6.338   2.255   0.399  0.6620 -0.7099  0.4369
   20CHTO  H179 8123   6.393   2.195   0.324  1.0339 -1.9548  1.6822
   20CHTO   O66 8124   6.222   2.178   0.418 -0.6986  0.6515  0.2490
   20CHTO  H166 8125   6.198   2.170   0.509 -0.8097 -2.2000 -0.0071
   20CHTO   C93 8126   6.287   2.394   0.342  0.3180 -0.0402  0.3527
   20CHTO  H180 8127   6.212   2.444   0.406 -0.3279  1.9968 -1.9437
   20CHTO   N16 8128   6.236   2.381   0.202  0.5008 -0.0055  1.0811
   20CHTO  H172 8129   6.319   2.390   0.133  1.2982  2.2842  2.3026
   20CHTO  H173 8130   6.164   2.457   0.174  1.5628  0.7359  0.3258
   20CHTO   C94 8131   6.409   2.489   0.352 -0.2630  0.8420  0.2390
   20CHTO  H181 8132   6.480   2.472   0.271  0.8313 -2.4928  1.8499
   20CHTO   O61 8133   6.484   2.482   0.472  0.1660  0.5233  0.0298
   20CHTO   C95 8134   6.540   2.362   0.506 -0.3590 -0.4373  0.5183
   20CHTO  H182 8135   6.620   2.334   0.437  1.0974  2.3574  0.9920
   20CHTO  C106 8136   6.616   2.385   0.641 -0.3035  0.7897 -0.3169
   20CHTO   O69 8137   6.745   2.447   0.625  0.0607  0.4451 -0.1383
   20CHTO  H169 8138   6.782   2.409   0.548 -1.4239 -3.9599  1.1499
   20CHTO   O63 8139   6.350   2.635   0.341  0.3307  0.8613 -0.7432
   20CHTO   C96 8140   6.352   2.714   0.212 -0.3776 -0.1651  0.0974
   20CHTO  H183 8141   6.326   2.649   0.129 -1.4266  0.1872  0.1553
   20CHTO   C98 8142   6.484   2.775   0.163 -0.4029 -0.0126  0.0909
   20CHTO  H185 8143   6.540   2.826   0.243 -2.6206  1.3514  0.8245
   20CHTO   O67 8144   6.570   2.663   0.125 -0.0433  0.0897 -0.3324
   20CHTO  H167 8145   6.545   2.619   0.046 -2.2362 -1.1313  0.9865
   20CHTO  C102 8146   6.456   2.878   0.031  0.0849 -0.3579  0.5525
   20CHTO  H189 8147   6.431   2.811  -0.052  1.4433  0.3834 -0.4825
   20CHTO   N18 8148   6.581   2.944  -0.001  0.2270 -0.2602  0.5473
   20CHTO  H176 8149   6.654   2.865  -0.008 -0.2323 -0.4945 -2.2864
   20CHTO  H177 8150   6.563   2.989  -0.098 -0.1284  0.1939  0.8176
   20CHTO  C105 8151   6.333   2.967   0.047 -0.2734 -0.3528  0.3647
   20CHTO  H192 8152   6.360   3.048   0.113  0.2098 -0.0242 -0.2316
   20CHTO   O65 8153   6.223   2.887   0.096  0.6252 -0.3726 -0.4511
   20CHTO  C100 8154   6.248   2.822   0.219 -0.5238 -0.0093  0.8675
   20CHTO  H187 8155   6.286   2.897   0.290 -2.6315  0.2339  1.7653
   20CHTO  C107 8156   6.115   2.763   0.282  0.2835  0.2457  0.1852
   20CHTO   O70 8157   6.038   2.847   0.366  0.0936  0.2122 -0.1325
   20CHTO  H170 8158   6.001   2.919   0.318 -1.6064 -0.5652 -0.0301
   20CHTO   O57 8159   6.293   3.035  -0.104  0.4206 -0.0331  0.2970
   20CHTO   C85 8160   6.264   3.173  -0.127 -0.4455  0.0074 -0.5344
   20CHTO  H157 8161   6.262   3.200  -0.019  0.5465  2.7334 -1.1640
   20CHTO   C83 8162   6.121   3.177  -0.179 -0.6433  0.0138 -0.1430
   20CHTO  H155 8163   6.058   3.129  -0.104 -0.6442 -0.5297 -0.4879
   20CHTO   O56 8164   6.100   3.097  -0.298  0.8201 -0.4390 -0.8383
   20CHTO  H135 8165   6.013   3.112  -0.329  0.6490 -0.3792 -0.3320
   20CHTO   C81 8166   6.084   3.329  -0.192  0.1784  0.1338  0.6111
   20CHTO  H153 8167   6.096   3.376  -0.094  0.2069  2.8559 -0.6456
   20CHTO   N14 8168   5.938   3.344  -0.219  0.1221 -0.3255 -0.4683
   20CHTO  H141 8169   5.894   3.390  -0.133 -0.0169  1.0062 -1.2339
   20CHTO  H142 8170   5.887   3.252  -0.239 -1.3057  0.3083  0.2090
   20CHTO   C79 8171   6.176   3.405  -0.301 -0.0216  0.4273  0.1288
   20CHTO  H151 8172   6.151   3.512  -0.297 -2.7685 -0.1316 -0.6483
   20CHTO   O52 8173   6.314   3.391  -0.256 -0.0343  0.0126 -0.1734
   20CHTO   C86 8174   6.368   3.264  -0.209  0.4497  0.6509 -0.1106
   20CHTO  H158 8175   6.401   3.208  -0.299  4.6623 -0.9239  2.3329
   20CHTO   C90 8176   6.503   3.287  -0.134 -0.8110  0.2606 -0.4190
   20CHTO   O60 8177   6.478   3.365  -0.017  0.0016  0.0974 -0.0039
   20CHTO  H138 8178   6.449   3.303   0.048 -0.4515 -0.1807 -0.4625
   20CHTO   O50 8179   6.169   3.356  -0.436  0.9709 -0.0282  0.0305
   20CHTO   C73 8180   6.265   3.357  -0.546  0.6334  0.3307 -0.3853
   20CHTO  H145 8181   6.335   3.275  -0.523  0.5314  0.3226 -0.0956
   20CHTO   C74 8182   6.348   3.488  -0.566  0.1651 -0.0390  0.6064
   20CHTO  H146 8183   6.395   3.499  -0.468 -0.3108 -0.2665  0.8632
   20CHTO   O54 8184   6.436   3.462  -0.671  0.5991  0.3424 -0.4572
   20CHTO  H133 8185   6.526   3.458  -0.644  0.5312  0.7635 -0.1663
   20CHTO   C75 8186   6.250   3.610  -0.604  0.1143  0.7583  0.2436
   20CHTO  H147 8187   6.188   3.626  -0.515  0.5587  2.4339  0.2695
   20CHTO   N13 8188   6.319   3.736  -0.649  0.0329  0.9239 -0.3102
   20CHTO  H139 8189   6.394   3.716  -0.724 -0.4179  0.6742 -0.7003
   20CHTO  H140 8190   6.376   3.772  -0.565  0.4055  0.2423 -0.2641
   20CHTO   C76 8191   6.152   3.570  -0.720  0.6648 -0.3944 -0.1319
   20CHTO  H148 8192   6.199   3.575  -0.819 -1.4577 -2.0498 -1.2720
   20CHTO   O49 8193   6.089   3.428  -0.709 -0.4445 -0.3653 -0.6928
   20CHTO   C77 8194   6.185   3.322  -0.681  0.1641 -0.7400 -0.5244
   20CHTO  H149 8195   6.251   3.330  -0.767 -0.0814 -1.7224 -0.8139
   20CHTO   C88 8196   6.134   3.183  -0.672 -0.1104 -0.8954  0.0735
   20CHTO   O58 8197   6.073   3.149  -0.817  0.0980 -0.1975 -0.1589
   20CHTO  H136 8198   6.131   3.157  -0.891 -0.2778 -1.4830 -0.6056
   20CHTO   O51 8199   6.003   3.670  -0.700  0.1470 -0.3424 -0.0525
   20CHTO   C78 8200   5.919   3.656  -0.548 -0.1575 -0.5715 -0.4784
   20CHTO  H150 8201   5.990   3.616  -0.473 -0.7984  1.2924  1.1987
   20CHTO   C80 8202   5.809   3.558  -0.559  0.2715 -0.9388 -0.3886
   20CHTO  H152 8203   5.758   3.573  -0.657  1.7469  0.8575 -0.9153
   20CHTO   O55 8204   5.851   3.422  -0.573  0.4785 -0.3794  0.2216
   20CHTO  H134 8205   5.887   3.395  -0.491  2.2509 -0.3200 -0.5174
   20CHTO   C84 8206   5.702   3.570  -0.440  0.1385 -0.1668 -0.4325
   20CHTO  H156 8207   5.739   3.523  -0.350  1.8428  0.7045 -0.6403
   20CHTO   N15 8208   5.576   3.496  -0.475 -0.3755 -0.1213 -0.1888
   20CHTO  H143 8209   5.602   3.395  -0.499  1.5348 -0.0234  1.3324
   20CHTO  H144 8210   5.523   3.543  -0.556 -1.5175 -0.8966  0.0922
   20CHTO   C87 8211   5.674   3.719  -0.405  0.2624  0.3288 -0.3331
   20CHTO  H159 8212   5.632   3.779  -0.485  0.2795  2.2587  1.0828
   20CHTO   O53 8213   5.810   3.784  -0.374  0.0257  0.1017  0.2620
   20CHTO   C82 8214   5.887   3.800  -0.495  0.3473  0.0785  0.4695
   20CHTO  H154 8215   5.837   3.861  -0.570 -0.3495 -1.3368 -0.2407
   20CHTO   C89 8216   6.022   3.872  -0.460 -0.3670  0.1538  0.2525
   20CHTO   O59 8217   5.996   3.986  -0.376 -0.1647  0.1674  0.5509
   20CHTO  H137 8218   6.049   3.983  -0.299  0.4713 -1.5344  0.0643
   20CHTO   O45 8219   5.566   3.725  -0.257 -0.1343  0.4034 -0.2899
   20CHTO   C67 8220   5.625   3.710  -0.131  0.1845  0.7430  0.2914
   20CHTO  H124 8221   5.708   3.639  -0.132  0.7824  1.4489 -0.8309
   20CHTO   C65 8222   5.675   3.845  -0.065 -0.4849  0.7812 -0.6091
   20CHTO  H122 8223   5.631   3.927  -0.122 -1.1510  0.0133 -1.1972
   20CHTO   O44 8224   5.816   3.857  -0.097  0.1027  0.1629 -0.3001
   20CHTO  H102 8225   5.868   3.781  -0.076 -2.3710 -1.9170 -1.4170
   20CHTO   C63 8226   5.638   3.867   0.092 -0.6359 -0.7740  0.1679
   20CHTO  H120 8227   5.532   3.893   0.101 -0.7544 -2.1808  3.5369
   20CHTO   N11 8228   5.708   3.984   0.152 -0.6688 -0.0916  0.5042
   20CHTO  H108 8229   5.642   4.067   0.162 -1.3204 -0.5230 -0.1186
   20CHTO  H109 8230   5.789   4.015   0.089 -0.4758 -1.8981 -0.1796
   20CHTO   C61 8231   5.636   3.728   0.173 -0.0420  0.0427  0.8280
   20CHTO  H118 8232   5.581   3.744   0.267 -0.3860  0.2175  0.5972
   20CHTO   O40 8233   5.570   3.620   0.100 -1.0082 -0.3394 -0.2595
   20CHTO   C68 8234   5.511   3.644  -0.033 -0.2818 -0.1234  0.4383
   20CHTO  H125 8235   5.426   3.716  -0.023 -0.6360 -0.5561  0.5375
   20CHTO   C72 8236   5.463   3.511  -0.082 -0.1564 -0.1377  0.1729
   20CHTO   O48 8237   5.555   3.412  -0.085  0.5644 -0.3280  0.0644
   20CHTO  H105 8238   5.569   3.377   0.001  1.2122 -0.6399 -0.1662
   20CHTO   O38 8239   5.772   3.677   0.191 -0.0619  0.6223 -0.1248
   20CHTO   C55 8240   5.789   3.622   0.325 -0.2012  0.0425 -0.2475
   20CHTO  H112 8241   5.688   3.618   0.369  0.4098  1.7002  1.3743
   20CHTO   C56 8242   5.889   3.712   0.416  0.0786  0.2357 -0.1465
   20CHTO  H113 8243   5.988   3.690   0.373  0.8468 -0.1637  1.8018
   20CHTO   O42 8244   5.847   3.843   0.407  0.1893 -0.1140 -0.1769
   20CHTO  H100 8245   5.908   3.901   0.449 -0.6768  1.8060 -1.5209
   20CHTO   C57 8246   5.884   3.655   0.563 -0.7087 -0.6372 -0.2791
   20CHTO  H114 8247   5.785   3.669   0.606 -0.9555 -0.8924 -0.7650
   20CHTO   N10 8248   5.973   3.726   0.657 -0.2825 -0.0920 -0.8609
   20CHTO  H106 8249   6.057   3.662   0.680  0.1862  0.8387  0.0250
   20CHTO  H107 8250   5.922   3.755   0.747  0.3250 -0.2993 -0.4506
   20CHTO   C58 8251   5.912   3.498   0.556  0.0557  0.2648  0.7830
   20CHTO  H115 8252   6.014   3.477   0.517 -0.6638  1.3565 -1.7907
   20CHTO   O37 8253   5.815   3.433   0.468 -0.0042  0.4212  0.1838
   20CHTO   C59 8254   5.839   3.475   0.332 -0.2005 -0.4059 -0.1023
   20CHTO  H116 8255   5.946   3.465   0.310 -0.1702 -0.1606 -0.0712
   20CHTO   C70 8256   5.762   3.384   0.233  0.5326 -1.0518 -0.3634
   20CHTO   O46 8257   5.832   3.375   0.111 -0.1054 -0.2225  0.1087
   20CHTO  H103 8258   5.908   3.322   0.123  0.3754  0.7051  1.2214
   20CHTO   O39 8259   5.900   3.425   0.699  0.2649  0.0973 -0.2137
   20CHTO   C60 8260   5.958   3.294   0.702  0.0782  0.2542  0.9273
   20CHTO  H117 8261   5.975   3.254   0.602 -0.4979  1.8387  0.1769
   20CHTO   C62 8262   6.107   3.297   0.752  0.0138 -0.0380  0.1212
   20CHTO  H119 8263   6.164   3.361   0.682 -1.4861 -0.7660 -1.7979
   20CHTO   O43 8264   6.113   3.364   0.877  0.0152  0.4176  0.1291
   20CHTO  H101 8265   6.064   3.444   0.878 -0.9503 -0.1545  0.0536
   20CHTO   C66 8266   6.179   3.152   0.754 -0.0694 -0.5055  0.1190
   20CHTO  H123 8267   6.178   3.113   0.652 -1.8396  1.3489 -0.6230
   20CHTO   N12 8268   6.323   3.157   0.777 -0.1616  0.4545  0.0948
   20CHTO  H110 8269   6.361   3.255   0.754 -1.9106  0.7331 -1.7797
   20CHTO  H111 8270   6.340   3.136   0.881  1.3617  0.6899 -0.0868
   20CHTO   C69 8271   6.095   3.055   0.846 -0.5001  0.1903 -0.0590
   20CHTO  H126 8272   6.099   3.093   0.950 -0.2916  1.1431 -0.4100
   20CHTO   O41 8273   5.944   3.051   0.791  0.7394 -0.3833 -0.3054
   20CHTO   C64 8274   5.875   3.188   0.776  0.4676  0.6475 -0.1851
   20CHTO  H121 8275   5.845   3.234   0.872 -0.2144  1.1536 -0.6331
   20CHTO   C71 8276   5.747   3.158   0.692 -0.6678  0.2068  0.5926
   20CHTO   O47 8277   5.659   3.266   0.716  0.1527 -0.0177  0.8178
   20CHTO  H104 8278   5.576   3.244   0.754 -0.8847  1.5407 -0.5123
   20CHTO   O34 8279   6.152   2.921   0.839  0.3799  0.2250 -0.4907
   20CHTO   C49 8280   6.080   2.780   0.885 -0.9408 -0.8842  0.1943
   20CHTO   H91 8281   6.001   2.751   0.815 -2.4097  2.1561  0.5461
   20CHTO   C47 8282   6.012   2.784   1.022  0.7826  1.2240  0.5536
   20CHTO   H89 8283   5.909   2.819   1.000  0.5692  1.2289  1.5124
   20CHTO   O33 8284   6.081   2.872   1.112 -0.0470  0.1549 -0.0911
   20CHTO   H70 8285   6.174   2.869   1.097  0.0038  0.7838  0.1020
   20CHTO   C45 8286   6.014   2.633   1.083 -0.3705  0.1838  0.6570
   20CHTO   H87 8287   6.102   2.630   1.149 -0.7192  0.0463  1.1138
   20CHTO    N8 8288   5.895   2.605   1.161 -0.2889 -0.0545 -0.3691
   20CHTO   H75 8289   5.807   2.610   1.099 -1.0836 -0.2446  0.7382
   20CHTO   H76 8290   5.898   2.686   1.232  4.3794  0.1688 -0.6670
   20CHTO   C43 8291   6.040   2.511   0.978  0.6432 -0.0450  0.5900
   20CHTO   H85 8292   6.068   2.424   1.038 -0.6991 -0.7284  0.2349
   20CHTO   O29 8293   6.136   2.536   0.873 -0.3260  0.0923 -0.4702
   20CHTO   C50 8294   6.191   2.669   0.876  0.3484  0.5361  0.4870
   20CHTO   H92 8295   6.272   2.676   0.950  1.7683 -0.2649 -0.9701
   20CHTO   C54 8296   6.262   2.681   0.733 -0.0006  0.1461  0.6446
   20CHTO   O36 8297   6.358   2.578   0.721 -0.3592 -0.2807  0.6734
   20CHTO   H72 8298   6.322   2.491   0.717 -0.9013 -0.0842  1.2307
   20CHTO   O27 8299   5.915   2.477   0.909 -0.3553 -0.3276  0.6359
   20CHTO   C37 8300   5.824   2.440   0.804 -0.3882 -0.1517 -0.0323
   20CHTO   H79 8301   5.717   2.430   0.827 -0.2183 -0.7448  0.4947
   20CHTO   C38 8302   5.840   2.551   0.688 -0.3929 -0.0920 -0.0295
   20CHTO   H80 8303   5.948   2.562   0.670 -0.3325 -1.4998 -0.6214
   20CHTO   O31 8304   5.773   2.669   0.731 -0.6820 -0.4706 -0.5424
   20CHTO   H68 8305   5.816   2.704   0.807  0.2225 -2.5290 -0.0808
   20CHTO   C39 8306   5.767   2.497   0.554  0.0766 -0.0527 -0.4537
   20CHTO   H81 8307   5.662   2.505   0.578  0.4536  0.6136  1.0222
   20CHTO    N7 8308   5.784   2.585   0.443 -0.1293  0.1068 -0.5351
   20CHTO   H73 8309   5.821   2.680   0.480 -1.5599  0.1932  0.7173
   20CHTO   H74 8310   5.690   2.611   0.397 -0.6790 -2.1299 -0.7179
   20CHTO   C40 8311   5.806   2.351   0.516  0.3630  0.5911 -0.8632
   20CHTO   H82 8312   5.909   2.349   0.480  0.0530 -0.2437 -1.7228
   20CHTO   O26 8313   5.790   2.270   0.631  0.0340 -0.2739  0.1303
   20CHTO   C41 8314   5.879   2.309   0.747 -0.0608 -0.8317  0.4162
   20CHTO   H83 8315   5.983   2.323   0.718  0.1339 -1.6279  0.7106
   20CHTO   C52 8316   5.868   2.208   0.858  0.6035  0.8797  0.7432
   20CHTO   O35 8317   5.949   2.064   0.807 -0.2191 -0.3751  0.1595
   20CHTO   H71 8318   5.901   2.021   0.739  0.1960 -0.6444  0.0363
   20CHTO   O28 8319   5.708   2.302   0.416 -0.1117  0.3407 -0.0052
   20CHTO   C42 8320   5.738   2.176   0.348 -0.6079 -0.0075  0.2134
   20CHTO   H84 8321   5.654   2.150   0.284 -1.2260  0.1762  0.9371
   20CHTO   C44 8322   5.763   2.048   0.431 -0.0447  0.7281  0.7316
   20CHTO   H86 8323   5.834   2.071   0.510 -0.2229  1.2933  0.7286
   20CHTO   O32 8324   5.640   2.022   0.499 -0.5391 -0.2272 -0.1608
   20CHTO   H69 8325   5.656   1.962   0.569 -1.8550 -0.7652 -0.2952
   20CHTO   C48 8326   5.830   1.932   0.342  0.5500  0.1357 -0.1747
   20CHTO   H90 8327   5.747   1.889   0.286  2.9323 -2.7323 -1.6391
   20CHTO    N9 8328   5.890   1.828   0.432  0.3533  0.3261  0.0303
   20CHTO   H77 8329   5.833   1.800   0.519 -0.6722 -0.6264 -0.9293
   20CHTO   H78 8330   5.888   1.736   0.376 -1.8881 -1.0308  2.2351
   20CHTO   C51 8331   5.944   1.985   0.243  0.1707  0.5839 -0.2685
   20CHTO   H93 8332   6.031   2.019   0.301  0.6068 -2.7194  1.0901
   20CHTO   O30 8333   5.882   2.091   0.164 -0.0366 -0.1954  0.1562
   20CHTO   C46 8334   5.855   2.209   0.248  0.6531 -0.5763 -0.0129
   20CHTO   H88 8335   5.942   2.227   0.311  0.3963 -0.2323  0.2492
   20CHTO   C53 8336   5.824   2.325   0.147  0.4172 -0.4014 -0.9577
   20CHTO   O72 8337   5.941   2.354   0.075  0.1126 -0.3737  0.3187
   20CHTO  H199 8338   5.925   2.424   0.015  0.0119 -0.6741 -0.0079
   20CHTO   O22 8339   5.989   1.892   0.147  0.2135 -0.3203 -0.3058
   20CHTO   C31 8340   6.126   1.875   0.102  1.0814 -0.3480  0.2709
   20CHTO   H59 8341   6.114   1.866  -0.008  1.8019 -1.6525  0.2979
   20CHTO   C29 8342   6.228   1.987   0.117  0.1055  0.2162  0.2751
   20CHTO   H57 8343   6.233   2.008   0.225 -0.0437  0.1452  0.2959
   20CHTO   O21 8344   6.176   2.103   0.045 -0.1079  0.4498 -0.3057
   20CHTO   H37 8345   6.234   2.176   0.050  1.2243 -0.6914  1.6201
   20CHTO   C27 8346   6.368   1.949   0.064 -0.1697  0.6859  0.5738
   20CHTO   H55 8347   6.368   1.920  -0.042  0.0028 -2.1029  1.3163
   20CHTO    N5 8348   6.476   2.048   0.091 -0.8532 -0.3252 -0.3669
   20CHTO   H43 8349   6.438   2.141   0.128  2.6370 -0.5681  4.3556
   20CHTO   H44 8350   6.531   2.067  -0.000  0.7133 -1.3596  0.3279
   20CHTO   C25 8351   6.407   1.814   0.121  0.2495  0.4028  0.0059
   20CHTO   H53 8352   6.421   1.830   0.229 -0.4937  2.1479 -0.1388
   20CHTO   O17 8353   6.305   1.714   0.098  0.2412 -0.0250 -0.1075
   20CHTO   C32 8354   6.184   1.742   0.157 -0.1758  0.3830  0.1869
   20CHTO   H60 8355   6.191   1.756   0.264 -2.4495 -0.4270  0.4709
   20CHTO   C36 8356   6.098   1.614   0.131  0.5709 -0.2115  0.6865
   20CHTO   O25 8357   5.980   1.606   0.212 -0.2431 -0.1688  0.3037
   20CHTO   H40 8358   5.950   1.693   0.229 -0.2999  0.0190 -0.7239
   20CHTO   O15 8359   6.548   1.759   0.058 -0.1364  0.9323  0.3183
   20CHTO   C19 8360   6.660   1.690  -0.012  0.1355 -0.0976  0.2578
   20CHTO   H47 8361   6.611   1.644  -0.099  0.4270 -0.5256  0.3194
   20CHTO   C20 8362   6.781   1.789  -0.043  0.0810  0.1967  0.3738
   20CHTO   H48 8363   6.809   1.844   0.048  1.2641 -2.1219  1.4383
   20CHTO   O19 8364   6.733   1.884  -0.140  0.5856  0.2668  0.1632
   20CHTO   H35 8365   6.665   1.940  -0.109  0.8713  0.1337  1.0570
   20CHTO   C21 8366   6.904   1.722  -0.108 -0.0328  0.1270  0.8308
   20CHTO   H49 8367   6.885   1.714  -0.215  0.2073 -0.1660  0.8096
   20CHTO    N4 8368   7.034   1.799  -0.103 -0.6036 -0.4787  0.6628
   20CHTO   H41 8369   7.056   1.819  -0.000  0.8875 -1.1094  0.4759
   20CHTO   H42 8370   7.034   1.892  -0.157  1.5985  0.3442  2.0386
   20CHTO   C22 8371   6.931   1.582  -0.042 -0.2420 -0.4230  0.5083
   20CHTO   H50 8372   6.986   1.587   0.052  0.1617  3.3172  0.1444
   20CHTO   O14 8373   6.808   1.508  -0.021 -0.2701  0.3687 -0.0830
   20CHTO   C23 8374   6.710   1.575   0.062 -0.1719 -0.0022  0.1579
   20CHTO   H51 8375   6.751   1.603   0.160 -1.2001  0.2590  0.5203
   20CHTO   C34 8376   6.599   1.468   0.080 -0.0607  0.4638 -0.0350
   20CHTO   O23 8377   6.510   1.523   0.173 -0.3766  0.1141  0.5862
   20CHTO   H38 8378   6.470   1.601   0.141  0.2539 -0.0582 -0.6163
   20CHTO   O16 8379   6.997   1.498  -0.144  0.0810  0.0334 -0.5199
   20CHTO   C24 8380   7.108   1.388  -0.086 -0.1419  0.2980  0.2257
   20CHTO   H52 8381   7.074   1.345   0.008  1.2907 -1.7367 -0.1792
   20CHTO   C26 8382   7.251   1.455  -0.064  0.0197 -0.3298 -0.0035
   20CHTO   H54 8383   7.293   1.487  -0.161 -0.4164 -2.7024 -1.0242
   20CHTO   O20 8384   7.236   1.569   0.024 -0.0217  0.5673  0.4505
   20CHTO   H36 8385   7.308   1.560   0.084  1.4193 -3.7597 -1.7381
   20CHTO   C30 8386   7.357   1.343  -0.013 -0.6772 -0.0347  0.4888
   20CHTO   H58 8387   7.329   1.314   0.090  0.6121  0.7929  1.0844
   20CHTO    N6 8388   7.494   1.399  -0.010  0.0368 -0.3421 -0.2357
   20CHTO   H45 8389   7.491   1.506   0.006  0.0357 -0.4586  0.5656
   20CHTO   H46 8390   7.550   1.367   0.076 -0.4818  0.7418  0.5079
   20CHTO   C33 8391   7.347   1.217  -0.108  0.2901  1.2333  0.0600
   20CHTO   H61 8392   7.385   1.250  -0.206  2.1314  3.7678  1.5492
   20CHTO   O18 8393   7.208   1.175  -0.118  0.2042 -0.1198  0.0100
   20CHTO   C28 8394   7.118   1.269  -0.178 -0.4050 -0.0914 -0.0776
   20CHTO   H56 8395   7.161   1.303  -0.272  0.6193  2.2698  1.1899
   20CHTO   C35 8396   6.981   1.205  -0.198 -0.1315 -0.1420 -0.0401
   20CHTO   O24 8397   6.925   1.140  -0.080  0.5549 -0.3681  0.8780
   20CHTO   H39 8398   6.834   1.121  -0.094  0.1126 -0.0905  3.1585
   20CHTO    O9 8399   7.430   1.113  -0.064  0.1286 -0.1892 -0.1115
   20CHTO   C13 8400   7.387   0.947  -0.022 -0.2205  0.0160  0.0496
   20CHTO   H26 8401   7.482   0.902   0.014  0.4979  0.3239 -1.4268
   20CHTO   C11 8402   7.326   0.865  -0.148  0.3734 -0.8358  0.1530
   20CHTO   H24 8403   7.420   0.833  -0.196 -0.6161 -0.4253 -2.0940
   20CHTO    O8 8404   7.260   0.939  -0.252  0.8332 -0.1045 -0.4066
   20CHTO    H3 8405   7.197   1.004  -0.231 -0.9254 -1.9277  0.1185
   20CHTO    C9 8406   7.248   0.747  -0.098 -0.7472  0.4399  0.0326
   20CHTO   H22 8407   7.313   0.690  -0.031 -0.7532 -0.5901 -0.8204
   20CHTO    N2 8408   7.206   0.641  -0.198  0.0045 -0.1265  0.3461
   20CHTO   H10 8409   7.140   0.692  -0.266 -2.6490 -1.5312  1.7409
   20CHTO   H11 8410   7.289   0.594  -0.247 -0.6099 -0.2989 -0.5361
   20CHTO    C7 8411   7.130   0.800  -0.004  0.2385 -0.2136  0.1897
   20CHTO   H20 8412   7.130   0.725   0.079 -1.8836 -0.6053 -0.1287
   20CHTO    O4 8413   7.155   0.922   0.061 -0.2580  0.3196  0.0074
   20CHTO   C14 8414   7.288   0.935   0.102 -0.1512 -0.3447 -0.0273
   20CHTO   H27 8415   7.314   0.840   0.155 -0.4255  0.0877  0.8843
   20CHTO   C18 8416   7.310   1.054   0.212  0.0348  0.2190  0.1606
   20CHTO   O13 8417   7.446   1.056   0.253  0.3358  0.6600 -1.6536
   20CHTO    H7 8418   7.457   0.999   0.327 -3.0085  0.4180 -1.2847
   20CHTO    O2 8419   6.980   0.812  -0.084 -0.4655  0.1628  0.2796
   20CHTO    C1 8420   6.876   0.727  -0.019  0.2572 -0.0745 -0.4738
   20CHTO   H14 8421   6.892   0.738   0.090 -0.7360  0.4017 -0.3723
   20CHTO    C2 8422   6.891   0.569  -0.061  0.6604  0.5638  0.2514
   20CHTO   H15 8423   6.887   0.568  -0.171 -2.3463 -0.2393  0.3393
   20CHTO    O6 8424   7.015   0.520  -0.011  0.8020  0.1122 -0.2138
   20CHTO    H1 8425   7.079   0.588  -0.023 -0.3475  0.6493 -3.7137
   20CHTO    C3 8426   6.766   0.493  -0.001  0.8851  0.4027  0.0213
   20CHTO   H16 8427   6.782   0.502   0.107  1.0299 -0.5783  0.0789
   20CHTO    N1 8428   6.768   0.347  -0.036 -0.1786 -0.1512 -0.3514
   20CHTO    H8 8429   6.757   0.342  -0.144 -0.1722  1.5193 -0.4419
   20CHTO    H9 8430   6.866   0.314  -0.008 -0.2830  1.4641  1.9965
   20CHTO    C4 8431   6.628   0.565  -0.036  0.1444  0.2055  0.5685
   20CHTO   H17 8432   6.605   0.559  -0.143  2.0310  0.0414  0.1522
   20CHTO    O1 8433   6.631   0.706   0.004  0.2521 -0.3643 -0.0902
   20CHTO    C5 8434   6.738   0.782  -0.051  0.6685 -0.2538 -0.6494
   20CHTO   H18 8435   6.719   0.773  -0.158 -1.1906  0.5032 -0.4081
   20CHTO   C16 8436   6.720   0.929  -0.001  0.1437  0.2631  0.3183
   20CHTO   O11 8437   6.596   0.982  -0.045 -0.1621 -0.4323  0.7320
   20CHTO    H5 8438   6.532   0.959   0.020 -1.2846  0.4874 -0.0167
   20CHTO    O3 8439   6.520   0.526   0.043 -0.3914 -0.1252 -0.3291
   20CHTO    C6 8440   6.392   0.513  -0.024  0.4166  0.8857  0.2224
   20CHTO   H19 8441   6.386   0.587  -0.104 -0.5511  0.8525  0.2632
   20CHTO    C8 8442   6.369   0.370  -0.080  0.0128 -0.3535  0.1360
   20CHTO   H21 8443   6.389   0.293  -0.005 -2.6731 -0.8283  0.3928
   20CHTO    O7 8444   6.458   0.350  -0.188  1.0719 -0.4944 -1.2098
   20CHTO    H2 8445   6.432   0.283  -0.249  1.2460  0.4755 -2.3714
   20CHTO   C12 8446   6.218   0.355  -0.123 -0.0062  0.3015 -0.8763
   20CHTO   H25 8447   6.201   0.409  -0.218 -1.8727 -2.5815 -2.2404
   20CHTO    N3 8448   6.174   0.215  -0.149  0.4231 -0.3281 -0.1234
   20CHTO   H12 8449   6.115   0.184  -0.064  1.3984  1.7934  1.3819
   20CHTO   H13 8450   6.108   0.203  -0.234 -1.5395 -0.6850  1.4178
   20CHTO   C15 8451   6.128   0.423  -0.011  0.6180 -0.5198 -0.2829
   20CHTO   H28 8452   6.120   0.362   0.079 -0.7956  0.8838  0.5698
   20CHTO   O10 8453   5.977   0.444  -0.072  0.4225  0.2502 -0.9123
   20CHTO    H4 8454   5.974   0.467  -0.163  0.0291 -1.0492 -1.2391
   20CHTO    O5 8455   6.156   0.560   0.026 -0.2018  0.0589 -0.2777
   20CHTO   C10 8456   6.285   0.557   0.085  0.1948 -0.4906  0.8075
   20CHTO   H23 8457   6.286   0.496   0.176  3.2240 -0.1015  1.1058
   20CHTO   C17 8458   6.311   0.700   0.140 -0.4488 -0.1848 -0.3402
   20CHTO   O12 8459   6.204   0.735   0.229  0.5677  0.0972 -0.1551
   20CHTO    H6 8460   6.131   0.692   0.190  0.4776  0.4159 -0.3393
   21GLOH   H03 8461   9.423   4.256   2.164 -0.4953  0.4609  1.4688
   21GLOH    O1 8462   9.504   4.290   2.206  0.3979 -0.2846  0.3901
   21GLOH    C1 8463   9.522   4.423   2.143  0.0580  0.4929  0.3167
   21GLOH   H02 8464   9.498   4.421   2.037  1.9127  0.8521 -0.1214
   21GLOH   H08 8465   9.625   4.457   2.145  0.4640 -0.6626 -0.4271
   21GLOH    C2 8466   9.446   4.531   2.213 -0.6289 -0.3535  0.3696
   21GLOH   H04 8467   9.471   4.630   2.172  1.5218 -1.3767 -0.8924
   21GLOH    O2 8468   9.308   4.512   2.204  0.2176  0.5490 -0.1787
   21GLOH   H05 8469   9.281   4.418   2.201 -0.9146  0.8989 -1.3940
   21GLOH    C3 8470   9.492   4.539   2.358  0.0352  0.3812 -0.5955
   21GLOH   H06 8471   9.482   4.442   2.408 -0.5908  0.8822  0.2802
   21GLOH   H07 8472   9.415   4.603   2.402 -1.3361 -0.7288 -1.3200
   21GLOH    O3 8473   9.620   4.604   2.363 -0.4668 -0.1885 -0.1243
   21GLOH   H01 8474   9.689   4.536   2.374 -1.3512 -1.1536 -0.5225
   22GLOH   H03 8475   4.137   2.619   1.398  0.5460  0.6066 -0.1266
   22GLOH    O1 8476   4.193   2.539   1.394 -0.3234 -0.0221  0.2005
   22GLOH    C1 8477   4.292   2.553   1.495  0.1443 -0.1461  0.1806
   22GLOH   H02 8478   4.361   2.471   1.480 -0.0016 -0.3732  0.7180
   22GLOH   H08 8479   4.250   2.545   1.595 -1.3673  0.7945 -0.3578
   22GLOH    C2 8480   4.367   2.685   1.491 -0.1241 -0.1067  0.1049
   22GLOH   H04 8481   4.293   2.766   1.504 -1.3992 -1.0834 -0.8920
   22GLOH    O2 8482   4.454   2.699   1.601 -0.5000 -0.3374  0.0366
   22GLOH   H05 8483   4.397   2.716   1.678  0.7556  0.4594  0.8114
   22GLOH    C3 8484   4.442   2.706   1.360  0.5783 -0.5167  0.9599
   22GLOH   H06 8485   4.516   2.626   1.351 -0.1493 -1.1958  0.9705
   22GLOH   H07 8486   4.500   2.798   1.361 -0.4568  0.1806 -1.4591
   22GLOH    O3 8487   4.362   2.706   1.238 -0.4957  0.3300 -0.6087
   22GLOH   H01 8488   4.333   2.617   1.210  0.0888 -0.0820  0.0812
   23GLOH   H03 8489   0.518   4.914   2.559  1.4645 -0.7800 -1.6969
   23GLOH    O1 8490   0.565   4.999   2.550  0.3381  0.0582  0.0460
   23GLOH    C1 8491   0.477   5.102   2.610  0.0253  0.4391 -0.2339
   23GLOH   H02 8492   0.392   5.055   2.660 -0.2106  1.0494 -0.0595
   23GLOH   H08 8493   0.431   5.150   2.524  4.5260  2.8971 -1.3805
   23GLOH    C2 8494   0.545   5.211   2.688  0.0145 -0.2991 -0.5502
   23GLOH   H04 8495   0.603   5.271   2.615 -0.6041  1.9702  0.7612
   23GLOH    O2 8496   0.449   5.300   2.748  0.5190 -0.4143 -0.3332
   23GLOH   H05 8497   0.404   5.269   2.829 -0.8889 -0.3501 -1.0768
   23GLOH    C3 8498   0.653   5.157   2.786 -0.4979  0.0313  0.0034
   23GLOH   H06 8499   0.607   5.127   2.880 -2.7305  2.5403 -0.2449
   23GLOH   H07 8500   0.716   5.242   2.810  0.4215 -0.7179  0.2857
   23GLOH    O3 8501   0.732   5.050   2.731 -0.0634  0.2707  0.1496
   23GLOH   H01 8502   0.673   5.001   2.671  1.4791 -0.6716 -0.6463
   24GLOH   H03 8503   0.607   4.002   0.458  1.8787  0.3728 -0.6296
   24GLOH    O1 8504   0.610   4.007   0.361 -0.3975  0.6613 -0.7229
   24GLOH    C1 8505   0.484   4.064   0.319 -0.4374 -0.4288  0.0955
   24GLOH   H02 8506   0.410   3.985   0.311 -1.3823  0.4122  0.3310
   24GLOH   H08 8507   0.489   4.111   0.220 -0.8097 -2.1098 -0.7315
   24GLOH    C2 8508   0.412   4.160   0.416  0.0894 -0.0213  0.6004
   24GLOH   H04 8509   0.476   4.247   0.438 -0.6754  0.7075  0.0061
   24GLOH    O2 8510   0.293   4.210   0.359  0.0017 -0.4767 -0.3858
   24GLOH   H05 8511   0.302   4.249   0.271  1.2841 -1.3138 -0.6238
   24GLOH    C3 8512   0.395   4.085   0.550  0.0640 -0.2872 -0.3560
   24GLOH   H06 8513   0.336   3.994   0.535 -0.3856 -0.0375 -0.1198
   24GLOH   H07 8514   0.329   4.145   0.613 -0.1205 -0.7761 -0.0767
   24GLOH    O3 8515   0.515   4.051   0.619  0.4250 -0.2254  0.4670
   24GLOH   H01 8516   0.508   4.056   0.716 -1.3637 -1.7688  0.4422
   25GLOH   H03 8517   3.934   4.892   0.546 -0.4590  0.1581 -0.9665
   25GLOH    O1 8518   4.006   4.957   0.553 -0.2541 -0.1859  0.1957
   25GLOH    C1 8519   4.092   4.934   0.666 -0.0334  0.3027 -0.0445
   25GLOH   H02 8520   4.197   4.937   0.638 -0.4692  0.5402 -1.6866
   25GLOH   H08 8521   4.074   4.836   0.711 -0.9411  0.5593  0.1609
   25GLOH    C2 8522   4.063   5.024   0.791 -0.7335 -0.1871 -0.1913
   25GLOH   H04 8523   4.047   5.126   0.753  0.3456 -0.7314 -2.1665
   25GLOH    O2 8524   3.950   4.971   0.871 -0.0934 -0.1402 -0.0121
   25GLOH   H05 8525   3.866   5.004   0.835  0.2588 -0.2699 -0.9475
   25GLOH    C3 8526   4.190   5.022   0.879  0.5017  0.0061  1.0483
   25GLOH   H06 8527   4.199   4.921   0.919  0.7843 -0.9181 -1.2975
   25GLOH   H07 8528   4.175   5.092   0.961 -0.9753  0.3002  0.5438
   25GLOH    O3 8529   4.312   5.055   0.814  0.3055  0.2816  0.3711
   25GLOH   H01 8530   4.384   5.002   0.853  0.3799 -2.2623 -2.9862
   26GLOH   H03 8531   1.449   4.792   1.423 -1.1801 -0.3736  0.4174
   26GLOH    O1 8532   1.438   4.881   1.462 -0.3220 -0.0323 -0.1006
   26GLOH    C1 8533   1.305   4.926   1.432  0.4718 -0.1507  0.4126
   26GLOH   H02 8534   1.235   4.843   1.431  0.7053 -0.3571  1.1138
   26GLOH   H08 8535   1.300   4.951   1.326  0.0747  1.5337  0.8167
   26GLOH    C2 8536   1.234   5.042   1.511  0.1042  0.0348 -0.1538
   26GLOH   H04 8537   1.304   5.126   1.522  0.0866 -0.0241  0.4357
   26GLOH    O2 8538   1.114   5.084   1.443 -0.3806  0.0012  0.0502
   26GLOH   H05 8539   1.079   5.165   1.484  0.1765 -0.1793  0.8977
   26GLOH    C3 8540   1.198   4.989   1.651  0.1503 -0.2294 -0.1603
   26GLOH   H06 8541   1.125   5.058   1.693  0.4529 -0.8323  1.3903
   26GLOH   H07 8542   1.284   5.001   1.717  1.0571  0.0260 -1.3665
   26GLOH    O3 8543   1.140   4.855   1.668 -0.2059  0.2102  0.0243
   26GLOH   H01 8544   1.060   4.867   1.723 -0.6626 -0.7300 -0.4181
   27GLOH   H03 8545   2.395   2.410   1.138  3.0098  0.8202  2.7841
   27GLOH    O1 8546   2.366   2.336   1.195  0.5306 -0.4874 -0.0228
   27GLOH    C1 8547   2.467   2.225   1.205  0.1902 -0.1725 -0.1491
   27GLOH   H02 8548   2.415   2.131   1.188 -0.1795  0.1763 -0.9576
   27GLOH   H08 8549   2.517   2.215   1.301 -1.7155 -1.9877  0.6777
   27GLOH    C2 8550   2.571   2.250   1.095 -0.3997 -0.9647 -0.0881
   27GLOH   H04 8551   2.523   2.243   0.996 -1.6849  1.3170  0.3306
   27GLOH    O2 8552   2.638   2.379   1.105  0.6434 -0.4538 -0.3977
   27GLOH   H05 8553   2.578   2.456   1.105  0.2387 -0.7067 -3.2797
   27GLOH    C3 8554   2.680   2.142   1.103 -0.2452 -0.3457  0.7972
   27GLOH   H06 8555   2.738   2.169   1.191  0.9254 -1.6181  0.4337
   27GLOH   H07 8556   2.740   2.157   1.014  1.7027  2.1615  2.4658
   27GLOH    O3 8557   2.616   2.017   1.110 -0.1282  0.3820 -0.1535
   27GLOH   H01 8558   2.673   1.945   1.081  0.4707  0.8013 -0.0225
   28GLOH   H03 8559   2.826   2.627   1.307 -2.7664 -0.3312  2.1727
   28GLOH    O1 8560   2.804   2.714   1.267 -0.0551 -0.5109  0.1324
   28GLOH    C1 8561   2.684   2.745   1.334 -0.1866  0.2728 -0.4544
   28GLOH   H02 8562   2.697   2.715   1.438 -0.4508 -1.7580 -1.0018
   28GLOH   H08 8563   2.602   2.681   1.300 -0.4684  1.3608 -1.9184
   28GLOH    C2 8564   2.631   2.888   1.313 -0.0637 -0.0958  0.0140
   28GLOH   H04 8565   2.615   2.914   1.207  0.6682  0.0083 -0.0772
   28GLOH    O2 8566   2.501   2.906   1.378 -0.4276 -0.4088 -0.5474
   28GLOH   H05 8567   2.503   2.912   1.475  0.0387  1.2789 -0.6444
   28GLOH    C3 8568   2.740   2.989   1.351  0.4214 -0.0195 -0.2674
   28GLOH   H06 8569   2.787   2.955   1.443 -0.7360  0.8609  0.6575
   28GLOH   H07 8570   2.693   3.083   1.380  0.8112  0.1901 -0.3153
   28GLOH    O3 8571   2.842   2.999   1.255  0.2067 -0.1191 -0.1129
   28GLOH   H01 8572   2.806   3.040   1.174 -2.3561 -1.7949  0.1335
   29GLOH   H03 8573   4.750   3.287   1.908 -0.4877 -0.9659 -0.0685
   29GLOH    O1 8574   4.808   3.217   1.943  0.4063 -0.4689 -0.5161
   29GLOH    C1 8575   4.830   3.128   1.834  0.6863 -0.9560  0.0316
   29GLOH   H02 8576   4.934   3.141   1.802  0.9533 -0.9419  0.8681
   29GLOH   H08 8577   4.771   3.141   1.744  0.5919 -3.3432 -0.2769
   29GLOH    C2 8578   4.823   2.986   1.884  0.1137 -0.1257 -0.6565
   29GLOH   H04 8579   4.730   2.979   1.942  0.3717 -2.2639 -0.4619
   29GLOH    O2 8580   4.812   2.891   1.777 -0.2596  0.1697  0.3958
   29GLOH   H05 8581   4.823   2.801   1.811 -1.0188 -0.4565 -0.9852
   29GLOH    C3 8582   4.937   2.948   1.973  1.0023 -0.6025 -0.4470
   29GLOH   H06 8583   4.971   3.029   2.038  1.9462 -1.8181  0.5906
   29GLOH   H07 8584   5.017   2.924   1.902  0.5372  0.4860 -1.3601
   29GLOH    O3 8585   4.920   2.829   2.057 -0.5099  0.0789 -0.6178
   29GLOH   H01 8586   4.918   2.746   2.006 -0.6744 -2.0980  2.7425
   30GLOH   H03 8587   4.131   8.961   1.506  0.9287 -0.3749 -2.6716
   30GLOH    O1 8588   4.043   8.955   1.465 -0.0823 -0.1558 -0.5649
   30GLOH    C1 8589   3.970   8.846   1.528 -0.4400 -0.5474  0.7449
   30GLOH   H02 8590   4.027   8.777   1.590 -2.2505 -1.3837  1.5039
   30GLOH   H08 8591   3.929   8.788   1.445 -1.5067  1.4898 -0.1985
   30GLOH    C2 8592   3.856   8.893   1.618  0.4222 -0.1156  0.0912
   30GLOH   H04 8593   3.785   8.946   1.553  1.8458  2.3818  0.4919
   30GLOH    O2 8594   3.783   8.786   1.682 -0.3585 -0.0069  0.1509
   30GLOH   H05 8595   3.743   8.727   1.616  0.0524  1.1950 -1.1942
   30GLOH    C3 8596   3.912   8.996   1.720  0.2595  0.5839  0.1545
   30GLOH   H06 8597   4.000   8.950   1.765  0.3706  1.6102  1.0264
   30GLOH   H07 8598   3.836   9.020   1.794 -0.0864 -0.6049  0.1915
   30GLOH    O3 8599   3.954   9.116   1.663 -0.0634 -0.6471  0.3892
   30GLOH   H01 8600   4.022   9.111   1.593  1.6235  1.2343  1.8106
   31GLOH   H03 8601   4.141   0.846   1.594 -1.5661 -1.2710  2.5593
   31GLOH    O1 8602   4.084   0.785   1.543  0.3153 -0.2044 -0.9898
   31GLOH    C1 8603   4.142   0.751   1.415  0.2014  0.2998 -0.2824
   31GLOH   H02 8604   4.201   0.836   1.379  0.4556 -0.5770 -1.9944
   31GLOH   H08 8605   4.064   0.727   1.343 -1.4344 -1.8118  2.1164
   31GLOH    C2 8606   4.229   0.621   1.424  1.2056  0.0707 -0.1410
   31GLOH   H04 8607   4.153   0.543   1.437  0.7644  0.6360  0.6629
   31GLOH    O2 8608   4.293   0.599   1.299 -0.6561 -0.1303  0.6391
   31GLOH   H05 8609   4.361   0.531   1.314  0.4502  1.1402  1.5740
   31GLOH    C3 8610   4.333   0.605   1.538  0.4036 -0.0014  0.1867
   31GLOH   H06 8611   4.398   0.524   1.503 -2.3282 -2.4551  0.5981
   31GLOH   H07 8612   4.283   0.566   1.627  1.2929 -1.6632 -0.0048
   31GLOH    O3 8613   4.414   0.722   1.558  0.1897 -0.3455 -0.2841
   31GLOH   H01 8614   4.483   0.730   1.491 -0.4495 -1.0491 -1.0462
   32GLOH   H03 8615   3.774   2.063   1.117 -1.1368  0.9007 -1.0442
   32GLOH    O1 8616   3.796   2.045   1.024  0.7192  0.2056 -0.4957
   32GLOH    C1 8617   3.755   2.160   0.955  0.0009  0.4437  0.2259
   32GLOH   H02 8618   3.778   2.250   1.014  0.2202  1.2406 -1.0564
   32GLOH   H08 8619   3.648   2.162   0.932  0.0828 -1.0365 -0.3271
   32GLOH    C2 8620   3.840   2.183   0.825  0.0671  0.6326 -0.1663
   32GLOH   H04 8621   3.833   2.096   0.757  0.2492  0.4984 -0.0146
   32GLOH    O2 8622   3.781   2.291   0.754 -0.4835  0.4902 -0.4765
   32GLOH   H05 8623   3.850   2.340   0.706  1.1505  0.2192  1.5214
   32GLOH    C3 8624   3.987   2.209   0.860  0.2123  0.8337 -0.3552
   32GLOH   H06 8625   4.018   2.136   0.935  1.0329 -0.1132 -1.5783
   32GLOH   H07 8626   3.991   2.312   0.896  0.4483  0.1478  1.6423
   32GLOH    O3 8627   4.057   2.172   0.741 -0.2194  0.2629 -0.1846
   32GLOH   H01 8628   4.048   2.243   0.674  0.9222  1.2662  0.7048
   33GLOH   H03 8629   2.666   1.968   1.811  1.2582 -0.0234  0.3778
   33GLOH    O1 8630   2.660   2.065   1.801  0.1121 -0.1470 -0.1605
   33GLOH    C1 8631   2.553   2.127   1.883  0.7680  0.1918 -0.1097
   33GLOH   H02 8632   2.594   2.143   1.983  0.4127  1.7079 -0.1995
   33GLOH   H08 8633   2.466   2.061   1.882  0.7888  0.1554  0.2729
   33GLOH    C2 8634   2.496   2.262   1.841  0.1865 -0.1899  0.9911
   33GLOH   H04 8635   2.582   2.331   1.837 -0.5266  0.7772  2.0014
   33GLOH    O2 8636   2.428   2.274   1.712 -0.3631 -0.0541  0.1297
   33GLOH   H05 8637   2.495   2.271   1.641 -0.7340  0.0633 -0.2288
   33GLOH    C3 8638   2.407   2.318   1.948  0.7846 -0.5402 -0.2811
   33GLOH   H06 8639   2.335   2.239   1.968  1.4807 -0.7761  1.3507
   33GLOH   H07 8640   2.360   2.415   1.928  1.3974  0.0119  0.9076
   33GLOH    O3 8641   2.474   2.338   2.075  0.1761 -0.3682  0.0558
   33GLOH   H01 8642   2.512   2.428   2.064  0.1130 -0.3797 -0.2556
   34GLOH   H03 8643   3.791   4.287   2.038  0.1929  1.9367 -2.3725
   34GLOH    O1 8644   3.799   4.203   1.988 -0.9060  0.2982  0.0714
   34GLOH    C1 8645   3.925   4.180   1.936  0.7736  0.1066 -0.1480
   34GLOH   H02 8646   3.978   4.125   2.014 -1.9700 -1.0260  0.9685
   34GLOH   H08 8647   3.981   4.273   1.924  1.1249 -0.1326 -0.3743
   34GLOH    C2 8648   3.923   4.105   1.802 -0.2554  0.0813  0.5209
   34GLOH   H04 8649   3.871   4.010   1.821 -1.6592  0.9707  1.2348
   34GLOH    O2 8650   3.868   4.183   1.695  0.0253 -0.0781  0.1142
   34GLOH   H05 8651   3.902   4.273   1.708  0.1355 -0.2803  1.3072
   34GLOH    C3 8652   4.066   4.063   1.764 -0.1224 -0.1905 -0.1052
   34GLOH   H06 8653   4.061   4.016   1.666 -1.1738 -1.1794  0.4145
   34GLOH   H07 8654   4.097   3.986   1.835  2.5401  0.9914  0.0902
   34GLOH    O3 8655   4.162   4.173   1.771  0.0551 -0.1400  0.0525
   34GLOH   H01 8656   4.247   4.130   1.790 -0.0710 -0.4936 -0.1825
   35GLOH   H03 8657   3.415   6.633   0.114  0.0023 -1.7494  1.0863
   35GLOH    O1 8658   3.511   6.640   0.095 -0.3892  0.1359 -0.4024
   35GLOH    C1 8659   3.520   6.609  -0.045  0.2214  0.2742 -0.2507
   35GLOH   H02 8660   3.613   6.639  -0.093  1.3720 -2.8693 -0.0666
   35GLOH   H08 8661   3.434   6.647  -0.099  1.3146  0.5241 -1.8357
   35GLOH    C2 8662   3.513   6.457  -0.074  0.1279  0.3824 -0.2523
   35GLOH   H04 8663   3.413   6.411  -0.069  0.8198 -0.8669  3.2044
   35GLOH    O2 8664   3.555   6.432  -0.209  0.1043 -0.4969  0.2351
   35GLOH   H05 8665   3.495   6.470  -0.276 -0.9637 -1.7436  0.4610
   35GLOH    C3 8666   3.601   6.379   0.026  0.0632  0.1755  0.4442
   35GLOH   H06 8667   3.700   6.423   0.014 -0.6247  1.8252  0.5888
   35GLOH   H07 8668   3.610   6.275  -0.005  0.7463  0.5182 -0.5135
   35GLOH    O3 8669   3.573   6.378   0.170 -0.0041 -0.1063 -0.2173
   35GLOH   H01 8670   3.572   6.470   0.202  0.5626 -1.2456  3.2865
   36GLOH   H03 8671   0.720   4.574   1.544 -0.8030  1.4070  0.2339
   36GLOH    O1 8672   0.767   4.634   1.483 -0.1598  0.1694 -0.4934
   36GLOH    C1 8673   0.818   4.748   1.564 -0.4735  0.1261  0.3720
   36GLOH   H02 8674   0.916   4.721   1.602  0.7066  1.6580 -1.4969
   36GLOH   H08 8675   0.754   4.770   1.650 -2.2961  0.3821 -1.0105
   36GLOH    C2 8676   0.832   4.879   1.488  0.4244  0.1484 -0.1247
   36GLOH   H04 8677   0.846   4.961   1.559  0.1531 -0.2389  0.3766
   36GLOH    O2 8678   0.956   4.886   1.409 -0.6866  0.1659  0.0307
   36GLOH   H05 8679   1.018   4.957   1.435  0.6482 -0.9383 -0.0380
   36GLOH    C3 8680   0.707   4.912   1.396  0.3418 -0.4445  0.4146
   36GLOH   H06 8681   0.685   4.824   1.335  0.7344  1.4512 -2.5362
   36GLOH   H07 8682   0.734   4.993   1.329  0.6149 -0.3363  0.6532
   36GLOH    O3 8683   0.579   4.943   1.470  0.5942  0.2014  0.5580
   36GLOH   H01 8684   0.561   4.876   1.539 -0.6934  0.2765  0.3025
   37GLOH   H03 8685   3.591   4.760   1.245 -2.5149  2.6562  1.2036
   37GLOH    O1 8686   3.547   4.689   1.295  1.1660 -0.5443  0.1877
   37GLOH    C1 8687   3.631   4.611   1.384 -0.3226  0.1995  0.4985
   37GLOH   H02 8688   3.644   4.670   1.475  1.2081  1.7963 -0.7286
   37GLOH   H08 8689   3.728   4.603   1.337  0.2299 -0.6450  1.7430
   37GLOH    C2 8690   3.555   4.479   1.411  0.2594  0.7802 -1.0046
   37GLOH   H04 8691   3.546   4.428   1.314 -0.3604 -0.4365 -0.3150
   37GLOH    O2 8692   3.631   4.394   1.498 -0.0185  0.3178  0.2364
   37GLOH   H05 8693   3.656   4.437   1.582 -1.4388  2.1359 -0.2231
   37GLOH    C3 8694   3.413   4.499   1.461  0.3014  0.0244 -0.4056
   37GLOH   H06 8695   3.419   4.477   1.567 -2.6864  0.4900 -0.0940
   37GLOH   H07 8696   3.349   4.416   1.432 -1.2277  1.0368 -0.0064
   37GLOH    O3 8697   3.348   4.624   1.431  0.2694 -0.1979  0.4530
   37GLOH   H01 8698   3.409   4.673   1.373 -2.1943  2.8724  0.3481
   38GLOH   H03 8699   1.918   6.937   0.690 -1.9798 -0.8549  1.7627
   38GLOH    O1 8700   1.860   6.901   0.621 -0.3179 -0.3040  0.0234
   38GLOH    C1 8701   1.911   6.923   0.492 -0.2088  0.1302  0.3694
   38GLOH   H02 8702   1.995   6.991   0.506 -2.2954  2.7465  0.5472
   38GLOH   H08 8703   1.847   6.979   0.425  0.4490  1.2874  0.6922
   38GLOH    C2 8704   1.969   6.798   0.422  0.3247  0.4827 -0.1977
   38GLOH   H04 8705   2.048   6.762   0.489 -0.2786  0.0223  0.2776
   38GLOH    O2 8706   1.875   6.697   0.404 -0.5935 -0.1041 -0.1085
   38GLOH   H05 8707   1.821   6.718   0.326  0.4926 -0.3157 -0.9447
   38GLOH    C3 8708   2.031   6.843   0.288 -0.4661 -0.3289  0.4148
   38GLOH   H06 8709   2.030   6.762   0.216 -0.3903  0.4136 -0.4320
   38GLOH   H07 8710   2.139   6.852   0.303 -0.9061  2.2196  2.3932
   38GLOH    O3 8711   1.977   6.957   0.216  0.0278  0.2329 -0.6328
   38GLOH   H01 8712   1.922   6.931   0.140  1.4049 -1.3322 -1.1132
   39GLOH   H03 8713   9.361   5.444   0.962 -1.4803  2.0064 -0.3255
   39GLOH    O1 8714   9.286   5.386   0.937 -0.1214  0.1136 -0.0801
   39GLOH    C1 8715   9.265   5.378   0.796  0.2287 -0.0930 -0.5499
   39GLOH   H02 8716   9.335   5.302   0.760  1.6931  0.1528  1.6344
   39GLOH   H08 8717   9.298   5.469   0.747  0.4833 -1.3779 -2.8338
   39GLOH    C2 8718   9.126   5.324   0.761  0.0958 -0.4172  0.5539
   39GLOH   H04 8719   9.057   5.409   0.747  0.0435 -0.5080  0.2478
   39GLOH    O2 8720   9.120   5.264   0.631 -0.0968  0.2896  0.1614
   39GLOH   H05 8721   9.205   5.220   0.614 -0.5451 -0.9442  0.9522
   39GLOH    C3 8722   9.086   5.212   0.860 -0.4393 -0.0886 -0.1699
   39GLOH   H06 8723   9.139   5.119   0.842 -2.1968 -1.7337  2.7213
   39GLOH   H07 8724   8.979   5.195   0.849 -0.2944 -1.7726  0.9223
   39GLOH    O3 8725   9.108   5.245   0.997 -0.3627  0.3773  0.6019
   39GLOH   H01 8726   9.180   5.311   0.996  0.4783 -0.5306  0.8425
   40GLOH   H03 8727   4.830   3.109   1.306  0.1922 -0.3720 -1.7235
   40GLOH    O1 8728   4.923   3.136   1.307  0.0983 -0.0432 -0.1437
   40GLOH    C1 8729   4.951   3.224   1.192 -0.1604  0.4486  0.2023
   40GLOH   H02 8730   4.993   3.322   1.215  0.7821  0.3549 -1.0577
   40GLOH   H08 8731   4.855   3.243   1.146  0.1191  0.8998 -0.1987
   40GLOH    C2 8732   5.049   3.152   1.101  0.0118  0.1814  1.0346
   40GLOH   H04 8733   5.005   3.054   1.080  2.5642 -0.6804 -0.5822
   40GLOH    O2 8734   5.049   3.219   0.980 -0.6720  0.3929  0.6448
   40GLOH   H05 8735   4.967   3.189   0.938 -0.2592  0.2172 -0.0445
   40GLOH    C3 8736   5.184   3.136   1.169  0.8200  0.4869  0.6155
   40GLOH   H06 8737   5.259   3.094   1.101 -2.3657 -1.6060 -1.7546
   40GLOH   H07 8738   5.175   3.054   1.240  1.3811 -1.0741 -1.0763
   40GLOH    O3 8739   5.233   3.257   1.232 -0.2019 -0.0406 -0.0399
   40GLOH   H01 8740   5.285   3.229   1.309  0.4459  1.1880 -0.0186
   41GLOH   H03 8741   3.213   6.745   0.578 -0.0881  0.0828 -0.7054
   41GLOH    O1 8742   3.304   6.779   0.568  0.2838 -0.6580  0.0724
   41GLOH    C1 8743   3.320   6.895   0.653 -0.5098 -0.7732  0.3143
   41GLOH   H02 8744   3.419   6.940   0.643 -0.2017 -1.5988 -0.4090
   41GLOH   H08 8745   3.307   6.869   0.758 -0.7351  2.7176  1.2251
   41GLOH    C2 8746   3.227   7.009   0.610 -0.2126  0.5773  0.0251
   41GLOH   H04 8747   3.124   6.970   0.616  0.0736 -0.0912  0.6859
   41GLOH    O2 8748   3.228   7.120   0.699 -0.3060 -0.3184 -0.2352
   41GLOH   H05 8749   3.155   7.178   0.670  0.2250  0.7421  0.5067
   41GLOH    C3 8750   3.251   7.064   0.471  0.3122 -0.1707  0.9970
   41GLOH   H06 8751   3.252   6.975   0.407 -2.5756 -0.3015  1.0554
   41GLOH   H07 8752   3.355   7.095   0.461  0.5485 -1.3048 -0.2367
   41GLOH    O3 8753   3.168   7.167   0.408  0.1406  0.8187  0.2313
   41GLOH   H01 8754   3.173   7.146   0.313 -0.5920  0.9020  0.1721
   42GLOH   H03 8755   3.868   9.446   0.699 -1.1323  0.4852 -0.0688
   42GLOH    O1 8756   3.828   9.360   0.680 -0.6556  0.2796 -0.1415
   42GLOH    C1 8757   3.915   9.294   0.584 -0.5386 -0.5079 -0.4283
   42GLOH   H02 8758   3.897   9.187   0.592 -0.4409 -0.3774  1.9779
   42GLOH   H08 8759   4.016   9.313   0.621 -0.7321 -1.8902  0.8291
   42GLOH    C2 8760   3.908   9.363   0.441 -0.0095  1.1386  0.3773
   42GLOH   H04 8761   3.805   9.375   0.407  0.8113  1.6250 -2.0254
   42GLOH    O2 8762   3.981   9.494   0.434  0.2319 -0.6786  0.1863
   42GLOH   H05 8763   4.077   9.481   0.428  0.2043 -0.6964 -0.2208
   42GLOH    C3 8764   3.963   9.268   0.331  0.2095  1.3010 -0.0665
   42GLOH   H06 8765   4.071   9.259   0.344  0.3918 -1.3975 -2.9237
   42GLOH   H07 8766   3.947   9.303   0.230 -0.2064  1.9878  0.2377
   42GLOH    O3 8767   3.912   9.134   0.336  0.7697  0.2003  0.8390
   42GLOH   H01 8768   3.980   9.076   0.298 -0.2347  0.2703 -1.1465
   43GLOH   H03 8769   5.278   3.951   0.446  1.3900 -1.6769  0.3924
   43GLOH    O1 8770   5.216   3.915   0.512  0.4737 -0.0346  0.4553
   43GLOH    C1 8771   5.088   3.923   0.452  0.0354 -0.0431  0.7726
   43GLOH   H02 8772   5.078   4.012   0.390  0.9192 -0.0003  0.6747
   43GLOH   H08 8773   5.006   3.919   0.523  0.8536 -0.0902  1.7321
   43GLOH    C2 8774   5.064   3.802   0.360  0.1051 -0.2328  0.1650
   43GLOH   H04 8775   5.028   3.720   0.424 -3.9691  0.2380 -1.3640
   43GLOH    O2 8776   4.945   3.824   0.284  0.2436 -0.0620 -0.2009
   43GLOH   H05 8777   4.906   3.736   0.277  2.3419 -1.0527  0.3905
   43GLOH    C3 8778   5.183   3.746   0.277 -0.1066 -0.3152 -0.0186
   43GLOH   H06 8779   5.210   3.826   0.207 -0.8965  1.2587  1.4297
   43GLOH   H07 8780   5.154   3.654   0.228  0.2016  0.2275 -1.2304
   43GLOH    O3 8781   5.302   3.709   0.351 -0.6032  0.0518  0.0652
   43GLOH   H01 8782   5.277   3.640   0.415 -1.7428  0.1877 -0.2311
   44GLOH   H03 8783   4.397   5.449   0.717 -1.3952  2.1184 -0.8583
   44GLOH    O1 8784   4.486   5.476   0.685 -0.7903  0.6959 -0.4437
   44GLOH    C1 8785   4.578   5.440   0.790 -0.0377 -0.7480 -0.3775
   44GLOH   H02 8786   4.580   5.525   0.858 -2.1339 -1.2969  0.4113
   44GLOH   H08 8787   4.675   5.419   0.747 -0.0733  1.2421 -1.5251
   44GLOH    C2 8788   4.528   5.317   0.868  1.0345 -0.0672  0.5346
   44GLOH   H04 8789   4.526   5.232   0.798 -2.5265  0.0278  0.4305
   44GLOH    O2 8790   4.623   5.265   0.963  0.3462  0.2312 -0.3502
   44GLOH   H05 8791   4.587   5.215   1.038  1.0928 -0.2663 -0.3154
   44GLOH    C3 8792   4.389   5.334   0.933 -0.1577  0.2442  0.2942
   44GLOH   H06 8793   4.415   5.402   1.014  2.0502 -1.8219  1.4057
   44GLOH   H07 8794   4.340   5.249   0.981 -1.8530 -0.4791 -2.5899
   44GLOH    O3 8795   4.301   5.388   0.833  0.3726  0.3096 -0.1398
   44GLOH   H01 8796   4.213   5.408   0.870  0.3102  1.7490 -0.9824
   45GLOH   H03 8797   2.461   5.265   0.132  1.2440 -2.3215  0.0895
   45GLOH    O1 8798   2.404   5.214   0.192  0.0117 -0.5902  0.4294
   45GLOH    C1 8799   2.306   5.156   0.105 -0.1538 -0.4383  0.6974
   45GLOH   H02 8800   2.226   5.119   0.170 -0.9105  0.6817  0.4326
   45GLOH   H08 8801   2.331   5.069   0.043 -1.4151 -1.5222  1.6735
   45GLOH    C2 8802   2.231   5.263   0.017  0.0906  0.5939 -0.2950
   45GLOH   H04 8803   2.307   5.309  -0.047  1.0227 -1.4071 -0.6691
   45GLOH    O2 8804   2.136   5.182  -0.066 -0.3400 -0.6789  0.2209
   45GLOH   H05 8805   2.064   5.137  -0.018  0.6037  0.0476  2.4224
   45GLOH    C3 8806   2.163   5.371   0.099 -0.2606  0.0704 -0.5984
   45GLOH   H06 8807   2.138   5.340   0.200  3.1223 -1.5192 -0.2128
   45GLOH   H07 8808   2.066   5.390   0.051  0.5908 -0.3322 -2.5344
   45GLOH    O3 8809   2.238   5.495   0.094 -0.1342  0.0299 -0.1039
   45GLOH   H01 8810   2.191   5.550   0.028  1.8892  0.7701 -0.9818
   46GLOH   H03 8811   4.495  10.017   0.529 -2.8433  0.1163 -1.7252
   46GLOH    O1 8812   4.459   9.935   0.567  0.0116 -0.3814  0.0368
   46GLOH    C1 8813   4.520   9.824   0.503  0.2728 -0.5470 -0.2158
   46GLOH   H02 8814   4.526   9.749   0.581  0.8773  0.5674  0.8432
   46GLOH   H08 8815   4.620   9.844   0.464 -0.0193 -0.5643 -0.9780
   46GLOH    C2 8816   4.440   9.778   0.379  0.2110 -0.2025  0.0809
   46GLOH   H04 8817   4.422   9.869   0.320 -4.4721 -0.4521  0.9611
   46GLOH    O2 8818   4.527   9.690   0.297 -0.9745  0.0072 -0.1168
   46GLOH   H05 8819   4.473   9.655   0.225 -0.8299  0.7760 -0.6001
   46GLOH    C3 8820   4.314   9.711   0.437  0.1649 -0.2035 -0.0633
   46GLOH   H06 8821   4.268   9.764   0.520 -1.5918 -1.0367 -0.4798
   46GLOH   H07 8822   4.336   9.612   0.476  1.2606 -1.0723 -2.7257
   46GLOH    O3 8823   4.210   9.685   0.338 -0.0317  0.1515 -0.1466
   46GLOH   H01 8824   4.182   9.775   0.311 -3.4101 -0.8841 -0.2801
   47GLOH   H03 8825   3.457   7.951   1.438  0.7306  0.4570  0.1577
   47GLOH    O1 8826   3.522   7.894   1.394 -0.1940  0.0760 -0.7270
   47GLOH    C1 8827   3.660   7.932   1.418  0.4597 -0.5400 -1.2371
   47GLOH   H02 8828   3.696   7.889   1.511  1.3638  2.2735 -0.2636
   47GLOH   H08 8829   3.674   8.040   1.419  2.1614 -0.7553  0.7264
   47GLOH    C2 8830   3.758   7.875   1.317  0.4372  0.2718  0.3622
   47GLOH   H04 8831   3.761   7.765   1.329 -1.7465  0.4228  2.6093
   47GLOH    O2 8832   3.713   7.892   1.184 -0.4598 -0.0047 -0.2469
   47GLOH   H05 8833   3.660   7.812   1.170  0.3898 -0.4819 -0.8577
   47GLOH    C3 8834   3.897   7.940   1.345 -0.0911 -0.8054 -0.1219
   47GLOH   H06 8835   3.965   7.903   1.269  1.6876  4.1944 -1.2027
   47GLOH   H07 8836   3.938   7.897   1.436  0.4330 -0.7210 -0.3150
   47GLOH    O3 8837   3.893   8.085   1.348  0.1226  0.0359  0.1039
   47GLOH   H01 8838   3.955   8.121   1.282  0.0764 -0.7974 -0.4025
   48GLOH   H03 8839   3.542   1.176   2.001  1.1271  0.1215  1.1270
   48GLOH    O1 8840   3.476   1.184   2.072 -0.2899 -0.6719 -0.0548
   48GLOH    C1 8841   3.496   1.304   2.143  0.6065  0.4782  0.1110
   48GLOH   H02 8842   3.442   1.300   2.237  1.2533  0.6338  0.4975
   48GLOH   H08 8843   3.462   1.385   2.078  0.5170  0.0327 -0.3986
   48GLOH    C2 8844   3.640   1.323   2.190 -0.1082  0.1561 -0.2732
   48GLOH   H04 8845   3.710   1.254   2.140  0.6704 -0.4350  1.6130
   48GLOH    O2 8846   3.686   1.456   2.180  0.1484  0.1068 -0.1452
   48GLOH   H05 8847   3.641   1.506   2.250 -0.1195  0.4802 -0.5826
   48GLOH    C3 8848   3.657   1.267   2.333 -0.1526  0.5940 -0.0343
   48GLOH   H06 8849   3.758   1.264   2.375 -0.6834  2.2445  1.4076
   48GLOH   H07 8850   3.614   1.166   2.330 -0.4995  0.7875 -2.1503
   48GLOH    O3 8851   3.568   1.340   2.419  0.2791 -0.2170  0.0612
   48GLOH   H01 8852   3.523   1.274   2.475 -1.0455  1.8671  1.5164
   49GLOH   H03 8853   3.972   4.194   1.004 -0.1221 -0.5517 -1.2254
   49GLOH    O1 8854   4.067   4.178   1.014 -0.2021 -0.2759  0.0917
   49GLOH    C1 8855   4.118   4.252   1.128 -0.2805  0.3316  0.5676
   49GLOH   H02 8856   4.088   4.208   1.223  2.7227 -1.0410  0.9525
   49GLOH   H08 8857   4.075   4.351   1.139 -1.0688  0.0585 -0.0342
   49GLOH    C2 8858   4.271   4.267   1.133 -0.3591 -0.3524 -0.3674
   49GLOH   H04 8859   4.283   4.317   1.230 -0.8744  0.1454 -0.5540
   49GLOH    O2 8860   4.341   4.143   1.129  0.4144  0.2764 -0.1938
   49GLOH   H05 8861   4.427   4.147   1.174  1.1394 -0.1988 -1.4876
   49GLOH    C3 8862   4.312   4.364   1.026 -0.8745 -0.2532  0.0373
   49GLOH   H06 8863   4.254   4.332   0.939 -0.5695 -0.5504 -0.0554
   49GLOH   H07 8864   4.416   4.343   1.002 -1.3043 -1.6413 -0.6421
   49GLOH    O3 8865   4.278   4.504   1.031  0.3721 -0.6850  0.2884
   49GLOH   H01 8866   4.325   4.550   0.959 -1.4187  0.1487 -0.3793
   50GLOH   H03 8867   3.785   1.888   0.455  0.6950  0.0893 -3.8645
   50GLOH    O1 8868   3.689   1.908   0.454  0.6059  0.2142  0.0701
   50GLOH    C1 8869   3.630   1.832   0.349  0.1050  0.2753 -0.0585
   50GLOH   H02 8870   3.637   1.727   0.378 -1.1148 -0.6152 -2.8491
   50GLOH   H08 8871   3.687   1.844   0.256 -0.6104 -0.3692 -0.5835
   50GLOH    C2 8872   3.490   1.884   0.316 -0.1984  0.3780 -0.1596
   50GLOH   H04 8873   3.496   1.986   0.275  1.1413  0.1659 -0.5195
   50GLOH    O2 8874   3.427   1.794   0.226 -0.1667 -0.2070  0.1612
   50GLOH   H05 8875   3.486   1.806   0.150 -0.4149 -2.8852 -0.5173
   50GLOH    C3 8876   3.403   1.889   0.446 -0.1744  0.6353 -0.2466
   50GLOH   H06 8877   3.386   1.784   0.468 -2.8773  0.7973 -1.3601
   50GLOH   H07 8878   3.307   1.935   0.423  0.7464  2.7790  0.0757
   50GLOH    O3 8879   3.460   1.955   0.558 -0.9243 -0.7502  0.1546
   50GLOH   H01 8880   3.557   1.939   0.557 -0.6667  0.4715  2.7452
   51GLOH   H03 8881   4.678   0.596   0.888 -0.7304  3.1372 -0.4984
   51GLOH    O1 8882   4.587   0.575   0.860 -0.1963 -0.0879  0.0630
   51GLOH    C1 8883   4.518   0.508   0.967 -0.1215 -0.1941 -0.2827
   51GLOH   H02 8884   4.427   0.565   0.987 -1.1056 -2.1904  1.1591
   51GLOH   H08 8885   4.571   0.508   1.062  0.0500  1.8896 -0.3544
   51GLOH    C2 8886   4.462   0.365   0.942 -0.3681 -0.4337  0.6017
   51GLOH   H04 8887   4.554   0.304   0.944 -0.4748 -0.6574 -0.9932
   51GLOH    O2 8888   4.379   0.310   1.051 -0.3482 -0.2873 -0.0427
   51GLOH   H05 8889   4.349   0.221   1.028 -0.2728  0.1050 -1.6780
   51GLOH    C3 8890   4.399   0.350   0.801  0.5780 -0.2004  0.2993
   51GLOH   H06 8891   4.367   0.246   0.794  3.5666 -1.0360 -1.8216
   51GLOH   H07 8892   4.482   0.372   0.734 -1.1452  1.8172 -1.2460
   51GLOH    O3 8893   4.288   0.441   0.787  0.2816  0.2452  0.2042
   51GLOH   H01 8894   4.239   0.448   0.871 -0.4216  0.1763 -0.1994
   52GLOH   H03 8895   4.426   5.115   1.175  0.6858  0.2480  0.0973
   52GLOH    O1 8896   4.516   5.111   1.138  0.3479 -0.2932 -0.6695
   52GLOH    C1 8897   4.602   5.160   1.248 -0.0031 -0.0560 -0.3731
   52GLOH   H02 8898   4.705   5.170   1.215  0.1716 -1.1435 -0.1907
   52GLOH   H08 8899   4.589   5.081   1.322  3.2208 -0.2371  0.0704
   52GLOH    C2 8900   4.549   5.286   1.322  0.1375  1.1770  0.1666
   52GLOH   H04 8901   4.543   5.372   1.254 -1.6303 -2.0610 -3.9498
   52GLOH    O2 8902   4.416   5.274   1.378 -0.6032  0.2411  0.6371
   52GLOH   H05 8903   4.355   5.240   1.310  0.6602 -1.1837  0.2057
   52GLOH    C3 8904   4.655   5.333   1.420  0.2427 -0.2917 -0.3031
   52GLOH   H06 8905   4.631   5.431   1.461  2.3944 -0.3547  1.1573
   52GLOH   H07 8906   4.753   5.348   1.374  0.2465 -0.1441 -0.2469
   52GLOH    O3 8907   4.664   5.242   1.528  0.4975  0.1114 -0.0830
   52GLOH   H01 8908   4.581   5.228   1.576  0.1048 -2.0373 -1.2961
   53GLOH   H03 8909   1.050   6.280   2.299  1.0775  1.2766 -0.0682
   53GLOH    O1 8910   1.111   6.212   2.265 -0.2564  0.2283 -0.4088
   53GLOH    C1 8911   1.243   6.250   2.303 -0.0174  0.3827 -0.6707
   53GLOH   H02 8912   1.247   6.358   2.319  1.5630  0.1458  0.6004
   53GLOH   H08 8913   1.313   6.223   2.224  1.5960 -0.6203  1.0725
   53GLOH    C2 8914   1.274   6.187   2.443  0.0374  0.0397  0.5811
   53GLOH   H04 8915   1.282   6.078   2.437  0.6340  0.0827  0.4931
   53GLOH    O2 8916   1.413   6.226   2.477 -0.0746  0.3539 -0.1113
   53GLOH   H05 8917   1.405   6.316   2.513 -2.9021 -0.3222  1.1360
   53GLOH    C3 8918   1.166   6.216   2.546 -0.0666  0.1016 -0.0128
   53GLOH   H06 8919   1.206   6.192   2.645  1.3938  1.1066 -0.3413
   53GLOH   H07 8920   1.075   6.157   2.532 -1.4768  2.3258 -0.3550
   53GLOH    O3 8921   1.149   6.359   2.556 -0.2578 -0.4523  0.2415
   53GLOH   H01 8922   1.072   6.367   2.616  0.1363  1.1596  0.5481
   54GLOH   H03 8923   5.023   3.872   2.190  3.1848 -1.3408 -0.1758
   54GLOH    O1 8924   5.049   3.955   2.234 -0.0529 -0.5484  0.3191
   54GLOH    C1 8925   5.038   3.916   2.367 -0.0081  0.7158  0.2342
   54GLOH   H02 8926   4.953   3.853   2.396  1.1735 -1.4130 -0.7983
   54GLOH   H08 8927   5.024   4.010   2.420  0.7798  1.1131 -0.2581
   54GLOH    C2 8928   5.164   3.843   2.419 -0.7442  0.1549  0.3033
   54GLOH   H04 8929   5.250   3.908   2.397 -1.4167  0.7577 -0.6030
   54GLOH    O2 8930   5.164   3.841   2.561  0.1705  0.4906  0.2155
   54GLOH   H05 8931   5.112   3.762   2.583 -2.4380  2.6244  1.9560
   54GLOH    C3 8932   5.194   3.705   2.348 -0.1291  0.1271 -0.6011
   54GLOH   H06 8933   5.299   3.692   2.374 -0.2053  2.9901  1.3994
   54GLOH   H07 8934   5.188   3.712   2.240 -0.8548  0.8599 -0.5189
   54GLOH    O3 8935   5.108   3.606   2.400 -0.2283 -0.0025 -0.1637
   54GLOH   H01 8936   5.132   3.517   2.369 -1.2193 -0.4878  0.4129
   55GLOH   H03 8937   4.461   8.947   0.536  2.3711  0.2539 -2.8437
   55GLOH    O1 8938   4.389   8.911   0.481  0.4047 -0.0821 -0.1230
   55GLOH    C1 8939   4.349   8.787   0.534 -0.4691 -0.2244  0.3258
   55GLOH   H02 8940   4.242   8.770   0.530 -0.7879  1.0176  2.5431
   55GLOH   H08 8941   4.373   8.788   0.641  0.0285  1.7370  0.2179
   55GLOH    C2 8942   4.408   8.663   0.467 -0.1436  0.2112  0.3241
   55GLOH   H04 8943   4.512   8.664   0.503  0.1849 -0.5493 -0.5887
   55GLOH    O2 8944   4.352   8.547   0.534 -0.0227 -0.3858  0.1799
   55GLOH   H05 8945   4.266   8.530   0.493 -0.4356  0.2052  0.7953
   55GLOH    C3 8946   4.395   8.658   0.310 -0.3790  0.1513  0.1157
   55GLOH   H06 8947   4.293   8.646   0.273 -0.2653  0.8121 -0.4395
   55GLOH   H07 8948   4.444   8.570   0.270 -0.9043 -0.2263  0.3064
   55GLOH    O3 8949   4.448   8.772   0.245  0.1690  0.1399 -0.0483
   55GLOH   H01 8950   4.468   8.838   0.314  0.8646 -1.6301  1.4708
   56GLOH   H03 8951   9.076   5.146   1.122 -0.1971  1.0321  1.3006
   56GLOH    O1 8952   9.079   5.077   1.191  0.3428 -0.3813 -0.1265
   56GLOH    C1 8953   9.193   5.102   1.274  0.3023  0.4124 -0.5515
   56GLOH   H02 8954   9.188   5.020   1.345 -0.6594  0.3240 -0.7059
   56GLOH   H08 8955   9.186   5.197   1.328  2.3209  0.5190 -0.4452
   56GLOH    C2 8956   9.326   5.080   1.189 -1.0365 -0.5746  0.0904
   56GLOH   H04 8957   9.330   5.157   1.111  1.1530  0.1987  0.8994
   56GLOH    O2 8958   9.438   5.088   1.271 -0.3756 -0.3686  1.0271
   56GLOH   H05 8959   9.515   5.115   1.218 -2.0276  1.2849 -0.5629
   56GLOH    C3 8960   9.324   4.943   1.114  0.4251 -0.2214  0.1514
   56GLOH   H06 8961   9.242   4.928   1.045  1.9644  0.7857 -1.9528
   56GLOH   H07 8962   9.316   4.873   1.197  0.7467 -0.7256 -0.2417
   56GLOH    O3 8963   9.449   4.914   1.049  0.5478  0.5129 -0.2015
   56GLOH   H01 8964   9.434   4.854   0.974 -1.3408 -1.7014  1.8388
   57GLOH   H03 8965   3.141   6.058   1.437  0.7224 -0.1505  0.3320
   57GLOH    O1 8966   3.233   6.027   1.439  0.7139 -0.1732  0.3702
   57GLOH    C1 8967   3.273   6.003   1.304  0.0388  0.3445 -0.5430
   57GLOH   H02 8968   3.216   6.063   1.233  0.2790 -0.7893 -1.7029
   57GLOH   H08 8969   3.267   5.897   1.283  1.3607  0.5853 -2.2303
   57GLOH    C2 8970   3.423   6.038   1.282 -0.4439 -0.2360 -0.2932
   57GLOH   H04 8971   3.493   5.977   1.341  1.1145  2.7770  1.1030
   57GLOH    O2 8972   3.454   6.031   1.140 -0.5355 -0.1736 -0.1594
   57GLOH   H05 8973   3.403   6.101   1.095  1.4185  1.9694  0.8618
   57GLOH    C3 8974   3.453   6.182   1.337  0.4086 -0.3774  0.0779
   57GLOH   H06 8975   3.370   6.240   1.298  1.2697  0.5939 -0.3210
   57GLOH   H07 8976   3.545   6.230   1.304  0.1328  0.9258  1.1760
   57GLOH    O3 8977   3.457   6.178   1.482  0.2562  0.0201  0.6085
   57GLOH   H01 8978   3.372   6.146   1.519 -0.0861  1.2649  0.8942
   58GLOH   H03 8979   4.400   4.732   2.133 -2.1900 -1.5140 -0.0618
   58GLOH    O1 8980   4.346   4.813   2.144 -0.0751 -0.0550 -0.0394
   58GLOH    C1 8981   4.427   4.900   2.227 -0.2508  0.3704 -0.6824
   58GLOH   H02 8982   4.369   4.987   2.258  0.4841  0.7971 -0.4921
   58GLOH   H08 8983   4.519   4.926   2.174  0.9693  2.4825  2.3344
   58GLOH    C2 8984   4.465   4.823   2.360  0.3173  0.4097  0.2916
   58GLOH   H04 8985   4.501   4.722   2.334 -0.7945 -0.2309  1.1742
   58GLOH    O2 8986   4.565   4.893   2.434  0.4014  0.6261  0.4168
   58GLOH   H05 8987   4.557   4.888   2.530  3.0308 -0.8323  0.6128
   58GLOH    C3 8988   4.340   4.794   2.451  0.2133  0.4357  0.3245
   58GLOH   H06 8989   4.379   4.750   2.542  0.3228 -1.3319 -0.5552
   58GLOH   H07 8990   4.267   4.728   2.403 -0.3952 -0.1880  2.0845
   58GLOH    O3 8991   4.262   4.910   2.477 -0.4702 -0.0036 -0.3650
   58GLOH   H01 8992   4.209   4.925   2.396 -2.5363 -2.9642  0.3343
   59GLOH   H03 8993   3.756   4.893   0.130  0.4689 -0.0533 -0.4089
   59GLOH    O1 8994   3.800   4.807   0.118  0.2963 -0.2391  0.2628
   59GLOH    C1 8995   3.859   4.757   0.240  0.4918  0.8864 -0.4334
   59GLOH   H02 8996   3.889   4.839   0.304  2.1722 -0.2851  0.3274
   59GLOH   H08 8997   3.949   4.699   0.218  0.7940  0.2758  2.2418
   59GLOH    C2 8998   3.774   4.668   0.332  0.9304  0.6456  0.5209
   59GLOH   H04 8999   3.668   4.697   0.334  0.6331 -0.4273  0.4107
   59GLOH    O2 9000   3.774   4.532   0.283  0.0409 -0.0751  0.2184
   59GLOH   H05 9001   3.795   4.540   0.188 -0.5446  0.6492  0.1513
   59GLOH    C3 9002   3.833   4.685   0.474 -0.2015 -0.0768  0.0584
   59GLOH   H06 9003   3.941   4.697   0.471 -0.3289  0.9427 -1.0941
   59GLOH   H07 9004   3.820   4.599   0.538  0.8703 -1.0357 -1.0001
   59GLOH    O3 9005   3.771   4.795   0.544 -0.1844 -0.1099 -0.0820
   59GLOH   H01 9006   3.689   4.828   0.501  0.7286  0.2582 -1.5800
   60GLOH   H03 9007   4.480   5.613   0.588 -2.7691 -1.3075 -0.1797
   60GLOH    O1 9008   4.446   5.689   0.537  0.1225 -0.1209 -0.4289
   60GLOH    C1 9009   4.415   5.641   0.405  0.0290  1.0234  0.6251
   60GLOH   H02 9010   4.387   5.723   0.338 -3.6636 -1.5234 -1.1162
   60GLOH   H08 9011   4.327   5.577   0.406  1.0923 -0.4838  2.3332
   60GLOH    C2 9012   4.514   5.548   0.338  0.5081 -0.1340 -0.2264
   60GLOH   H04 9013   4.603   5.613   0.330  0.3151  0.0706 -0.7687
   60GLOH    O2 9014   4.533   5.414   0.399  0.2179  0.2230 -0.3399
   60GLOH   H05 9015   4.507   5.416   0.493  1.8481 -0.3287  0.1340
   60GLOH    C3 9016   4.473   5.524   0.186  0.7467 -0.3151  0.6982
   60GLOH   H06 9017   4.529   5.443   0.138 -1.0904 -1.5734  0.6242
   60GLOH   H07 9018   4.491   5.617   0.131  0.2866 -0.0069  1.0727
   60GLOH    O3 9019   4.338   5.486   0.171 -0.1033 -0.1088 -0.5523
   60GLOH   H01 9020   4.326   5.411   0.232 -2.5975 -0.0796 -0.9733
   61GLOH   H03 9021   3.502   5.424   0.851  1.7178 -0.5216 -0.0777
   61GLOH    O1 9022   3.533   5.423   0.759 -0.1737 -0.5596 -0.7367
   61GLOH    C1 9023   3.486   5.295   0.701  0.6155 -0.4265 -0.0293
   61GLOH   H02 9024   3.524   5.282   0.599  0.9471  1.9078 -0.2302
   61GLOH   H08 9025   3.379   5.312   0.700  1.1357  3.3489  0.7869
   61GLOH    C2 9026   3.516   5.169   0.782  0.1366  0.1887  0.0534
   61GLOH   H04 9027   3.487   5.194   0.885 -0.5451  1.4854 -0.4395
   61GLOH    O2 9028   3.444   5.055   0.732  0.0547  0.4766 -0.1413
   61GLOH   H05 9029   3.418   4.997   0.805 -2.6328  0.7737 -0.8132
   61GLOH    C3 9030   3.660   5.134   0.791 -0.2734 -1.3236  0.1469
   61GLOH   H06 9031   3.720   5.213   0.837  0.2408 -2.9213  2.3239
   61GLOH   H07 9032   3.700   5.116   0.691  0.1688  0.2440  0.0187
   61GLOH    O3 9033   3.683   5.024   0.883 -0.6561  0.3730 -0.0666
   61GLOH   H01 9034   3.623   4.948   0.870 -1.5723  0.8430  1.3456
   62GLOH   H03 9035   5.235   1.900   0.740  1.0357 -0.9667 -0.6298
   62GLOH    O1 9036   5.312   1.942   0.698  0.4926  0.1412 -0.5135
   62GLOH    C1 9037   5.362   2.049   0.779  0.2313  0.4394 -0.0030
   62GLOH   H02 9038   5.467   2.069   0.760  0.0037  2.2795  0.6192
   62GLOH   H08 9039   5.336   2.024   0.882  1.5320 -0.0562  0.2082
   62GLOH    C2 9040   5.295   2.190   0.755 -0.5457  0.3395  0.4964
   62GLOH   H04 9041   5.187   2.171   0.761 -0.3075 -0.8472  1.2090
   62GLOH    O2 9042   5.344   2.283   0.855 -0.2507 -0.1422  1.0246
   62GLOH   H05 9043   5.367   2.364   0.806 -0.2362 -0.4520  0.5103
   62GLOH    C3 9044   5.314   2.234   0.607  0.1967  0.1121 -0.4650
   62GLOH   H06 9045   5.271   2.159   0.539 -1.1999  0.8378 -0.4079
   62GLOH   H07 9046   5.420   2.244   0.585  0.0073  2.0338 -0.5501
   62GLOH    O3 9047   5.249   2.361   0.589  0.1225 -0.3820 -0.1399
   62GLOH   H01 9048   5.294   2.420   0.652 -1.0750  1.9795 -1.4459
   63GLOH   H03 9049   3.928   2.265   0.090 -1.5713 -1.2124 -0.0677
   63GLOH    O1 9050   3.987   2.188   0.102 -0.1421 -0.1128  0.1583
   63GLOH    C1 9051   3.994   2.161   0.243 -0.1420  0.4739  0.0294
   63GLOH   H02 9052   4.020   2.057   0.261 -1.2004  0.0385 -0.8571
   63GLOH   H08 9053   3.900   2.188   0.291  0.8451  1.6997  1.3116
   63GLOH    C2 9054   4.102   2.254   0.306  1.0594 -0.2382  0.4249
   63GLOH   H04 9055   4.068   2.356   0.286 -0.1205 -0.4160  1.4643
   63GLOH    O2 9056   4.093   2.230   0.442 -0.3298  0.5033  0.3833
   63GLOH   H05 9057   4.135   2.145   0.462 -0.7879  0.8508  2.9920
   63GLOH    C3 9058   4.243   2.213   0.250 -0.1970  0.0941 -0.2962
   63GLOH   H06 9059   4.315   2.278   0.301 -0.3685 -0.6392  0.8975
   63GLOH   H07 9060   4.246   2.249   0.147  0.3652 -0.2213 -0.3915
   63GLOH    O3 9061   4.286   2.074   0.258  0.1268  0.3451  0.3363
   63GLOH   H01 9062   4.309   2.051   0.350  1.6030 -0.2383 -0.1742
   64GLOH   H03 9063   9.647   5.112   0.409  1.2391 -0.8222  0.0069
   64GLOH    O1 9064   9.625   5.207   0.421  0.1188 -0.9786 -0.6727
   64GLOH    C1 9065   9.741   5.292   0.393 -0.4576 -0.2040 -0.0468
   64GLOH   H02 9066   9.800   5.254   0.310 -0.5303  2.2231 -1.2695
   64GLOH   H08 9067   9.805   5.290   0.481 -0.3697 -2.5719 -0.1399
   64GLOH    C2 9068   9.693   5.431   0.358  0.4060 -0.2545  0.0099
   64GLOH   H04 9069   9.785   5.490   0.351  0.0726  0.1080 -1.3394
   64GLOH    O2 9070   9.610   5.434   0.237 -0.3994 -0.2050  0.3160
   64GLOH   H05 9071   9.649   5.499   0.177  1.4108 -2.2343 -0.7584
   64GLOH    C3 9072   9.609   5.501   0.471  0.7120 -0.0934  0.4252
   64GLOH   H06 9073   9.502   5.483   0.466  0.1167  3.1390  0.6791
   64GLOH   H07 9074   9.622   5.607   0.449 -1.1691  0.0051 -0.2558
   64GLOH    O3 9075   9.668   5.486   0.603  0.1792  0.2023 -0.6497
   64GLOH   H01 9076   9.641   5.398   0.635 -1.0380  0.3096 -1.3554
   65GLOH   H03 9077   3.357   8.675   1.451 -1.2032 -0.8414 -1.7653
   65GLOH    O1 9078   3.337   8.591   1.495 -0.1906 -0.1773 -0.0130
   65GLOH    C1 9079   3.195   8.568   1.478  0.7094  0.0479 -0.2992
   65GLOH   H02 9080   3.177   8.577   1.370  0.3995 -1.6428 -0.4073
   65GLOH   H08 9081   3.144   8.649   1.530  0.0335 -1.2216  1.0552
   65GLOH    C2 9082   3.138   8.430   1.513 -0.2257  0.4877  0.3354
   65GLOH   H04 9083   3.187   8.393   1.604  0.2933 -2.3493 -1.0407
   65GLOH    O2 9084   2.995   8.431   1.515 -0.5035 -0.4471  0.1949
   65GLOH   H05 9085   2.957   8.355   1.562  0.2608  0.0186  1.6038
   65GLOH    C3 9086   3.175   8.320   1.414 -0.1121 -0.6105  0.2490
   65GLOH   H06 9087   3.131   8.340   1.316  0.0165 -0.2714  0.2588
   65GLOH   H07 9088   3.126   8.229   1.449  1.0835 -0.5749  2.0741
   65GLOH    O3 9089   3.311   8.292   1.391 -0.3790  0.3417 -0.6212
   65GLOH   H01 9090   3.353   8.351   1.325  0.5886  1.0562  0.6094
   66GLOH   H03 9091   3.898   8.995   2.147 -0.7072  3.2502 -0.0561
   66GLOH    O1 9092   3.995   9.002   2.150 -0.3865 -0.2911 -0.3364
   66GLOH    C1 9093   4.047   8.864   2.170 -0.5870 -0.7133 -0.6322
   66GLOH   H02 9094   4.152   8.860   2.141 -0.2480  1.4326  0.1938
   66GLOH   H08 9095   3.998   8.799   2.097 -0.0027 -3.0839  1.0476
   66GLOH    C2 9096   4.025   8.793   2.303  0.2375 -0.1220  0.6589
   66GLOH   H04 9097   3.923   8.813   2.338  0.8941  0.4548  2.3309
   66GLOH    O2 9098   4.046   8.651   2.286  0.0729  0.3356  0.1191
   66GLOH   H05 9099   3.993   8.595   2.346  0.9559 -1.5533 -0.8081
   66GLOH    C3 9100   4.113   8.856   2.419 -0.3044 -0.3506  0.5989
   66GLOH   H06 9101   4.211   8.856   2.370 -1.0395  0.3328 -0.9249
   66GLOH   H07 9102   4.111   8.777   2.494  1.3872  0.8320  1.9245
   66GLOH    O3 9103   4.074   8.990   2.466 -0.6751  0.0040  0.7237
   66GLOH   H01 9104   3.979   9.005   2.451  0.2971  2.0428 -4.2392
   67GLOH   H03 9105   3.835   6.091   0.408 -1.2900  1.0729 -2.3499
   67GLOH    O1 9106   3.750   6.083   0.455 -0.0246 -0.3574 -0.1995
   67GLOH    C1 9107   3.644   6.065   0.360 -0.2576 -0.1293 -0.5300
   67GLOH   H02 9108   3.682   6.064   0.258  0.6521 -0.6403 -0.2024
   67GLOH   H08 9109   3.576   6.150   0.358  0.2115  0.2342 -2.9811
   67GLOH    C2 9110   3.561   5.939   0.379 -0.3960 -0.4926 -0.4905
   67GLOH   H04 9111   3.508   5.944   0.475 -1.5232 -0.5623 -1.1001
   67GLOH    O2 9112   3.456   5.935   0.288 -0.2136 -0.1253 -0.0630
   67GLOH   H05 9113   3.392   5.868   0.318 -1.6662  1.0322 -0.4994
   67GLOH    C3 9114   3.657   5.815   0.362 -0.1791 -0.0198 -0.5903
   67GLOH   H06 9115   3.741   5.820   0.432  0.0281  2.6263 -0.9892
   67GLOH   H07 9116   3.703   5.825   0.264 -0.0794 -1.0583 -0.6577
   67GLOH    O3 9117   3.599   5.684   0.364 -0.3469 -0.1529  0.4327
   67GLOH   H01 9118   3.569   5.672   0.456 -2.7700  1.2361 -0.1369
   68GLOH   H03 9119   1.257   6.732   0.335 -0.7091 -0.1393  0.4959
   68GLOH    O1 9120   1.238   6.737   0.239  0.5369  0.0215  0.2459
   68GLOH    C1 9121   1.241   6.603   0.182 -0.2024 -0.2437 -0.2590
   68GLOH   H02 9122   1.233   6.601   0.073 -3.0792  0.1634 -0.0949
   68GLOH   H08 9123   1.172   6.537   0.235  0.7696 -0.8411  0.2848
   68GLOH    C2 9124   1.378   6.527   0.208 -0.1170 -0.0764 -0.1109
   68GLOH   H04 9125   1.462   6.590   0.175 -0.0586 -0.7549 -1.2932
   68GLOH    O2 9126   1.394   6.488   0.344  0.6452 -0.5754 -0.2579
   68GLOH   H05 9127   1.368   6.558   0.405 -1.6137 -0.8155 -0.8981
   68GLOH    C3 9128   1.396   6.402   0.113 -0.6873 -0.2122  0.8331
   68GLOH   H06 9129   1.301   6.350   0.126  0.7653 -3.1354  0.1689
   68GLOH   H07 9130   1.477   6.340   0.151  1.3057  2.1200  0.5527
   68GLOH    O3 9131   1.432   6.444  -0.024 -0.4961 -0.2189 -0.5765
   68GLOH   H01 9132   1.528   6.446  -0.037 -0.5796  2.1789 -0.9151
   69GLOH   H03 9133   1.969   5.436   2.262  1.7383  0.3659  0.3414
   69GLOH    O1 9134   1.968   5.483   2.176 -0.0157 -0.0110  0.1436
   69GLOH    C1 9135   2.021   5.392   2.080  0.0738 -0.7953  0.0414
   69GLOH   H02 9136   1.949   5.331   2.026  1.2475 -1.3400 -0.9435
   69GLOH   H08 9137   2.093   5.323   2.124  0.4064 -2.3147 -2.7685
   69GLOH    C2 9138   2.103   5.470   1.982  0.1914 -0.0450  0.6356
   69GLOH   H04 9139   2.183   5.514   2.043 -1.4299  0.9433  2.0726
   69GLOH    O2 9140   2.159   5.379   1.889 -0.6261  0.1243 -0.4337
   69GLOH   H05 9141   2.193   5.429   1.812  0.3190 -1.0368 -0.7865
   69GLOH    C3 9142   2.020   5.582   1.910 -0.3224  0.2713 -0.3575
   69GLOH   H06 9143   2.083   5.621   1.830  0.0795  0.0651 -0.1469
   69GLOH   H07 9144   1.998   5.659   1.985  1.7243 -0.6422  1.2460
   69GLOH    O3 9145   1.897   5.533   1.849 -0.6001  0.0339  0.1064
   69GLOH   H01 9146   1.843   5.613   1.834 -2.5006 -0.8658  1.9617
   70GLOH   H03 9147   4.783   4.404   0.217 -2.7083  1.3567  0.0752
   70GLOH    O1 9148   4.793   4.445   0.305 -0.4445 -0.0540  0.5128
   70GLOH    C1 9149   4.664   4.507   0.346  0.1526  0.3027  0.6005
   70GLOH   H02 9150   4.575   4.454   0.313  0.1402  0.3247  0.5996
   70GLOH   H08 9151   4.651   4.605   0.300 -0.5090 -0.5493 -1.0745
   70GLOH    C2 9152   4.650   4.536   0.494  0.8515  0.5896 -0.6297
   70GLOH   H04 9153   4.702   4.631   0.516 -1.1275  1.5803 -0.1391
   70GLOH    O2 9154   4.512   4.567   0.521  0.0526  0.1823 -0.2930
   70GLOH   H05 9155   4.500   4.662   0.504 -0.0051  0.2677  0.1946
   70GLOH    C3 9156   4.685   4.417   0.583  0.4296  0.4540  0.1870
   70GLOH   H06 9157   4.609   4.338   0.580 -0.3581  1.2323 -0.5503
   70GLOH   H07 9158   4.678   4.446   0.688  1.2718  0.4020  0.2604
   70GLOH    O3 9159   4.809   4.353   0.558 -0.0074  0.3102 -0.6708
   70GLOH   H01 9160   4.831   4.378   0.466  0.9424  0.5407 -0.3870
   71GLOH   H03 9161   2.332   2.905   0.690  0.6429  0.3520  0.8751
   71GLOH    O1 9162   2.378   2.819   0.688 -0.6610 -0.3294 -0.6294
   71GLOH    C1 9163   2.511   2.852   0.632 -0.0319  0.1422 -0.0168
   71GLOH   H02 9164   2.580   2.776   0.667 -0.9573 -1.2126 -1.0703
   71GLOH   H08 9165   2.545   2.948   0.670 -3.0393  1.6592 -0.9517
   71GLOH    C2 9166   2.503   2.858   0.480 -0.1840 -0.1981  0.4301
   71GLOH   H04 9167   2.431   2.934   0.448 -0.0790  0.2757  1.2935
   71GLOH    O2 9168   2.625   2.896   0.409  0.4867 -0.2898 -0.4862
   71GLOH   H05 9169   2.684   2.956   0.459  0.3210  0.6334 -1.3784
   71GLOH    C3 9170   2.457   2.729   0.413 -0.3489 -0.2907  0.2340
   71GLOH   H06 9171   2.453   2.756   0.307  0.9403 -0.7418  0.0703
   71GLOH   H07 9172   2.357   2.708   0.450 -0.6793 -1.9069 -1.4656
   71GLOH    O3 9173   2.546   2.615   0.416 -0.2356  0.3417 -0.3767
   71GLOH   H01 9174   2.548   2.576   0.505  3.7788  1.8121  0.2658
   72GLOH   H03 9175   0.854   3.678   2.277  1.9671 -0.4308 -2.8308
   72GLOH    O1 9176   0.931   3.658   2.333  0.1210 -0.0319 -0.0489
   72GLOH    C1 9177   0.958   3.766   2.426  0.3540 -0.8971 -0.1067
   72GLOH   H02 9178   1.018   3.843   2.377  0.0218 -0.2702  0.4807
   72GLOH   H08 9179   1.019   3.725   2.506  0.7214  1.2325  0.7300
   72GLOH    C2 9180   0.829   3.821   2.480  0.0859 -0.2909 -0.7494
   72GLOH   H04 9181   0.754   3.753   2.522  0.5058 -1.8055 -2.4119
   72GLOH    O2 9182   0.863   3.922   2.575  0.4042  0.2647 -0.4507
   72GLOH   H05 9183   0.878   4.007   2.531 -1.2534  0.4468 -0.6886
   72GLOH    C3 9184   0.753   3.888   2.364  0.7003 -0.3364 -0.7115
   72GLOH   H06 9185   0.814   3.970   2.325  2.2294 -0.6906  0.9275
   72GLOH   H07 9186   0.668   3.936   2.412  0.4013  0.3307 -1.8692
   72GLOH    O3 9187   0.707   3.800   2.258  0.0678 -0.4471  0.3041
   72GLOH   H01 9188   0.661   3.856   2.193  1.8547  1.7850  0.8832
   73GLOH   H03 9189   5.319   3.146   0.482  0.2262  0.3912 -3.0655
   73GLOH    O1 9190   5.247   3.087   0.456 -0.3495 -0.0141 -0.6792
   73GLOH    C1 9191   5.284   2.999   0.350 -0.3724 -0.2562 -0.6360
   73GLOH   H02 9192   5.392   3.001   0.334 -0.1791 -0.8924  0.5345
   73GLOH   H08 9193   5.233   3.038   0.261  2.2412 -0.0012 -2.0691
   73GLOH    C2 9194   5.236   2.852   0.365 -0.5116  0.3301 -0.4432
   73GLOH   H04 9195   5.138   2.853   0.413 -1.0344 -0.4727 -1.4685
   73GLOH    O2 9196   5.217   2.778   0.242  0.2466 -0.2296 -0.3087
   73GLOH   H05 9197   5.215   2.685   0.268  0.0996 -0.0133  0.4656
   73GLOH    C3 9198   5.336   2.781   0.465 -0.7300  0.3269  0.9456
   73GLOH   H06 9199   5.327   2.829   0.562  0.0462 -0.0590  1.2168
   73GLOH   H07 9200   5.438   2.781   0.427 -1.4268  1.7120 -1.0124
   73GLOH    O3 9201   5.293   2.639   0.480 -0.3288 -0.7172 -0.2631
   73GLOH   H01 9202   5.226   2.642   0.551  0.2837 -3.0748  0.4659
   74GLOH   H03 9203   1.834   3.838   1.353 -2.8108  0.4385 -0.5797
   74GLOH    O1 9204   1.855   3.879   1.267 -0.3255 -0.1320 -0.2612
   74GLOH    C1 9205   1.791   4.005   1.263 -0.7324 -0.0772  1.2132
   74GLOH   H02 9206   1.811   4.050   1.361 -1.4932  1.1966  0.8031
   74GLOH   H08 9207   1.684   3.996   1.244 -0.7487  1.3133  0.6147
   74GLOH    C2 9208   1.844   4.107   1.158  0.0342 -0.2839  0.4037
   74GLOH   H04 9209   1.857   4.060   1.060 -0.7200  0.4034 -0.0375
   74GLOH    O2 9210   1.753   4.224   1.163  0.3040  0.0190 -0.1141
   74GLOH   H05 9211   1.676   4.203   1.108  0.5964  1.8175 -1.2549
   74GLOH    C3 9212   1.985   4.147   1.200  0.4125  0.9313  0.9071
   74GLOH   H06 9213   2.042   4.058   1.229 -0.4977  0.1483  0.3431
   74GLOH   H07 9214   1.991   4.217   1.283  0.0911  0.5328  1.2739
   74GLOH    O3 9215   2.054   4.213   1.096  0.3305 -0.8656 -1.0936
   74GLOH   H01 9216   1.990   4.280   1.064 -0.8387 -0.4559  1.9583
   75GLOH   H03 9217   2.157   7.342   1.983 -0.7173  0.5644 -2.1450
   75GLOH    O1 9218   2.221   7.279   1.946  0.4697  0.1475  0.5129
   75GLOH    C1 9219   2.185   7.145   1.993 -0.3428  0.0245  0.8796
   75GLOH   H02 9220   2.251   7.105   2.069  1.9002 -1.3564 -1.7002
   75GLOH   H08 9221   2.192   7.077   1.908 -0.3697  0.5751  0.4282
   75GLOH    C2 9222   2.041   7.144   2.053  0.0980 -1.0608 -0.1318
   75GLOH   H04 9223   1.969   7.183   1.980  1.9146 -0.5310 -1.6571
   75GLOH    O2 9224   2.001   7.013   2.098 -0.2364 -0.1344  0.0647
   75GLOH   H05 9225   2.063   6.944   2.067 -0.0995  0.7332 -1.6294
   75GLOH    C3 9226   2.023   7.237   2.167 -0.1035 -0.5623 -0.2247
   75GLOH   H06 9227   2.099   7.215   2.242  0.5325  0.4017 -0.5681
   75GLOH   H07 9228   1.930   7.219   2.219  0.2755 -0.3149  0.5458
   75GLOH    O3 9229   2.016   7.375   2.126  0.3086 -0.4099 -0.2912
   75GLOH   H01 9230   1.929   7.410   2.152 -0.9896 -1.4097 -3.1384
   76GLOH   H03 9231   2.178   3.296   1.455 -0.3746 -0.1143  0.2640
   76GLOH    O1 9232   2.259   3.248   1.480 -0.1192  0.4630  0.5593
   76GLOH    C1 9233   2.316   3.301   1.605  0.1403 -0.1651  0.2199
   76GLOH   H02 9234   2.242   3.304   1.685 -0.1660  0.3824 -0.0859
   76GLOH   H08 9235   2.362   3.396   1.577 -3.8116  1.7197 -0.1779
   76GLOH    C2 9236   2.427   3.197   1.644  0.0229 -0.5657 -0.6375
   76GLOH   H04 9237   2.493   3.167   1.561  0.6575 -1.4954  0.1955
   76GLOH    O2 9238   2.519   3.247   1.743  0.3277 -0.2101 -0.5301
   76GLOH   H05 9239   2.605   3.206   1.725  0.5520  0.4797 -1.0397
   76GLOH    C3 9240   2.359   3.074   1.704 -0.5101 -0.2482  0.5478
   76GLOH   H06 9241   2.297   3.103   1.790 -0.1911 -1.0707  1.0535
   76GLOH   H07 9242   2.442   3.019   1.748  1.7466  3.5373  1.2806
   76GLOH    O3 9243   2.278   3.016   1.600 -0.2943  0.0940  0.3088
   76GLOH   H01 9244   2.261   3.088   1.537  0.4026 -1.6353 -1.9265
   77GLOH   H03 9245   3.057   9.099   1.432  2.0687 -0.3930 -0.5766
   77GLOH    O1 9246   3.112   9.174   1.461  0.2328  0.8558 -0.2574
   77GLOH    C1 9247   3.226   9.197   1.368  0.4157 -0.3733 -0.0797
   77GLOH   H02 9248   3.187   9.214   1.268  1.7762 -0.0840 -0.5798
   77GLOH   H08 9249   3.285   9.105   1.361  0.1475 -0.4384 -1.7029
   77GLOH    C2 9250   3.315   9.314   1.419 -0.4986 -0.1846  0.2339
   77GLOH   H04 9251   3.319   9.314   1.529 -0.2438  0.0485  0.2259
   77GLOH    O2 9252   3.453   9.305   1.381  0.6208  0.2523  0.0469
   77GLOH   H05 9253   3.456   9.284   1.286  1.4860 -2.3732  0.5971
   77GLOH    C3 9254   3.262   9.453   1.381 -0.8776 -0.5053  0.1035
   77GLOH   H06 9255   3.156   9.448   1.405 -0.8059 -1.0223  0.3209
   77GLOH   H07 9256   3.271   9.466   1.273 -2.3931  0.0104  0.0363
   77GLOH    O3 9257   3.320   9.564   1.448 -0.5831 -0.6606  0.2711
   77GLOH   H01 9258   3.397   9.593   1.396 -0.3390 -2.8548 -0.6619
   78GLOH   H03 9259   5.116   2.386   1.304 -0.4796 -2.2382  0.5470
   78GLOH    O1 9260   5.157   2.361   1.219 -0.0375 -0.2944  0.1682
   78GLOH    C1 9261   5.171   2.486   1.155  0.7309 -0.5702 -0.4021
   78GLOH   H02 9262   5.250   2.473   1.080  0.8494  0.5537 -0.4739
   78GLOH   H08 9263   5.206   2.562   1.225 -1.0640  0.1612 -0.2724
   78GLOH    C2 9264   5.038   2.536   1.096  0.0018 -0.3534 -0.2047
   78GLOH   H04 9265   4.956   2.532   1.169 -0.8228  0.0750 -1.1038
   78GLOH    O2 9266   5.055   2.664   1.039  0.1018  0.1868  0.5600
   78GLOH   H05 9267   4.973   2.714   1.041  0.5050  0.9110 -0.5679
   78GLOH    C3 9268   4.991   2.435   0.985 -0.5547  0.0500 -0.2266
   78GLOH   H06 9269   5.076   2.446   0.917  0.0509 -1.6229  0.2278
   78GLOH   H07 9270   4.901   2.476   0.940  0.2236 -0.0371 -1.9173
   78GLOH    O3 9271   4.974   2.298   1.022  0.2374  0.7186  0.0563
   78GLOH   H01 9272   5.055   2.251   1.049 -0.1584 -0.0479 -0.0915
   79GLOH   H03 9273   4.673   9.408   0.494 -1.0448 -0.5466  0.1316
   79GLOH    O1 9274   4.705   9.345   0.561 -0.1239 -0.0517  0.1611
   79GLOH    C1 9275   4.670   9.205   0.524  0.0776 -0.2461 -0.5332
   79GLOH   H02 9276   4.753   9.149   0.482 -1.5318 -2.5681 -0.7276
   79GLOH   H08 9277   4.591   9.204   0.449 -0.6610  2.4552  0.1322
   79GLOH    C2 9278   4.620   9.120   0.647 -0.7187 -0.2301 -0.2649
   79GLOH   H04 9279   4.521   9.164   0.664 -1.2515 -1.8180  0.7809
   79GLOH    O2 9280   4.603   8.987   0.613  0.4056  0.6930 -0.2523
   79GLOH   H05 9281   4.628   8.924   0.683 -2.2907 -0.1962 -0.0378
   79GLOH    C3 9282   4.714   9.143   0.775 -0.5794  0.0845 -0.2436
   79GLOH   H06 9283   4.730   9.251   0.781 -2.7976  0.4957 -0.8347
   79GLOH   H07 9284   4.803   9.083   0.761 -1.7747 -1.6916 -0.4716
   79GLOH    O3 9285   4.641   9.105   0.897  0.0821  0.2356 -0.1398
   79GLOH   H01 9286   4.558   9.155   0.910  0.2751  0.2559  1.1147
   80GLOH   H03 9287   3.938   0.794   1.561 -0.8166 -1.8058  1.0228
   80GLOH    O1 9288   3.840   0.793   1.558 -0.8484  0.8607  0.0069
   80GLOH    C1 9289   3.805   0.897   1.467  0.3499  0.1241  0.5828
   80GLOH   H02 9290   3.700   0.887   1.438  0.6007 -1.0863  0.0466
   80GLOH   H08 9291   3.854   0.879   1.371  1.5216  1.9255  0.8212
   80GLOH    C2 9292   3.840   1.046   1.509  0.1476 -0.2082  0.2464
   80GLOH   H04 9293   3.949   1.046   1.522  0.5572  4.0202 -2.2421
   80GLOH    O2 9294   3.807   1.143   1.410 -0.0667 -0.0821 -0.0592
   80GLOH   H05 9295   3.882   1.142   1.349 -0.4418  0.1511 -0.5309
   80GLOH    C3 9296   3.760   1.070   1.645  0.1808 -0.0727  0.3105
   80GLOH   H06 9297   3.657   1.048   1.614  0.7282  0.0066 -1.6342
   80GLOH   H07 9298   3.783   1.174   1.664  2.2666 -0.1129 -1.8318
   80GLOH    O3 9299   3.801   0.979   1.748  0.4828 -0.2052 -0.3748
   80GLOH   H01 9300   3.757   0.894   1.729 -0.0204  0.0548 -0.3962
   81GLOH   H03 9301   4.101   4.700   0.013  1.0518  0.4212  1.3396
   81GLOH    O1 9302   4.122   4.605   0.024 -0.1718 -0.0352  0.0086
   81GLOH    C1 9303   4.238   4.574   0.109 -0.0523  0.6813 -0.1966
   81GLOH   H02 9304   4.228   4.610   0.211 -0.0681  1.4639 -0.4686
   81GLOH   H08 9305   4.328   4.621   0.071  0.3505  0.6315  0.6851
   81GLOH    C2 9306   4.260   4.423   0.109 -0.1198  0.1275  0.1765
   81GLOH   H04 9307   4.267   4.381   0.008  2.1958 -0.1493  0.4293
   81GLOH    O2 9308   4.376   4.398   0.188  0.6448  0.0498  0.1841
   81GLOH   H05 9309   4.446   4.369   0.127 -0.1988 -0.3174 -0.6066
   81GLOH    C3 9310   4.134   4.356   0.170 -1.2344  0.0813 -0.3119
   81GLOH   H06 9311   4.115   4.393   0.271 -1.1800  1.2539 -0.7265
   81GLOH   H07 9312   4.157   4.249   0.170 -0.2959  0.2578  1.7703
   81GLOH    O3 9313   4.020   4.369   0.078 -0.3322 -0.3629 -0.0304
   81GLOH   H01 9314   4.016   4.459   0.041  0.9567  0.5823  1.9713
   82GLOH   H03 9315   4.204   2.455   1.842 -1.7838 -1.4403 -0.0633
   82GLOH    O1 9316   4.136   2.519   1.816 -0.4089 -0.1385 -0.4780
   82GLOH    C1 9317   4.041   2.472   1.723  0.2052  0.5922 -0.0583
   82GLOH   H02 9318   3.997   2.386   1.775  1.1926 -0.0610 -0.2762
   82GLOH   H08 9319   4.089   2.433   1.633 -1.3446 -0.5427 -0.4078
   82GLOH    C2 9320   3.927   2.571   1.689 -0.2756 -0.4043  0.5068
   82GLOH   H04 9321   3.979   2.654   1.640  0.0333 -1.3440 -0.7981
   82GLOH    O2 9322   3.840   2.508   1.592 -0.1889  0.0389  0.2300
   82GLOH   H05 9323   3.808   2.587   1.544  1.7005 -0.2563 -1.6198
   82GLOH    C3 9324   3.864   2.614   1.824 -1.1430  0.3494  0.1861
   82GLOH   H06 9325   3.817   2.528   1.872  2.6255 -0.5681  2.3828
   82GLOH   H07 9326   3.780   2.680   1.800  0.6447  1.8434 -2.1361
   82GLOH    O3 9327   3.972   2.676   1.898  0.2645 -0.6228  0.5280
   82GLOH   H01 9328   4.055   2.641   1.861 -0.0199  1.6641 -2.4410
   83GLOH   H03 9329   3.970   8.175   0.545  0.3870  1.7710 -0.4142
   83GLOH    O1 9330   3.965   8.142   0.454  0.6579  0.2686  0.0996
   83GLOH    C1 9331   3.958   7.999   0.445 -0.0582  0.3653  0.5313
   83GLOH   H02 9332   4.003   7.973   0.349 -1.4484  1.4926 -0.4392
   83GLOH   H08 9333   3.856   7.966   0.429 -0.2907  0.9473  0.8031
   83GLOH    C2 9334   4.030   7.921   0.551 -0.0353  0.2597  0.0495
   83GLOH   H04 9335   4.135   7.948   0.537  0.4211  0.0498  2.7481
   83GLOH    O2 9336   3.982   7.943   0.684 -0.8049  0.4485  0.4014
   83GLOH   H05 9337   3.887   7.925   0.695 -0.4305 -2.0166 -0.1289
   83GLOH    C3 9338   4.021   7.768   0.525  0.2048  0.0384 -0.0402
   83GLOH   H06 9339   4.074   7.711   0.601 -0.0744 -2.2646 -1.5469
   83GLOH   H07 9340   4.077   7.746   0.435  1.8170 -2.4171  1.5259
   83GLOH    O3 9341   3.887   7.721   0.510  0.4641  0.0004 -0.4233
   83GLOH   H01 9342   3.837   7.763   0.583  1.2349 -1.3266  0.9066
   84GLOH   H03 9343   9.728   5.573   2.023  0.0035 -0.2917 -1.1796
   84GLOH    O1 9344   9.736   5.494   2.080  0.6703  0.3893 -0.2985
   84GLOH    C1 9345   9.713   5.549   2.215 -1.5779  0.4599  0.0568
   84GLOH   H02 9346   9.607   5.535   2.235 -1.4353  0.5384  0.8948
   84GLOH   H08 9347   9.740   5.655   2.218  2.0069 -0.3800  0.4764
   84GLOH    C2 9348   9.788   5.478   2.330 -0.3561 -0.0509  0.7104
   84GLOH   H04 9349   9.751   5.517   2.425  0.7937 -0.1612  1.2107
   84GLOH    O2 9350   9.767   5.335   2.333 -0.1857 -0.3279 -0.8741
   84GLOH   H05 9351   9.833   5.288   2.386  0.3168  0.2795 -0.9481
   84GLOH    C3 9352   9.941   5.523   2.326 -0.0779 -0.4371 -0.0232
   84GLOH   H06 9353   9.974   5.484   2.229 -0.0576  0.7812 -0.5076
   84GLOH   H07 9354  10.003   5.469   2.398  0.5452 -1.9428 -1.6521
   84GLOH    O3 9355   9.965   5.663   2.330 -0.0057  0.0684 -0.5208
   84GLOH   H01 9356  10.055   5.678   2.365  0.2938  1.6320 -1.8784
   85GLOH   H03 9357   4.564   0.954   2.409  1.6518  0.3254 -0.6028
   85GLOH    O1 9358   4.548   0.994   2.322 -0.1862  0.3061 -0.3041
   85GLOH    C1 9359   4.414   0.994   2.274 -0.0091 -0.3767 -0.5115
   85GLOH   H02 9360   4.340   0.982   2.353  1.5595  1.1813  1.2421
   85GLOH   H08 9361   4.404   0.917   2.197  0.7822 -0.3024 -0.6934
   85GLOH    C2 9362   4.368   1.121   2.194 -0.2141  0.0966 -0.0629
   85GLOH   H04 9363   4.440   1.146   2.116  0.4217 -2.5950 -0.3837
   85GLOH    O2 9364   4.244   1.100   2.122  0.5809  0.1736 -0.4432
   85GLOH   H05 9365   4.181   1.059   2.184 -0.2797  0.0693 -1.3772
   85GLOH    C3 9366   4.351   1.244   2.284 -0.1479  0.4988 -0.8089
   85GLOH   H06 9367   4.313   1.313   2.209  2.1197  2.2812 -0.3828
   85GLOH   H07 9368   4.446   1.277   2.325  0.0433 -1.8623  0.7487
   85GLOH    O3 9369   4.255   1.230   2.389 -0.0953  0.0504 -0.0118
   85GLOH   H01 9370   4.205   1.314   2.390  1.1258  0.7923  1.5509
   86GLOH   H03 9371   3.574   7.839   0.950  1.1954  1.6016  1.1593
   86GLOH    O1 9372   3.633   7.799   0.884 -0.3407  0.3086  0.5275
   86GLOH    C1 9373   3.693   7.674   0.917  0.5637  0.6200 -0.0677
   86GLOH   H02 9374   3.781   7.689   0.979 -1.2226  0.1318  2.6548
   86GLOH   H08 9375   3.722   7.618   0.828 -0.7806  0.5763 -0.4917
   86GLOH    C2 9376   3.597   7.586   1.009 -0.0219 -0.1839  0.0190
   86GLOH   H04 9377   3.645   7.487   1.015 -0.5039 -0.3606  1.1153
   86GLOH    O2 9378   3.592   7.640   1.138 -0.3249  0.1037 -0.4062
   86GLOH   H05 9379   3.517   7.597   1.184 -0.1933  1.9711  1.6484
   86GLOH    C3 9380   3.450   7.579   0.954 -0.0345 -0.1876  0.0604
   86GLOH   H06 9381   3.459   7.536   0.854  1.2529 -0.4437  0.2725
   86GLOH   H07 9382   3.416   7.682   0.952  0.6358  0.0244 -0.5767
   86GLOH    O3 9383   3.374   7.491   1.036  0.2287  0.0072  0.0319
   86GLOH   H01 9384   3.330   7.429   0.976  0.1320 -1.5808  1.6942
   87GLOH   H03 9385   5.024   3.898   1.434  0.4695 -0.9622  1.2211
   87GLOH    O1 9386   5.104   3.950   1.410 -0.5210  0.2607  0.4570
   87GLOH    C1 9387   5.112   4.049   1.515 -0.3920  0.3129  0.5168
   87GLOH   H02 9388   5.055   4.013   1.600 -0.9508 -1.3233 -0.5272
   87GLOH   H08 9389   5.068   4.144   1.482  1.1544  0.6901 -0.5241
   87GLOH    C2 9390   5.259   4.066   1.558  0.9045 -0.2862 -0.0258
   87GLOH   H04 9391   5.309   4.132   1.485  0.0363 -0.0441 -0.4057
   87GLOH    O2 9392   5.250   4.134   1.684  0.5296 -0.3267  0.4060
   87GLOH   H05 9393   5.209   4.071   1.745  1.2172  0.1568  1.3794
   87GLOH    C3 9394   5.323   3.933   1.572 -0.5558 -0.6387  0.4493
   87GLOH   H06 9395   5.265   3.859   1.627 -1.2532 -2.1158 -2.1381
   87GLOH   H07 9396   5.423   3.953   1.611  0.0507 -0.7958 -0.9824
   87GLOH    O3 9397   5.342   3.877   1.437  0.5233 -0.3631 -0.2802
   87GLOH   H01 9398   5.257   3.883   1.390  0.0513  0.8167  0.7012
   88GLOH   H03 9399   4.810   4.305   1.442  0.1149 -0.2434 -0.4675
   88GLOH    O1 9400   4.768   4.247   1.508 -0.3082  0.3075 -0.2359
   88GLOH    C1 9401   4.684   4.144   1.453 -0.5234 -0.5616 -0.1750
   88GLOH   H02 9402   4.658   4.078   1.535  0.9276 -0.6844  0.2061
   88GLOH   H08 9403   4.737   4.086   1.377 -0.0069 -0.8034  0.3709
   88GLOH    C2 9404   4.554   4.198   1.389 -0.3501 -0.1878 -0.0820
   88GLOH   H04 9405   4.587   4.261   1.304  0.3940  1.2382  1.2283
   88GLOH    O2 9406   4.480   4.087   1.341 -0.1695  0.0785  0.0847
   88GLOH   H05 9407   4.413   4.058   1.404 -2.1947 -0.1812 -2.1237
   88GLOH    C3 9408   4.480   4.287   1.491 -0.3671  0.2223  0.5537
   88GLOH   H06 9409   4.385   4.317   1.447  0.8749  1.0338 -1.6609
   88GLOH   H07 9410   4.538   4.379   1.496 -0.3392  0.2340  0.0498
   88GLOH    O3 9411   4.435   4.225   1.613 -0.0944 -0.4256  0.5944
   88GLOH   H01 9412   4.389   4.142   1.594  0.0954  0.0490 -2.1631
   89GLOH   H03 9413   1.407   5.449   2.342 -1.6634  0.4628 -0.9432
   89GLOH    O1 9414   1.469   5.467   2.269 -0.2594  0.1551  0.1596
   89GLOH    C1 9415   1.550   5.581   2.295  0.4945  0.3514  0.6921
   89GLOH   H02 9416   1.643   5.561   2.348 -0.0364  2.3231  2.4350
   89GLOH   H08 9417   1.496   5.641   2.368 -2.8441  0.0727 -1.4206
   89GLOH    C2 9418   1.593   5.664   2.166 -0.4922 -0.4790 -0.1616
   89GLOH   H04 9419   1.502   5.700   2.116 -0.2472  0.2546 -0.0851
   89GLOH    O2 9420   1.673   5.774   2.204 -0.4723  0.0421 -0.2544
   89GLOH   H05 9421   1.758   5.753   2.247 -1.2080  1.0553  1.8016
   89GLOH    C3 9422   1.670   5.571   2.069 -0.0254 -0.9011  0.0543
   89GLOH   H06 9423   1.740   5.503   2.120 -0.9039 -0.5632  1.7568
   89GLOH   H07 9424   1.725   5.639   2.004  0.8854 -1.2287  0.4713
   89GLOH    O3 9425   1.576   5.494   1.993  0.3135 -0.9705  0.3541
   89GLOH   H01 9426   1.521   5.444   2.056 -0.3101  0.6769  1.1469
   90GLOH   H03 9427   2.032   5.993   1.140  2.1088 -0.4858 -0.6584
   90GLOH    O1 9428   2.082   6.076   1.143  0.3214  0.5952 -0.5833
   90GLOH    C1 9429   1.991   6.183   1.142  0.6045  0.2835  0.2972
   90GLOH   H02 9430   1.945   6.208   1.237 -0.1541 -0.4402  0.1319
   90GLOH   H08 9431   1.905   6.144   1.087  0.3551 -0.0643  0.9274
   90GLOH    C2 9432   2.046   6.302   1.053  0.1799 -0.5024  0.3123
   90GLOH   H04 9433   2.050   6.252   0.956 -2.4457 -0.0631 -0.0824
   90GLOH    O2 9434   1.950   6.410   1.051 -0.0220 -0.2091 -0.3608
   90GLOH   H05 9435   1.979   6.476   1.116 -0.8507  0.9492 -1.1516
   90GLOH    C3 9436   2.191   6.342   1.084  0.1870 -0.8672 -0.0511
   90GLOH   H06 9437   2.178   6.406   1.172 -1.1135 -2.2051  0.7525
   90GLOH   H07 9438   2.222   6.402   0.998 -0.3205 -0.0889  0.3008
   90GLOH    O3 9439   2.285   6.234   1.108 -0.0488  0.4606 -0.0240
   90GLOH   H01 9440   2.233   6.156   1.136  0.9354 -0.8711 -1.8294
   91GLOH   H03 9441   2.639   2.163   1.495  0.1226  0.5430 -1.1435
   91GLOH    O1 9442   2.586   2.239   1.527  0.3689  0.1865  0.1408
   91GLOH    C1 9443   2.652   2.364   1.487  0.0584 -0.2055  0.2946
   91GLOH   H02 9444   2.621   2.438   1.561 -1.3002 -1.3647  0.9064
   91GLOH   H08 9445   2.603   2.400   1.397 -0.2887 -1.3980 -0.0079
   91GLOH    C2 9446   2.806   2.372   1.475 -0.2948  0.4894 -0.6637
   91GLOH   H04 9447   2.845   2.304   1.397 -1.3204  0.9161 -1.5722
   91GLOH    O2 9448   2.853   2.507   1.446 -0.0342  0.3481  0.2480
   91GLOH   H05 9449   2.942   2.503   1.407 -0.0058  2.8720 -0.0695
   91GLOH    C3 9450   2.872   2.328   1.609  0.0751 -0.2434 -0.4752
   91GLOH   H06 9451   2.832   2.229   1.632  2.0740 -1.3456 -1.5654
   91GLOH   H07 9452   2.846   2.391   1.694 -2.2434 -1.3219 -0.3480
   91GLOH    O3 9453   3.018   2.312   1.610  0.6253  0.2466 -0.3088
   91GLOH   H01 9454   3.046   2.262   1.531  1.5584  0.7859 -0.3289
   92GLOH   H03 9455   3.264   4.764   1.191 -1.2554 -0.4748 -0.1850
   92GLOH    O1 9456   3.320   4.720   1.124 -0.4611  0.2544 -0.0077
   92GLOH    C1 9457   3.241   4.616   1.070 -0.3177  0.1450 -0.0495
   92GLOH   H02 9458   3.245   4.623   0.961 -0.3453  3.4929  0.1258
   92GLOH   H08 9459   3.137   4.631   1.099 -0.4816  2.7473 -1.8111
   92GLOH    C2 9460   3.290   4.477   1.111 -0.3433 -1.1154  0.4309
   92GLOH   H04 9461   3.318   4.492   1.216 -1.1186  0.5171  0.4179
   92GLOH    O2 9462   3.188   4.375   1.108 -0.2887 -0.4332 -0.0397
   92GLOH   H05 9463   3.124   4.392   1.179  2.0943 -0.5203  2.1553
   92GLOH    C3 9464   3.418   4.438   1.036  0.1076 -0.2356 -0.4337
   92GLOH   H06 9465   3.395   4.421   0.930  0.4063  0.3279 -0.5905
   92GLOH   H07 9466   3.460   4.346   1.078 -0.2852  0.0039  0.4826
   92GLOH    O3 9467   3.516   4.546   1.043  0.1151  0.3673  0.4092
   92GLOH   H01 9468   3.487   4.594   1.123 -0.2673  3.2460 -1.3966
   93GLOH   H03 9469   4.232   5.350   0.460  1.3153 -1.1409  1.2401
   93GLOH    O1 9470   4.200   5.418   0.523  0.1424 -0.2044 -0.3162
   93GLOH    C1 9471   4.063   5.442   0.518  0.1402 -0.1969  0.1298
   93GLOH   H02 9472   4.002   5.409   0.602 -0.9574  0.5382 -0.3624
   93GLOH   H08 9473   4.023   5.392   0.430  2.8207 -2.2481  0.0137
   93GLOH    C2 9474   4.041   5.597   0.508  0.2597  0.0515  0.5611
   93GLOH   H04 9475   4.081   5.646   0.419 -1.4837 -0.7373 -0.6971
   93GLOH    O2 9476   3.895   5.617   0.504 -0.1063 -0.1570 -0.2795
   93GLOH   H05 9477   3.873   5.711   0.506 -0.5820 -0.2884  1.2170
   93GLOH    C3 9478   4.096   5.676   0.625 -1.1376  0.7289  0.5004
   93GLOH   H06 9479   4.121   5.777   0.593 -2.0990  0.9858  0.5712
   93GLOH   H07 9480   4.193   5.628   0.642 -1.5850  0.5884  2.7997
   93GLOH    O3 9481   4.024   5.672   0.749 -0.0414 -0.1421  0.6498
   93GLOH   H01 9482   3.950   5.731   0.729 -0.9150 -1.3460  0.2705
   94GLOH   H03 9483   9.623   4.713   0.102 -2.0224  0.1401 -0.4057
   94GLOH    O1 9484   9.595   4.671   0.186 -0.6220 -0.1213 -0.0557
   94GLOH    C1 9485   9.463   4.712   0.211  0.5202 -0.4519 -0.1630
   94GLOH   H02 9486   9.433   4.670   0.307  1.8234 -0.1384  0.3908
   94GLOH   H08 9487   9.399   4.678   0.130  0.1862  0.2069 -0.1735
   94GLOH    C2 9488   9.431   4.867   0.218 -0.5146 -0.2126  0.7882
   94GLOH   H04 9489   9.459   4.925   0.129 -1.9207  1.5210  1.4283
   94GLOH    O2 9490   9.285   4.883   0.228  0.1136 -0.8246 -0.4491
   94GLOH   H05 9491   9.261   4.959   0.172  1.3375  0.3315  0.5564
   94GLOH    C3 9492   9.500   4.927   0.342 -1.2854 -0.7886 -0.4908
   94GLOH   H06 9493   9.502   4.845   0.415 -0.9602 -0.5272 -0.2082
   94GLOH   H07 9494   9.437   5.006   0.383 -1.5972 -1.2640 -0.0408
   94GLOH    O3 9495   9.635   4.964   0.315  0.3147 -0.1916  0.3101
   94GLOH   H01 9496   9.646   5.014   0.232 -0.2788 -0.9331 -0.2181
   95GLOH   H03 9497   2.517   7.644   0.577  1.6767 -2.0515  2.4726
   95GLOH    O1 9498   2.585   7.635   0.507 -0.2857  0.4911  0.1191
   95GLOH    C1 9499   2.689   7.731   0.539  0.7717 -0.5807 -0.2802
   95GLOH   H02 9500   2.785   7.707   0.494  0.3021 -1.9738 -0.5745
   95GLOH   H08 9501   2.711   7.725   0.646 -0.7031  0.5363  0.1013
   95GLOH    C2 9502   2.649   7.877   0.505  0.2892  0.2462 -0.0042
   95GLOH   H04 9503   2.604   7.882   0.405  2.8480 -2.1172 -1.3355
   95GLOH    O2 9504   2.547   7.918   0.603 -0.1948 -0.2636 -0.3875
   95GLOH   H05 9505   2.459   7.911   0.561 -0.1478  1.6263 -0.8626
   95GLOH    C3 9506   2.763   7.976   0.510 -0.9235 -0.4123 -0.0813
   95GLOH   H06 9507   2.795   7.999   0.612 -0.9837  0.0996 -0.1757
   95GLOH   H07 9508   2.738   8.071   0.462 -0.9237 -0.1680  0.4012
   95GLOH    O3 9509   2.878   7.942   0.434  0.6720  0.1076 -0.6280
   95GLOH   H01 9510   2.936   7.881   0.482  0.0248 -0.8436 -1.0386
   96GLOH   H03 9511   3.760   0.689   1.879 -0.9360 -0.4974 -0.3207
   96GLOH    O1 9512   3.674   0.697   1.924 -0.5996  0.1102  0.2127
   96GLOH    C1 9513   3.658   0.832   1.978 -0.4619 -0.3378  0.0826
   96GLOH   H02 9514   3.633   0.907   1.903 -0.1586 -2.3311 -2.1104
   96GLOH   H08 9515   3.752   0.863   2.024 -0.0361 -2.0945  0.4543
   96GLOH    C2 9516   3.538   0.826   2.079 -0.6437 -0.2459  0.0761
   96GLOH   H04 9517   3.557   0.737   2.142  1.2975 -1.2257 -1.8060
   96GLOH    O2 9518   3.536   0.937   2.163 -0.5859  0.2941  0.2912
   96GLOH   H05 9519   3.485   1.012   2.128  0.2956  0.9296  0.3320
   96GLOH    C3 9520   3.413   0.799   1.997  0.5563 -0.5400 -0.0248
   96GLOH   H06 9521   3.333   0.825   2.066  0.2449 -0.0037 -0.5742
   96GLOH   H07 9522   3.390   0.695   1.973  1.0910 -0.5497 -0.4942
   96GLOH    O3 9523   3.392   0.894   1.890 -0.6722 -0.5946  0.8079
   96GLOH   H01 9524   3.299   0.884   1.865 -0.2935 -0.1946 -0.8788
   97GLOH   H03 9525   2.545   3.999   1.702 -1.6617  2.1412  0.3683
   97GLOH    O1 9526   2.588   3.993   1.614  0.0486  0.0761  1.2863
   97GLOH    C1 9527   2.484   3.990   1.512 -1.2915  0.2728 -0.8870
   97GLOH   H02 9528   2.541   4.003   1.421  3.5951 -0.5109  1.8657
   97GLOH   H08 9529   2.405   4.063   1.528 -0.6359  0.8658 -0.2642
   97GLOH    C2 9530   2.407   3.864   1.506 -0.6875 -0.7624 -1.0144
   97GLOH   H04 9531   2.330   3.868   1.584  3.8650  1.9195  3.6398
   97GLOH    O2 9532   2.351   3.851   1.372 -0.1844 -0.0655 -0.1455
   97GLOH   H05 9533   2.421   3.806   1.323 -0.1719  0.2044 -0.3744
   97GLOH    C3 9534   2.481   3.738   1.549  0.3952 -0.3237  0.2422
   97GLOH   H06 9535   2.436   3.659   1.488  0.3134  0.3972 -0.6468
   97GLOH   H07 9536   2.456   3.721   1.653 -1.3918 -1.5226 -0.3552
   97GLOH    O3 9537   2.621   3.756   1.530  0.3017 -0.1708 -0.2753
   97GLOH   H01 9538   2.643   3.845   1.562  1.6010 -0.1726 -1.0906
   98GLOH   H03 9539   1.953   4.825   2.051  1.5956 -0.7246 -0.1445
   98GLOH    O1 9540   1.925   4.765   2.123  0.0447  0.0730 -0.0720
   98GLOH    C1 9541   1.851   4.660   2.057 -0.0432  0.2049  0.4514
   98GLOH   H02 9542   1.855   4.567   2.115 -0.0191 -0.8965 -1.2686
   98GLOH   H08 9543   1.890   4.646   1.956  1.0168  0.4265  0.8297
   98GLOH    C2 9544   1.704   4.700   2.048 -1.0735  0.3697 -0.4878
   98GLOH   H04 9545   1.695   4.798   1.998  0.1280  0.4303 -0.5994
   98GLOH    O2 9546   1.633   4.598   1.971 -0.1376  0.0425  0.0017
   98GLOH   H05 9547   1.558   4.630   1.918 -0.2173 -2.7222 -1.6597
   98GLOH    C3 9548   1.643   4.703   2.190  0.0795  0.4262  0.5678
   98GLOH   H06 9549   1.538   4.731   2.184  0.4434  2.0654  1.6290
   98GLOH   H07 9550   1.695   4.784   2.241 -1.0198  0.4318  1.7133
   98GLOH    O3 9551   1.649   4.582   2.268 -0.3603  0.1775  0.3960
   98GLOH   H01 9552   1.633   4.501   2.216 -1.7675 -0.2834  1.5156
   99GLOH   H03 9553   4.269   9.898   1.420 -1.9659 -1.9820 -0.4472
   99GLOH    O1 9554   4.297   9.863   1.334  0.1090 -0.0293 -0.6283
   99GLOH    C1 9555   4.307   9.975   1.240 -0.2023 -0.2111  0.2066
   99GLOH   H02 9556   4.405  10.022   1.231 -0.9460  1.0150 -1.5600
   99GLOH   H08 9557   4.246  10.057   1.277  1.3528  0.6234  0.9905
   99GLOH    C2 9558   4.259   9.954   1.093 -0.3476  0.6238  0.0091
   99GLOH   H04 9559   4.154   9.922   1.101 -0.1571  0.5342  2.8923
   99GLOH    O2 9560   4.263  10.075   1.007 -0.1175 -0.0366  0.0180
   99GLOH   H05 9561   4.263  10.030   0.921  2.1485 -3.8386  1.8707
   99GLOH    C3 9562   4.336   9.834   1.023  1.0658 -0.1855 -0.1560
   99GLOH   H06 9563   4.366   9.765   1.102 -2.6105 -1.7707 -0.0497
   99GLOH   H07 9564   4.429   9.867   0.976  0.8502 -0.4700 -0.7828
   99GLOH    O3 9565   4.261   9.770   0.920  0.2900  0.0923 -0.0351
   99GLOH   H01 9566   4.250   9.830   0.844  0.0744 -2.3803 -2.0331
  100GLOH   H03 9567   3.509   7.727   1.363  0.5177  0.0352 -2.6115
  100GLOH    O1 9568   3.461   7.643   1.354 -0.2272  0.1473  0.1108
  100GLOH    C1 9569   3.426   7.607   1.495 -0.1726  0.2714 -0.2555
  100GLOH   H02 9570   3.343   7.536   1.489 -1.4156  1.7736 -1.5337
  100GLOH   H08 9571   3.392   7.696   1.550 -1.1900 -0.5596  0.4828
  100GLOH    C2 9572   3.545   7.533   1.564 -0.2345  0.1838 -0.1334
  100GLOH   H04 9573   3.630   7.602   1.565  0.6471 -0.8627 -1.4958
  100GLOH    O2 9574   3.503   7.499   1.703 -0.1555 -0.3445  0.1043
  100GLOH   H05 9575   3.466   7.581   1.739  1.3873  0.4647 -0.1086
  100GLOH    C3 9576   3.585   7.410   1.473 -0.7204 -0.0117  0.2550
  100GLOH   H06 9577   3.686   7.381   1.504 -1.4734 -0.1170  2.7002
  100GLOH   H07 9578   3.599   7.444   1.371 -1.5149 -0.8597 -0.1439
  100GLOH    O3 9579   3.490   7.306   1.472 -0.1666  0.2258  0.5280
  100GLOH   H01 9580   3.443   7.315   1.387  3.7182 -1.3862 -1.9139
  101GLOH   H03 9581   3.176   5.233   1.621  0.9883 -1.0698 -0.5018
  101GLOH    O1 9582   3.215   5.321   1.609 -0.3873 -0.3145  0.3974
  101GLOH    C1 9583   3.300   5.333   1.488  0.2577 -0.3194 -0.0297
  101GLOH   H02 9584   3.335   5.436   1.478 -3.1562  0.8480 -0.9275
  101GLOH   H08 9585   3.230   5.326   1.405 -0.9079  0.1777  0.8758
  101GLOH    C2 9586   3.417   5.234   1.473  0.1426 -0.1261 -0.2878
  101GLOH   H04 9587   3.472   5.250   1.567 -2.1587 -3.0043  1.6456
  101GLOH    O2 9588   3.378   5.093   1.457  0.5096  0.1534  0.0675
  101GLOH   H05 9589   3.455   5.040   1.485 -0.9832 -1.3011  1.5259
  101GLOH    C3 9590   3.518   5.278   1.364  0.1540 -0.0935  0.3471
  101GLOH   H06 9591   3.470   5.277   1.266 -1.2630  1.8627  0.9997
  101GLOH   H07 9592   3.591   5.197   1.361 -0.4874 -0.6269 -2.3953
  101GLOH    O3 9593   3.575   5.409   1.389  0.0397  0.4133 -0.5993
  101GLOH   H01 9594   3.632   5.407   1.468  1.6877 -0.1834 -1.7511
  102GLOH   H03 9595   4.814   4.241   0.657  0.7799 -0.6349 -1.4513
  102GLOH    O1 9596   4.797   4.173   0.725  0.3969  0.8884 -0.0022
  102GLOH    C1 9597   4.857   4.213   0.850  0.9223 -0.5869 -0.1122
  102GLOH   H02 9598   4.836   4.136   0.924 -4.4212  0.6906 -0.0846
  102GLOH   H08 9599   4.815   4.306   0.886 -1.3331 -1.2243 -1.0194
  102GLOH    C2 9600   5.009   4.238   0.843  0.3119  0.1943  0.5406
  102GLOH   H04 9601   5.052   4.137   0.843  0.6043  0.3163  0.2805
  102GLOH    O2 9602   5.040   4.319   0.722 -0.0206  0.4326  0.3230
  102GLOH   H05 9603   5.066   4.252   0.656  0.9422  1.8185 -0.7211
  102GLOH    C3 9604   5.060   4.306   0.975 -0.2124  0.1558  0.5260
  102GLOH   H06 9605   5.044   4.413   0.966 -0.0932 -0.0532 -2.6582
  102GLOH   H07 9606   5.168   4.291   0.981  0.1048  2.5362  1.0463
  102GLOH    O3 9607   4.991   4.251   1.092 -0.3976  0.1143  0.0771
  102GLOH   H01 9608   4.999   4.154   1.090  0.7416  0.2020  0.3111
  103GLOH   H03 9609   3.093   5.986   0.096  0.1878 -0.1345  0.1386
  103GLOH    O1 9610   3.016   6.006   0.152 -0.7139 -0.6796 -0.8873
  103GLOH    C1 9611   3.080   6.005   0.282 -0.2109  0.3215  0.3884
  103GLOH   H02 9612   3.167   6.070   0.289 -0.0962  0.2755 -0.5659
  103GLOH   H08 9613   3.112   5.908   0.319  1.5601  1.3192  1.5466
  103GLOH    C2 9614   2.990   6.040   0.395 -0.7471 -1.1421  0.9480
  103GLOH   H04 9615   2.911   5.963   0.401 -2.6358  0.6324 -0.6404
  103GLOH    O2 9616   3.062   6.041   0.520 -0.4589  0.1401 -0.2160
  103GLOH   H05 9617   3.002   6.033   0.596  2.0795 -0.7075  1.7767
  103GLOH    C3 9618   2.924   6.176   0.357 -0.4124 -0.4862 -0.5421
  103GLOH   H06 9619   2.998   6.251   0.331  0.2697 -1.2649 -0.8796
  103GLOH   H07 9620   2.862   6.207   0.442 -0.7432 -1.9915 -0.2102
  103GLOH    O3 9621   2.834   6.164   0.245  0.2467  0.5490 -0.2299
  103GLOH   H01 9622   2.879   6.107   0.180 -1.4433 -0.3993 -0.6015
  104GLOH   H03 9623   3.168   0.588   0.672  1.8323  1.1500  0.1205
  104GLOH    O1 9624   3.183   0.576   0.577  0.3425  0.0727 -0.0085
  104GLOH    C1 9625   3.152   0.695   0.503  0.2138  0.1660  0.1186
  104GLOH   H02 9626   3.063   0.740   0.547 -0.2345 -1.6726  1.1254
  104GLOH   H08 9627   3.117   0.667   0.404 -2.1717 -0.4146  1.1003
  104GLOH    C2 9628   3.267   0.798   0.491  0.4338  0.1338 -0.5347
  104GLOH   H04 9629   3.339   0.750   0.423  1.2782  2.2544 -1.1869
  104GLOH    O2 9630   3.220   0.920   0.430 -0.8300  0.1464 -0.2181
  104GLOH   H05 9631   3.180   0.984   0.491  0.0317  0.4590  0.0221
  104GLOH    C3 9632   3.337   0.836   0.624  0.0395 -0.0744 -0.5710
  104GLOH   H06 9633   3.422   0.901   0.603 -0.4536  0.9598  0.5481
  104GLOH   H07 9634   3.382   0.751   0.675 -0.3344  0.1519  0.1547
  104GLOH    O3 9635   3.238   0.897   0.710  0.8385  0.2043 -0.6161
  104GLOH   H01 9636   3.246   0.855   0.798  1.5189 -0.6997 -1.1058
  105GLOH   H03 9637   1.057   5.328   2.430  1.0803 -0.0045  0.6587
  105GLOH    O1 9638   1.099   5.397   2.375  0.0167  0.2618  0.1667
  105GLOH    C1 9639   1.053   5.370   2.242  0.3481  0.3829 -0.5108
  105GLOH   H02 9640   0.945   5.383   2.236 -0.3391 -2.9943  2.4761
  105GLOH   H08 9641   1.069   5.266   2.214  2.0738  0.6816 -0.6743
  105GLOH    C2 9642   1.139   5.449   2.140 -0.1150  0.0617  0.2253
  105GLOH   H04 9643   1.240   5.407   2.147  0.3158  1.1729  0.7210
  105GLOH    O2 9644   1.088   5.443   2.000 -0.0502  0.4580  0.1740
  105GLOH   H05 9645   1.004   5.492   1.999 -0.7761 -0.7204  1.1984
  105GLOH    C3 9646   1.151   5.598   2.182 -0.1105  0.0004 -0.1428
  105GLOH   H06 9647   1.207   5.645   2.101  1.0021  1.0577  1.2252
  105GLOH   H07 9648   1.219   5.611   2.266 -0.5285 -0.1462  0.2164
  105GLOH    O3 9649   1.035   5.672   2.212  0.2937  0.8656 -0.1965
  105GLOH   H01 9650   1.015   5.650   2.305 -0.8305  0.5465 -0.5062
  106GLOH   H03 9651   3.020   7.488   1.880 -0.7898  3.1806  0.6643
  106GLOH    O1 9652   2.934   7.459   1.915 -0.1323 -0.7297 -0.6927
  106GLOH    C1 9653   2.962   7.325   1.969  0.5845 -0.4022 -0.2424
  106GLOH   H02 9654   3.033   7.278   1.900  0.5510  0.6225 -0.9825
  106GLOH   H08 9655   2.872   7.263   1.972  0.5098 -0.2074  1.7714
  106GLOH    C2 9656   3.048   7.331   2.101  0.4090 -0.8005 -1.0724
  106GLOH   H04 9657   3.008   7.416   2.158  1.8528 -2.7340  3.0002
  106GLOH    O2 9658   3.047   7.218   2.191 -0.2424  0.0689 -0.1109
  106GLOH   H05 9659   2.961   7.229   2.235 -0.5704  1.1569 -1.0144
  106GLOH    C3 9660   3.194   7.363   2.075  0.5075 -0.4174 -0.6531
  106GLOH   H06 9661   3.235   7.280   2.018 -1.5333 -1.2876 -0.9204
  106GLOH   H07 9662   3.253   7.378   2.166  0.7657 -0.9244 -0.7345
  106GLOH    O3 9663   3.201   7.491   2.004 -0.1437 -0.6059 -0.3118
  106GLOH   H01 9664   3.191   7.563   2.069 -1.2500 -1.4552  0.4753
  107GLOH   H03 9665   5.098   3.982   1.236 -1.7073 -0.8607  0.1160
  107GLOH    O1 9666   5.087   3.995   1.140  0.5684 -0.5642 -0.1336
  107GLOH    C1 9667   5.163   3.897   1.065 -0.5570 -0.2737 -0.5199
  107GLOH   H02 9668   5.139   3.882   0.960 -1.3096  2.8752 -0.8285
  107GLOH   H08 9669   5.137   3.805   1.117 -2.0070  0.0589 -0.6488
  107GLOH    C2 9670   5.316   3.928   1.080 -0.4468  0.2247  0.1755
  107GLOH   H04 9671   5.345   3.931   1.186 -1.1881  1.3830  0.3524
  107GLOH    O2 9672   5.387   3.815   1.023  0.6406  0.6639  0.0806
  107GLOH   H05 9673   5.429   3.839   0.940 -0.6303 -0.1061 -0.8077
  107GLOH    C3 9674   5.363   4.058   1.001 -0.1275  0.4934  0.5631
  107GLOH   H06 9675   5.471   4.065   1.016  0.1451  0.1057 -1.1487
  107GLOH   H07 9676   5.315   4.145   1.045  0.4319  0.4134  1.3578
  107GLOH    O3 9677   5.339   4.044   0.862  0.5157 -0.2676 -0.4686
  107GLOH   H01 9678   5.360   4.126   0.814  0.6379  1.9722  3.2078
  108GLOH   H03 9679   4.504   1.163   0.206  2.0523 -1.7336 -2.7659
  108GLOH    O1 9680   4.447   1.190   0.131 -0.0169  0.0422 -0.6439
  108GLOH    C1 9681   4.481   1.114   0.009  0.1914  0.2401 -0.4487
  108GLOH   H02 9682   4.561   1.160  -0.048  0.8700 -1.5988 -1.0326
  108GLOH   H08 9683   4.393   1.100  -0.054 -0.2006  0.0777  0.1250
  108GLOH    C2 9684   4.531   0.968   0.039 -0.6152  0.2418  0.1540
  108GLOH   H04 9685   4.452   0.911   0.089  0.1694 -0.6611  0.3922
  108GLOH    O2 9686   4.561   0.895  -0.079 -1.0427  0.2316 -0.4067
  108GLOH   H05 9687   4.509   0.815  -0.096  0.7548 -1.0003 -0.2405
  108GLOH    C3 9688   4.652   0.984   0.131 -0.3720  0.2271 -0.1824
  108GLOH   H06 9689   4.717   1.039   0.064  1.1399 -0.3795  0.7566
  108GLOH   H07 9690   4.702   0.889   0.149 -2.1450 -0.4273  1.5674
  108GLOH    O3 9691   4.620   1.046   0.257 -0.3950 -0.7900 -0.7630
  108GLOH   H01 9692   4.566   0.984   0.309  1.8940 -0.5751  1.9565
  109GLOH   H03 9693   5.175   4.429   0.198 -0.5703  0.5444  0.0821
  109GLOH    O1 9694   5.249   4.396   0.253 -0.1526  0.2826 -0.6329
  109GLOH    C1 9695   5.175   4.316   0.349  0.1209 -0.6050 -1.0638
  109GLOH   H02 9696   5.125   4.231   0.303 -0.4217 -1.1134  0.4527
  109GLOH   H08 9697   5.099   4.382   0.390  1.6022  0.3749  0.1723
  109GLOH    C2 9698   5.258   4.262   0.466 -0.2778  0.3484  0.0814
  109GLOH   H04 9699   5.294   4.351   0.520  0.3549 -0.2767  0.6881
  109GLOH    O2 9700   5.166   4.182   0.546  0.2416 -0.3726  0.4082
  109GLOH   H05 9701   5.197   4.090   0.541  0.5752 -0.3455  1.6573
  109GLOH    C3 9702   5.368   4.174   0.413  0.4715 -1.2400 -0.6663
  109GLOH   H06 9703   5.409   4.139   0.507 -1.8445  2.7110  1.9477
  109GLOH   H07 9704   5.445   4.236   0.367  0.0751 -0.6624 -0.5563
  109GLOH    O3 9705   5.321   4.064   0.332  0.2223 -0.1222  0.2689
  109GLOH   H01 9706   5.309   4.095   0.240 -1.5009 -0.2609  0.4341
  110GLOH   H03 9707   4.426   1.720  -0.016 -0.0424 -0.1289  0.1802
  110GLOH    O1 9708   4.505   1.696   0.038 -0.1894 -0.2183  0.3581
  110GLOH    C1 9709   4.626   1.659  -0.032  0.1000 -0.4216  0.4586
  110GLOH   H02 9710   4.711   1.708   0.015 -0.7874  2.1888 -0.5697
  110GLOH   H08 9711   4.633   1.693  -0.136 -0.4905 -0.2260  0.4805
  110GLOH    C2 9712   4.641   1.508  -0.049  0.2603  0.8751 -0.1109
  110GLOH   H04 9713   4.552   1.469  -0.101  0.6459  1.1646 -0.9983
  110GLOH    O2 9714   4.761   1.483  -0.115  0.0958 -0.5132 -0.2623
  110GLOH   H05 9715   4.768   1.386  -0.118 -0.3760 -0.5574  0.0495
  110GLOH    C3 9716   4.653   1.455   0.097  0.6138 -0.2673 -0.5739
  110GLOH   H06 9717   4.749   1.462   0.148 -1.1112  1.3504  2.6401
  110GLOH   H07 9718   4.634   1.348   0.089 -0.0335 -0.1310 -0.8367
  110GLOH    O3 9719   4.552   1.507   0.186 -0.0334 -0.5271  0.6820
  110GLOH   H01 9720   4.517   1.588   0.143 -0.4990 -1.3541 -0.5102
  111GLOH   H03 9721   2.890   4.295   1.296  2.6510 -0.7760  1.2914
  111GLOH    O1 9722   2.925   4.347   1.222  0.2364 -0.4883  0.3050
  111GLOH    C1 9723   2.822   4.441   1.167 -0.4756 -0.4339  0.0727
  111GLOH   H02 9724   2.730   4.392   1.135 -0.1318 -2.7788  2.4630
  111GLOH   H08 9725   2.858   4.486   1.075 -4.3153  2.3417 -0.2211
  111GLOH    C2 9726   2.797   4.573   1.255  0.2855  0.8060  0.7760
  111GLOH   H04 9727   2.890   4.630   1.239  1.7626 -1.7255  0.0089
  111GLOH    O2 9728   2.685   4.652   1.211  0.2768 -0.5228 -0.0165
  111GLOH   H05 9729   2.600   4.608   1.227  0.5225 -0.9757  0.0691
  111GLOH    C3 9730   2.776   4.533   1.399 -1.1184  0.3046 -0.0645
  111GLOH   H06 9731   2.865   4.480   1.432 -2.0121 -1.4940 -0.4910
  111GLOH   H07 9732   2.699   4.456   1.400  0.3296 -1.1668 -0.8543
  111GLOH    O3 9733   2.741   4.639   1.491  0.2868 -0.3402 -0.2667
  111GLOH   H01 9734   2.816   4.701   1.491  1.8615 -2.1367 -2.5380
  112GLOH   H03 9735   5.381   4.600   0.682 -2.5141  1.6017 -0.3146
  112GLOH    O1 9736   5.348   4.546   0.757 -0.2973  0.0913 -0.3901
  112GLOH    C1 9737   5.260   4.622   0.842  0.1028  0.0319 -0.0851
  112GLOH   H02 9738   5.327   4.682   0.903 -1.1742 -0.8023  2.2098
  112GLOH   H08 9739   5.198   4.555   0.903  0.6868  0.3777  0.9060
  112GLOH    C2 9740   5.174   4.719   0.760 -0.2405  0.4197 -0.3202
  112GLOH   H04 9741   5.108   4.774   0.829  0.3519  2.7724 -1.5896
  112GLOH    O2 9742   5.251   4.807   0.681  0.3674 -0.4784  0.5874
  112GLOH   H05 9743   5.192   4.881   0.659 -0.3509 -0.5940  2.0625
  112GLOH    C3 9744   5.077   4.640   0.670  0.1020 -0.4365 -0.3598
  112GLOH   H06 9745   5.129   4.581   0.594 -2.2184 -0.3333 -2.0965
  112GLOH   H07 9746   5.023   4.720   0.619  0.0765  1.0082  1.8587
  112GLOH    O3 9747   4.983   4.563   0.743  0.2781 -0.2725 -0.6139
  112GLOH   H01 9748   4.989   4.467   0.729 -3.2676 -0.7024  0.1898
  113GLOH   H03 9749   4.055   9.739   1.833 -0.7943  0.1385  0.4367
  113GLOH    O1 9750   4.062   9.647   1.803  0.0518  0.0390  0.9309
  113GLOH    C1 9751   4.181   9.641   1.728  0.0978  0.2647 -0.6650
  113GLOH   H02 9752   4.267   9.688   1.777 -0.6702  2.2360 -1.1481
  113GLOH   H08 9753   4.165   9.695   1.634 -0.3414  1.4370  0.0619
  113GLOH    C2 9754   4.230   9.501   1.686 -0.1413  0.1051 -0.0552
  113GLOH   H04 9755   4.161   9.467   1.607 -0.1902 -1.5858  0.6941
  113GLOH    O2 9756   4.362   9.513   1.634 -0.5507 -1.0655  0.5867
  113GLOH   H05 9757   4.398   9.423   1.636  1.4403 -0.3377 -0.6378
  113GLOH    C3 9758   4.247   9.397   1.803 -0.3469  0.0427 -0.0087
  113GLOH   H06 9759   4.156   9.414   1.860 -1.0334  1.1409 -1.3835
  113GLOH   H07 9760   4.337   9.421   1.861 -1.9358 -0.2682  2.6487
  113GLOH    O3 9761   4.257   9.266   1.750  0.3357 -0.0189  0.3863
  113GLOH   H01 9762   4.272   9.203   1.823  0.6661  2.8872  2.9145
  114GLOH   H03 9763   9.813   4.486   0.440  0.2494  2.1416  2.8354
  114GLOH    O1 9764   9.794   4.418   0.507 -0.4720 -0.2338  0.2954
  114GLOH    C1 9765   9.663   4.443   0.541 -0.0917  0.3792  0.2733
  114GLOH   H02 9766   9.613   4.347   0.546  0.9954 -0.2802 -1.1685
  114GLOH   H08 9767   9.608   4.504   0.468 -0.2552 -0.1090 -0.0126
  114GLOH    C2 9768   9.647   4.502   0.680 -0.1804 -0.2162 -0.4123
  114GLOH   H04 9769   9.696   4.600   0.668  2.5926 -1.6140 -0.9873
  114GLOH    O2 9770   9.505   4.508   0.717 -0.0861 -0.0134  0.6885
  114GLOH   H05 9771   9.473   4.599   0.706 -0.4390 -0.2130  0.0335
  114GLOH    C3 9772   9.730   4.426   0.784 -0.2301 -0.1707 -0.1983
  114GLOH   H06 9773   9.722   4.318   0.773  4.3067 -0.2860 -3.5523
  114GLOH   H07 9774   9.684   4.454   0.879  0.8728  0.3633  0.1797
  114GLOH    O3 9775   9.870   4.458   0.781 -0.3306 -0.2106  0.3014
  114GLOH   H01 9776   9.898   4.457   0.687  0.4719 -2.0024  0.5447
  115GLOH   H03 9777   0.267   5.722   0.311 -0.4212  0.2552 -0.3231
  115GLOH    O1 9778   0.189   5.666   0.329 -0.2057  0.0399 -0.0608
  115GLOH    C1 9779   0.088   5.746   0.393 -0.1309  0.5256 -0.1922
  115GLOH   H02 9780   0.122   5.849   0.386  0.3543  0.3593 -0.3149
  115GLOH   H08 9781   0.087   5.720   0.499  0.0721 -0.6014 -0.4613
  115GLOH    C2 9782  -0.050   5.741   0.318  0.4173 -0.2776 -0.0921
  115GLOH   H04 9783  -0.069   5.638   0.286  0.6847 -0.4407  0.2725
  115GLOH    O2 9784  -0.147   5.792   0.404 -0.1803  0.0497  0.5147
  115GLOH   H05 9785  -0.228   5.801   0.350  0.8402  1.8173 -0.7649
  115GLOH    C3 9786  -0.038   5.831   0.193 -0.1146 -0.2671  0.0428
  115GLOH   H06 9787   0.025   5.916   0.216  0.6745 -0.8794  0.1836
  115GLOH   H07 9788  -0.140   5.866   0.177 -0.4073 -1.0941  0.0282
  115GLOH    O3 9789   0.023   5.771   0.075  0.9951 -0.4778 -0.0512
  115GLOH   H01 9790   0.001   5.831   0.001  1.3145 -3.2126 -2.4223
  116GLOH   H03 9791   4.730   3.419   0.960 -0.3669 -0.0741  1.3775
  116GLOH    O1 9792   4.817   3.383   0.985 -0.2555 -0.5637  0.3378
  116GLOH    C1 9793   4.916   3.485   1.010  0.5309 -0.8779 -0.0116
  116GLOH   H02 9794   5.007   3.449   1.058 -0.0345  0.3979  2.0763
  116GLOH   H08 9795   4.882   3.559   1.082 -0.5405 -1.1364 -0.2436
  116GLOH    C2 9796   4.939   3.558   0.879 -0.2740 -0.7309  0.2786
  116GLOH   H04 9797   4.843   3.597   0.840 -0.0716 -1.5729 -1.0891
  116GLOH    O2 9798   5.020   3.676   0.891 -0.3298 -0.1016  0.3231
  116GLOH   H05 9799   5.083   3.685   0.818  1.7802 -0.4901  2.0477
  116GLOH    C3 9800   5.001   3.470   0.772 -0.2122 -0.5154 -0.2666
  116GLOH   H06 9801   4.946   3.376   0.768 -0.0466 -0.6508  0.4512
  116GLOH   H07 9802   5.098   3.437   0.808  0.3788  0.3230 -1.0937
  116GLOH    O3 9803   5.009   3.534   0.647  0.0681 -0.2254 -0.1571
  116GLOH   H01 9804   5.101   3.565   0.643  0.0229 -0.1186 -0.3813
  117GLOH   H03 9805   3.838   7.740   0.365  0.1252  0.0329 -0.5220
  117GLOH    O1 9806   3.827   7.755   0.269  0.2136  0.4699 -0.4665
  117GLOH    C1 9807   3.710   7.691   0.205 -0.5689  0.5602 -0.3962
  117GLOH   H02 9808   3.625   7.745   0.247 -1.4750 -2.8948  2.3654
  117GLOH   H08 9809   3.712   7.585   0.229  0.6139  0.0881 -2.4696
  117GLOH    C2 9810   3.709   7.708   0.053 -0.0906 -0.0823 -0.0094
  117GLOH   H04 9811   3.783   7.643   0.004 -2.2141 -0.7404 -2.5085
  117GLOH    O2 9812   3.582   7.670   0.005 -0.0012  0.3648 -0.1085
  117GLOH   H05 9813   3.533   7.642   0.084  0.8607  1.1897  0.7254
  117GLOH    C3 9814   3.735   7.850   0.012 -0.2327  0.6092 -0.3705
  117GLOH   H06 9815   3.656   7.915   0.051 -1.2823 -1.7402  1.5417
  117GLOH   H07 9816   3.718   7.849  -0.095 -3.0648 -1.2868  0.0318
  117GLOH    O3 9817   3.864   7.893   0.052 -0.0703 -0.3646 -0.6245
  117GLOH   H01 9818   3.884   7.849   0.137  0.1603 -0.4526 -0.7213
  118GLOH   H03 9819   3.240   8.169   0.998  0.1678 -1.0999 -1.2165
  118GLOH    O1 9820   3.144   8.157   0.984 -0.0765 -0.6154 -0.0264
  118GLOH    C1 9821   3.093   8.225   0.870 -0.0061 -0.3598 -0.4239
  118GLOH   H02 9822   3.139   8.205   0.773 -1.5660 -0.0195 -1.2552
  118GLOH   H08 9823   3.107   8.332   0.882 -2.6475  0.3881 -3.1483
  118GLOH    C2 9824   2.948   8.188   0.829 -0.1977  0.2592 -0.2127
  118GLOH   H04 9825   2.946   8.090   0.780  0.6221  0.3872 -0.5241
  118GLOH    O2 9826   2.852   8.190   0.938 -0.1706  0.5086 -0.4752
  118GLOH   H05 9827   2.770   8.159   0.895 -0.1971  1.4374 -1.1092
  118GLOH    C3 9828   2.903   8.284   0.715  0.1855  0.6229  0.2361
  118GLOH   H06 9829   2.862   8.370   0.769 -1.4138 -0.1465  0.2705
  118GLOH   H07 9830   2.811   8.243   0.673 -0.6902  0.0767  2.6158
  118GLOH    O3 9831   2.995   8.317   0.609  0.1503  0.6183  0.1760
  118GLOH   H01 9832   2.939   8.352   0.537 -0.0222 -0.4542 -0.2274
  119GLOH   H03 9833   4.095   1.299   1.644 -2.5777 -1.4088  0.5094
  119GLOH    O1 9834   4.136   1.254   1.720 -0.0078 -0.0866 -0.0664
  119GLOH    C1 9835   4.034   1.242   1.823  0.0553 -0.3057 -0.6897
  119GLOH   H02 9836   4.078   1.218   1.920 -0.1882  0.2294 -0.4490
  119GLOH   H08 9837   3.968   1.158   1.799  1.6479 -1.6162 -0.5825
  119GLOH    C2 9838   3.968   1.381   1.842  0.2502  0.0858  0.5870
  119GLOH   H04 9839   3.910   1.392   1.749  2.7206  0.1769 -0.9855
  119GLOH    O2 9840   3.879   1.371   1.956 -0.6020 -0.0627  0.6533
  119GLOH   H05 9841   3.916   1.410   2.037 -1.1927  1.3356  0.2740
  119GLOH    C3 9842   4.076   1.486   1.871 -0.0749 -0.9200 -0.0279
  119GLOH   H06 9843   4.030   1.585   1.864  1.8072 -0.2161 -3.5897
  119GLOH   H07 9844   4.141   1.486   1.784 -1.7535 -0.7609 -1.3071
  119GLOH    O3 9845   4.155   1.456   1.983  0.0676  0.2851  0.0580
  119GLOH   H01 9846   4.102   1.477   2.063  0.3530 -3.5241  1.3634
  120GLOH   H03 9847   4.095   1.685   1.532  0.3240 -0.0071 -0.2499
  120GLOH    O1 9848   3.999   1.702   1.520  0.3553 -0.0724 -0.5999
  120GLOH    C1 9849   3.980   1.836   1.568  0.0784  0.1248 -0.1745
  120GLOH   H02 9850   4.034   1.845   1.662  0.5484  0.6838 -0.4935
  120GLOH   H08 9851   3.877   1.854   1.599 -0.2765 -1.3076 -0.4711
  120GLOH    C2 9852   4.018   1.942   1.463 -0.4490  0.0091 -0.5481
  120GLOH   H04 9853   4.125   1.935   1.436 -0.3343  1.6939 -0.6142
  120GLOH    O2 9854   3.930   1.937   1.345 -0.1313 -0.0648  0.1944
  120GLOH   H05 9855   3.977   1.914   1.264 -0.3667 -0.3313  0.1328
  120GLOH    C3 9856   3.998   2.082   1.532 -0.0433  0.4702  0.3909
  120GLOH   H06 9857   3.895   2.085   1.567 -1.1077 -0.2283 -2.5824
  120GLOH   H07 9858   4.011   2.157   1.454 -0.9930 -0.4677 -0.6726
  120GLOH    O3 9859   4.088   2.097   1.644 -0.1203 -0.3171  0.2443
  120GLOH   H01 9860   4.151   2.164   1.612 -0.3704 -0.4779 -0.5968
  121ACOH    H4 9861   3.431   2.236   0.207  0.8722  1.3424 -0.1627
  121ACOH    O2 9862   3.444   2.258   0.300  1.1342  0.0391  0.1296
  121ACOH    C2 9863   3.577   2.254   0.322  0.7336  0.0604 -0.1442
  121ACOH    O1 9864   3.667   2.249   0.240 -0.3475 -0.1089  0.9170
  121ACOH    C1 9865   3.605   2.303   0.458 -0.5960  0.2845  0.0964
  121ACOH    H1 9866   3.619   2.411   0.451  0.9143  0.0556 -0.7432
  121ACOH    H2 9867   3.696   2.255   0.495  0.0307  1.4710  0.1247
  121ACOH    H3 9868   3.525   2.281   0.529 -0.9987 -3.3017 -1.3927
  122ACOH    H4 9869   9.693   5.899   1.294  0.4299  1.3814 -0.2167
  122ACOH    O2 9870   9.611   5.946   1.272 -0.3578 -0.0233 -0.3272
  122ACOH    C2 9871   9.513   5.861   1.246 -0.2391  0.1175 -0.5148
  122ACOH    O1 9872   9.513   5.743   1.218  0.4183  0.3342 -0.6951
  122ACOH    C1 9873   9.397   5.936   1.252 -0.2300 -0.5486  0.6077
  122ACOH    H1 9874   9.310   5.871   1.247 -1.5278  1.2618 -0.7781
  122ACOH    H2 9875   9.402   5.984   1.154 -0.8530 -1.5066  0.0941
  122ACOH    H3 9876   9.400   6.012   1.329 -1.1697 -1.7892  1.8781
  123ACOH    H4 9877   2.972   0.627   1.867  0.3810  0.4477  0.0077
  123ACOH    O2 9878   2.888   0.595   1.904  0.1591  0.6363 -0.3337
  123ACOH    C2 9879   2.841   0.702   1.972  0.2042  0.4260  0.6360
  123ACOH    O1 9880   2.871   0.822   1.958 -0.4323  0.1249  0.5880
  123ACOH    C1 9881   2.740   0.660   2.067 -0.1926  0.0868 -0.5475
  123ACOH    H1 9882   2.799   0.652   2.158 -1.1936  1.4098  0.2418
  123ACOH    H2 9883   2.688   0.569   2.037 -1.5007  0.4074  0.6545
  123ACOH    H3 9884   2.676   0.748   2.074  0.3038  0.4706 -0.7954
  124ACOH    H4 9885   9.436   4.510   1.711 -0.2244  0.0503 -1.0958
  124ACOH    O2 9886   9.365   4.575   1.698 -0.1949  0.2304 -0.3565
  124ACOH    C2 9887   9.353   4.610   1.569  0.0939 -0.2102 -0.0602
  124ACOH    O1 9888   9.417   4.562   1.481 -0.1358  0.1923 -0.7372
  124ACOH    C1 9889   9.261   4.729   1.559 -0.1518  0.4603 -0.1365
  124ACOH    H1 9890   9.276   4.808   1.632 -0.0296  2.3296 -2.1099
  124ACOH    H2 9891   9.159   4.691   1.563  0.0859 -0.0956  0.8345
  124ACOH    H3 9892   9.268   4.771   1.459 -0.8065  0.9564  0.0283
  125ACOH    H4 9893   1.327   6.298   1.230 -0.5925 -0.1952  0.2420
  125ACOH    O2 9894   1.307   6.393   1.243  0.6551  0.1022 -0.0127
  125ACOH    C2 9895   1.310   6.461   1.131  0.4918 -0.1060 -0.4899
  125ACOH    O1 9896   1.277   6.426   1.025  0.2975  0.1466 -0.0695
  125ACOH    C1 9897   1.328   6.604   1.153 -1.2108 -0.3147 -0.1766
  125ACOH    H1 9898   1.286   6.667   1.074 -1.8780  0.3260  0.6828
  125ACOH    H2 9899   1.435   6.621   1.146 -1.4048  1.3426  0.5148
  125ACOH    H3 9900   1.293   6.640   1.250 -1.6608  0.5439 -0.6480
  126ACOH    H4 9901   3.448   3.231   2.502 -0.6455 -0.8650  2.2369
  126ACOH    O2 9902   3.377   3.178   2.461 -0.0296 -0.2374  0.3276
  126ACOH    C2 9903   3.328   3.258   2.369  0.3841 -0.1745 -0.3038
  126ACOH    O1 9904   3.395   3.343   2.307 -0.4063 -0.5242 -0.3775
  126ACOH    C1 9905   3.188   3.224   2.335  0.0663  1.0039  0.1767
  126ACOH    H1 9906   3.123   3.268   2.410  1.0369  1.1148  0.9584
  126ACOH    H2 9907   3.179   3.116   2.345 -0.1220  0.9715 -0.3172
  126ACOH    H3 9908   3.151   3.257   2.238 -0.9143 -0.6413 -0.0345
  127ACOH    H4 9909   4.535   0.518   0.470  0.0993  0.5080 -1.3734
  127ACOH    O2 9910   4.615   0.467   0.488 -0.0703  0.5096 -0.5976
  127ACOH    C2 9911   4.693   0.567   0.530 -0.3343  0.2492 -0.8173
  127ACOH    O1 9912   4.670   0.679   0.552 -0.9244 -0.0667 -0.3850
  127ACOH    C1 9913   4.823   0.509   0.567 -0.7367 -0.3735 -0.5580
  127ACOH    H1 9914   4.809   0.413   0.617 -0.0598  0.5033  1.3517
  127ACOH    H2 9915   4.880   0.572   0.634 -0.2699 -1.3142 -0.0571
  127ACOH    H3 9916   4.877   0.479   0.477  1.0126 -0.0069  0.3553
  128ACOH    H4 9917   3.382   7.715   0.550  2.0906  1.3044 -1.6509
  128ACOH    O2 9918   3.384   7.640   0.488 -0.9298 -0.0431 -0.2267
  128ACOH    C2 9919   3.299   7.546   0.537  0.9046  1.3075  0.9945
  128ACOH    O1 9920   3.208   7.561   0.619  0.3004  0.1892 -0.0691
  128ACOH    C1 9921   3.344   7.415   0.479 -0.2776  0.6614  1.2771
  128ACOH    H1 9922   3.452   7.406   0.487 -0.4294  0.6972  3.7404
  128ACOH    H2 9923   3.310   7.408   0.376  0.6848  1.6787  0.8833
  128ACOH    H3 9924   3.309   7.326   0.531 -0.4654  0.1021  0.1949
  129ACOH    H4 9925   5.434   9.657   1.480 -0.3006  2.6108 -2.6363
  129ACOH    O2 9926   5.444   9.724   1.550 -0.3710  0.0928 -0.1214
  129ACOH    C2 9927   5.532   9.682   1.644  0.0290  0.2076 -0.4916
  129ACOH    O1 9928   5.596   9.580   1.646  0.5440 -0.8647  0.3551
  129ACOH    C1 9929   5.546   9.789   1.745  0.2198 -0.2731  0.2403
  129ACOH    H1 9930   5.484   9.758   1.829 -2.3499 -0.4998 -1.6840
  129ACOH    H2 9931   5.508   9.884   1.709  1.9903  0.5134  0.3856
  129ACOH    H3 9932   5.649   9.799   1.780  0.9111 -1.2372 -1.4173
  130ACOH    H4 9933   4.940   1.514   1.620  0.8675  1.5327  0.5859
  130ACOH    O2 9934   4.984   1.506   1.534  0.3963 -0.8397  0.5152
  130ACOH    C2 9935   5.014   1.382   1.489  0.1993  0.1539 -1.0192
  130ACOH    O1 9936   4.987   1.276   1.542 -0.0677  0.3667 -0.1019
  130ACOH    C1 9937   5.093   1.375   1.359 -0.1775  0.0406  0.1326
  130ACOH    H1 9938   5.120   1.271   1.337  0.5095  0.2077  0.1585
  130ACOH    H2 9939   5.180   1.441   1.355 -0.8522  0.9355  0.0616
  130ACOH    H3 9940   5.019   1.406   1.286 -0.0512 -1.8365 -0.8170
  131ACOH    H4 9941   9.288   5.271   1.615 -1.7629 -1.8881  0.0030
  131ACOH    O2 9942   9.233   5.315   1.681  0.2887 -0.0563  0.5489
  131ACOH    C2 9943   9.259   5.447   1.674 -0.2811  0.1815 -0.6868
  131ACOH    O1 9944   9.331   5.509   1.597 -0.0498 -0.1276 -0.6262
  131ACOH    C1 9945   9.177   5.512   1.778  0.3529 -0.4903  0.5087
  131ACOH    H1 9946   9.079   5.533   1.735  1.2440  2.1660 -0.3561
  131ACOH    H2 9947   9.227   5.605   1.806 -1.2976  1.0104 -1.3627
  131ACOH    H3 9948   9.173   5.442   1.861  0.9432 -0.6250  0.4213
  132ACOH    H4 9949   9.486   4.376   0.816 -1.4995  0.9440  1.3445
  132ACOH    O2 9950   9.446   4.301   0.864 -0.7498 -0.3936 -0.0867
  132ACOH    C2 9951   9.394   4.345   0.980 -0.3732 -0.0991 -0.0738
  132ACOH    O1 9952   9.328   4.452   0.996 -0.0537  0.0661 -0.6219
  132ACOH    C1 9953   9.393   4.241   1.080  0.7060  0.1666  0.3046
  132ACOH    H1 9954   9.357   4.147   1.037 -1.6275  1.6676 -1.1553
  132ACOH    H2 9955   9.322   4.265   1.160 -1.3316 -0.0457 -1.3926
  132ACOH    H3 9956   9.490   4.233   1.128  0.0844 -0.2791  1.5234
  133ACOH    H4 9957   9.546   4.936   1.682 -0.3102  0.2468 -0.0342
  133ACOH    O2 9958   9.457   4.924   1.720 -0.2481 -0.1548 -0.0149
  133ACOH    C2 9959   9.463   4.881   1.845  0.2752  0.4212 -0.2434
  133ACOH    O1 9960   9.563   4.861   1.914 -0.3697 -0.4373 -0.5048
  133ACOH    C1 9961   9.330   4.906   1.902  0.3078 -0.3682  0.0591
  133ACOH    H1 9962   9.322   5.014   1.915  0.6537  0.0961 -3.1253
  133ACOH    H2 9963   9.314   4.863   2.001  1.0817 -2.0304 -0.5171
  133ACOH    H3 9964   9.254   4.876   1.830 -1.6851  1.1697  1.4414
  134ACOH    H4 9965   5.381   3.096   2.255  1.0415  1.3260 -0.2635
  134ACOH    O2 9966   5.450   3.061   2.313  0.0381 -0.7514 -0.2466
  134ACOH    C2 9967   5.420   3.087   2.441 -0.2446 -0.5632 -0.2786
  134ACOH    O1 9968   5.336   3.161   2.488  0.2089 -0.3686 -0.2728
  134ACOH    C1 9969   5.527   3.041   2.533  0.8818 -0.1455  0.0465
  134ACOH    H1 9970   5.480   2.974   2.605 -0.8920  0.3969 -0.5774
  134ACOH    H2 9971   5.572   3.128   2.581 -2.2297  2.2570 -1.2280
  134ACOH    H3 9972   5.612   2.991   2.486  0.3867 -1.0205  0.0605
  135ACOH    H4 9973   0.707   4.216   1.051  1.6103  0.6620  0.5834
  135ACOH    O2 9974   0.748   4.205   0.963  0.2980  0.1180  0.0307
  135ACOH    C2 9975   0.782   4.080   0.935 -0.1214  0.2026 -0.4041
  135ACOH    O1 9976   0.756   3.974   0.994  0.6979  0.1050 -0.3444
  135ACOH    C1 9977   0.827   4.064   0.799 -0.4984  0.7571  0.4639
  135ACOH    H1 9978   0.891   4.152   0.792  0.3866  0.0660 -0.2174
  135ACOH    H2 9979   0.741   4.068   0.732  0.5419 -0.1457 -0.9330
  135ACOH    H3 9980   0.888   3.976   0.785 -0.1655  1.3632 -2.0972
  136ACOH    H4 9981   3.700   0.678   1.498  1.3159 -0.4534  0.5296
  136ACOH    O2 9982   3.661   0.605   1.448  0.3904  0.3030  0.1480
  136ACOH    C2 9983   3.745   0.504   1.447  0.2054  0.7157  0.0029
  136ACOH    O1 9984   3.842   0.495   1.518  0.0789  0.8736 -0.0760
  136ACOH    C1 9985   3.695   0.391   1.371  0.0401  0.1688 -0.4946
  136ACOH    H1 9986   3.634   0.330   1.436  0.5313 -1.2253 -1.3151
  136ACOH    H2 9987   3.785   0.336   1.344  0.5137  1.3826 -1.4790
  136ACOH    H3 9988   3.647   0.434   1.283 -0.3748  2.8696  0.9972
  137ACOH    H4 9989   8.999   4.931   1.236  1.2503 -0.0330  1.4364
  137ACOH    O2 9990   8.951   4.848   1.253  0.2613  0.3453  0.5698
  137ACOH    C2 9991   8.951   4.781   1.134  0.3380 -1.2296 -0.1337
  137ACOH    O1 9992   8.990   4.825   1.025 -0.0156 -0.3679  0.1771
  137ACOH    C1 9993   8.899   4.646   1.157  0.2294  0.1649  0.1572
  137ACOH    H1 9994   8.925   4.587   1.069  0.7895 -0.3865  0.6837
  137ACOH    H2 9995   8.791   4.650   1.168  0.1330 -0.6561 -0.4647
  137ACOH    H3 9996   8.944   4.605   1.248  0.9647 -0.3848 -0.4436
  138ACOH    H4 9997   9.844   4.261   0.521  1.2758 -0.2525  2.3934
  138ACOH    O2 9998   9.877   4.170   0.511 -0.3817 -0.6827  0.6012
  138ACOH    C2 9999   9.928   4.145   0.390  0.2887 -0.4580  0.2877
  138ACOH    O110000   9.922   4.218   0.294 -0.0186 -0.1603 -0.2935
  138ACOH    C110001  10.026   4.034   0.404 -0.1843  0.0112  0.2406
  138ACOH    H110002  10.003   3.987   0.500  0.4839  2.8230  1.8174
  138ACOH    H210003  10.128   4.070   0.414 -0.0054  0.6336 -3.2728
  138ACOH    H310004  10.022   3.962   0.323  1.5504 -0.5299  0.6179
  139ACOH    H410005   5.323   3.495   0.614  0.9257  0.1738  0.8327
  139ACOH    O210006   5.294   3.500   0.521  0.1012 -0.5017  1.0486
  139ACOH    C210007   5.346   3.391   0.461  0.1987 -0.1267  0.2087
  139ACOH    O110008   5.415   3.304   0.509 -0.0718  0.0467 -0.3936
  139ACOH    C110009   5.303   3.375   0.317  0.6593 -0.4388 -0.3655
  139ACOH    H110010   5.339   3.284   0.269  0.3521  0.3921 -2.2217
  139ACOH    H210011   5.326   3.464   0.259 -0.9949  0.2826  0.0684
  139ACOH    H310012   5.195   3.385   0.324  0.6872  0.5494 -1.2629
  140ACOH    H410013   4.393   8.819   1.859 -0.4700 -0.7611 -0.0381
  140ACOH    O210014   4.397   8.835   1.955  0.1996 -0.4798 -0.1135
  140ACOH    C210015   4.390   8.969   1.977  0.5012 -0.2172  0.0603
  140ACOH    O110016   4.374   9.046   1.884 -0.4464  0.0159 -0.2242
  140ACOH    C110017   4.418   9.004   2.113 -0.8265 -0.0768 -0.0338
  140ACOH    H110018   4.492   9.084   2.127 -1.7542  1.0418 -1.3641
  140ACOH    H210019   4.456   8.922   2.174  2.7592  2.5706  1.5306
  140ACOH    H310020   4.328   9.045   2.157 -2.2574 -1.6340 -1.4600
  141ACOH    H410021   3.438   7.195   1.550  1.9755 -1.1168 -0.6680
  141ACOH    O210022   3.381   7.126   1.588 -0.0941  0.8350 -0.1001
  141ACOH    C210023   3.310   7.068   1.490  0.3700  0.1785 -0.7197
  141ACOH    O110024   3.300   7.096   1.373 -0.1564 -0.4033 -0.5789
  141ACOH    C110025   3.237   6.954   1.550  0.1415  0.4920 -0.0023
  141ACOH    H110026   3.300   6.903   1.624  1.2248  0.7952 -0.7107
  141ACOH    H210027   3.229   6.870   1.481 -2.3742  1.0477 -0.4438
  141ACOH    H310028   3.139   6.989   1.582  0.2369 -0.5022  1.4870
  142ACOH    H410029   5.912   3.656   1.409 -0.0864 -0.6743 -0.6803
  142ACOH    O210030   5.866   3.593   1.467  0.1600  0.1038  0.3736
  142ACOH    C210031   5.958   3.523   1.534 -0.0536  0.5735  0.1802
  142ACOH    O110032   6.077   3.539   1.514  0.2550  0.0228 -0.1171
  142ACOH    C110033   5.904   3.428   1.634  0.1345 -1.6056  0.3518
  142ACOH    H110034   5.977   3.372   1.691  1.8537  2.7240  2.6602
  142ACOH    H210035   5.833   3.359   1.589 -0.2942 -0.5031 -0.6942
  142ACOH    H310036   5.848   3.481   1.712 -0.3893  0.2817 -1.2817
  143ACOH    H410037   3.671   5.845   1.513 -0.0344  0.3418 -0.3579
  143ACOH    O210038   3.728   5.785   1.462  0.5452  0.4008  0.2179
  143ACOH    C210039   3.811   5.720   1.547  0.0847 -0.5557 -0.2592
  143ACOH    O110040   3.803   5.719   1.668 -0.0637 -0.9246  0.2962
  143ACOH    C110041   3.913   5.636   1.477 -0.3370 -0.4615  0.4950
  143ACOH    H110042   3.977   5.587   1.550  1.4567 -1.2680 -1.5716
  143ACOH    H210043   3.967   5.713   1.422 -1.9508  1.4917  1.5713
  143ACOH    H310044   3.879   5.558   1.409  0.7364 -0.6337  0.1503
  144ACOH    H410045   5.732   2.976   1.129 -0.0736  0.4245  0.1813
  144ACOH    O210046   5.787   3.016   1.198  0.0946  0.1747  0.1913
  144ACOH    C210047   5.750   2.960   1.318  0.2457  0.4831 -0.7398
  144ACOH    O110048   5.691   2.854   1.331  0.1548 -0.3482  0.0489
  144ACOH    C110049   5.799   3.017   1.450  0.2681  0.9406  0.5720
  144ACOH    H110050   5.877   3.090   1.432  2.4450 -0.9311  2.1624
  144ACOH    H210051   5.836   2.941   1.519  0.0965 -0.7695 -1.1720
  144ACOH    H310052   5.710   3.064   1.491 -0.6043  0.7488 -1.0451
  145ACOH    H410053   3.806   8.214   0.872  0.0601  0.4663 -0.1039
  145ACOH    O210054   3.761   8.295   0.843  0.3585  0.7591  0.2477
  145ACOH    C210055   3.821   8.396   0.910  0.3783  0.6433  0.0568
  145ACOH    O110056   3.903   8.384   1.001  0.0824 -0.6582  0.0823
  145ACOH    C110057   3.762   8.532   0.882  0.6735 -0.4097 -0.0338
  145ACOH    H110058   3.746   8.529   0.774  2.1203 -1.6587 -0.2446
  145ACOH    H210059   3.837   8.608   0.905  1.2328 -1.4698  1.7710
  145ACOH    H310060   3.666   8.548   0.931 -0.5928  0.0334 -2.5919
  146ACOH    H410061   3.143   6.731   1.281 -0.3506  0.6852  1.2069
  146ACOH    O210062   3.199   6.772   1.213 -0.9465 -0.4415 -0.0094
  146ACOH    C210063   3.315   6.697   1.230  0.5575  0.1284  0.3461
  146ACOH    O110064   3.336   6.617   1.321 -0.2801  0.0251 -0.0801
  146ACOH    C110065   3.423   6.733   1.142 -0.5719  0.0939  0.2446
  146ACOH    H110066   3.427   6.840   1.125  0.6108  0.0919  0.4481
  146ACOH    H210067   3.397   6.692   1.044 -1.8702  1.8321 -0.1586
  146ACOH    H310068   3.523   6.692   1.159 -0.7323 -1.0162 -1.3231
  147ACOH    H410069   4.130   4.069   0.625  0.7135 -0.8923 -0.4194
  147ACOH    O210070   4.052   4.031   0.582  0.2131 -0.2414 -0.0822
  147ACOH    C210071   4.069   4.068   0.452  0.7448  0.5102  0.1624
  147ACOH    O110072   4.173   4.114   0.407  0.2502 -0.1097 -0.1450
  147ACOH    C110073   3.948   4.038   0.377  0.5922 -0.5897 -0.6642
  147ACOH    H110074   3.921   4.118   0.308  1.5198  1.0845  0.8621
  147ACOH    H210075   3.869   4.008   0.447  0.6291  1.5361  0.3093
  147ACOH    H310076   3.970   3.950   0.317 -1.4225 -1.2172 -0.5281
  148ACOH    H410077   4.015   8.458   2.463 -0.2157  1.9991  1.0728
  148ACOH    O210078   4.112   8.460   2.457 -0.1714 -0.5770  0.0972
  148ACOH    C210079   4.157   8.437   2.580 -0.6613  1.0115 -0.3478
  148ACOH    O110080   4.090   8.464   2.678  0.0773 -0.1115 -0.6234
  148ACOH    C110081   4.302   8.413   2.585 -0.4657 -0.8390 -0.0347
  148ACOH    H110082   4.308   8.330   2.656 -0.9131 -1.1053 -0.3094
  148ACOH    H210083   4.342   8.501   2.635 -2.6083 -0.1089  0.4729
  148ACOH    H310084   4.341   8.388   2.487 -2.0287  1.7567 -1.3558
  149ACOH    H410085   9.173   4.837   0.343  1.1364  1.8655 -0.0910
  149ACOH    O210086   9.090   4.859   0.390  0.2446 -0.3095 -0.6103
  149ACOH    C210087   9.123   4.904   0.516  0.7283 -0.3032 -0.0305
  149ACOH    O110088   9.233   4.925   0.558 -0.7328  0.0877  0.0031
  149ACOH    C110089   9.015   4.910   0.611  0.6418  0.0736  0.2700
  149ACOH    H110090   8.921   4.906   0.556 -0.3604 -1.3149  2.0048
  149ACOH    H210091   9.021   4.993   0.682 -0.5609  1.5600 -1.3275
  149ACOH    H310092   9.024   4.816   0.667 -1.2387  0.6773  1.6384
  150ACOH    H410093   9.837   6.145   1.612 -0.1603 -0.1981  0.8069
  150ACOH    O210094   9.862   6.238   1.626  0.8780 -0.3717  0.1954
  150ACOH    C210095   9.876   6.251   1.759  0.2332  0.0753 -0.9140
  150ACOH    O110096   9.910   6.163   1.830  0.1003  0.4840  0.1655
  150ACOH    C110097   9.909   6.387   1.804 -0.4739 -0.0224 -0.4725
  150ACOH    H110098  10.017   6.390   1.794 -0.1874 -2.3757  1.4018
  150ACOH    H210099   9.864   6.410   1.901  0.0339  2.7154 -0.8483
  150ACOH    H310100   9.865   6.462   1.738 -1.4062 -0.3521 -0.2393
  151ACOH    H410101   8.980   5.207   0.608 -0.7636  1.0891 -0.1678
  151ACOH    O210102   8.883   5.197   0.607 -0.5782 -0.8428  0.0561
  151ACOH    C210103   8.850   5.214   0.480  0.5731 -0.7800  0.3174
  151ACOH    O110104   8.923   5.240   0.385 -0.5158  0.2695  0.4751
  151ACOH    C110105   8.700   5.214   0.471 -0.6643  0.3274  0.0574
  151ACOH    H110106   8.672   5.108   0.474  2.2358 -0.5488 -2.1774
  151ACOH    H210107   8.670   5.256   0.375 -2.8201 -1.1067  0.0640
  151ACOH    H310108   8.656   5.260   0.560 -2.6156 -2.0639  0.4095
  152ACOH    H410109   2.325   7.399   0.899 -1.8120 -1.5828 -0.6316
  152ACOH    O210110   2.272   7.470   0.859 -0.1111 -0.0672 -0.2674
  152ACOH    C210111   2.156   7.458   0.918  0.1060 -0.0992  0.1571
  152ACOH    O110112   2.120   7.373   1.000  0.3919 -0.0974 -0.2441
  152ACOH    C110113   2.061   7.563   0.873  0.5657 -0.8353  0.5211
  152ACOH    H110114   2.027   7.545   0.771  1.0016  0.0593  0.2137
  152ACOH    H210115   2.113   7.659   0.875  1.4703 -1.2496 -1.6706
  152ACOH    H310116   1.974   7.570   0.938 -1.0767 -1.9858 -1.5001
  153ACOH    H410117   3.047   5.396   1.357 -2.0382  1.6794 -0.6034
  153ACOH    O210118   2.990   5.321   1.331 -0.0979 -0.0469 -0.0624
  153ACOH    C210119   2.933   5.342   1.210 -0.3867 -0.1475 -0.4497
  153ACOH    O110120   2.937   5.438   1.135 -0.1535  0.3863  0.0208
  153ACOH    C110121   2.847   5.223   1.190 -0.2398  0.1450 -0.1049
  153ACOH    H110122   2.787   5.236   1.100  0.3924  0.1825 -0.5255
  153ACOH    H210123   2.783   5.194   1.273 -0.3119 -0.6966 -0.4511
  153ACOH    H310124   2.909   5.138   1.164 -1.2642 -0.8724  0.7428
  154ACOH    H410125   2.873  10.212   1.623  1.4187  0.8951  1.2691
  154ACOH    O210126   2.824  10.296   1.623 -0.2744 -0.0565 -0.1478
  154ACOH    C210127   2.873  10.371   1.518  0.0067 -0.9180 -0.7404
  154ACOH    O110128   2.975  10.345   1.455  0.4060  0.5478 -0.7999
  154ACOH    C110129   2.805  10.501   1.513  0.2958 -0.0622 -0.5747
  154ACOH    H110130   2.699  10.486   1.531  0.5377  0.0971  1.1451
  154ACOH    H210131   2.816  10.531   1.409  1.9422  1.0470 -0.0957
  154ACOH    H310132   2.854  10.563   1.588  0.5135  0.5955 -1.2578
  155ACOH    H410133   9.570   6.019   1.951  0.7897 -0.2782  1.3099
  155ACOH    O210134   9.476   6.041   1.967  0.7093  0.2557  0.1280
  155ACOH    C210135   9.407   5.931   1.931 -0.3303  0.0623  0.6799
  155ACOH    O110136   9.444   5.853   1.844  0.0126  0.0098  0.4871
  155ACOH    C110137   9.267   5.959   1.961  0.0688  0.1779 -0.1044
  155ACOH    H110138   9.212   5.875   1.920  0.7731 -1.2392  1.7616
  155ACOH    H210139   9.234   6.054   1.919  3.0228  1.1992 -0.2708
  155ACOH    H310140   9.242   5.961   2.067 -0.8175  2.2201 -0.3343
  156ACOH    H410141   5.657   3.344   1.144 -0.4684  1.9999  0.3864
  156ACOH    O210142   5.748   3.355   1.112 -0.1364 -0.2749  0.4612
  156ACOH    C210143   5.818   3.314   1.222  0.4827 -0.0299 -0.2100
  156ACOH    O110144   5.772   3.325   1.337 -0.3644  0.0606 -0.3999
  156ACOH    C110145   5.963   3.301   1.193  0.1841 -0.4911 -0.0443
  156ACOH    H110146   5.968   3.205   1.143  2.1633  1.1242 -3.0944
  156ACOH    H210147   6.016   3.311   1.288 -1.3690  2.6971  0.5817
  156ACOH    H310148   6.008   3.381   1.135  0.5019 -0.3989  0.3291
  157ACOH    H410149   5.618   4.006   1.883  0.2296  1.8164 -0.4445
  157ACOH    O210150   5.675   3.954   1.824 -0.2627  0.4670  0.2416
  157ACOH    C210151   5.616   3.838   1.793  0.7403 -0.1491  0.1038
  157ACOH    O110152   5.511   3.795   1.843 -1.2142  0.0295  0.0688
  157ACOH    C110153   5.702   3.759   1.701  0.5237  0.7363  0.3738
  157ACOH    H110154   5.805   3.787   1.723  2.1913 -3.7539 -1.1371
  157ACOH    H210155   5.675   3.769   1.596 -3.0397  1.6757  1.3029
  157ACOH    H310156   5.676   3.657   1.727 -1.0513  1.1123  0.3157
  158ACOH    H410157   2.596   9.377   1.440  0.7229 -0.8772  0.3420
  158ACOH    O210158   2.571   9.283   1.434 -0.3365 -0.5941  0.1402
  158ACOH    C210159   2.602   9.242   1.309 -0.5009 -0.0351 -0.5138
  158ACOH    O110160   2.693   9.279   1.232 -0.0212 -0.0455  0.0045
  158ACOH    C110161   2.533   9.108   1.290  0.4858  0.8033 -0.2832
  158ACOH    H110162   2.500   9.057   1.380  0.3393 -0.3649 -0.9950
  158ACOH    H210163   2.597   9.044   1.229 -0.2573 -2.6557  2.4005
  158ACOH    H310164   2.443   9.137   1.237 -1.3400 -0.5484  1.9896
  159ACOH    H410165   4.103   4.588   1.348 -1.4042  1.3596  0.1283
  159ACOH    O210166   4.046   4.611   1.272 -0.5431  0.5096 -0.7931
  159ACOH    C210167   4.082   4.723   1.213 -0.6381  0.1243  0.4813
  159ACOH    O110168   4.156   4.807   1.259 -0.0501  0.1203 -0.2182
  159ACOH    C110169   4.008   4.749   1.091  0.2226 -0.5060 -1.1327
  159ACOH    H110170   4.077   4.768   1.009  0.5831  1.0569 -0.4711
  159ACOH    H210171   3.952   4.842   1.104 -0.6172 -1.2121  0.4184
  159ACOH    H310172   3.933   4.674   1.064 -1.5754  0.8159  0.0903
  160ACOH    H410173   4.437   9.826   2.583  1.3797  0.7076  1.6684
  160ACOH    O210174   4.516   9.800   2.532  0.2837  0.4379  0.0971
  160ACOH    C210175   4.556   9.681   2.569  0.1983  0.8350 -1.3004
  160ACOH    O110176   4.490   9.612   2.649 -0.2707 -0.1455 -0.0671
  160ACOH    C110177   4.668   9.640   2.489  0.4527 -0.7829  0.7882
  160ACOH    H110178   4.706   9.543   2.520  0.1754 -0.6190  1.6521
  160ACOH    H210179   4.737   9.724   2.500 -1.3264  0.8962 -0.4074
  160ACOH    H310180   4.648   9.639   2.382  1.9639 -0.4191  0.4904
  161ACOH    H410181   4.839   1.203   1.164 -0.7098  0.0073  1.7577
  161ACOH    O210182   4.921   1.169   1.203 -0.0313 -0.3588  0.0857
  161ACOH    C210183   4.900   1.054   1.259  0.1120 -0.8052  0.1267
  161ACOH    O110184   4.792   1.003   1.272 -0.0298 -0.2988 -0.5029
  161ACOH    C110185   5.014   1.012   1.341  0.4066  0.2356  0.6537
  161ACOH    H110186   5.006   1.067   1.434 -0.3258 -0.1166  0.8010
  161ACOH    H210187   5.112   1.036   1.300  0.5062  0.0047  0.7590
  161ACOH    H310188   5.021   0.906   1.363  1.1937 -0.6823 -3.5472
  162ACOH    H410189   4.402   0.762   1.707 -0.5950 -2.5173  0.4792
  162ACOH    O210190   4.409   0.755   1.804 -0.3702 -0.0105  0.6529
  162ACOH    C210191   4.539   0.775   1.830 -0.1921 -0.1631 -0.2752
  162ACOH    O110192   4.640   0.774   1.756  0.3927 -0.1149  0.5947
  162ACOH    C110193   4.548   0.793   1.974  0.1903 -0.1401  0.2200
  162ACOH    H110194   4.456   0.760   2.021 -0.2381  0.2273 -0.3604
  162ACOH    H210195   4.565   0.899   1.988  2.6151 -0.4146 -0.3838
  162ACOH    H310196   4.631   0.730   2.007  0.7978  0.9610  0.8241
  163ACOH    H410197   5.652   2.736   1.449  0.0525  0.5236  0.9877
  163ACOH    O210198   5.627   2.668   1.513 -0.6331  0.2688  0.4625
  163ACOH    C210199   5.567   2.746   1.605 -0.0882 -0.7226  0.0379
  163ACOH    O110200   5.510   2.860   1.595 -0.3120  0.3395  0.9206
  163ACOH    C110201   5.543   2.661   1.720  0.0822  0.4576 -0.8563
  163ACOH    H110202   5.493   2.714   1.802 -2.4706 -0.1869 -1.9403
  163ACOH    H210203   5.639   2.619   1.749 -0.0573 -0.6565 -1.9625
  163ACOH    H310204   5.468   2.587   1.691 -0.3842 -0.2551  1.9855
  164ACOH    H410205   4.887   4.715   1.798  0.4522  0.9218 -0.2019
  164ACOH    O210206   4.933   4.650   1.742  0.1261 -0.0700  0.6720
  164ACOH    C210207   4.989   4.710   1.638  0.0085 -0.1742 -0.6364
  164ACOH    O110208   4.992   4.826   1.620 -0.1072 -0.2141 -0.2615
  164ACOH    C110209   5.029   4.614   1.543 -0.3048  0.1996 -0.1291
  164ACOH    H110210   5.125   4.650   1.505 -1.5906  2.9009 -0.9241
  164ACOH    H210211   4.955   4.607   1.463  0.7204 -0.3995 -1.0389
  164ACOH    H310212   5.045   4.515   1.586  2.9169  0.1164 -1.3614
  165ACOH    H410213   5.177   4.318   2.112  0.6400  0.1774  0.8395
  165ACOH    O210214   5.225   4.375   2.050 -0.2994  0.2772  0.1873
  165ACOH    C210215   5.137   4.453   1.984 -0.7204  0.3713  0.2720
  165ACOH    O110216   5.011   4.440   1.973 -0.1270 -0.1981 -0.8579
  165ACOH    C110217   5.203   4.558   1.900 -0.4420  0.6082  0.1313
  165ACOH    H110218   5.304   4.580   1.933 -0.7098 -0.1578  1.4829
  165ACOH    H210219   5.144   4.649   1.899 -0.0622  0.8653  0.9017
  165ACOH    H310220   5.210   4.513   1.800  0.8718  1.0159  0.0307
  166ACOH    H410221   4.735   1.140   0.347 -1.1057  0.2762 -0.7387
  166ACOH    O210222   4.796   1.212   0.372 -0.0326 -0.8496 -0.1054
  166ACOH    C210223   4.840   1.194   0.499 -0.3777  1.2377 -0.3257
  166ACOH    O110224   4.799   1.105   0.573  0.1599  0.0101 -0.3609
  166ACOH    C110225   4.931   1.300   0.557  0.4509 -0.4488  0.3766
  166ACOH    H110226   4.974   1.358   0.475  0.9750  1.6724  2.0945
  166ACOH    H210227   5.018   1.265   0.613 -0.9524 -1.5345  1.9341
  166ACOH    H310228   4.875   1.367   0.621  1.5555  1.5018 -0.6457
  167ACOH    H410229   0.479   4.281   2.274 -0.2266  1.6265  0.4277
  167ACOH    O210230   0.558   4.284   2.330  0.4525 -0.6736 -0.3742
  167ACOH    C210231   0.526   4.350   2.442 -0.4206  0.0381 -0.6396
  167ACOH    O110232   0.416   4.348   2.488  0.7687 -0.6103  0.3499
  167ACOH    C110233   0.650   4.391   2.522 -0.2844  0.4846 -0.5959
  167ACOH    H110234   0.711   4.303   2.544 -2.4938 -0.6771  1.0354
  167ACOH    H210235   0.620   4.443   2.614  1.1440  0.8415 -0.3229
  167ACOH    H310236   0.699   4.465   2.459 -0.7937  0.6224 -0.8301
  168ACOH    H410237   9.510   5.109   2.176  0.5715  1.1042 -3.2170
  168ACOH    O210238   9.437   5.046   2.165  0.5961  0.3811  0.4509
  168ACOH    C210239   9.439   4.960   2.274  0.2299 -0.1506 -0.3327
  168ACOH    O110240   9.524   4.958   2.359 -0.5134 -0.0498  0.2685
  168ACOH    C110241   9.313   4.881   2.291  0.4826 -0.2265 -0.4012
  168ACOH    H110242   9.259   4.927   2.374 -0.7098 -0.2717 -1.1547
  168ACOH    H210243   9.351   4.784   2.323 -1.5603 -0.3916  1.5882
  168ACOH    H310244   9.248   4.875   2.205 -1.4438  0.6827  0.9626
  169ACOH    H410245   4.625   8.981   0.959  1.6660  0.5014  0.2453
  169ACOH    O210246   4.621   8.904   1.017 -0.0004  0.4207  0.0461
  169ACOH    C210247   4.659   8.798   0.940 -0.1434 -0.0969  0.0953
  169ACOH    O110248   4.676   8.792   0.819  0.2865  0.1246  0.3201
  169ACOH    C110249   4.668   8.673   1.022 -0.5920  0.2453  1.1084
  169ACOH    H110250   4.739   8.607   0.974  0.3598 -0.3868  3.3622
  169ACOH    H210251   4.573   8.619   1.017  0.5532 -1.7005 -0.0636
  169ACOH    H310252   4.696   8.692   1.126  3.0182  2.8457 -0.2306
  170ACOH    H410253   5.064   5.348   0.536 -2.0546 -0.1214  0.4147
  170ACOH    O210254   5.078   5.366   0.631  0.3641  0.8308 -0.0761
  170ACOH    C210255   4.987   5.310   0.712 -0.3635 -0.1238 -0.0409
  170ACOH    O110256   4.929   5.203   0.695 -0.1188 -0.1662  0.0284
  170ACOH    C110257   4.979   5.384   0.835  0.0462 -0.1475 -0.3273
  170ACOH    H110258   4.933   5.479   0.804  1.9312  0.5090 -1.1886
  170ACOH    H210259   5.081   5.388   0.872 -0.6095 -1.6023  1.7202
  170ACOH    H310260   4.914   5.331   0.905 -0.4842  1.2056  0.2256
  171ACOH    H410261   4.177   8.529   2.281 -2.1686  1.3956 -2.3163
  171ACOH    O210262   4.249   8.509   2.220 -0.7782  0.0847 -0.3275
  171ACOH    C210263   4.354   8.587   2.245 -0.1806  0.6696 -0.4657
  171ACOH    O110264   4.369   8.665   2.338  0.1507 -0.0744 -0.6396
  171ACOH    C110265   4.470   8.563   2.154  0.2624 -0.1823  0.2646
  171ACOH    H110266   4.437   8.490   2.080  0.9991  0.5224 -0.7820
  171ACOH    H210267   4.557   8.529   2.211  0.7922 -0.7552 -0.8675
  171ACOH    H310268   4.498   8.654   2.101 -0.5676  0.5932  1.1506
  172ACOH    H410269   9.123   4.333   1.928 -1.0977  0.6039 -0.0060
  172ACOH    O210270   9.104   4.238   1.931  0.8150  0.1966  0.0406
  172ACOH    C210271   9.215   4.182   1.974 -0.2957 -0.3800 -0.1550
  172ACOH    O110272   9.296   4.234   2.048 -1.0371 -0.8670 -0.4710
  172ACOH    C110273   9.212   4.040   1.927  0.1841 -0.2893 -0.6215
  172ACOH    H110274   9.132   3.991   1.982 -0.7204  0.7917 -0.9445
  172ACOH    H210275   9.307   3.989   1.940 -0.2150 -1.0807 -0.8194
  172ACOH    H310276   9.185   4.025   1.822  0.7887  0.0654 -0.8322
  173ACOH    H410277   4.591   5.529   1.840  1.4924  0.3991  1.2534
  173ACOH    O210278   4.629   5.605   1.792  0.0023  0.3972  0.0362
  173ACOH    C210279   4.531   5.686   1.753 -0.9746  0.2418  0.3498
  173ACOH    O110280   4.413   5.665   1.737  0.4253 -0.0169  0.3737
  173ACOH    C110281   4.576   5.825   1.714  0.0348 -0.2652  0.7316
  173ACOH    H110282   4.632   5.872   1.795 -1.6392  0.2795  1.5893
  173ACOH    H210283   4.487   5.886   1.696  0.7201  0.6285  0.3361
  173ACOH    H310284   4.643   5.823   1.627 -2.2306  0.9099 -1.1057
  174ACOH    H410285   4.944   0.658   1.199 -0.0734  0.8155  0.9872
  174ACOH    O210286   4.983   0.741   1.167  0.4341  0.3140  0.3143
  174ACOH    C210287   4.919   0.759   1.045 -0.1492 -0.1481 -0.5282
  174ACOH    O110288   4.851   0.680   0.990 -0.4801 -0.0339  0.5737
  174ACOH    C110289   4.969   0.885   0.984 -0.0178 -0.7615  0.3565
  174ACOH    H110290   4.927   0.889   0.883  3.4998 -1.3229 -1.2052
  174ACOH    H210291   5.077   0.893   0.988  0.0830 -0.5529 -2.0218
  174ACOH    H310292   4.916   0.964   1.038  1.8226  0.9167 -0.2332
  175ACOH    H410293   0.722   4.609   0.393  0.1615  0.1150  0.5197
  175ACOH    O210294   0.749   4.536   0.451  0.0148 -0.1566  0.2507
  175ACOH    C210295   0.737   4.420   0.383  0.1087 -0.6364  0.4249
  175ACOH    O110296   0.725   4.414   0.262  0.4852  0.4206  0.0351
  175ACOH    C110297   0.762   4.300   0.460 -0.2135 -0.6563 -0.0093
  175ACOH    H110298   0.771   4.210   0.400 -0.3948  0.1276 -1.2277
  175ACOH    H210299   0.690   4.291   0.542 -0.6771 -2.6642 -0.6235
  175ACOH    H310300   0.859   4.309   0.509 -1.5024 -0.0545  2.5708
  176ACOH    H410301   3.389   4.383   0.352 -1.3250  1.4228 -0.3312
  176ACOH    O210302   3.440   4.452   0.399  0.2623 -0.1983  0.3770
  176ACOH    C210303   3.373   4.496   0.509 -0.4257 -0.3123 -0.2242
  176ACOH    O110304   3.256   4.473   0.527  0.5627  0.0363 -0.0936
  176ACOH    C110305   3.462   4.573   0.596 -0.3090 -0.2705  0.5556
  176ACOH    H110306   3.414   4.660   0.642 -1.2644 -1.4351  1.7878
  176ACOH    H210307   3.543   4.613   0.535  0.7340 -1.6438  1.0205
  176ACOH    H310308   3.508   4.515   0.675 -1.5673 -0.0356  1.4828
  177ACOH    H410309   3.901   8.441   1.720  1.7749 -1.8138  0.2050
  177ACOH    O210310   3.900   8.431   1.817  0.0278 -0.5580  0.3366
  177ACOH    C210311   4.010   8.483   1.872  0.2501 -0.1916  0.1667
  177ACOH    O110312   4.106   8.534   1.817  0.4006  0.6407 -0.4273
  177ACOH    C110313   3.984   8.493   2.016 -0.2728 -0.3861 -0.0465
  177ACOH    H110314   3.895   8.555   2.028  0.1864  1.0794 -3.5727
  177ACOH    H210315   4.060   8.550   2.070 -0.1313 -2.5668  2.1452
  177ACOH    H310316   3.978   8.397   2.067 -0.0957 -0.8961 -0.9940
  178ACOH    H410317   5.970   3.651   1.024  0.0351  1.3477 -0.8491
  178ACOH    O210318   6.059   3.667   1.058  0.2404 -0.1058 -0.6756
  178ACOH    C210319   6.057   3.721   1.179  0.0764  0.2730  0.3774
  178ACOH    O110320   5.968   3.723   1.264 -0.5373  0.4155  0.0158
  178ACOH    C110321   6.192   3.769   1.214 -0.1882 -0.5988  0.0254
  178ACOH    H110322   6.199   3.768   1.323  1.1622 -2.4377 -0.0504
  178ACOH    H210323   6.205   3.872   1.178  1.7400 -0.8300 -0.0231
  178ACOH    H310324   6.273   3.708   1.174 -0.2698 -0.5425 -0.2236
  179ACOH    H410325   2.391   2.107   0.320  0.2329 -0.5930  0.3632
  179ACOH    O210326   2.378   2.161   0.400  0.1615 -0.6135  0.3659
  179ACOH    C210327   2.315   2.272   0.353 -0.6031  0.0938 -0.9208
  179ACOH    O110328   2.297   2.302   0.237 -0.2432 -1.0142 -0.5853
  179ACOH    C110329   2.263   2.362   0.458  0.3918 -0.0393 -0.0720
  179ACOH    H110330   2.247   2.301   0.547 -1.1636 -3.4551 -2.5345
  179ACOH    H210331   2.171   2.405   0.419  1.7077  4.7224  1.8068
  179ACOH    H310332   2.331   2.445   0.477 -1.1419  1.0293  0.8264
  180ACOH    H410333   4.458   5.842   0.556  1.9278 -0.7138 -0.4747
  180ACOH    O210334   4.477   5.937   0.557  0.5688 -0.4326 -0.1641
  180ACOH    C210335   4.395   5.991   0.466 -0.9693  0.5004 -0.8675
  180ACOH    O110336   4.297   5.940   0.411 -0.0242  0.2342  0.1619
  180ACOH    C110337   4.413   6.132   0.463 -0.7284 -0.0434  0.1972
  180ACOH    H110338   4.341   6.173   0.393 -1.4151 -1.3100  0.1429
  180ACOH    H210339   4.510   6.153   0.419 -1.2530 -1.5851 -1.7746
  180ACOH    H310340   4.403   6.169   0.565 -2.5996 -0.8668  0.3409
  181ACOH    H410341   5.595   4.222   2.371 -1.1268 -0.7481  0.3600
  181ACOH    O210342   5.595   4.272   2.455  0.4069  0.4106 -0.2914
  181ACOH    C210343   5.468   4.284   2.499 -0.9974 -0.6117 -0.6208
  181ACOH    O110344   5.378   4.218   2.457  0.2992 -0.5207 -0.1973
  181ACOH    C110345   5.459   4.382   2.609 -0.0242 -0.2731  0.6771
  181ACOH    H110346   5.354   4.381   2.640 -0.0949  0.0864  0.4515
  181ACOH    H210347   5.483   4.484   2.579 -0.6470  0.5596  2.9452
  181ACOH    H310348   5.533   4.350   2.682 -2.1587  0.3959  3.1770
  182ACOH    H410349   4.612   0.469   1.393 -1.8763  1.4405  1.3954
  182ACOH    O210350   4.678   0.464   1.464 -0.4238  0.0778 -0.0170
  182ACOH    C210351   4.790   0.524   1.431  0.3568  0.5698 -0.0473
  182ACOH    O110352   4.829   0.549   1.320  0.1420 -0.3779  0.3621
  182ACOH    C110353   4.862   0.566   1.553  0.2210  0.1064 -0.0453
  182ACOH    H110354   4.874   0.477   1.615 -0.3328 -2.3190 -3.2825
  182ACOH    H210355   4.817   0.647   1.610 -0.4288  1.4473 -2.4169
  182ACOH    H310356   4.962   0.599   1.525  0.4612 -1.0220 -0.5620
  183ACOH    H410357   2.448   4.558   1.402  0.1407 -0.5467  0.6291
  183ACOH    O210358   2.485   4.506   1.329  0.3621 -0.0393  0.3763
  183ACOH    C210359   2.389   4.417   1.293  0.5400  0.2039 -0.6380
  183ACOH    O110360   2.272   4.425   1.319  0.6290  0.4957  0.1652
  183ACOH    C110361   2.447   4.283   1.268  0.1344 -0.2502  0.1202
  183ACOH    H110362   2.545   4.285   1.221 -0.4815  0.8407 -1.1439
  183ACOH    H210363   2.382   4.225   1.202 -0.7791 -1.8664  2.3326
  183ACOH    H310364   2.454   4.231   1.364  2.5325  1.1756  0.7500
  184ACOH    H410365   9.375   5.622   2.170  0.3517  0.1532 -0.5013
  184ACOH    O210366   9.373   5.718   2.187  0.0709 -0.0187  0.4614
  184ACOH    C210367   9.387   5.756   2.313 -0.4733  0.1595  0.6524
  184ACOH    O110368   9.341   5.695   2.402 -0.6024 -0.1812  0.3685
  184ACOH    C110369   9.450   5.887   2.328 -0.1773  0.2777  0.1753
  184ACOH    H110370   9.402   5.962   2.266 -1.4624 -0.4623  0.2633
  184ACOH    H210371   9.549   5.872   2.284 -0.5038  2.2838 -1.3316
  184ACOH    H310372   9.467   5.929   2.427 -0.4237  1.7000 -0.3710
  185ACOH    H410373   3.658   8.169   2.460 -1.4185 -2.4355 -0.2023
  185ACOH    O210374   3.698   8.146   2.374  0.0939 -0.2904 -0.1179
  185ACOH    C210375   3.607   8.096   2.299 -0.2814  0.1551  0.2591
  185ACOH    O110376   3.511   8.033   2.337  0.4848  0.2731 -0.5669
  185ACOH    C110377   3.649   8.106   2.155 -0.4505 -1.9133  0.5550
  185ACOH    H110378   3.585   8.050   2.086  0.8852 -1.3979 -1.1438
  185ACOH    H210379   3.751   8.070   2.149  0.2818 -0.2115  2.1360
  185ACOH    H310380   3.632   8.208   2.119  0.6473 -0.9434  2.7067
  186ACOH    H410381   4.923   3.688   0.627  2.6562  2.4928  1.9243
  186ACOH    O210382   4.868   3.759   0.588  0.2626 -0.2501  0.1116
  186ACOH    C210383   4.735   3.742   0.611  0.0078 -0.3519 -0.0298
  186ACOH    O110384   4.686   3.632   0.616 -0.2038 -0.5554 -0.8120
  186ACOH    C110385   4.654   3.866   0.597 -0.1455 -0.0119 -0.7043
  186ACOH    H110386   4.713   3.952   0.628  0.2919 -0.1130 -1.2648
  186ACOH    H210387   4.566   3.868   0.662 -2.3630 -0.0947 -3.5652
  186ACOH    H310388   4.617   3.872   0.494  1.0371 -0.5985 -1.1728
  187ACOH    H410389   0.422   4.152   1.614  0.1913  2.2937  0.1577
  187ACOH    O210390   0.350   4.172   1.551 -0.0914 -0.1059 -0.3064
  187ACOH    C210391   0.229   4.148   1.611 -0.5049 -0.0115 -0.3569
  187ACOH    O110392   0.219   4.067   1.697 -0.1278  0.2930 -0.0709
  187ACOH    C110393   0.118   4.181   1.523 -0.3537 -0.3574  0.2236
  187ACOH    H110394   0.136   4.119   1.435  0.7492  0.3855 -0.0797
  187ACOH    H210395   0.101   4.286   1.502  2.2983  0.2116  0.7776
  187ACOH    H310396   0.030   4.135   1.569  0.2452 -1.1704  0.5803
  188ACOH    H410397   2.768   8.561   1.291 -1.4377  0.4236  1.4172
  188ACOH    O210398   2.712   8.539   1.215 -0.2029 -0.5298  0.7677
  188ACOH    C210399   2.708   8.403   1.212 -0.4782 -0.0055 -0.5017
  188ACOH    O110400   2.805   8.334   1.243  1.0845 -0.2445 -0.1275
  188ACOH    C110401   2.596   8.354   1.124  0.1832  0.3972 -0.0231
  188ACOH    H110402   2.639   8.326   1.028  0.8995  2.2721 -0.2884
  188ACOH    H210403   2.523   8.434   1.113 -0.0396  0.3506  1.0477
  188ACOH    H310404   2.551   8.264   1.165  1.3501 -0.6751 -1.0602
  189ACOH    H410405   5.344   4.250   1.765  0.0669  0.3368 -1.2359
  189ACOH    O210406   5.389   4.328   1.803 -0.8029  0.2181  0.0808
  189ACOH    C210407   5.478   4.270   1.892  0.2481  0.7679 -0.4426
  189ACOH    O110408   5.519   4.161   1.871  0.1183  0.4564  0.2941
  189ACOH    C110409   5.535   4.368   1.987  0.0514 -0.1189  0.0844
  189ACOH    H110410   5.524   4.338   2.092  0.4625 -0.9789 -0.1172
  189ACOH    H210411   5.488   4.465   1.972  1.8982  0.7897  0.1389
  189ACOH    H310412   5.639   4.382   1.958 -0.2043  1.9506  0.1036
  190ACOH    H410413   4.042   5.541   0.845 -0.0264 -1.0420 -1.0454
  190ACOH    O210414   4.059   5.471   0.910  0.7233  0.0895 -0.0072
  190ACOH    C210415   3.943   5.431   0.964  0.3715 -0.2751 -0.5984
  190ACOH    O110416   3.942   5.328   1.026  0.0455 -0.2683  0.6311
  190ACOH    C110417   3.833   5.528   0.948  0.3314 -1.4132  0.5063
  190ACOH    H110418   3.866   5.629   0.971 -0.0151 -1.1329 -0.2099
  190ACOH    H210419   3.758   5.497   1.021 -0.9592  0.6677  0.0914
  190ACOH    H310420   3.806   5.525   0.843  0.4530 -1.4735  0.4771
  191ACOH    H410421   5.488   2.542   0.042  1.3321  0.5590  0.0746
  191ACOH    O210422   5.493   2.509   0.134 -0.4571 -0.1201 -0.0547
  191ACOH    C210423   5.381   2.440   0.151 -0.5227  0.0266 -0.1521
  191ACOH    O110424   5.283   2.429   0.073  0.3764 -0.1605 -0.2261
  191ACOH    C110425   5.401   2.357   0.276 -0.9272  0.0346 -0.0090
  191ACOH    H110426   5.467   2.409   0.346 -0.2820  0.7885 -1.1682
  191ACOH    H210427   5.438   2.255   0.269  0.0582  0.3162  0.9322
  191ACOH    H310428   5.302   2.341   0.317 -0.1690  0.0726  1.9043
  192ACOH    H410429   3.454   6.542   2.124  0.5454 -0.8144  0.3682
  192ACOH    O210430   3.440   6.590   2.208  0.4419  0.1114 -0.1761
  192ACOH    C210431   3.452   6.719   2.170  0.7159 -0.5004  0.2886
  192ACOH    O110432   3.476   6.766   2.061 -0.2889 -0.2309  0.3075
  192ACOH    C110433   3.440   6.812   2.282  0.2886 -0.0137  0.8313
  192ACOH    H110434   3.441   6.918   2.255 -1.4639 -1.0017 -3.4983
  192ACOH    H210435   3.521   6.792   2.352  1.1882 -1.1777 -0.5270
  192ACOH    H310436   3.356   6.784   2.346 -0.9040 -0.4205 -0.8915
  193ACOH    H410437   4.095   5.622   2.253 -0.1131  0.8705  0.5985
  193ACOH    O210438   4.153   5.647   2.179 -0.7347 -0.2034 -0.2649
  193ACOH    C210439   4.099   5.761   2.127 -0.2038  0.4211  0.0949
  193ACOH    O110440   4.001   5.818   2.167  0.7565 -0.1617  0.1859
  193ACOH    C110441   4.193   5.835   2.047  0.1909  0.3803 -0.2764
  193ACOH    H110442   4.220   5.928   2.097  1.1922  0.0641 -0.2232
  193ACOH    H210443   4.151   5.847   1.947  0.1592 -1.5927 -0.5053
  193ACOH    H310444   4.287   5.781   2.039 -0.6883 -1.2272 -0.0084
  194ACOH    H410445   3.285   0.460   2.029 -0.8940  1.9670  2.6224
  194ACOH    O210446   3.208   0.400   2.031  0.7069 -0.3147 -0.0003
  194ACOH    C210447   3.171   0.370   1.903 -0.8220  0.1796 -0.4583
  194ACOH    O110448   3.242   0.366   1.802 -1.3702  0.1462 -0.4568
  194ACOH    C110449   3.038   0.315   1.909 -0.1164  0.6007 -0.4291
  194ACOH    H110450   3.007   0.275   1.813  0.1790  0.5704 -0.5125
  194ACOH    H210451   2.966   0.383   1.954 -0.0625 -0.2294  0.9681
  194ACOH    H310452   3.046   0.229   1.976 -2.6255 -1.0233 -2.1396
  195ACOH    H410453   4.705   1.051   2.299 -1.6358  2.0001 -0.4078
  195ACOH    O210454   4.779   1.098   2.258 -0.1325 -0.2867 -0.3919
  195ACOH    C210455   4.841   1.182   2.348 -0.0778 -0.2236 -0.3690
  195ACOH    O110456   4.794   1.218   2.455  0.0079 -0.1033  0.5222
  195ACOH    C110457   4.954   1.264   2.290  0.1846  0.5938 -0.1344
  195ACOH    H110458   5.010   1.201   2.221 -1.2128 -2.2337  1.2623
  195ACOH    H210459   5.014   1.306   2.371  2.0690 -1.4666 -0.4227
  195ACOH    H310460   4.911   1.345   2.231 -2.2501 -0.6707 -0.1292
  196ACOH    H410461   2.521   1.372   0.721 -0.2688 -1.8224  1.1391
  196ACOH    O210462   2.427   1.347   0.717 -0.5714 -0.5811 -0.0756
  196ACOH    C210463   2.424   1.240   0.800 -0.2580 -0.1385  0.0181
  196ACOH    O110464   2.503   1.200   0.884  0.0636  0.3787  0.0144
  196ACOH    C110465   2.300   1.166   0.777 -0.2399  0.1615 -0.1667
  196ACOH    H110466   2.211   1.227   0.794 -0.3474  0.1749 -0.7560
  196ACOH    H210467   2.291   1.073   0.834  2.1966 -0.0916 -0.1415
  196ACOH    H310468   2.302   1.140   0.671 -0.2269  0.5801 -0.2681
  197ACOH    H410469   3.483   8.430   0.749 -0.5606  0.0428  0.2295
  197ACOH    O210470   3.511   8.500   0.687  0.2521 -0.0635  0.4778
  197ACOH    C210471   3.395   8.557   0.653 -0.0243  0.6617  0.1152
  197ACOH    O110472   3.297   8.566   0.727 -0.1859 -0.1164  0.6649
  197ACOH    C110473   3.402   8.652   0.540 -0.4699  0.2034 -0.3666
  197ACOH    H110474   3.464   8.621   0.456  0.6363  0.9907  0.1364
  197ACOH    H210475   3.450   8.744   0.575  0.3076 -0.4774  0.4032
  197ACOH    H310476   3.300   8.670   0.507 -0.5814  0.8753  0.3138
  198ACOH    H410477   5.403   4.453   0.279 -0.3960  3.2398  0.9665
  198ACOH    O210478   5.496   4.472   0.256 -0.0559  0.4362 -0.0716
  198ACOH    C210479   5.511   4.602   0.231 -0.0827  0.2032  0.3883
  198ACOH    O110480   5.430   4.694   0.216 -0.0083 -0.0414  0.3750
  198ACOH    C110481   5.658   4.629   0.204  0.0750  0.5125  0.2549
  198ACOH    H110482   5.681   4.612   0.099 -0.2653 -0.6837  0.3739
  198ACOH    H210483   5.708   4.555   0.266 -2.2350 -1.4167 -0.1142
  198ACOH    H310484   5.679   4.734   0.227  1.9851  0.0716  0.6056
  199ACOH    H410485   5.516   2.665   1.025  1.0564 -0.6430 -0.1125
  199ACOH    O210486   5.526   2.682   0.930  0.3351  0.0136 -0.0827
  199ACOH    C210487   5.529   2.814   0.932 -0.2618  0.6027  0.1656
  199ACOH    O110488   5.601   2.880   1.009  0.4397 -0.0870 -0.0354
  199ACOH    C110489   5.503   2.861   0.793 -0.0646 -0.6652  0.0576
  199ACOH    H110490   5.401   2.899   0.802  0.0703 -0.6165  1.5031
  199ACOH    H210491   5.502   2.783   0.717  3.6872 -0.3765 -0.3916
  199ACOH    H310492   5.578   2.934   0.764  0.7031 -1.2311  0.5880
  200ACOH    H410493   3.620   6.709   0.207  2.0063 -1.9296 -0.7368
  200ACOH    O210494   3.664   6.749   0.284 -0.3586 -0.1645 -0.2272
  200ACOH    C210495   3.596   6.859   0.301 -0.0325 -0.5788  0.4042
  200ACOH    O110496   3.500   6.904   0.247 -0.5339 -0.0873 -0.4857
  200ACOH    C110497   3.643   6.917   0.433 -0.0392  0.1969 -0.1192
  200ACOH    H110498   3.576   6.993   0.474  0.7820  1.1090 -0.4561
  200ACOH    H210499   3.745   6.956   0.430  0.4364 -1.0455 -0.5896
  200ACOH    H310500   3.636   6.839   0.508  0.1781  0.2378 -0.0563
  201ACOH    H410501   4.347   5.050   2.510 -2.0544 -0.0557  0.3880
  201ACOH    O210502   4.364   5.145   2.523  0.7088 -0.3879 -0.4953
  201ACOH    C210503   4.288   5.219   2.437 -0.3143 -0.4179 -0.8545
  201ACOH    O110504   4.183   5.172   2.403  0.0994 -0.2360 -0.1253
  201ACOH    C110505   4.310   5.362   2.471  0.0916 -0.2310 -1.4520
  201ACOH    H110506   4.398   5.398   2.418 -0.1592 -0.1036 -1.7748
  201ACOH    H210507   4.335   5.378   2.577 -1.2996  1.5340 -1.3597
  201ACOH    H310508   4.225   5.429   2.460 -0.3963 -0.7014 -0.5963
  202ACOH    H410509   5.389   1.866   0.596  2.1794  0.0958  1.1301
  202ACOH    O210510   5.414   1.803   0.526 -0.0115  0.4748 -0.0667
  202ACOH    C210511   5.383   1.843   0.405 -0.3248  0.2325  0.3631
  202ACOH    O110512   5.340   1.955   0.366  0.0045 -0.2229 -0.3671
  202ACOH    C110513   5.418   1.746   0.304 -0.4942  0.2604  0.7797
  202ACOH    H110514   5.325   1.692   0.286 -1.1974  0.9488  2.2726
  202ACOH    H210515   5.498   1.675   0.328 -0.6151 -0.7844 -1.7049
  202ACOH    H310516   5.448   1.792   0.210 -0.1719 -2.0638 -0.3029
  203ACOH    H410517   4.496   8.309   0.803 -0.0071 -3.8102 -1.0481
  203ACOH    O210518   4.586   8.296   0.837  0.0999 -0.6200  0.1309
  203ACOH    C210519   4.595   8.201   0.927 -0.3262 -0.0668 -0.4501
  203ACOH    O110520   4.511   8.185   1.012  0.0671  0.1248  0.1383
  203ACOH    C110521   4.723   8.125   0.925  0.1294 -0.2251 -0.2939
  203ACOH    H110522   4.774   8.157   0.833 -0.0422  0.1326 -0.2680
  203ACOH    H210523   4.706   8.019   0.941  0.1395 -0.1686  0.0932
  203ACOH    H310524   4.794   8.157   1.001  0.9592 -0.3058 -1.0230
  204SOL     OW10525   4.014   5.824   0.148  0.6450 -0.4065 -0.0778
  204SOL    HW110526   4.060   5.738   0.170  0.7593 -0.9035 -2.0980
  204SOL    HW210527   4.023   5.842   0.050 -4.4548 -1.1382 -0.8357
  205SOL     OW10528   3.311   1.781   1.878  0.5108 -0.1327  0.3744
  205SOL    HW110529   3.387   1.739   1.928  0.0023 -0.3526  0.9798
  205SOL    HW210530   3.232   1.721   1.881 -0.8628  1.6984  2.9681
  206SOL     OW10531   2.172   2.291   1.583  0.0398 -0.3214 -0.3829
  206SOL    HW110532   2.267   2.288   1.615 -0.3403  0.3378  0.8317
  206SOL    HW210533   2.116   2.232   1.641 -0.1595 -1.2857 -1.5591
  207SOL     OW10534   4.584   4.064   2.081 -0.1492 -0.0522 -0.1307
  207SOL    HW110535   4.529   4.006   2.141  0.6487 -0.5340  0.1452
  207SOL    HW210536   4.663   4.013   2.048 -0.5435  0.2312 -1.5483
  208SOL     OW10537   5.277   3.152   2.143  0.0084  0.0681 -0.3206
  208SOL    HW110538   5.302   3.084   2.074  2.3048  1.9382 -1.4203
  208SOL    HW210539   5.212   3.217   2.104  1.0679  0.9444 -0.6610
  209SOL     OW10540   3.243   8.307   2.315  0.1522 -0.2885 -0.1576
  209SOL    HW110541   3.201   8.383   2.265  0.5621 -0.3675 -0.6298
  209SOL    HW210542   3.224   8.221   2.267  1.2290 -0.2743 -0.6170
  210SOL     OW10543   2.489   2.021   0.184  0.0572 -0.1017  0.2706
  210SOL    HW110544   2.453   1.995   0.095 -0.0479  0.3303  0.1840
  210SOL    HW210545   2.562   1.958   0.210  0.5279  0.1429 -0.4172
  211SOL     OW10546   4.522   4.894   1.586  0.0368 -0.1490  0.2649
  211SOL    HW110547   4.519   4.795   1.603  1.0279 -0.0018  1.3646
  211SOL    HW210548   4.607   4.931   1.622  1.1275  0.6031 -2.9206
  212SOL     OW10549   3.453   3.604   1.497  0.3566 -0.1499 -0.6006
  212SOL    HW110550   3.363   3.609   1.455  0.5095 -0.6324 -0.9927
  212SOL    HW210551   3.445   3.560   1.587 -0.3380  3.0400  0.9830
  213SOL     OW10552   3.577   4.055   1.053 -0.4317 -0.2462  0.8592
  213SOL    HW110553   3.491   4.091   1.088 -0.5191 -2.5407  3.1234
  213SOL    HW210554   3.564   4.023   0.959 -2.1911 -1.0449  1.3588
  214SOL     OW10555   4.287   5.014   1.616 -0.8811  0.3726  0.0928
  214SOL    HW110556   4.305   5.112   1.631 -0.5656  0.1281  1.4634
  214SOL    HW210557   4.373   4.968   1.592 -0.9376  0.3592 -0.0782
  215SOL     OW10558   5.469   3.772   0.549  0.0007  0.1580  0.2705
  215SOL    HW110559   5.405   3.759   0.473 -0.9166  0.8869  0.9076
  215SOL    HW210560   5.473   3.869   0.572  1.9029  0.2291 -0.2420
  216SOL     OW10561   0.288   4.655   2.025 -0.3769 -0.1110  0.0675
  216SOL    HW110562   0.240   4.739   1.998 -0.2405 -0.0478  0.0243
  216SOL    HW210563   0.240   4.614   2.103 -1.0911 -0.5942 -0.6249
  217SOL     OW10564   3.451   1.133   2.546  0.0599 -0.4599 -0.0771
  217SOL    HW110565   3.389   1.177   2.611  2.2322  1.9162  0.4309
  217SOL    HW210566   3.478   1.043   2.582 -2.3410 -1.1600  0.0984
  218SOL     OW10567   3.286   1.188   1.716 -0.0637 -0.5782  0.5792
  218SOL    HW110568   3.261   1.208   1.811 -0.7000  1.5177  0.0108
  218SOL    HW210569   3.205   1.164   1.664  0.1618 -0.9028  0.3763
  219SOL     OW10570   9.584   4.650   1.089 -0.4525 -0.7091  0.0851
  219SOL    HW110571   9.515   4.628   1.020 -0.3860 -1.6363  0.3087
  219SOL    HW210572   9.567   4.742   1.125 -2.9784 -1.8021  1.8221
  220SOL     OW10573   1.575   6.550   1.675  0.0454  0.3921 -0.2387
  220SOL    HW110574   1.538   6.636   1.638  0.8129  0.9392  0.2470
  220SOL    HW210575   1.646   6.516   1.613 -0.0189  0.2890 -0.2552
  221SOL     OW10576   5.434   4.681   0.546  0.5510 -0.0236  0.7034
  221SOL    HW110577   5.362   4.735   0.590  0.9063  0.4089  0.7598
  221SOL    HW210578   5.440   4.705   0.449  0.7743  0.1134  0.7498
  222SOL     OW10579   3.192   1.753   1.332 -0.0964  0.0041  0.3550
  222SOL    HW110580   3.270   1.693   1.313  0.8977  0.7551  1.9934
  222SOL    HW210581   3.108   1.710   1.298  0.9623 -1.0185 -1.0089
  223SOL     OW10582   2.862   9.108   0.318  0.4112  0.4591  0.1754
  223SOL    HW110583   2.872   9.021   0.269 -0.9755 -0.3608  1.3077
  223SOL    HW210584   2.855   9.183   0.252 -0.7937 -0.5513 -0.8684
  224SOL     OW10585   1.154   4.678   2.208 -0.4283  0.7181 -0.1131
  224SOL    HW110586   1.240   4.654   2.254 -1.2628 -0.2288  0.9670
  224SOL    HW210587   1.147   4.777   2.200  0.8310  0.8051 -0.3463
  225SOL     OW10588   4.514   5.368   1.884 -0.3666 -0.6187 -0.2355
  225SOL    HW110589   4.508   5.270   1.905  0.0792 -0.4783  0.5889
  225SOL    HW210590   4.452   5.418   1.944 -0.7872 -0.4139 -0.8367
  226SOL     OW10591   3.088   2.436   0.205  0.9314  0.2212  0.1075
  226SOL    HW110592   2.998   2.440   0.248  0.5964 -1.2248 -0.4390
  226SOL    HW210593   3.107   2.522   0.158 -0.3019  0.4173 -0.0347
  227SOL     OW10594   2.581   3.699   0.121 -0.0826 -0.4660  0.0681
  227SOL    HW110595   2.530   3.675   0.204  1.1291 -0.5145  0.8280
  227SOL    HW210596   2.660   3.755   0.147 -0.0551  0.0513 -1.1378
  228SOL     OW10597   4.898   1.693   2.453  0.4033 -0.2401  0.2205
  228SOL    HW110598   4.838   1.614   2.464 -1.1249  0.9678  0.6090
  228SOL    HW210599   4.956   1.702   2.534 -0.0160 -0.4739  0.5505
  229SOL     OW10600   1.534   5.682   0.106 -0.3125 -0.3323 -0.3245
  229SOL    HW110601   1.531   5.697   0.204 -3.1210 -0.5032 -0.3427
  229SOL    HW210602   1.465   5.614   0.080  0.5653 -0.4783 -2.3782
  230SOL     OW10603   9.901   4.578   2.151 -0.2854 -0.0692  0.0974
  230SOL    HW110604   9.863   4.668   2.173 -1.6344 -1.1735  2.4095
  230SOL    HW210605   9.886   4.558   2.054 -0.7566  1.8133 -0.2298
  231SOL     OW10606   2.668   8.719   0.036  0.5670  0.1220 -0.5071
  231SOL    HW110607   2.583   8.756   0.073  2.0659  1.9659  1.2506
  231SOL    HW210608   2.681   8.626   0.069  0.4835  0.7529  1.3946
  232SOL     OW10609   2.918   2.468   1.088 -0.4448 -0.2759  0.1942
  232SOL    HW110610   2.828   2.427   1.091 -0.1247 -0.9079  1.5592
  232SOL    HW210611   2.988   2.396   1.084  0.1158  0.0673  2.5907
  233SOL     OW10612   2.241   7.872   0.207  0.8133  0.4660 -0.2588
  233SOL    HW110613   2.311   7.811   0.169  1.7868 -0.2939  2.5872
  233SOL    HW210614   2.151   7.844   0.174  1.7048  0.6783 -2.9962
  234SOL     OW10615   2.423   1.570   0.129  0.3589  0.3821  0.1581
  234SOL    HW110616   2.328   1.563   0.158 -0.2293  2.8493 -0.9535
  234SOL    HW210617   2.467   1.647   0.176  1.4338  0.0245 -0.2304
  235SOL     OW10618   1.251   6.975   0.070 -0.3476  0.7238 -0.5826
  235SOL    HW110619   1.237   6.905   0.141 -1.1585  1.4486 -0.0116
  235SOL    HW210620   1.164   6.994   0.025 -0.1882  1.5642 -0.5450
  236SOL     OW10621   4.119   9.948   0.286  0.3690  0.0566  0.4504
  236SOL    HW110622   4.029   9.917   0.255  0.2259 -0.4864  1.3763
  236SOL    HW210623   4.129  10.045   0.268  0.2428 -0.2181 -1.1755
  237SOL     OW10624   2.563   7.945  -0.002 -0.3017 -0.2539  0.2758
  237SOL    HW110625   2.663   7.946  -0.004 -0.2882 -1.1185  0.5671
  237SOL    HW210626   2.528   8.005  -0.075  0.4267 -0.2569 -0.0801
  238SOL     OW10627   3.706   9.384   2.257 -0.7954  0.2168 -0.5855
  238SOL    HW110628   3.650   9.315   2.213 -2.0575 -0.2899  1.7167
  238SOL    HW210629   3.659   9.418   2.338  2.0426  0.0477  1.2113
  239SOL     OW10630   2.243   6.655   2.345  0.0867 -0.1409  0.6369
  239SOL    HW110631   2.216   6.565   2.311 -1.4908  0.3355  0.5927
  239SOL    HW210632   2.206   6.668   2.437 -0.3128  0.7642  0.3500
  240SOL     OW10633   2.219   4.002   0.008 -0.0530  0.1393 -0.5435
  240SOL    HW110634   2.267   3.959   0.085 -0.8990 -0.5011 -0.3618
  240SOL    HW210635   2.219   3.940  -0.070  2.4217  1.5387 -1.6859
  241SOL     OW10636   9.843   4.452   2.373  0.3981  0.3282  0.1670
  241SOL    HW110637   9.869   4.489   2.284  2.0623 -1.0028  0.0889
  241SOL    HW210638   9.923   4.446   2.432 -0.7049  1.3047  1.8225
  242SOL     OW10639   2.266   6.537   0.105 -0.2126 -0.1586 -0.1882
  242SOL    HW110640   2.195   6.561   0.171 -0.9020 -0.3891 -0.8453
  242SOL    HW210641   2.338   6.485   0.151 -0.1215  0.6689  0.6310
  243SOL     OW10642   4.330   9.095   2.488 -0.5554  0.5897 -0.3648
  243SOL    HW110643   4.240   9.051   2.492  0.2189 -1.0781 -1.0876
  243SOL    HW210644   4.399   9.034   2.525  0.3396  1.7385 -0.1156
  244SOL     OW10645   2.448   1.785   2.297 -0.2700  0.3395 -0.4031
  244SOL    HW110646   2.452   1.814   2.202  0.3212  0.8755 -0.2212
  244SOL    HW210647   2.398   1.853   2.351 -1.9482 -0.7134 -0.5964
  245SOL     OW10648   3.271   2.851   0.618 -0.3945  0.0492  0.4834
  245SOL    HW110649   3.317   2.765   0.597  1.9429  1.5627 -0.8462
  245SOL    HW210650   3.300   2.883   0.709  0.4483  0.4965  0.0672
  246SOL     OW10651   4.871   4.699  -0.034  0.1881  0.1378  0.1223
  246SOL    HW110652   4.827   4.651  -0.110 -2.6822 -0.7770  2.3016
  246SOL    HW210653   4.817   4.780  -0.010  1.0571  0.4086  1.2010
  247SOL     OW10654   3.781   1.554   1.536 -0.2148 -0.0583  1.0519
  247SOL    HW110655   3.862   1.605   1.563 -0.6608  1.0154  0.4041
  247SOL    HW210656   3.701   1.591   1.582 -0.4779 -0.4867  0.9510
  248SOL     OW10657   3.020   7.418   1.288 -0.7865 -0.3995  0.1515
  248SOL    HW110658   3.090   7.478   1.250 -1.2451 -0.0443 -0.1355
  248SOL    HW210659   3.030   7.413   1.387  0.3181 -1.2004  0.0202
  249SOL     OW10660   9.606   5.760   1.629  0.2959 -0.0777 -0.1403
  249SOL    HW110661   9.537   5.805   1.686  0.5414  0.9843 -0.6677
  249SOL    HW210662   9.566   5.678   1.587  0.0468 -0.7237  1.3399
  250SOL     OW10663   3.095   2.182   1.396 -0.1050 -0.0121  0.1123
  250SOL    HW110664   3.027   2.109   1.399 -0.8297  0.5450 -2.1528
  250SOL    HW210665   3.187   2.142   1.396 -0.4503 -0.8252  1.3239
  251SOL     OW10666   3.427   1.515   0.184 -0.0218  0.0476  0.7600
  251SOL    HW110667   3.449   1.606   0.218  0.2275  0.7926 -1.3287
  251SOL    HW210668   3.458   1.446   0.250  1.1966  1.3987  1.6303
  252SOL     OW10669   1.534   4.657   1.356  0.7871 -0.2307 -0.2800
  252SOL    HW110670   1.632   4.673   1.368  0.9251 -1.1479 -0.2097
  252SOL    HW210671   1.515   4.636   1.260  0.6400  0.0212 -0.3092
  253SOL     OW10672   4.586   3.388   1.888  0.3841  0.4256  0.2321
  253SOL    HW110673   4.571   3.296   1.850 -1.1710  0.1647  1.4062
  253SOL    HW210674   4.567   3.456   1.817 -0.3853 -0.1082 -0.0896
  254SOL     OW10675   3.487   4.190   0.712  0.9064  0.1563  0.9029
  254SOL    HW110676   3.543   4.272   0.725  0.1366  1.2536 -2.2993
  254SOL    HW210677   3.515   4.145   0.628 -1.5859 -0.4867  0.4104
  255SOL     OW10678   3.054   7.658   0.974 -0.2362  0.0838 -0.3735
  255SOL    HW110679   2.980   7.725   0.974 -0.4554 -0.1576 -0.8658
  255SOL    HW210680   3.103   7.663   1.061 -1.1988 -0.1545  0.1885
  256SOL     OW10681   4.069   1.326   0.114 -0.2512 -0.0852 -0.3779
  256SOL    HW110682   4.164   1.349   0.091 -0.3192 -0.3731 -0.9698
  256SOL    HW210683   4.007   1.391   0.069 -0.4874 -1.8579 -2.7546
  257SOL     OW10684   5.003   1.734   0.075  0.4895  0.0962 -0.2700
  257SOL    HW110685   4.958   1.697   0.157 -0.5089 -0.7046 -1.1600
  257SOL    HW210686   5.076   1.796   0.102  0.9646 -1.0922  1.2513
  258SOL     OW10687   3.709   0.416   1.006 -0.4782 -0.2222  0.5278
  258SOL    HW110688   3.806   0.406   0.983 -0.0785  1.3629  1.4317
  258SOL    HW210689   3.683   0.347   1.073  0.4512  0.3894  1.5233
  259SOL     OW10690   1.251   5.868   1.880  0.4030  0.2511 -0.0593
  259SOL    HW110691   1.203   5.895   1.963 -0.5429 -1.0880 -0.1563
  259SOL    HW210692   1.187   5.867   1.803  1.0167  0.3538 -0.5820
  260SOL     OW10693   2.275   3.518   1.089  0.2667 -0.6518 -0.0127
  260SOL    HW110694   2.271   3.427   1.049  0.7216 -0.0046 -1.5390
  260SOL    HW210695   2.207   3.525   1.162 -0.6195 -1.8073 -0.7155
  261SOL     OW10696   3.459   4.612   1.860 -0.4403  0.0869  0.0114
  261SOL    HW110697   3.528   4.590   1.791 -0.9752 -1.5526 -0.0085
  261SOL    HW210698   3.369   4.583   1.828 -0.9229  0.7767  0.7157
  262SOL     OW10699   3.921   4.117   0.034  0.2383  0.2761  0.4525
  262SOL    HW110700   3.953   4.209   0.056  0.7208 -0.1610  1.6177
  262SOL    HW210701   3.998   4.061   0.004 -0.3796  0.8018 -2.2069
  263SOL     OW10702   5.153   2.447   2.203  0.3269 -0.0120 -0.5935
  263SOL    HW110703   5.066   2.496   2.192  0.5302  0.5736  0.3419
  263SOL    HW210704   5.194   2.472   2.290  0.9580 -1.0586 -0.5887
  264SOL     OW10705  10.098   6.078   1.528  0.2707 -0.1615  0.2036
  264SOL    HW110706  10.083   5.992   1.577  1.6080 -0.6903 -0.2863
  264SOL    HW210707  10.094   6.154   1.593 -3.0103 -0.3683  0.3050
  265SOL     OW10708   1.879   3.768   2.308 -0.5243 -0.0909  0.5532
  265SOL    HW110709   1.923   3.832   2.245 -2.8238  0.2910 -0.7397
  265SOL    HW210710   1.923   3.774   2.397  0.6705  1.7576 -0.1158
  266SOL     OW10711   2.767   2.699   0.993  0.6138 -0.6146 -0.6122
  266SOL    HW110712   2.793   2.602   0.998  1.2202 -0.4849 -1.1991
  266SOL    HW210713   2.808   2.747   1.071  0.8595 -0.7080 -0.6816
  267SOL     OW10714   2.851   9.821   0.946  0.1470 -0.0815 -0.3660
  267SOL    HW110715   2.770   9.771   0.917  0.2036 -0.5588  0.2780
  267SOL    HW210716   2.895   9.864   0.867 -1.1333  0.7810 -0.6166
  268SOL     OW10717   3.166   7.914   0.339 -0.4209 -0.1338 -0.7488
  268SOL    HW110718   3.263   7.935   0.353 -0.4996  0.4074 -1.0364
  268SOL    HW210719   3.135   7.852   0.411 -0.2629  0.9276  0.2489
  269SOL     OW10720   3.598   4.992   1.583 -0.5137 -0.1974 -0.6647
  269SOL    HW110721   3.520   4.935   1.610 -0.9624  0.5164 -0.4460
  269SOL    HW210722   3.683   4.940   1.596 -0.8605 -0.5435  0.2763
  270SOL     OW10723   0.924   6.162   0.856  0.1875 -0.1163  0.4337
  270SOL    HW110724   1.004   6.122   0.902  1.1264  0.6582 -0.5013
  270SOL    HW210725   0.936   6.261   0.849 -2.7395  0.5893  3.9661
  271SOL     OW10726   0.427   4.810   1.264  0.4144  0.1373  0.1636
  271SOL    HW110727   0.488   4.860   1.325  0.6107 -0.5661  0.5571
  271SOL    HW210728   0.340   4.858   1.257  0.7865  0.8131  0.1079
  272SOL     OW10729   3.319   5.787   1.041  0.1646  0.3122 -0.0452
  272SOL    HW110730   3.323   5.719   1.115  0.8231 -0.0853 -0.4375
  272SOL    HW210731   3.375   5.866   1.066 -0.5412  0.6804  0.3788
  273SOL     OW10732   3.950   0.313   2.494 -0.3362 -0.3183  0.3512
  273SOL    HW110733   3.917   0.358   2.577 -0.7398  0.4070 -0.1924
  273SOL    HW210734   3.922   0.217   2.495 -1.1769 -0.0753  0.5983
  274SOL     OW10735   2.873   3.894   2.195 -0.0043  0.0454 -0.1555
  274SOL    HW110736   2.885   3.854   2.286 -1.5485  1.1285  0.5528
  274SOL    HW210737   2.951   3.952   2.173 -0.1062  0.6079  0.9225
  275SOL     OW10738   2.459   2.587   1.112  0.3097  0.1177 -0.2389
  275SOL    HW110739   2.393   2.627   1.175 -0.3130  1.2260 -1.5594
  275SOL    HW210740   2.501   2.659   1.057  1.4963 -0.7352 -0.4725
  276SOL     OW10741   5.369   2.724   2.040  0.4648 -0.0378  0.4439
  276SOL    HW110742   5.424   2.807   2.043  0.6741 -0.1493 -0.2765
  276SOL    HW210743   5.296   2.730   2.108  1.0101  0.3578  1.0055
  277SOL     OW10744   4.508   3.028   2.232  0.4417 -0.4645 -0.0172
  277SOL    HW110745   4.490   3.078   2.317  0.5217  0.1248 -0.3454
  277SOL    HW210746   4.601   3.047   2.202  0.0058  0.3019 -0.8955
  278SOL     OW10747   4.600   2.754   1.077  0.1661  0.4792 -0.0307
  278SOL    HW110748   4.615   2.763   1.175  1.8066 -1.8726 -0.0263
  278SOL    HW210749   4.502   2.745   1.059  0.0339 -1.9714  1.6947
  279SOL     OW10750   5.132   2.457   1.853  0.3986 -0.1111  0.5385
  279SOL    HW110751   5.214   2.448   1.909  1.2263 -2.1963 -0.9629
  279SOL    HW210752   5.073   2.377   1.867 -0.5604  0.5398  0.2927
  280SOL     OW10753   3.626   8.183   1.194 -0.2641  0.3523 -0.1472
  280SOL    HW110754   3.675   8.096   1.189  0.6403  0.9083 -1.1315
  280SOL    HW210755   3.645   8.228   1.281  0.0335  0.0166 -0.0418
  281SOL     OW10756   3.018   1.654   2.086 -0.4399 -0.1764 -0.4381
  281SOL    HW110757   2.925   1.616   2.083  0.1719 -2.0028  1.8411
  281SOL    HW210758   3.014   1.748   2.120 -1.4819 -0.1863 -0.5048
  282SOL     OW10759   4.618   1.898   0.674 -0.2585  0.0127  0.4192
  282SOL    HW110760   4.707   1.937   0.700  0.1743 -0.7295  0.0751
  282SOL    HW210761   4.622   1.799   0.684 -1.0649 -0.0200  0.4219
  283SOL     OW10762   0.299   4.341   0.134 -0.5629  0.4716 -0.3098
  283SOL    HW110763   0.200   4.355   0.129 -0.4324  1.4957 -0.0159
  283SOL    HW210764   0.335   4.328   0.042 -1.3459 -2.6111 -0.2536
  284SOL     OW10765   4.052   8.756   0.163  0.4509  0.3672 -0.4919
  284SOL    HW110766   4.103   8.671   0.147  0.7049  0.0868  1.6335
  284SOL    HW210767   3.956   8.735   0.180  0.8929  0.2904  2.0731
  285SOL     OW10768   3.125   5.184   2.351 -0.3870  0.3095  0.3184
  285SOL    HW110769   3.170   5.198   2.264  0.3531  0.9358  0.7979
  285SOL    HW210770   3.066   5.263   2.371 -1.3879 -0.3187 -0.1146
  286SOL     OW10771   2.934   6.825   2.383 -0.1378  0.1128 -0.2640
  286SOL    HW110772   2.875   6.748   2.357 -0.4865  1.6502 -4.3556
  286SOL    HW210773   2.881   6.889   2.439  0.5707 -3.1660  4.5163
  287SOL     OW10774   4.402  10.217   1.515 -0.2755  0.5661  0.1491
  287SOL    HW110775   4.310  10.221   1.551  0.3058  1.1077  1.5889
  287SOL    HW210776   4.468  10.242   1.586  0.9481  0.7279 -1.0080
  288SOL     OW10777   4.150   3.920   0.981 -0.0675  0.0792  0.0916
  288SOL    HW110778   4.127   4.017   0.973 -1.5924 -0.4096 -1.8223
  288SOL    HW210779   4.079   3.873   1.033  1.5150  0.2521  2.4863
  289SOL     OW10780   2.581   4.236   0.997  0.4054 -0.0668  0.1293
  289SOL    HW110781   2.610   4.319   0.949  1.7943  0.2082  1.4128
  289SOL    HW210782   2.662   4.182   1.022 -0.4128 -1.1389  0.4985
  290SOL     OW10783   2.489   7.416   1.864 -0.0763  0.5170  0.2145
  290SOL    HW110784   2.397   7.428   1.902 -0.2154  0.6230 -0.1477
  290SOL    HW210785   2.487   7.438   1.766  0.9148  3.2409  0.7667
  291SOL     OW10786   3.025   0.915   2.270 -0.2378 -0.0214  0.0301
  291SOL    HW110787   3.027   0.968   2.185 -0.0389 -1.2452 -0.7417
  291SOL    HW210788   3.111   0.926   2.319  0.0956 -0.2485 -0.5084
  292SOL     OW10789   1.386   5.263   0.132 -0.0740 -0.1713 -0.0999
  292SOL    HW110790   1.298   5.216   0.120 -0.1293 -0.4180  1.0923
  292SOL    HW210791   1.401   5.279   0.230  0.6573  0.9488 -0.3886
  293SOL     OW10792   3.763   4.301   0.433  0.0047  0.3151  0.0555
  293SOL    HW110793   3.850   4.317   0.481 -0.1405  1.2594  0.0273
  293SOL    HW210794   3.726   4.389   0.402  0.2304 -0.3049 -2.0386
  294SOL     OW10795   2.830   2.941   1.879 -0.1522 -0.0855  0.4980
  294SOL    HW110796   2.830   2.841   1.888 -0.7523  0.0169  1.7517
  294SOL    HW210797   2.774   2.981   1.951 -0.0490  1.1593 -0.0958
  295SOL     OW10798   3.564   5.664   0.097 -0.0776 -0.4809  0.0215
  295SOL    HW110799   3.520   5.688   0.183 -0.6217  0.1781 -0.4385
  295SOL    HW210800   3.545   5.568   0.076  1.0984 -0.9971  1.2526
  296SOL     OW10801   4.521   3.470   2.137  0.0615 -0.6831  0.8471
  296SOL    HW110802   4.445   3.404   2.131 -2.2422  1.9717 -0.1639
  296SOL    HW210803   4.586   3.453   2.063 -1.2381 -0.9541 -0.2517
  297SOL     OW10804   2.169   6.260   0.072 -0.2559 -0.2028  0.1682
  297SOL    HW110805   2.166   6.360   0.060 -2.3509 -0.2696 -0.0785
  297SOL    HW210806   2.176   6.239   0.169 -0.6400  0.1872  0.2856
  298SOL     OW10807   2.071   7.335   0.134 -0.0684 -0.4501  0.4332
  298SOL    HW110808   2.104   7.260   0.191 -1.6844  2.1940  5.1349
  298SOL    HW210809   2.149   7.389   0.101  0.8259 -0.7877  1.9629
  299SOL     OW10810   2.724   6.156   0.959  0.8555 -0.4264 -0.3452
  299SOL    HW110811   2.696   6.065   0.927 -0.7100 -0.2565  0.4590
  299SOL    HW210812   2.642   6.213   0.970  1.6817  0.5600  0.7069
  300SOL     OW10813   1.467   4.610   0.717  0.2458  0.0319  0.4211
  300SOL    HW110814   1.447   4.698   0.760  0.4179  0.3201 -0.0814
  300SOL    HW210815   1.387   4.551   0.723 -0.2380  0.6074 -0.1880
  301SOL     OW10816   2.118   3.884   1.061  0.1274 -0.0818  0.4178
  301SOL    HW110817   2.023   3.855   1.068  0.1403  0.3671  2.6254
  301SOL    HW210818   2.124   3.970   1.010 -0.5210 -0.6611 -0.6507
  302SOL     OW10819   4.998   2.834   1.593  1.0410  0.3228  0.4304
  302SOL    HW110820   5.068   2.819   1.662  0.9374 -1.6057  0.1237
  302SOL    HW210821   4.908   2.844   1.637  0.7306 -2.5251  0.4933
  303SOL     OW10822   5.086   4.985   0.566  0.1660  0.1024 -0.2768
  303SOL    HW110823   5.080   5.000   0.467 -2.0858  0.8170 -0.0636
  303SOL    HW210824   5.035   5.056   0.614  0.1040 -0.9962  1.3438
  304SOL     OW10825   0.415   5.993  -0.018  0.1216 -0.4673 -0.2578
  304SOL    HW110826   0.396   5.999  -0.116 -1.0420 -1.4052 -0.1040
  304SOL    HW210827   0.513   6.005  -0.002  0.7097 -2.8954 -1.7933
  305SOL     OW10828   3.426   3.456   0.371  0.2514  0.0367 -0.0107
  305SOL    HW110829   3.495   3.451   0.443 -0.3228 -0.3069  0.5243
  305SOL    HW210830   3.389   3.365   0.354 -1.0535  0.4167  0.6925
  306SOL     OW10831   5.209   3.738   0.707 -0.0384 -0.1262 -0.2589
  306SOL    HW110832   5.212   3.809   0.637 -1.0041 -0.4823 -0.6746
  306SOL    HW210833   5.299   3.727   0.747  0.2606  0.9055 -0.6230
  307SOL     OW10834   2.851   8.857   0.214 -0.7792  0.2645 -0.2022
  307SOL    HW110835   2.823   8.817   0.127  0.9069 -0.5480 -0.3998
  307SOL    HW210836   2.872   8.784   0.280 -1.2417  0.8630  0.6207
  308SOL     OW10837   0.210   5.890   2.158 -0.0500  0.4839 -0.1754
  308SOL    HW110838   0.205   5.920   2.062 -2.7179  0.6182 -0.0265
  308SOL    HW210839   0.197   5.791   2.162  0.0848  0.4769  0.0669
  309SOL     OW10840   2.316   7.210   1.215  0.3880  0.4980  0.3179
  309SOL    HW110841   2.284   7.119   1.244 -0.2600  1.0795  1.4711
  309SOL    HW210842   2.239   7.262   1.179  0.6345  0.8141  0.2510
  310SOL     OW10843   1.081   5.223   0.684  0.4046  0.1138  0.2723
  310SOL    HW110844   1.058   5.300   0.744 -0.3157 -0.3687  0.6078
  310SOL    HW210845   1.149   5.165   0.729  0.1743 -0.0195  0.4472
  311SOL     OW10846   2.074   3.042  -0.029 -0.0870 -0.2347 -0.1214
  311SOL    HW110847   2.085   2.996   0.059  1.1827  0.9159  0.3287
  311SOL    HW210848   1.987   3.092  -0.030 -0.4893 -0.9226  0.1599
  312SOL     OW10849   3.283   0.400   0.844 -0.0859 -0.2430  0.4538
  312SOL    HW110850   3.208   0.463   0.822  0.9203  0.6486 -0.4746
  312SOL    HW210851   3.329   0.372   0.760  1.0558 -0.2323  1.0667
  313SOL     OW10852   2.861   5.255   1.897 -0.0814  0.3783  0.0279
  313SOL    HW110853   2.953   5.232   1.929  0.7911  2.0949 -1.2003
  313SOL    HW210854   2.856   5.241   1.798 -2.0888 -2.6920  0.4995
  314SOL     OW10855   2.143   2.684   0.709 -0.0461  0.3074 -0.0955
  314SOL    HW110856   2.233   2.726   0.714 -0.0260  0.4029 -1.1500
  314SOL    HW210857   2.119   2.646   0.798  0.1390  2.1298  0.7509
  315SOL     OW10858   3.142   1.685   0.530 -0.1405  0.2000  0.8581
  315SOL    HW110859   3.170   1.761   0.588 -1.4968  2.7406 -1.6505
  315SOL    HW210860   3.218   1.621   0.519  1.6470  2.1402  1.5863
  316SOL     OW10861   9.968   6.010   1.271 -0.1670  0.6645 -0.6642
  316SOL    HW110862   9.985   6.071   1.193  1.2324  1.2882  0.1079
  316SOL    HW210863  10.037   6.026   1.341  1.1986 -2.9114 -1.0729
  317SOL     OW10864   3.331   1.873   2.463  0.1570 -0.0740  0.0104
  317SOL    HW110865   3.300   1.781   2.485  1.2866 -0.1495  1.3185
  317SOL    HW210866   3.294   1.938   2.530  2.0275 -0.0383  1.0405
  318SOL     OW10867   3.874   0.775   0.014  0.2956 -0.2048 -0.0009
  318SOL    HW110868   3.877   0.712  -0.063  1.3191  0.4499 -0.4994
  318SOL    HW210869   3.864   0.869  -0.020 -0.9709 -0.0611  0.7246
  319SOL     OW10870   3.419   5.796   1.790  0.5729 -0.1634 -0.0885
  319SOL    HW110871   3.405   5.852   1.872  1.6953 -1.6426  1.1652
  319SOL    HW210872   3.500   5.738   1.804  1.1806  0.0516 -2.5296
  320SOL     OW10873   2.928   5.981   1.936 -0.1281 -0.2040  0.3731
  320SOL    HW110874   2.878   6.045   1.877  1.0278  1.4005  1.0952
  320SOL    HW210875   2.993   5.929   1.881  1.4128  1.7477  0.2451
  321SOL     OW10876   0.237   5.200   2.008  0.0046  0.2607 -0.4058
  321SOL    HW110877   0.144   5.233   2.024  0.1578  0.1461  0.8088
  321SOL    HW210878   0.297   5.232   2.082  0.0760 -2.9782  1.0142
  322SOL     OW10879   3.331   4.828   0.334  0.3752 -0.1252 -0.4293
  322SOL    HW110880   3.390   4.851   0.411  0.0167 -2.6230  0.6202
  322SOL    HW210881   3.249   4.782   0.367  0.5516 -1.8802 -2.3332
  323SOL     OW10882   4.545   4.307   0.021 -0.5239  0.5540 -0.6653
  323SOL    HW110883   4.638   4.276   0.038 -1.3699 -1.2742  0.8149
  323SOL    HW210884   4.516   4.279  -0.070  1.3118  3.5857 -2.2695
  324SOL     OW10885   2.945   4.466   1.767 -0.3520  0.0998  0.2006
  324SOL    HW110886   2.887   4.387   1.750  0.4268 -0.5149  0.3847
  324SOL    HW210887   2.907   4.520   1.843  0.4992 -1.4883  1.7841
  325SOL     OW10888   0.853   6.236   1.927 -0.0471  0.1961  0.1249
  325SOL    HW110889   0.948   6.231   1.957 -0.0146  2.0007  0.3859
  325SOL    HW210890   0.821   6.145   1.903  1.7451 -0.4369  0.0462
  326SOL     OW10891   1.327   3.551   1.031 -0.3796 -0.3863 -0.3661
  326SOL    HW110892   1.403   3.503   1.076 -1.3312 -0.9669  0.6357
  326SOL    HW210893   1.249   3.489   1.023 -0.9511  0.3903 -0.8753
  327SOL     OW10894   3.978   3.413   0.774  0.3297  0.1590  0.4583
  327SOL    HW110895   4.042   3.480   0.736  1.9621 -1.6580 -0.0811
  327SOL    HW210896   3.947   3.444   0.863 -1.2856  3.0713 -1.0695
  328SOL     OW10897   2.873   9.779   0.058  0.2667  0.1586 -0.2319
  328SOL    HW110898   2.831   9.798  -0.031 -2.4980 -0.7962  0.8088
  328SOL    HW210899   2.922   9.860   0.090 -0.5542  1.2239 -1.6220
  329SOL     OW10900   4.080   0.406   2.274 -0.0602 -0.6522  0.0446
  329SOL    HW110901   4.034   0.338   2.216 -0.1888 -1.3324  0.9331
  329SOL    HW210902   4.055   0.390   2.369  0.1080  0.4967  0.2866
  330SOL     OW10903   1.926   5.394   0.451  0.3188  0.2318 -0.6720
  330SOL    HW110904   2.013   5.412   0.497 -0.4859 -1.4465  1.6253
  330SOL    HW210905   1.933   5.312   0.395  0.4068  0.5011 -1.0590
  331SOL     OW10906   1.619   2.846   0.033 -0.3201  0.4395 -0.4443
  331SOL    HW110907   1.529   2.803   0.021  0.2049 -0.8662  0.1248
  331SOL    HW210908   1.622   2.891   0.122  0.8073 -2.7024  1.1750
  332SOL     OW10909   1.335   3.199   1.058 -0.8988 -0.0882 -0.4433
  332SOL    HW110910   1.390   3.141   0.998  0.4689  0.3890  0.3356
  332SOL    HW210911   1.391   3.274   1.092 -2.0895  0.5071  0.2148
  333SOL     OW10912   3.159   8.953   1.075  0.0644  0.0581  0.1606
  333SOL    HW110913   3.135   8.912   0.987 -0.2480  2.6768 -1.0130
  333SOL    HW210914   3.258   8.959   1.083  0.0828  0.1916 -0.1766
  334SOL     OW10915   2.915   6.504   2.257 -0.4691 -0.0479  0.2201
  334SOL    HW110916   2.987   6.540   2.197  0.5559 -2.7059 -0.2082
  334SOL    HW210917   2.826   6.524   2.217  0.1359  0.3756 -0.9428
  335SOL     OW10918   3.229   2.964   2.558 -0.0035 -0.2630  0.1119
  335SOL    HW110919   3.309   3.013   2.522  0.1259  0.2889  1.1300
  335SOL    HW210920   3.157   2.964   2.490 -0.0989  1.5889  0.1777
  336SOL     OW10921   3.606   0.932   0.353 -0.0285 -0.1880 -0.3808
  336SOL    HW110922   3.531   0.994   0.374 -0.8655 -1.7532  1.4607
  336SOL    HW210923   3.666   0.924   0.433 -0.4595 -2.4397 -0.2448
  337SOL     OW10924   4.382   9.091   0.272  0.5190  0.0477 -0.0767
  337SOL    HW110925   4.376   9.017   0.339  1.8100  1.5134  1.6952
  337SOL    HW210926   4.292   9.106   0.231 -0.5364 -0.1814  2.0984
  338SOL     OW10927   3.826   8.049   0.924 -0.3516  0.3254  0.3482
  338SOL    HW110928   3.918   8.031   0.958 -0.0104  0.5646 -0.4284
  338SOL    HW210929   3.768   7.970   0.942  0.7856 -1.0512 -1.8213
  339SOL     OW10930   2.733   4.119   0.350  0.1374 -0.8280 -0.1340
  339SOL    HW110931   2.826   4.134   0.384  0.5727 -1.1611 -1.1768
  339SOL    HW210932   2.699   4.031   0.385  0.4603 -1.0131 -0.2788
  340SOL     OW10933   4.205   3.291   0.948  0.4381  0.1820  0.1169
  340SOL    HW110934   4.258   3.207   0.959 -0.8306 -0.6590 -0.0849
  340SOL    HW210935   4.240   3.342   0.869 -0.0414 -1.1560 -1.0037
  341SOL     OW10936   3.575   2.725   2.135  0.2695 -0.6550 -0.1594
  341SOL    HW110937   3.592   2.813   2.178  1.2565 -1.1298  0.4445
  341SOL    HW210938   3.517   2.669   2.195  1.6900 -1.3380  0.6142
  342SOL     OW10939   5.362   3.108   1.441  0.2156  0.0558  0.1423
  342SOL    HW110940   5.406   3.023   1.470  0.4823  0.8797  2.2238
  342SOL    HW210941   5.265   3.105   1.465 -0.6112 -1.1063 -3.0307
  343SOL     OW10942   4.155   1.043   1.067  0.3770 -0.3208 -0.7249
  343SOL    HW110943   4.149   1.069   0.970  1.6393 -0.0206 -0.7300
  343SOL    HW210944   4.249   1.054   1.099 -0.1701  0.2617  0.7340
  344SOL     OW10945   1.947   2.674   1.418 -0.1622 -0.2401  0.0690
  344SOL    HW110946   1.995   2.737   1.479  1.8818 -1.8631  0.1684
  344SOL    HW210947   1.867   2.637   1.465 -0.1095  0.5660  0.8021
  345SOL     OW10948   3.013   9.356   0.181  0.6105  0.4948 -0.1774
  345SOL    HW110949   3.019   9.421   0.257 -1.3415  0.0566  0.3839
  345SOL    HW210950   2.978   9.403   0.100 -1.5572  0.0123  0.4454
  346SOL     OW10951   9.864   5.555   1.183 -0.4194 -0.1739  0.8227
  346SOL    HW110952   9.883   5.458   1.199 -1.8962 -0.4977  0.6394
  346SOL    HW210953   9.823   5.567   1.093  0.1120  0.6805  0.6830
  347SOL     OW10954   2.070   4.480   0.541  0.0917  0.1676  0.2926
  347SOL    HW110955   1.989   4.465   0.484 -0.1311 -1.0184  0.8913
  347SOL    HW210956   2.144   4.518   0.485 -0.6602  0.6243 -0.4023
  348SOL     OW10957  10.091   4.884   1.949  0.0261 -0.0377 -0.0127
  348SOL    HW110958  10.136   4.932   1.874 -0.5440  0.9474  0.2691
  348SOL    HW210959   9.994   4.873   1.929 -0.1951  0.5201  0.7221
  349SOL     OW10960   2.295   4.179   1.879 -0.0225 -0.7247  0.6428
  349SOL    HW110961   2.247   4.164   1.793  1.1589  0.6727 -0.2794
  349SOL    HW210962   2.357   4.102   1.896 -1.0253 -1.5134  0.7960
  350SOL     OW10963   2.044   6.608   1.202  0.4394 -0.1360  0.3382
  350SOL    HW110964   2.113   6.648   1.142 -0.0970  1.0506  0.4936
  350SOL    HW210965   2.081   6.602   1.295 -1.0211  4.3829  1.3387
  351SOL     OW10966   2.621   9.534   1.463 -0.2431 -0.0047 -0.6681
  351SOL    HW110967   2.620   9.618   1.409 -0.1487  1.1638  1.0826
  351SOL    HW210968   2.705   9.530   1.516 -0.4664 -0.9736 -0.3868
  352SOL     OW10969   4.174   2.878   1.137 -0.5674 -0.1879 -0.5177
  352SOL    HW110970   4.244   2.821   1.179  0.4409  1.4428  0.0613
  352SOL    HW210971   4.128   2.827   1.065  0.3096 -1.7212 -0.0056
  353SOL     OW10972   3.722   3.833   0.880 -0.2821 -0.0720  0.0277
  353SOL    HW110973   3.759   3.913   0.834 -1.7970  1.0973  0.8020
  353SOL    HW210974   3.778   3.811   0.960  0.1948  0.1309 -0.2492
  354SOL     OW10975   1.784   2.930   1.253 -0.3822 -0.4079 -0.1224
  354SOL    HW110976   1.854   2.859   1.258  0.3924  0.2645 -1.1729
  354SOL    HW210977   1.745   2.933   1.161 -2.1306 -1.0736  0.5691
  355SOL     OW10978   1.679   6.113   1.209  0.0736  0.4676 -0.0694
  355SOL    HW110979   1.594   6.066   1.231  0.6308  0.0768  1.2991
  355SOL    HW210980   1.663   6.179   1.136 -0.8638 -1.3783 -1.5678
  356SOL     OW10981   3.469   8.380   2.064  0.3523 -0.0658 -0.1914
  356SOL    HW110982   3.431   8.457   2.115  1.3188 -0.8782  1.8171
  356SOL    HW210983   3.396   8.316   2.041 -0.2573  0.8288 -0.8194
  357SOL     OW10984   1.764   6.731   1.184  0.5934 -0.1372  0.3045
  357SOL    HW110985   1.710   6.692   1.109  0.7294  0.9311 -0.3666
  357SOL    HW210986   1.848   6.677   1.196  0.9376  0.1207 -0.8305
  358SOL     OW10987   2.157   4.166   1.647 -0.0999  0.3587 -0.0114
  358SOL    HW110988   2.072   4.218   1.653  0.8349  2.0594 -1.1508
  358SOL    HW210989   2.143   4.085   1.591 -1.3164 -0.1332  0.9823
  359SOL     OW10990   3.268   2.921   2.225 -0.0221  0.6808  0.2709
  359SOL    HW110991   3.221   2.935   2.138 -0.4270  1.7396  0.6610
  359SOL    HW210992   3.363   2.952   2.218  0.4096 -0.7009 -0.2650
  360SOL     OW10993   3.639   1.600   1.831  0.6339 -0.0498 -0.1525
  360SOL    HW110994   3.592   1.521   1.790  2.4902 -0.9028 -0.6817
  360SOL    HW210995   3.610   1.611   1.926  0.2484 -1.2780 -0.1206
  361SOL     OW10996   3.820   2.614   2.133  0.4892 -0.5001  0.2635
  361SOL    HW110997   3.729   2.653   2.152  1.4202  1.1466  1.4050
  361SOL    HW210998   3.864   2.667   2.061  1.2918 -0.1786  0.9957
  362SOL     OW10999   0.212   3.766   1.430 -0.0235 -0.4855 -0.2515
  362SOL    HW111000   0.274   3.835   1.392 -1.4650  1.0591  0.1570
  362SOL    HW211001   0.180   3.706   1.357 -1.3086  1.3019 -1.1894
  363SOL     OW11002   2.300   4.398   1.611  0.1008  0.3956 -0.5725
  363SOL    HW111003   2.268   4.423   1.520 -2.7250  1.4137  0.6558
  363SOL    HW211004   2.258   4.311   1.638 -0.6630  1.1027  0.5494
  364SOL     OW11005   3.401   9.461   2.029 -0.4111 -0.3532 -0.4782
  364SOL    HW111006   3.397   9.378   2.085  0.4321 -0.9973 -1.3659
  364SOL    HW211007   3.484   9.461   1.974 -0.9518  0.5495 -1.3231
  365SOL     OW11008   4.974   3.735   2.103  0.2933  0.2684  0.1615
  365SOL    HW111009   5.002   3.683   2.022  1.1525 -0.2921  0.8164
  365SOL    HW211010   4.907   3.681   2.155 -1.4731  1.2899 -1.0011
  366SOL     OW11011   9.750   5.160   1.910 -0.4594  0.2463  0.1289
  366SOL    HW111012   9.813   5.222   1.957 -2.7315  1.9805  0.9946
  366SOL    HW211013   9.772   5.066   1.935  0.6252  0.9306  1.8988
  367SOL     OW11014   9.389   5.470   2.128  0.1527 -0.2329  0.4580
  367SOL    HW111015   9.417   5.468   2.032 -2.1518 -0.1758 -0.2408
  367SOL    HW211016   9.389   5.377   2.165  0.8268 -0.2776  0.3576
  368SOL     OW11017   2.282   5.030   1.671  0.0913  0.0075 -0.5847
  368SOL    HW111018   2.234   4.944   1.689  0.0879  0.1860  0.2832
  368SOL    HW211019   2.377   5.010   1.648  0.6379 -0.1460  1.6293
  369SOL     OW11020   3.618   9.600   1.508 -0.3485 -0.1091  0.4658
  369SOL    HW111021   3.560   9.536   1.558  1.2273 -1.7181  0.3071
  369SOL    HW211022   3.593   9.600   1.411  1.1969 -2.3667  0.0177
  370SOL     OW11023   3.562   0.492   1.795  0.0491 -0.1203 -0.2349
  370SOL    HW111024   3.592   0.550   1.871 -1.2792 -0.4982  0.5791
  370SOL    HW211025   3.592   0.398   1.810  1.3896  0.1536 -1.0989
  371SOL     OW11026   4.234   0.613   2.183 -0.1729 -0.2030  0.3459
  371SOL    HW111027   4.185   0.528   2.204 -0.2894  0.1248  1.4006
  371SOL    HW211028   4.175   0.674   2.131 -0.1450 -0.7019 -0.2756
  372SOL     OW11029   3.074   8.455   2.126  0.6943 -0.0128 -1.0275
  372SOL    HW111030   3.061   8.552   2.105 -0.1952 -0.4307 -2.4547
  372SOL    HW211031   3.134   8.414   2.058  0.2356 -0.6945 -1.0282
  373SOL     OW11032   1.852   2.997   1.548  0.6524  0.0827  0.0399
  373SOL    HW111033   1.911   3.075   1.528  0.4674  0.7745  2.0163
  373SOL    HW211034   1.756   3.024   1.539  0.5745  0.3268  1.5125
  374SOL     OW11035   2.971   6.591   1.180  0.0360 -0.3674  0.1072
  374SOL    HW111036   2.954   6.677   1.228  0.3232 -0.5426  0.5316
  374SOL    HW211037   2.992   6.520   1.247  0.4572 -0.6134 -0.2863
  375SOL     OW11038   4.649   0.893   0.748 -0.2855 -0.7567 -0.0854
  375SOL    HW111039   4.671   0.804   0.706  1.6109  0.6285 -2.1438
  375SOL    HW211040   4.652   0.964   0.678 -0.0448  1.2116  1.8834
  376SOL     OW11041   2.262   2.577   1.539 -0.0628  0.0851 -0.3854
  376SOL    HW111042   2.213   2.493   1.563 -1.0897  0.8208  0.1542
  376SOL    HW211043   2.359   2.557   1.527 -0.5296 -1.4334 -1.6911
  377SOL     OW11044   2.870   2.207   1.936  0.0553 -0.1982  0.2417
  377SOL    HW111045   2.811   2.145   1.884 -1.6406  2.5073 -1.2030
  377SOL    HW211046   2.953   2.226   1.883 -0.3566  0.3210 -0.2263
  378SOL     OW11047   2.980  10.090   1.632 -0.1289  0.0237 -0.4375
  378SOL    HW111048   2.957  10.010   1.687 -0.3865  1.9083  2.3016
  378SOL    HW211049   3.078  10.110   1.643 -0.6488  1.7956  1.3176
  379SOL     OW11050   3.420   3.037   0.217  0.3218  0.4974 -0.6066
  379SOL    HW111051   3.406   3.080   0.128 -0.9182  0.1839 -0.5683
  379SOL    HW211052   3.367   2.952   0.222 -0.0787  0.8106  0.6418
  380SOL     OW11053   1.722   3.017   0.240 -0.3310  0.8487  0.0618
  380SOL    HW111054   1.786   3.062   0.178 -0.1172 -1.5999 -1.5764
  380SOL    HW211055   1.767   2.939   0.283 -1.4041  0.7208  0.9759
  381SOL     OW11056   3.746   2.224   2.450  0.2441 -1.2281 -0.2577
  381SOL    HW111057   3.758   2.276   2.535  0.3111 -0.5827 -0.6577
  381SOL    HW211058   3.804   2.263   2.379 -1.5408 -0.3178 -1.2462
  382SOL     OW11059   2.363   6.642   0.395 -0.6967  0.7142  0.2991
  382SOL    HW111060   2.371   6.559   0.340 -0.3864 -0.3157  1.8706
  382SOL    HW211061   2.290   6.632   0.462 -0.1007  1.3639  1.0716
  383SOL     OW11062   2.246   5.148   2.298  0.7842  0.5719  0.0647
  383SOL    HW111063   2.236   5.057   2.258  2.1608 -0.6100  2.3258
  383SOL    HW211064   2.199   5.152   2.386  3.4087  1.0148  1.5030
  384SOL     OW11065   1.540   4.143   1.043 -0.2002  0.2462 -0.2300
  384SOL    HW111066   1.503   4.075   1.107 -0.3174  0.2355 -0.3090
  384SOL    HW211067   1.567   4.097   0.958 -0.7166  0.3653 -0.4628
  385SOL     OW11068   3.901   8.968   1.219  0.3143 -0.2276  0.4130
  385SOL    HW111069   3.917   9.055   1.171 -1.5695  0.2459  0.6075
  385SOL    HW211070   3.936   8.974   1.312 -1.2392  0.9066  0.9445
  386SOL     OW11071   2.937   8.007   1.468 -0.1223  0.0183  0.1435
  386SOL    HW111072   2.974   8.009   1.375 -0.5617  0.8530 -0.0190
  386SOL    HW211073   2.878   7.927   1.478 -1.1023  0.6206 -0.7066
  387SOL     OW11074   4.914   2.643   1.882 -0.2525  0.8892 -0.4159
  387SOL    HW111075   4.973   2.578   1.834  0.8027  1.3032  0.3082
  387SOL    HW211076   4.823   2.604   1.893  0.1023 -0.0735 -0.8520
  388SOL     OW11077   1.779   4.864   0.068 -0.0584 -0.0789 -0.4348
  388SOL    HW111078   1.853   4.831   0.127  0.7583  0.1889 -1.3033
  388SOL    HW211079   1.737   4.787   0.021  0.3587 -0.1205 -0.7395
  389SOL     OW11080   2.797   1.205   1.435 -0.4905 -0.3116 -0.0545
  389SOL    HW111081   2.841   1.276   1.489 -0.8316  0.4040 -0.7075
  389SOL    HW211082   2.850   1.121   1.441  1.5245  0.7883 -1.6214
  390SOL     OW11083   1.395   5.391   1.621  0.5031 -0.4294 -0.4201
  390SOL    HW111084   1.391   5.446   1.537  0.8789 -0.6154 -0.5590
  390SOL    HW211085   1.488   5.390   1.656  0.0342  0.9546  0.8764
  391SOL     OW11086   2.253   4.105   0.921  0.7247 -0.8202  0.6285
  391SOL    HW111087   2.306   4.160   0.857  0.1265 -1.7981 -0.7478
  391SOL    HW211088   2.199   4.165   0.980  0.5970  0.0943 -0.3914
  392SOL     OW11089   3.046   1.410   2.566 -0.2562  0.4936  1.4406
  392SOL    HW111090   3.008   1.377   2.479  1.5820  0.1499  0.7373
  392SOL    HW211091   2.972   1.426   2.631 -1.6540  0.7079 -0.1724
  393SOL     OW11092   4.334   2.372   1.888  0.4040  0.2331  0.1731
  393SOL    HW111093   4.358   2.306   1.960  1.4354  0.2332 -0.1673
  393SOL    HW211094   4.401   2.366   1.814  0.1940  1.2973 -0.1020
  394SOL     OW11095   3.389   9.377   0.766 -0.4728 -0.0418  0.1931
  394SOL    HW111096   3.474   9.333   0.795  0.8815  1.5430 -1.2414
  394SOL    HW211097   3.311   9.323   0.796  1.0552 -1.6443  1.3363
  395SOL     OW11098   2.068   3.451   2.515  0.0365  0.2375  0.4893
  395SOL    HW111099   2.155   3.404   2.497 -0.5981 -0.5923 -0.4745
  395SOL    HW211100   2.036   3.495   2.431  0.3097  1.8994  1.2272
  396SOL     OW11101   2.347   5.305   0.491  0.3289 -0.3564 -0.1355
  396SOL    HW111102   2.377   5.386   0.441  0.4261 -1.1753 -1.4193
  396SOL    HW211103   2.300   5.243   0.429 -1.6349 -0.3221  1.2956
  397SOL     OW11104   3.075   0.580   0.817 -0.6812  0.7274 -0.4608
  397SOL    HW111105   2.982   0.562   0.788 -1.3435  0.5618  1.6879
  397SOL    HW211106   3.075   0.611   0.912  1.4352  0.8813 -0.4869
  398SOL     OW11107   2.353   4.694   2.088 -0.1671  0.1095 -0.0569
  398SOL    HW111108   2.359   4.606   2.040 -0.9216 -0.8597  1.5954
  398SOL    HW211109   2.292   4.755   2.037  2.3516  0.6151 -2.5858
  399SOL     OW11110   2.949   9.531  -0.020  0.5580  0.3307 -0.0261
  399SOL    HW111111   2.917   9.529  -0.114  0.5713 -2.0365 -0.0125
  399SOL    HW211112   2.909   9.610   0.028 -1.6912 -0.0343 -1.2319
  400SOL     OW11113   3.093   4.984   0.552  0.5014 -0.5245 -0.5730
  400SOL    HW111114   3.001   5.009   0.520  0.6198  0.1179 -0.4161
  400SOL    HW211115   3.114   4.891   0.521 -0.6669 -1.1284  0.3821
  401SOL     OW11116   4.152   0.659  -0.008  0.2683 -0.2926  0.4922
  401SOL    HW111117   4.094   0.579   0.005  1.0368 -1.1541 -1.2934
  401SOL    HW211118   4.099   0.742   0.008 -1.4836 -1.0624 -1.2247
  402SOL     OW11119   2.145   2.792   1.660 -0.2118 -0.7433 -0.4055
  402SOL    HW111120   2.184   2.710   1.618 -1.3014 -1.8942  0.7672
  402SOL    HW211121   2.203   2.870   1.640  1.5877 -2.0434 -0.4337
  403SOL     OW11122   2.337   5.714   2.112  0.2890 -0.0650 -0.6641
  403SOL    HW111123   2.285   5.799   2.123  2.4326  1.1083  0.9583
  403SOL    HW211124   2.304   5.646   2.177  0.1868  0.3777 -0.2498
  404SOL     OW11125   1.118   4.612   0.839  0.7698  0.1245  0.0556
  404SOL    HW111126   1.161   4.570   0.760 -0.6618  0.4655 -0.9230
  404SOL    HW211127   1.045   4.552   0.873  0.5062  0.5806  0.3015
  405SOL     OW11128   3.392   9.825   1.018  0.1659 -0.3159 -0.0078
  405SOL    HW111129   3.349   9.861   1.101  0.0171 -0.8366  0.1411
  405SOL    HW211130   3.490   9.813   1.033  0.3345  0.6772 -0.2805
  406SOL     OW11131   9.915   5.524   0.040 -0.6337  0.2763  0.6432
  406SOL    HW111132   9.944   5.619   0.048  0.2486 -0.0869  1.9002
  406SOL    HW211133   9.961   5.469   0.109 -1.1224 -1.0775 -0.0832
  407SOL     OW11134   0.333   5.888   1.136  0.0354 -0.2461 -0.4985
  407SOL    HW111135   0.384   5.803   1.150 -0.7926 -0.8202 -0.9776
  407SOL    HW211136   0.345   5.947   1.216 -2.4580 -2.3669  1.5065
  408SOL     OW11137   1.154   4.737   1.078  0.6613 -0.9167 -1.0832
  408SOL    HW111138   1.221   4.810   1.065 -1.4030  0.9577 -1.4617
  408SOL    HW211139   1.142   4.687   0.992 -0.5738  0.6505 -1.8531
  409SOL     OW11140   1.522   6.662   1.968 -0.0411  0.1595  0.4471
  409SOL    HW111141   1.492   6.744   2.016  3.3169  1.2826  0.7336
  409SOL    HW211142   1.575   6.688   1.887 -0.4395 -1.7278 -0.4446
  410SOL     OW11143   2.613   6.663   2.325  0.5677  0.0498  0.8170
  410SOL    HW111144   2.583   6.646   2.419 -0.1989 -0.5775  0.4660
  410SOL    HW211145   2.564   6.602   2.262  0.8777  0.6434 -0.0208
  411SOL     OW11146   0.851   6.346   0.390  0.1554 -0.0605  0.2035
  411SOL    HW111147   0.854   6.433   0.439  1.1387 -0.0008  0.0386
  411SOL    HW211148   0.836   6.272   0.455 -0.2565  0.1831  0.3918
  412SOL     OW11149   4.070   3.116   0.716  0.2326  0.1215  0.7712
  412SOL    HW111150   4.144   3.058   0.751  2.2957  2.4235  0.4508
  412SOL    HW211151   4.077   3.207   0.758 -1.6636  0.7489 -0.2201
  413SOL     OW11152   3.088   2.919   0.244  0.4832  0.4559 -0.3859
  413SOL    HW111153   3.039   2.900   0.158  0.3479  0.5941 -0.3403
  413SOL    HW211154   3.174   2.870   0.245 -0.6557 -1.5796  0.4983
  414SOL     OW11155   0.353   5.846   0.233 -0.1566  0.0922 -0.4704
  414SOL    HW111156   0.425   5.894   0.283  1.0111  1.0884 -2.9950
  414SOL    HW211157   0.339   5.891   0.145 -2.7512 -1.0882 -0.6898
  415SOL     OW11158   4.389   9.008   1.189 -0.2519  0.0940 -0.2070
  415SOL    HW111159   4.354   8.923   1.227  0.1575  1.0150  2.2890
  415SOL    HW211160   4.482   8.994   1.154 -0.5244 -0.6766 -0.6346
  416SOL     OW11161   2.533   2.308   2.541 -0.1508 -0.1674  0.3321
  416SOL    HW111162   2.590   2.376   2.588  0.6501  0.5061 -1.5628
  416SOL    HW211163   2.569   2.292   2.449 -2.0663 -0.9634 -0.3049
  417SOL     OW11164   3.405   9.557   0.975 -0.4281 -0.6229 -0.2719
  417SOL    HW111165   3.391   9.505   0.891 -0.9551 -1.0682  0.0913
  417SOL    HW211166   3.380   9.652   0.960  2.2561 -0.0525 -1.4720
  418SOL     OW11167   4.794   1.910   0.229 -0.1496 -0.1402 -0.1835
  418SOL    HW111168   4.744   1.977   0.283  1.2349 -1.0694  2.3161
  418SOL    HW211169   4.761   1.818   0.251  2.2745 -0.7359  1.1896
  419SOL     OW11170   0.957   4.273   1.748 -0.4348  0.2821 -0.4907
  419SOL    HW111171   0.933   4.183   1.784 -0.1619  0.5959  0.5085
  419SOL    HW211172   1.046   4.269   1.704 -1.0161 -0.2323 -1.6199
  420SOL     OW11173   4.117   9.041   0.180 -0.1846 -0.3311 -0.0102
  420SOL    HW111174   4.073   9.082   0.101  0.5636 -0.2112 -0.3745
  420SOL    HW211175   4.137   8.944   0.161 -0.8344 -0.5432  0.3810
  421SOL     OW11176   2.211   3.393   0.116  0.5562  0.0473 -0.2687
  421SOL    HW111177   2.209   3.482   0.161 -1.9934 -0.6149  0.9951
  421SOL    HW211178   2.141   3.391   0.044 -0.4919 -1.4606  0.7719
  422SOL     OW11179   3.145   9.769   1.964  0.4160  0.2160  0.2939
  422SOL    HW111180   3.227   9.762   1.908  0.9610 -1.3841  1.2622
  422SOL    HW211181   3.065   9.744   1.909  0.7084  0.6995 -0.3486
  423SOL     OW11182   3.190   4.709   2.465 -0.2068  0.5404  0.5467
  423SOL    HW111183   3.261   4.708   2.536  0.3002  0.2217  0.0353
  423SOL    HW211184   3.159   4.615   2.449  0.3237  0.5133 -0.3050
  424SOL     OW11185   2.944   1.140   1.804  0.2587  0.0277 -0.7809
  424SOL    HW111186   2.940   1.240   1.804  0.4441  0.0353 -1.4790
  424SOL    HW211187   2.869   1.104   1.748  0.4797 -0.2114 -0.9227
  425SOL     OW11188   1.282   6.549   1.932 -0.0937  0.5972  0.4621
  425SOL    HW111189   1.279   6.595   1.843  0.3784 -1.9581 -0.9040
  425SOL    HW211190   1.371   6.565   1.974  0.5945 -0.1865 -0.6514
  426SOL     OW11191   9.840   5.629   1.670  0.0442  0.8460 -0.7954
  426SOL    HW111192   9.782   5.705   1.639 -1.3796 -0.3953 -1.2425
  426SOL    HW211193   9.819   5.548   1.615  2.0393  0.3140 -0.7829
  427SOL     OW11194   3.096   1.462   0.726 -0.1575 -0.7398  0.3244
  427SOL    HW111195   3.194   1.480   0.716 -0.1918 -1.8101 -2.4846
  427SOL    HW211196   3.058   1.520   0.798  1.9821  1.7835 -0.5283
  428SOL     OW11197   2.393   7.065   1.791 -0.4633  0.2165 -0.2475
  428SOL    HW111198   2.395   7.164   1.808  1.2070  0.0652  0.5816
  428SOL    HW211199   2.481   7.037   1.753 -1.0115 -0.9273 -0.6799
  429SOL     OW11200   2.798   5.081   0.533  0.3834  0.5418  0.3253
  429SOL    HW111201   2.761   5.093   0.441 -0.8270 -1.4966  0.5174
  429SOL    HW211202   2.725   5.093   0.600  0.3583 -1.8100  0.7869
  430SOL     OW11203   4.352   8.581   1.121 -0.4186  0.2973  0.5695
  430SOL    HW111204   4.334   8.645   1.046  0.6868 -0.7040 -0.5577
  430SOL    HW211205   4.352   8.631   1.207  3.7498  2.4670 -0.5677
  431SOL     OW11206   3.991  10.236   0.540  0.4263 -0.0568 -0.3631
  431SOL    HW111207   3.913  10.231   0.478  1.6882 -2.4645 -1.7814
  431SOL    HW211208   3.962  10.208   0.632 -0.8096  0.9823 -0.4071
  432SOL     OW11209   0.473   4.522   1.658 -0.0499  0.5138 -0.1986
  432SOL    HW111210   0.400   4.464   1.694  0.1888  0.7288  0.6510
  432SOL    HW211211   0.522   4.474   1.585  0.1453 -0.3617  0.5026
  433SOL     OW11212   3.084   5.306   0.179  0.1885 -0.0232 -0.4291
  433SOL    HW111213   3.123   5.215   0.165 -0.2103 -0.2537 -0.0591
  433SOL    HW211214   3.137   5.356   0.247 -0.5120 -0.5654  0.5350
  434SOL     OW11215   5.081   3.098   1.513 -0.4269 -0.3431  0.1355
  434SOL    HW111216   5.058   3.011   1.557  1.2729 -0.8578  0.0589
  434SOL    HW211217   5.018   3.115   1.438 -2.5448 -0.0980  1.9312
  435SOL     OW11218   9.372   4.720   0.895  0.1439 -0.3861 -0.5564
  435SOL    HW111219   9.397   4.696   0.801 -1.8383  0.1598 -1.2372
  435SOL    HW211220   9.321   4.645   0.936 -0.0677 -0.1269 -0.3459
  436SOL     OW11221   4.132   9.721   2.079 -0.3204 -0.6770  0.1852
  436SOL    HW111222   4.055   9.662   2.101 -1.3282  0.3387 -0.5525
  436SOL    HW211223   4.099   9.803   2.032  1.1002  0.2103  0.6855
  437SOL     OW11224   2.182   4.591   1.786 -0.4193 -0.2114  0.1498
  437SOL    HW111225   2.221   4.518   1.729 -0.8839  0.1493 -0.6527
  437SOL    HW211226   2.146   4.552   1.870 -0.9841 -0.9708 -0.4279
  438SOL     OW11227   5.077   2.456   1.451 -0.0438  0.6258 -0.5900
  438SOL    HW111228   5.029   2.540   1.428  0.2161  1.1631  0.7617
  438SOL    HW211229   5.062   2.434   1.548  0.1257 -0.7228 -0.8515
  439SOL     OW11230  10.014   5.282   0.582  0.2545 -0.0638  0.0071
  439SOL    HW111231  10.109   5.250   0.584  0.3217  0.1789  0.7010
  439SOL    HW211232   9.955   5.215   0.627  0.3318  0.5476  1.0412
  440SOL     OW11233   3.802   1.352   0.220 -0.4600  0.7818  0.1360
  440SOL    HW111234   3.819   1.256   0.200  0.9379  1.1168 -0.3592
  440SOL    HW211235   3.849   1.409   0.153 -1.3395  1.8190  0.3748
  441SOL     OW11236   3.069   3.368   0.355  0.0825  0.0608  0.1793
  441SOL    HW111237   3.117   3.348   0.440  0.8155 -0.6890 -0.4088
  441SOL    HW211238   3.107   3.312   0.281 -0.7583  0.4795 -0.5754
  442SOL     OW11239   2.264   6.925   2.275  0.5212  0.1919 -0.5359
  442SOL    HW111240   2.245   6.838   2.321 -1.1081  1.3891  1.1154
  442SOL    HW211241   2.323   6.908   2.196 -0.5087 -2.5263 -0.7885
  443SOL     OW11242   4.807   3.606   0.277 -0.7337 -0.2212 -0.5392
  443SOL    HW111243   4.828   3.537   0.347 -0.1739 -0.6410 -1.1088
  443SOL    HW211244   4.738   3.569   0.215  0.3869 -0.7090 -1.5047
  444SOL     OW11245   3.023   6.750   1.415  0.1560 -0.1276  0.2717
  444SOL    HW111246   2.957   6.803   1.468 -0.7511 -0.2182 -0.7429
  444SOL    HW211247   3.038   6.661   1.460  1.4251  0.8364  1.7896
  445SOL     OW11248   3.552   1.635   0.763  0.0986 -0.1743  0.2975
  445SOL    HW111249   3.632   1.613   0.708  1.1233 -0.1945  1.7644
  445SOL    HW211250   3.552   1.732   0.785  0.1477 -0.3180  0.9516
  446SOL     OW11251   2.896   7.875   0.985  0.8604  0.0253  0.2568
  446SOL    HW111252   2.808   7.863   0.940  0.6302  0.3604  0.6182
  446SOL    HW211253   2.891   7.950   1.051  1.3248 -0.1581  0.5080
  447SOL     OW11254   4.869   2.224   1.994  0.0584 -0.3767  0.1165
  447SOL    HW111255   4.833   2.306   2.038 -0.4054 -1.1488  1.1880
  447SOL    HW211256   4.887   2.154   2.063 -3.2379 -2.5830 -1.1354
  448SOL     OW11257   2.498   3.826   2.154  0.0951  0.0828 -0.1720
  448SOL    HW111258   2.448   3.910   2.131 -0.1611 -0.0369 -0.0557
  448SOL    HW211259   2.443   3.746   2.128  0.4151 -0.0490 -0.4489
  449SOL     OW11260   2.133   5.205   0.832 -0.2972 -0.0693 -0.4885
  449SOL    HW111261   2.226   5.227   0.801  0.0794 -2.2483 -1.0180
  449SOL    HW211262   2.076   5.286   0.824  1.3325  1.0661 -1.0580
  450SOL     OW11263   4.030   3.687   0.080 -0.6044 -0.3164  0.0143
  450SOL    HW111264   3.952   3.714   0.136  0.2558 -0.5042  1.3572
  450SOL    HW211265   4.065   3.599   0.113  0.1330 -0.2544 -0.5977
  451SOL     OW11266   1.081   5.901   1.675 -0.6096  0.6522  0.0665
  451SOL    HW111267   0.990   5.891   1.634 -0.9093  2.5667  0.2273
  451SOL    HW211268   1.096   5.996   1.701  1.3486  0.3077  0.2990
  452SOL     OW11269  10.011   3.952   1.248  0.0801  1.0102  0.0084
  452SOL    HW111270  10.068   3.908   1.317 -0.6053 -0.5291 -0.3883
  452SOL    HW211271  10.053   3.940   1.158 -1.6399 -1.5168 -0.4931
  453SOL     OW11272   1.944   5.856   1.105  0.1218  0.1020 -0.0537
  453SOL    HW111273   1.850   5.824   1.096  1.3510 -2.9069 -3.2346
  453SOL    HW211274   1.996   5.793   1.163  1.0848 -0.4742 -1.4944
  454SOL     OW11275   3.712   5.741   2.316 -0.4541 -0.2853  0.2672
  454SOL    HW111276   3.757   5.724   2.403  0.2022 -1.6483 -0.3194
  454SOL    HW211277   3.710   5.839   2.298  1.6150 -0.1433  0.6630
  455SOL     OW11278   9.583   5.272   0.714  0.5515  0.2092  0.3887
  455SOL    HW111279   9.590   5.215   0.795 -0.3091  0.4796  0.6503
  455SOL    HW211280   9.514   5.234   0.652  1.0780  0.1018 -0.1461
  456SOL     OW11281   3.442   8.957   1.141  0.4445  0.2593 -0.2810
  456SOL    HW111282   3.508   8.899   1.093  0.3636  0.8942 -1.1673
  456SOL    HW211283   3.459   8.952   1.239  0.8752 -0.7291 -0.3962
  457SOL     OW11284   4.210   1.722   0.207 -0.4529  0.3031 -0.5237
  457SOL    HW111285   4.258   1.699   0.122 -0.1435 -1.1639  0.0295
  457SOL    HW211286   4.112   1.733   0.188 -0.4332 -0.3532 -1.0085
  458SOL     OW11287   3.673   4.016   0.028  0.5925  0.2746 -0.0099
  458SOL    HW111288   3.765   4.052   0.030 -0.0727  1.8835  2.8489
  458SOL    HW211289   3.628   4.045  -0.057  2.4958 -0.1167 -1.1865
  459SOL     OW11290   0.769   6.222   2.584 -0.3340 -0.2392 -0.7454
  459SOL    HW111291   0.679   6.262   2.567 -0.1753 -0.2342 -1.6217
  459SOL    HW211292   0.762   6.122   2.580 -0.7339 -0.3207  1.4604
  460SOL     OW11293   3.309   3.270   1.305 -0.2088  0.1326  0.2365
  460SOL    HW111294   3.254   3.186   1.303 -1.0784  0.6939  0.4790
  460SOL    HW211295   3.366   3.272   1.387  0.0851 -0.3856  0.0485
  461SOL     OW11296   4.704   2.998   1.549 -0.1053 -0.7524  0.0096
  461SOL    HW111297   4.681   3.094   1.536 -0.0140 -0.8149 -0.6461
  461SOL    HW211298   4.734   2.983   1.643  1.5572  0.2036 -0.3476
  462SOL     OW11299   0.798   6.546   1.560  0.0912  0.1015 -0.3678
  462SOL    HW111300   0.842   6.539   1.649 -0.1991  0.7747 -0.1623
  462SOL    HW211301   0.703   6.574   1.573  0.0359  0.1532 -0.8875
  463SOL     OW11302   1.619   3.370   0.558  0.1195 -0.2379 -0.5148
  463SOL    HW111303   1.699   3.325   0.599 -0.6396 -0.3754  0.8741
  463SOL    HW211304   1.572   3.305   0.499  1.1567 -0.0878 -1.5175
  464SOL     OW11305   4.237   0.890   1.949 -0.1664 -0.2182 -0.0116
  464SOL    HW111306   4.254   0.960   2.019  1.2309 -0.4412 -0.1061
  464SOL    HW211307   4.315   0.886   1.887 -0.7892 -0.9974 -0.7526
  465SOL     OW11308   3.275   5.757   1.527  0.0793  0.0075 -0.4179
  465SOL    HW111309   3.274   5.849   1.487  2.4425 -0.6315 -2.0358
  465SOL    HW211310   3.320   5.761   1.617 -2.1942  0.8516  0.7202
  466SOL     OW11311   5.173   1.967   0.118 -0.2351 -0.5383  0.2944
  466SOL    HW111312   5.134   2.053   0.084 -0.1870 -0.1741  1.1567
  466SOL    HW211313   5.264   1.985   0.155 -0.2912 -0.9396  0.6198
  467SOL     OW11314   4.390   4.039   0.230 -0.0121  0.1889 -0.4584
  467SOL    HW111315   4.476   4.089   0.237  0.2875  0.0321 -2.7919
  467SOL    HW211316   4.316   4.096   0.266  0.7292  1.1973 -0.5058
  468SOL     OW11317   3.997   2.043   1.882  0.0442  0.1328  0.1765
  468SOL    HW111318   4.018   2.059   1.786 -0.4739 -0.1410  0.0177
  468SOL    HW211319   3.944   1.959   1.891  1.1382 -0.5066  0.8233
  469SOL     OW11320   1.829   4.259   2.430 -0.3334 -0.4461  0.3889
  469SOL    HW111321   1.866   4.342   2.471 -0.0739 -0.6673  0.6042
  469SOL    HW211322   1.877   4.180   2.467 -0.1112 -0.6474 -0.3304
  470SOL     OW11323   2.738   5.928   1.547  0.0115 -0.2900 -0.5924
  470SOL    HW111324   2.788   5.848   1.514  1.4099 -0.5481  2.0357
  470SOL    HW211325   2.639   5.909   1.543  0.3039 -1.9862 -0.4462
  471SOL     OW11326   4.929   3.125   0.337 -0.1117 -0.2726  0.2511
  471SOL    HW111327   5.022   3.129   0.299  0.1628 -0.7941  0.8672
  471SOL    HW211328   4.874   3.061   0.284  0.2219 -0.8646  0.6159
  472SOL     OW11329   2.239   6.351   1.969 -0.2174  0.3173  0.2426
  472SOL    HW111330   2.267   6.412   1.895  1.0119 -0.1138  0.3367
  472SOL    HW211331   2.157   6.386   2.012 -2.6931 -0.9499 -3.2226
  473SOL     OW11332   4.532   2.918   0.616 -0.1733 -0.1433 -0.1452
  473SOL    HW111333   4.596   2.995   0.624  1.7482 -1.5216 -1.5585
  473SOL    HW211334   4.579   2.834   0.644 -2.7328 -0.6176  2.9418
  474SOL     OW11335   1.860   6.288   0.406 -0.0473 -0.7623 -0.0203
  474SOL    HW111336   1.761   6.284   0.399 -0.1607  0.7965  0.5718
  474SOL    HW211337   1.898   6.196   0.394 -1.4514 -1.1559 -1.6363
  475SOL     OW11338   3.240   8.273   0.524 -0.5361 -0.9869  0.2284
  475SOL    HW111339   3.146   8.294   0.554 -0.0898  0.3139  0.7539
  475SOL    HW211340   3.294   8.245   0.603  0.1671  0.6861  0.3591
  476SOL     OW11341   1.702   6.416  -0.034 -0.4045 -0.5598  0.3444
  476SOL    HW111342   1.771   6.344  -0.048  0.3957  0.6345 -2.0323
  476SOL    HW211343   1.749   6.502  -0.013 -1.2097  0.1209 -0.6484
  477SOL     OW11344   3.681   9.852   0.367  0.0350 -0.6050 -0.3425
  477SOL    HW111345   3.770   9.858   0.320  0.1649 -2.0530 -0.3029
  477SOL    HW211346   3.695   9.864   0.465 -0.2110  2.2190 -0.6051
  478SOL     OW11347   3.579   4.182   1.789 -0.0607 -0.5322 -0.1551
  478SOL    HW111348   3.654   4.208   1.728  1.5155 -1.4001  1.3318
  478SOL    HW211349   3.601   4.213   1.882 -2.0083  0.0183  0.1345
  479SOL     OW11350   4.701   3.820  -0.029  0.3983 -0.3086  0.3651
  479SOL    HW111351   4.701   3.864   0.061 -0.2013  1.1541 -0.3348
  479SOL    HW211352   4.749   3.733  -0.023  0.3699 -0.2281  2.1038
  480SOL     OW11353   2.683   5.904   0.864  0.5336  0.5083 -0.3113
  480SOL    HW111354   2.745   5.852   0.923  0.6773 -0.1177 -1.0138
  480SOL    HW211355   2.620   5.841   0.818 -1.7765  1.2568  1.6904
  481SOL     OW11356   3.186   3.980   0.173  0.0839  0.0217  0.5223
  481SOL    HW111357   3.174   3.929   0.258  2.3884 -2.7210 -0.7214
  481SOL    HW211358   3.281   4.011   0.166  0.2519 -0.9367 -1.6768
  482SOL     OW11359   2.453   5.654   1.869  1.0101  0.2418  0.1132
  482SOL    HW111360   2.394   5.667   1.949 -0.7947 -0.0529 -1.1623
  482SOL    HW211361   2.407   5.596   1.802  2.3006  0.9464 -1.4022
  483SOL     OW11362   0.822   3.939   0.227 -0.5094 -0.2107  0.2343
  483SOL    HW111363   0.805   3.943   0.129  1.4265  1.0499 -0.0885
  483SOL    HW211364   0.738   3.959   0.277 -1.3965 -0.3971 -1.1515
  484SOL     OW11365   2.066   2.639   0.973  0.1733 -0.1697 -0.2497
  484SOL    HW111366   2.089   2.732   1.001 -0.7055  0.3603 -1.2414
  484SOL    HW211367   2.011   2.595   1.044  2.3529 -0.6837  1.1535
  485SOL     OW11368   3.802  10.189   1.642  0.6816 -1.0062 -0.5875
  485SOL    HW111369   3.778  10.284   1.660  1.3323 -1.3460  2.2483
  485SOL    HW211370   3.869  10.185   1.568  1.3512  0.8003 -0.0914
  486SOL     OW11371   3.086   6.492   1.500  0.5455 -0.1395  0.1468
  486SOL    HW111372   3.175   6.534   1.516  1.4418 -1.5739 -0.9004
  486SOL    HW211373   3.070   6.421   1.568 -0.3408  0.9266  1.0628
  487SOL     OW11374   3.261   9.898   1.226  0.1431 -0.2879  0.1396
  487SOL    HW111375   3.178   9.859   1.188  0.1148 -1.7677  1.6611
  487SOL    HW211376   3.238   9.957   1.304  0.5018 -0.9122  0.7349
  488SOL     OW11377   4.853   4.361   1.286 -0.2300  0.2793  0.2444
  488SOL    HW111378   4.906   4.314   1.215  0.6112  1.4325  0.1003
  488SOL    HW211379   4.794   4.429   1.243  0.8859  1.5564  0.7182
  489SOL     OW11380   1.853   5.186   1.464  0.4141  0.3972 -0.1120
  489SOL    HW111381   1.859   5.251   1.539  1.4779  1.8471 -1.4226
  489SOL    HW211382   1.945   5.156   1.438  0.0810  0.0831 -0.9551
  490SOL     OW11383   4.140   4.553   1.874  0.2606  0.5277 -0.2011
  490SOL    HW111384   4.222   4.572   1.821  0.8431  0.2339  0.5813
  490SOL    HW211385   4.108   4.637   1.918 -0.4993  0.8705 -1.3914
  491SOL     OW11386   1.438   5.698   1.824  0.4624 -0.0229  0.0753
  491SOL    HW111387   1.437   5.616   1.881 -1.8029 -1.3546 -1.7744
  491SOL    HW211388   1.372   5.765   1.859 -0.5120 -0.6061 -0.6196
  492SOL     OW11389   2.587   3.241   2.036  0.0232 -0.5516  0.1233
  492SOL    HW111390   2.603   3.195   1.949  0.2648 -1.0603  0.4330
  492SOL    HW211391   2.521   3.315   2.024  0.2627 -0.4506 -0.5444
  493SOL     OW11392   2.818   3.833   0.309  0.4153  0.0851  0.3452
  493SOL    HW111393   2.902   3.821   0.362 -0.1752  0.3117  1.3380
  493SOL    HW211394   2.841   3.844   0.212  1.4583 -1.0316  0.4521
  494SOL     OW11395   3.097   5.458   0.880  0.0377 -0.4671 -0.3839
  494SOL    HW111396   3.097   5.440   0.978 -1.1002 -0.9678 -0.4670
  494SOL    HW211397   3.171   5.406   0.837  0.4171 -0.4003  0.1839
  495SOL     OW11398   3.977   0.504   0.682  0.2747 -0.2390 -0.1297
  495SOL    HW111399   3.971   0.458   0.770 -2.9082 -0.3164 -0.3548
  495SOL    HW211400   4.021   0.443   0.615 -0.9202 -1.6938  0.4028
  496SOL     OW11401   9.857   4.863   1.846  0.0161  0.2530  0.4097
  496SOL    HW111402   9.877   4.788   1.783  0.2110  1.1757 -0.6262
  496SOL    HW211403   9.759   4.879   1.849  0.1238  1.2773 -0.9159
  497SOL     OW11404   0.899   4.629   1.949 -0.2291  0.2023 -0.3323
  497SOL    HW111405   0.935   4.722   1.946  2.1816 -0.7184 -1.4743
  497SOL    HW211406   0.847   4.611   1.865 -0.3761  0.3909 -0.2825
  498SOL     OW11407   1.970   2.613   0.493  0.9985  0.3099 -0.0772
  498SOL    HW111408   1.974   2.513   0.496  2.7485  0.3421 -0.7208
  498SOL    HW211409   2.025   2.651   0.568  1.5701  0.7774 -0.7161
  499SOL     OW11410   3.698   8.911   0.012  0.4203 -0.0603 -0.1257
  499SOL    HW111411   3.599   8.923   0.010  0.1870 -1.9089 -1.2092
  499SOL    HW211412   3.743   8.988  -0.032 -0.7004 -0.5453 -2.1886
  500SOL     OW11413   3.842   2.623   1.110 -0.6045  0.1822 -0.3841
  500SOL    HW111414   3.908   2.621   1.035 -0.4996  0.9497 -0.3087
  500SOL    HW211415   3.844   2.535   1.158  0.8471  0.4469  0.0496
  501SOL     OW11416   3.657   9.232   0.163 -0.1282  0.2860 -0.3370
  501SOL    HW111417   3.633   9.246   0.067  0.5913  0.3406 -0.5073
  501SOL    HW211418   3.737   9.173   0.169 -0.2754  0.1461  0.2343
  502SOL     OW11419   3.054   4.467   0.775  0.1897  0.2957  0.4727
  502SOL    HW111420   2.977   4.461   0.712 -0.5382  1.4605  1.2354
  502SOL    HW211421   3.136   4.430   0.732 -0.6988 -0.5834 -0.4940
  503SOL     OW11422   2.998   2.512   0.745 -0.1093  0.2264  0.5206
  503SOL    HW111423   2.947   2.536   0.663  0.4680 -0.8703 -0.1768
  503SOL    HW211424   2.935   2.483   0.817 -0.5385 -0.1014  0.0116
  504SOL     OW11425   3.133   5.447   0.553 -0.0459  0.3204  0.4192
  504SOL    HW111426   3.172   5.536   0.577 -1.2576  1.3721 -1.3958
  504SOL    HW211427   3.035   5.457   0.538 -0.7351 -1.9106  3.0323
  505SOL     OW11428   3.303   8.179   0.180  0.5175 -0.2000 -0.2471
  505SOL    HW111429   3.310   8.117   0.258 -1.1599  0.7135  0.6592
  505SOL    HW211430   3.287   8.126   0.097  1.1948 -1.1013  0.1782
  506SOL     OW11431   0.981   6.066   0.269 -0.1404 -0.5413 -0.5636
  506SOL    HW111432   1.048   6.067   0.195  0.1619 -0.1984 -0.2884
  506SOL    HW211433   0.911   6.136   0.251  1.5686  1.6435  0.9518
  507SOL     OW11434   2.602   3.339   1.306  0.1678  0.0142  0.2904
  507SOL    HW111435   2.645   3.304   1.223 -1.2478  0.2176 -0.5382
  507SOL    HW211436   2.635   3.432   1.324 -1.2360  0.8477 -1.3285
  508SOL     OW11437   2.682   7.394   0.960 -0.2330  0.6731 -0.4934
  508SOL    HW111438   2.778   7.416   0.947  0.1192 -0.1555  0.6074
  508SOL    HW211439   2.634   7.474   0.996  0.3537  0.6610  0.3413
  509SOL     OW11440   2.673   9.789   1.359  0.8383  0.0349  0.1439
  509SOL    HW111441   2.615   9.796   1.278 -0.8118 -1.8492  1.1396
  509SOL    HW211442   2.706   9.880   1.384  1.4481  0.6433 -2.6779
  510SOL     OW11443   2.925   1.986   0.838 -0.3552 -0.3054 -0.1477
  510SOL    HW111444   2.946   1.911   0.775  3.2139 -0.6809  1.3577
  510SOL    HW211445   3.008   2.041   0.853 -2.1264  2.1008  1.1926
  511SOL     OW11446   2.196   6.457   0.606 -0.1845 -0.4705  0.3381
  511SOL    HW111447   2.120   6.481   0.666 -0.1416 -1.3447  0.7608
  511SOL    HW211448   2.163   6.451   0.511 -0.2329  0.9955  0.2484
  512SOL     OW11449   2.424   6.603   1.432  0.4150  0.0246 -0.1407
  512SOL    HW111450   2.401   6.697   1.458 -0.4628 -0.4817  0.9544
  512SOL    HW211451   2.427   6.597   1.332 -0.7184  0.9535 -0.2548
  513SOL     OW11452   3.959   0.366   0.914  0.5167  0.1232 -0.3243
  513SOL    HW111453   3.942   0.268   0.916 -0.6744  0.3175 -0.7614
  513SOL    HW211454   4.024   0.390   0.986  1.9813 -1.1981 -1.1825
  514SOL     OW11455   3.125   4.847   1.254 -0.1329 -0.7278  0.1833
  514SOL    HW111456   3.144   4.944   1.269  0.7399 -1.0573  1.2717
  514SOL    HW211457   3.065   4.813   1.326  2.0807 -1.7209  1.6023
  515SOL     OW11458   3.699   8.875   0.467  0.7784 -0.5708 -0.6262
  515SOL    HW111459   3.608   8.911   0.491  1.6360  1.1063  0.2118
  515SOL    HW211460   3.695   8.831   0.378 -0.0991  2.6829 -2.2873
  516SOL     OW11461   3.246   6.599   0.119 -0.9986  0.3569 -0.2614
  516SOL    HW111462   3.169   6.656   0.091 -1.3833 -0.4679 -0.8890
  516SOL    HW211463   3.243   6.586   0.218 -1.0699  1.1836 -0.1496
  517SOL     OW11464   3.582   3.080   0.880 -0.4398  0.3089 -0.2391
  517SOL    HW111465   3.592   3.138   0.799 -1.7716  0.2998 -0.4135
  517SOL    HW211466   3.560   3.137   0.959 -1.6105  0.0564 -0.3823
  518SOL     OW11467   4.650   4.174   0.333 -1.3381  0.5441  0.2711
  518SOL    HW111468   4.581   4.173   0.406  1.0236  0.8307  2.5538
  518SOL    HW211469   4.721   4.241   0.355  0.5792 -0.9536 -1.1851
  519SOL     OW11470   0.854   5.507   1.348  0.0898 -0.5378  0.1953
  519SOL    HW111471   0.938   5.548   1.383  0.5218 -0.1468 -1.2808
  519SOL    HW211472   0.799   5.577   1.302 -0.9920 -0.8185  1.0216
  520SOL     OW11473   3.976   5.058   2.094 -0.1538  0.0620 -0.4242
  520SOL    HW111474   4.031   5.137   2.068  1.3619  0.4659  3.6927
  520SOL    HW211475   3.883   5.088   2.117 -0.0686  0.4034 -0.5284
  521SOL     OW11476   1.293   5.058   0.770 -0.0474  0.2542 -0.0167
  521SOL    HW111477   1.276   4.971   0.724  1.7137  0.1110 -0.4348
  521SOL    HW211478   1.301   5.043   0.869 -0.2113  0.0196 -0.0383
  522SOL     OW11479   1.456   6.890   2.141 -0.2150  0.1937  0.0563
  522SOL    HW111480   1.387   6.955   2.173 -2.1665  0.2478 -3.9165
  522SOL    HW211481   1.544   6.937   2.131  0.0056  0.5959  3.2599
  523SOL     OW11482   4.880   2.013   0.662 -0.2587 -0.2479  0.0407
  523SOL    HW111483   4.925   2.017   0.573  0.7672  1.1156  0.6074
  523SOL    HW211484   4.871   2.105   0.700  0.2840 -0.8988  1.8209
  524SOL     OW11485   3.848   3.183   0.940 -0.0504  0.4478 -0.6039
  524SOL    HW111486   3.771   3.131   0.904  0.6569  0.0809 -1.6023
  524SOL    HW211487   3.903   3.220   0.864  1.4156 -0.2843  0.0773
  525SOL     OW11488   4.179   3.140   1.543  0.3791  0.2222 -0.4978
  525SOL    HW111489   4.272   3.117   1.572  0.3421  0.9795  0.2525
  525SOL    HW211490   4.173   3.133   1.443  1.5857  1.3254 -0.6673
  526SOL     OW11491   4.081   1.422   2.392 -0.0671 -0.3101 -0.2662
  526SOL    HW111492   4.016   1.442   2.465  0.2054 -2.4344  0.5982
  526SOL    HW211493   4.047   1.459   2.305 -1.4844  0.2675  0.5290
  527SOL     OW11494   4.348   2.713   1.836  0.0506 -0.3656  0.5488
  527SOL    HW111495   4.249   2.702   1.825  0.2857 -0.8597 -1.3021
  527SOL    HW211496   4.366   2.785   1.903 -1.5571  0.2311  0.3738
  528SOL     OW11497   3.011   7.134   2.481 -0.1412 -0.1581  0.3469
  528SOL    HW111498   2.965   7.140   2.393  0.5879  0.0038 -0.0292
  528SOL    HW211499   3.110   7.136   2.467 -0.0050  2.3885  1.3379
  529SOL     OW11500   1.702   7.074   0.237  0.4228 -0.0811  0.0792
  529SOL    HW111501   1.694   6.987   0.188 -2.0170  1.0088 -1.5768
  529SOL    HW211502   1.788   7.118   0.214  0.9046 -1.2588 -0.4086
  530SOL     OW11503   5.552   3.237   1.566  0.0446 -0.6456  0.5305
  530SOL    HW111504   5.576   3.330   1.540  0.5624 -0.7315  0.6879
  530SOL    HW211505   5.478   3.204   1.507 -0.1954 -0.1100  0.5295
  531SOL     OW11506   2.977   1.118   2.062  0.1135  0.2004  0.3050
  531SOL    HW111507   2.897   1.066   2.091  1.1193 -1.3656  0.3486
  531SOL    HW211508   2.963   1.153   1.970 -0.3651 -0.6333  0.0586
  532SOL     OW11509   1.774   3.817   1.015 -0.5667  0.3567 -0.2910
  532SOL    HW111510   1.747   3.725   0.985 -0.4308 -0.3166  1.6156
  532SOL    HW211511   1.805   3.814   1.110 -2.2409  2.6917  0.3751
  533SOL     OW11512   4.443   1.097   1.499 -0.4515 -0.2910  0.7218
  533SOL    HW111513   4.420   1.116   1.404 -1.3069 -0.7979  0.8215
  533SOL    HW211514   4.541   1.114   1.514 -0.2614 -0.4401 -0.3029
  534SOL     OW11515   4.505   2.357   1.637  0.3041 -0.2193  0.6287
  534SOL    HW111516   4.549   2.428   1.581  0.0609 -0.2276  0.4273
  534SOL    HW211517   4.575   2.298   1.677  0.6378  1.3858  2.4861
  535SOL     OW11518   2.910   9.110   0.844 -0.4945  0.2580 -0.3364
  535SOL    HW111519   2.911   9.014   0.816 -0.7276  0.3994 -0.8335
  535SOL    HW211520   2.900   9.168   0.763  0.6586  0.7386 -0.1503
  536SOL     OW11521   4.376   2.392   0.012  0.1324  0.2268  0.2803
  536SOL    HW111522   4.435   2.414  -0.066  0.7889  1.1012  1.0101
  536SOL    HW211523   4.301   2.333  -0.018  1.3069 -0.7905 -0.6891
  537SOL     OW11524   4.716   2.036   0.970 -0.2309  0.2140  0.0273
  537SOL    HW111525   4.771   2.100   0.916 -2.8233  1.6987 -0.9718
  537SOL    HW211526   4.744   1.943   0.948  0.8211  0.8815 -1.6462
  538SOL     OW11527   3.502   1.353   1.705 -0.5892  0.4390  0.1465
  538SOL    HW111528   3.578   1.300   1.744 -1.3189 -0.1813  0.7295
  538SOL    HW211529   3.421   1.295   1.698 -1.3173  1.4060  0.5126
  539SOL     OW11530   1.456   3.974   1.419 -0.0946  0.7358 -0.7192
  539SOL    HW111531   1.430   3.935   1.331 -0.4782 -0.1492 -0.2230
  539SOL    HW211532   1.487   4.068   1.406  0.2142  0.4895 -1.8507
  540SOL     OW11533   4.661   1.878   2.043  0.3344 -0.5353 -0.0125
  540SOL    HW111534   4.697   1.912   2.130  0.5245 -1.0744  0.1194
  540SOL    HW211535   4.624   1.787   2.056 -1.1127  0.0267 -0.1460
  541SOL     OW11536   0.617   5.776   2.222  0.8244  0.0046 -0.1804
  541SOL    HW111537   0.710   5.802   2.245  0.5484 -0.0711  1.0572
  541SOL    HW211538   0.552   5.839   2.264  0.3237  0.5723 -1.7423
  542SOL     OW11539   2.486   2.785   1.862  0.2444 -0.4225 -0.1167
  542SOL    HW111540   2.504   2.861   1.923  1.8199  0.5560 -1.7446
  542SOL    HW211541   2.396   2.747   1.881  0.0000  0.9785  1.6048
  543SOL     OW11542   2.882   3.499   2.387 -0.1650  0.1665  0.2775
  543SOL    HW111543   2.966   3.545   2.360  0.3632 -1.1047 -0.3189
  543SOL    HW211544   2.832   3.470   2.304 -1.8583  2.0822  0.5971
  544SOL     OW11545   2.819   5.349   0.283 -0.5501 -0.0058 -0.2473
  544SOL    HW111546   2.902   5.343   0.228 -0.2297  0.0979  0.2240
  544SOL    HW211547   2.757   5.417   0.243  0.2524  1.0454  0.2730
  545SOL     OW11548   4.319   3.980   1.532  0.5232 -0.0593  0.3788
  545SOL    HW111549   4.265   3.981   1.448  0.4744 -0.1110  0.4086
  545SOL    HW211550   4.317   3.888   1.571 -0.6393  0.3035  1.1955
  546SOL     OW11551  10.115   5.172   1.394 -0.8205  0.5427 -0.2035
  546SOL    HW111552  10.139   5.139   1.302 -1.2643  0.2955 -0.2319
  546SOL    HW211553  10.068   5.099   1.444  1.4363 -0.1230  1.0417
  547SOL     OW11554   1.965   3.939   2.049 -0.0236 -0.3965  0.0141
  547SOL    HW111555   1.938   3.861   1.994 -2.3179  0.8236 -0.6455
  547SOL    HW211556   1.884   3.991   2.076  1.4694  2.0910 -0.0816
  548SOL     OW11557   2.605   5.963   2.449  0.5816  0.2304 -0.5519
  548SOL    HW111558   2.632   6.020   2.527  0.5642  0.5214 -0.7572
  548SOL    HW211559   2.611   6.017   2.365 -1.1088  0.4397 -0.5564
  549SOL     OW11560   4.298   0.732   0.274 -0.2912  0.0276  0.3383
  549SOL    HW111561   4.244   0.689   0.346 -1.2130  0.3686 -0.1515
  549SOL    HW211562   4.269   0.699   0.185 -0.8243  1.4492 -0.0264
  550SOL     OW11563   3.667   8.783   1.938 -0.3299  0.1365  0.0884
  550SOL    HW111564   3.724   8.799   1.857 -0.7248 -0.2157 -0.2658
  550SOL    HW211565   3.591   8.722   1.913  0.0396 -0.6775  0.9343
  551SOL     OW11566   1.867   3.441   0.212  0.0797  0.3985 -0.0178
  551SOL    HW111567   1.892   3.352   0.250 -0.9307 -1.1128 -2.7589
  551SOL    HW211568   1.948   3.500   0.208  1.1189 -0.9831  0.2574
  552SOL     OW11569   2.288   6.803   1.667 -0.1476 -0.5659 -0.1363
  552SOL    HW111570   2.292   6.719   1.722  0.4073 -1.3579 -1.3514
  552SOL    HW211571   2.293   6.883   1.726 -1.8583 -1.3841  1.1421
  553SOL     OW11572   1.890   3.348   2.153 -0.2493 -0.1262  0.0045
  553SOL    HW111573   1.819   3.282   2.177 -1.3322  0.1168 -2.3516
  553SOL    HW211574   1.933   3.320   2.067  0.5645  1.2460 -0.0543
  554SOL     OW11575   4.113   8.560   0.845  0.5647 -0.3481  0.2783
  554SOL    HW111576   4.076   8.559   0.752  1.8920  0.8962 -0.2826
  554SOL    HW211577   4.038   8.572   0.910 -0.0987  1.6141 -0.8080
  555SOL     OW11578   3.826   3.081   1.184 -0.3263 -0.5173 -0.2475
  555SOL    HW111579   3.838   3.109   1.089  0.4217 -1.6751 -0.5087
  555SOL    HW211580   3.810   3.161   1.241 -1.9489  0.0816 -1.5196
  556SOL     OW11581   1.686   4.659   2.545  0.0047  0.2825 -0.1881
  556SOL    HW111582   1.625   4.600   2.597 -0.9165  0.5116 -0.9790
  556SOL    HW211583   1.670   4.644   2.447  0.1200  1.4697 -0.3946
  557SOL     OW11584   3.249   7.937   1.250  0.4469 -0.0398 -0.2217
  557SOL    HW111585   3.153   7.964   1.244 -0.2083 -2.4104 -1.0321
  557SOL    HW211586   3.292   7.982   1.328 -1.9837 -0.8961  1.6567
  558SOL     OW11587   4.184   1.301   0.375  0.3859 -0.1933 -0.5159
  558SOL    HW111588   4.210   1.204   0.368  1.0299 -0.1102  0.5628
  558SOL    HW211589   4.112   1.321   0.309 -0.3808 -1.6343 -0.1516
  559SOL     OW11590   3.423   9.821  -0.027  0.7490 -0.2830 -0.2225
  559SOL    HW111591   3.333   9.777  -0.031  1.4531 -1.8084  0.2651
  559SOL    HW211592   3.455   9.838  -0.120 -0.0067  0.2072 -0.4011
  560SOL     OW11593   2.842   4.144   1.067 -0.2947 -0.6010 -0.5991
  560SOL    HW111594   2.887   4.217   1.118 -0.9042  0.5065 -1.6366
  560SOL    HW211595   2.909   4.075   1.041  0.4118 -0.0309 -0.2844
  561SOL     OW11596   5.213   3.415   1.843  0.3630  0.4914  0.2701
  561SOL    HW111597   5.163   3.406   1.757  1.2826 -1.1149 -0.1228
  561SOL    HW211598   5.309   3.433   1.824  0.6057 -0.0644  0.9443
  562SOL     OW11599   4.005   9.224   1.287  0.8292 -0.1324 -0.3115
  562SOL    HW111600   4.100   9.233   1.318  0.8607  1.3308 -0.7611
  562SOL    HW211601   3.998   9.256   1.193  0.1051 -1.3544 -0.6729
  563SOL     OW11602   2.513   7.961   1.905 -0.4160  0.1140 -0.1645
  563SOL    HW111603   2.589   7.940   1.966 -1.1797 -2.7566 -0.1109
  563SOL    HW211604   2.533   7.926   1.813 -0.7605  1.2823 -0.6933
  564SOL     OW11605   1.942   4.429   0.986 -0.1277  0.2132  0.1645
  564SOL    HW111606   1.898   4.503   1.036 -1.0487 -2.0046  2.7963
  564SOL    HW211607   1.883   4.399   0.911 -0.9833  0.3321  0.7872
  565SOL     OW11608   2.913   3.902   1.348 -0.1227 -0.1489 -0.5567
  565SOL    HW111609   2.831   3.845   1.350 -0.0928 -0.1916 -0.5357
  565SOL    HW211610   2.970   3.875   1.271 -0.2561  0.0606 -0.7260
  566SOL     OW11611   3.269   9.987   2.086 -0.1401  0.2385 -0.4095
  566SOL    HW111612   3.367   9.992   2.065  0.0395  0.7814  0.5025
  566SOL    HW211613   3.224   9.928   2.020  0.4264  1.7209 -2.1692
  567SOL     OW11614   4.328   3.055   0.993 -0.2923  0.4740  0.0415
  567SOL    HW111615   4.367   3.004   0.916  1.0852 -0.9218  1.6260
  567SOL    HW211616   4.263   2.997   1.042  0.8915  0.3948  1.5478
  568SOL     OW11617   4.580   0.798   1.347 -0.2109 -0.3386 -0.1485
  568SOL    HW111618   4.656   0.851   1.385 -2.0459  1.1707  1.5613
  568SOL    HW211619   4.531   0.854   1.280 -1.4348 -0.2660  0.7861
  569SOL     OW11620   9.765   4.795   2.262 -0.0883 -0.0380  0.1569
  569SOL    HW111621   9.709   4.857   2.206 -0.4352 -0.3865  0.1146
  569SOL    HW211622   9.707   4.723   2.299  0.1812  0.0693  0.7958
  570SOL     OW11623   3.239   4.134   1.505  0.0251 -0.4298  0.2493
  570SOL    HW111624   3.180   4.055   1.487  1.9885 -2.1303  1.0175
  570SOL    HW211625   3.327   4.120   1.459  1.5343 -0.2117  2.9784
  571SOL     OW11626   4.235   1.064   0.569  0.0683  0.0158  0.3580
  571SOL    HW111627   4.202   1.062   0.663  1.0349 -1.1021  0.6779
  571SOL    HW211628   4.332   1.040   0.567 -0.2312 -1.1289 -1.0561
  572SOL     OW11629   2.785   6.912   0.738 -0.0707 -0.2155  0.1932
  572SOL    HW111630   2.811   6.950   0.649 -0.3960  0.9040  0.5739
  572SOL    HW211631   2.837   6.957   0.810 -0.8990 -0.0648  0.7023
  573SOL     OW11632   2.513   1.443   2.537 -0.5198  0.2519 -0.3308
  573SOL    HW111633   2.601   1.453   2.584 -0.7182  2.1592 -0.3562
  573SOL    HW211634   2.439   1.468   2.600 -1.0783 -1.4350 -0.2796
  574SOL     OW11635   2.873   1.440   1.560 -0.4621 -0.2378  0.5531
  574SOL    HW111636   2.787   1.476   1.594 -1.3393 -0.4954 -1.3040
  574SOL    HW211637   2.949   1.497   1.591 -1.3583  0.3510  1.6663
  575SOL     OW11638   2.716   7.352   0.397  0.3619 -0.2520 -0.7957
  575SOL    HW111639   2.707   7.365   0.496 -0.4188  0.1298 -0.9093
  575SOL    HW211640   2.813   7.352   0.372  0.5567 -0.1222 -0.0635
  576SOL     OW11641   4.405   2.096   1.308 -0.2422  0.4811 -0.2064
  576SOL    HW111642   4.412   1.998   1.327  1.7363  0.5183 -0.5562
  576SOL    HW211643   4.345   2.111   1.230  1.2085 -0.6666 -1.5945
  577SOL     OW11644   4.614   4.319   2.214 -0.1752  0.2494 -0.4702
  577SOL    HW111645   4.621   4.240   2.153  1.5969 -0.8885  1.1653
  577SOL    HW211646   4.570   4.291   2.300  0.5478  1.0193  0.1542
  578SOL     OW11647   4.882   2.782   0.625 -0.0284 -0.2249 -0.6437
  578SOL    HW111648   4.965   2.819   0.666 -1.5152  1.6970  0.7146
  578SOL    HW211649   4.895   2.770   0.527  2.5495 -1.9574 -0.1462
  579SOL     OW11650   3.383   3.460   1.714  0.2886  0.2167 -0.1637
  579SOL    HW111651   3.459   3.465   1.778 -0.4460  0.5179  0.6900
  579SOL    HW211652   3.378   3.369   1.674  0.4851 -0.0889  0.5161
  580SOL     OW11653   3.378   8.836   1.439  0.0077  0.2586 -0.0198
  580SOL    HW111654   3.338   8.855   1.528  0.3555  0.8671  0.0104
  580SOL    HW211655   3.464   8.886   1.430 -0.9846  1.7657 -1.4452
  581SOL     OW11656   2.601   5.957   0.489  0.1077 -0.7594 -0.0992
  581SOL    HW111657   2.526   5.910   0.442 -1.0359  0.9058  0.0259
  581SOL    HW211658   2.676   5.972   0.425 -0.4515 -0.6952 -0.7496
  582SOL     OW11659   0.679   4.859   1.911 -0.4476 -0.2304 -0.5689
  582SOL    HW111660   0.618   4.936   1.926  0.6412  0.5732 -0.2120
  582SOL    HW211661   0.662   4.789   1.981 -1.0971 -0.1140 -0.6045
  583SOL     OW11662   2.561   5.624   1.154 -0.2101  0.0885 -0.2123
  583SOL    HW111663   2.508   5.707   1.135  2.2608  1.9566  0.8251
  583SOL    HW211664   2.511   5.544   1.119 -2.4501  2.0204 -1.5949
  584SOL     OW11665   3.459   5.586   1.227  0.3570  0.0609 -0.1204
  584SOL    HW111666   3.490   5.514   1.289 -1.6266 -1.2050 -0.5352
  584SOL    HW211667   3.516   5.667   1.238  3.6582 -2.1054 -0.8044
  585SOL     OW11668   4.524   3.445   1.317  0.9063  0.0099  0.1454
  585SOL    HW111669   4.448   3.398   1.273  2.7114 -3.0464  0.1741
  585SOL    HW211670   4.493   3.484   1.404 -1.2721  1.2507 -1.1415
  586SOL     OW11671   0.776   4.480   1.749  0.1352  0.1374 -0.3609
  586SOL    HW111672   0.842   4.408   1.726  1.1799  0.8743  0.3139
  586SOL    HW211673   0.705   4.442   1.807 -0.6111 -0.9070 -1.9269
  587SOL     OW11674   4.275   1.787   0.638 -0.6387  0.4752 -0.4201
  587SOL    HW111675   4.309   1.728   0.711 -2.4730 -0.0664  0.0163
  587SOL    HW211676   4.294   1.745   0.550  1.8560  1.2693 -0.2906
  588SOL     OW11677   9.950   4.942   2.411 -0.2341 -0.0649  0.2755
  588SOL    HW111678  10.038   4.931   2.365  0.3490  1.1727  1.0658
  588SOL    HW211679   9.882   4.883   2.367  0.2275  1.2698 -2.3472
  589SOL     OW11680   3.654   5.665   1.881 -0.3279  0.5092  0.0654
  589SOL    HW111681   3.669   5.568   1.897 -0.0509  0.8100  1.8430
  589SOL    HW211682   3.710   5.696   1.804 -0.1418 -0.6610 -0.2700
  590SOL     OW11683   1.097   4.963   2.155 -0.1711 -0.2267 -0.1433
  590SOL    HW111684   1.054   4.956   2.245  0.9018 -0.1579  0.3782
  590SOL    HW211685   1.044   5.026   2.097 -0.5315  0.1813  0.6274
  591SOL     OW11686   3.530   9.958   1.994  0.1267  0.0899 -0.3324
  591SOL    HW111687   3.553   9.896   1.919  0.5808  0.2279 -0.3086
  591SOL    HW211688   3.604   9.959   2.061  0.3879  1.1127 -0.6330
  592SOL     OW11689   9.952   5.087   1.625  0.1058  0.4349 -0.0162
  592SOL    HW111690   9.920   5.179   1.647  0.3981  0.7083 -0.7221
  592SOL    HW211691  10.038   5.069   1.672 -0.4383  0.1657  0.8832
  593SOL     OW11692   3.213   9.170   0.260  0.1492  0.3166 -0.2792
  593SOL    HW111693   3.152   9.246   0.234  1.1709  0.9853 -0.7465
  593SOL    HW211694   3.191   9.141   0.353 -2.1403 -0.6935 -1.0905
  594SOL     OW11695   2.188   2.946   1.003  0.4301 -0.3626  0.3616
  594SOL    HW111696   2.285   2.925   0.997  0.6888  0.4904  1.3417
  594SOL    HW211697   2.174   3.020   1.070 -0.7806  0.1924 -0.4798
  595SOL     OW11698   1.627   3.096   1.410 -0.2846  0.0815 -0.7398
  595SOL    HW111699   1.541   3.072   1.366 -0.1920 -0.1594 -0.7890
  595SOL    HW211700   1.697   3.029   1.386 -0.4653 -0.5866  0.5162
  596SOL     OW11701   1.161   6.077   0.964 -0.0434 -0.1168  0.6297
  596SOL    HW111702   1.193   6.104   1.055  3.7761 -0.7293 -0.4896
  596SOL    HW211703   1.209   5.995   0.933  0.0040  1.0485 -2.6433
  597SOL     OW11704   5.065   1.973   0.433  0.5473  0.8707  0.2995
  597SOL    HW111705   5.032   2.045   0.371  1.0390  1.5288  0.7850
  597SOL    HW211706   5.160   1.953   0.413  0.5149  0.6134  0.4066
  598SOL     OW11707   4.737   1.665   0.342 -0.2455  0.2047  0.4224
  598SOL    HW111708   4.784   1.631   0.423  0.2504 -0.6605 -0.2256
  598SOL    HW211709   4.665   1.601   0.315  1.5578 -1.0652 -1.5764
  599SOL     OW11710   9.857   5.648   0.686 -0.0884 -0.1233  0.0982
  599SOL    HW111711   9.867   5.704   0.604  1.0202 -1.8149 -0.9427
  599SOL    HW211712   9.793   5.574   0.669  0.7223 -0.9227  0.5240
  600SOL     OW11713   2.265   4.580   0.337 -0.4788 -0.0261  0.2923
  600SOL    HW111714   2.310   4.664   0.367 -0.5283 -0.2853  1.1061
  600SOL    HW211715   2.323   4.534   0.270  0.4238 -0.2778  1.2226
  601SOL     OW11716   2.797   7.774   1.477  0.0424  0.3875 -0.0575
  601SOL    HW111717   2.766   7.701   1.416  1.4863  0.0475 -0.4162
  601SOL    HW211718   2.755   7.763   1.567  0.9939 -1.4667  0.1895
  602SOL     OW11719   3.218   8.595   1.858  0.1234 -0.3292  0.4431
  602SOL    HW111720   3.206   8.508   1.906 -1.9885 -0.9136 -1.1121
  602SOL    HW211721   3.129   8.635   1.837  1.0550  1.1668 -0.7611
  603SOL     OW11722   3.905   3.760   1.091  0.1277  0.6582  0.0859
  603SOL    HW111723   3.884   3.665   1.069  0.7753  0.7257 -0.8523
  603SOL    HW211724   3.877   3.780   1.185  0.0721 -0.4864  0.3129
  604SOL     OW11725   2.716   2.972   0.165  0.0087 -0.1818  0.6436
  604SOL    HW111726   2.626   2.963   0.206 -0.4560 -0.7569 -0.4677
  604SOL    HW211727   2.785   2.928   0.222 -0.2806  0.9774  1.9104
  605SOL     OW11728   1.934   7.379   0.394 -0.1751 -0.2789  0.3325
  605SOL    HW111729   1.963   7.406   0.302 -1.5365 -0.7385 -0.2438
  605SOL    HW211730   1.837   7.358   0.393 -0.2463 -0.0399  1.9520
  606SOL     OW11731   3.209   4.456   1.826  0.0730  0.1193  0.1977
  606SOL    HW111732   3.113   4.473   1.804 -0.1370  1.8362  2.2231
  606SOL    HW211733   3.226   4.358   1.828 -1.8535 -0.2311  0.6236
  607SOL     OW11734   2.610   7.644   1.138 -0.6872  0.0325 -0.1975
  607SOL    HW111735   2.668   7.589   1.198 -0.2513  1.0262  0.3194
  607SOL    HW211736   2.545   7.696   1.194 -0.0906  1.1825 -0.5505
  608SOL     OW11737   3.395   8.218   0.772  0.2245  0.2389 -0.1655
  608SOL    HW111738   3.464   8.166   0.723 -0.8486 -1.6440  0.3035
  608SOL    HW211739   3.403   8.200   0.870 -0.2377  0.8793 -0.0041
  609SOL     OW11740   3.157   5.060   1.618  0.0770 -0.1682  0.0189
  609SOL    HW111741   3.240   5.045   1.565 -1.0676  0.0281 -1.8595
  609SOL    HW211742   3.143   4.984   1.682  0.3786 -1.4354 -1.4109
  610SOL     OW11743   2.671   2.280   0.477  0.3500  0.3125  0.1211
  610SOL    HW111744   2.709   2.241   0.561 -0.4512 -1.7583 -0.4545
  610SOL    HW211745   2.572   2.292   0.487  0.3291  0.5590 -0.3489
  611SOL     OW11746   1.493   5.347   0.389 -0.1612  0.0575  0.3312
  611SOL    HW111747   1.575   5.403   0.378  0.4956 -0.6161  1.6931
  611SOL    HW211748   1.496   5.300   0.477 -1.4840 -0.8492 -0.0889
  612SOL     OW11749   4.544   4.960   0.917  0.3189 -0.5263  0.0436
  612SOL    HW111750   4.555   5.019   0.998  0.8649  0.8519 -1.0113
  612SOL    HW211751   4.628   4.964   0.862 -0.3623 -0.8029 -1.0184
  613SOL     OW11752   0.964   5.262   2.533 -0.4442 -0.1147 -0.5141
  613SOL    HW111753   1.022   5.195   2.580 -0.4236  0.6952  0.6337
  613SOL    HW211754   0.872   5.224   2.521 -0.2299 -0.6318 -0.5418
  614SOL     OW11755   4.764   4.839   0.319  0.5548 -0.3092  0.5531
  614SOL    HW111756   4.833   4.772   0.350 -0.6279 -1.5877  0.4763
  614SOL    HW211757   4.678   4.822   0.367  0.1038  0.8757  0.1741
  615SOL     OW11758   3.070   6.793   0.031 -0.3999 -0.3168 -0.1531
  615SOL    HW111759   2.999   6.797   0.102  0.4434  0.9223  0.6427
  615SOL    HW211760   3.027   6.785  -0.059 -1.5648  1.0565  0.2691
  616SOL     OW11761   4.593   3.172   0.987  0.6354  0.2891 -0.0587
  616SOL    HW111762   4.618   3.268   0.998  2.5130 -0.2732  0.8134
  616SOL    HW211763   4.495   3.165   0.968  0.4405  2.3527  0.0690
  617SOL     OW11764   2.934   9.608   1.445  0.1916  0.5613 -0.7720
  617SOL    HW111765   2.844   9.648   1.431 -0.3319  0.1719  1.2910
  617SOL    HW211766   2.981   9.656   1.519  1.5569  0.5375 -1.5996
  618SOL     OW11767   4.214   3.980   1.286 -0.2719 -0.3340 -0.1898
  618SOL    HW111768   4.255   4.042   1.220  1.2542 -0.5369  0.5463
  618SOL    HW211769   4.223   3.886   1.254 -1.2504 -0.3064 -0.5879
  619SOL     OW11770   4.771   2.229   1.197  0.4313  0.6561  0.4279
  619SOL    HW111771   4.858   2.272   1.174 -0.2384  1.1255 -1.3070
  619SOL    HW211772   4.759   2.145   1.145  0.7356 -0.4950  2.1726
  620SOL     OW11773   3.024   2.883   0.546 -0.3112  0.0018  0.2792
  620SOL    HW111774   3.030   2.904   0.448 -1.6898  0.6412  0.3209
  620SOL    HW211775   3.115   2.856   0.579  0.4829  1.1468 -0.8699
  621SOL     OW11776   1.051   4.736   0.213 -0.3596  0.2163 -0.0050
  621SOL    HW111777   1.149   4.740   0.195 -0.4576 -1.7469 -1.1341
  621SOL    HW211778   1.021   4.820   0.258  2.1762  0.0533  2.0708
  622SOL     OW11779   1.378   3.828   0.496  0.3273  0.8664 -0.4907
  622SOL    HW111780   1.345   3.824   0.401  0.4495  0.9355 -0.5361
  622SOL    HW211781   1.445   3.755   0.511 -1.5409 -0.7728  0.2582
  623SOL     OW11782   1.539   3.438   0.836 -0.1090 -0.4880  0.6116
  623SOL    HW111783   1.466   3.506   0.840  1.9029  1.7231  0.4366
  623SOL    HW211784   1.576   3.435   0.743 -0.3860 -2.0875  0.5345
  624SOL     OW11785   2.394   7.180   2.303  0.8089 -0.4824 -0.2792
  624SOL    HW111786   2.336   7.140   2.232  2.1434 -0.2443 -1.5130
  624SOL    HW211787   2.455   7.110   2.340 -0.5811 -0.8532  1.3757
  625SOL     OW11788   4.869   1.894   1.273  0.4664  0.3229  0.1250
  625SOL    HW111789   4.790   1.953   1.293  0.3193  0.2233 -0.1579
  625SOL    HW211790   4.849   1.800   1.302  0.1313  0.1145 -0.7797
  626SOL     OW11791   3.470   6.469   1.560  0.2595 -0.1937  0.3755
  626SOL    HW111792   3.469   6.493   1.462 -0.3349 -0.2357  0.3683
  626SOL    HW211793   3.480   6.370   1.570  2.0969 -0.0125  0.3935
  627SOL     OW11794   1.155   6.560   2.396  0.1104 -0.1554  0.6985
  627SOL    HW111795   1.255   6.571   2.400  0.1740 -0.3261 -0.2027
  627SOL    HW211796   1.129   6.472   2.434  0.1656  0.5030  2.2931
  628SOL     OW11797   0.928   4.155   2.451  0.3962  0.2230 -0.1892
  628SOL    HW111798   0.937   4.247   2.487  0.3654  0.2716 -0.3059
  628SOL    HW211799   1.018   4.112   2.445  0.4291  0.3107 -0.3094
  629SOL     OW11800   1.949   4.073  -0.038  0.3445 -0.1106 -0.2578
  629SOL    HW111801   2.049   4.065  -0.031  0.5259  1.3533 -1.0999
  629SOL    HW211802   1.917   4.146   0.022 -0.5265 -2.2124  1.9387
  630SOL     OW11803   0.548   4.684   2.337  0.3285 -0.0448 -0.1084
  630SOL    HW111804   0.554   4.643   2.246  2.0272  1.0384 -0.5172
  630SOL    HW211805   0.638   4.682   2.380 -0.3340  0.0297  1.2815
  631SOL     OW11806   1.248   4.210   1.233  0.1703  0.0950 -0.4490
  631SOL    HW111807   1.174   4.269   1.266 -0.5858 -1.8444  1.4933
  631SOL    HW211808   1.208   4.131   1.185  0.9475 -0.9864  0.6494
  632SOL     OW11809   2.917   7.458   0.833 -0.8133  0.0735 -0.1471
  632SOL    HW111810   2.948   7.380   0.888  0.3094 -0.5380 -1.6005
  632SOL    HW211811   2.965   7.540   0.862 -1.2807  0.0396  0.7399
  633SOL     OW11812   1.536   7.281   0.134 -0.7024 -0.0454 -0.2220
  633SOL    HW111813   1.597   7.203   0.145 -0.9468 -0.5928 -2.5368
  633SOL    HW211814   1.465   7.278   0.205  0.4470 -0.7991  0.9177
  634SOL     OW11815   2.562   2.953   2.068 -0.3530  0.3436  0.6379
  634SOL    HW111816   2.530   2.900   2.146 -0.2930 -0.2595  0.2577
  634SOL    HW211817   2.538   3.049   2.081  0.1866  0.3431  1.6753
  635SOL     OW11818   1.317   3.216   1.575 -0.3216  0.4083  0.2198
  635SOL    HW111819   1.303   3.143   1.508 -3.2424 -0.2621  1.4745
  635SOL    HW211820   1.385   3.186   1.643  1.3357  0.4118 -1.3846
  636SOL     OW11821   2.709   8.695   0.673  0.3081  0.7616  0.2962
  636SOL    HW111822   2.799   8.658   0.697 -0.4097 -1.0813  0.2040
  636SOL    HW211823   2.651   8.695   0.754 -1.0205 -2.2478 -0.6101
  637SOL     OW11824   3.312   9.425   2.468  0.1583  0.9924  0.1604
  637SOL    HW111825   3.286   9.421   2.371 -0.0311  0.6354  0.2280
  637SOL    HW211826   3.272   9.507   2.509 -0.5880  0.6228  0.1818
  638SOL     OW11827   4.072   1.907   1.104  0.0357 -0.0639 -0.0172
  638SOL    HW111828   4.139   1.834   1.089 -0.8622 -0.7869 -0.5775
  638SOL    HW211829   4.017   1.919   1.022 -0.0071  1.0613  0.1747
  639SOL     OW11830   1.082   6.569   2.107  0.7338  1.1740  0.0440
  639SOL    HW111831   1.158   6.551   2.045  0.7810  1.8104 -0.0796
  639SOL    HW211832   1.117   6.577   2.201  0.6006 -0.2920  0.2260
  640SOL     OW11833   1.916   4.833   0.597 -1.1117 -0.3674 -0.0633
  640SOL    HW111834   1.917   4.772   0.518 -0.5523 -1.5076  0.7957
  640SOL    HW211835   2.005   4.878   0.606 -1.7425  1.1256 -1.0926
  641SOL     OW11836   5.063   2.912   0.082  0.0457  0.0402  0.4754
  641SOL    HW111837   5.132   2.855   0.127 -1.0733 -2.1384 -0.4684
  641SOL    HW211838   4.973   2.869   0.094 -1.0236  2.3357  0.8618
  642SOL     OW11839   3.554   2.395   0.862  0.2760  0.7054  0.4478
  642SOL    HW111840   3.645   2.371   0.827  0.3135 -0.1455  1.1180
  642SOL    HW211841   3.486   2.331   0.826 -0.2502  2.0294 -0.9746
  643SOL     OW11842   4.533   2.703   2.417  0.5138  0.5539  0.1399
  643SOL    HW111843   4.502   2.610   2.436  0.9128  0.6709  1.4342
  643SOL    HW211844   4.601   2.702   2.343 -0.8921  0.0436 -1.1660
  644SOL     OW11845   5.595   3.153   1.843  0.2802  0.6719  0.4237
  644SOL    HW111846   5.518   3.214   1.860  0.4649  1.2307 -0.7293
  644SOL    HW211847   5.623   3.160   1.748  1.5674  0.2526  0.7589
  645SOL     OW11848   1.545   4.480   0.075 -0.3013  0.3776  0.0157
  645SOL    HW111849   1.469   4.542   0.094 -0.7562 -0.0131 -0.4971
  645SOL    HW211850   1.600   4.469   0.157 -1.3905 -0.1309  0.6960
  646SOL     OW11851   3.647   4.405   0.853 -0.2184 -1.0999  0.4047
  646SOL    HW111852   3.619   4.479   0.914  1.3129 -0.0854 -0.1047
  646SOL    HW211853   3.723   4.355   0.893 -0.8549 -2.0400  0.4673
  647SOL     OW11854   3.888   0.569   1.796  0.0696 -0.1375  0.3628
  647SOL    HW111855   3.922   0.657   1.830 -0.9278  0.6885 -0.7171
  647SOL    HW211856   3.861   0.579   1.701 -1.6627 -1.1922  0.7342
  648SOL     OW11857   9.849   5.292   1.282 -0.5805 -0.0599 -0.2316
  648SOL    HW111858   9.936   5.246   1.265 -0.3574  0.8782 -1.7138
  648SOL    HW211859   9.851   5.333   1.374  0.3352 -0.4960 -0.0472
  649SOL     OW11860   2.995   7.360   0.360  0.3923 -0.0700 -0.6829
  649SOL    HW111861   2.994   7.363   0.260 -0.0626  0.3649 -0.6692
  649SOL    HW211862   3.066   7.297   0.391 -0.5899 -1.4818 -1.2991
  650SOL     OW11863   2.495   6.926   0.316 -0.7868 -0.7249  0.2276
  650SOL    HW111864   2.561   6.955   0.385 -0.5756  0.3492 -0.4079
  650SOL    HW211865   2.455   6.839   0.342 -0.5767 -0.4116  1.6094
  651SOL     OW11866   4.558   9.249   0.108  0.0552 -0.6246 -0.5516
  651SOL    HW111867   4.532   9.163   0.150  0.5630 -0.1908  0.6787
  651SOL    HW211868   4.478   9.307   0.095 -0.4822 -1.7901 -2.5945
  652SOL     OW11869   3.289   4.445   2.234 -0.2040  0.4951 -0.4247
  652SOL    HW111870   3.277   4.375   2.306  0.0011 -0.0088 -0.8769
  652SOL    HW211871   3.205   4.451   2.180 -0.4704  1.0951  0.0435
  653SOL     OW11872   0.309   5.203   0.900  0.4416 -0.4831  0.2481
  653SOL    HW111873   0.357   5.117   0.920  0.8144 -0.3764 -0.1806
  653SOL    HW211874   0.298   5.212   0.801  0.5994  0.0720  0.2808
  654SOL     OW11875   3.357   0.370   1.307  0.1673  0.3190 -0.3806
  654SOL    HW111876   3.313   0.422   1.233  0.4793 -0.1008 -0.8653
  654SOL    HW211877   3.373   0.276   1.276 -0.2785 -0.0343  0.4474
  655SOL     OW11878  10.101   5.530   0.715 -0.3284 -0.3104  0.2375
  655SOL    HW111879  10.032   5.602   0.702 -0.6306 -1.0123 -2.3688
  655SOL    HW211880  10.068   5.445   0.675  2.5423 -0.3302 -2.3026
  656SOL     OW11881   5.143   3.985   1.868 -0.3405  0.0742  0.4411
  656SOL    HW111882   5.172   3.892   1.892  0.8672  0.4113  0.3129
  656SOL    HW211883   5.047   3.997   1.892 -1.2904 -2.0934 -1.9986
  657SOL     OW11884   0.360   5.760   1.678  0.4326 -0.2430  0.2034
  657SOL    HW111885   0.334   5.728   1.587 -0.3994 -0.3885  0.4883
  657SOL    HW211886   0.453   5.796   1.675  0.2593  0.1488 -0.8033
  658SOL     OW11887   4.610   3.981   0.990  0.1663 -0.5595 -0.5496
  658SOL    HW111888   4.536   3.931   1.035  0.8807 -0.1780  1.0692
  658SOL    HW211889   4.696   3.965   1.038  0.5608  1.5824 -0.4869
  659SOL     OW11890   3.367   7.974   2.100  0.1963 -0.1630 -0.3782
  659SOL    HW111891   3.294   8.039   2.121  0.9221  0.3078  0.7164
  659SOL    HW211892   3.426   7.962   2.180  2.2248  0.6402 -1.7139
  660SOL     OW11893   2.101   4.849   2.561  0.2479 -0.0969 -0.5092
  660SOL    HW111894   2.080   4.804   2.474 -0.0902 -1.6049  0.3356
  660SOL    HW211895   2.185   4.809   2.599 -0.0423  0.0011  0.2409
  661SOL     OW11896   0.371   5.518   0.768  0.1587 -0.0680 -0.1802
  661SOL    HW111897   0.277   5.521   0.734 -0.0659 -2.1009  0.2246
  661SOL    HW211898   0.413   5.608   0.757 -1.8328  0.8655 -0.3510
  662SOL     OW11899   3.899   1.666   0.772 -0.0250 -0.0810 -0.1469
  662SOL    HW111900   3.944   1.755   0.764 -0.1862  0.0011 -0.1474
  662SOL    HW211901   3.868   1.653   0.867 -2.2925  0.9827 -0.7006
  663SOL     OW11902   4.974   4.095   0.149  0.4425 -0.1824 -0.0275
  663SOL    HW111903   5.060   4.084   0.098  0.3048  1.2591 -0.5888
  663SOL    HW211904   4.961   4.016   0.209  2.4601 -0.1346  0.5213
  664SOL     OW11905   9.587   5.109   0.926  0.0717 -0.3304 -0.3828
  664SOL    HW111906   9.506   5.060   0.958 -0.4217  1.1090  0.6003
  664SOL    HW211907   9.651   5.121   1.001  1.1735 -1.3695 -1.1331
  665SOL     OW11908   2.384   4.834   0.344 -0.6397 -0.5156  0.5760
  665SOL    HW111909   2.461   4.815   0.404 -0.5419 -0.5785  0.4324
  665SOL    HW211910   2.418   4.877   0.260 -0.9443  1.1305  1.2708
  666SOL     OW11911   4.778   2.820   1.296 -0.2720 -0.4019 -0.5068
  666SOL    HW111912   4.743   2.880   1.369  0.4688 -1.6277  0.8694
  666SOL    HW211913   4.821   2.876   1.225  2.5722  0.6123  1.9070
  667SOL     OW11914   0.553   4.537   2.087 -0.1080  0.5258 -0.4730
  667SOL    HW111915   0.469   4.567   2.040  0.1641  0.3768 -1.0628
  667SOL    HW211916   0.568   4.439   2.068 -0.3544  0.3038  0.4725
  668SOL     OW11917   0.426   4.098   0.887  0.3096  0.4159  0.2507
  668SOL    HW111918   0.471   4.162   0.949 -2.6899  2.2819  0.5933
  668SOL    HW211919   0.363   4.041   0.939 -0.5854  0.4761 -0.7597
  669SOL     OW11920   1.112   3.933   0.087  0.1049  0.0107  0.2231
  669SOL    HW111921   1.133   3.980   0.001 -1.9228 -0.1287 -0.3884
  669SOL    HW211922   1.021   3.892   0.081 -0.1227  0.0976  2.4883
  670SOL     OW11923   4.575   2.559   1.882 -0.1955  0.5865  0.3919
  670SOL    HW111924   4.611   2.503   1.807 -0.0897 -0.6477  1.3459
  670SOL    HW211925   4.487   2.599   1.855  0.0023  0.4295 -0.5056
  671SOL     OW11926   3.873   4.699   0.790 -0.6878  0.1941  0.7469
  671SOL    HW111927   3.902   4.781   0.840  2.3093 -0.2517 -0.1854
  671SOL    HW211928   3.808   4.726   0.719  0.5807  1.8655  0.1789
  672SOL     OW11929   2.527   2.513   0.667 -0.2198  0.0331  0.0958
  672SOL    HW111930   2.456   2.461   0.714 -0.4757  0.2216 -0.0797
  672SOL    HW211931   2.605   2.526   0.728  0.6119 -2.1294 -0.4741
  673SOL     OW11932   4.072   3.593   0.530  0.4196  0.3183  0.2220
  673SOL    HW111933   4.008   3.659   0.570  0.1228  0.4320 -0.4336
  673SOL    HW211934   4.163   3.635   0.525  0.3782  0.4356  0.4375
  674SOL     OW11935   4.443   1.693   0.856 -0.2467 -0.3371 -0.2001
  674SOL    HW111936   4.516   1.624   0.855 -0.0288 -0.1233 -2.3888
  674SOL    HW211937   4.483   1.784   0.868  0.1707  0.0366 -3.7878
  675SOL     OW11938   4.443   1.324   1.150  0.2143 -0.3368 -0.3866
  675SOL    HW111939   4.410   1.374   1.230 -0.6354  0.0945 -0.9965
  675SOL    HW211940   4.388   1.348   1.070  0.6074 -1.2818 -0.9610
  676SOL     OW11941   4.988   5.283   0.377 -0.6154  0.4916 -0.4513
  676SOL    HW111942   4.907   5.322   0.334 -1.7170  0.3368  1.4595
  676SOL    HW211943   5.008   5.194   0.336 -1.7016  0.2981 -0.5675
  677SOL     OW11944   4.250   2.607   0.768  0.1604 -0.0309 -0.0004
  677SOL    HW111945   4.261   2.565   0.678 -0.8555 -0.0267 -0.1280
  677SOL    HW211946   4.323   2.576   0.828  0.2051 -0.8958 -0.4967
  678SOL     OW11947   2.940   8.488   1.010  0.2096 -0.9611 -0.1187
  678SOL    HW111948   2.883   8.532   1.080 -0.1249 -0.6557 -0.5727
  678SOL    HW211949   2.913   8.392   1.001  0.5988 -1.1332  0.5240
  679SOL     OW11950   9.517   5.511   1.888  0.4731 -0.8441 -0.6534
  679SOL    HW111951   9.537   5.608   1.876  0.1761 -0.6293  0.4660
  679SOL    HW211952   9.581   5.456   1.834  2.2964 -0.0878  0.6631
  680SOL     OW11953   1.967   6.666   1.822  0.0445 -0.3353  0.4668
  680SOL    HW111954   1.909   6.658   1.903  1.0602  0.8296  1.3422
  680SOL    HW211955   1.940   6.598   1.754 -1.8680 -0.2664  1.1349
  681SOL     OW11956   1.831   3.776   1.526  0.5374  0.2716  0.2093
  681SOL    HW111957   1.863   3.821   1.609 -0.6335  3.5256 -1.0468
  681SOL    HW211958   1.774   3.697   1.551  2.8869 -0.8264  2.4323
  682SOL     OW11959   4.915   3.402   0.422  0.3487  0.0338  0.2133
  682SOL    HW111960   4.931   3.400   0.521 -2.5544 -2.4963  0.7384
  682SOL    HW211961   4.915   3.308   0.387 -0.0238  0.8082 -1.9372
  683SOL     OW11962   1.679   7.305   2.514 -0.0566 -0.0498 -0.5977
  683SOL    HW111963   1.624   7.293   2.597  1.7832 -1.9569  0.4115
  683SOL    HW211964   1.637   7.254   2.439  0.1604 -1.2883  0.0993
  684SOL     OW11965   4.496   0.417   1.278 -0.3688 -0.2763  0.5210
  684SOL    HW111966   4.480   0.396   1.181 -2.1804  1.0598  0.5035
  684SOL    HW211967   4.466   0.339   1.333 -0.2406 -0.6597  0.0578
  685SOL     OW11968   9.996   5.225   0.118 -0.7017 -0.5824  0.7759
  685SOL    HW111969   9.980   5.145   0.175  1.7594 -0.4197  1.7853
  685SOL    HW211970  10.027   5.301   0.176  0.9143 -0.1247 -0.6375
  686SOL     OW11971   3.647   9.473   1.877 -0.1933 -0.9105  0.1585
  686SOL    HW111972   3.741   9.438   1.883  0.2977  0.1830 -0.8367
  686SOL    HW211973   3.608   9.446   1.789 -1.3052 -2.4971  1.1125
  687SOL     OW11974   3.453   6.570   0.367 -0.0458  0.2737 -0.1826
  687SOL    HW111975   3.454   6.642   0.437  3.9604 -1.0349  1.2206
  687SOL    HW211976   3.397   6.493   0.398  0.4152  0.3628  0.8683
  688SOL     OW11977   5.181   3.501   1.392 -0.1612  0.4749  0.2232
  688SOL    HW111978   5.189   3.433   1.319  0.5866  2.0568 -1.2172
  688SOL    HW211979   5.269   3.549   1.402 -0.8344  1.6014  0.8319
  689SOL     OW11980   3.509   3.465   0.995  0.2905  0.5760  0.5431
  689SOL    HW111981   3.528   3.418   1.080 -1.2350  0.2368  0.7082
  689SOL    HW211982   3.424   3.518   1.004  0.5443  1.1838 -0.5028
  690SOL     OW11983   0.511   6.463   1.606 -0.5011  0.3226  0.2958
  690SOL    HW111984   0.489   6.474   1.703 -1.5440 -0.4235  0.1474
  690SOL    HW211985   0.551   6.373   1.591 -1.8596 -0.2069 -0.2265
  691SOL     OW11986   3.969   0.458   0.154  0.1580  0.3232  0.0769
  691SOL    HW111987   3.870   0.449   0.165 -0.3011  3.7561 -0.6166
  691SOL    HW211988   4.001   0.536   0.208  2.5651 -0.9312  0.5320
  692SOL     OW11989   9.611   4.852   1.356 -0.1342  0.8453 -0.0363
  692SOL    HW111990   9.683   4.881   1.292 -0.1072  0.9544  0.0433
  692SOL    HW211991   9.534   4.915   1.349 -0.2032  0.7560 -0.0868
  693SOL     OW11992   4.834   1.786   0.937 -0.0819 -0.4375  0.0724
  693SOL    HW111993   4.931   1.807   0.925 -0.2483 -0.6541 -1.7451
  693SOL    HW211994   4.825   1.700   0.987  0.6199  0.9335  2.6467
  694SOL     OW11995   0.244   4.819   1.527  0.8640 -0.7047 -0.1282
  694SOL    HW111996   0.225   4.727   1.558  0.8827 -0.1463  1.5744
  694SOL    HW211997   0.338   4.844   1.550  0.8081 -0.1872 -0.4213
  695SOL     OW11998   2.665   0.699   2.531 -0.1910 -0.3718 -0.1727
  695SOL    HW111999   2.666   0.788   2.576  1.1133  0.2453 -1.3706
  695SOL    HW212000   2.620   0.708   2.442 -1.6293 -1.3018  0.4483
  696SOL     OW12001   4.417   1.035   1.145  0.1371 -0.0629 -0.2936
  696SOL    HW112002   4.467   1.121   1.157  0.2099 -0.3879  1.8003
  696SOL    HW212003   4.471   0.972   1.089  1.2046  0.3180  0.2970
  697SOL     OW12004   3.967   4.084   1.407  0.4366  0.5818  0.1201
  697SOL    HW112005   4.055   4.071   1.362 -1.0827  0.9958 -3.0943
  697SOL    HW212006   3.924   3.995   1.422  0.6010  0.4819  0.0018
  698SOL     OW12007   3.722   1.498   1.254 -0.0227 -0.2695 -0.3852
  698SOL    HW112008   3.715   1.507   1.353 -1.1604  2.6435 -0.6615
  698SOL    HW212009   3.660   1.428   1.221  0.3187 -1.2023  0.9524
  699SOL     OW12010   3.421   3.813   2.373 -0.6246 -0.0298 -0.3424
  699SOL    HW112011   3.489   3.873   2.332 -1.0175 -0.4580 -1.6820
  699SOL    HW212012   3.466   3.747   2.433 -0.0538  0.7696  0.1128
  700SOL     OW12013   2.539   7.279   1.379  0.0074 -0.1711 -0.1947
  700SOL    HW112014   2.470   7.249   1.313 -0.9537 -0.0977  0.7509
  700SOL    HW212015   2.578   7.200   1.425  0.7410 -0.2274 -0.9007
  701SOL     OW12016   3.848   3.590   1.627 -0.5175 -0.3032  0.4684
  701SOL    HW112017   3.753   3.620   1.628 -0.8595 -1.3533  0.7955
  701SOL    HW212018   3.883   3.587   1.721 -1.0404 -2.5586  0.6206
  702SOL     OW12019   0.837   5.872   2.378 -0.5240 -0.0379 -0.5476
  702SOL    HW112020   0.855   5.922   2.294 -0.3776  0.7205 -0.0698
  702SOL    HW212021   0.910   5.805   2.393  0.1033  0.6800 -0.3797
  703SOL     OW12022  10.000   4.904   1.404  0.2291 -0.1612  0.2252
  703SOL    HW112023   9.945   4.940   1.479  0.0227  2.7065 -1.2285
  703SOL    HW212024  10.088   4.872   1.440 -0.3148  0.0857  1.8280
  704SOL     OW12025   2.029   7.004   0.784  0.1619 -0.0689 -0.1726
  704SOL    HW112026   2.070   7.094   0.774  2.7828 -1.0084  1.6715
  704SOL    HW212027   2.008   6.987   0.881  2.9246 -2.7566  0.0202
  705SOL     OW12028   4.734   4.541   2.107 -0.5653 -0.0567 -0.4876
  705SOL    HW112029   4.691   4.454   2.131  0.3064 -0.0349  1.2960
  705SOL    HW212030   4.825   4.523   2.070  0.0490  0.1201  0.9012
  706SOL     OW12031   0.328   6.257   0.063 -0.3515 -0.0331  0.5911
  706SOL    HW112032   0.232   6.271   0.087 -0.2985  0.3422  0.5879
  706SOL    HW212033   0.340   6.165   0.024 -0.8209  0.1577 -0.0025
  707SOL     OW12034   5.149   4.748   0.237 -0.2000  0.5123  0.7281
  707SOL    HW112035   5.110   4.684   0.171  0.9721 -0.7570  1.2529
  707SOL    HW212036   5.249   4.744   0.232 -0.1163  2.6186  0.4627
  708SOL     OW12037   0.634   5.682   1.240 -0.0391  0.2579 -0.1916
  708SOL    HW112038   0.677   5.707   1.153  0.8970  0.7122  0.3978
  708SOL    HW212039   0.539   5.657   1.224 -0.4567  2.3247 -1.0604
  709SOL     OW12040   1.241   3.863   1.884  0.1506  0.5046 -0.0473
  709SOL    HW112041   1.192   3.780   1.857  2.2162 -0.5188 -0.7493
  709SOL    HW212042   1.175   3.933   1.911 -1.7612 -0.4492 -2.0322
  710SOL     OW12043   1.955   4.924   1.918  0.1169 -0.1294 -0.0023
  710SOL    HW112044   1.997   5.010   1.886 -2.4942  0.8479 -0.9171
  710SOL    HW212045   1.940   4.864   1.841 -0.8361 -0.1702  0.2142
  711SOL     OW12046   0.531   6.196   0.633  0.4382  0.4867  0.1957
  711SOL    HW112047   0.520   6.126   0.562  1.0755  2.6773 -2.1824
  711SOL    HW212048   0.619   6.242   0.620 -0.2334  2.1438  1.3023
  712SOL     OW12049   3.231   4.029   0.480  0.2757 -0.3890 -0.0234
  712SOL    HW112050   3.149   3.976   0.499  1.7741 -2.3923  1.0882
  712SOL    HW212051   3.312   3.969   0.487  1.7789  1.3510 -1.8018
  713SOL     OW12052   4.275   1.404   1.368  0.2638  0.4322  0.5613
  713SOL    HW112053   4.319   1.416   1.457 -0.6471 -1.4554  1.2935
  713SOL    HW212054   4.176   1.402   1.379  0.1196  0.9542 -0.5938
  714SOL     OW12055   2.911   6.208   2.526  0.5345  0.5863  0.0664
  714SOL    HW112056   2.997   6.217   2.576  1.7615  0.5622 -1.9882
  714SOL    HW212057   2.918   6.258   2.439 -1.0570 -0.5123 -0.7142
  715SOL     OW12058   1.592   5.944   0.616 -0.0596 -0.4074  0.1826
  715SOL    HW112059   1.559   6.035   0.638  2.8464  0.4666  1.0777
  715SOL    HW212060   1.653   5.948   0.537  1.8190 -1.2470  1.5676
  716SOL     OW12061   2.514   1.803   2.034  0.6455 -0.2135  0.2712
  716SOL    HW112062   2.549   1.728   1.978  0.1191  1.2521 -2.1014
  716SOL    HW212063   2.590   1.849   2.081  1.3237 -0.2609 -0.7719
  717SOL     OW12064   9.788   4.652   0.351  0.0346  0.4910 -0.5779
  717SOL    HW112065   9.874   4.689   0.316 -0.6887  2.9827  0.1752
  717SOL    HW212066   9.718   4.657   0.280 -0.5364  2.3546  0.0747
  718SOL     OW12067   2.781   1.883   2.136  0.5329  0.2938  0.0242
  718SOL    HW112068   2.794   1.828   2.219 -0.0805 -0.6540 -0.4960
  718SOL    HW212069   2.850   1.954   2.132  1.0845 -0.1831  0.9316
  719SOL     OW12070   5.570   3.637   0.779  0.6356 -0.8138 -0.3806
  719SOL    HW112071   5.504   3.562   0.784 -1.1789  0.7849  0.3759
  719SOL    HW212072   5.561   3.683   0.691  0.0291  0.0003  0.0921
  720SOL     OW12073   0.577   5.967   0.352  0.7451 -0.2093 -0.3573
  720SOL    HW112074   0.610   6.061   0.337  0.4036 -0.0208  0.0488
  720SOL    HW212075   0.630   5.904   0.296 -0.2690  0.4346 -2.0889
  721SOL     OW12076   0.211   5.042   1.762  0.0004 -0.4522  0.1487
  721SOL    HW112077   0.208   5.120   1.825 -0.2226 -0.7257  0.4785
  721SOL    HW212078   0.261   5.067   1.680 -0.7635  0.2985 -0.0967
  722SOL     OW12079   2.295   2.239   2.245  0.2021  0.4836  0.0153
  722SOL    HW112080   2.353   2.264   2.166 -0.6844 -2.0220 -1.4672
  722SOL    HW212081   2.216   2.300   2.248  1.1422  1.7290  0.0279
  723SOL     OW12082   1.708   5.019   0.285  0.2124 -0.3239  0.6646
  723SOL    HW112083   1.725   5.006   0.188  0.4344 -0.0839  0.6691
  723SOL    HW212084   1.776   5.083   0.322 -0.3143  0.1507  0.8196
  724SOL     OW12085   4.580   3.569   1.694  0.1718  0.2925 -0.1584
  724SOL    HW112086   4.583   3.661   1.732  0.8951  0.5481 -0.8130
  724SOL    HW212087   4.654   3.558   1.627  0.1776 -0.8081  0.0154
  725SOL     OW12088   2.846   6.218   2.215 -0.4749 -0.2283 -0.0851
  725SOL    HW112089   2.926   6.167   2.185 -0.6579 -0.0396 -0.8948
  725SOL    HW212090   2.864   6.316   2.205 -1.3754 -0.2208 -1.7405
  726SOL     OW12091   4.093   3.072   0.331 -0.4258 -0.2628  0.1790
  726SOL    HW112092   4.010   3.076   0.276 -1.7377  0.5283  2.1730
  726SOL    HW212093   4.115   3.162   0.367  0.4217 -0.7635  0.9611
  727SOL     OW12094   2.907   5.750   2.451  0.0442 -0.1016  0.2090
  727SOL    HW112095   2.897   5.811   2.372 -1.9977  0.9805  1.2711
  727SOL    HW212096   3.004   5.733   2.467  0.5854  1.6406 -1.0376
  728SOL     OW12097   0.908   4.438   0.900 -0.2660  0.4038  0.0787
  728SOL    HW112098   0.837   4.374   0.870  0.3506  0.0467 -0.5986
  728SOL    HW212099   0.878   4.482   0.986 -0.4141 -1.2452  0.8830
  729SOL     OW12100   4.231   2.587   0.465 -0.3047  0.1993  0.3579
  729SOL    HW112101   4.255   2.683   0.450 -2.8583  0.8373  0.1807
  729SOL    HW212102   4.290   2.529   0.409 -0.0934  1.7720 -1.1023
  730SOL     OW12103   2.390   2.332   0.811  0.1471  0.2717  0.7841
  730SOL    HW112104   2.304   2.322   0.862 -0.9983 -0.8161 -1.2825
  730SOL    HW212105   2.426   2.242   0.789  1.9016  0.7304  1.7376
  731SOL     OW12106   9.762   4.265   1.502  0.6999 -0.1408  0.1823
  731SOL    HW112107   9.747   4.203   1.425 -0.3485  0.8814 -0.4503
  731SOL    HW212108   9.784   4.356   1.468  0.5698  0.2430  1.1014
  732SOL     OW12109   3.710   5.164   2.086 -0.4998  0.7084  0.0825
  732SOL    HW112110   3.701   5.157   1.987 -1.0805 -0.2574  0.1975
  732SOL    HW212111   3.622   5.188   2.126 -0.1926  1.4328  0.3475
  733SOL     OW12112   3.885   1.792   1.908  0.0825  0.2516 -0.3898
  733SOL    HW112113   3.858   1.697   1.893  1.9512 -0.5518  1.1190
  733SOL    HW212114   3.845   1.824   1.994  0.0991  0.5800 -0.5053
  734SOL     OW12115   3.588   6.011   2.277  0.1444 -0.0211  0.1114
  734SOL    HW112116   3.633   6.030   2.189 -0.5535  0.6826 -0.0980
  734SOL    HW212117   3.524   6.085   2.298  0.0154 -0.3900  1.0254
  735SOL     OW12118   0.966   4.949   0.960 -0.7385 -0.0313 -0.2033
  735SOL    HW112119   0.995   5.031   1.009 -1.2436  1.8267 -2.8620
  735SOL    HW212120   1.041   4.884   0.955  0.0940  0.8405  0.7854
  736SOL     OW12121   0.797   6.820   1.043 -0.6569 -0.1262 -0.0181
  736SOL    HW112122   0.852   6.783   1.118 -0.5301  1.0489  0.4718
  736SOL    HW212123   0.727   6.881   1.079  0.2346  1.4852 -0.9396
  737SOL     OW12124   1.575   5.515   0.705 -0.3799 -0.2493 -0.3691
  737SOL    HW112125   1.493   5.458   0.697 -0.2048 -0.4415 -0.7864
  737SOL    HW212126   1.548   5.607   0.733 -0.8130 -0.1284 -1.1646
  738SOL     OW12127   2.648   3.496   1.769  0.0510 -0.4284 -0.3538
  738SOL    HW112128   2.738   3.494   1.726  0.1327  0.5674 -0.2362
  738SOL    HW212129   2.606   3.406   1.762  1.3158 -1.0732  0.1335
  739SOL     OW12130   1.498   5.721   0.406 -0.3812  0.1899  0.2959
  739SOL    HW112131   1.574   5.658   0.394 -1.0405 -0.6162  0.2631
  739SOL    HW212132   1.526   5.798   0.464  0.6110  0.1889 -0.1844
  740SOL     OW12133   4.466   0.895   0.424 -0.2115  0.4005  0.2793
  740SOL    HW112134   4.413   0.828   0.372 -1.0861  0.5069  1.0282
  740SOL    HW212135   4.506   0.850   0.504 -1.4410  0.9359  1.2076
  741SOL     OW12136   2.849   6.392   0.739 -0.4503 -0.1515  0.0047
  741SOL    HW112137   2.828   6.329   0.814  0.1394 -0.1708  0.1625
  741SOL    HW212138   2.837   6.486   0.771  0.6664 -0.1343  0.4086
  742SOL     OW12139   2.238   2.480   0.006 -0.6711 -0.2463 -0.1465
  742SOL    HW112140   2.177   2.409  -0.030  0.7948 -1.1739 -0.8602
  742SOL    HW212141   2.272   2.452   0.096  0.1946 -0.6198 -0.5892
  743SOL     OW12142   2.393   3.167   1.209  0.1668  0.1695 -0.0115
  743SOL    HW112143   2.468   3.226   1.239  0.2258  0.3435 -0.5007
  743SOL    HW212144   2.357   3.117   1.287  1.2927 -0.4710  0.1140
  744SOL     OW12145   5.252   4.058   0.049 -0.3938 -0.1393  0.3711
  744SOL    HW112146   5.224   3.972   0.007  1.0016 -1.2168  1.6049
  744SOL    HW212147   5.290   4.119  -0.021 -1.5457 -0.4491 -0.5303
  745SOL     OW12148   4.228   0.971   1.642  0.0644 -0.5735  0.3309
  745SOL    HW112149   4.315   0.991   1.596 -0.2552  1.1970  0.4690
  745SOL    HW212150   4.196   1.052   1.691 -2.3016 -0.7809 -0.7660
  746SOL     OW12151   3.492   9.973   0.780 -0.6305  0.2219 -0.4700
  746SOL    HW112152   3.393   9.969   0.763 -0.7767 -1.4227  0.6379
  746SOL    HW212153   3.534   9.888   0.749  0.4147  0.8628 -0.8007
  747SOL     OW12154   1.156   5.751   0.163 -0.2744  0.2962 -0.4832
  747SOL    HW112155   1.182   5.730   0.257 -1.6180 -2.5153 -0.6685
  747SOL    HW212156   1.232   5.797   0.117  1.0625  0.0936  1.4531
  748SOL     OW12157   3.284   7.414   2.584 -0.4372  0.3916  0.3470
  748SOL    HW112158   3.381   7.412   2.608 -0.0339  0.2912 -1.2041
  748SOL    HW212159   3.266   7.342   2.516 -0.9242  2.4440 -1.7521
  749SOL     OW12160   3.924   3.499   1.345 -0.1579 -0.7631  0.4621
  749SOL    HW112161   3.838   3.536   1.381  0.0272 -0.0237  0.1361
  749SOL    HW212162   3.905   3.441   1.266 -0.4516 -1.4475  1.0191
  750SOL     OW12163   9.952   4.225   0.926 -0.1778  0.1525  0.0513
  750SOL    HW112164  10.042   4.253   0.890 -0.1814 -2.1139 -1.8818
  750SOL    HW212165   9.881   4.283   0.885  0.2118  0.4660 -0.1933
  751SOL     OW12166   4.727   1.292   1.105 -0.1132 -0.0160 -0.2904
  751SOL    HW112167   4.628   1.308   1.113  0.1897  2.3721 -0.9974
  751SOL    HW212168   4.751   1.273   1.010 -0.2126 -3.1718  0.2679
  752SOL     OW12169   3.220   8.615   2.561  0.3382 -0.4664  0.4373
  752SOL    HW112170   3.149   8.596   2.628  0.7870 -0.6661  0.8514
  752SOL    HW212171   3.188   8.687   2.499  0.3481  0.4830  1.5257
  753SOL     OW12172   3.043   4.240   0.428  0.2944  0.6067  0.5559
  753SOL    HW112173   3.094   4.315   0.387 -0.6917  0.9229 -0.1084
  753SOL    HW212174   3.106   4.167   0.454  1.3400  1.9101  1.7748
  754SOL     OW12175   3.078   1.054   0.019 -0.0172 -0.2348 -0.4345
  754SOL    HW112176   3.081   1.012   0.110  1.1600 -1.2706 -0.9447
  754SOL    HW212177   2.985   1.049  -0.017 -0.0053 -1.9110 -0.2569
  755SOL     OW12178   0.443   6.085   1.897 -0.1196  0.3267  0.1760
  755SOL    HW112179   0.366   6.021   1.897 -0.0843  0.2797  0.9099
  755SOL    HW212180   0.422   6.162   1.837 -1.2159  0.8756  1.2269
  756SOL     OW12181   0.546   5.375   0.631  0.9585  0.2382  0.1971
  756SOL    HW112182   0.559   5.440   0.556  1.5469 -1.6519 -1.3718
  756SOL    HW212183   0.467   5.404   0.686  1.5249  2.5527 -0.1460
  757SOL     OW12184   3.220   5.057   0.137  0.3671 -0.5197  0.1565
  757SOL    HW112185   3.142   4.994   0.131 -0.7018  0.7321  0.7806
  757SOL    HW212186   3.278   5.031   0.214 -0.2002 -0.5989  0.5586
  758SOL     OW12187   2.828   0.741   0.281  0.0781  0.2042 -0.2718
  758SOL    HW112188   2.843   0.676   0.207 -1.1275  0.9491 -1.1787
  758SOL    HW212189   2.763   0.703   0.347  2.4152 -1.1678  1.3366
  759SOL     OW12190   9.810   5.790   1.323  0.3317  0.2321  0.4659
  759SOL    HW112191   9.886   5.848   1.291  0.9921 -1.2014 -0.6137
  759SOL    HW212192   9.812   5.703   1.273 -1.4603 -0.1863  1.1175
  760SOL     OW12193   2.801   6.787   0.364 -0.2151  0.1942 -0.4269
  760SOL    HW112194   2.731   6.813   0.429 -0.1524  1.5540 -0.8878
  760SOL    HW212195   2.852   6.868   0.334  1.0292 -0.6592 -0.7015
  761SOL     OW12196   3.295   4.189   1.759 -0.1590  0.1823 -0.2562
  761SOL    HW112197   3.393   4.205   1.774  0.0215  1.1857 -2.2424
  761SOL    HW212198   3.282   4.155   1.665 -1.6933 -0.2956  0.1214
  762SOL     OW12199   4.282   9.265   0.516 -0.1533  0.2648 -0.0374
  762SOL    HW112200   4.323   9.354   0.535 -0.1254  0.4897 -1.0770
  762SOL    HW212201   4.339   9.215   0.451 -0.2983 -0.4043  0.3495
  763SOL     OW12202   1.637   4.902   1.688  0.3461 -0.0586 -0.2340
  763SOL    HW112203   1.606   4.890   1.593 -1.0958 -0.3028  0.2425
  763SOL    HW212204   1.589   4.836   1.746  2.3066 -0.9189  0.4589
  764SOL     OW12205   2.893   3.192   2.578  0.0592  0.6021 -0.0077
  764SOL    HW112206   2.797   3.169   2.594 -0.0955  1.6062  0.5268
  764SOL    HW212207   2.914   3.179   2.481 -0.0305 -1.7493  0.2692
  765SOL     OW12208   3.249   7.014   1.098  0.2814 -0.0234 -0.3691
  765SOL    HW112209   3.260   7.052   1.190 -2.3355  1.9218 -0.8036
  765SOL    HW212210   3.205   6.924   1.105  2.1964 -0.9584  0.3605
  766SOL     OW12211   3.846   0.681   0.492  0.1839  0.0000  0.3409
  766SOL    HW112212   3.876   0.628   0.572  0.6578  0.9363  0.7910
  766SOL    HW212213   3.812   0.770   0.522  0.0866  0.2413 -0.4831
  767SOL     OW12214   4.018   3.233   1.845  0.2845  0.1853 -0.1848
  767SOL    HW112215   3.962   3.221   1.927  0.7499  0.7781  0.2230
  767SOL    HW212216   3.963   3.213   1.764  0.2200 -1.8598  0.3264
  768SOL     OW12217   3.774   5.399   0.015  0.5615  0.0542  0.0485
  768SOL    HW112218   3.767   5.308   0.055 -0.8575 -0.0513 -0.4396
  768SOL    HW212219   3.767   5.468   0.087  0.4031 -0.1922  0.2674
  769SOL     OW12220   2.878   5.394   0.542 -0.1277 -0.4512  0.3576
  769SOL    HW112221   2.853   5.380   0.446  0.4772 -0.1436  0.1550
  769SOL    HW212222   2.881   5.306   0.588  0.4226 -0.6843 -0.1151
  770SOL     OW12223   2.950   9.133   1.101  0.1346 -0.4754  0.2675
  770SOL    HW112224   3.045   9.104   1.092  0.5587  0.7374  0.7816
  770SOL    HW212225   2.905   9.127   1.012  0.4501 -1.8681  0.1943
  771SOL     OW12226   3.203   9.944   0.234 -0.0457  0.7411  0.2577
  771SOL    HW112227   3.210   9.981   0.327  0.3624  0.2410  0.4304
  771SOL    HW212228   3.277   9.877   0.220  1.5551  2.7946 -1.3496
  772SOL     OW12229   1.459   5.692   1.170  0.1554  0.1835 -0.6868
  772SOL    HW112230   1.554   5.714   1.147 -0.4708  1.8779 -1.7104
  772SOL    HW212231   1.428   5.618   1.110  0.5097  0.3215 -1.0505
  773SOL     OW12232   1.295   6.982   2.379 -0.1680 -0.4313 -0.3386
  773SOL    HW112233   1.287   6.987   2.479 -1.1289  3.4763 -0.5166
  773SOL    HW212234   1.224   6.921   2.343 -0.4271 -1.1138  1.2776
  774SOL     OW12235   3.405   9.226   1.124 -0.1176  0.8058  0.2058
  774SOL    HW112236   3.344   9.251   1.049  0.6477  0.2199 -0.6302
  774SOL    HW212237   3.424   9.128   1.119  0.7531  0.9525  0.5571
  775SOL     OW12238   1.512   3.879   1.904  0.1098  0.0601 -0.3570
  775SOL    HW112239   1.552   3.914   1.819 -1.4190  0.6779 -0.8349
  775SOL    HW212240   1.412   3.878   1.896  0.0052 -1.0415  0.9838
  776SOL     OW12241   3.649   8.306   1.884 -0.0435 -0.2661  0.8083
  776SOL    HW112242   3.607   8.349   1.963 -2.0407  2.6466 -1.7433
  776SOL    HW212243   3.742   8.341   1.871  0.9168 -1.9550  2.6961
  777SOL     OW12244   3.124   5.242   1.940 -0.4065 -0.1578  0.5745
  777SOL    HW112245   3.204   5.210   1.991 -0.9561 -2.2627  0.1720
  777SOL    HW212246   3.131   5.340   1.924  0.4268  0.3170  3.5520
  778SOL     OW12247   2.916   8.621   0.360  0.3093 -0.3879  0.5080
  778SOL    HW112248   2.911   8.664   0.450  2.2799 -1.2421  1.0339
  778SOL    HW212249   2.896   8.524   0.368 -0.7686 -0.2382 -0.1858
  779SOL     OW12250   3.444   3.237   1.588  0.4509 -0.3106  0.0775
  779SOL    HW112251   3.515   3.250   1.658 -1.6492  2.6516  1.8091
  779SOL    HW212252   3.394   3.153   1.607 -0.4146  0.6902  2.5687
  780SOL     OW12253   3.571   0.492   2.581  0.2015  0.5466  0.3167
  780SOL    HW112254   3.588   0.519   2.486 -0.2114  0.4435  0.2125
  780SOL    HW212255   3.516   0.562   2.626  1.9163  1.4834  1.0145
  781SOL     OW12256   1.705   5.534   1.573  0.3373 -0.4069 -0.0210
  781SOL    HW112257   1.703   5.623   1.618 -2.1490  0.2874 -1.4169
  781SOL    HW212258   1.684   5.463   1.640 -0.9148  0.3907  0.4589
  782SOL     OW12259   2.398   7.731   0.021  0.1910  0.3088 -0.9822
  782SOL    HW112260   2.444   7.818   0.035 -1.4500  1.1324 -0.5461
  782SOL    HW212261   2.449   7.675  -0.044  0.2944  2.3326 -2.6709
  783SOL     OW12262   3.580   1.787   1.626 -0.0132  0.0882 -0.0389
  783SOL    HW112263   3.482   1.768   1.622  0.2004 -1.0966  0.1704
  783SOL    HW212264   3.615   1.766   1.717  0.5947 -0.2845 -0.3569
  784SOL     OW12265   1.328   4.975   1.021  0.4691 -0.8067 -0.2678
  784SOL    HW112266   1.417   4.931   1.031  0.1294 -1.6418 -0.8881
  784SOL    HW212267   1.328   5.061   1.072  1.7872 -0.5626 -0.6525
  785SOL     OW12268   3.255   6.186   1.017 -0.4863  0.2484  0.1472
  785SOL    HW112269   3.160   6.216   1.016 -0.8495 -0.8968  0.4496
  785SOL    HW212270   3.276   6.140   0.931  0.0587  1.2800 -0.2888
  786SOL     OW12271   3.813   1.516   0.436  0.3066  0.0934  0.0056
  786SOL    HW112272   3.793   1.459   0.516  0.3142 -1.1080 -0.8239
  786SOL    HW212273   3.820   1.457   0.355  1.8986  1.1105 -0.6072
  787SOL     OW12274   3.345   6.158   2.404  0.8160  0.5902 -0.2785
  787SOL    HW112275   3.260   6.200   2.436 -0.1164 -0.8719 -0.7985
  787SOL    HW212276   3.380   6.094   2.472  3.2300  3.4754  1.3226
  788SOL     OW12277   5.455   3.498   1.794 -0.9971 -0.1282 -0.0474
  788SOL    HW112278   5.535   3.470   1.741  0.2538 -0.3497  1.9180
  788SOL    HW212279   5.446   3.597   1.793  0.0745 -0.0178  0.8118
  789SOL     OW12280   2.544   4.125   2.515 -0.1659  0.4452 -0.1842
  789SOL    HW112281   2.551   4.033   2.478 -0.3648 -0.7626  2.6266
  789SOL    HW212282   2.623   4.144   2.572 -1.6307  0.7673  1.8069
  790SOL     OW12283   3.222   3.837   2.548 -0.0266  0.0074  0.0625
  790SOL    HW112284   3.224   3.915   2.610 -1.0933  0.8004 -0.8552
  790SOL    HW212285   3.299   3.843   2.485  0.4195 -0.1789  0.5949
  791SOL     OW12286   2.736   1.294   1.938  0.6042  0.0554 -0.4601
  791SOL    HW112287   2.677   1.267   1.862 -0.4348  0.4471  0.2006
  791SOL    HW212288   2.709   1.246   2.021  0.5350  1.0169  0.0804
  792SOL     OW12289   2.536   5.057   2.124 -0.2130 -0.2811 -0.1864
  792SOL    HW112290   2.472   5.132   2.143 -0.3859 -0.5471  0.3015
  792SOL    HW212291   2.527   4.988   2.195  1.1376  0.0101  0.2689
  793SOL     OW12292   2.234   2.919   1.314 -0.2125  0.1687 -0.2671
  793SOL    HW112293   2.318   2.920   1.368 -1.6631  0.0885  2.0614
  793SOL    HW212294   2.216   2.827   1.281 -0.1805 -0.1345  0.5482
  794SOL     OW12295   4.322   9.383   1.194 -0.4061 -0.3369  0.4988
  794SOL    HW112296   4.294   9.304   1.249 -0.7138  0.2152  1.1382
  794SOL    HW212297   4.339   9.461   1.254 -0.5983  0.2250 -0.1754
  795SOL     OW12298   2.663   0.360   0.474  0.8965 -0.0561 -0.0369
  795SOL    HW112299   2.604   0.280   0.473 -0.2686  0.7999 -1.7453
  795SOL    HW212300   2.743   0.342   0.532  0.1376 -2.0542  0.4239
  796SOL     OW12301   2.199   7.209   0.724  0.7743  1.2476  0.3150
  796SOL    HW112302   2.218   7.215   0.822  0.7066 -0.1214  0.4168
  796SOL    HW212303   2.182   7.301   0.688  0.2989  1.7114  1.6842
  797SOL     OW12304   4.750   3.111   2.196 -0.5385  0.0800 -0.4087
  797SOL    HW112305   4.837   3.122   2.243  0.0910  0.4404 -1.6161
  797SOL    HW212306   4.744   3.177   2.121 -1.0780 -1.1264 -1.4521
  798SOL     OW12307   1.139   4.425   2.352 -0.0003  0.6215 -0.3103
  798SOL    HW112308   1.078   4.413   2.430 -0.3641 -0.0976 -0.7012
  798SOL    HW212309   1.097   4.488   2.286 -0.3688  0.0600 -0.6199
  799SOL     OW12310   1.000   4.409   2.578  0.3442 -0.3219 -0.3437
  799SOL    HW112311   1.024   4.353   2.658  0.2075 -2.2745 -1.6421
  799SOL    HW212312   0.957   4.493   2.609  1.4661 -0.4540  1.7044
  800SOL     OW12313   0.774   5.296   1.814  0.2586 -0.1069 -0.1581
  800SOL    HW112314   0.732   5.252   1.735 -0.5532  0.7079 -0.1793
  800SOL    HW212315   0.707   5.352   1.862  1.0987  0.5446  0.2892
  801SOL     OW12316   0.926   5.170   0.467  0.0696 -0.2368 -0.0406
  801SOL    HW112317   0.848   5.115   0.497 -0.1270 -0.1477 -0.3746
  801SOL    HW212318   0.986   5.188   0.544  0.1084 -0.8762  0.0791
  802SOL     OW12319   1.786   6.668   2.032 -0.4800 -0.2492  0.1235
  802SOL    HW112320   1.791   6.689   2.129 -1.7156 -3.8057  1.0236
  802SOL    HW212321   1.691   6.678   2.000 -0.4548 -1.1062 -0.2267
  803SOL     OW12322   1.522   3.397   2.035 -0.6942  0.1796  0.5268
  803SOL    HW112323   1.496   3.423   2.128 -0.3672  0.0674  0.6493
  803SOL    HW212324   1.585   3.320   2.038 -0.2258  0.5458  0.2340
  804SOL     OW12325   2.077   6.691   1.479 -0.3836  0.1202  0.1590
  804SOL    HW112326   2.070   6.610   1.538  0.7792 -0.7796 -0.9234
  804SOL    HW212327   2.153   6.748   1.509 -1.0596  0.7072  0.7781
  805SOL     OW12328   3.320   3.408   0.078 -0.4807  0.1207  0.3914
  805SOL    HW112329   3.272   3.491   0.107 -1.9383 -0.9763  1.1917
  805SOL    HW212330   3.260   3.329   0.091 -0.1888 -0.7435 -3.0209
  806SOL     OW12331   4.355   3.295   0.689 -0.7511  0.0308 -0.5885
  806SOL    HW112332   4.446   3.268   0.658 -0.5457 -0.3718  0.3567
  806SOL    HW212333   4.347   3.395   0.684  0.6170  0.2885  1.6127
  807SOL     OW12334   2.463   3.685   1.175 -0.2804  0.3188 -0.0011
  807SOL    HW112335   2.462   3.744   1.094  0.3924 -1.3997 -1.2835
  807SOL    HW212336   2.409   3.602   1.157  2.3269 -1.4678  0.2200
  808SOL     OW12337   2.535   7.457   1.598  0.0357  0.3287  0.1791
  808SOL    HW112338   2.633   7.452   1.613  0.2122  1.1732 -0.6301
  808SOL    HW212339   2.511   7.404   1.516  0.0162  1.2296 -0.4108
  809SOL     OW12340   1.399   5.460   1.027  0.5532 -0.0493 -0.0087
  809SOL    HW112341   1.332   5.402   1.073 -0.1245  1.6968  1.2880
  809SOL    HW212342   1.385   5.456   0.928 -0.4260 -0.9519  0.1565
  810SOL     OW12343   3.547   9.861   2.364 -0.0403 -0.0599 -0.4041
  810SOL    HW112344   3.519   9.956   2.347 -0.6673 -0.3292 -0.8972
  810SOL    HW212345   3.551   9.812   2.277  2.8439  0.1944 -0.4681
  811SOL     OW12346   3.804   4.312   1.293  0.1579 -0.1955  0.1367
  811SOL    HW112347   3.739   4.334   1.365  1.1205  0.0466  0.9571
  811SOL    HW212348   3.856   4.231   1.318  0.7065  0.0635 -0.1388
  812SOL     OW12349   4.269  10.004   2.155  0.4950  0.5604  0.3620
  812SOL    HW112350   4.306   9.919   2.193  1.5655  0.2416 -1.3468
  812SOL    HW212351   4.325  10.081   2.184 -0.1995  0.6290  1.5279
  813SOL     OW12352   0.517   5.761   0.794 -0.5613 -0.5239 -0.0527
  813SOL    HW112353   0.540   5.847   0.839 -2.8651  0.5627 -0.8976
  813SOL    HW212354   0.579   5.747   0.716 -0.3080  0.4632 -0.0293
  814SOL     OW12355   4.740   5.313   0.263  0.1204 -0.2228 -0.4814
  814SOL    HW112356   4.649   5.345   0.290  0.4501  2.0033 -1.8911
  814SOL    HW212357   4.731   5.238   0.197 -0.6679 -0.7612  0.2255
  815SOL     OW12358   5.480   3.318   1.104 -0.5226  0.5733 -0.2263
  815SOL    HW112359   5.386   3.298   1.130 -0.6596  0.7107 -0.6192
  815SOL    HW212360   5.481   3.383   1.028 -0.1955 -1.5638 -2.1102
  816SOL     OW12361   2.970   4.311   2.270  0.7788 -0.3444  0.0703
  816SOL    HW112362   2.981   4.404   2.236  1.4751 -1.1699 -2.0663
  816SOL    HW212363   2.876   4.280   2.251  0.9533 -0.5475 -0.4879
  817SOL     OW12364   3.954   2.725   2.333  0.2821 -0.5462  0.3990
  817SOL    HW112365   4.016   2.659   2.376 -0.6847 -2.4016 -1.0076
  817SOL    HW212366   3.894   2.678   2.268 -0.7327  1.6537 -0.3130
  818SOL     OW12367   2.698   4.912   1.072  0.6260  0.6154  0.1172
  818SOL    HW112368   2.652   4.993   1.109  0.1595  0.1132  0.6631
  818SOL    HW212369   2.682   4.834   1.134  1.2850  0.1735 -0.2681
  819SOL     OW12370   2.646   3.048   2.537  0.1198  0.2932 -0.4644
  819SOL    HW112371   2.546   3.047   2.537  0.1221 -0.0604 -0.5961
  819SOL    HW212372   2.680   3.005   2.621  0.1594  0.3471 -0.4533
  820SOL     OW12373   2.001   4.822   0.203 -0.3515 -0.6415  0.5041
  820SOL    HW112374   2.035   4.847   0.112 -0.4496 -0.9812  0.3716
  820SOL    HW212375   2.069   4.844   0.272  0.2456 -1.5526  0.2165
  821SOL     OW12376   1.332   6.207   0.361  0.2862  0.3765 -0.7084
  821SOL    HW112377   1.361   6.169   0.274 -0.5600  0.9926 -1.2603
  821SOL    HW212378   1.348   6.306   0.362  3.1882 -0.0342  0.9998
  822SOL     OW12379   3.080   0.707   1.120 -0.9829  0.1484  0.4964
  822SOL    HW112380   3.030   0.758   1.050 -0.2825  0.1573 -0.0083
  822SOL    HW212381   3.118   0.770   1.187 -0.1005  0.3102 -0.1380
  823SOL     OW12382   2.746   7.609   0.208  0.0354  0.5234  0.2889
  823SOL    HW112383   2.710   7.551   0.136  0.1013 -0.2975  0.9066
  823SOL    HW212384   2.726   7.568   0.297  0.5715  1.1604  0.7112
  824SOL     OW12385   9.596   4.397   1.731 -0.1638  0.0823 -0.3493
  824SOL    HW112386   9.648   4.361   1.654  0.3381  1.1148 -0.5056
  824SOL    HW212387   9.659   4.428   1.803 -0.5758  0.7664 -0.2788
  825SOL     OW12388   2.602   7.166   0.228  0.0070  0.5134 -0.1221
  825SOL    HW112389   2.541   7.093   0.257 -0.5161  0.2509 -1.8580
  825SOL    HW212390   2.615   7.231   0.303 -0.5867 -0.6411  0.9841
  826SOL     OW12391   3.997  10.201   2.099 -0.3450 -0.1112 -0.1442
  826SOL    HW112392   4.089  10.203   2.059  0.9962  0.6655  2.8932
  826SOL    HW212393   3.995  10.137   2.175 -2.4523 -0.4314 -0.4532
  827SOL     OW12394   3.544   1.088   0.710  0.1399 -0.4691 -0.2876
  827SOL    HW112395   3.564   0.998   0.749  0.9628  0.2990  1.1271
  827SOL    HW212396   3.452   1.116   0.737  0.7380  0.0982  1.2479
  828SOL     OW12397   0.677   5.512   1.588 -0.2500 -0.1303 -0.1925
  828SOL    HW112398   0.768   5.522   1.628  0.2227 -0.5418 -1.1297
  828SOL    HW212399   0.686   5.483   1.492 -1.3523  0.7110 -0.5639
  829SOL     OW12400   2.798   9.037   1.587  0.2332 -0.5167 -0.4220
  829SOL    HW112401   2.830   9.030   1.493  0.9496 -0.2135 -0.2000
  829SOL    HW212402   2.788   9.133   1.612  0.9424 -0.5789  0.1136
  830SOL     OW12403  10.050   5.815   1.633  0.4441 -0.6624  0.5779
  830SOL    HW112404  10.126   5.755   1.609 -0.1846 -2.0665  1.9666
  830SOL    HW212405   9.968   5.761   1.650 -0.3892  0.6673  0.9449
  831SOL     OW12406   2.170   5.854   0.203 -0.0249 -0.1153  0.1197
  831SOL    HW112407   2.204   5.873   0.111  2.3646 -2.8734  0.3475
  831SOL    HW212408   2.095   5.787   0.197 -0.4660  0.3791  0.1182
  832SOL     OW12409   2.722   3.675   1.300 -0.5908  0.0190  0.3620
  832SOL    HW112410   2.637   3.667   1.247  0.7260 -1.2394 -1.6380
  832SOL    HW212411   2.701   3.666   1.397 -2.8691  0.7574 -0.0090
  833SOL     OW12412   2.144   5.116   1.439 -0.2206  0.2208 -0.6416
  833SOL    HW112413   2.212   5.162   1.383 -0.8049  1.9474  0.0397
  833SOL    HW212414   2.188   5.079   1.521  0.3698 -1.0724 -1.5120
  834SOL     OW12415   4.934   1.666   2.184  0.4309 -0.2728  0.3342
  834SOL    HW112416   4.972   1.753   2.151 -0.6295  0.9185  2.1481
  834SOL    HW212417   4.948   1.658   2.282 -0.9004 -1.4004  0.4542
  835SOL     OW12418   4.186   9.549   0.124 -0.0775 -0.4888 -0.6609
  835SOL    HW112419   4.233   9.583   0.205 -2.0732 -0.8654  0.6714
  835SOL    HW212420   4.239   9.474   0.084  1.4610  0.4048 -0.3675
  836SOL     OW12421   2.355   5.206   1.267  0.8825  0.2125 -0.4317
  836SOL    HW112422   2.380   5.263   1.188  0.9981 -1.2957 -1.4931
  836SOL    HW212423   2.418   5.130   1.275  1.5337  0.9429  1.7956
  837SOL     OW12424   2.592   4.458   0.633 -0.2157 -0.6063 -0.3984
  837SOL    HW112425   2.689   4.439   0.617  0.1256 -0.0331  0.9376
  837SOL    HW212426   2.537   4.379   0.604  0.6547 -0.9776 -1.0505
  838SOL     OW12427   3.960   9.840   1.496  0.4050  0.0417  0.2498
  838SOL    HW112428   3.919   9.853   1.406 -1.4865  1.7126  1.3193
  838SOL    HW212429   3.925   9.755   1.536  0.7565 -0.3709 -0.3030
  839SOL     OW12430   1.342   6.632   0.770 -0.1923  0.4487  0.1126
  839SOL    HW112431   1.345   6.535   0.795  0.4128  0.0786 -1.3589
  839SOL    HW212432   1.262   6.674   0.812 -2.2885 -1.4328 -1.8033
  840SOL     OW12433   2.648   0.588   0.956  0.3447 -0.7083  0.0333
  840SOL    HW112434   2.631   0.510   1.016  1.3866 -1.4761 -0.6488
  840SOL    HW212435   2.697   0.557   0.875  3.2116  1.1006  1.0118
  841SOL     OW12436   4.281   9.895  -0.000  0.0072 -0.4451 -0.0728
  841SOL    HW112437   4.225   9.869   0.079 -1.6510 -0.0857 -1.1167
  841SOL    HW212438   4.232   9.962  -0.055  0.9139 -1.1216 -1.7296
  842SOL     OW12439   1.709   6.574   1.418  0.5591  0.3337  0.0143
  842SOL    HW112440   1.710   6.477   1.396 -2.9824  0.1529  0.3658
  842SOL    HW212441   1.730   6.627   1.335  0.4852 -0.6563 -0.6394
  843SOL     OW12442   3.538   6.120   1.990  0.2386  0.3524 -0.6471
  843SOL    HW112443   3.601   6.045   1.967 -0.1205  0.1797 -1.0842
  843SOL    HW212444   3.590   6.200   2.019  0.5681 -0.5952  1.4263
  844SOL     OW12445   2.397   5.423   1.044 -0.2841  1.0868 -0.0663
  844SOL    HW112446   2.306   5.460   1.064 -0.6127 -0.1861  0.8721
  844SOL    HW212447   2.399   5.387   0.951 -2.0153 -2.5202  1.1919
  845SOL     OW12448   2.765   2.430   0.054 -0.2315  0.6185 -0.3508
  845SOL    HW112449   2.753   2.512   0.110 -0.7683  0.9792 -0.9858
  845SOL    HW212450   2.769   2.350   0.113 -0.5150  1.0241  0.2261
  846SOL     OW12451   2.801   1.607   0.448 -0.1276 -0.2263  0.0926
  846SOL    HW112452   2.847   1.595   0.360  0.4964  0.6655  0.2900
  846SOL    HW212453   2.787   1.704   0.465  0.4443 -0.3533  1.3327
  847SOL     OW12454   2.874   0.253   0.611 -0.1603  0.0550  0.0894
  847SOL    HW112455   2.953   0.271   0.669 -0.9750  3.3336  0.3097
  847SOL    HW212456   2.905   0.229   0.519  1.0777  0.1333  0.4721
  848SOL     OW12457   5.256   3.199   0.760  0.7289 -0.3376  0.7786
  848SOL    HW112458   5.191   3.175   0.688  0.0585  1.4604  0.7691
  848SOL    HW212459   5.216   3.180   0.850  0.1560  0.7872  0.7735
  849SOL     OW12460   0.686   4.731   0.278  0.3513 -0.2150 -0.3101
  849SOL    HW112461   0.675   4.820   0.322  0.0924 -0.4342  0.0706
  849SOL    HW212462   0.755   4.738   0.205  1.1063  0.0524  0.4175
  850SOL     OW12463   9.881   5.645   0.942  0.4667 -0.3616 -0.3632
  850SOL    HW112464   9.878   5.641   0.842  1.3855  1.1435 -0.4571
  850SOL    HW212465   9.913   5.735   0.971  0.7914 -0.9956  1.2833
  851SOL     OW12466   4.291   2.140   0.882  0.8206  0.8873  0.2925
  851SOL    HW112467   4.214   2.149   0.819  0.6444 -0.2059  0.3417
  851SOL    HW212468   4.375   2.171   0.837  0.6126  0.5848 -0.3099
  852SOL     OW12469   3.834   0.665   2.351 -0.2018 -0.3829 -0.0710
  852SOL    HW112470   3.896   0.615   2.290  0.1162 -0.2115  0.1086
  852SOL    HW212471   3.828   0.760   2.321  1.4823  0.1890  1.2976
  853SOL     OW12472   1.528   4.217   1.395 -0.0845  0.7916  0.2468
  853SOL    HW112473   1.478   4.296   1.431  0.2693  0.5801  1.2403
  853SOL    HW212474   1.625   4.238   1.389  0.1214  0.2076  1.2358
  854SOL     OW12475   3.192   9.236   0.913 -0.0650 -0.2985 -0.7279
  854SOL    HW112476   3.178   9.165   0.844 -1.4954 -0.8152  0.0790
  854SOL    HW212477   3.111   9.294   0.920 -0.4469 -1.0257  1.3860
  855SOL     OW12478   4.810   3.856   1.162  0.1753 -0.0116 -0.6523
  855SOL    HW112479   4.863   3.823   1.084 -0.3843  1.1841 -1.5371
  855SOL    HW212480   4.873   3.884   1.235  0.7994  1.7240 -1.8272
  856SOL     OW12481   4.586   4.576  -0.003  0.5067 -0.0146  0.0465
  856SOL    HW112482   4.550   4.484   0.012 -3.3437  1.7437  2.2899
  856SOL    HW212483   4.631   4.580  -0.092  0.8814 -4.0628 -0.0398
  857SOL     OW12484   3.627   5.341   0.357  0.0286  0.3610 -0.2128
  857SOL    HW112485   3.679   5.339   0.442  0.0340  1.8032 -0.1725
  857SOL    HW212486   3.673   5.400   0.291 -0.1749 -0.4480 -1.0872
  858SOL     OW12487   3.661   4.056   0.516  0.3364 -0.2588  0.0375
  858SOL    HW112488   3.692   4.138   0.469  0.7444  1.1688  2.7107
  858SOL    HW212489   3.710   4.046   0.602 -1.0612 -2.2797  0.6423
  859SOL     OW12490   2.936   7.038   0.239  0.1319  0.1863  0.0080
  859SOL    HW112491   3.003   7.078   0.177  0.7928 -0.1663  0.4858
  859SOL    HW212492   2.844   7.066   0.212  0.3194 -0.8808 -1.8330
  860SOL     OW12493   1.114   6.105   1.448 -0.3965  0.0427  0.3733
  860SOL    HW112494   1.102   6.154   1.534  1.7222 -1.3366  1.5160
  860SOL    HW212495   1.064   6.018   1.452 -0.6462  0.1750  0.0610
  861SOL     OW12496   3.335   5.163   2.171  0.3776  0.1702  0.4762
  861SOL    HW112497   3.389   5.244   2.196  0.5680  0.6372 -1.3380
  861SOL    HW212498   3.373   5.082   2.215  1.0049  0.8706  1.2361
  862SOL     OW12499   1.931   6.944   1.784  0.1598  0.3407 -0.4920
  862SOL    HW112500   1.955   6.850   1.806 -0.2032  0.3176 -0.2049
  862SOL    HW212501   1.932   6.956   1.685  1.9509  0.4908 -0.4799
  863SOL     OW12502   9.902   5.191   2.488 -0.8082  0.1156 -0.2094
  863SOL    HW112503   9.947   5.200   2.577  1.2923 -0.6205 -1.1800
  863SOL    HW212504   9.908   5.096   2.457 -1.2610  0.4339 -1.2848
  864SOL     OW12505   3.110   2.928   1.983 -0.0997 -0.1322  0.0067
  864SOL    HW112506   3.015   2.919   1.951 -0.7238  1.6061  1.3234
  864SOL    HW212507   3.160   2.845   1.959 -2.1053 -1.3373 -0.1804
  865SOL     OW12508   3.244   1.985   0.109  0.2203 -0.2679  0.4980
  865SOL    HW112509   3.276   1.940   0.192  0.0974 -3.2876 -1.0145
  865SOL    HW212510   3.154   2.026   0.126  0.1799 -0.8843  1.8561
  866SOL     OW12511   1.260   3.938   2.209 -0.0633  0.2737 -0.4850
  866SOL    HW112512   1.360   3.949   2.211 -0.0006 -0.3672 -0.0797
  866SOL    HW212513   1.237   3.842   2.191 -0.6014  0.1864  0.6504
  867SOL     OW12514   2.441   2.870   2.316 -0.2077  0.5556 -0.0000
  867SOL    HW112515   2.379   2.793   2.332  2.1847 -2.0443 -2.6520
  867SOL    HW212516   2.536   2.839   2.323  0.8929  4.0517  2.1620
  868SOL     OW12517   2.226   2.723   1.930 -0.2146 -0.0195  0.7458
  868SOL    HW112518   2.189   2.760   1.845  2.5117 -0.0745 -0.5498
  868SOL    HW212519   2.237   2.796   1.997  3.6822  1.3651 -1.2548
  869SOL     OW12520   1.874   4.144   0.473 -0.2133  0.2816  0.6807
  869SOL    HW112521   1.820   4.212   0.423 -0.2800  0.2687  0.7346
  869SOL    HW212522   1.821   4.059   0.479  0.5112 -0.2897 -0.7915
  870SOL     OW12523   3.540   4.814   0.867  0.0138 -0.3937 -0.1592
  870SOL    HW112524   3.442   4.828   0.879  0.3842  1.7212  0.5452
  870SOL    HW212525   3.568   4.731   0.915 -1.1135  0.0229  1.2630
  871SOL     OW12526   4.016   9.556   1.300 -0.5040  0.5159 -0.8362
  871SOL    HW112527   4.108   9.589   1.319 -0.6354 -0.0094  0.7785
  871SOL    HW212528   3.968   9.539   1.386 -1.6926 -0.3696 -1.6556
  872SOL     OW12529   4.700   3.671   1.313 -0.1543  0.0772 -0.0222
  872SOL    HW112530   4.633   3.625   1.255 -0.5028  1.3331 -0.6447
  872SOL    HW212531   4.739   3.749   1.263  0.0150  0.7912  1.2033
  873SOL     OW12532   1.815   4.680   1.373 -0.1528 -0.2516 -0.2650
  873SOL    HW112533   1.789   4.690   1.277 -1.2304  1.0993  0.1517
  873SOL    HW212534   1.905   4.722   1.387 -1.3854  2.4425 -0.0641
  874SOL     OW12535   3.584   7.922   1.861 -0.0760  0.4742  0.2012
  874SOL    HW112536   3.595   7.832   1.820  0.7164  0.4321  0.4883
  874SOL    HW212537   3.507   7.920   1.926  0.9592 -0.4516  1.4346
  875SOL     OW12538   3.014   9.537   0.406 -0.3187  0.0733  0.5353
  875SOL    HW112539   3.113   9.548   0.415 -0.2749  1.1225 -1.0388
  875SOL    HW212540   2.979   9.488   0.486  1.3682  0.2592  1.4229
  876SOL     OW12541   3.770   2.920   2.379  0.1488 -0.7357  0.2930
  876SOL    HW112542   3.846   2.855   2.384  1.3426  0.5541 -0.4543
  876SOL    HW212543   3.804   3.012   2.399 -1.2178 -0.1373 -0.0856
  877SOL     OW12544   3.128   4.297   0.050 -0.1573  0.0604  0.1025
  877SOL    HW112545   3.077   4.225   0.096  0.4582 -1.0962 -0.9901
  877SOL    HW212546   3.191   4.340   0.114 -1.6602  0.7246  1.1658
  878SOL     OW12547   1.192   4.059   2.451  0.4983 -0.2183 -0.9800
  878SOL    HW112548   1.253   4.132   2.483  0.9283 -1.5529  1.3787
  878SOL    HW212549   1.219   4.032   2.358  1.1245  1.7391 -1.3928
  879SOL     OW12550   4.929   2.267   2.357  0.3083 -0.3916 -0.5684
  879SOL    HW112551   4.948   2.360   2.324  0.3454 -0.3982 -0.5646
  879SOL    HW212552   4.856   2.271   2.425  1.3294 -0.2011  0.5161
  880SOL     OW12553   9.794   6.010   1.540 -0.2117  0.5687 -0.2281
  880SOL    HW112554   9.752   5.923   1.565  0.7450 -0.0706 -0.8450
  880SOL    HW212555   9.837   6.002   1.451 -0.8277  1.9237 -0.6610
  881SOL     OW12556   3.159   0.605   1.528 -0.4835 -0.0968  0.5848
  881SOL    HW112557   3.257   0.622   1.542 -0.5309  0.5026  0.2181
  881SOL    HW212558   3.141   0.507   1.529  0.0656 -0.1929  1.0471
  882SOL     OW12559   3.256   9.878   0.716 -0.0558 -0.2302  0.3963
  882SOL    HW112560   3.264   9.785   0.682 -2.4288  0.0081 -0.9035
  882SOL    HW212561   3.176   9.885   0.775  1.0723  0.6042  1.8704
  883SOL     OW12562   3.582  10.208   0.840 -0.1200 -0.2631  0.1346
  883SOL    HW112563   3.595  10.229   0.937  0.3185 -0.0568  0.0304
  883SOL    HW212564   3.534  10.121   0.832  1.9713 -1.4837  0.5252
  884SOL     OW12565   1.636   7.558   2.403 -0.3375  0.2049 -0.1963
  884SOL    HW112566   1.632   7.601   2.493  2.7577  0.3566 -0.0710
  884SOL    HW212567   1.642   7.458   2.414  0.5820  0.2541 -0.1900
  885SOL     OW12568   4.393   1.722   2.282 -0.4412 -0.8000 -0.1440
  885SOL    HW112569   4.438   1.784   2.345 -1.8474  0.1255 -0.0244
  885SOL    HW212570   4.462   1.668   2.233  0.6829 -0.9007  1.5228
  886SOL     OW12571   4.396   3.512   0.247  0.2729 -0.2760  0.5064
  886SOL    HW112572   4.404   3.612   0.244 -0.9815 -0.0952  2.1148
  886SOL    HW212573   4.319   3.483   0.190  0.3094 -0.2658  0.4525
  887SOL     OW12574   3.319   6.952   0.046  0.2068  0.6891  0.0255
  887SOL    HW112575   3.244   6.887   0.044 -0.1948  1.0808  1.3922
  887SOL    HW212576   3.377   6.935   0.126  1.1008  0.9157 -0.5530
  888SOL     OW12577   2.545   5.124   2.433  0.4294 -0.0674 -0.2731
  888SOL    HW112578   2.549   5.034   2.389  0.1004 -0.2994  0.1596
  888SOL    HW212579   2.451   5.160   2.426 -0.0299 -0.8190  1.6126
  889SOL     OW12580   1.945   5.845   0.578 -0.4527 -0.2118  0.3096
  889SOL    HW112581   1.982   5.822   0.668 -0.9434  0.9879  0.8336
  889SOL    HW212582   1.930   5.762   0.525  0.6139 -0.8655  1.0348
  890SOL     OW12583   2.559   4.028   0.620  0.2124  0.0551 -0.1428
  890SOL    HW112584   2.610   4.043   0.705  0.1860 -0.9418  0.0550
  890SOL    HW212585   2.593   3.946   0.575 -2.0557 -1.3306  0.6213
  891SOL     OW12586   5.421   2.508   0.740 -0.4397 -0.0328  0.3841
  891SOL    HW112587   5.475   2.538   0.818 -0.6725  0.3359  0.4042
  891SOL    HW212588   5.454   2.554   0.657 -0.2136 -0.3994  0.2680
  892SOL     OW12589   2.413   4.660   0.990 -0.3869 -0.3787 -0.0652
  892SOL    HW112590   2.346   4.588   0.974  0.2161 -0.6798 -1.2470
  892SOL    HW212591   2.506   4.623   0.981 -0.0689  0.4821 -0.4296
  893SOL     OW12592   3.179   7.680   0.209  0.0414  0.2327  0.1139
  893SOL    HW112593   3.103   7.645   0.154  0.1155 -0.1789  0.2737
  893SOL    HW212594   3.152   7.766   0.252 -0.7086 -0.4794  1.0594
  894SOL     OW12595   5.201   2.089   2.039  0.1084  0.0360 -0.2343
  894SOL    HW112596   5.252   2.174   2.025  0.3100 -0.1227 -0.4754
  894SOL    HW212597   5.255   2.012   2.004  0.0987 -0.2368  0.3450
  895SOL     OW12598   4.735   1.743   1.784  0.2652 -0.8420 -0.1698
  895SOL    HW112599   4.691   1.818   1.833  2.3673  1.0648 -1.0748
  895SOL    HW212600   4.739   1.764   1.687  3.3385 -0.7851 -0.0900
  896SOL     OW12601   3.375   6.650   1.749  0.1014 -0.3533 -0.0680
  896SOL    HW112602   3.440   6.720   1.777 -0.3144  0.0772 -0.1685
  896SOL    HW212603   3.414   6.595   1.675  0.8218 -0.8774  0.6851
  897SOL     OW12604   2.193   7.439   0.548 -0.5166  0.4328  0.6324
  897SOL    HW112605   2.276   7.429   0.493 -0.1267  1.4052  1.0291
  897SOL    HW212606   2.115   7.402   0.497  0.0273  0.2633 -0.0902
  898SOL     OW12607   1.301   6.272   0.763 -0.0938 -0.3997  0.0433
  898SOL    HW112608   1.268   6.232   0.849  1.0447 -1.2720  0.0791
  898SOL    HW212609   1.250   6.232   0.686 -0.7702  0.0170  0.2719
  899SOL     OW12610   1.572   6.866   0.527  0.3435 -0.3885  0.5417
  899SOL    HW112611   1.590   6.934   0.455  0.1118  0.3712  1.1877
  899SOL    HW212612   1.658   6.842   0.572  0.2866  0.2792  1.0154
  900SOL     OW12613   3.890   1.159   0.652  0.3875  0.2579  0.1765
  900SOL    HW112614   3.973   1.196   0.611  0.1512  1.2829  0.5929
  900SOL    HW212615   3.826   1.234   0.670 -1.5203 -0.7459 -2.1300
  901SOL     OW12616   4.689   2.583   1.548  0.1230 -0.7800 -1.0008
  901SOL    HW112617   4.601   2.628   1.566  1.3119  1.5021 -0.7841
  901SOL    HW212618   4.702   2.574   1.450 -0.8009 -2.0551 -1.0175
  902SOL     OW12619   4.210   4.116   0.770  0.1640  1.1711  0.0829
  902SOL    HW112620   4.291   4.085   0.821  0.5802  0.6295 -0.9012
  902SOL    HW212621   4.153   4.171   0.830 -1.7888 -3.3619  2.6688
  903SOL     OW12622   1.105   4.276   0.224  0.5646  0.2340  0.0211
  903SOL    HW112623   1.106   4.227   0.311 -1.0452  1.0362  0.5101
  903SOL    HW212624   1.164   4.229   0.158  1.9419 -0.2755  1.5853
  904SOL     OW12625   1.483   5.740   0.803 -0.2776  0.0566 -1.0245
  904SOL    HW112626   1.515   5.809   0.739  1.0918  0.7224  0.3753
  904SOL    HW212627   1.405   5.776   0.855  0.2650  0.4372 -0.4830
  905SOL     OW12628   9.921   4.371   1.163 -0.0418  0.3506  0.4334
  905SOL    HW112629   9.848   4.310   1.193 -1.2049  1.4261 -0.1597
  905SOL    HW212630   9.954   4.342   1.073  0.0982  0.0014  0.5980
  906SOL     OW12631   2.721   1.769   2.421 -0.0192 -0.1537  0.4755
  906SOL    HW112632   2.634   1.803   2.384  0.2836 -0.6194 -0.6951
  906SOL    HW212633   2.723   1.669   2.414  0.6091 -0.1444  0.5063
  907SOL     OW12634   4.959   2.672   1.394 -0.3937  0.3328  0.1997
  907SOL    HW112635   4.887   2.708   1.336  0.5324  0.4030 -0.9184
  907SOL    HW212636   4.995   2.745   1.452 -0.7156  0.4601  0.2390
  908SOL     OW12637   2.855   2.405   2.414  0.7826 -0.3791 -0.3799
  908SOL    HW112638   2.814   2.401   2.505  0.9834 -0.0593 -0.2706
  908SOL    HW212639   2.851   2.315   2.371  1.3526 -0.7049  0.2402
  909SOL     OW12640   4.007   8.767   1.071  0.4213  0.4379  0.0176
  909SOL    HW112641   3.954   8.841   1.112  0.6460  0.7943 -0.3344
  909SOL    HW212642   4.037   8.794   0.980  1.5333  0.3829  0.3671
  910SOL     OW12643   2.693   8.854   2.375  0.2039  0.5347 -0.8590
  910SOL    HW112644   2.594   8.854   2.363  0.4587 -1.9248 -3.2471
  910SOL    HW212645   2.716   8.809   2.460 -0.6469 -0.5886 -1.2125
  911SOL     OW12646   4.501   2.143   0.588 -0.0157  0.1738 -0.0599
  911SOL    HW112647   4.523   2.049   0.614 -5.0096 -1.3487 -0.7277
  911SOL    HW212648   4.499   2.201   0.669 -0.7848 -1.1964  0.9199
  912SOL     OW12649   0.817   5.389   0.713  0.6354 -0.1779  0.4653
  912SOL    HW112650   0.839   5.453   0.640  0.5193 -0.3121  0.3142
  912SOL    HW212651   0.727   5.349   0.698  0.2416  0.4444  1.1397
  913SOL     OW12652   0.462   4.198   1.299 -0.1388 -0.1098  0.0297
  913SOL    HW112653   0.561   4.210   1.289  0.0058 -0.6042  0.8129
  913SOL    HW212654   0.438   4.194   1.396 -0.9477  0.1402 -0.1542
  914SOL     OW12655   3.084   5.711   1.189 -0.3223  0.0733  0.2884
  914SOL    HW112656   3.129   5.774   1.126  0.3516  0.3246  1.0124
  914SOL    HW212657   2.998   5.680   1.150 -0.6213  1.3816 -0.1011
  915SOL     OW12658   1.555   6.219   0.669 -0.2272 -0.0302 -0.0531
  915SOL    HW112659   1.610   6.254   0.744 -0.7361 -0.4130  0.5065
  915SOL    HW212660   1.463   6.258   0.674 -0.6592 -1.0803  0.3033
  916SOL     OW12661   3.776   9.876   1.252  0.3363 -0.2082 -0.3406
  916SOL    HW112662   3.681   9.881   1.284  0.3214  2.2741 -0.6700
  916SOL    HW212663   3.782   9.813   1.175 -1.1289 -0.0326 -0.6103
  917SOL     OW12664   3.071   1.034   1.190  0.4765 -0.9316  0.0144
  917SOL    HW112665   3.007   1.028   1.267 -1.2713 -0.6091 -1.3692
  917SOL    HW212666   3.160   0.997   1.217 -0.3656 -1.6336  1.9065
  918SOL     OW12667  10.029   5.839   1.031 -0.0356  0.1542 -0.1113
  918SOL    HW112668  10.016   5.928   1.076  0.4702 -0.2782  0.9098
  918SOL    HW212669  10.107   5.844   0.968  0.5921  0.1766  0.6596
  919SOL     OW12670   3.427   2.395   1.547 -0.6412 -0.1417  0.2218
  919SOL    HW112671   3.512   2.365   1.591 -0.5788  1.2707  1.0967
  919SOL    HW212672   3.440   2.396   1.448  0.6556  0.8633  0.3816
  920SOL     OW12673   0.792   4.187   1.530 -0.4398 -0.4395  0.5653
  920SOL    HW112674   0.841   4.153   1.450 -1.1177  3.3094 -1.5620
  920SOL    HW212675   0.857   4.203   1.604  0.8068 -0.3926 -0.5131
  921SOL     OW12676   3.669   1.215   1.895  0.3801  0.6995  0.0903
  921SOL    HW112677   3.717   1.131   1.872  0.0003  0.9236 -1.5941
  921SOL    HW212678   3.735   1.284   1.925  0.9018  0.4042 -0.3747
  922SOL     OW12679   1.687   6.380   1.036 -0.2553 -0.0177  0.1228
  922SOL    HW112680   1.782   6.375   1.004 -0.3674 -0.5786 -0.1307
  922SOL    HW212681   1.649   6.470   1.015 -0.0417 -0.0767 -0.5338
  923SOL     OW12682   5.069   3.367   1.596 -0.0498 -0.6919 -0.3356
  923SOL    HW112683   5.116   3.422   1.527  0.7736 -0.2482  0.5743
  923SOL    HW212684   5.087   3.270   1.578  0.1445 -0.5805 -0.7604
  924SOL     OW12685   2.139   4.812   1.662  0.7564 -0.8014  0.3616
  924SOL    HW112686   2.159   4.724   1.704 -0.5722 -1.1427  0.3173
  924SOL    HW212687   2.042   4.834   1.675  1.0825  0.6652  0.3907
  925SOL     OW12688   2.212   3.574   0.550 -0.1378 -0.3280  0.1225
  925SOL    HW112689   2.240   3.598   0.457  1.0236 -0.7042  0.3595
  925SOL    HW212690   2.115   3.593   0.561 -0.0304  0.8942 -0.7884
  926SOL     OW12691   4.059   5.114   0.202  0.4462 -0.3445 -0.2155
  926SOL    HW112692   4.006   5.137   0.120  1.2273 -2.1300 -1.2434
  926SOL    HW212693   4.005   5.137   0.283 -1.3561 -0.8771 -1.2310
  927SOL     OW12694   1.677   6.120   0.135  0.1145  0.1291  0.2148
  927SOL    HW112695   1.773   6.109   0.110 -0.4736  0.2374 -2.1609
  927SOL    HW212696   1.659   6.216   0.158  0.1943  0.4483 -1.0367
  928SOL     OW12697   2.330   3.341   2.424 -0.2169 -0.4605  0.1028
  928SOL    HW112698   2.377   3.257   2.397  1.7016  0.9077 -0.9101
  928SOL    HW212699   2.396   3.407   2.460 -1.2116  1.7122 -1.8688
  929SOL     OW12700   1.186   6.102   0.585 -0.6395 -0.1388 -0.2454
  929SOL    HW112701   1.116   6.037   0.556 -0.3203 -0.8524  0.6028
  929SOL    HW212702   1.220   6.152   0.505 -3.6969  1.7962 -0.4095
  930SOL     OW12703   2.267   6.684   1.061 -0.1802  0.0565  0.1691
  930SOL    HW112704   2.343   6.626   1.089  0.3243  1.6563  2.2618
  930SOL    HW212705   2.297   6.744   0.987 -0.3269 -1.4042 -1.1001
  931SOL     OW12706  10.045   6.187   1.055 -0.8343 -0.0288  0.0431
  931SOL    HW112707   9.977   6.257   1.034 -0.4531 -0.1560 -1.7083
  931SOL    HW212708  10.118   6.190   0.987  0.7325 -0.1456  1.6766
  932SOL     OW12709   2.707   0.393   1.158  0.4948 -0.4793  0.2799
  932SOL    HW112710   2.648   0.313   1.164  0.9748 -0.8872 -0.5109
  932SOL    HW212711   2.786   0.381   1.219  0.2069 -0.2966  0.6953
  933SOL     OW12712   3.275   6.170   0.553  0.2084  0.3800  0.7564
  933SOL    HW112713   3.233   6.257   0.578  0.4981  0.0822  2.3708
  933SOL    HW212714   3.204   6.102   0.533 -0.0260  0.7964  0.1720
  934SOL     OW12715   2.811   4.924   1.964  0.0455 -0.1079  0.0723
  934SOL    HW112716   2.740   4.985   1.998 -0.1063  0.5758 -1.3903
  934SOL    HW212717   2.891   4.928   2.024 -1.1935 -0.9876  1.7893
  935SOL     OW12718   3.428   3.001   1.849  0.6543  0.1665 -0.0258
  935SOL    HW112719   3.347   3.004   1.790  1.1197  0.2747 -0.6704
  935SOL    HW212720   3.501   2.951   1.801  1.2384  0.7922  0.2070
  936SOL     OW12721   3.328   5.976   2.058  0.1216  0.0858  0.3740
  936SOL    HW112722   3.330   5.907   2.130 -0.9333 -0.7334 -0.3591
  936SOL    HW212723   3.416   6.023   2.054  0.6761 -0.8703  1.2308
  937SOL     OW12724   0.322   4.312   1.105  0.5370 -0.4673  0.1058
  937SOL    HW112725   0.274   4.229   1.075  1.2489 -0.6266 -0.6364
  937SOL    HW212726   0.382   4.289   1.182  2.5416 -1.1977 -1.6133
  938SOL     OW12727   2.551   5.775   0.095  0.2201  0.3116 -0.3994
  938SOL    HW112728   2.646   5.806   0.106  0.8897 -1.1205 -1.9973
  938SOL    HW212729   2.521   5.790   0.001 -0.8687  0.0028 -0.1112
  939SOL     OW12730   1.203   5.585   1.680  0.0393 -0.6030 -0.2399
  939SOL    HW112731   1.267   5.655   1.713 -1.5110  0.4206  0.6298
  939SOL    HW212732   1.252   5.498   1.671  2.5293  1.0191 -3.3747
  940SOL     OW12733   1.940   5.768   2.249  0.2484  0.2438  0.3009
  940SOL    HW112734   2.019   5.821   2.220  0.3023  0.4401  0.7969
  940SOL    HW212735   1.959   5.671   2.240 -0.1675  0.3037 -1.4598
  941SOL     OW12736   3.604   9.203   2.025 -0.6293 -0.6236 -0.4198
  941SOL    HW112737   3.660   9.273   1.981  0.1971 -1.1802 -0.2725
  941SOL    HW212738   3.661   9.123   2.045 -1.0399 -0.4922  1.3926
  942SOL     OW12739   9.970   4.291   1.974 -0.0685  0.2445  0.0083
  942SOL    HW112740   9.916   4.267   2.055  1.2815 -0.6963  0.6351
  942SOL    HW212741   9.936   4.240   1.895 -2.2065  2.0870 -0.3414
  943SOL     OW12742   2.593   5.515   0.691 -0.2862 -0.2185 -0.5824
  943SOL    HW112743   2.632   5.503   0.600  1.1282 -1.4709  0.1495
  943SOL    HW212744   2.525   5.445   0.709 -0.7661  0.1971 -0.7809
  944SOL     OW12745   4.245   9.366   2.179  0.5707 -0.0256 -0.1864
  944SOL    HW112746   4.219   9.445   2.234 -0.0766  0.5695 -1.3226
  944SOL    HW212747   4.324   9.321   2.220  0.7369  1.0173  0.6547
  945SOL     OW12748   2.874   4.648   0.878  0.4133 -0.0261 -0.3671
  945SOL    HW112749   2.940   4.574   0.868  1.8041  1.2007 -0.4705
  945SOL    HW212750   2.876   4.706   0.796 -2.4650 -1.2878 -1.3713
  946SOL     OW12751   4.531   2.437   2.385  0.1922 -0.1886  0.1559
  946SOL    HW112752   4.472   2.393   2.317  0.2201  1.7606 -1.1913
  946SOL    HW212753   4.626   2.410   2.369  0.1568  0.0024 -0.4102
  947SOL     OW12754   1.899   5.959   2.435 -0.1058 -0.3153 -0.1545
  947SOL    HW112755   1.930   5.903   2.358 -1.7392 -1.5076  0.0378
  947SOL    HW212756   1.820   5.915   2.479  0.4688  0.6209  1.8679
  948SOL     OW12757   3.823   5.725   2.581 -0.2689  0.5450  0.0192
  948SOL    HW112758   3.746   5.696   2.637 -0.3369  0.4132 -0.1433
  948SOL    HW212759   3.890   5.772   2.639  0.0453 -0.3168  0.3691
  949SOL     OW12760   0.360   4.901   0.252  0.8655 -0.0354 -0.1366
  949SOL    HW112761   0.427   4.886   0.324 -0.3396  0.2335  1.0613
  949SOL    HW212762   0.369   4.830   0.182 -0.7088 -2.7786  2.3681
  950SOL     OW12763   0.831   5.245   1.323 -0.6356 -0.6211 -0.2217
  950SOL    HW112764   0.774   5.214   1.398 -1.1085 -0.1591 -0.3908
  950SOL    HW212765   0.863   5.338   1.341 -0.6799 -0.5404 -0.5541
  951SOL     OW12766   4.310   0.791   1.103 -0.0716  0.7066 -0.0152
  951SOL    HW112767   4.330   0.738   1.185  4.7554  2.8561  0.3529
  951SOL    HW212768   4.258   0.873   1.129 -0.2866  0.3804  0.6044
  952SOL     OW12769   4.039   9.289  -0.037 -0.8159 -0.7264 -0.3156
  952SOL    HW112770   4.048   9.356  -0.110 -1.2701 -1.2123 -0.8199
  952SOL    HW212771   4.122   9.290   0.020 -0.8499  0.3103 -0.2682
  953SOL     OW12772   4.106   5.554   0.160  0.2252  0.6920  0.0161
  953SOL    HW112773   4.201   5.523   0.164  0.0628  0.2255  0.3535
  953SOL    HW212774   4.053   5.492   0.103  0.5618  2.1454 -1.9342
  954SOL     OW12775   2.651   5.715   2.364  0.3729 -0.6830 -0.2602
  954SOL    HW112776   2.643   5.814   2.372  1.0647 -0.7486  1.4888
  954SOL    HW212777   2.742   5.686   2.394 -0.7290 -2.1102  1.8375
  955SOL     OW12778   4.600   1.277   1.837 -0.2942 -0.1264  0.1502
  955SOL    HW112779   4.661   1.220   1.893 -0.5296 -0.4196  0.1065
  955SOL    HW212780   4.507   1.239   1.840 -0.5701  0.5757  0.5834
  956SOL     OW12781   9.856   4.996   0.940  0.0495  1.0055 -0.4912
  956SOL    HW112782   9.837   4.898   0.945 -1.1513  1.3012  0.9592
  956SOL    HW212783   9.947   5.014   0.978  0.5162  0.3947 -1.2915
  957SOL     OW12784   2.407   6.818   0.874  0.4100 -0.0708  0.0679
  957SOL    HW112785   2.349   6.857   0.802  3.3276  2.5406 -0.9962
  957SOL    HW212786   2.491   6.781   0.832  2.3582  1.9042  2.1457
  958SOL     OW12787   1.560   3.979   0.130  0.0629  0.6460  0.2743
  958SOL    HW112788   1.544   4.028   0.044 -1.7623 -0.5575 -0.0920
  958SOL    HW212789   1.648   3.931   0.124  0.0451  0.7309 -0.8491
  959SOL     OW12790   1.399   4.446   1.524  0.1269  0.3426  0.3097
  959SOL    HW112791   1.326   4.485   1.580  0.5155  0.9796  0.3785
  959SOL    HW212792   1.440   4.518   1.467  0.6091 -0.0341  0.1746
  960SOL     OW12793   2.301   5.430   2.273 -0.0505 -0.4391  0.0308
  960SOL    HW112794   2.339   5.462   2.359 -2.0316  0.3228  0.6506
  960SOL    HW212795   2.248   5.347   2.288 -3.1694  1.4748  0.2100
  961SOL     OW12796   1.519   3.420   1.183  0.7054  0.2027 -0.1938
  961SOL    HW112797   1.614   3.404   1.155  0.6851 -1.5777  0.7051
  961SOL    HW212798   1.516   3.495   1.248  1.6804 -0.5845  0.7873
  962SOL     OW12799   3.973   0.796   1.896 -0.3442  0.1661  0.2961
  962SOL    HW112800   3.951   0.893   1.881  0.8796  0.3808 -0.1498
  962SOL    HW212801   4.071   0.786   1.907 -0.4405 -1.0707  0.0469
  963SOL     OW12802   1.950   6.134   0.703  0.1899 -0.4053  0.3425
  963SOL    HW112803   1.971   6.136   0.605  0.2555 -2.1885  0.3175
  963SOL    HW212804   1.903   6.218   0.728 -0.0889 -0.0621 -1.2765
  964SOL     OW12805   3.638   1.810   1.357  0.5317 -0.4492 -0.0223
  964SOL    HW112806   3.630   1.806   1.457  0.9842  0.5341  0.0537
  964SOL    HW212807   3.730   1.838   1.332  0.9994 -2.5740 -0.7548
  965SOL     OW12808   2.488   3.360   0.826 -0.6274 -0.1682  0.1253
  965SOL    HW112809   2.453   3.340   0.735 -0.8064  0.4374  0.0590
  965SOL    HW212810   2.501   3.459   0.836 -0.4916 -0.2427  0.7118
  966SOL     OW12811   3.519   6.110   0.729 -0.4500 -0.4594 -0.1593
  966SOL    HW112812   3.574   6.188   0.697  1.2354 -1.5909 -0.1015
  966SOL    HW212813   3.437   6.102   0.673  0.3173  0.2192 -1.4191
  967SOL     OW12814   9.255   5.089   0.076 -0.4293  0.5118 -0.4319
  967SOL    HW112815   9.322   5.143   0.024  0.0555  0.3805  0.0517
  967SOL    HW212816   9.227   5.141   0.158 -0.2211  0.1754 -0.1468
  968SOL     OW12817   1.711   6.038   1.718 -0.9223  0.0379 -0.3095
  968SOL    HW112818   1.778   6.112   1.713 -1.2278  0.2471 -1.4587
  968SOL    HW212819   1.729   5.982   1.799  0.7601 -0.0133 -0.7018
  969SOL     OW12820   0.492   4.504   0.937  0.6261 -0.4424  0.0427
  969SOL    HW112821   0.542   4.581   0.976 -0.7435  1.8280 -2.4640
  969SOL    HW212822   0.417   4.478   0.999  0.7747  0.6124  0.6756
  970SOL     OW12823   4.285   4.723   1.675  0.4614 -0.6319  0.2238
  970SOL    HW112824   4.253   4.817   1.661  0.2547 -0.3259  2.5558
  970SOL    HW212825   4.242   4.663   1.607 -2.7922  0.2492  1.4101
  971SOL     OW12826   3.102   3.521   0.981 -0.3059 -0.0284  0.3077
  971SOL    HW112827   3.183   3.528   1.039  0.0250 -0.7994 -0.0536
  971SOL    HW212828   3.021   3.551   1.032  0.3029  1.4139  0.4461
  972SOL     OW12829   2.868   2.434   0.357 -0.2155 -0.2872 -0.1995
  972SOL    HW112830   2.898   2.512   0.413  0.3897 -1.0192  0.5085
  972SOL    HW212831   2.790   2.390   0.400  0.4381 -1.0348  0.2419
  973SOL     OW12832   2.720   6.704  -0.026 -0.1590  0.1704 -0.3813
  973SOL    HW112833   2.731   6.803  -0.027  0.6251  0.0907 -0.0488
  973SOL    HW212834   2.672   6.676   0.057  0.0289  0.2295 -0.2537
  974SOL     OW12835   2.417   7.274   0.914 -0.1251  0.1705 -0.0340
  974SOL    HW112836   2.384   7.215   0.988  0.3262 -2.9297 -2.1681
  974SOL    HW212837   2.517   7.274   0.914 -0.1152 -0.3913 -1.0000
  975SOL     OW12838   2.252   2.912   2.119  1.1143  0.1037 -0.4233
  975SOL    HW112839   2.305   2.883   2.199  1.1620 -2.3336 -1.2737
  975SOL    HW212840   2.176   2.970   2.148 -0.0122 -2.2867  1.6429
  976SOL     OW12841   2.976   2.065   0.097 -0.2336  0.3729  0.4371
  976SOL    HW112842   2.905   2.114   0.147  0.0355  0.6253  0.5729
  976SOL    HW212843   2.996   2.113   0.012 -2.1970 -1.1808 -0.9702
  977SOL     OW12844   1.416   4.116   0.337 -0.1684  0.9620 -0.2514
  977SOL    HW112845   1.355   4.059   0.391  0.9301 -0.0760 -0.0882
  977SOL    HW212846   1.488   4.060   0.297  0.0452  1.9953 -1.3616
  978SOL     OW12847   4.679   3.273   1.512  0.3004  0.4823 -0.3432
  978SOL    HW112848   4.707   3.353   1.565 -0.9951  0.4576  0.3825
  978SOL    HW212849   4.666   3.300   1.416 -0.3369  1.1738 -0.0577
  979SOL     OW12850   2.199   7.098   0.253  0.1195 -0.2742  0.0126
  979SOL    HW112851   2.240   7.084   0.343 -1.0708 -0.2576  0.5713
  979SOL    HW212852   2.105   7.065   0.253 -1.0678  2.8514 -0.1512
  980SOL     OW12853   3.197   0.845   1.333 -0.2692 -0.0232  0.1850
  980SOL    HW112854   3.283   0.878   1.373  0.9806 -1.1593 -1.4314
  980SOL    HW212855   3.162   0.768   1.386 -0.2852  0.4503  0.8575
  981SOL     OW12856   3.874   9.869   0.164 -0.2278 -0.3411  0.3914
  981SOL    HW112857   3.850   9.923   0.084  0.6558 -0.1108  0.2793
  981SOL    HW212858   3.891   9.775   0.137 -2.5171 -0.8707  0.6950
  982SOL     OW12859   2.968   5.595   1.753 -0.4155  0.4389 -0.6714
  982SOL    HW112860   2.940   5.530   1.682 -0.8492 -0.8278  0.6252
  982SOL    HW212861   2.889   5.621   1.808  0.2780 -0.2814  0.6928
  983SOL     OW12862   0.905   5.326   0.979 -0.0226  0.3931 -0.0583
  983SOL    HW112863   0.829   5.302   1.039  0.0395  0.6822  0.1367
  983SOL    HW212864   0.870   5.354   0.890 -0.2561  2.5284  0.6881
  984SOL     OW12865   0.900   6.322   2.363 -0.0348  0.1060  0.1774
  984SOL    HW112866   0.878   6.418   2.347  0.5208  0.3416  0.8008
  984SOL    HW212867   0.839   6.284   2.433 -0.1699  0.0320  0.0222
  985SOL     OW12868   9.454   4.740   0.648  0.0073  0.1024 -0.7336
  985SOL    HW112869   9.382   4.805   0.626 -1.1860 -1.2438 -0.8798
  985SOL    HW212870   9.535   4.789   0.681 -0.5399  1.6990 -1.7288
  986SOL     OW12871   3.360   2.648   1.274 -0.1700  0.6549 -0.1693
  986SOL    HW112872   3.426   2.579   1.244 -1.8529 -0.0080 -2.4658
  986SOL    HW212873   3.380   2.735   1.229  0.0932  0.8837  0.3809
  987SOL     OW12874   2.839   0.515   0.730  0.3710  0.9006 -0.5160
  987SOL    HW112875   2.806   0.557   0.646 -0.3603 -0.1464 -0.7670
  987SOL    HW212876   2.840   0.415   0.719  2.5584  0.8541 -0.1245
  988SOL     OW12877   3.523   0.719   1.182 -0.8556 -0.2697 -0.3653
  988SOL    HW112878   3.544   0.681   1.272 -2.8939  0.4614  0.4482
  988SOL    HW212879   3.498   0.646   1.119  0.3786 -0.7648 -0.2830
  989SOL     OW12880   2.910   7.037   0.523  0.1944 -0.2843 -0.1543
  989SOL    HW112881   2.946   7.120   0.565  0.0687 -0.0672 -0.4692
  989SOL    HW212882   2.945   7.029   0.429  0.1502 -0.5480 -0.1485
  990SOL     OW12883   2.798   5.413   1.615  0.6071  0.2176 -0.0439
  990SOL    HW112884   2.769   5.463   1.697  2.3996  0.0580  0.7093
  990SOL    HW212885   2.733   5.430   1.541 -1.1300  0.2292  1.4540
  991SOL     OW12886   3.231   3.704   1.404  0.2390 -0.3185  0.2085
  991SOL    HW112887   3.184   3.757   1.475  1.7825  0.7993  0.4495
  991SOL    HW212888   3.257   3.765   1.329 -0.3033 -1.2619 -0.7586
  992SOL     OW12889   5.243   2.584   1.648  0.5051  0.0584 -0.6136
  992SOL    HW112890   5.217   2.541   1.734  0.1342  1.0475 -0.2197
  992SOL    HW212891   5.195   2.540   1.572  0.4164 -0.4578 -0.2605
  993SOL     OW12892   4.253   3.351   1.839 -0.2128  0.2554 -0.0121
  993SOL    HW112893   4.162   3.311   1.830  0.0704 -0.2494 -0.6994
  993SOL    HW212894   4.292   3.327   1.928 -0.7189  0.4092  0.2517
  994SOL     OW12895   1.649   7.138   2.304  0.2096  0.0748  0.1306
  994SOL    HW112896   1.693   7.122   2.215  0.7926 -0.5575  0.5280
  994SOL    HW212897   1.610   7.053   2.338 -0.2032  0.3622  0.3880
  995SOL     OW12898   2.746   2.036   1.432 -0.0788 -0.1275 -0.3877
  995SOL    HW112899   2.830   1.994   1.468  0.2226  0.2560 -0.6452
  995SOL    HW212900   2.725   1.996   1.343 -1.1912 -1.5572  0.5019
  996SOL     OW12901   0.425   4.606   0.166 -0.1218 -0.6609 -0.5691
  996SOL    HW112902   0.524   4.607   0.181 -0.2163 -0.4032  0.0486
  996SOL    HW212903   0.392   4.512   0.170 -0.0586 -0.6521  0.2826
  997SOL     OW12904   2.555   2.583   2.037  0.4335 -0.6556  0.1054
  997SOL    HW112905   2.653   2.599   2.040  0.2394  0.6648 -0.1004
  997SOL    HW212906   2.516   2.629   1.957 -0.2839 -1.5488 -0.0665
  998SOL     OW12907   9.773   4.140   1.234  0.1885  0.1543 -0.1098
  998SOL    HW112908   9.859   4.088   1.232  0.3954  0.3075  2.5890
  998SOL    HW212909   9.702   4.090   1.186  1.5033 -0.4922 -1.4316
  999SOL     OW12910   2.128   3.607   1.603  0.2684  0.1673  0.2414
  999SOL    HW112911   2.037   3.571   1.625  0.2711 -0.4751 -0.7891
  999SOL    HW212912   2.143   3.601   1.505  0.4673  2.5225  0.1114
 1000SOL     OW12913   0.685   5.784   0.177 -0.1693 -0.5539  0.5679
 1000SOL    HW112914   0.620   5.710   0.165  1.0882 -1.5726 -0.0764
 1000SOL    HW212915   0.778   5.751   0.157  0.2329  1.5903 -1.3260
 1001SOL     OW12916   3.420   8.995   2.355  0.8462 -0.7876 -0.3136
 1001SOL    HW112917   3.501   8.937   2.357  1.2352 -0.2240  0.3518
 1001SOL    HW212918   3.416   9.050   2.438  0.5869  0.2997 -1.0343
 1002SOL     OW12919   2.017   3.540   2.257 -0.2517 -0.5769 -0.6835
 1002SOL    HW112920   1.978   3.459   2.215 -1.7045 -0.2831  0.0571
 1002SOL    HW212921   1.946   3.611   2.264  0.9630  0.6978 -1.2061
 1003SOL     OW12922   4.294   4.414   0.445 -0.5159  0.6450 -0.2281
 1003SOL    HW112923   4.377   4.446   0.491 -0.0306 -0.5057 -0.2892
 1003SOL    HW212924   4.305   4.422   0.346 -0.6923  0.9984 -0.2210
 1004SOL     OW12925   0.959   4.999   0.262 -0.2195 -0.2317 -0.0671
 1004SOL    HW112926   0.987   5.046   0.346  1.2116  1.5371 -1.4940
 1004SOL    HW212927   0.868   5.029   0.236 -0.1493  0.1740  0.1547
 1005SOL     OW12928   9.605   5.290   1.729  0.4957  0.0815 -0.0239
 1005SOL    HW112929   9.554   5.224   1.673 -1.1687  0.2628  1.2347
 1005SOL    HW212930   9.654   5.242   1.801 -0.2860  0.1819  0.5699
 1006SOL     OW12931   2.682   4.476   0.333  0.3199 -0.4966 -0.2635
 1006SOL    HW112932   2.613   4.404   0.329  1.2390 -1.4583  1.1675
 1006SOL    HW212933   2.737   4.474   0.249 -0.4275 -0.6629 -0.7569
 1007SOL     OW12934   4.560   3.453   0.945  0.7923 -0.1584 -0.3923
 1007SOL    HW112935   4.495   3.455   0.870  0.3439 -1.5970 -0.0740
 1007SOL    HW212936   4.551   3.536   1.000 -2.6728 -1.4921  1.2050
 1008SOL     OW12937   2.902   3.506   1.682  0.6478  0.0399  0.1820
 1008SOL    HW112938   2.962   3.502   1.761 -1.3729  0.2725  1.7560
 1008SOL    HW212939   2.892   3.600   1.651 -0.9236  0.3391  1.5301
 1009SOL     OW12940   4.273   1.921   1.840 -0.1349  0.4860 -0.1302
 1009SOL    HW112941   4.210   1.979   1.786  2.9307  1.5311 -2.7637
 1009SOL    HW212942   4.302   1.844   1.784 -0.3391 -0.9003  1.6591
 1010SOL     OW12943   2.749   7.840   1.743 -0.8582  0.0951  0.1057
 1010SOL    HW112944   2.758   7.760   1.803 -2.2527 -1.5751 -1.8337
 1010SOL    HW212945   2.757   7.924   1.797  1.5687 -1.3365  2.0523
 1011SOL     OW12946   3.775   5.416   1.880  0.1834  0.4284 -0.2527
 1011SOL    HW112947   3.872   5.389   1.883 -0.0655 -0.3849  3.0514
 1011SOL    HW212948   3.719   5.337   1.855  0.2397  0.4479 -0.4393
 1012SOL     OW12949   2.918   3.272   1.547 -0.3547  0.0287 -0.2062
 1012SOL    HW112950   2.933   3.356   1.598  0.4222 -0.0359 -0.3097
 1012SOL    HW212951   2.955   3.282   1.455 -1.1099 -0.1003 -0.5238
 1013SOL     OW12952   4.414   4.564   1.334  0.3471  0.2985 -0.0338
 1013SOL    HW112953   4.371   4.540   1.247 -0.2203 -0.9451  0.5750
 1013SOL    HW212954   4.465   4.650   1.324 -1.8608  1.5577 -0.9050
 1014SOL     OW12955   1.501   5.214   0.635  0.1223 -0.1242  0.2426
 1014SOL    HW112956   1.592   5.173   0.644  0.3824  0.7549  1.7291
 1014SOL    HW212957   1.435   5.162   0.689 -0.3720 -1.0531 -1.2246
 1015SOL     OW12958   3.453   2.924   1.140 -0.0578 -0.1063 -0.4331
 1015SOL    HW112959   3.544   2.882   1.140  0.1881  0.3826  1.5942
 1015SOL    HW212960   3.460   3.019   1.111 -0.1123 -0.4219 -1.5077
 1016SOL     OW12961   3.846   8.596   1.280 -0.3848  0.1511 -0.8133
 1016SOL    HW112962   3.905   8.659   1.228  0.7532  0.1602  0.4465
 1016SOL    HW212963   3.834   8.511   1.229  1.1978 -0.0595 -0.8696
 1017SOL     OW12964   1.820   3.156  -0.026  0.5538  0.4704 -0.2141
 1017SOL    HW112965   1.777   3.110  -0.103  1.0285 -0.6071  0.1625
 1017SOL    HW212966   1.822   3.255  -0.043  1.0822  0.2031 -1.7969
 1018SOL     OW12967   4.192   3.692   1.203  0.0626 -0.6834 -0.2569
 1018SOL    HW112968   4.135   3.659   1.129 -0.6802  1.4110 -0.6544
 1018SOL    HW212969   4.179   3.634   1.284 -2.5464 -0.3233 -0.3716
 1019SOL     OW12970   3.721   3.967   2.029  0.4227 -0.0648 -0.4192
 1019SOL    HW112971   3.758   4.060   2.025  0.3275  0.0055  0.3018
 1019SOL    HW212972   3.641   3.961   1.970 -1.1946  1.0663  1.5813
 1020SOL     OW12973   1.329   5.439   2.512  0.2274 -0.0591 -0.0304
 1020SOL    HW112974   1.322   5.402   2.604  0.4325  1.9373  0.7986
 1020SOL    HW212975   1.237   5.454   2.475  0.1485 -0.2870  0.0720
 1021SOL     OW12976   3.974   3.379   1.088  0.5148 -0.2807 -0.3171
 1021SOL    HW112977   4.040   3.316   1.048 -0.4584 -0.9778 -0.8511
 1021SOL    HW212978   3.883   3.359   1.051  0.2250  1.5486 -0.6329
 1022SOL     OW12979   4.334   2.536   0.214 -0.6810 -0.1443 -0.1909
 1022SOL    HW112980   4.238   2.560   0.203  0.3027  3.2819 -1.8009
 1022SOL    HW212981   4.367   2.491   0.131 -0.3880  0.5296 -0.4443
 1023SOL     OW12982   1.906   6.596  -0.027  0.0351  0.0950  0.6887
 1023SOL    HW112983   1.934   6.686   0.007  2.2078 -0.2463 -0.1078
 1023SOL    HW212984   1.944   6.581  -0.118  0.5676 -2.0138  1.2120
 1024SOL     OW12985   2.203   4.459   0.985 -0.5042 -0.2206 -0.0374
 1024SOL    HW112986   2.231   4.429   1.077  0.8460  0.7096 -0.1299
 1024SOL    HW212987   2.105   4.445   0.975 -0.5616 -0.9640  1.3116
 1025SOL     OW12988   2.299   5.481   1.686 -0.4215  0.0435 -0.2431
 1025SOL    HW112989   2.373   5.428   1.644  0.3699  0.5860  0.4394
 1025SOL    HW212990   2.226   5.495   1.620 -0.3666 -1.3866 -0.6115
 1026SOL     OW12991   3.071   0.877   0.222  0.4891  0.1282 -0.0983
 1026SOL    HW112992   3.105   0.897   0.314  1.0524  0.5125 -0.3882
 1026SOL    HW212993   2.981   0.835   0.228  0.5058  0.1968  0.6308
 1027SOL     OW12994   1.580   3.642   0.552 -0.0407 -0.2589  0.3163
 1027SOL    HW112995   1.625   3.668   0.466 -0.5934  1.0121  0.3977
 1027SOL    HW212996   1.583   3.542   0.562  0.5417 -0.3778 -0.8990
 1028SOL     OW12997   3.240   3.020   1.663 -0.4671 -0.4619 -0.2704
 1028SOL    HW112998   3.153   3.063   1.689 -0.2839 -0.4845  0.3702
 1028SOL    HW212999   3.226   2.923   1.648 -0.5141 -0.4956  0.0009
 1029SOL     OW13000   3.184   2.236   0.369 -0.0868  0.0847 -0.1049
 1029SOL    HW113001   3.137   2.291   0.300  0.9070  0.3172 -0.6046
 1029SOL    HW213002   3.282   2.252   0.363  0.2227 -1.7867 -0.2916
 1030SOL     OW13003   9.889   4.631   1.679  0.0576  0.1472 -0.0855
 1030SOL    HW113004   9.982   4.607   1.650 -0.2230 -0.6618 -0.3354
 1030SOL    HW213005   9.828   4.629   1.599 -0.4001 -0.4869  0.2729
 1031SOL     OW13006   2.668   6.696   1.672  0.0374  0.0667  0.0333
 1031SOL    HW113007   2.618   6.724   1.754  2.2588 -0.2907  1.5406
 1031SOL    HW213008   2.694   6.600   1.680  0.8351  0.2054 -0.8059
 1032SOL     OW13009   4.413   3.925   2.566  0.7190  0.2563 -0.3539
 1032SOL    HW113010   4.396   3.967   2.655 -0.4730  1.0110 -0.9260
 1032SOL    HW213011   4.499   3.873   2.570 -0.0070 -0.8663  1.6331
 1033SOL     OW13012   0.268   5.241   0.616 -0.1908  0.4665 -0.0911
 1033SOL    HW113013   0.311   5.330   0.600 -0.7257  0.8005  0.3100
 1033SOL    HW213014   0.291   5.179   0.541 -1.5998  1.6137 -1.5406
 1034SOL     OW13015   2.429   7.234  -0.038 -0.0607 -0.4654 -0.2871
 1034SOL    HW113016   2.392   7.154   0.008 -0.2977 -1.1238 -1.6209
 1034SOL    HW213017   2.404   7.232  -0.135  0.7405  0.7268 -0.5276
 1035SOL     OW13018   2.229   3.918   2.056  0.2862  0.2970 -0.3414
 1035SOL    HW113019   2.138   3.958   2.061 -0.2707 -0.8807 -1.1675
 1035SOL    HW213020   2.241   3.870   1.969  1.1965 -0.7645  0.3488
 1036SOL     OW13021   4.242   2.435   2.141  0.4376 -0.1213 -0.0333
 1036SOL    HW113022   4.308   2.447   2.067 -1.5799 -1.1484 -2.0891
 1036SOL    HW213023   4.175   2.366   2.114 -0.2831 -0.5941  2.8387
 1037SOL     OW13024   2.717   1.296   1.183  0.4323  0.1894 -0.3022
 1037SOL    HW113025   2.761   1.276   1.271 -1.3560  1.5402  0.9651
 1037SOL    HW213026   2.644   1.230   1.166  0.1619  0.4754 -0.2833
 1038SOL     OW13027   3.336   2.793   0.267 -0.4203  0.2083 -0.2631
 1038SOL    HW113028   3.357   2.752   0.355 -0.7893 -1.4752 -0.9472
 1038SOL    HW213029   3.300   2.723   0.205  2.3089  0.8202 -2.6092
 1039SOL     OW13030   3.551   2.998   2.216  0.3244  0.2610 -0.3737
 1039SOL    HW113031   3.633   3.002   2.273  1.3197  1.4124 -1.8492
 1039SOL    HW213032   3.547   3.079   2.158 -1.7962  0.1428 -0.4268
 1040SOL     OW13033   4.660   3.083   1.238 -0.7597  0.1506 -0.0747
 1040SOL    HW113034   4.658   3.147   1.161 -2.1454 -0.8275 -0.8577
 1040SOL    HW213035   4.568   3.073   1.276 -0.3632 -0.5807  0.7087
 1041SOL     OW13036   2.329   3.176   0.192  0.5162  0.0058  0.8677
 1041SOL    HW113037   2.350   3.124   0.109  1.7268 -0.5836  1.5320
 1041SOL    HW213038   2.277   3.258   0.168 -1.3721 -1.4718 -0.2146
 1042SOL     OW13039   4.563   1.608   2.102 -0.0927  0.2879 -0.2865
 1042SOL    HW113040   4.501   1.571   2.032 -0.0520  1.1103 -0.7751
 1042SOL    HW213041   4.650   1.560   2.098  0.2572  0.9726 -1.4872
 1043SOL     OW13042   2.197   5.672   0.765 -0.3350  0.4971  0.4197
 1043SOL    HW113043   2.158   5.753   0.807 -0.6166 -0.0090  1.1566
 1043SOL    HW213044   2.138   5.593   0.784  0.9214 -0.2324  1.3604
 1044SOL     OW13045   4.754   2.000   2.275 -0.5272 -0.1122  0.2365
 1044SOL    HW113046   4.753   2.091   2.317 -1.1732  0.5890 -1.2636
 1044SOL    HW213047   4.848   1.977   2.249 -0.6036  0.9846 -1.1316
 1045SOL     OW13048   4.313   3.300   2.110  0.5086 -0.2632  1.2023
 1045SOL    HW113049   4.370   3.240   2.166  1.6628 -1.9564 -1.6661
 1045SOL    HW213050   4.217   3.277   2.123  0.9246 -2.4512  0.4736
 1046SOL     OW13051   2.651   1.244   2.391  0.4024 -0.2804  0.1353
 1046SOL    HW113052   2.581   1.290   2.444  0.4918 -0.6126  0.5413
 1046SOL    HW213053   2.718   1.311   2.359 -0.0268  0.0170 -0.1448
 1047SOL     OW13054   1.897   3.285   1.849 -0.1608 -0.5751 -0.5838
 1047SOL    HW113055   1.904   3.317   1.754 -2.0595 -2.9933 -1.5913
 1047SOL    HW213056   1.802   3.294   1.880  0.6841  1.4227  1.5770
 1048SOL     OW13057   1.791   6.324   1.372 -0.2858 -0.0004 -0.2707
 1048SOL    HW113058   1.831   6.260   1.437  2.1149 -0.4936 -2.1940
 1048SOL    HW213059   1.731   6.274   1.309  0.8388 -0.2404 -1.1697
 1049SOL     OW13060   0.426   5.425   1.654 -0.4255 -1.1527  0.6351
 1049SOL    HW113061   0.520   5.459   1.659 -0.5530 -0.6374 -0.4109
 1049SOL    HW213062   0.393   5.406   1.747 -0.8816  3.1501  1.4775
 1050SOL     OW13063   2.576   4.448   1.627  0.2597  0.3971  0.3524
 1050SOL    HW113064   2.622   4.512   1.564  0.5187 -0.1432 -0.0152
 1050SOL    HW213065   2.477   4.458   1.618  0.2989  0.9443  0.4989
 1051SOL     OW13066   4.321   9.354  -0.023 -0.6608 -0.3158 -0.1147
 1051SOL    HW113067   4.343   9.273  -0.078 -0.2162  0.4455 -1.0786
 1051SOL    HW213068   4.355   9.436  -0.070 -2.6680  0.6037 -0.0135
 1052SOL     OW13069   3.793   5.242   2.357 -0.1365  0.1937  0.5900
 1052SOL    HW113070   3.753   5.334   2.354  2.3320  1.3309  0.8282
 1052SOL    HW213071   3.825   5.217   2.266  1.7046  0.7738  1.0499
 1053SOL     OW13072   9.692   4.989   1.604 -0.2430 -0.5145  0.0311
 1053SOL    HW113073   9.692   4.941   1.516  0.9503 -2.1029  0.8799
 1053SOL    HW213074   9.784   5.021   1.624 -0.3754 -0.7714  1.0415
 1054SOL     OW13075   4.452   3.504   2.423 -0.0171  0.0301 -0.8190
 1054SOL    HW113076   4.502   3.578   2.378  0.2210 -0.3121 -1.1127
 1054SOL    HW213077   4.365   3.490   2.375 -1.0413  1.5601  0.5141
 1055SOL     OW13078   1.016   3.727   1.509  0.1693  0.0340 -0.0087
 1055SOL    HW113079   1.039   3.656   1.442  0.5606  1.1020 -1.0330
 1055SOL    HW213080   1.043   3.697   1.600  2.3518 -0.2086 -0.7212
 1056SOL     OW13081   1.657   6.858   1.803 -0.3948 -0.5483 -0.4889
 1056SOL    HW113082   1.617   6.832   1.715 -1.3710 -0.1154 -0.1729
 1056SOL    HW213083   1.747   6.898   1.788 -0.6790 -0.2132 -1.3129
 1057SOL     OW13084   3.309   0.519   1.070 -0.0692 -0.4249 -0.4118
 1057SOL    HW113085   3.314   0.466   0.985 -0.5959  1.3514 -1.5804
 1057SOL    HW213086   3.215   0.550   1.086  0.0352 -0.7004  0.7876
 1058SOL     OW13087   2.784   1.824   1.012  0.2268  0.5354 -0.0513
 1058SOL    HW113088   2.846   1.868   0.947 -0.7740  0.4654 -1.0737
 1058SOL    HW213089   2.735   1.750   0.967 -0.9338  0.8789  0.6041
 1059SOL     OW13090   4.373   3.082   1.274  0.2798 -0.5713 -0.1122
 1059SOL    HW113091   4.356   3.177   1.247  3.1649  0.1046  0.3132
 1059SOL    HW213092   4.377   3.025   1.192 -0.1179 -0.0961 -0.4665
 1060SOL     OW13093   2.912   1.615   0.161  0.3645  0.4690 -0.4142
 1060SOL    HW113094   3.006   1.632   0.190  1.0207 -0.1952 -2.0750
 1060SOL    HW213095   2.871   1.701   0.128 -0.1296  1.0644  1.6455
 1061SOL     OW13096   0.264   5.890   0.874 -0.0327  0.3089 -0.4198
 1061SOL    HW113097   0.273   5.908   0.973 -0.7170  0.6436 -0.4177
 1061SOL    HW213098   0.329   5.819   0.848  0.4550  0.5215  0.1947
 1062SOL     OW13099   1.203   3.993   1.511  0.5445 -0.0837  0.5000
 1062SOL    HW113100   1.297   3.978   1.479 -0.0792  0.3467 -1.6061
 1062SOL    HW213101   1.144   3.918   1.480 -0.1684  0.5637  0.2737
 1063SOL     OW13102   4.540   2.711   0.320 -0.2236 -0.0600  0.4691
 1063SOL    HW113103   4.470   2.658   0.271 -0.3558  0.1760  0.4020
 1063SOL    HW213104   4.526   2.808   0.303  0.9368 -0.0796 -0.6130
 1064SOL     OW13105   2.961   4.633   0.215  0.2518  0.3918 -0.0297
 1064SOL    HW113106   2.966   4.709   0.151 -2.4856  1.7970  1.3300
 1064SOL    HW213107   2.905   4.560   0.176  2.5737 -0.8326 -1.1803
 1065SOL     OW13108   9.189   5.226   0.316 -0.4561  0.1672 -0.4216
 1065SOL    HW113109   9.089   5.226   0.324 -0.4755  0.5126 -0.6516
 1065SOL    HW213110   9.223   5.320   0.325 -0.2302  0.1747 -1.2812
 1066SOL     OW13111   2.182   4.237   0.145  0.2503  1.0451 -0.0145
 1066SOL    HW113112   2.203   4.156   0.090  1.5973  0.9279  0.6601
 1066SOL    HW213113   2.166   4.209   0.240 -0.7692  1.4067 -0.0668
 1067SOL     OW13114   3.673   9.319   1.112 -0.1236  0.2857 -0.0660
 1067SOL    HW113115   3.729   9.239   1.133 -0.4660  0.1248  0.2511
 1067SOL    HW213116   3.576   9.292   1.112 -0.3776  1.1432  2.1157
 1068SOL     OW13117   1.698   5.718   1.776 -0.4530  0.1112 -0.2840
 1068SOL    HW113118   1.723   5.793   1.836  0.2682 -0.8878  0.6709
 1068SOL    HW213119   1.606   5.686   1.798  0.3978 -1.2902  1.3805
 1069SOL     OW13120   3.257   5.186   0.461 -0.4165  0.0068 -0.3946
 1069SOL    HW113121   3.233   5.278   0.490 -0.1654 -0.1387  0.2712
 1069SOL    HW213122   3.186   5.122   0.489 -0.5280 -0.0250 -0.7417
 1070SOL     OW13123   2.368   4.925   1.931 -0.5615  0.2485  0.1326
 1070SOL    HW113124   2.434   4.963   1.995 -0.1412 -1.4642  0.7415
 1070SOL    HW213125   2.291   4.987   1.921 -0.8343  0.3556  2.6113
 1071SOL     OW13126   2.267   4.807   1.193 -0.1426 -0.2684  0.2474
 1071SOL    HW113127   2.255   4.892   1.143  0.9336  1.1210  2.3040
 1071SOL    HW213128   2.335   4.750   1.146 -0.9181 -0.0409 -1.1683
 1072SOL     OW13129   2.483   7.618   0.764 -0.1745  0.1145  0.4778
 1072SOL    HW113130   2.390   7.580   0.763 -0.7603  1.5175 -0.7483
 1072SOL    HW213131   2.549   7.546   0.744 -1.0401 -0.8216  0.9974
 1073SOL     OW13132   1.834   3.492   1.263 -0.1220 -0.1879  0.0621
 1073SOL    HW113133   1.817   3.491   1.164 -1.3525 -1.4717  0.2830
 1073SOL    HW213134   1.764   3.547   1.308  1.2962  1.6582  0.0938
 1074SOL     OW13135   3.415   5.546   1.978 -0.3822  0.2398 -0.1893
 1074SOL    HW113136   3.320   5.561   1.950  0.2242 -0.4005 -2.7361
 1074SOL    HW213137   3.460   5.634   1.992 -1.4506  0.5483  1.5106
 1075SOL     OW13138   2.758   3.121   1.710  0.1068 -0.1266 -0.1149
 1075SOL    HW113139   2.809   3.173   1.641  1.4057  0.6006  1.3747
 1075SOL    HW213140   2.820   3.092   1.783 -1.3015 -0.6921  0.8755
 1076SOL     OW13141   3.133   4.868   2.254 -0.0544 -0.3814 -0.0833
 1076SOL    HW113142   3.155   4.825   2.342  2.6604  0.1213 -0.4705
 1076SOL    HW213143   3.177   4.957   2.249 -2.8967  1.0206 -0.6625
 1077SOL     OW13144   1.883   3.928   1.764 -0.1115 -0.0630  0.5511
 1077SOL    HW113145   1.788   3.951   1.744 -0.4434 -2.4758 -0.8372
 1077SOL    HW213146   1.943   4.002   1.735 -1.6845  2.4608  3.4597
 1078SOL     OW13147   3.198   9.070   0.690 -0.4250  0.2153 -0.2034
 1078SOL    HW113148   3.146   9.119   0.619  1.2268  1.3334 -0.6670
 1078SOL    HW213149   3.264   9.010   0.646 -0.1013  0.1331  0.3998
 1079SOL     OW13150   3.099   4.710   0.440 -0.4892  0.8034 -0.4407
 1079SOL    HW113151   3.163   4.648   0.486 -1.5575  1.4529  2.0465
 1079SOL    HW213152   3.051   4.661   0.367 -0.3731 -0.9397  0.6232
 1080SOL     OW13153   3.893   3.153   2.497  0.2420  0.3116 -0.2089
 1080SOL    HW113154   3.991   3.137   2.491  0.2709  0.5595 -0.4436
 1080SOL    HW213155   3.874   3.249   2.474 -0.1831 -0.0678 -1.4356
 1081SOL     OW13156   2.545   4.738   1.770 -0.3462  0.1743 -0.3250
 1081SOL    HW113157   2.492   4.781   1.842  0.5665  0.4880  0.1691
 1081SOL    HW213158   2.568   4.644   1.797 -0.5834  0.0618 -0.5093
 1082SOL     OW13159   9.639   4.876   0.756  0.0716  0.4744 -0.0777
 1082SOL    HW113160   9.728   4.841   0.785 -0.1350 -0.5063 -0.6179
 1082SOL    HW213161   9.623   4.965   0.799  1.2022  0.5465  0.2211
 1083SOL     OW13162   1.793   4.464   1.821 -0.2684 -0.1664 -0.3093
 1083SOL    HW113163   1.760   4.375   1.851 -0.5786 -0.2510 -0.8885
 1083SOL    HW213164   1.747   4.536   1.874  3.0703 -0.4363  3.1608
 1084SOL     OW13165   1.477   4.592   1.087  0.1342  0.0480 -0.9531
 1084SOL    HW113166   1.480   4.667   1.020 -0.8358  1.3007  0.3637
 1084SOL    HW213167   1.428   4.514   1.047 -1.3537  1.1569 -1.3701
 1085SOL     OW13168   2.816   1.848   0.036 -0.1369  0.3089  0.0730
 1085SOL    HW113169   2.808   1.839  -0.063  1.5000 -0.8730  0.0278
 1085SOL    HW213170   2.872   1.929   0.057  0.4223 -0.0523 -0.0070
 1086SOL     OW13171   2.954   0.915   0.969  0.0210  0.0566 -0.3991
 1086SOL    HW113172   2.913   0.975   0.901 -0.5710  1.1544  0.8889
 1086SOL    HW213173   3.029   0.963   1.015  2.1592 -1.6102 -2.0896
 1087SOL     OW13174   2.459   5.349   2.080  0.0043  0.3914  0.0416
 1087SOL    HW113175   2.392   5.361   2.153 -0.0553 -0.2742  0.1025
 1087SOL    HW213176   2.416   5.368   1.992  0.1741  1.5577  0.2007
 1088SOL     OW13177   1.334   4.891   2.043  0.0307 -0.3128 -0.4658
 1088SOL    HW113178   1.250   4.929   2.082  0.2453  1.3483 -1.6003
 1088SOL    HW213179   1.413   4.933   2.087  0.2726  1.1024 -2.2137
 1089SOL     OW13180   0.645   5.201   1.541 -0.5143 -0.2828  0.0583
 1089SOL    HW113181   0.591   5.267   1.488  0.4965 -0.1327 -0.8039
 1089SOL    HW213182   0.611   5.108   1.523  0.5739 -0.3468 -1.8150
 1090SOL     OW13183   4.519   2.955   0.197 -0.4432 -0.7530 -0.5736
 1090SOL    HW113184   4.486   2.884   0.134  1.5236 -0.1872 -2.3207
 1090SOL    HW213185   4.453   3.030   0.200 -0.9884 -1.1976 -1.2496
 1091SOL     OW13186   4.068   5.329   1.538 -0.3318  0.6334  0.1806
 1091SOL    HW113187   4.041   5.245   1.587 -0.8279  1.1072  0.7338
 1091SOL    HW213188   4.065   5.312   1.440  2.2712 -0.8310  0.3121
 1092SOL     OW13189   5.418   3.649   1.300 -0.1809  0.2976  0.1368
 1092SOL    HW113190   5.484   3.686   1.235 -2.0357  0.9610 -1.4327
 1092SOL    HW213191   5.375   3.724   1.350  0.4741 -0.1512  1.4114
 1093SOL     OW13192   1.186   3.437   1.531  0.1653 -0.3621 -0.1356
 1093SOL    HW113193   1.236   3.354   1.558  0.9609  0.0564 -0.2972
 1093SOL    HW213194   1.194   3.450   1.432  1.3550  0.7362  0.0845
 1094SOL     OW13195   2.751   7.469   1.310  0.0601  0.2957  0.5666
 1094SOL    HW113196   2.704   7.394   1.357  0.5318  0.2436  0.9633
 1094SOL    HW213197   2.842   7.439   1.281 -0.1258  0.4154 -0.1451
 1095SOL     OW13198   4.193   3.499   1.404  0.1134 -0.4751 -0.4175
 1095SOL    HW113199   4.095   3.479   1.403  0.5146 -3.0221  2.9466
 1095SOL    HW213200   4.227   3.495   1.498  2.9026  3.5000 -1.1001
 1096SOL     OW13201   2.822   5.848   0.062  0.1861  0.2182  0.5171
 1096SOL    HW113202   2.893   5.912   0.092 -0.3319  0.6052  0.9434
 1096SOL    HW213203   2.845   5.811  -0.028 -0.0187  1.8132 -0.2063
 1097SOL     OW13204   2.833   3.773   2.444  0.4479  0.3162 -0.0771
 1097SOL    HW113205   2.803   3.680   2.429 -1.0655  0.7223  0.3979
 1097SOL    HW213206   2.904   3.774   2.514  2.1438 -0.7155 -1.7223
 1098SOL     OW13207   9.761   5.378   1.534 -0.4382  0.4670 -0.0412
 1098SOL    HW113208   9.701   5.350   1.609 -1.6866  1.1077 -0.7768
 1098SOL    HW213209   9.712   5.441   1.475  0.5010 -0.1008 -1.4506
 1099SOL     OW13210   3.478   4.297   2.084  0.0399 -0.1037 -0.1255
 1099SOL    HW113211   3.401   4.347   2.124 -0.6882 -0.3924 -1.1607
 1099SOL    HW213212   3.551   4.362   2.060  0.1564  0.1581  0.9327
 1100SOL     OW13213   4.246   2.028   0.528 -0.4640  0.3030 -0.9307
 1100SOL    HW113214   4.336   2.066   0.552 -0.5091 -0.5988  0.7374
 1100SOL    HW213215   4.242   1.932   0.555 -2.1797  0.5249 -0.3392
 1101SOL     OW13216   3.080   7.697   1.583 -0.3086 -0.3695 -0.1401
 1101SOL    HW113217   3.131   7.771   1.627  0.9344 -1.3832  0.1364
 1101SOL    HW213218   2.985   7.725   1.571 -0.0109  0.9985  0.6140
 1102SOL     OW13219   2.058   4.699   2.348  0.0003  0.5768 -0.1059
 1102SOL    HW113220   2.093   4.606   2.365  0.3620  0.7120 -0.0982
 1102SOL    HW213221   2.003   4.699   2.265  0.1916  0.4033 -0.2347
 1103SOL     OW13222   9.955   5.326   2.021 -0.4590  0.1656 -0.5648
 1103SOL    HW113223   9.888   5.379   2.073  0.8799  0.5489  0.8437
 1103SOL    HW213224   9.986   5.379   1.943 -0.9211  0.4748 -0.5369
 1104SOL     OW13225   3.935   1.756   0.419 -0.1175 -0.4179  0.0765
 1104SOL    HW113226   3.882   1.674   0.439 -1.2016  0.4870  0.9557
 1104SOL    HW213227   4.025   1.750   0.463 -0.4017 -0.8762  0.5940
 1105SOL     OW13228   2.648   7.045   1.486 -0.3949  0.0210  0.4421
 1105SOL    HW113229   2.681   6.953   1.463  0.3088  0.0597  1.3057
 1105SOL    HW213230   2.693   7.077   1.568  0.5369  1.8143 -0.7485
 1106SOL     OW13231   4.284   2.236   1.536  0.5702  0.8145  0.1202
 1106SOL    HW113232   4.363   2.284   1.575  0.7893 -0.9108  1.8119
 1106SOL    HW213233   4.316   2.168   1.469  0.4279  1.0019 -0.1408
 1107SOL     OW13234   0.869   5.623   1.015  0.2240  0.1441  0.7107
 1107SOL    HW113235   0.870   5.523   1.015  2.0996  0.1214 -2.3106
 1107SOL    HW213236   0.935   5.656   1.082  0.6297 -0.6500  0.7168
 1108SOL     OW13237   3.398   2.568   2.579  0.5125  0.1657 -0.2334
 1108SOL    HW113238   3.470   2.624   2.621 -0.9516  1.5953  0.4272
 1108SOL    HW213239   3.431   2.474   2.569  2.1824  0.6117  0.7867
 1109SOL     OW13240   1.648   4.282   0.372  0.2646  0.1501 -0.1278
 1109SOL    HW113241   1.557   4.241   0.379 -0.2182  0.8057 -2.2526
 1109SOL    HW213242   1.649   4.370   0.420 -0.6635  0.8336 -1.3416
 1110SOL     OW13243   4.687   2.222   1.784  0.1535 -0.1197  0.2484
 1110SOL    HW113244   4.616   2.151   1.784  0.2977 -0.2747 -1.0712
 1110SOL    HW213245   4.746   2.210   1.864 -0.6609 -0.6445  0.7795
 1111SOL     OW13246   3.252   6.110   1.786 -0.2192  0.2269 -0.7087
 1111SOL    HW113247   3.206   6.021   1.790  0.0449  0.0138 -2.3466
 1111SOL    HW213248   3.285   6.133   1.878 -0.9591 -1.0050 -0.1096
 1112SOL     OW13249   4.392   1.805   1.276 -0.2195  0.5384  0.6794
 1112SOL    HW113250   4.316   1.783   1.216 -1.0504  0.0926  1.8850
 1112SOL    HW213251   4.477   1.811   1.222 -0.9220 -0.0000 -0.4952
 1113SOL     OW13252   5.066   1.879   0.822 -0.7861  0.0465  0.0141
 1113SOL    HW113253   4.998   1.945   0.790  0.0251  1.3643  0.9853
 1113SOL    HW213254   5.081   1.891   0.920 -0.1235 -1.1323  0.0654
 1114SOL     OW13255   2.150   3.317   0.574 -0.5298 -0.3906  0.1223
 1114SOL    HW113256   2.234   3.267   0.594 -1.7641 -2.2381  0.8465
 1114SOL    HW213257   2.172   3.412   0.555  1.8308 -1.0660 -0.7518
 1115SOL     OW13258   1.183   3.636   2.234 -0.0505  0.4211 -0.5290
 1115SOL    HW113259   1.194   3.605   2.140 -1.0821  3.3188 -1.6800
 1115SOL    HW213260   1.088   3.627   2.262 -0.4118  2.5529 -0.9479
 1116SOL     OW13261   3.492  10.144   2.343 -0.0788  0.1094  0.2986
 1116SOL    HW113262   3.406  10.176   2.303 -0.5485 -1.0136  0.3808
 1116SOL    HW213263   3.566  10.206   2.318 -0.9369  1.1614  0.3390
 1117SOL     OW13264   2.642   5.128   0.301 -0.7340 -0.5758 -0.4793
 1117SOL    HW113265   2.675   5.220   0.324  0.9315 -1.2431 -0.1210
 1117SOL    HW213266   2.545   5.132   0.279 -0.5286  1.3930 -1.1443
 1118SOL     OW13267   1.236   4.610   1.668 -0.4585  0.0007  0.0145
 1118SOL    HW113268   1.227   4.706   1.642 -0.8369  0.2695  1.1247
 1118SOL    HW213269   1.148   4.576   1.702 -0.3726 -0.7928 -0.5411
 1119SOL     OW13270   2.651   4.657  -0.014 -0.2224  0.5812  0.4098
 1119SOL    HW113271   2.657   4.582   0.052 -1.9404 -0.0329 -0.1027
 1119SOL    HW213272   2.643   4.620  -0.107  0.7357  1.4279 -0.0318
 1120SOL     OW13273   3.839   1.040   2.548  0.4230 -0.2545 -0.3736
 1120SOL    HW113274   3.939   1.051   2.544  0.1254  2.1430 -2.6771
 1120SOL    HW213275   3.804   1.087   2.628  1.0676 -0.4787  0.0463
 1121SOL     OW13276   3.576   3.447   1.929 -0.5385  0.2615 -0.7059
 1121SOL    HW113277   3.589   3.547   1.931 -0.3791  0.2411 -0.7265
 1121SOL    HW213278   3.586   3.411   2.022 -1.2063  0.3424 -0.6004
 1122SOL     OW13279   4.821   3.078   0.879 -0.0239 -0.0255 -0.3164
 1122SOL    HW113280   4.744   3.105   0.938  1.4597  0.2243  1.5507
 1122SOL    HW213281   4.796   3.093   0.783 -1.4786  2.2295  0.3659
 1123SOL     OW13282   3.408   8.090   1.522 -0.7931 -0.0673 -0.6493
 1123SOL    HW113283   3.475   8.107   1.594 -0.3610 -1.3400 -0.7359
 1123SOL    HW213284   3.376   8.177   1.485 -1.1462  0.6089  1.1895
 1124SOL     OW13285   0.381   5.627   1.200  0.0513  0.8213  0.0309
 1124SOL    HW113286   0.288   5.625   1.237  0.0316  0.6336 -0.0261
 1124SOL    HW213287   0.392   5.552   1.134  0.1581  1.0114 -0.1673
 1125SOL     OW13288   2.632   7.797   0.907  0.1196  0.0204  0.1730
 1125SOL    HW113289   2.624   7.743   0.991 -0.2828 -2.0658 -1.1543
 1125SOL    HW213290   2.570   7.759   0.838 -0.4675  2.4732 -0.6831
 1126SOL     OW13291   9.695   5.100   1.194 -0.3696 -0.4026 -0.6060
 1126SOL    HW113292   9.732   5.186   1.229 -0.2828  0.1499 -2.0309
 1126SOL    HW213293   9.769   5.043   1.159 -0.5189 -0.7228 -0.4149
 1127SOL     OW13294   4.197   2.158   1.135  0.3005  0.0355  0.1372
 1127SOL    HW113295   4.228   2.163   1.040  0.0611 -0.3460  0.0370
 1127SOL    HW213296   4.133   2.082   1.145 -0.3186  0.5884  0.4196
 1128SOL     OW13297   1.790   5.878   0.824  0.4065  0.2312 -0.2117
 1128SOL    HW113298   1.863   5.940   0.796 -0.1734  0.5506 -1.0715
 1128SOL    HW213299   1.714   5.886   0.759 -0.1291 -0.5571  0.3123
 1129SOL     OW13300   3.050   2.800   2.358  0.1270  0.0490  0.6474
 1129SOL    HW113301   2.997   2.727   2.315 -0.8206  1.2328 -0.2025
 1129SOL    HW213302   3.093   2.856   2.288  2.1047 -0.5690  1.3140
 1130SOL     OW13303   2.915   1.293   0.799  0.2203 -0.0942 -0.3215
 1130SOL    HW113304   2.964   1.264   0.881 -0.4040 -0.6899 -0.1619
 1130SOL    HW213305   2.965   1.369   0.756  0.5028  0.2853  0.6552
 1131SOL     OW13306   3.555  10.092   0.290  0.5992 -0.5438  0.5006
 1131SOL    HW113307   3.615  10.012   0.289 -1.5007 -2.1712  1.2119
 1131SOL    HW213308   3.529  10.115   0.197  0.3126 -1.3969  0.3632
 1132SOL     OW13309   0.278   5.600   1.880 -0.3085  0.2166 -0.2571
 1132SOL    HW113310   0.312   5.642   1.796  0.1512 -1.1633 -0.7834
 1132SOL    HW213311   0.196   5.547   1.860 -0.5006  0.3117  0.2693
 1133SOL     OW13312   2.645   1.781   0.217 -0.2295 -0.5417  0.4181
 1133SOL    HW113313   2.694   1.811   0.135  1.4747 -3.8500  0.1398
 1133SOL    HW213314   2.699   1.805   0.298 -0.6438  0.4050  0.4127
 1134SOL     OW13315   3.441   2.434   2.195  0.0438  0.0469  0.1537
 1134SOL    HW113316   3.370   2.378   2.155  1.2800 -0.6507 -1.0980
 1134SOL    HW213317   3.404   2.525   2.217 -1.5702 -0.7629  0.8373
 1135SOL     OW13318   2.969   7.248   0.989  0.1347 -0.2646  0.1659
 1135SOL    HW113319   3.065   7.260   1.012 -0.1785 -1.4768  2.2019
 1135SOL    HW213320   2.950   7.151   0.974 -0.9694 -0.1562  0.7583
 1136SOL     OW13321   3.103   3.634   2.366  0.4249 -0.4782  0.5210
 1136SOL    HW113322   3.147   3.712   2.410 -0.3513 -0.0355  0.5294
 1136SOL    HW213323   3.156   3.606   2.286  0.3644  0.4832  0.1390
 1137SOL     OW13324   4.535   9.499   2.237  0.5780  0.4391 -0.2924
 1137SOL    HW113325   4.513   9.407   2.270 -0.5241  0.6127 -0.5100
 1137SOL    HW213326   4.608   9.494   2.169 -0.3298 -0.4111 -1.2147
 1138SOL     OW13327   2.649   6.475   1.944  0.0217 -0.0109 -0.1177
 1138SOL    HW113328   2.611   6.409   1.879 -1.4898  0.2787  0.4479
 1138SOL    HW213329   2.746   6.488   1.925  0.2050 -1.9325 -0.6242
 1139SOL     OW13330   3.674   5.468   2.363  0.3974  0.1438 -0.1810
 1139SOL    HW113331   3.679   5.470   2.463  1.6100 -0.9632 -0.2093
 1139SOL    HW213332   3.698   5.558   2.327 -1.8150  1.0782  0.5748
 1140SOL     OW13333   3.152   9.750   1.566 -0.1182  0.1538  0.4341
 1140SOL    HW113334   3.215   9.812   1.614  2.7806 -2.7247  0.4843
 1140SOL    HW213335   3.203   9.689   1.506 -3.0732 -1.0593 -0.9818
 1141SOL     OW13336   3.239   2.188   2.332 -0.0122  0.4185  0.3314
 1141SOL    HW113337   3.195   2.231   2.411  1.5940 -0.3472  1.6593
 1141SOL    HW213338   3.331   2.225   2.320 -0.0698  0.1937 -0.9191
 1142SOL     OW13339   2.554   3.388   0.309  0.0213  0.3451 -0.4614
 1142SOL    HW113340   2.515   3.480   0.303 -1.9251 -0.5331 -1.9991
 1142SOL    HW213341   2.501   3.326   0.251  2.1905 -1.4538 -0.5818
 1143SOL     OW13342   4.426   5.252   1.660 -0.4481  0.1331  0.5402
 1143SOL    HW113343   4.364   5.308   1.605 -0.1785  0.1770  0.2816
 1143SOL    HW213344   4.473   5.310   1.726  0.6978  0.4058 -0.5094
 1144SOL     OW13345   3.294   3.710   1.800 -0.3133  0.0716  0.6370
 1144SOL    HW113346   3.206   3.693   1.844 -1.4597  0.8583 -1.2756
 1144SOL    HW213347   3.315   3.635   1.737 -0.8055  1.0619 -0.7279
 1145SOL     OW13348   1.806   3.262   0.692 -0.1121  0.0953 -0.2757
 1145SOL    HW113349   1.886   3.280   0.750 -0.0793  1.2866 -0.6754
 1145SOL    HW213350   1.829   3.193   0.624  0.0879 -0.7387  0.6282
 1146SOL     OW13351   4.154   3.331   0.458 -0.0983  0.6066 -0.0832
 1146SOL    HW113352   4.200   3.319   0.546 -1.2526  0.8581  0.5652
 1146SOL    HW213353   4.097   3.413   0.461  0.2401  0.8947 -1.2391
 1147SOL     OW13354   2.595   0.961   0.427  0.0602 -0.5475 -0.1535
 1147SOL    HW113355   2.581   0.910   0.512  1.2618 -1.7428 -0.6430
 1147SOL    HW213356   2.584   1.059   0.444 -1.3853 -0.8996  0.9999
 1148SOL     OW13357   3.217   9.494   1.801 -0.0794 -0.0878  0.0335
 1148SOL    HW113358   3.270   9.480   1.885 -0.8168 -0.2029  0.4847
 1148SOL    HW213359   3.137   9.434   1.802 -1.2603  1.4585  0.2526
 1149SOL     OW13360   2.689   7.136   1.769 -0.4591 -0.1595  0.4750
 1149SOL    HW113361   2.784   7.109   1.786 -0.4509 -0.6401 -0.3355
 1149SOL    HW213362   2.677   7.232   1.794  0.3352  0.0109  0.2302
 1150SOL     OW13363   0.777   3.807   1.398 -0.1150  0.0588  0.3397
 1150SOL    HW113364   0.703   3.764   1.451  1.2979 -2.1899  0.5802
 1150SOL    HW213365   0.862   3.801   1.450  1.0796 -1.2434 -1.7116
 1151SOL     OW13366   3.546   4.555   2.290  0.2666 -0.3360  0.5382
 1151SOL    HW113367   3.454   4.520   2.272 -0.5744  1.6900  0.7498
 1151SOL    HW213368   3.599   4.486   2.338 -0.5364 -2.2285 -1.2320
 1152SOL     OW13369   2.943   5.989   1.133  0.5407 -0.1061 -0.5232
 1152SOL    HW113370   2.911   5.896   1.117  2.6071 -1.1521  1.1428
 1152SOL    HW213371   2.978   6.029   1.048 -2.5296  0.0580 -1.7595
 1153SOL     OW13372   2.518   7.665   2.079 -0.6942 -0.4283 -0.2041
 1153SOL    HW113373   2.442   7.730   2.076 -2.1501 -2.1286 -0.8074
 1153SOL    HW213374   2.487   7.580   2.120  1.1971 -0.7846  0.5613
 1154SOL     OW13375   2.780   1.887   0.421 -0.1090 -0.0191 -0.5089
 1154SOL    HW113376   2.868   1.936   0.418  0.3076 -0.6589  0.7995
 1154SOL    HW213377   2.724   1.923   0.496 -0.3434 -0.6283 -0.3873
 1155SOL     OW13378   2.422   4.254   2.251 -0.0748  0.5413  0.1971
 1155SOL    HW113379   2.330   4.221   2.232 -0.4462  0.8841  1.3316
 1155SOL    HW213380   2.457   4.210   2.334 -0.4644  2.7263  1.5687
 1156SOL     OW13381   1.838   4.409   0.723  0.3308 -0.2160 -0.3319
 1156SOL    HW113382   1.755   4.407   0.667  0.3318 -2.0983 -0.3102
 1156SOL    HW213383   1.913   4.449   0.671 -0.2567  0.2543 -0.8210
 1157SOL     OW13384   5.128   2.668   0.687 -0.2401  0.3097 -0.0432
 1157SOL    HW113385   5.131   2.757   0.733  2.3041 -0.5441  1.5863
 1157SOL    HW213386   5.083   2.602   0.748 -0.4129  0.0474 -0.4580
 1158SOL     OW13387   2.740   0.984   1.649 -0.0830 -0.5683  0.7047
 1158SOL    HW113388   2.680   0.990   1.570 -1.6039  0.7046  1.9113
 1158SOL    HW213389   2.707   0.911   1.710 -0.8508  0.6028  1.7092
 1159SOL     OW13390   3.192   8.826   2.377 -0.2639  0.0186  0.2448
 1159SOL    HW113391   3.262   8.897   2.379 -0.1162 -0.1393  2.8565
 1159SOL    HW213392   3.101   8.868   2.373 -0.1302  0.3383  0.5283
 1160SOL     OW13393   1.032   3.562   1.280 -0.0353  0.2822 -0.0149
 1160SOL    HW113394   0.965   3.621   1.233 -0.1757  1.7207  1.9505
 1160SOL    HW213395   1.057   3.486   1.219 -3.8502 -0.6027 -0.6294
 1161SOL     OW13396   3.462   9.737   2.152 -0.1659 -0.2743  0.4979
 1161SOL    HW113397   3.394   9.804   2.125 -1.0424 -0.5556  1.9146
 1161SOL    HW213398   3.444   9.650   2.106 -0.0520 -0.0102 -0.0399
 1162SOL     OW13399   0.890   5.878   1.423 -0.4529 -0.1907  0.4044
 1162SOL    HW113400   0.874   5.906   1.328  0.1631 -1.6080 -0.1243
 1162SOL    HW213401   0.802   5.862   1.468 -0.7480  0.4887  0.0796
 1163SOL     OW13402   3.545   1.220   1.124 -0.5447 -0.0626  0.2450
 1163SOL    HW113403   3.580   1.126   1.121  0.2283  0.1993  0.9970
 1163SOL    HW213404   3.542   1.251   1.219  1.6763  1.5985 -0.2014
 1164SOL     OW13405   3.146   9.414   2.251  0.3572  0.3597 -0.2443
 1164SOL    HW113406   3.200   9.362   2.185  1.4180  0.1553  0.7773
 1164SOL    HW213407   3.105   9.351   2.317 -1.6501  0.4437 -1.3528
 1165SOL     OW13408   1.672   6.508   2.303  0.2600 -0.3292  0.1676
 1165SOL    HW113409   1.699   6.477   2.395  0.7901 -1.0882 -0.2432
 1165SOL    HW213410   1.725   6.459   2.234 -0.6020 -0.2300 -0.5730
 1166SOL     OW13411   4.108   2.611   0.027 -0.0065 -0.0137  0.3011
 1166SOL    HW113412   4.017   2.614   0.068 -0.2059 -2.5816  0.1560
 1166SOL    HW213413   4.101   2.572  -0.065  0.9329  2.1066 -0.6883
 1167SOL     OW13414   1.055   4.019   0.356 -0.2033  0.0981  0.1602
 1167SOL    HW113415   0.959   3.990   0.360  0.1297 -0.9510  0.6149
 1167SOL    HW213416   1.097   3.986   0.272  0.0941 -0.4853  0.5360
 1168SOL     OW13417   3.979   5.558   2.384 -0.1664 -0.1088 -0.0159
 1168SOL    HW113418   3.926   5.621   2.441  2.2065  1.3515  0.6882
 1168SOL    HW213419   3.971   5.465   2.420  0.5201  0.6465  2.1829
 1169SOL     OW13420   3.480   8.638   1.833 -0.3663 -0.1966 -0.1123
 1169SOL    HW113421   3.514   8.627   1.740 -0.7495 -0.4470 -0.2224
 1169SOL    HW213422   3.382   8.620   1.836 -0.4333  0.2158  0.2648
 1170SOL     OW13423   5.637   4.256   0.532 -0.2895  0.1043 -0.2443
 1170SOL    HW113424   5.622   4.355   0.532 -1.2130 -0.0124  1.2858
 1170SOL    HW213425   5.716   4.234   0.475  0.4392  1.8042  0.0713
 1171SOL     OW13426   3.304   9.068   0.032 -0.5521 -0.1810 -0.2229
 1171SOL    HW113427   3.273   9.107   0.119  1.1479  0.7773 -0.0209
 1171SOL    HW213428   3.329   8.972   0.046 -0.4091 -0.0650  0.3302
 1172SOL     OW13429   4.852   1.548   1.075 -0.1960  0.5866 -0.4251
 1172SOL    HW113430   4.817   1.462   1.113  0.8453  0.4556  0.2963
 1172SOL    HW213431   4.944   1.533   1.039  0.0020  1.3959 -0.2796
 1173SOL     OW13432   0.715   4.262   1.231 -0.3265  0.0040 -0.0321
 1173SOL    HW113433   0.779   4.338   1.233 -0.3637  0.0095  1.4069
 1173SOL    HW213434   0.758   4.181   1.270 -1.3389  0.1440  1.4402
 1174SOL     OW13435   3.580   9.201   0.567 -0.2527 -0.5364 -0.1435
 1174SOL    HW113436   3.647   9.266   0.529  0.3934 -1.0127  0.1724
 1174SOL    HW213437   3.582   9.207   0.667 -0.0051 -1.2184 -0.1029
 1175SOL     OW13438   4.048   4.852  -0.019 -0.1010  0.0813 -0.9189
 1175SOL    HW113439   4.011   4.939   0.014  1.7413  0.9080 -0.9576
 1175SOL    HW213440   4.135   4.869  -0.066  1.5286 -2.0528  1.2146
 1176SOL     OW13441   2.847   4.779   2.287 -0.1874 -0.2710  0.3901
 1176SOL    HW113442   2.918   4.710   2.267 -0.7889 -0.4958 -0.9983
 1176SOL    HW213443   2.886   4.850   2.346  2.2744  1.4832 -3.1689
 1177SOL     OW13444   1.947   5.411   1.211  0.1943 -0.2463 -0.7256
 1177SOL    HW113445   1.981   5.324   1.175  0.4645 -1.2980  1.9599
 1177SOL    HW213446   1.849   5.403   1.230 -0.0984  0.5309 -1.8715
 1178SOL     OW13447   1.670   3.322   1.576 -0.5292  0.0544  0.3199
 1178SOL    HW113448   1.672   3.263   1.496  0.5230  0.6797 -0.1354
 1178SOL    HW213449   1.578   3.325   1.613 -0.9533 -0.5172 -0.6651
 1179SOL     OW13450   3.499   9.212   2.530  0.4463 -0.6851 -0.2647
 1179SOL    HW113451   3.428   9.175   2.590  0.4427 -0.0064  0.1543
 1179SOL    HW213452   3.464   9.294   2.485  0.0235 -1.8742 -2.1345
 1180SOL     OW13453   1.973   5.363   2.403  0.2724  0.4142  0.2396
 1180SOL    HW113454   1.880   5.350   2.436 -0.2731 -1.3984 -1.9023
 1180SOL    HW213455   2.034   5.300   2.450  0.1666  0.6426  0.6769
 1181SOL     OW13456   0.864   4.602   0.079  0.1567  0.3192  0.1902
 1181SOL    HW113457   0.803   4.555   0.144  0.3560  0.0956  0.2154
 1181SOL    HW213458   0.943   4.638   0.128  0.6971 -0.5315 -0.0559
 1182SOL     OW13459   3.569   8.194   0.001 -0.1102 -0.2791 -0.0474
 1182SOL    HW113460   3.509   8.274  -0.008  0.6019  0.1710 -0.9482
 1182SOL    HW213461   3.542   8.141   0.082 -1.0915  0.4400  0.1158
 1183SOL     OW13462   0.518   4.782   1.684  0.3714  0.3823  0.1260
 1183SOL    HW113463   0.502   4.684   1.670 -1.4041  0.6992 -0.1818
 1183SOL    HW213464   0.540   4.799   1.780  0.1614 -0.2540  0.2878
 1184SOL     OW13465   3.634   8.810   2.385 -0.5552 -0.4363 -0.0478
 1184SOL    HW113466   3.677   8.835   2.472 -1.1742  0.6483 -0.0413
 1184SOL    HW213467   3.642   8.711   2.371  2.0664 -0.2514 -0.1137
 1185SOL     OW13468   4.674   1.626   0.666  0.3228  0.0043  0.5979
 1185SOL    HW113469   4.769   1.657   0.675  0.9239 -1.7379  0.4153
 1185SOL    HW213470   4.671   1.526   0.670 -1.3778 -0.0125 -0.5733
 1186SOL     OW13471   3.413   3.709   0.689 -0.6055 -0.6018  0.2284
 1186SOL    HW113472   3.437   3.740   0.781  0.7300 -1.0050  0.0242
 1186SOL    HW213473   3.389   3.612   0.692  1.1739 -1.0570 -0.1385
 1187SOL     OW13474   3.593   2.820   1.667  0.7380  0.2038  0.6366
 1187SOL    HW113475   3.609   2.752   1.739  1.1122 -0.0761  0.2877
 1187SOL    HW213476   3.508   2.799   1.619 -0.1044  1.0357  1.7340
 1188SOL     OW13477   4.303   3.147   0.167 -0.4111 -0.0439  0.1983
 1188SOL    HW113478   4.231   3.145   0.236  0.2667 -1.1802  0.8995
 1188SOL    HW213479   4.265   3.123   0.078 -1.1601  0.7449  0.3056
 1189SOL     OW13480   1.885   6.802   2.250 -0.6057  0.0297  0.3278
 1189SOL    HW113481   1.914   6.894   2.277 -0.7197 -0.2220  1.3082
 1189SOL    HW213482   1.947   6.767   2.180 -0.3207  0.6873  0.2471
 1190SOL     OW13483   1.743   2.949   2.446  0.1611 -0.0418  0.4505
 1190SOL    HW113484   1.797   2.873   2.409  0.7889 -0.3924  2.0704
 1190SOL    HW213485   1.686   2.916   2.521 -0.7818  0.7587  0.0954
 1191SOL     OW13486   3.200   5.706   2.427 -0.8017 -0.1901 -0.5710
 1191SOL    HW113487   3.285   5.716   2.376  0.9556 -0.1629  2.2405
 1191SOL    HW213488   3.209   5.631   2.492 -3.2923 -0.8003 -0.8854
 1192SOL     OW13489   3.208  10.055   0.506 -0.5179  0.0667  0.6036
 1192SOL    HW113490   3.124  10.094   0.468 -0.3230 -0.1402 -0.0420
 1192SOL    HW213491   3.186   9.997   0.584 -0.8610  1.0584  1.2502
 1193SOL     OW13492   4.389   9.184   0.955  0.1077  0.1292  0.5901
 1193SOL    HW113493   4.359   9.278   0.944  0.8179  0.3923  0.8948
 1193SOL    HW213494   4.392   9.160   1.052  1.4989  0.3181  0.6097
 1194SOL     OW13495   3.274   1.795   1.573 -0.6147 -0.0849 -0.1755
 1194SOL    HW113496   3.240   1.795   1.479 -0.3058 -0.3744 -0.2896
 1194SOL    HW213497   3.259   1.705   1.614 -0.2708 -0.1181 -0.1227
 1195SOL     OW13498   4.046   2.757   1.418  0.6420  0.5253  0.4889
 1195SOL    HW113499   3.953   2.731   1.443  0.7415 -0.4257 -0.1325
 1195SOL    HW213500   4.044   2.847   1.374  0.1175  0.8602  1.1707
 1196SOL     OW13501   3.222   2.502   1.653 -0.4832  0.4005 -0.2453
 1196SOL    HW113502   3.301   2.455   1.616 -1.3813 -0.4759 -1.0827
 1196SOL    HW213503   3.148   2.436   1.670 -0.3840  0.8792  2.3605
 1197SOL     OW13504   0.958   5.141   1.957  0.0651 -0.2092 -0.0768
 1197SOL    HW113505   0.884   5.197   1.920  0.1215  1.0857  1.6764
 1197SOL    HW213506   1.046   5.185   1.937  0.1821 -0.2852  0.2670
 1198SOL     OW13507   4.463   4.137   0.512  0.4501  0.2867  0.4365
 1198SOL    HW113508   4.482   4.142   0.610  0.1733 -0.5940  0.5345
 1198SOL    HW213509   4.382   4.191   0.491  1.2967  1.5933  0.4773
 1199SOL     OW13510   3.458   0.450   2.073 -0.1679  0.5879  0.1290
 1199SOL    HW113511   3.514   0.401   2.007  2.8337  2.7012  1.0194
 1199SOL    HW213512   3.498   0.441   2.164 -2.4770  0.3821  1.1715
 1200SOL     OW13513   3.821   4.805   2.424 -0.0652  0.1579  0.4605
 1200SOL    HW113514   3.876   4.819   2.507 -2.0491  1.0631  1.6476
 1200SOL    HW213515   3.729   4.841   2.438  0.3077  2.8761 -3.0794
 1201SOL     OW13516   3.950   8.667   0.633 -0.0574  0.3771  0.0538
 1201SOL    HW113517   3.879   8.622   0.578  1.0926  0.3945 -1.4701
 1201SOL    HW213518   3.975   8.754   0.590  0.6973  0.5007  0.7398
 1202SOL     OW13519   3.753   8.270   1.472 -0.1395 -0.1794  0.7251
 1202SOL    HW113520   3.712   8.232   1.555 -0.4732 -2.0811 -0.2850
 1202SOL    HW213521   3.815   8.203   1.432 -0.5219  0.4493 -0.9427
 1203SOL     OW13522   1.142   5.928   2.141 -0.2333 -0.4124  0.0810
 1203SOL    HW113523   1.098   5.840   2.157 -0.0165 -0.6079 -0.4037
 1203SOL    HW213524   1.080   6.002   2.168  0.0027 -0.7314  1.5365
 1204SOL     OW13525   4.628   2.250   0.185  0.1194 -1.0738 -0.5713
 1204SOL    HW113526   4.553   2.206   0.135 -1.4246  0.3429  0.4599
 1204SOL    HW213527   4.646   2.199   0.269  0.0711 -1.1906 -0.6303
 1205SOL     OW13528   2.197   4.450   2.364  0.3839 -0.6363 -0.7578
 1205SOL    HW113529   2.240   4.404   2.441  1.6075 -2.0716 -2.2673
 1205SOL    HW213530   2.183   4.385   2.289 -0.7407  0.7403 -1.7779
 1206SOL     OW13531   4.230   0.286   0.428 -0.1350  0.5894 -0.5444
 1206SOL    HW113532   4.155   0.241   0.476  0.5186 -1.6794 -1.5637
 1206SOL    HW213533   4.226   0.263   0.331  0.1860  2.8456 -1.1095
 1207SOL     OW13534   3.561   8.559   0.200  0.0199  0.0076  0.1145
 1207SOL    HW113535   3.629   8.507   0.147 -1.6424  1.3338 -3.4856
 1207SOL    HW213536   3.475   8.509   0.201  0.0264  0.0099  1.6326
 1208SOL     OW13537   1.108   5.684   1.145 -0.3418  0.1854 -0.3500
 1208SOL    HW113538   1.130   5.704   1.241  1.4996  0.4561 -0.8016
 1208SOL    HW213539   1.101   5.585   1.133  0.1591  0.1122 -0.0798
 1209SOL     OW13540   9.906   4.940   0.055  0.1650 -0.1187 -0.5777
 1209SOL    HW113541   9.950   4.924  -0.033  1.2442  1.2405 -0.3114
 1209SOL    HW213542   9.807   4.949   0.042  0.0861 -1.9714 -1.3550
 1210SOL     OW13543   3.837   1.628   1.035  0.0548  0.7940  0.9811
 1210SOL    HW113544   3.920   1.638   1.089  0.1426  0.8780  0.8312
 1210SOL    HW213545   3.762   1.600   1.094  0.3681 -0.0454  0.9891
 1211SOL     OW13546   4.500   3.291   0.324  0.3871  0.3146 -0.1455
 1211SOL    HW113547   4.464   3.382   0.303  0.5570 -0.0172 -1.9324
 1211SOL    HW213548   4.431   3.222   0.304  0.6581 -0.0345  0.1114
 1212SOL     OW13549   9.348   5.418   0.186  0.4476 -0.5180 -0.3604
 1212SOL    HW113550   9.317   5.324   0.175  0.9336 -0.7640  0.2989
 1212SOL    HW213551   9.443   5.418   0.219 -0.7643  0.1621  3.2830
 1213SOL     OW13552   5.241   2.851   1.727  0.4354 -0.0245 -0.2093
 1213SOL    HW113553   5.241   2.760   1.769  1.3591  0.2430  0.3844
 1213SOL    HW213554   5.298   2.850   1.645 -1.2762 -0.5180 -1.4337
 1214SOL     OW13555   3.613  10.164   1.109 -0.4986  0.2236  0.3021
 1214SOL    HW113556   3.513  10.175   1.113 -0.9899 -2.8972 -1.7303
 1214SOL    HW213557   3.642  10.104   1.184  0.1984  2.9338  2.2661
 1215SOL     OW13558   0.988   5.256   1.624 -0.3855 -0.0198  0.0694
 1215SOL    HW113559   0.905   5.250   1.678 -0.5445 -1.7636 -0.3161
 1215SOL    HW213560   1.067   5.259   1.685 -0.6353 -0.4583  0.4175
 1216SOL     OW13561   2.686   7.399   0.667  0.3329 -0.7056  0.2703
 1216SOL    HW113562   2.657   7.374   0.759  0.5364  1.5238  0.9702
 1216SOL    HW213563   2.768   7.456   0.672 -1.0568  1.5279 -1.0906
 1217SOL     OW13564   1.446   3.081   1.768 -0.4778 -0.3506 -0.1306
 1217SOL    HW113565   1.448   3.095   1.867 -0.7122  0.8423 -0.2878
 1217SOL    HW213566   1.481   2.990   1.747 -0.5607 -0.6676  1.0596
 1218SOL     OW13567   2.220   5.010   1.024 -0.3737  0.2771  0.0196
 1218SOL    HW113568   2.288   4.968   0.964  0.8546  1.5013  0.5250
 1218SOL    HW213569   2.169   5.079   0.973 -0.4024  0.2128 -0.0385
 1219SOL     OW13570   2.729   2.215   0.212  0.4660  0.4790  0.4098
 1219SOL    HW113571   2.662   2.161   0.161  1.3599 -0.2228 -0.0643
 1219SOL    HW213572   2.715   2.202   0.310 -0.0348  0.2622  0.3109
 1220SOL     OW13573   3.454   4.028   0.191 -0.1037  0.0735 -0.0498
 1220SOL    HW113574   3.481   3.986   0.277  0.3614 -2.3586 -1.3233
 1220SOL    HW213575   3.533   4.031   0.129 -0.6568  0.9567 -0.7274
 1221SOL     OW13576   2.784   3.722   2.010  0.5755  0.1288 -0.3798
 1221SOL    HW113577   2.693   3.681   2.013  0.5338  0.2447 -0.0684
 1221SOL    HW213578   2.805   3.764   2.099  1.3554 -0.8165 -0.1111
 1222SOL     OW13579   2.159   2.337   0.968  0.4649  0.2856  0.6883
 1222SOL    HW113580   2.159   2.295   1.059  0.0293  1.4708  1.2373
 1222SOL    HW213581   2.101   2.418   0.968  1.0300  0.7040 -0.4584
 1223SOL     OW13582   1.338   3.843   0.229  0.8642 -0.2024 -0.1194
 1223SOL    HW113583   1.414   3.895   0.189 -0.4131  0.5393 -1.6367
 1223SOL    HW213584   1.251   3.880   0.196 -0.1821 -0.8811  1.7927
 1224SOL     OW13585   3.457  10.118   0.015  0.1041 -0.2785 -0.2898
 1224SOL    HW113586   3.420  10.027  -0.001  1.5938 -0.7999 -0.8545
 1224SOL    HW213587   3.485  10.158  -0.072 -0.2049  0.5778  0.0003
 1225SOL     OW13588   1.630   5.338   1.780 -0.1583  0.3463 -0.4315
 1225SOL    HW113589   1.643   5.389   1.864 -1.2143 -0.6277  0.3413
 1225SOL    HW213590   1.663   5.244   1.792 -0.6534  0.0972 -0.9720
 1226SOL     OW13591   3.246   1.253   1.980 -0.2103 -0.5621  0.1115
 1226SOL    HW113592   3.174   1.190   2.006  0.0359 -0.7226  0.4055
 1226SOL    HW213593   3.329   1.233   2.033 -0.3934  0.5533  0.8345
 1227SOL     OW13594   1.721   3.185   2.298  0.7862  0.3832 -0.1064
 1227SOL    HW113595   1.652   3.236   2.350  1.5074  1.6396 -0.3639
 1227SOL    HW213596   1.730   3.093   2.336 -0.6588  0.3725  0.2589
 1228SOL     OW13597   4.502   2.566   0.900 -0.4915 -0.2773 -0.4345
 1228SOL    HW113598   4.574   2.583   0.967 -0.0078 -0.1143 -0.9895
 1228SOL    HW213599   4.535   2.589   0.808 -1.0898 -0.6569 -0.7533
 1229SOL     OW13600   4.363   0.766   0.814 -0.0769 -0.1747 -0.7875
 1229SOL    HW113601   4.451   0.719   0.818 -1.1087 -2.0972 -0.0035
 1229SOL    HW213602   4.340   0.801   0.905  0.4000  1.3663 -1.2387
 1230SOL     OW13603   2.848   1.382   2.268  0.2346 -0.4250 -0.2569
 1230SOL    HW113604   2.919   1.338   2.213 -0.1239 -0.9743 -0.2857
 1230SOL    HW213605   2.808   1.458   2.217  0.6694 -0.2344 -0.3164
 1231SOL     OW13606   9.666   4.804   2.563  0.2120 -0.1638 -0.0121
 1231SOL    HW113607   9.655   4.712   2.526  0.7310 -0.5357  0.7615
 1231SOL    HW213608   9.635   4.871   2.495 -1.4920 -0.9554 -0.0393
 1232SOL     OW13609   0.647   5.250   1.110  0.5628  0.6894  0.2598
 1232SOL    HW113610   0.564   5.302   1.089 -0.0164 -0.0482  0.6643
 1232SOL    HW213611   0.650   5.232   1.209  1.6322  1.4200  0.3640
 1233SOL     OW13612   1.580   3.634   1.387  0.4308 -0.5272 -0.5138
 1233SOL    HW113613   1.586   3.611   1.484 -0.1302 -0.7293 -0.5303
 1233SOL    HW213614   1.525   3.717   1.375 -0.2317 -0.9973 -0.7346
 1234SOL     OW13615   3.076   3.899   1.556 -0.3545 -0.1077  0.5677
 1234SOL    HW113616   3.026   3.892   1.643 -0.0479  0.9143  0.8310
 1234SOL    HW213617   3.013   3.925   1.484 -0.0855  1.9105  1.0396
 1235SOL     OW13618   4.439   9.453   0.638 -0.5352 -0.1934  0.4331
 1235SOL    HW113619   4.537   9.430   0.639 -0.8076 -1.4752 -0.2752
 1235SOL    HW213620   4.404   9.453   0.731  0.0288 -0.2722  0.6507
 1236SOL     OW13621   5.777   3.589   0.958  0.1971 -0.0120 -0.1980
 1236SOL    HW113622   5.720   3.607   0.878  1.6177  1.1432 -0.9799
 1236SOL    HW213623   5.779   3.491   0.976 -1.8407 -0.0863 -0.2871
 1237SOL     OW13624   1.104   3.606   1.752 -0.7097  0.3458  0.6826
 1237SOL    HW113625   1.162   3.557   1.816 -0.5154  0.5423  0.6596
 1237SOL    HW213626   1.116   3.568   1.660  1.6691  2.3118  0.1191
 1238SOL     OW13627   4.261   9.175   1.381 -0.1984 -0.2086  0.3842
 1238SOL    HW113628   4.229   9.148   1.472 -0.7515  0.5237  0.4134
 1238SOL    HW213629   4.326   9.107   1.347 -0.3890 -0.7586  1.1036
 1239SOL     OW13630   3.035   9.000   1.786  0.1560 -0.6036  0.5206
 1239SOL    HW113631   3.045   9.013   1.885 -0.7273 -0.9474  0.6555
 1239SOL    HW213632   2.975   9.071   1.749  1.5119  0.3075  0.0114
 1240SOL     OW13633   4.038   3.691   2.242 -0.7792 -0.1721 -0.7410
 1240SOL    HW113634   4.011   3.737   2.326  0.5228  0.0195 -0.4078
 1240SOL    HW213635   4.014   3.748   2.163  0.3391  0.8522 -0.3600
 1241SOL     OW13636   2.695   6.625   1.130 -0.4107 -0.4055 -0.0415
 1241SOL    HW113637   2.666   6.716   1.101  0.4892 -0.3933 -0.8950
 1241SOL    HW213638   2.790   6.610   1.105  0.3774 -0.4447  2.7703
 1242SOL     OW13639   4.066   4.563   2.346 -0.3804  0.0426  0.1015
 1242SOL    HW113640   4.113   4.645   2.379 -1.0295  0.3906  0.1655
 1242SOL    HW213641   3.974   4.587   2.318 -1.0192 -0.8992  1.3426
 1243SOL     OW13642   3.959   5.149   1.709  0.5923  0.3147 -0.5606
 1243SOL    HW113643   3.960   5.049   1.720  1.6759  0.3611 -0.1000
 1243SOL    HW213644   4.008   5.190   1.786 -0.3926  1.2431 -0.4210
 1244SOL     OW13645   2.350   6.983   0.057 -0.7973  0.2685 -0.0479
 1244SOL    HW113646   2.420   6.937   0.112  0.6575  1.4054 -0.8992
 1244SOL    HW213647   2.295   7.043   0.116 -0.8539 -0.3994  0.5801
 1245SOL     OW13648   3.858   3.424   2.470  0.3479 -0.2304  0.3019
 1245SOL    HW113649   3.847   3.433   2.569 -1.1438 -1.4228  0.2492
 1245SOL    HW213650   3.956   3.427   2.448  0.7352 -0.5673  1.8718
 1246SOL     OW13651   0.685   5.974  -0.016 -0.6287 -0.5583 -0.1540
 1246SOL    HW113652   0.682   5.917   0.066  0.7814 -1.0684 -0.4436
 1246SOL    HW213653   0.751   5.936  -0.081 -1.4661  0.0410 -1.3790
 1247SOL     OW13654   3.997   0.699   0.274  0.7317 -0.3267 -0.2325
 1247SOL    HW113655   3.927   0.687   0.345 -0.0422  1.8593 -0.6074
 1247SOL    HW213656   4.020   0.796   0.266  1.2344 -0.6219 -2.5767
 1248SOL     OW13657   2.567   4.883   0.128  0.3040 -0.0184 -0.2618
 1248SOL    HW113658   2.615   4.825   0.063 -0.2037 -1.7769  0.8897
 1248SOL    HW213659   2.631   4.947   0.170  0.9405  0.0415 -1.3188
 1249SOL     OW13660   3.091   9.025   2.060  0.2597  0.3835  0.1754
 1249SOL    HW113661   3.020   9.030   2.130  0.9258  1.9761  0.7686
 1249SOL    HW213662   3.178   9.002   2.104 -0.0179 -2.3370 -0.6477
 1250SOL     OW13663   2.090   3.661   0.253  0.0285 -0.1720  0.2986
 1250SOL    HW113664   2.043   3.739   0.295 -0.2570 -0.0155 -0.3026
 1250SOL    HW213665   2.126   3.688   0.164  0.7069 -0.4755  0.4811
 1251SOL     OW13666   4.036   0.961   0.408 -0.0883  0.1834  0.0758
 1251SOL    HW113667   4.020   0.872   0.450 -3.0058  1.7058  2.3256
 1251SOL    HW213668   4.109   1.009   0.457  0.7174 -0.4851 -0.4520
 1252SOL     OW13669   4.165   2.247   2.536 -0.6657 -0.2633  0.2820
 1252SOL    HW113670   4.100   2.208   2.600 -0.8969 -1.5741 -0.7294
 1252SOL    HW213671   4.144   2.215   2.444  1.2353 -0.4851 -0.0925
 1253SOL     OW13672   3.427   2.193   0.054  0.0584  0.1835 -0.2372
 1253SOL    HW113673   3.365   2.116   0.060  0.1863  0.1607  1.0674
 1253SOL    HW213674   3.437   2.222  -0.041 -1.0361 -0.5440 -0.5748
 1254SOL     OW13675   2.996   3.413   1.914 -0.0193 -0.0895 -0.4075
 1254SOL    HW113676   3.037   3.330   1.952 -0.5680 -0.4605 -0.6205
 1254SOL    HW213677   3.037   3.493   1.958  0.8639 -0.4538 -0.5453
 1255SOL     OW13678   2.123   7.706   0.577 -0.7626  0.4359 -0.0479
 1255SOL    HW113679   2.155   7.614   0.553 -0.6586  0.0040  1.7116
 1255SOL    HW213680   2.026   7.704   0.597 -0.9065  0.8525 -0.6725
 1256SOL     OW13681   4.447   1.355   0.396  0.1061 -0.1858 -0.0456
 1256SOL    HW113682   4.349   1.336   0.386  0.0072 -0.6269  1.5659
 1256SOL    HW213683   4.478   1.411   0.320 -1.0059 -1.5467 -1.5486
 1257SOL     OW13684   3.019   9.294   1.811  0.2795 -0.3634 -0.1996
 1257SOL    HW113685   2.970   9.298   1.724  0.8332 -0.0204 -0.4981
 1257SOL    HW213686   2.953   9.285   1.886 -0.2522  0.2773 -0.5858
 1258SOL     OW13687   3.457   6.006  -0.018 -0.2534 -0.1428  0.7400
 1258SOL    HW113688   3.466   6.072   0.056  1.7162  0.4663 -0.0239
 1258SOL    HW213689   3.516   5.927  -0.000  0.0947 -0.0773 -0.0813
 1259SOL     OW13690   9.556   5.524   1.413 -0.3770 -0.2924 -0.2765
 1259SOL    HW113691   9.468   5.519   1.460 -1.8728 -1.8114 -3.1243
 1259SOL    HW213692   9.548   5.587   1.335  1.4103  0.4394  0.1102
 1260SOL     OW13693   0.812   4.557   1.119 -0.0378 -0.6606  0.3417
 1260SOL    HW113694   0.728   4.610   1.130  1.1696  1.7051 -1.4076
 1260SOL    HW213695   0.876   4.581   1.192  0.4489  0.2062 -0.3599
 1261SOL     OW13696   2.181   5.569   1.151  0.6834 -0.3945 -0.0587
 1261SOL    HW113697   2.086   5.552   1.176  0.5403  1.1528  0.4963
 1261SOL    HW213698   2.240   5.556   1.231  0.5934  1.4968  0.3176
 1262SOL     OW13699   1.958   6.168   1.526 -0.4718 -0.8178 -0.8210
 1262SOL    HW113700   2.054   6.140   1.521 -0.8547 -1.9724 -1.8640
 1262SOL    HW213701   1.899   6.089   1.511 -1.5970 -0.0349 -0.5909
 1263SOL     OW13702   3.271   6.344   2.202 -0.4644  0.4756  0.1513
 1263SOL    HW113703   3.337   6.299   2.262 -0.3533  0.1051 -0.2393
 1263SOL    HW213704   3.201   6.278   2.175  0.1757  0.2855 -1.1121
 1264SOL     OW13705   3.919   0.910   1.123  0.0277 -0.2491  0.3006
 1264SOL    HW113706   4.004   0.937   1.078  0.8997 -2.1871  0.7399
 1264SOL    HW213707   3.880   0.830   1.077  0.4040 -1.6339  2.3127
 1265SOL     OW13708   1.049   5.879   0.465  0.2061  0.6133  0.9649
 1265SOL    HW113709   1.024   5.937   0.388  0.8411  0.0394  0.3091
 1265SOL    HW213710   1.121   5.815   0.436 -1.3074 -1.2845  1.3278
 1266SOL     OW13711   2.412   3.862   0.927  0.2435 -0.6465 -0.5258
 1266SOL    HW113712   2.382   3.811   0.847  0.1368 -1.1649 -0.1560
 1266SOL    HW213713   2.354   3.942   0.940  0.7569 -0.1119 -1.4331
 1267SOL     OW13714   3.400   0.248   1.558 -0.1973 -0.0960  0.4661
 1267SOL    HW113715   3.399   0.321   1.490  0.4913  1.2177  1.8353
 1267SOL    HW213716   3.370   0.284   1.646 -0.5746 -1.6519  0.9888
 1268SOL     OW13717   2.413   4.474   0.135  0.7620  0.0492 -0.8732
 1268SOL    HW113718   2.401   4.431   0.046  3.6757  0.8959 -1.7378
 1268SOL    HW213719   2.457   4.410   0.198  0.9184  0.2357 -0.7895
 1269SOL     OW13720   0.507   4.776   0.672 -0.5510  0.3462  0.5152
 1269SOL    HW113721   0.603   4.749   0.681 -0.3730  0.4335 -0.9261
 1269SOL    HW213722   0.452   4.694   0.656 -0.5610  0.4123  0.2070
 1270SOL     OW13723   3.136   3.676   0.756  0.4090 -0.0114 -0.0365
 1270SOL    HW113724   3.171   3.615   0.827  0.9594 -1.1658 -1.2726
 1270SOL    HW213725   3.213   3.721   0.709  0.2251 -1.6824 -1.9951
 1271SOL     OW13726   2.388   3.438   2.057  0.0063 -0.3359  0.1468
 1271SOL    HW113727   2.420   3.532   2.043 -0.6088  0.0023  0.9594
 1271SOL    HW213728   2.382   3.421   2.156 -2.0046 -0.5099 -0.0005
 1272SOL     OW13729   3.279   9.572   0.373  0.6220  0.5233 -0.0677
 1272SOL    HW113730   3.307   9.660   0.334  1.3844  0.1243 -0.4183
 1272SOL    HW213731   3.354   9.506   0.366 -0.4864 -0.6408 -1.2804
 1273SOL     OW13732   3.396  10.231   0.453 -0.1803 -0.2496 -0.2241
 1273SOL    HW113733   3.462  10.172   0.407 -0.1062 -2.9160  3.0811
 1273SOL    HW213734   3.317  10.177   0.482 -2.6018  2.3611 -1.7011
 1274SOL     OW13735   4.133   1.404   0.617 -0.1453 -0.6437 -0.0847
 1274SOL    HW113736   4.158   1.356   0.534  1.8260  0.6363 -0.2772
 1274SOL    HW213737   4.076   1.483   0.594  0.5353 -0.1966 -0.2359
 1275SOL     OW13738   1.611   3.998   1.671  0.2974  0.3544  0.0699
 1275SOL    HW113739   1.622   4.097   1.665  0.3968  0.3359 -0.0548
 1275SOL    HW213740   1.534   3.969   1.615  2.8759 -0.1325 -3.4141
 1276SOL     OW13741   4.427   1.715   1.718 -0.6283 -0.1782  0.0894
 1276SOL    HW113742   4.512   1.715   1.665 -2.4228 -2.1338 -2.9316
 1276SOL    HW213743   4.428   1.640   1.784 -1.3215 -2.3428 -2.2855
 1277SOL     OW13744   2.110   1.427   0.574 -0.2906 -0.5916 -0.5583
 1277SOL    HW113745   2.092   1.333   0.544 -0.9835 -0.2396 -1.2937
 1277SOL    HW213746   2.135   1.428   0.671 -3.5061 -1.2317  0.3274
 1278SOL     OW13747   3.426   5.357   1.773 -0.6551  0.1757 -0.3881
 1278SOL    HW113748   3.344   5.366   1.716  0.8242  0.9943 -2.4684
 1278SOL    HW213749   3.430   5.433   1.838 -1.2094  0.5005 -0.7244
 1279SOL     OW13750   4.724   4.562   1.143  0.3618 -0.0821  0.1813
 1279SOL    HW113751   4.751   4.606   1.057 -0.4748  0.7454  0.3382
 1279SOL    HW213752   4.653   4.617   1.188  0.9797 -0.3741  1.5285
 1280SOL     OW13753   2.714   2.788   2.372 -0.5207  0.2072  0.0419
 1280SOL    HW113754   2.735   2.882   2.345  0.9027  0.1971  1.0416
 1280SOL    HW213755   2.752   2.725   2.305  1.0041  0.2580  0.8427
 1281SOL     OW13756   1.500   4.941   0.481 -0.0069 -0.8088 -0.1920
 1281SOL    HW113757   1.507   4.999   0.562 -0.1198  1.4284 -1.7446
 1281SOL    HW213758   1.567   4.971   0.413  0.4782 -3.0263 -0.7448
 1282SOL     OW13759   1.801   6.665   0.715 -0.2712 -0.0536  0.1845
 1282SOL    HW113760   1.781   6.750   0.666  0.0493 -0.6760 -1.0535
 1282SOL    HW213761   1.900   6.657   0.730 -0.3923  0.2626  1.1861
 1283SOL     OW13762   3.146  10.097   1.388 -0.1054  0.3036 -0.1591
 1283SOL    HW113763   3.088  10.175   1.411 -0.2442 -0.0144  0.5737
 1283SOL    HW213764   3.231  10.103   1.441  0.5546  0.7921 -1.2540
 1284SOL     OW13765   5.365   3.996   2.099 -0.2985  0.0493 -0.7301
 1284SOL    HW113766   5.324   3.915   2.057 -0.0283  0.0567 -1.0031
 1284SOL    HW213767   5.362   4.072   2.034 -0.0942  0.1229 -0.6528
 1285SOL     OW13768   2.763   0.881   2.346  0.1593 -0.0655  0.4876
 1285SOL    HW113769   2.854   0.880   2.304  0.1667  0.9056  0.4553
 1285SOL    HW213770   2.765   0.938   2.428 -0.7708  1.2264 -0.3622
 1286SOL     OW13771   2.760   4.218   1.671  0.1091 -0.0811  0.6404
 1286SOL    HW113772   2.707   4.134   1.661  0.6014 -0.3550  0.3284
 1286SOL    HW213773   2.717   4.290   1.616  0.5384 -0.5254 -0.2894
 1287SOL     OW13774   1.382   4.600   2.326  0.0083  0.3875  0.3539
 1287SOL    HW113775   1.343   4.552   2.404  1.3118 -3.2058 -1.0991
 1287SOL    HW213776   1.480   4.614   2.339 -0.0419  1.1515  0.0051
 1288SOL     OW13777   3.300   4.109   1.070 -0.3640 -0.0241 -0.3466
 1288SOL    HW113778   3.258   4.189   1.113 -1.6988  0.0146 -1.6989
 1288SOL    HW213779   3.265   4.099   0.977 -1.8174 -3.4113  0.5048
 1289SOL     OW13780   3.588   9.954   1.595 -0.0199  0.5667  0.2087
 1289SOL    HW113781   3.596   9.889   1.671 -0.6605 -0.5498 -0.6602
 1289SOL    HW213782   3.660  10.023   1.602  0.8282 -0.3854  1.0094
 1290SOL     OW13783   2.139   4.990   0.658 -0.0313  0.0174  0.0111
 1290SOL    HW113784   2.127   5.076   0.707 -2.1473 -1.2463  1.8358
 1290SOL    HW213785   2.205   4.933   0.706  0.4899  0.1498 -0.5444
 1291SOL     OW13786   3.074  10.222   0.800 -0.3187 -0.1594 -0.3707
 1291SOL    HW113787   3.161  10.271   0.798 -0.3042 -0.1265  0.6798
 1291SOL    HW213788   3.090  10.128   0.830 -0.4776 -0.5364 -1.4360
 1292SOL     OW13789   4.045   8.212   0.692  0.2000  0.4817  0.7691
 1292SOL    HW113790   4.052   8.116   0.719 -1.2864  0.2219  0.3162
 1292SOL    HW213791   4.124   8.263   0.726  1.7248 -1.1878 -0.2119
 1293SOL     OW13792   3.371   7.693   1.830  0.6738  0.4557 -0.2118
 1293SOL    HW113793   3.297   7.650   1.882  0.1240  0.9755 -0.5511
 1293SOL    HW213794   3.337   7.778   1.789  0.8168 -0.4307 -2.2429
 1294SOL     OW13795   4.279   8.327   1.117  0.1496  0.1365 -0.1121
 1294SOL    HW113796   4.346   8.262   1.082  0.4489 -1.2183  2.8655
 1294SOL    HW213797   4.309   8.421   1.097  1.5365 -0.5264 -1.2035
 1295SOL     OW13798   2.632   3.648   0.798  0.1507  0.2382  0.4733
 1295SOL    HW113799   2.535   3.664   0.819  0.3857  0.1673  1.6473
 1295SOL    HW213800   2.639   3.586   0.720 -0.7506  0.7103  0.0029
 1296SOL     OW13801   3.942   1.529   2.153 -0.1994  0.0701 -0.6170
 1296SOL    HW113802   3.850   1.496   2.170 -0.1050 -0.4480 -1.0979
 1296SOL    HW213803   3.961   1.608   2.211  0.1767 -1.7566  1.7751
 1297SOL     OW13804   3.286   1.167   0.737  0.2802  0.0433 -0.4550
 1297SOL    HW113805   3.230   1.207   0.664 -0.4000  0.8716  0.5225
 1297SOL    HW213806   3.263   1.070   0.747 -1.8857  0.6592  0.7709
 1298SOL     OW13807   3.934   9.689   2.330  0.4617 -0.3201  0.1304
 1298SOL    HW113808   3.902   9.626   2.259 -0.8671 -0.0125  0.4439
 1298SOL    HW213809   3.869   9.690   2.406  0.8884  0.8044  0.4941
 1299SOL     OW13810   2.794   4.156   0.066  0.6315 -0.3476 -0.4891
 1299SOL    HW113811   2.766   4.131   0.158 -2.5724 -1.9889 -1.8370
 1299SOL    HW213812   2.844   4.080   0.024 -0.0111 -0.5258 -0.9372
 1300SOL     OW13813   1.990   6.098   2.016 -0.4506  0.6648 -0.1565
 1300SOL    HW113814   1.912   6.123   2.072  1.3236  1.4667  2.0420
 1300SOL    HW213815   2.031   6.181   1.977  1.8031  0.7356  2.1867
 1301SOL     OW13816   1.662   5.355   1.350  0.0975  0.1561  0.1422
 1301SOL    HW113817   1.668   5.262   1.387 -1.0475  0.6696  1.6681
 1301SOL    HW213818   1.698   5.420   1.417 -1.5317  1.0571  0.1572
 1302SOL     OW13819   3.651   1.278   0.880  0.1000  0.6506  0.3061
 1302SOL    HW113820   3.611   1.215   0.814  2.8224 -0.8797  0.0464
 1302SOL    HW213821   3.631   1.246   0.973  0.5320 -0.0011  0.1785
 1303SOL     OW13822   3.965   4.436   1.694 -0.0681 -0.3193  0.2332
 1303SOL    HW113823   4.019   4.491   1.758  0.4195 -1.2954  0.6822
 1303SOL    HW213824   4.023   4.406   1.619 -0.4297  0.1041 -0.2167
 1304SOL     OW13825   2.423   6.935   2.037  0.6048  0.5675  0.0949
 1304SOL    HW113826   2.469   6.851   2.006 -0.0735 -0.5237  1.9538
 1304SOL    HW213827   2.386   6.983   1.958 -0.5951 -1.8532 -0.8800
 1305SOL     OW13828   3.858   5.855   0.665  0.6353 -0.4969  0.0023
 1305SOL    HW113829   3.761   5.865   0.685  0.4446 -0.7362 -0.7723
 1305SOL    HW213830   3.890   5.937   0.616  0.5789 -0.8729 -0.6643
 1306SOL     OW13831   4.976   2.175   0.243  0.5159 -0.1421 -1.2484
 1306SOL    HW113832   5.011   2.199   0.153  0.5699 -0.9438 -1.4485
 1306SOL    HW213833   4.879   2.150   0.236  0.6277 -0.6108 -1.1583
 1307SOL     OW13834   0.937   5.632   1.720 -0.4608  0.2035  0.6391
 1307SOL    HW113835   0.925   5.618   1.818 -0.5240 -0.8004  0.4909
 1307SOL    HW213836   1.034   5.621   1.696 -0.5033  0.0585  0.5316
 1308SOL     OW13837   5.022   2.374   0.435  0.5087 -0.0683 -0.2441
 1308SOL    HW113838   5.104   2.352   0.487  1.3895 -0.3574 -1.7130
 1308SOL    HW213839   5.005   2.302   0.367 -1.7082 -0.6624  0.9022
 1309SOL     OW13840   4.246   5.056   2.014 -0.2693  0.1891  0.3102
 1309SOL    HW113841   4.201   4.970   2.040  0.1621 -0.0117  0.3861
 1309SOL    HW213842   4.345   5.046   2.022 -0.2445  0.9049  0.9584
 1310SOL     OW13843   3.339   7.366   1.265  0.4574  0.0623  0.3263
 1310SOL    HW113844   3.290   7.283   1.241 -0.4173  0.4353  0.7690
 1310SOL    HW213845   3.341   7.428   1.187 -0.4537  0.3571  0.5223
 1311SOL     OW13846   1.715   5.728   1.053  0.0638  0.0969  0.3836
 1311SOL    HW113847   1.691   5.775   0.968 -1.0966  0.9928  1.2002
 1311SOL    HW213848   1.739   5.633   1.032  1.5918  0.7838 -1.1750
 1312SOL     OW13849  10.102   5.482   0.991 -0.7562  0.1947  0.4888
 1312SOL    HW113850  10.036   5.556   1.004  0.8049  1.5706  0.6986
 1312SOL    HW213851  10.127   5.478   0.894  0.1852  0.8385  0.7026
 1313SOL     OW13852   1.382   3.785   2.514 -0.2336 -0.0246  0.7400
 1313SOL    HW113853   1.292   3.744   2.530 -0.3992 -0.1031 -0.3825
 1313SOL    HW213854   1.430   3.734   2.443  0.1454  0.8457  0.3585
 1314SOL     OW13855   2.307   2.165  -0.006 -0.5215  0.7989 -1.0766
 1314SOL    HW113856   2.382   2.230  -0.021 -1.5459  2.0099 -1.0901
 1314SOL    HW213857   2.265   2.182   0.084  0.0409 -0.7184 -0.5146
 1315SOL     OW13858   3.678   1.841   0.856  0.1942  0.1379 -0.3382
 1315SOL    HW113859   3.682   1.766   0.922  1.5751 -0.6491 -1.2948
 1315SOL    HW213860   3.727   1.920   0.892  0.8008 -0.2329 -0.3473
 1316SOL     OW13861   1.861   2.820   0.352 -0.3391  0.2506  0.7397
 1316SOL    HW113862   1.937   2.818   0.287 -0.0400  2.7343  0.9731
 1316SOL    HW213863   1.863   2.737   0.407  0.3298 -1.1722 -1.3470
 1317SOL     OW13864   3.627   9.262   0.819 -0.0024 -0.3404  0.7893
 1317SOL    HW113865   3.651   9.212   0.902  1.9775  0.7372  0.8808
 1317SOL    HW213866   3.708   9.306   0.781 -1.3416  1.2305 -0.3549
 1318SOL     OW13867   0.506   5.384   1.402  0.0507  0.4831 -0.3827
 1318SOL    HW113868   0.473   5.410   1.493 -0.4822 -1.1660 -0.0765
 1318SOL    HW213869   0.470   5.447   1.334 -1.2131  0.5487  0.3273
 1319SOL     OW13870   2.063   4.814   1.371  0.1344  0.6789 -0.6647
 1319SOL    HW113871   2.135   4.800   1.303  1.4562 -2.4086  1.2618
 1319SOL    HW213872   2.103   4.812   1.463 -2.3706 -1.2522  0.4538
 1320SOL     OW13873   3.223   7.717   2.172 -0.2541  0.5161 -0.2747
 1320SOL    HW113874   3.254   7.804   2.133 -4.2028  1.4527 -1.5864
 1320SOL    HW213875   3.191   7.731   2.265  3.5252 -0.5530  1.2778
 1321SOL     OW13876   3.601  10.230   1.917 -0.8920  0.1404 -0.0260
 1321SOL    HW113877   3.700  10.234   1.904 -0.9517  1.1299 -0.2866
 1321SOL    HW213878   3.576  10.147   1.966  0.1216  0.1179  0.4620
 1322SOL     OW13879   3.052   9.678   2.246 -0.0213  0.0295 -0.5649
 1322SOL    HW113880   3.075   9.738   2.169  1.8741  1.5316  1.1044
 1322SOL    HW213881   3.073   9.584   2.222  2.3843  0.6973 -1.2632
 1323SOL     OW13882   4.961   1.702   0.602  0.3240  0.2947 -0.1915
 1323SOL    HW113883   4.985   1.735   0.693  1.4950  0.4559 -0.5586
 1323SOL    HW213884   4.958   1.780   0.538  2.6494 -0.2105 -0.9616
 1324SOL     OW13885   0.667   5.160   0.538  0.3037  0.2178  0.2840
 1324SOL    HW113886   0.700   5.114   0.621 -0.3144 -0.7454  0.0134
 1324SOL    HW213887   0.595   5.225   0.562  0.6899  0.5275  0.5976
 1325SOL     OW13888   3.276   7.907   1.685 -0.2830 -0.6301 -0.1120
 1325SOL    HW113889   3.289   7.970   1.609  0.0976  0.0486  0.5114
 1325SOL    HW213890   3.205   7.943   1.746  2.5895  1.2012  2.3211
 1326SOL     OW13891   2.822   2.655   1.935  0.5125  0.0392  0.4437
 1326SOL    HW113892   2.798   2.636   1.840  1.5951  0.0252  0.1567
 1326SOL    HW213893   2.903   2.602   1.960 -0.7968 -1.3077  1.9410
 1327SOL     OW13894   0.844   3.701   1.161  0.6749  0.2945  0.2434
 1327SOL    HW113895   0.802   3.748   1.238 -1.5478  0.4660 -1.0514
 1327SOL    HW213896   0.840   3.758   1.080  0.6114 -0.9343 -0.6411
 1328SOL     OW13897   1.932   6.961   1.049 -0.0982 -0.0543 -0.0525
 1328SOL    HW113898   1.985   6.982   1.131 -0.4306 -0.1362  0.1835
 1328SOL    HW213899   1.852   6.907   1.074 -1.0751  1.3087 -0.2364
 1329SOL     OW13900   3.754  10.073   2.578  0.0885 -0.5594 -0.5240
 1329SOL    HW113901   3.725   9.984   2.543  0.2793 -0.6267 -0.5095
 1329SOL    HW213902   3.707  10.145   2.528 -1.2704 -0.6977  0.5207
 1330SOL     OW13903   4.433   2.184   2.306 -0.2588 -0.1286  0.6890
 1330SOL    HW113904   4.334   2.169   2.306 -0.4360  1.0084  1.6032
 1330SOL    HW213905   4.477   2.116   2.365 -0.5106 -0.5057  0.4437
 1331SOL     OW13906   1.754   4.378   1.390 -0.0089 -0.5522 -0.4704
 1331SOL    HW113907   1.784   4.473   1.380 -0.0990 -0.4528  0.1760
 1331SOL    HW213908   1.744   4.337   1.299 -1.5747  0.5678 -0.8418
 1332SOL     OW13909   2.832   3.676   1.038  0.2115 -0.0475  0.1946
 1332SOL    HW113910   2.788   3.661   1.126 -0.9130  0.8369 -0.2119
 1332SOL    HW213911   2.763   3.687   0.967  1.1156 -1.6625 -0.9629
 1333SOL     OW13912   2.422   3.250   0.585 -0.0462  0.8129  0.0936
 1333SOL    HW113913   2.478   3.236   0.503  0.7097  0.4736  0.6651
 1333SOL    HW213914   2.408   3.162   0.631 -1.5247  0.8020 -0.3495
 1334SOL     OW13915   3.113   3.627   2.006 -0.3161  0.4102  0.4958
 1334SOL    HW113916   3.177   3.603   2.079 -0.3983 -0.4551  0.2862
 1334SOL    HW213917   3.037   3.679   2.044 -0.8236 -0.8141  1.1898
 1335SOL     OW13918   2.513   6.424   2.176 -0.0355 -0.2174 -0.1695
 1335SOL    HW113919   2.559   6.340   2.204 -0.7959 -1.2724 -1.9612
 1335SOL    HW213920   2.539   6.446   2.082 -2.6745 -0.5019 -1.0083
 1336SOL     OW13921   3.116   2.770   1.206  0.3811 -0.1653 -0.1008
 1336SOL    HW113922   3.155   2.714   1.279 -0.0114  1.8056  1.6938
 1336SOL    HW213923   3.017   2.776   1.219  0.5229  1.6590  0.2879
 1337SOL     OW13924   2.560   2.739   2.574  0.6548  0.2124 -0.4447
 1337SOL    HW113925   2.590   2.689   2.655  0.3223  0.9062  0.1173
 1337SOL    HW213926   2.622   2.720   2.498  2.0087  0.9196  0.4565
 1338SOL     OW13927   0.373   3.914   1.291 -0.4738 -0.8008 -0.4430
 1338SOL    HW113928   0.394   4.010   1.273  0.7128 -0.9475  0.0988
 1338SOL    HW213929   0.447   3.856   1.257 -0.0972 -1.3494  1.2674
 1339SOL     OW13930   1.419   6.644   2.332  0.2428 -0.5006  0.0842
 1339SOL    HW113931   1.422   6.736   2.293 -1.3868 -0.6004 -0.3135
 1339SOL    HW213932   1.503   6.595   2.309  0.7779  0.6186 -0.3679
 1340SOL     OW13933   2.601  10.166   1.289  0.7375  0.1214  0.2041
 1340SOL    HW113934   2.661  10.094   1.325 -1.9195 -1.1153  2.3756
 1340SOL    HW213935   2.570  10.224   1.364 -1.9448 -0.1910 -0.6035
 1341SOL     OW13936   4.516   2.277   0.828  0.0894  0.6514 -0.0582
 1341SOL    HW113937   4.507   2.366   0.871  0.7129 -0.2467  2.0030
 1341SOL    HW213938   4.608   2.242   0.843  0.0669 -0.0305 -1.4563
 1342SOL     OW13939   1.812   5.960   1.395  0.4279 -0.1717  0.4143
 1342SOL    HW113940   1.748   5.884   1.407  0.6067 -0.4094 -0.1723
 1342SOL    HW213941   1.779   6.020   1.322 -0.3516  0.9770  1.6765
 1343SOL     OW13942   3.455   2.193   1.822  0.1113  0.1191 -0.1299
 1343SOL    HW113943   3.507   2.201   1.736 -1.0344 -2.4791 -1.1056
 1343SOL    HW213944   3.370   2.143   1.805  0.2131 -1.0830  2.6607
 1344SOL     OW13945   0.866   6.643   0.805 -0.1403 -0.2831 -0.7623
 1344SOL    HW113946   0.799   6.689   0.863 -1.1364 -1.1960 -1.1721
 1344SOL    HW213947   0.889   6.553   0.843 -1.5632 -1.3255 -2.2688
 1345SOL     OW13948   1.603   6.327   0.373 -0.5630 -0.1587  0.1943
 1345SOL    HW113949   1.552   6.411   0.352  0.2928  0.3285  0.0437
 1345SOL    HW213950   1.558   6.279   0.449 -1.6914 -0.1491 -0.4580
 1346SOL     OW13951   3.146   3.622   0.117  0.1703  0.3518 -0.1025
 1346SOL    HW113952   3.166   3.678   0.037 -0.9168  0.9685  0.0543
 1346SOL    HW213953   3.060   3.574   0.103 -1.1521  2.1723  1.6021
 1347SOL     OW13954   4.265   9.952   0.760  0.3546  0.3632  0.3360
 1347SOL    HW113955   4.330   9.949   0.684  0.6806 -2.7054  0.6771
 1347SOL    HW213956   4.172   9.949   0.724  0.4460  1.1334  0.0072
 1348SOL     OW13957   2.730   9.371   0.954 -0.3999 -0.2760  0.2439
 1348SOL    HW113958   2.829   9.380   0.956 -0.4036 -0.2878  0.5030
 1348SOL    HW213959   2.697   9.339   1.043 -0.6591 -0.0276  0.2382
 1349SOL     OW13960   3.417   8.796   0.055  0.3018  0.0877 -0.6229
 1349SOL    HW113961   3.430   8.722  -0.011  2.2651  0.3659 -0.5641
 1349SOL    HW213962   3.412   8.757   0.147 -1.0615 -0.1725 -0.7938
 1350SOL     OW13963   1.739   3.901   0.472  0.0852 -0.1426 -0.3389
 1350SOL    HW113964   1.781   3.898   0.382  0.9210 -1.3614  0.0624
 1350SOL    HW213965   1.737   3.808   0.510  1.8804  0.6523  1.8297
 1351SOL     OW13966   2.742   1.415   0.036  0.0696  0.1433 -0.2368
 1351SOL    HW113967   2.797   1.489   0.075 -0.9729  1.0329 -0.4410
 1351SOL    HW213968   2.717   1.350   0.108  2.0575 -0.7140 -0.2810
 1352SOL     OW13969   3.349   2.753   1.550 -0.4150  0.5457  0.1486
 1352SOL    HW113970   3.321   2.661   1.580 -0.9751  0.6050 -0.1782
 1352SOL    HW213971   3.340   2.760   1.451 -1.4913  1.3180  0.2913
 1353SOL     OW13972   2.861  10.090   2.378  0.4223  0.3448  0.2072
 1353SOL    HW113973   2.838  10.118   2.471 -1.6467 -0.0764 -0.1407
 1353SOL    HW213974   2.902  10.167   2.329 -0.5075  1.2323  0.8073
 1354SOL     OW13975   2.400   7.465   2.242 -0.1487  0.2322 -0.2163
 1354SOL    HW113976   2.416   7.366   2.244 -0.3592  0.1404 -2.5712
 1354SOL    HW213977   2.316   7.485   2.291 -0.1223 -0.7520  0.2598
 1355SOL     OW13978   4.119   0.746   0.675  0.7308  0.1413  0.1734
 1355SOL    HW113979   4.072   0.658   0.676 -0.6853  0.8992  1.2612
 1355SOL    HW213980   4.199   0.742   0.735 -0.8781  0.4172  2.3733
 1356SOL     OW13981   4.261   9.105   0.734  0.3511  0.2989  0.1429
 1356SOL    HW113982   4.255   9.164   0.653  2.1419  0.0580 -0.1742
 1356SOL    HW213983   4.345   9.126   0.784 -0.7078  0.3959  1.9172
 1357SOL     OW13984   4.938   4.644   0.399  0.2306  0.2189  0.6993
 1357SOL    HW113985   4.905   4.557   0.364  1.7479 -0.5437  1.1502
 1357SOL    HW213986   5.020   4.672   0.349 -1.2937  2.3327 -0.7348
 1358SOL     OW13987   1.293   3.560   1.958  0.2488  0.0682 -0.8020
 1358SOL    HW113988   1.362   3.487   1.959 -0.3624 -0.5325  1.7672
 1358SOL    HW213989   1.338   3.648   1.973  0.4337 -0.3732  1.3846
 1359SOL     OW13990   3.440   1.651   1.269  0.0016 -0.2708  0.1269
 1359SOL    HW113991   3.503   1.719   1.305 -1.5409  1.0389  0.4395
 1359SOL    HW213992   3.468   1.625   1.177 -0.1442  1.8585 -0.5557
 1360SOL     OW13993   3.699   0.305   2.251  0.0364  0.0622 -0.5732
 1360SOL    HW113994   3.671   0.389   2.296  0.9620  0.2404 -0.3285
 1360SOL    HW213995   3.740   0.327   2.162  2.3368  0.0487  0.4609
 1361SOL     OW13996   2.571   0.927   1.455 -0.0305  0.0588  0.0045
 1361SOL    HW113997   2.566   0.984   1.372 -0.6222 -0.2660 -0.1851
 1361SOL    HW213998   2.561   0.831   1.430  2.3757 -0.2559  0.1683
 1362SOL     OW13999   1.440   6.106   2.062 -0.1798  0.3458  0.9030
 1362SOL    HW114000   1.377   6.028   2.058  2.3410 -1.7940  1.5136
 1362SOL    HW214001   1.431   6.160   1.979  1.1773 -3.1766 -1.6721
 1363SOL     OW14002   1.818   4.226   0.141 -0.0615  0.3104  0.0283
 1363SOL    HW114003   1.768   4.242   0.226  0.2684 -1.0077  0.4821
 1363SOL    HW214004   1.854   4.313   0.106 -0.2873  0.8729  1.1786
 1364SOL     OW14005   4.751   4.732   0.905  0.4933 -0.2685  0.6033
 1364SOL    HW114006   4.720   4.816   0.860 -1.0655 -1.4397 -0.5424
 1364SOL    HW214007   4.824   4.691   0.851 -0.6476 -1.1070 -0.3263
 1365SOL     OW14008   3.391   2.215   0.750 -0.0656  0.4867  0.2712
 1365SOL    HW114009   3.308   2.252   0.709  0.6489  2.2969  0.4314
 1365SOL    HW214010   3.430   2.145   0.689 -1.8478 -0.5845  0.3389
 1366SOL     OW14011   3.756   0.268   0.424 -0.1185 -0.1999  0.7832
 1366SOL    HW114012   3.733   0.279   0.328  0.2413 -1.4790  0.5317
 1366SOL    HW214013   3.719   0.344   0.477 -0.8448  0.1907 -0.2781
 1367SOL     OW14014   4.894   2.528   2.263  0.0582  0.2472  0.0135
 1367SOL    HW114015   4.814   2.507   2.206 -0.3323 -1.2496  1.0865
 1367SOL    HW214016   4.869   2.594   2.334 -0.0266  0.3576 -0.1191
 1368SOL     OW14017   0.266   5.138   0.312 -0.2868 -0.0896  0.3139
 1368SOL    HW114018   0.174   5.116   0.346  0.7643  0.3824  3.5849
 1368SOL    HW214019   0.310   5.054   0.279 -0.9779 -0.7166  0.9831
 1369SOL     OW14020   3.224   3.651   0.387  0.2019  0.0204  0.4530
 1369SOL    HW114021   3.302   3.592   0.408  0.0552 -0.4071 -0.1852
 1369SOL    HW214022   3.184   3.623   0.300  1.8128  2.7582 -1.2465
 1370SOL     OW14023   2.754   8.096   1.880 -0.1557 -0.4309  0.0412
 1370SOL    HW114024   2.657   8.109   1.859 -0.5950 -2.7359  0.4825
 1370SOL    HW214025   2.774   8.133   1.970 -0.1981  1.6813 -0.7828
 1371SOL     OW14026   2.800   8.400   0.408 -0.8062 -0.4074  0.0672
 1371SOL    HW114027   2.857   8.342   0.349 -1.8816  0.0093 -1.3963
 1371SOL    HW214028   2.710   8.412   0.367 -1.5563 -0.0282  1.7619
 1372SOL     OW14029   2.960   2.059   2.422 -0.3537 -0.0555 -0.2864
 1372SOL    HW114030   3.052   2.076   2.387 -0.3049 -1.2822 -0.7457
 1372SOL    HW214031   2.893   2.078   2.350 -0.4360  0.3537 -0.1044
 1373SOL     OW14032   1.987   2.947   0.782  0.0911  0.5564  0.0911
 1373SOL    HW114033   2.010   2.853   0.756 -2.3722 -0.7738  2.4141
 1373SOL    HW214034   2.040   2.973   0.862 -3.7922 -1.3437  3.4727
 1374SOL     OW14035   2.349   6.118   1.908  0.3537  0.7123  0.2878
 1374SOL    HW114036   2.424   6.089   1.967  1.6837  2.3417 -0.5724
 1374SOL    HW214037   2.306   6.199   1.946  1.4216  1.9599 -1.1013
 1375SOL     OW14038   0.977   6.840   0.427  0.5139 -0.0788  0.2728
 1375SOL    HW114039   1.044   6.863   0.357  0.4152  1.2938  0.6159
 1375SOL    HW214040   0.986   6.904   0.504 -2.0059  0.9420 -0.2285
 1376SOL     OW14041   2.882   5.241   0.871  0.3227  0.0680 -0.3619
 1376SOL    HW114042   2.902   5.338   0.886  0.3947  0.4402 -2.6385
 1376SOL    HW214043   2.951   5.202   0.810 -0.6979 -0.9535 -0.8918
 1377SOL     OW14044   3.176   5.467  -0.033  0.6978 -0.7861  0.1768
 1377SOL    HW114045   3.152   5.411   0.046  0.5765 -0.3448  0.4571
 1377SOL    HW214046   3.098   5.471  -0.095  0.4820 -0.4030  0.4680
 1378SOL     OW14047   5.671   3.678   1.196  0.1154 -0.3688  0.2282
 1378SOL    HW114048   5.759   3.712   1.231  0.6039 -1.5792  0.2009
 1378SOL    HW214049   5.682   3.648   1.101 -0.5862  0.4635 -0.1177
 1379SOL     OW14050   9.373   5.136   1.540 -0.3225 -0.2545 -0.2755
 1379SOL    HW114051   9.388   5.047   1.583  2.4283  0.5036  0.4274
 1379SOL    HW214052   9.407   5.133   1.446  2.6045  0.9226  0.7142
 1380SOL     OW14053   3.614   5.158   1.820  0.7506  0.0203 -0.6013
 1380SOL    HW114054   3.624   5.109   1.733 -0.2468 -0.6330 -0.3640
 1380SOL    HW214055   3.546   5.230   1.810  0.9715  0.2429 -0.4903
 1381SOL     OW14056   2.648   4.500   0.898 -0.0057  0.4900 -0.0953
 1381SOL    HW114057   2.728   4.560   0.897 -0.1211  0.6267 -1.3582
 1381SOL    HW214058   2.611   4.491   0.806  0.3630 -1.9925 -0.0450
 1382SOL     OW14059   3.694   0.455   0.190  0.0812  0.0047 -0.1630
 1382SOL    HW114060   3.642   0.505   0.260 -0.0116 -1.0581  0.5328
 1382SOL    HW214061   3.644   0.458   0.104 -1.8155 -2.1435  0.8315
 1383SOL     OW14062   0.840   6.644   1.287 -0.6681 -0.2418  0.5250
 1383SOL    HW114063   0.803   6.570   1.230 -0.9605  0.6659 -0.4700
 1383SOL    HW214064   0.840   6.615   1.383  0.7327 -2.1449 -0.0250
 1384SOL     OW14065   1.287   6.124   1.221 -0.8160 -0.3262 -0.5440
 1384SOL    HW114066   1.361   6.056   1.226 -0.5325  0.0101 -0.1466
 1384SOL    HW214067   1.237   6.125   1.307  0.5075  1.4520  0.2281
 1385SOL     OW14068   3.543   4.448   0.107 -0.5967  0.0000 -0.1053
 1385SOL    HW114069   3.602   4.466   0.029 -1.1685  1.0344 -0.3121
 1385SOL    HW214070   3.590   4.474   0.192 -0.9818  1.4328 -0.3179
 1386SOL     OW14071   3.286   5.737   0.348  0.5281 -0.5436  0.1319
 1386SOL    HW114072   3.265   5.640   0.331  0.3337 -0.5155  0.2164
 1386SOL    HW214073   3.236   5.769   0.428  0.3356 -0.2841 -0.0901
 1387SOL     OW14074   2.851   1.048   0.752  0.4606  0.0976  0.1961
 1387SOL    HW114075   2.850   1.016   0.657 -0.6522 -0.0979  0.2717
 1387SOL    HW214076   2.889   1.140   0.756 -0.3789  0.4787 -0.5546
 1388SOL     OW14077   2.961   7.993  -0.031  0.8813 -0.1781 -0.5387
 1388SOL    HW114078   2.907   7.946   0.038  0.3179 -1.8537 -2.0722
 1388SOL    HW214079   3.058   7.975  -0.015  0.6917 -1.5970 -0.8839
 1389SOL     OW14080   2.643   1.259   1.674 -0.2282 -0.3492  0.6276
 1389SOL    HW114081   2.666   1.267   1.577  2.2519 -0.6386  1.1657
 1389SOL    HW214082   2.575   1.186   1.686 -2.2780  1.1926 -1.1037
 1390SOL     OW14083   4.499  10.184   0.506  0.0326  0.2537  0.1605
 1390SOL    HW114084   4.561  10.259   0.484  1.3812 -1.1734 -0.9616
 1390SOL    HW214085   4.406  10.208   0.476  0.4325  1.5339 -0.0600
 1391SOL     OW14086   0.411   5.367   2.190  0.0454  0.6286  0.2619
 1391SOL    HW114087   0.400   5.463   2.168 -2.1279  0.1997 -0.6954
 1391SOL    HW214088   0.329   5.334   2.237 -0.2822 -1.3132 -1.5675
 1392SOL     OW14089   3.381   4.692   0.086 -0.1797 -0.0072  0.2056
 1392SOL    HW114090   3.433   4.606   0.095  1.8344  0.8696 -2.5202
 1392SOL    HW214091   3.386   4.743   0.172 -0.4900 -2.0892  1.5023
 1393SOL     OW14092   2.488   4.963   1.320 -0.3305 -0.4657 -0.0292
 1393SOL    HW114093   2.526   4.953   1.412  0.6350 -0.6512 -0.4494
 1393SOL    HW214094   2.404   4.910   1.313 -0.1115 -0.8985  0.5769
 1394SOL     OW14095   9.397   5.189   0.529 -0.6453  0.0528  0.1557
 1394SOL    HW114096   9.340   5.116   0.493  0.3881 -0.1687 -1.0575
 1394SOL    HW214097   9.470   5.210   0.464 -0.2184  1.3383  1.0267
 1395SOL     OW14098   4.267   1.700   1.498  0.1438  0.5876 -0.2564
 1395SOL    HW114099   4.301   1.721   1.589 -0.3218 -0.2178  0.1051
 1395SOL    HW214100   4.327   1.741   1.430  0.7922  0.7405  0.4061
 1396SOL     OW14101   2.289   3.852   2.393  0.6021  0.9240 -0.1512
 1396SOL    HW114102   2.300   3.772   2.334 -1.4520  1.5890 -1.4799
 1396SOL    HW214103   2.378   3.896   2.406  1.0521  1.0144 -3.1265
 1397SOL     OW14104   2.650   6.955   2.205  0.1706  0.1331 -0.7947
 1397SOL    HW114105   2.663   6.873   2.262  0.1806  0.1822 -0.7269
 1397SOL    HW214106   2.569   6.942   2.148  0.1112  0.1179 -0.7090
 1398SOL     OW14107   3.189   7.885   0.833 -0.0158 -0.1008 -0.2240
 1398SOL    HW114108   3.168   7.790   0.857  0.2142 -0.1622 -0.2672
 1398SOL    HW214109   3.149   7.947   0.901 -0.3440 -0.2159 -0.3078
 1399SOL     OW14110   5.437   4.257   0.729 -0.2871 -0.1344 -0.4107
 1399SOL    HW114111   5.519   4.265   0.672 -1.0167  0.0253 -1.4401
 1399SOL    HW214112   5.398   4.348   0.743  0.6817  0.0067  1.5300
 1400SOL     OW14113   4.613   1.422   1.374 -0.3772  0.0088 -0.3297
 1400SOL    HW114114   4.633   1.378   1.461 -1.3436  1.2597  0.5411
 1400SOL    HW214115   4.583   1.354   1.308 -0.8667 -0.7667  0.6875
 1401SOL     OW14116   1.592   6.833   1.522  0.6375 -0.7088  0.5301
 1401SOL    HW114117   1.653   6.764   1.484  2.7216  0.8198  0.9571
 1401SOL    HW214118   1.557   6.891   1.449 -0.9400 -2.0697  0.1968
 1402SOL     OW14119   3.831   4.656   2.196 -0.3626  0.3635 -0.1512
 1402SOL    HW114120   3.759   4.669   2.128 -1.7508 -1.5197  0.9055
 1402SOL    HW214121   3.819   4.723   2.270 -0.1532  0.9916 -0.6831
 1403SOL     OW14122   2.980   0.994   1.505 -0.1327 -0.1785 -0.1777
 1403SOL    HW114123   3.028   0.917   1.464  0.0465 -1.2960  2.0620
 1403SOL    HW214124   2.920   0.961   1.578 -0.3912  1.7580  0.5179
 1404SOL     OW14125   0.602   4.427   1.449 -0.9369 -0.0520 -0.1499
 1404SOL    HW114126   0.646   4.342   1.476  0.0800  0.8326  1.0512
 1404SOL    HW214127   0.642   4.460   1.364  0.5202  0.5744  0.7601
 1405SOL     OW14128   1.339   4.389   0.353  0.0117 -0.1880  0.0364
 1405SOL    HW114129   1.372   4.294   0.354  0.9747  0.1263 -1.0243
 1405SOL    HW214130   1.254   4.393   0.300 -1.1198 -0.7841  1.7488
 1406SOL     OW14131   2.183   6.768   2.582 -0.2144  0.5820 -0.0817
 1406SOL    HW114132   2.236   6.853   2.579  0.9337 -0.1282 -0.3369
 1406SOL    HW214133   2.238   6.697   2.625 -0.7406 -0.3351 -0.9082
 1407SOL     OW14134   3.328  10.180   1.096 -0.3408 -0.0391  0.2034
 1407SOL    HW114135   3.278  10.094   1.084 -1.0245  0.3792 -0.0221
 1407SOL    HW214136   3.297  10.246   1.027  1.2871 -0.1079 -0.6032
 1408SOL     OW14137   4.787   1.188   2.003 -0.3123 -0.3163  0.0749
 1408SOL    HW114138   4.784   1.135   2.088 -1.6609  0.6057  0.6171
 1408SOL    HW214139   4.825   1.278   2.021 -0.3207 -0.2232 -0.3705
 1409SOL     OW14140   2.084   5.917   0.850 -0.4111 -0.4118 -0.1659
 1409SOL    HW114141   2.050   5.934   0.942 -1.3104 -1.2849 -0.3276
 1409SOL    HW214142   2.056   5.991   0.789 -0.0028  0.0532  0.2010
 1410SOL     OW14143   4.038   1.894   0.739 -0.6275  0.0445 -0.3862
 1410SOL    HW114144   4.043   1.994   0.752 -0.5260 -0.2810  2.3791
 1410SOL    HW214145   4.122   1.863   0.695  0.0022  0.9891  0.1219
 1411SOL     OW14146   4.433   5.040   0.191 -0.3841  0.0517  0.1072
 1411SOL    HW114147   4.363   5.020   0.260 -0.0588 -1.5275  0.0123
 1411SOL    HW214148   4.479   4.955   0.166  2.0295  1.1620  0.6628
 1412SOL     OW14149   5.572   3.524   1.516  0.5032 -0.6541  0.7880
 1412SOL    HW114150   5.501   3.568   1.462  0.4884 -0.5453  0.8969
 1412SOL    HW214151   5.658   3.523   1.464  0.5727 -0.2536  0.8958
 1413SOL     OW14152   2.450   2.843   0.950 -0.2485  0.4118  0.2322
 1413SOL    HW114153   2.538   2.890   0.955 -0.0328 -0.1687  2.3117
 1413SOL    HW214154   2.440   2.801   0.860  2.0550 -0.3900  0.3242
 1414SOL     OW14155   3.316   8.451   0.199  0.2469  0.5154 -0.0516
 1414SOL    HW114156   3.311   8.352   0.190  0.1953  0.4655  0.5203
 1414SOL    HW214157   3.230   8.492   0.169  0.1414  0.3620  0.0439
 1415SOL     OW14158   4.322   1.362  -0.032 -0.1091 -0.0714 -0.2883
 1415SOL    HW114159   4.327   1.295  -0.106 -1.0849 -1.0665  0.5317
 1415SOL    HW214160   4.387   1.337   0.040 -1.1153 -0.6500  0.4256
 1416SOL     OW14161   3.151   7.673   2.424 -0.0781  0.2145 -0.7273
 1416SOL    HW114162   3.097   7.654   2.506  0.0352 -1.2855 -0.9869
 1416SOL    HW214163   3.245   7.694   2.450 -0.0017 -0.4277 -0.4676
 1417SOL     OW14164   3.811   2.381   0.038  0.4182 -0.2335 -0.1701
 1417SOL    HW114165   3.815   2.479   0.057  1.4981  0.1203 -2.1151
 1417SOL    HW214166   3.748   2.338   0.102  1.1421  1.4658  1.7265
 1418SOL     OW14167   1.935   6.093   0.063 -0.6093  0.3893  0.2126
 1418SOL    HW114168   2.021   6.138   0.088 -1.2582  2.0282 -0.4092
 1418SOL    HW214169   1.953   6.019  -0.001  0.3004  0.9614 -0.1990
 1419SOL     OW14170   2.804   3.248   0.429  0.0071  0.8693 -0.8640
 1419SOL    HW114171   2.892   3.280   0.393 -0.0413  0.9353 -0.9261
 1419SOL    HW214172   2.731   3.277   0.367  0.0746 -0.3774 -1.5266
 1420SOL     OW14173   3.505   3.192   1.123 -0.0820 -0.1446  0.2975
 1420SOL    HW114174   3.418   3.213   1.167 -0.4000 -1.5749  0.3702
 1420SOL    HW214175   3.580   3.220   1.184 -0.4950  0.6561  0.4372
 1421SOL     OW14176   4.056   4.904   1.511  0.5399  0.3667 -0.4231
 1421SOL    HW114177   4.105   4.862   1.434  0.9960 -0.1841  0.1577
 1421SOL    HW214178   4.109   4.982   1.544  1.3171 -0.5468  0.5432
 1422SOL     OW14179   3.094   5.078   0.824  0.3955  0.4364  0.1137
 1422SOL    HW114180   3.024   5.024   0.869 -0.2064  0.8992 -0.2600
 1422SOL    HW214181   3.112   5.039   0.733 -0.6310  1.3364 -0.4884
 1423SOL     OW14182   4.038   8.161   1.144 -0.2749 -0.0247  0.3882
 1423SOL    HW114183   3.978   8.228   1.102  0.6809 -1.2203 -3.0040
 1423SOL    HW214184   4.133   8.191   1.137  0.0132 -0.9123  0.4228
 1424SOL     OW14185   3.553   4.779   2.481  0.0888  0.3495 -0.7092
 1424SOL    HW114186   3.540   4.700   2.422 -0.0240  0.7348 -1.2083
 1424SOL    HW214187   3.486   4.777   2.555  0.3151 -0.2027 -0.5140
 1425SOL     OW14188   3.040   7.301   0.650 -0.1153  0.2950  0.0750
 1425SOL    HW114189   3.013   7.361   0.725 -0.3598  0.2764  0.0039
 1425SOL    HW214190   3.026   7.348   0.563 -1.8938 -0.4400 -0.0705
 1426SOL     OW14191   2.282   3.234   0.972 -0.6073 -0.0999 -0.4484
 1426SOL    HW114192   2.346   3.275   0.908  0.6620 -1.9840 -0.3985
 1426SOL    HW214193   2.332   3.196   1.050 -1.7268 -1.9186 -0.5854
 1427SOL     OW14194   3.764   1.843   2.177 -0.1894  0.1370 -0.0632
 1427SOL    HW114195   3.684   1.864   2.234 -0.4658 -0.9577 -0.0352
 1427SOL    HW214196   3.836   1.803   2.233 -0.7512 -1.6616 -0.5959
 1428SOL     OW14197   4.849   1.490   1.781 -0.0300 -0.1900 -0.3751
 1428SOL    HW114198   4.774   1.429   1.758  0.1059 -0.7349  0.5847
 1428SOL    HW214199   4.815   1.583   1.791 -1.2212 -0.9211  3.2534
 1429SOL     OW14200   1.445   6.158   1.770  0.3115  0.2126  0.4829
 1429SOL    HW114201   1.357   6.152   1.724  0.8923  2.7557 -1.0601
 1429SOL    HW214202   1.513   6.106   1.719  0.2455  0.3598  0.2410
 1430SOL     OW14203   2.989   1.908   1.502 -0.1918  0.3081 -0.2706
 1430SOL    HW114204   2.943   1.835   1.551 -1.4162  1.0836 -0.2400
 1430SOL    HW214205   3.047   1.869   1.430  1.5492 -0.8275  1.6952
 1431SOL     OW14206   2.817   5.499   0.023 -0.1163 -0.3268  0.5451
 1431SOL    HW114207   2.908   5.514  -0.016 -0.7287 -0.6048 -1.0184
 1431SOL    HW214208   2.779   5.585   0.055 -0.1012  0.1076 -0.5868
 1432SOL     OW14209   3.156   3.192   1.998  0.1602  0.6644  0.2283
 1432SOL    HW114210   3.251   3.203   1.969  0.0166  0.0845 -0.4604
 1432SOL    HW214211   3.133   3.095   2.002 -0.6222  0.8279 -0.3004
 1433SOL     OW14212   2.780   1.795   1.274  0.4898 -0.1928  0.2564
 1433SOL    HW114213   2.793   1.820   1.178 -0.3794 -0.9309 -0.0567
 1433SOL    HW214214   2.838   1.716   1.296  0.5062 -0.1750  0.2778
 1434SOL     OW14215   4.484   3.175   1.760 -0.1041 -0.0163  0.1628
 1434SOL    HW114216   4.402   3.231   1.746  0.7023  1.4267  1.0989
 1434SOL    HW214217   4.497   3.116   1.680 -1.9013 -0.0793 -0.1123
 1435SOL     OW14218   2.221   2.652   2.353 -0.3822 -0.0760  0.1033
 1435SOL    HW114219   2.257   2.601   2.430  1.4693  1.6989  0.4503
 1435SOL    HW214220   2.141   2.705   2.382 -0.6416 -0.6350  0.4065
 1436SOL     OW14221   2.892   9.027   1.337  0.0709 -0.1518  0.0488
 1436SOL    HW114222   2.902   9.063   1.244  1.5279 -0.8137 -0.0629
 1436SOL    HW214223   2.927   8.934   1.341  0.4815  0.0486  1.3678
 1437SOL     OW14224   4.887   2.494   0.658 -0.2671  0.3806 -0.2993
 1437SOL    HW114225   4.905   2.447   0.572  0.8515 -0.1924  0.2373
 1437SOL    HW214226   4.865   2.590   0.639 -0.3396  0.1882 -1.2382
 1438SOL     OW14227   4.163   1.396   1.077 -0.1057  0.4835  0.3794
 1438SOL    HW114228   4.189   1.387   1.173 -0.4085 -2.2717  0.2477
 1438SOL    HW214229   4.065   1.379   1.067 -0.3712  2.2338 -0.2604
 1439SOL     OW14230   3.088   7.423   1.555  0.3208 -0.0475  0.5893
 1439SOL    HW114231   3.108   7.519   1.573  0.6089 -0.3114  1.6781
 1439SOL    HW214232   3.124   7.366   1.629 -1.5420 -0.8271  0.9269
 1440SOL     OW14233   0.194   4.956   1.214  0.3803  0.3706  0.0784
 1440SOL    HW114234   0.189   5.000   1.124  0.8775 -0.9691 -0.6154
 1440SOL    HW214235   0.103   4.926   1.241  0.4856 -0.7917 -0.7898
 1441SOL     OW14236   3.260   2.264   2.068 -0.0055  0.0036  0.1489
 1441SOL    HW114237   3.226   2.216   1.988 -0.8448  0.4515  0.2336
 1441SOL    HW214238   3.226   2.219   2.151  0.8025 -0.4179  0.2635
 1442SOL     OW14239   3.490   4.961   2.270 -0.3557 -0.6543  0.4393
 1442SOL    HW114240   3.509   4.944   2.367  0.7813 -0.6021  0.2413
 1442SOL    HW214241   3.543   4.897   2.215 -1.7122 -1.3020 -0.1361
 1443SOL     OW14242   3.522   4.046   2.240 -0.6484 -0.0659 -0.6837
 1443SOL    HW114243   3.602   4.025   2.184 -0.3109  0.0127 -0.2304
 1443SOL    HW214244   3.461   4.107   2.190  0.2578  1.0069 -0.4765
 1444SOL     OW14245   2.086   2.336   2.423  0.2771 -0.1463  0.2132
 1444SOL    HW114246   2.016   2.311   2.356  1.4318 -0.1990 -0.9972
 1444SOL    HW214247   2.165   2.276   2.412  0.9871  0.6907  0.7597
 1445SOL     OW14248   2.601   6.218   0.201 -0.4618 -0.3712 -0.3428
 1445SOL    HW114249   2.686   6.194   0.248 -1.3663  3.4939  3.5129
 1445SOL    HW214250   2.623   6.260   0.113  1.6361  0.1798  0.4113
 1446SOL     OW14251  10.123   5.697   1.264  0.0395 -0.1971  0.3284
 1446SOL    HW114252  10.121   5.787   1.221 -0.6940 -0.2576  0.2346
 1446SOL    HW214253  10.046   5.642   1.231  0.4426 -0.8339  0.4400
 1447SOL     OW14254   2.897   1.758   0.676  0.2199  0.3850 -0.1177
 1447SOL    HW114255   2.900   1.695   0.599 -1.9211 -0.2853  0.3212
 1447SOL    HW214256   2.953   1.722   0.751  0.4607 -0.0891 -0.5212
 1448SOL     OW14257   3.624   8.130   0.627 -0.5070 -0.0015 -0.2695
 1448SOL    HW114258   3.656   8.219   0.660  1.5058 -1.1996  1.0766
 1448SOL    HW214259   3.634   8.127   0.527  1.1494  0.6210 -0.1483
 1449SOL     OW14260   2.948   6.355   1.330  0.3563  0.0683 -0.2047
 1449SOL    HW114261   3.001   6.410   1.394 -1.2927  0.0237  1.2128
 1449SOL    HW214262   2.961   6.258   1.350 -2.3980  0.0890  1.9568
 1450SOL     OW14263   3.095   6.698   0.932 -0.0158  0.5296  0.0986
 1450SOL    HW114264   3.145   6.614   0.912 -2.5129 -0.9382 -0.2408
 1450SOL    HW214265   3.055   6.693   1.023 -1.6887  0.5621 -0.6180
 1451SOL     OW14266   2.682   1.589   0.925 -0.3385  0.0701  0.1542
 1451SOL    HW114267   2.694   1.528   1.004 -1.3683  1.0611  1.1009
 1451SOL    HW214268   2.701   1.539   0.841  0.4963 -1.0907  1.0079
 1452SOL     OW14269   3.303   3.582   2.188 -0.1179  0.3255 -0.8341
 1452SOL    HW114270   3.339   3.513   2.250 -0.4110  0.8258 -0.1119
 1452SOL    HW214271   3.350   3.668   2.203 -2.0221  1.1430  0.5216
 1453SOL     OW14272   4.385   2.773   0.020  0.0698  0.0184 -0.1696
 1453SOL    HW114273   4.418   2.756  -0.073  0.6228 -1.4778  0.2735
 1453SOL    HW214274   4.305   2.716   0.038 -0.3379  0.6747  0.1048
 1454SOL     OW14275   9.866   5.917   2.545  0.4094 -0.2181 -0.3963
 1454SOL    HW114276   9.873   5.936   2.448  0.7020  1.0667 -0.1352
 1454SOL    HW214277   9.786   5.859   2.562 -0.0548  0.1439 -1.3248
 1455SOL     OW14278   1.793   6.295   2.076 -0.0694  0.5410  0.6702
 1455SOL    HW114279   1.729   6.242   2.133  0.6263 -1.5946 -0.4675
 1455SOL    HW214280   1.749   6.317   1.989 -0.4850  2.1891  1.2876
 1456SOL     OW14281   4.867   4.304   2.420  0.1532  0.2635  0.0382
 1456SOL    HW114282   4.923   4.299   2.337 -1.7152  1.7587 -1.3676
 1456SOL    HW214283   4.833   4.213   2.443  0.2018 -0.0803 -1.1999
 1457SOL     OW14284   2.835   5.735   1.028  0.1490  0.1660  0.0129
 1457SOL    HW114285   2.849   5.683   0.944  1.2608 -0.2117  0.4183
 1457SOL    HW214286   2.745   5.713   1.067 -0.1251 -0.0909 -0.7596
 1458SOL     OW14287   2.044   3.095   1.284  0.3334 -0.2712  0.5853
 1458SOL    HW114288   2.120   3.030   1.277  0.6301  0.3523 -2.3011
 1458SOL    HW214289   1.962   3.054   1.244  0.1965  0.6368 -0.0555
 1459SOL     OW14290   1.107   3.333   1.144 -0.3848 -0.1164  0.5883
 1459SOL    HW114291   1.057   3.271   1.204  1.7581 -2.6144 -0.1340
 1459SOL    HW214292   1.189   3.288   1.109  0.3268  2.5279 -1.3587
 1460SOL     OW14293   3.064   6.288   1.667  0.2654  0.4835  0.5343
 1460SOL    HW114294   2.970   6.275   1.699 -0.1801  1.0325 -0.5052
 1460SOL    HW214295   3.123   6.217   1.707 -1.3064 -2.2012 -1.6790
 1461SOL     OW14296   1.923   2.719   1.870  0.1793 -0.1615  0.3634
 1461SOL    HW114297   2.005   2.662   1.865  0.4019  0.2059 -0.1127
 1461SOL    HW214298   1.899   2.734   1.966  0.2922 -0.8075  0.4969
 1462SOL     OW14299   2.751   5.126   1.606 -0.3094  0.0795  0.3205
 1462SOL    HW114300   2.819   5.055   1.627 -0.3064  0.6397  2.3537
 1462SOL    HW214301   2.798   5.211   1.584 -0.3294 -0.1600 -0.6563
 1463SOL     OW14302   3.675   3.609   1.335  0.1177  0.3270  0.1937
 1463SOL    HW114303   3.646   3.677   1.268  1.7580  1.8972  1.0232
 1463SOL    HW214304   3.602   3.592   1.400 -0.7387  0.3539 -0.7475
 1464SOL     OW14305   2.821   7.434   1.671  0.2431 -0.2108 -0.6519
 1464SOL    HW114306   2.845   7.438   1.768  0.0787  3.4641 -0.6905
 1464SOL    HW214307   2.899   7.396   1.620  1.2600  0.0882  0.6330
 1465SOL     OW14308   4.401   3.551   0.720 -0.2597 -0.1485 -0.1990
 1465SOL    HW114309   4.357   3.640   0.735  0.6988  0.4729 -1.0540
 1465SOL    HW214310   4.490   3.564   0.677 -0.6201 -1.5798 -1.4490
 1466SOL     OW14311   3.340   5.124   2.531 -0.5574  0.0991 -0.3093
 1466SOL    HW114312   3.310   5.089   2.620 -0.7003 -1.3860 -0.9218
 1466SOL    HW214313   3.260   5.134   2.471 -0.4894  1.2901 -0.2219
 1467SOL     OW14314   3.773   0.911   0.581 -1.4299  0.5525 -0.2043
 1467SOL    HW114315   3.711   0.907   0.660 -1.1611 -1.6614 -0.0966
 1467SOL    HW214316   3.826   0.996   0.585 -3.1345  1.6088  0.6823
 1468SOL     OW14317   1.856   3.876   0.202 -0.1244 -0.1256  0.0702
 1468SOL    HW114318   1.851   3.785   0.162 -0.3131 -0.4757  0.8817
 1468SOL    HW214319   1.884   3.942   0.132 -1.7065 -0.5163 -0.9575
 1469SOL     OW14320   0.829   4.984   0.711  0.4012 -0.1506 -0.1647
 1469SOL    HW114321   0.878   5.026   0.788  0.5985  1.8889 -1.3549
 1469SOL    HW214322   0.816   4.887   0.729  0.8961  0.1859  2.2097
 1470SOL     OW14323   2.871   6.858   1.598  0.0199  0.5207  0.0451
 1470SOL    HW114324   2.795   6.798   1.623  0.4105  0.3640  0.8831
 1470SOL    HW214325   2.888   6.924   1.671 -0.1939  1.4480 -0.7339
 1471SOL     OW14326   4.577   2.378   1.317 -0.0774 -0.2850  0.6401
 1471SOL    HW114327   4.489   2.371   1.272 -0.1844  2.3343  0.3885
 1471SOL    HW214328   4.648   2.336   1.260 -1.1952 -2.8603  1.0854
 1472SOL     OW14329   1.498   6.819   0.041  0.4450  0.1752 -0.8621
 1472SOL    HW114330   1.401   6.827   0.016  0.4143 -1.1037 -1.1691
 1472SOL    HW214331   1.549   6.781  -0.036  1.2251  0.9820 -0.7513
 1473SOL     OW14332   4.186   5.494   1.781 -0.4574  0.1816 -0.2338
 1473SOL    HW114333   4.249   5.570   1.771 -0.8207  0.4026 -0.9295
 1473SOL    HW214334   4.141   5.477   1.693 -1.4589  0.1180  0.2857
 1474SOL     OW14335   3.738   7.884   0.662  0.0062 -0.1875  0.2557
 1474SOL    HW114336   3.712   7.847   0.751  0.5438  1.5418  1.1747
 1474SOL    HW214337   3.685   7.967   0.644  0.2865 -0.2308 -0.7758
 1475SOL     OW14338   1.576   4.231   2.567  0.1519  0.4086  0.0082
 1475SOL    HW114339   1.582   4.311   2.626  1.2018 -0.0628  0.5499
 1475SOL    HW214340   1.661   4.221   2.514  0.3518 -0.7890  0.5339
 1476SOL     OW14341   4.707   2.437   2.080 -0.3366  0.3496  0.1952
 1476SOL    HW114342   4.645   2.503   2.039  0.6125 -0.4806 -2.6515
 1476SOL    HW214343   4.660   2.349   2.090 -0.6606  0.6284  1.2285
 1477SOL     OW14344   3.348   2.079   1.381  0.2286 -0.2660  0.0179
 1477SOL    HW114345   3.364   2.025   1.298  0.4785 -0.0047 -0.1058
 1477SOL    HW214346   3.431   2.082   1.436  0.1448 -0.2105  0.1430
 1478SOL     OW14347   3.131   8.338   1.854  0.2171  0.5485 -0.1321
 1478SOL    HW114348   3.221   8.297   1.841  0.5730  1.4803 -0.6035
 1478SOL    HW214349   3.064   8.291   1.797  0.0633 -1.2744  1.4925
 1479SOL     OW14350   2.461   6.506   1.170 -0.6684 -0.4025 -0.3888
 1479SOL    HW114351   2.554   6.542   1.160 -0.6960 -0.0334  0.5612
 1479SOL    HW214352   2.456   6.414   1.132  0.1455 -0.5109 -0.2514
 1480SOL     OW14353   3.897   9.684   0.621 -0.5501  0.1467 -0.0158
 1480SOL    HW114354   3.934   9.633   0.699 -0.3795  0.0246 -0.1749
 1480SOL    HW214355   3.926   9.640   0.536  0.2617  0.9598 -0.1721
 1481SOL     OW14356   4.831   4.307   0.071 -0.4071 -0.0873 -0.4740
 1481SOL    HW114357   4.876   4.220   0.093 -1.0416 -0.2908  0.0208
 1481SOL    HW214358   4.833   4.321  -0.028  0.4943 -0.2310 -0.4859
 1482SOL     OW14359   1.738   5.135   0.955  0.7744 -0.2088 -0.4419
 1482SOL    HW114360   1.818   5.114   1.011  0.4715 -0.6838 -0.1780
 1482SOL    HW214361   1.713   5.231   0.967  0.6457 -0.3294  0.3328
 1483SOL     OW14362   1.424   3.486   2.301 -0.0443 -0.5515  0.6238
 1483SOL    HW114363   1.501   3.550   2.294  0.3880 -1.2142 -0.9585
 1483SOL    HW214364   1.340   3.536   2.319  0.7799  0.1631  2.6916
 1484SOL     OW14365   4.931   2.535   0.230  0.9786  0.1137  0.1937
 1484SOL    HW114366   5.002   2.496   0.289  0.0783 -2.5084 -0.3439
 1484SOL    HW214367   4.841   2.511   0.267  0.3451  2.7002  0.4245
 1485SOL     OW14368   2.607   3.773   0.463 -0.1680  1.0550  0.1273
 1485SOL    HW114369   2.691   3.788   0.411  0.5774  3.9541  2.0529
 1485SOL    HW214370   2.624   3.707   0.536 -0.2648 -0.2275 -0.9750
 1486SOL     OW14371   2.396   6.379   0.294  0.2578  0.4531  0.2488
 1486SOL    HW114372   2.327   6.332   0.348 -1.8425 -1.4019 -3.8203
 1486SOL    HW214373   2.471   6.316   0.272 -0.3979  0.2464 -1.4919
 1487SOL     OW14374   1.310   5.456   0.752  0.1144 -0.3310 -0.9556
 1487SOL    HW114375   1.292   5.432   0.656 -1.3014 -1.2596 -0.4781
 1487SOL    HW214376   1.252   5.532   0.779  1.0262  0.3985 -1.0275
 1488SOL     OW14377   3.118   5.859   1.753 -0.4305  0.2641 -0.2425
 1488SOL    HW114378   3.155   5.793   1.818 -0.9121 -0.1041 -0.3484
 1488SOL    HW214379   3.084   5.812   1.672 -0.6745  0.6497 -0.3678
 1489SOL     OW14380   3.469   5.378   2.214 -0.0755  0.1850  0.5321
 1489SOL    HW114381   3.451   5.455   2.153 -0.8491 -0.2032  0.2576
 1489SOL    HW214382   3.553   5.394   2.266  0.7198  0.4229 -0.8059
 1490SOL     OW14383   3.803   2.644   0.081 -0.1815  0.0089  0.5716
 1490SOL    HW114384   3.741   2.719   0.058  0.6023  0.9362  1.4539
 1490SOL    HW214385   3.859   2.669   0.160  3.0909  0.2013 -1.7294
 1491SOL     OW14386   3.987   9.948   0.716  0.0593 -0.1475  0.4174
 1491SOL    HW114387   3.917  10.009   0.679  1.3878  0.2490 -1.4623
 1491SOL    HW214388   3.969   9.854   0.686 -0.9097 -0.4147  1.7691
 1492SOL     OW14389   2.926   3.475   0.055  0.2512 -0.5561 -0.1489
 1492SOL    HW114390   2.911   3.386   0.097 -2.5081 -0.4300 -0.7635
 1492SOL    HW214391   2.914   3.468  -0.044  0.7264  0.3576 -0.2784
 1493SOL     OW14392   3.688   5.049   0.165  0.2885 -0.5204  0.0363
 1493SOL    HW114393   3.665   5.074   0.071 -0.0387 -0.5580  0.1063
 1493SOL    HW214394   3.622   5.089   0.228  1.0152  0.2284  0.3261
 1494SOL     OW14395   2.143   4.150   0.399 -0.0514 -0.5726  0.7350
 1494SOL    HW114396   2.045   4.156   0.417 -0.4083 -1.8839 -0.6160
 1494SOL    HW214397   2.194   4.164   0.484 -1.3954  0.3951  1.3882
 1495SOL     OW14398   0.851   6.730   2.130 -0.3202  0.6705 -0.1547
 1495SOL    HW114399   0.919   6.677   2.080 -0.9587 -1.2825  0.9992
 1495SOL    HW214400   0.760   6.713   2.093 -0.5357  0.9299  0.2436
 1496SOL     OW14401   3.272   7.070   2.166 -0.1056  0.6333 -0.1597
 1496SOL    HW114402   3.253   6.974   2.146  0.0074  0.5366  0.1920
 1496SOL    HW214403   3.187   7.120   2.175 -0.1775  0.3893  0.5124
 1497SOL     OW14404   4.154   2.967   1.932  0.1526 -0.4481  0.3069
 1497SOL    HW114405   4.101   3.004   1.856 -1.2101 -2.8696  0.0480
 1497SOL    HW214406   4.246   3.006   1.930  0.1103 -0.4015 -2.5033
 1498SOL     OW14407   3.368   8.200   1.840  0.0229  0.2857  0.2504
 1498SOL    HW114408   3.459   8.237   1.858  1.2525 -0.4632 -3.9389
 1498SOL    HW214409   3.374   8.101   1.827 -1.6008  0.0695  0.9920
 1499SOL     OW14410   3.613   5.873   0.788  0.5851  0.5800  0.2248
 1499SOL    HW114411   3.551   5.950   0.771 -0.3668 -0.0035  1.0396
 1499SOL    HW214412   3.669   5.892   0.868 -0.1686  0.1135  0.8682
 1500SOL     OW14413   3.291   0.717   0.138  0.1064  0.3232 -0.0056
 1500SOL    HW114414   3.369   0.718   0.201 -1.0729  0.8666  1.4716
 1500SOL    HW214415   3.214   0.766   0.180 -1.3031 -0.9319 -1.0964
 1501SOL     OW14416   4.432   3.039   1.531  0.3997  0.2888 -0.0882
 1501SOL    HW114417   4.511   2.978   1.525 -0.7850 -1.5649  2.2253
 1501SOL    HW214418   4.386   3.045   1.443  1.9804 -0.1698 -0.9500
 1502SOL     OW14419   4.007   1.215   1.263 -0.4563 -0.2249 -0.2911
 1502SOL    HW114420   3.962   1.263   1.187  0.7620 -0.6363 -1.2811
 1502SOL    HW214421   4.068   1.145   1.227 -0.2781 -0.7988  1.0924
 1503SOL     OW14422   1.381   5.509   1.364  0.3600  0.5802  0.1275
 1503SOL    HW114423   1.465   5.458   1.343 -1.2431 -0.6782 -3.8163
 1503SOL    HW214424   1.377   5.591   1.307 -0.4528  1.3484  1.2852
 1504SOL     OW14425   3.997  10.143   1.459 -0.1899  0.1543  0.2993
 1504SOL    HW114426   4.050  10.063   1.488 -1.7912 -1.0688 -0.1045
 1504SOL    HW214427   3.983  10.141   1.360 -1.3262  0.2646  0.4503
 1505SOL     OW14428   2.251   3.695   0.029  0.1518 -0.2713  0.0816
 1505SOL    HW114429   2.321   3.657   0.089  0.2544 -2.1486 -1.1844
 1505SOL    HW214430   2.293   3.728  -0.055 -0.1761  0.9088  0.3822
 1506SOL     OW14431   1.590   6.193   2.291 -0.6230  0.8440  0.0447
 1506SOL    HW114432   1.532   6.202   2.372 -0.1058 -1.5616  0.7184
 1506SOL    HW214433   1.532   6.183   2.210 -1.1387  0.2347  0.4899
 1507SOL     OW14434   0.403   4.526   0.688  0.6342  0.1887  0.3673
 1507SOL    HW114435   0.412   4.543   0.786 -1.6790  0.1208  0.6159
 1507SOL    HW214436   0.323   4.469   0.671  1.8483 -1.0323 -1.4552
 1508SOL     OW14437   2.440   6.368   0.693 -0.2653 -0.1742  0.3194
 1508SOL    HW114438   2.430   6.273   0.666  1.1450 -0.2711  0.1258
 1508SOL    HW214439   2.359   6.420   0.664 -1.3102 -1.4204  0.9561
 1509SOL     OW14440   3.182   5.969  -0.038 -0.3051 -0.5058 -0.0153
 1509SOL    HW114441   3.178   5.952  -0.137 -0.6755 -1.4364  0.1455
 1509SOL    HW214442   3.277   5.967  -0.007 -0.2140 -0.5952 -0.2977
 1510SOL     OW14443   4.834   1.455   2.045 -0.3637  0.4974  0.1537
 1510SOL    HW114444   4.871   1.522   2.109 -1.2700  0.0979  1.1180
 1510SOL    HW214445   4.861   1.479   1.952 -0.2236  1.8822  0.5377
 1511SOL     OW14446   9.876   4.142   1.758  0.6587  0.3293  0.6879
 1511SOL    HW114447   9.817   4.065   1.783  1.3584 -0.3114  0.3911
 1511SOL    HW214448   9.857   4.168   1.663  0.3639  0.5813  0.8138
 1512SOL     OW14449   0.948   4.885   1.850  0.2373 -0.9167  0.0508
 1512SOL    HW114450   0.849   4.878   1.864  0.0237  0.2684 -0.7762
 1512SOL    HW214451   0.981   4.970   1.891  0.5868 -0.3774 -1.3241
 1513SOL     OW14452   0.411   5.620   2.111 -0.3061 -0.0950  0.3399
 1513SOL    HW114453   0.466   5.702   2.123 -1.1395  0.3441  1.2634
 1513SOL    HW214454   0.355   5.628   2.029 -1.0622  0.6605  0.9190
 1514SOL     OW14455   2.800   1.059   2.541  0.0967  0.6154  0.2813
 1514SOL    HW114456   2.741   1.128   2.499  0.0231  1.3838  1.6024
 1514SOL    HW214457   2.757   1.024   2.624  1.0568  0.4940  0.7435
 1515SOL     OW14458   2.436   7.360   0.354  0.2662  0.3831 -0.0760
 1515SOL    HW114459   2.526   7.390   0.387 -0.1586  0.3626  1.1466
 1515SOL    HW214460   2.411   7.413   0.273  0.9944  1.0178  0.1045
 1516SOL     OW14461   3.793   9.144   2.513 -0.6807  0.4410  0.5569
 1516SOL    HW114462   3.738   9.187   2.442  0.0476  0.5175  0.0357
 1516SOL    HW214463   3.861   9.209   2.547 -1.5337  0.6623  1.8830
 1517SOL     OW14464   4.358   5.197   0.599  0.4574 -0.8801 -0.2022
 1517SOL    HW114465   4.332   5.127   0.666  1.0580 -0.8797  0.0359
 1517SOL    HW214466   4.334   5.287   0.635 -2.4461 -1.0851 -1.4945
 1518SOL     OW14467   4.131  10.236   0.169  0.3433  0.2546  0.8536
 1518SOL    HW114468   4.064  10.310   0.172  0.5265  0.6331 -2.2934
 1518SOL    HW214469   4.154  10.216   0.074 -0.4855 -4.6221  1.5418
 1519SOL     OW14470   1.220   5.407   0.477 -0.2380  0.1652 -0.6166
 1519SOL    HW114471   1.307   5.370   0.443  1.1942  1.9154  0.9971
 1519SOL    HW214472   1.159   5.332   0.500  1.4223 -1.1523 -0.3706
 1520SOL     OW14473   3.108   0.697   1.779  0.0789  0.3089 -0.2397
 1520SOL    HW114474   3.112   0.648   1.692 -0.2697 -1.0155  0.4739
 1520SOL    HW214475   3.113   0.795   1.762 -0.7911  0.1026 -1.8203
 1521SOL     OW14476   2.872   4.417   0.554 -0.5928 -0.1704  0.2509
 1521SOL    HW114477   2.813   4.454   0.482  0.8719  2.7763  0.4675
 1521SOL    HW214478   2.936   4.351   0.515 -0.6326  0.4849 -0.9548
 1522SOL     OW14479   2.672   6.773   1.383  0.1650  0.5258 -0.4324
 1522SOL    HW114480   2.661   6.737   1.291  0.1927  0.6556 -0.4876
 1522SOL    HW214481   2.667   6.699   1.449  2.8475  0.0665 -0.7082
 1523SOL     OW14482   2.741   1.772   1.556  0.3198 -0.1769 -0.3587
 1523SOL    HW114483   2.712   1.805   1.467  1.4199 -0.7259 -0.9329
 1523SOL    HW214484   2.700   1.828   1.628 -1.9372 -0.8012 -1.1403
 1524SOL     OW14485   4.684   1.247   1.588  0.3034 -0.2535 -0.3631
 1524SOL    HW114486   4.644   1.250   1.679 -0.5283  0.2343 -0.7334
 1524SOL    HW214487   4.777   1.213   1.593  0.3357 -0.0163  0.6936
 1525SOL     OW14488   3.472   0.849  -0.022  0.3727  0.0394 -0.1758
 1525SOL    HW114489   3.551   0.799   0.013  0.0459 -0.9045 -0.7564
 1525SOL    HW214490   3.389   0.813   0.020  0.1697  0.3905 -0.2737
 1526SOL     OW14491   2.694   0.932   0.143 -0.3114  0.3331 -0.0131
 1526SOL    HW114492   2.645   0.980   0.215  0.3808  1.3928 -0.2324
 1526SOL    HW214493   2.726   0.844   0.177 -0.7318  0.4569  0.7088
 1527SOL     OW14494   0.621   6.656   1.998  0.2423  0.5213 -0.0187
 1527SOL    HW114495   0.549   6.715   1.962  0.5451  1.0087  0.1719
 1527SOL    HW214496   0.630   6.575   1.940 -0.2559  0.6052 -0.2122
 1528SOL     OW14497   2.972   1.599   1.278  0.2586 -0.2541  0.0814
 1528SOL    HW114498   2.966   1.561   1.370  0.4388 -1.2723 -0.3232
 1528SOL    HW214499   2.951   1.528   1.211 -0.7995  0.7128 -0.6339
 1529SOL     OW14500   4.434   8.865  -0.001 -0.0813 -0.7342  0.4650
 1529SOL    HW114501   4.428   8.821   0.089  1.8234 -0.1603  0.9009
 1529SOL    HW214502   4.419   8.796  -0.072 -0.1027 -1.4987  1.1953
 1530SOL     OW14503   3.503   4.169   2.483  0.2232 -0.0668 -0.4105
 1530SOL    HW114504   3.505   4.105   2.407  0.3471  0.8357 -1.1669
 1530SOL    HW214505   3.412   4.208   2.492 -0.0344 -0.8365  0.4719
 1531SOL     OW14506   3.171   9.740   2.528  0.6336 -0.1975 -0.0012
 1531SOL    HW114507   3.121   9.744   2.442  0.6529 -0.2087 -0.0130
 1531SOL    HW214508   3.115   9.781   2.601  0.8661  0.3632 -0.1363
 1532SOL     OW14509   9.736   5.702   1.957  0.2038 -0.1196 -0.3260
 1532SOL    HW114510   9.718   5.797   1.983 -1.6885 -0.0272 -1.8109
 1532SOL    HW214511   9.782   5.701   1.868  0.6892 -0.5734 -0.0661
 1533SOL     OW14512   4.752   4.945   0.719  0.1779  1.0531  0.6866
 1533SOL    HW114513   4.686   4.962   0.647 -0.6877  1.0254  1.4598
 1533SOL    HW214514   4.830   5.007   0.709  0.9885 -0.2618 -1.3885
 1534SOL     OW14515   9.724   4.588   1.469 -0.4237 -0.7339 -0.8129
 1534SOL    HW114516   9.650   4.654   1.459  0.8532  0.7207 -0.7980
 1534SOL    HW214517   9.739   4.542   1.381 -0.0627  0.3387 -1.3095
 1535SOL     OW14518   4.990   2.056   2.188  0.0775 -0.0308 -0.6979
 1535SOL    HW114519   5.074   2.043   2.135  0.2220 -0.6357 -0.3265
 1535SOL    HW214520   4.989   2.148   2.227  1.4370 -0.6153  0.7882
 1536SOL     OW14521   2.617   6.425   1.528 -0.1438 -0.1990  0.1916
 1536SOL    HW114522   2.666   6.383   1.451 -2.2343 -1.0054 -0.7262
 1536SOL    HW214523   2.543   6.482   1.493  0.0144  0.8858  1.5802
 1537SOL     OW14524   4.083   4.536   0.825 -0.3909  0.4881 -0.0916
 1537SOL    HW114525   4.121   4.534   0.917  0.1269  1.0301 -0.2882
 1537SOL    HW214526   3.997   4.588   0.825 -0.0794  1.0077 -0.0270
 1538SOL     OW14527   2.492   5.273   1.614  0.1835  0.6969 -0.5821
 1538SOL    HW114528   2.445   5.232   1.693  1.3231 -0.8258 -0.6644
 1538SOL    HW214529   2.587   5.243   1.613  1.0046  3.2422 -0.7850
 1539SOL     OW14530   1.610   4.974   1.128  0.5787 -0.2687  0.1548
 1539SOL    HW114531   1.598   5.018   1.217  1.2238 -0.9081  0.5624
 1539SOL    HW214532   1.659   5.036   1.067  0.6914 -0.0717  0.4424
 1540SOL     OW14533   3.684   4.900   1.160  0.2174 -0.0132  0.0103
 1540SOL    HW114534   3.659   4.947   1.075 -1.5868  1.0796  1.1193
 1540SOL    HW214535   3.762   4.946   1.202  0.7601 -0.2229 -0.7539
 1541SOL     OW14536   5.171   3.379   2.302 -0.2539 -0.4388  0.4748
 1541SOL    HW114537   5.245   3.317   2.329 -0.8020 -1.5721 -0.6233
 1541SOL    HW214538   5.153   3.369   2.205 -1.3188  0.4203  0.5810
 1542SOL     OW14539   3.357   6.207   0.183 -0.4788 -0.0661  0.1936
 1542SOL    HW114540   3.430   6.268   0.153 -1.6033  1.8599  1.2998
 1542SOL    HW214541   3.379   6.173   0.275 -0.4152 -0.4073  0.0521
 1543SOL     OW14542   2.605   6.889   1.055 -0.8691  0.7963  0.4424
 1543SOL    HW114543   2.645   6.980   1.049  1.0866  0.0115  1.1334
 1543SOL    HW214544   2.531   6.880   0.988  0.6841  1.9981 -1.4687
 1544SOL     OW14545   3.442   3.783   0.964  0.3298 -0.3074 -0.1255
 1544SOL    HW114546   3.540   3.789   0.982  0.3369  1.9486 -0.7925
 1544SOL    HW214547   3.392   3.835   1.032 -0.1662  1.4018 -1.7560
 1545SOL     OW14548  10.042   5.463   1.798 -0.2929  0.0154  0.0206
 1545SOL    HW114549   9.967   5.516   1.760  0.3405  0.5584 -0.5008
 1545SOL    HW214550  10.094   5.421   1.723  0.1963  0.0265  0.3493
 1546SOL     OW14551   1.629   6.654   0.953  0.2282  0.1277  0.8943
 1546SOL    HW114552   1.702   6.641   0.885 -0.5697 -0.1358  0.0823
 1546SOL    HW214553   1.546   6.686   0.907  0.4821  2.6895  2.1160
 1547SOL     OW14554   2.508   4.278   0.304  0.0230  0.0165 -0.4435
 1547SOL    HW114555   2.466   4.284   0.395 -0.5691 -0.8766 -0.6545
 1547SOL    HW214556   2.575   4.205   0.303 -1.1760 -1.0975 -1.1908
 1548SOL     OW14557   2.606   2.195   2.280 -0.1156 -0.4384  0.3553
 1548SOL    HW114558   2.585   2.276   2.225  1.1403  0.3128  0.9554
 1548SOL    HW214559   2.521   2.151   2.309 -0.7984  0.2148 -0.6335
 1549SOL     OW14560   4.511   1.172   0.801  0.1612 -0.0082  0.6367
 1549SOL    HW114561   4.513   1.073   0.813 -1.4177 -0.0421  0.6373
 1549SOL    HW214562   4.432   1.210   0.849  1.0773  1.3212  1.1099
 1550SOL     OW14563   0.582   6.320   2.221 -0.3400  0.0366 -0.2066
 1550SOL    HW114564   0.536   6.393   2.270  1.9818  1.5651 -0.2242
 1550SOL    HW214565   0.664   6.292   2.271  1.1648  0.4846 -2.3142
 1551SOL     OW14566   1.968   7.257   2.511 -0.2068  0.1846 -0.4039
 1551SOL    HW114567   1.873   7.288   2.508 -0.3265  0.2800  2.6615
 1551SOL    HW214568   2.006   7.276   2.602  2.2253 -1.3366 -1.0649
 1552SOL     OW14569   2.512   6.715   1.918 -0.3190  0.2297  0.3303
 1552SOL    HW114570   2.422   6.673   1.925  0.6859 -2.0229  0.1899
 1552SOL    HW214571   2.582   6.648   1.942  1.4185  1.4014 -1.3008
 1553SOL     OW14572   1.351   3.806   1.248 -0.3353 -0.5367 -0.3016
 1553SOL    HW114573   1.313   3.731   1.303 -0.6051 -0.8405 -0.9062
 1553SOL    HW214574   1.307   3.808   1.158 -0.8074  0.7697 -0.0532
 1554SOL     OW14575   5.232   3.713   1.952 -0.5112  0.0131  0.4219
 1554SOL    HW114576   5.175   3.668   1.884  0.2751  0.9983 -0.9068
 1554SOL    HW214577   5.298   3.647   1.990  0.0884 -0.1578 -0.9061
 1555SOL     OW14578   1.078   4.266   2.134  0.2707 -0.3342  0.1897
 1555SOL    HW114579   1.129   4.285   2.218 -0.9832 -0.6736  1.0587
 1555SOL    HW214580   1.075   4.348   2.077  2.5105 -0.5627 -0.2872
 1556SOL     OW14581   0.770   4.690   0.714  0.3037  0.2075  0.4777
 1556SOL    HW114582   0.754   4.624   0.640  0.1701  1.2080 -0.3954
 1556SOL    HW214583   0.768   4.642   0.802  0.5073 -1.0055 -0.1577
 1557SOL     OW14584   2.472   5.864   1.581  0.3384 -0.2203  0.7526
 1557SOL    HW114585   2.385   5.828   1.547 -0.8085  1.0353  2.2724
 1557SOL    HW214586   2.502   5.808   1.659 -0.1881  0.5997  1.5524
 1558SOL     OW14587   3.988   1.368   1.522 -0.0361 -0.1571  0.1033
 1558SOL    HW114588   3.968   1.316   1.439 -1.5130 -0.0264  0.3581
 1558SOL    HW214589   3.922   1.443   1.531  1.0869  0.7850  0.5755
 1559SOL     OW14590   3.555   0.826   1.665  0.4202 -0.0075 -0.2544
 1559SOL    HW114591   3.517   0.854   1.754 -1.5159 -1.2589 -0.6434
 1559SOL    HW214592   3.522   0.734   1.643 -0.4581  0.9173 -2.9979
 1560SOL     OW14593   3.078   7.978   1.856 -0.0589 -0.3552 -0.0325
 1560SOL    HW114594   3.007   7.921   1.897 -0.0036 -0.4301 -0.0415
 1560SOL    HW214595   3.048   8.073   1.855 -0.1902 -0.3971 -0.1031
 1561SOL     OW14596   3.678   2.932   0.200 -0.0377  0.4303 -0.3632
 1561SOL    HW114597   3.704   2.872   0.276  0.7334  0.0551 -0.9224
 1561SOL    HW214598   3.593   2.979   0.223  0.7170  1.0909  1.1672
 1562SOL     OW14599   2.929   8.994   2.269  0.1621  0.5405  0.0557
 1562SOL    HW114600   2.959   9.059   2.339 -2.3659  0.2311  1.4848
 1562SOL    HW214601   2.839   8.959   2.293  0.6591 -2.0464 -1.7091
 1563SOL     OW14602   3.552   3.188   2.009 -0.4981  0.0140  0.0328
 1563SOL    HW114603   3.554   3.266   1.948 -0.6754  0.3048  0.3981
 1563SOL    HW214604   3.525   3.106   1.958 -0.0150  0.1317 -0.4112
 1564SOL     OW14605   1.688   5.510   0.447  0.5984 -0.0415 -0.1392
 1564SOL    HW114606   1.782   5.476   0.440  0.1412 -1.4264  0.2114
 1564SOL    HW214607   1.660   5.511   0.543  0.3963  0.8064 -0.1990
 1565SOL     OW14608   1.923   3.703   1.930 -0.2834 -0.7142  0.1271
 1565SOL    HW114609   1.839   3.657   1.959 -0.3032 -0.7525  0.0130
 1565SOL    HW214610   1.906   3.752   1.845  0.3673 -2.5581 -1.1228
 1566SOL     OW14611   0.200   4.377   0.570 -0.3719 -0.6619  0.1803
 1566SOL    HW114612   0.236   4.312   0.504  1.6214  1.1592 -0.5792
 1566SOL    HW214613   0.186   4.331   0.658  5.7127 -1.1480  1.1236
 1567SOL     OW14614   4.682   2.082   1.427 -0.5691  0.4739 -0.3485
 1567SOL    HW114615   4.766   2.136   1.433 -0.3932  0.0508  1.3370
 1567SOL    HW214616   4.604   2.144   1.415 -0.4144  1.1768  2.0034
 1568SOL     OW14617   1.920   4.109   0.745  0.2117  0.5700 -0.3383
 1568SOL    HW114618   1.918   4.195   0.796  0.8961  1.0773 -1.1539
 1568SOL    HW214619   1.924   4.128   0.647 -0.5820 -0.3990 -0.5641
 1569SOL     OW14620   1.809   5.432   0.863  0.1205 -0.1798 -0.0301
 1569SOL    HW114621   1.745   5.476   0.800  0.5806 -0.8230 -0.9615
 1569SOL    HW214622   1.762   5.410   0.948 -0.8360 -0.4206 -0.6099
 1570SOL     OW14623   9.180   4.483   1.925 -0.2021 -0.2778  0.8118
 1570SOL    HW114624   9.224   4.503   2.013 -1.2114  2.1717  0.8120
 1570SOL    HW214625   9.238   4.518   1.851  0.0338 -1.1887  0.5621
 1571SOL     OW14626   1.265   4.834   0.410 -0.3011 -0.0035  0.4095
 1571SOL    HW114627   1.217   4.830   0.498 -0.5005  0.0348  0.3019
 1571SOL    HW214628   1.351   4.883   0.421 -0.8570  0.9959  0.3345
 1572SOL     OW14629   3.027   1.664   0.910 -0.1819  0.6371  0.3654
 1572SOL    HW114630   2.983   1.647   0.998 -1.3801 -1.6610 -0.6552
 1572SOL    HW214631   3.110   1.718   0.925 -0.2381  0.0927  2.9226
 1573SOL     OW14632   2.391   5.291   0.759 -0.5864  0.4523  0.5358
 1573SOL    HW114633   2.479   5.243   0.758 -0.5051  0.5275  2.2006
 1573SOL    HW214634   2.363   5.312   0.665  0.0436 -1.6266 -0.1442
 1574SOL     OW14635   3.679   3.378   2.257  0.5441  0.9794  0.9784
 1574SOL    HW114636   3.695   3.412   2.350  1.1437 -1.3067  1.7456
 1574SOL    HW214637   3.584   3.349   2.249  0.1016  2.5440  0.4040
 1575SOL     OW14638   1.175   5.265   1.813 -0.3058  0.6387  0.6463
 1575SOL    HW114639   1.155   5.349   1.865  1.0538  1.3179  0.1102
 1575SOL    HW214640   1.247   5.285   1.746  2.2879 -1.7191  2.6304
 1576SOL     OW14641   2.893   6.604   1.877 -0.0342  0.4822  0.2246
 1576SOL    HW114642   2.900   6.703   1.892 -0.5544  0.5544  0.0059
 1576SOL    HW214643   2.977   6.571   1.834  0.3851  0.7246  0.8587
 1577SOL     OW14644   5.202   2.630   2.427  0.2422 -0.4648  0.3886
 1577SOL    HW114645   5.164   2.704   2.371  0.4132  0.2059  1.1453
 1577SOL    HW214646   5.130   2.588   2.481  0.4082  0.1765  1.1131
 1578SOL     OW14647   2.936   2.867   0.008 -0.1713  0.2579 -0.2459
 1578SOL    HW114648   2.848   2.825   0.029 -0.4366  1.2413  0.6257
 1578SOL    HW214649   2.954   2.860  -0.090 -0.4622 -1.3990 -0.1890
 1579SOL     OW14650   2.642   6.629   0.236  0.3402  0.0063  0.1278
 1579SOL    HW114651   2.704   6.706   0.251  0.3646 -0.0034  0.0756
 1579SOL    HW214652   2.646   6.568   0.315  0.1512  0.1749  0.2684
 1580SOL     OW14653   4.997   3.627   1.799 -0.1685  0.4923 -0.1170
 1580SOL    HW114654   4.911   3.676   1.788  0.1625  1.1710  0.3007
 1580SOL    HW214655   5.016   3.573   1.717 -0.4930  1.1211 -0.6038
 1581SOL     OW14656   2.881   8.871   0.541 -0.8865 -0.2247  0.0473
 1581SOL    HW114657   2.815   8.815   0.591 -1.0316 -0.2376 -0.1558
 1581SOL    HW214658   2.833   8.927   0.473 -0.7117 -0.0667  0.0538
 1582SOL     OW14659   0.536   6.338   2.529  0.8035 -0.3926  0.4649
 1582SOL    HW114660   0.454   6.318   2.583  0.6948  1.7774  1.1332
 1582SOL    HW214661   0.528   6.428   2.487  2.3168 -0.6917 -0.5117
 1583SOL     OW14662   4.220   1.053   0.164  0.0286 -0.0721  0.0284
 1583SOL    HW114663   4.305   1.097   0.135  1.2072 -1.5956  1.1091
 1583SOL    HW214664   4.239   0.990   0.239 -1.9727 -0.8386 -0.0837
 1584SOL     OW14665   3.801   5.528   0.258  0.4345 -0.2580  0.3550
 1584SOL    HW114666   3.749   5.594   0.312  1.3629  0.9275 -0.1910
 1584SOL    HW214667   3.897   5.555   0.254  0.8095 -1.5829  0.0349
 1585SOL     OW14668   3.729   3.321   1.729 -0.2510  0.2168  0.2688
 1585SOL    HW114669   3.779   3.369   1.801  0.1782 -1.2039  0.9314
 1585SOL    HW214670   3.794   3.290   1.659  0.0430 -2.8967  1.8478
 1586SOL     OW14671   9.611   4.452   1.251 -0.3830  0.5045 -0.2619
 1586SOL    HW114672   9.530   4.460   1.308 -0.4799  1.2074 -0.4969
 1586SOL    HW214673   9.617   4.531   1.190  0.7067  0.6864  0.0646
 1587SOL     OW14674   2.854   8.420   2.273  0.2760 -0.7189  0.0401
 1587SOL    HW114675   2.948   8.432   2.240  0.3000 -0.1579  0.3136
 1587SOL    HW214676   2.790   8.461   2.209  0.3074  0.1561  0.5689
 1588SOL     OW14677   3.505   1.332   0.424  0.2778  0.1283  0.0274
 1588SOL    HW114678   3.443   1.259   0.394 -1.4510  1.9680 -0.9689
 1588SOL    HW214679   3.596   1.294   0.439  0.0575 -1.7694 -3.0437
 1589SOL     OW14680   2.161   3.886   0.429 -0.1882  0.1653 -0.6956
 1589SOL    HW114681   2.102   3.964   0.407 -1.0404 -0.4641 -0.6857
 1589SOL    HW214682   2.134   3.848   0.518  1.2207  0.7900  0.0187
 1590SOL     OW14683   2.737   8.788   1.665 -0.3875  0.5082  0.4041
 1590SOL    HW114684   2.670   8.755   1.598  0.1123 -0.5782  0.4286
 1590SOL    HW214685   2.765   8.881   1.641  2.3713 -1.0526 -2.9639
 1591SOL     OW14686   2.335   5.813   1.087 -0.2679 -0.3264  0.4421
 1591SOL    HW114687   2.282   5.744   1.037  1.6754 -1.1612 -0.5218
 1591SOL    HW214688   2.340   5.897   1.033  0.8101 -0.8257 -0.2643
 1592SOL     OW14689   2.806   4.445   0.102 -0.7360  0.6708 -0.0762
 1592SOL    HW114690   2.784   4.348   0.093 -1.4781  0.8680 -0.3988
 1592SOL    HW214691   2.864   4.474   0.025  0.6114  0.1685  0.7397
 1593SOL     OW14692   3.483   5.131   0.343 -0.1721 -0.6613  0.2267
 1593SOL    HW114693   3.549   5.204   0.362 -0.8273  0.0253 -0.1103
 1593SOL    HW214694   3.393   5.157   0.377 -0.1645 -1.8227  1.1484
 1594SOL     OW14695   2.397   6.103   0.620  0.0180 -0.0315 -0.3749
 1594SOL    HW114696   2.475   6.058   0.576 -0.1759  0.1148 -0.8701
 1594SOL    HW214697   2.371   6.051   0.701 -0.1855 -0.7999 -0.9233
 1595SOL     OW14698   3.435   8.999   0.496 -0.2792  0.0687 -0.1967
 1595SOL    HW114699   3.419   9.016   0.399  2.4067  1.1872 -0.4774
 1595SOL    HW214700   3.477   9.080   0.537 -2.5317  0.0807  2.2113
 1596SOL     OW14701   3.414   7.984   0.402  0.1527  0.4002  0.6875
 1596SOL    HW114702   3.411   7.939   0.491  0.7297 -1.5475 -0.2575
 1596SOL    HW214703   3.507   8.013   0.382  0.6879 -2.1158 -0.6832
 1597SOL     OW14704   2.789   3.417   2.132 -0.0412  0.2183 -0.7871
 1597SOL    HW114705   2.711   3.355   2.123  0.0884 -0.0230 -0.2610
 1597SOL    HW214706   2.840   3.419   2.046  1.8967 -3.0123  0.1786
 1598SOL     OW14707   3.850   4.052   0.763 -0.6619 -0.0162  0.2766
 1598SOL    HW114708   3.855   4.133   0.821  1.4821 -1.5119  2.2922
 1598SOL    HW214709   3.933   4.046   0.707 -0.5580 -1.0696  0.5290
 1599SOL     OW14710   3.426   5.404   0.992  0.4347 -0.6667  0.4833
 1599SOL    HW114711   3.435   5.468   1.068  0.2027 -1.0624  0.8412
 1599SOL    HW214712   3.382   5.320   1.023 -0.5484 -0.4546 -0.2890
 1600SOL     OW14713   2.970   8.624   0.734 -0.3199  0.7933 -0.9563
 1600SOL    HW114714   3.049   8.568   0.710 -0.3259  1.4392 -2.5213
 1600SOL    HW214715   2.955   8.620   0.832  1.3480  0.2670 -0.7138
 1601SOL     OW14716   2.954   6.069   1.384  0.7141  0.1786  0.5263
 1601SOL    HW114717   2.957   6.029   1.292  1.9764 -2.0825  1.5092
 1601SOL    HW214718   2.874   6.034   1.432  1.4929 -0.7260  1.1825
 1602SOL     OW14719   2.185   5.996   1.424  0.1197 -0.0863  0.0851
 1602SOL    HW114720   2.150   6.038   1.340 -0.3766  1.1463  0.9057
 1602SOL    HW214721   2.272   5.950   1.404  1.0046  1.8785 -0.6788
 1603SOL     OW14722   3.124   2.514   1.363  0.2744 -0.3834  0.3353
 1603SOL    HW114723   3.148   2.471   1.450  0.4184 -2.1017 -0.5252
 1603SOL    HW214724   3.206   2.551   1.320  0.3045 -0.1263  0.6123
 1604SOL     OW14725   1.537   5.032   2.157  0.1942  0.0439 -0.0795
 1604SOL    HW114726   1.593   5.045   2.076  2.4223 -1.2628  1.2044
 1604SOL    HW214727   1.586   5.067   2.237 -0.9798 -0.7975  1.0259
 1605SOL     OW14728   2.153   4.220   2.158  0.4240 -0.0709  0.4667
 1605SOL    HW114729   2.074   4.171   2.193 -0.9170  1.6468 -0.1031
 1605SOL    HW214730   2.168   4.197   2.062  0.8182 -0.6287  0.6576
 1606SOL     OW14731   1.905   3.835   0.733 -0.2785 -0.4014 -0.2189
 1606SOL    HW114732   1.918   3.933   0.716 -0.7198 -0.2754  0.1650
 1606SOL    HW214733   1.880   3.821   0.828  1.1101 -1.0152  0.0645
 1607SOL     OW14734   4.743   2.231   2.531 -0.3957  0.0836 -0.2792
 1607SOL    HW114735   4.759   2.134   2.548 -1.0577 -0.0009 -0.1557
 1607SOL    HW214736   4.703   2.273   2.612  0.9422  0.7080  0.0821
 1608SOL     OW14737   2.484   1.859   0.902 -0.3480 -0.2373  0.3849
 1608SOL    HW114738   2.464   1.762   0.916 -0.9916  0.1326  2.0728
 1608SOL    HW214739   2.479   1.907   0.989 -0.4244  1.3945 -0.5089
 1609SOL     OW14740   2.807   9.688   0.331  0.0461 -0.4442  0.2208
 1609SOL    HW114741   2.876   9.618   0.349 -0.4511 -1.1078 -0.4508
 1609SOL    HW214742   2.826   9.732   0.243  0.5872  0.5487  0.8200
 1610SOL     OW14743   3.876   3.541   0.325 -0.1167 -0.3349  0.2231
 1610SOL    HW114744   3.794   3.588   0.359 -0.5727 -1.4641  0.6914
 1610SOL    HW214745   3.951   3.554   0.391  0.1614  0.8867 -0.3132
 1611SOL     OW14746   3.142   5.786   0.571 -0.4979 -0.1552 -0.0397
 1611SOL    HW114747   3.132   5.885   0.563 -1.4080 -0.3213 -1.0766
 1611SOL    HW214748   3.150   5.761   0.667 -2.5908  0.7163  0.3839
 1612SOL     OW14749   4.884   3.844   1.493  0.3105  0.1751  0.6590
 1612SOL    HW114750   4.838   3.759   1.466  1.2425 -0.4107  0.9149
 1612SOL    HW214751   4.869   3.860   1.591  0.3270  0.1910  0.6590
 1613SOL     OW14752   2.441   5.558   2.468  0.0328  0.2570 -0.0941
 1613SOL    HW114753   2.487   5.522   2.550  0.9011 -1.2111 -1.2021
 1613SOL    HW214754   2.498   5.630   2.427 -1.1295  2.1215  1.4226
 1614SOL     OW14755   2.318   7.105   0.493  0.0391 -0.2504  0.2425
 1614SOL    HW114756   2.383   7.173   0.460  0.3939 -1.1615 -0.9409
 1614SOL    HW214757   2.267   7.144   0.570  2.0801  0.4103  1.3145
 1615SOL     OW14758   3.980   5.949   0.371 -0.3443  0.1975  0.3332
 1615SOL    HW114759   4.067   5.935   0.419 -0.1342 -1.0904 -0.4039
 1615SOL    HW214760   3.988   5.915   0.277 -1.4090  0.7815  0.0290
 1616SOL     OW14761   1.415   6.011   0.175 -1.1710  0.0357  0.6846
 1616SOL    HW114762   1.395   5.956   0.094  0.0733 -3.5275  2.7016
 1616SOL    HW214763   1.506   6.051   0.166 -1.3385  0.2835  0.0218
 1617SOL     OW14764   3.924   3.263   1.548 -0.8897  0.0758  0.1916
 1617SOL    HW114765   3.937   3.360   1.530 -3.2210  0.6702  1.4306
 1617SOL    HW214766   4.011   3.214   1.538  0.2598  2.2390 -0.6117
 1618SOL     OW14767   3.212   8.548   1.028 -1.0320  1.0539  0.4007
 1618SOL    HW114768   3.247   8.573   0.937 -0.1977  0.3404  0.5160
 1618SOL    HW214769   3.112   8.548   1.027 -1.0262  1.0998 -0.5051
 1619SOL     OW14770   4.295   3.837   0.483 -0.1613  0.1981  0.2341
 1619SOL    HW114771   4.297   3.935   0.462  1.0585  0.1195 -0.0310
 1619SOL    HW214772   4.301   3.785   0.398  0.3735 -0.1073  0.4570
 1620SOL     OW14773   3.804   1.990   2.573  0.7454 -0.2932  0.5120
 1620SOL    HW114774   3.845   2.055   2.637 -1.3200  0.2032  1.3774
 1620SOL    HW214775   3.772   2.039   2.492  0.1926 -0.4016  0.6663
 1621SOL     OW14776   4.292   1.310   0.855 -0.5273  0.0371  0.3758
 1621SOL    HW114777   4.253   1.346   0.770  3.0557  2.6672 -0.2429
 1621SOL    HW214778   4.234   1.336   0.932 -2.0152  0.5444 -0.8862
 1622SOL     OW14779   3.240  10.221   2.240  0.5389  0.3687 -0.1845
 1622SOL    HW114780   3.216  10.296   2.179 -2.4952 -0.1622  0.2736
 1622SOL    HW214781   3.225  10.134   2.193 -1.5903 -0.0362  1.1611
 1623SOL     OW14782   3.339   0.693   2.374 -0.8386 -0.1324 -0.0710
 1623SOL    HW114783   3.270   0.683   2.303 -1.1819  1.5696 -0.0018
 1623SOL    HW214784   3.310   0.763   2.439 -0.3469 -1.4081  1.5442
 1624SOL     OW14785   5.081   2.221  -0.006  0.2790 -0.5370 -0.2175
 1624SOL    HW114786   5.141   2.300  -0.011  0.8318 -1.0036 -0.9692
 1624SOL    HW214787   5.028   2.213  -0.091  0.6985 -1.3454 -0.4096
 1625SOL     OW14788   1.643   4.503   0.510 -0.1303 -0.2529  0.4001
 1625SOL    HW114789   1.703   4.566   0.460 -0.0911 -0.2163  0.4919
 1625SOL    HW214790   1.575   4.556   0.561 -0.3090 -0.2980  0.2106
 1626SOL     OW14791   3.789   1.086   0.189 -0.2697 -0.4605 -0.0150
 1626SOL    HW114792   3.863   1.069   0.255  0.7440 -0.0506 -1.0171
 1626SOL    HW214793   3.705   1.043   0.221  1.1282 -3.5867 -0.3023
 1627SOL     OW14794   3.994   1.590   1.278  0.3176  0.1140 -0.1726
 1627SOL    HW114795   3.902   1.554   1.267  1.0213 -1.7627 -0.1363
 1627SOL    HW214796   4.009   1.617   1.373 -0.6373  1.7408 -0.4694
 1628SOL     OW14797   3.853   3.643   1.917  0.1052 -0.1758 -0.2128
 1628SOL    HW114798   3.767   3.694   1.915  0.2551  0.1224  0.7672
 1628SOL    HW214799   3.845   3.568   1.983  1.5271  1.5432  1.9646
 1629SOL     OW14800   2.403   2.077   0.691 -0.2151 -0.5108 -0.1618
 1629SOL    HW114801   2.403   2.057   0.593  0.1813 -0.6918 -0.1257
 1629SOL    HW214802   2.432   1.996   0.742 -1.8602 -0.8950  0.2119
 1630SOL     OW14803   1.871   4.554   0.336 -0.5513 -0.1158 -0.0967
 1630SOL    HW114804   1.940   4.584   0.270  1.0825  1.8826  2.4687
 1630SOL    HW214805   1.797   4.621   0.340 -0.5097 -0.0943  0.3178
 1631SOL     OW14806   2.724   5.553   1.852 -0.4290 -0.1138  0.2993
 1631SOL    HW114807   2.732   5.493   1.931 -0.5181 -1.8845 -0.9892
 1631SOL    HW214808   2.641   5.609   1.859 -0.5121 -0.3722  1.3663
 1632SOL     OW14809   3.912  10.094   0.934  0.4245  0.0350 -0.6942
 1632SOL    HW114810   3.815  10.077   0.918  0.9203 -0.8914 -2.9155
 1632SOL    HW214811   3.966  10.041   0.870  2.4900 -0.8148  1.6780
 1633SOL     OW14812  10.165   5.353   1.584 -0.8090  0.1774 -0.4637
 1633SOL    HW114813  10.263   5.345   1.600 -0.8968  0.8154  0.3903
 1633SOL    HW214814  10.138   5.289   1.511  0.6835  1.9049 -2.6012
 1634SOL     OW14815   3.052   4.661   1.469  0.1513 -0.4062 -0.1729
 1634SOL    HW114816   3.143   4.633   1.441  0.5353  0.5012  0.1511
 1634SOL    HW214817   3.041   4.644   1.567  1.3308  2.9691  0.6078
 1635SOL     OW14818   3.039   2.030   0.441  0.3284 -0.2132 -0.1237
 1635SOL    HW114819   3.090   2.114   0.425 -0.2860  0.6564  2.2910
 1635SOL    HW214820   3.086   1.976   0.511 -0.1429 -1.1354 -0.5135
 1636SOL     OW14821   5.377   3.550   1.015  0.2001 -0.3668  0.5649
 1636SOL    HW114822   5.400   3.647   1.002  1.7909 -0.7988  0.0689
 1636SOL    HW214823   5.314   3.541   1.092  0.0089  1.0705  0.5905
 1637SOL     OW14824   3.179   4.001   2.274  0.8926 -0.0906  0.9466
 1637SOL    HW114825   3.251   3.933   2.289  0.7480 -0.1378  1.4293
 1637SOL    HW214826   3.181   4.031   2.179  0.8331 -0.9079  0.6865
 1638SOL     OW14827   2.804   7.237   2.304  0.1250  0.4280  0.9601
 1638SOL    HW114828   2.725   7.205   2.252 -0.3891 -0.9742  2.5451
 1638SOL    HW214829   2.796   7.335   2.320 -1.0880  0.3706  0.7558
 1639SOL     OW14830   2.872   4.071   1.876 -0.6106 -1.0206  0.0411
 1639SOL    HW114831   2.801   4.066   1.946  0.8333 -0.0287  1.6366
 1639SOL    HW214832   2.836   4.114   1.793 -1.4926  0.8464  1.3594
 1640SOL     OW14833   2.403   4.692   1.521  0.5008 -0.0165 -0.3501
 1640SOL    HW114834   2.318   4.722   1.563  0.2955 -1.1984  0.1150
 1640SOL    HW214835   2.480   4.730   1.572  0.2486 -0.7132  0.5822
 1641SOL     OW14836   0.430   6.012   2.299 -0.0170 -0.1063  0.1444
 1641SOL    HW114837   0.482   6.070   2.237  1.0116 -2.6688 -1.4587
 1641SOL    HW214838   0.334   6.011   2.272 -0.0588  0.9173  0.2490
 1642SOL     OW14839   2.711   6.977   2.555 -0.2087  0.4763  0.4150
 1642SOL    HW114840   2.756   7.063   2.531 -1.1417  0.1534 -2.7944
 1642SOL    HW214841   2.617   6.995   2.585 -0.5123  0.5999 -0.5723
 1643SOL     OW14842   1.562   3.166   0.874 -0.1829 -0.0081  0.1570
 1643SOL    HW114843   1.573   3.265   0.887 -0.9368  0.1760 -0.6228
 1643SOL    HW214844   1.550   3.146   0.777 -1.5975 -0.7148  0.4718
 1644SOL     OW14845   3.938   9.151   1.000  0.2500 -0.2958 -0.5939
 1644SOL    HW114846   3.963   9.082   0.932  1.2960 -0.4654 -0.0567
 1644SOL    HW214847   3.984   9.237   0.979  1.1245 -0.5424  0.2738
 1645SOL     OW14848   1.094   5.413   1.137  0.1180 -0.3505 -0.3681
 1645SOL    HW114849   1.045   5.363   1.065 -1.5207 -0.9773  1.1448
 1645SOL    HW214850   1.082   5.366   1.224 -0.1707  1.8407  0.8070
 1646SOL     OW14851   3.047   8.871   0.840  0.4382 -0.2416 -0.1943
 1646SOL    HW114852   3.084   8.955   0.800 -0.3925  0.7686  1.0965
 1646SOL    HW214853   3.035   8.802   0.768 -0.3051  1.2712 -1.5589
 1647SOL     OW14854   1.199   4.169   0.589  0.3890  0.5544  0.0029
 1647SOL    HW114855   1.238   4.100   0.650  1.1311 -0.2383 -1.3518
 1647SOL    HW214856   1.140   4.124   0.522  1.1264  1.1898 -1.0875
 1648SOL     OW14857   2.818   0.565   0.093  0.4210 -0.7140 -0.8541
 1648SOL    HW114858   2.756   0.592   0.019  0.3912  1.8377  0.0376
 1648SOL    HW214859   2.912   0.565   0.059  0.4048  0.4225 -0.9160
 1649SOL     OW14860   1.696   7.009   2.048  0.2600 -0.7088 -0.4736
 1649SOL    HW114861   1.657   6.964   1.967  1.3885 -2.5256 -0.0436
 1649SOL    HW214862   1.796   7.012   2.039  0.2474  0.9416 -0.0790
 1650SOL     OW14863   2.904   9.973   0.721  0.1003 -0.0382  0.0218
 1650SOL    HW114864   2.898  10.067   0.753 -0.2049  0.0803 -0.3803
 1650SOL    HW214865   2.919   9.972   0.622  1.4892 -0.4014  0.2302
 1651SOL     OW14866   2.677   4.555   2.274 -0.1318  0.0541 -0.2978
 1651SOL    HW114867   2.719   4.645   2.268 -1.8065  0.9182  0.6779
 1651SOL    HW214868   2.580   4.564   2.296 -0.0090 -2.0350  1.2836
 1652SOL     OW14869   1.278   3.819   0.987  0.1955 -0.0340  0.1072
 1652SOL    HW114870   1.295   3.857   0.896  0.1038 -0.4975 -0.1039
 1652SOL    HW214871   1.287   3.720   0.983  1.2758  0.0243  0.8438
 1653SOL     OW14872   3.473   3.654   2.567 -0.6752 -0.0093 -0.0615
 1653SOL    HW114873   3.509   3.644   2.660 -0.2250  0.8953 -0.1414
 1653SOL    HW214874   3.428   3.569   2.540 -2.4744  0.3312  1.7082
 1654SOL     OW14875   4.466   4.595   2.089  0.4600 -0.4635 -0.3052
 1654SOL    HW114876   4.564   4.578   2.092  0.7393  1.0599 -0.3177
 1654SOL    HW214877   4.417   4.509   2.105  1.7857 -0.9209  1.5645
 1655SOL     OW14878   4.051   9.232   2.066  0.3994 -0.3053 -0.2220
 1655SOL    HW114879   4.127   9.279   2.111 -0.7081  0.5668  0.7886
 1655SOL    HW214880   4.047   9.137   2.097 -0.2631  0.2435  1.5016
 1656SOL     OW14881   2.313   7.869   0.487 -0.2555 -0.1762 -0.4953
 1656SOL    HW114882   2.291   7.886   0.391 -1.6558  0.6092 -0.0436
 1656SOL    HW214883   2.248   7.802   0.524 -1.6920  1.8744  0.7497
 1657SOL     OW14884   9.834   4.704   0.913 -0.5405 -0.2210  0.5111
 1657SOL    HW114885   9.900   4.633   0.887  0.7735  1.3011 -0.3765
 1657SOL    HW214886   9.761   4.662   0.967  0.9900 -2.0079  1.2992
 1658SOL     OW14887   4.729   9.245   2.500 -0.3879  0.6138 -0.0333
 1658SOL    HW114888   4.828   9.255   2.510 -0.0023 -0.5664 -2.3489
 1658SOL    HW214889   4.685   9.259   2.589  1.6168  3.5529  0.5810
 1659SOL     OW14890   3.840   3.288   2.067 -0.4954  0.5448 -0.5777
 1659SOL    HW114891   3.766   3.240   2.020  0.6517 -0.8017 -1.0295
 1659SOL    HW214892   3.802   3.339   2.144 -1.7585 -0.9938 -0.1497
 1660SOL     OW14893   2.687   4.894   0.789  0.2712  0.3138  0.2587
 1660SOL    HW114894   2.696   4.850   0.878 -0.6370 -0.3583  0.0243
 1660SOL    HW214895   2.775   4.890   0.741  0.1409 -1.4903  0.1327
 1661SOL     OW14896   2.217   6.209   0.414  0.5695 -0.3649  0.5991
 1661SOL    HW114897   2.262   6.178   0.498  1.8665 -1.0985 -0.3381
 1661SOL    HW214898   2.143   6.145   0.390 -0.4279  0.3758  1.6907
 1662SOL     OW14899   1.492   3.090   0.594  0.0404  0.4740 -0.2960
 1662SOL    HW114900   1.493   3.115   0.498 -0.4170  0.2894 -0.3500
 1662SOL    HW214901   1.510   2.992   0.603  0.4889  0.5688 -0.1699
 1663SOL     OW14902   3.650   3.896   1.240  0.2279 -0.3077  0.2762
 1663SOL    HW114903   3.641   3.978   1.183 -0.0281  0.1924  1.0317
 1663SOL    HW214904   3.670   3.923   1.334 -0.6369 -1.0822  0.6860
 1664SOL     OW14905   4.950   3.213   2.358 -0.1062 -0.0073 -0.4915
 1664SOL    HW114906   4.870   3.257   2.398 -0.5600 -0.2722 -1.1031
 1664SOL    HW214907   5.017   3.283   2.333  0.1821  0.1588  0.7216
 1665SOL     OW14908   2.942   7.710   2.185  0.2217  0.1258  0.1568
 1665SOL    HW114909   2.894   7.696   2.098 -0.3726  0.6750  0.3959
 1665SOL    HW214910   3.041   7.705   2.169  0.0873 -2.7541 -0.0406
 1666SOL     OW14911   5.351   2.408   2.020 -0.1244  0.0376 -0.3365
 1666SOL    HW114912   5.397   2.496   2.008 -1.5820  0.8918  0.1520
 1666SOL    HW214913   5.294   2.412   2.102 -0.1145 -1.4103 -0.2512
 1667SOL     OW14914   5.406   2.994   1.922 -0.5154 -0.2071 -0.3343
 1667SOL    HW114915   5.373   2.924   1.858  0.5303 -2.0433  1.0988
 1667SOL    HW214916   5.492   3.031   1.888  0.3078 -1.5529  0.2530
 1668SOL     OW14917   0.578   6.105   1.552 -0.3331 -0.1992  0.0880
 1668SOL    HW114918   0.626   6.178   1.502 -0.9487  1.5098  1.9142
 1668SOL    HW214919   0.607   6.105   1.648  0.1212 -2.7981 -0.0273
 1669SOL     OW14920   0.202   4.385   0.848 -0.6952  0.3805 -0.5053
 1669SOL    HW114921   0.199   4.482   0.869  0.2347  0.3859 -0.3694
 1669SOL    HW214922   0.260   4.338   0.914 -0.3625 -0.1106 -1.1376
 1670SOL     OW14923   0.171   5.724   2.450 -0.6672  0.0558 -0.1054
 1670SOL    HW114924   0.250   5.777   2.420 -0.7821 -0.8903 -2.1579
 1670SOL    HW214925   0.151   5.744   2.546  3.8023 -1.7884  1.3375
 1671SOL     OW14926   2.320   7.454   0.108 -0.1743 -0.0311  0.1260
 1671SOL    HW114927   2.373   7.389   0.053 -2.2206 -0.1106 -1.8365
 1671SOL    HW214928   2.330   7.546   0.071  0.4611  0.3404  1.1926
 1672SOL     OW14929   3.060   7.809   0.587  0.3138 -0.3033 -0.0160
 1672SOL    HW114930   3.084   7.868   0.665 -1.3390 -0.0664  0.3275
 1672SOL    HW214931   3.051   7.715   0.619  0.0543 -0.2717  0.0072
 1673SOL     OW14932   0.188   5.268   2.288 -0.7027 -0.0738  0.0273
 1673SOL    HW114933   0.101   5.221   2.271 -0.9136 -0.7601  2.8550
 1673SOL    HW214934   0.189   5.303   2.381  1.2345  1.7641 -0.6556
 1674SOL     OW14935   2.590   6.380   2.522 -0.7297 -0.6235 -0.3918
 1674SOL    HW114936   2.615   6.464   2.569 -0.7947 -0.7480 -0.1334
 1674SOL    HW214937   2.672   6.327   2.502 -0.6660 -0.3915 -0.7645
 1675SOL     OW14938   2.126   7.482   2.344  0.1945  0.2792 -0.1061
 1675SOL    HW114939   2.114   7.429   2.428 -1.3187  1.4076  0.4014
 1675SOL    HW214940   2.057   7.454   2.277  0.0665  0.8660 -0.2184
 1676SOL     OW14941   3.313   8.953   1.682  0.3672  0.7298 -0.3187
 1676SOL    HW114942   3.220   8.974   1.713 -0.7364 -2.1159 -1.5406
 1676SOL    HW214943   3.375   8.950   1.760 -0.4289  3.1515  0.4598
 1677SOL     OW14944   3.036   6.690   0.543 -0.1151  0.7717 -0.4687
 1677SOL    HW114945   3.006   6.664   0.635  0.1916  1.6835 -0.0966
 1677SOL    HW214946   2.956   6.705   0.485 -0.3115  0.2012 -0.3426
 1678SOL     OW14947   2.838   9.826   2.403 -0.2289  0.1366  0.0623
 1678SOL    HW114948   2.911   9.767   2.369 -0.2978 -0.3537  0.7497
 1678SOL    HW214949   2.856   9.921   2.376 -0.0691 -0.1860 -0.9651
 1679SOL     OW14950   5.085   2.902   0.799  0.2251  0.1797  0.4994
 1679SOL    HW114951   5.083   2.990   0.752 -1.1156 -0.3278 -0.4342
 1679SOL    HW214952   5.033   2.908   0.884 -1.4822 -0.2142 -0.5029
 1680SOL     OW14953   3.859   3.100   0.138  0.2406  0.3004  0.3413
 1680SOL    HW114954   3.795   3.024   0.148  0.5900 -0.2774 -1.5512
 1680SOL    HW214955   3.861   3.129   0.042  1.5895  1.3973  0.6842
 1681SOL     OW14956   1.971   5.092   1.160 -0.2889  0.7148  0.2739
 1681SOL    HW114957   1.960   5.114   1.257  0.1740  1.2178  0.2138
 1681SOL    HW214958   2.064   5.058   1.144 -0.2461  0.9882 -0.0608
 1682SOL     OW14959   5.074   2.937   2.423 -0.0217 -0.4615  0.3242
 1682SOL    HW114960   5.037   3.027   2.398  1.3595 -0.1151 -0.5122
 1682SOL    HW214961   5.095   2.936   2.521  2.1505  0.9283 -0.1054
 1683SOL     OW14962   3.363   9.757   1.788 -0.0066 -0.0116 -0.1302
 1683SOL    HW114963   3.342   9.661   1.769 -0.1390  0.0912 -0.5073
 1683SOL    HW214964   3.461   9.767   1.802 -0.3114 -0.7428  3.0680
 1684SOL     OW14965   3.678   3.106   1.486 -0.1637  0.3111  0.1505
 1684SOL    HW114966   3.771   3.073   1.501 -0.1544 -1.4062 -3.2839
 1684SOL    HW214967   3.612   3.041   1.525  0.0069 -0.5737 -1.0149
 1685SOL     OW14968   1.749   3.479   0.997 -0.0460 -0.0292 -0.1859
 1685SOL    HW114969   1.834   3.496   0.947 -0.4058  0.3586 -0.6790
 1685SOL    HW214970   1.675   3.462   0.932 -0.6484  1.0778  0.1925
 1686SOL     OW14971   1.122   5.099   0.061 -0.2612 -0.2702  0.0157
 1686SOL    HW114972   1.061   5.052   0.124  1.4743 -0.9437  1.2181
 1686SOL    HW214973   1.167   5.033  -0.000 -0.6087  0.2047 -0.7731
 1687SOL     OW14974   1.920   3.415   1.608 -0.2042 -0.1883 -0.4024
 1687SOL    HW114975   1.988   3.407   1.535 -1.2554  0.4505 -1.4693
 1687SOL    HW214976   1.833   3.378   1.576 -1.1596  1.7928 -0.1150
 1688SOL     OW14977   1.906   4.499   2.554  0.7913  0.3224 -0.1265
 1688SOL    HW114978   1.851   4.583   2.556  0.4917  0.1434 -0.7099
 1688SOL    HW214979   1.991   4.514   2.604 -1.1389 -0.3816  3.5727
 1689SOL     OW14980   2.856   2.208   2.208 -0.3029 -0.6419  0.0655
 1689SOL    HW114981   2.868   2.232   2.112 -1.4528  0.9069  0.2773
 1689SOL    HW214982   2.764   2.171   2.222 -0.5069  0.1117  0.7423
 1690SOL     OW14983   0.464   4.768   2.570 -0.2172 -0.3671 -0.3560
 1690SOL    HW114984   0.497   4.730   2.483  0.1424 -1.8084  0.4068
 1690SOL    HW214985   0.451   4.695   2.636 -0.1977  0.7579  0.9160
 1691SOL     OW14986   3.366   1.491   0.636 -0.2877  0.8019 -0.1444
 1691SOL    HW114987   3.399   1.426   0.567  0.1964 -0.4759  1.2727
 1691SOL    HW214988   3.443   1.546   0.668 -0.0891 -0.0914  0.9406
 1692SOL     OW14989   2.213   5.702   2.542  0.5477  0.2912  0.3798
 1692SOL    HW114990   2.229   5.800   2.554  1.6047  0.2034 -0.2960
 1692SOL    HW214991   2.289   5.662   2.492  0.1074 -0.8772  0.6416
 1693SOL     OW14992   3.974   2.785   0.244  0.3054  0.0501 -0.0414
 1693SOL    HW114993   4.049   2.844   0.214 -0.8028  1.1496 -0.7179
 1693SOL    HW214994   3.978   2.774   0.343  1.3473  0.1161 -0.0712
 1694SOL     OW14995   2.548   7.580   2.460 -0.2976  0.2184  0.3271
 1694SOL    HW114996   2.647   7.595   2.454 -0.3066  1.0148  1.8675
 1694SOL    HW214997   2.512   7.561   2.369  1.4079 -0.9759 -0.1266
 1695SOL     OW14998   0.727   5.169   2.421 -0.0240  0.5637  0.5977
 1695SOL    HW114999   0.710   5.178   2.323  0.0877  1.1307  0.6286
 1695SOL    HW215000   0.660   5.106   2.461 -0.4265  0.7762  0.2596
 1696SOL     OW15001   4.112   3.906   2.582  0.4175  0.0564  0.3122
 1696SOL    HW115002   4.208   3.909   2.555  0.3352  0.4814  0.0609
 1696SOL    HW215003   4.093   3.819   2.626  0.8635 -0.1262  0.1514
 1697SOL     OW15004   3.959   5.154   2.576 -0.3256 -0.1257 -0.0950
 1697SOL    HW115005   4.024   5.130   2.503  0.6286  0.3920  0.5679
 1697SOL    HW215006   3.885   5.209   2.537 -0.1393 -0.3569 -0.7863
 1698SOL     OW15007   1.336   3.916   0.743  0.3550 -0.1108  0.4093
 1698SOL    HW115008   1.354   3.885   0.650 -1.4780  0.5736 -0.2034
 1698SOL    HW215009   1.422   3.944   0.786  1.1946 -0.2307 -1.1472
 1699SOL     OW15010   2.703   0.827   1.072  0.4811 -0.5744  0.1000
 1699SOL    HW115011   2.674   0.755   1.009  0.4349 -0.4733  0.0042
 1699SOL    HW215012   2.799   0.849   1.055  0.5789 -0.8226  0.3325
 1700SOL     OW15013   4.991   4.997   0.276  0.0324  0.6273  0.2321
 1700SOL    HW115014   4.899   4.959   0.284  0.3344  0.2100  1.7326
 1700SOL    HW215015   5.058   4.923   0.271  0.2501  0.9190 -1.5243
 1701SOL     OW15016   4.274   5.115   1.234  0.0907 -0.4422 -0.2050
 1701SOL    HW115017   4.274   5.015   1.236  0.7347 -0.4277  1.7901
 1701SOL    HW215018   4.188   5.148   1.273  0.7410 -0.2236  1.0807
 1702SOL     OW15019   4.073   3.069   1.301  0.0727 -0.5150  0.2924
 1702SOL    HW115020   3.997   3.111   1.251 -1.3313  0.6076  3.2239
 1702SOL    HW215021   4.112   2.996   1.246 -1.5491  0.4662 -2.3080
 1703SOL     OW15022   4.625   2.654   0.633  0.1077  0.3447  0.0986
 1703SOL    HW115023   4.580   2.666   0.545 -0.7986 -0.4347  0.4406
 1703SOL    HW215024   4.721   2.682   0.626  0.2572 -0.4700 -1.3426
 1704SOL     OW15025   4.953   3.392   0.075 -0.6440  0.4382 -0.3102
 1704SOL    HW115026   4.878   3.369   0.138 -0.2822 -0.7666 -0.3024
 1704SOL    HW215027   5.016   3.315   0.069 -1.3313  0.0339 -3.1056
 1705SOL     OW15028   3.097   1.583   1.655  0.9734  0.8576 -0.6806
 1705SOL    HW115029   3.095   1.574   1.754  2.2785  0.0381 -0.7155
 1705SOL    HW215030   3.183   1.545   1.620 -0.2927 -0.5627 -2.3010
 1706SOL     OW15031   0.373   5.978   1.436 -0.8070 -0.4474  0.0210
 1706SOL    HW115032   0.288   6.014   1.475 -0.0128  3.0963 -1.2896
 1706SOL    HW215033   0.451   6.020   1.482  0.2085 -1.6497 -0.5849
 1707SOL     OW15034   2.237   6.574   1.807  0.4343  0.2285 -0.7119
 1707SOL    HW115035   2.233   6.521   1.723  0.1436  1.8272 -1.7351
 1707SOL    HW215036   2.144   6.598   1.836  0.4848 -1.0500  0.5501
 1708SOL     OW15037   4.310   2.406   1.207  0.5634 -0.1846  0.3125
 1708SOL    HW115038   4.267   2.446   1.287 -0.1257  0.6926 -0.4824
 1708SOL    HW215039   4.272   2.314   1.191 -0.0428  0.0510  0.3954
 1709SOL     OW15040   1.524   4.299   1.746 -0.0492 -0.0720  0.1099
 1709SOL    HW115041   1.470   4.302   1.830 -0.8464 -0.0534 -0.4005
 1709SOL    HW215042   1.473   4.344   1.672  0.8087  0.2514 -0.2880
 1710SOL     OW15043   4.954   2.607   2.584 -0.4126 -0.1963  0.2910
 1710SOL    HW115044   4.953   2.591   2.683 -1.7912 -1.9202  0.0163
 1710SOL    HW215045   4.883   2.673   2.561  0.6934  1.1298  0.5649
 1711SOL     OW15046   2.218   3.012   0.649  0.7194  0.1559 -0.2494
 1711SOL    HW115047   2.143   3.012   0.716  0.6795 -0.5514 -0.2944
 1711SOL    HW215048   2.181   3.031   0.558  0.5820 -0.3280 -0.2916
 1712SOL     OW15049   2.673   7.368   0.038 -0.1558  0.3711  0.1344
 1712SOL    HW115050   2.639   7.296   0.098  0.7220 -2.1293 -2.2747
 1712SOL    HW215051   2.614   7.374  -0.043  0.6342  1.3446 -0.3725
 1713SOL     OW15052   2.892   6.047   0.724  0.6753 -0.2582 -0.1842
 1713SOL    HW115053   2.862   6.080   0.813  0.0839 -0.0779 -0.4448
 1713SOL    HW215054   2.812   6.018   0.671  0.8081  1.3892 -1.3462
 1714SOL     OW15055   3.344   2.862   0.884  0.1917  0.1279  0.0746
 1714SOL    HW115056   3.281   2.784   0.886 -0.3957  0.6073  0.4471
 1714SOL    HW215057   3.364   2.890   0.978  0.5806  0.2800 -0.0540
 1715SOL     OW15058   2.728   6.475   0.524  0.6414 -0.5440 -0.1698
 1715SOL    HW115059   2.803   6.457   0.587 -0.0909 -1.7826  0.3854
 1715SOL    HW215060   2.646   6.426   0.555  0.0636 -0.5633 -1.6650
 1716SOL     OW15061   3.871   8.139   0.137  0.2213 -0.5937  0.1299
 1716SOL    HW115062   3.960   8.168   0.172  0.6002  1.1632 -2.1470
 1716SOL    HW215063   3.883   8.070   0.066 -0.2310 -0.4796 -0.0643
 1717SOL     OW15064   3.870   8.510   1.539 -0.0165  0.0203  0.7647
 1717SOL    HW115065   3.877   8.566   1.457  1.4460 -0.6976  0.3964
 1717SOL    HW215066   3.858   8.414   1.514  3.6474 -0.6382  1.3302
 1718SOL     OW15067   2.870  10.012   1.396 -0.2576  0.0406 -0.4071
 1718SOL    HW115068   2.954  10.010   1.341  0.0684  2.0093 -0.0177
 1718SOL    HW215069   2.895  10.022   1.493 -0.8276 -3.2132  0.1517
 1719SOL     OW15070   3.113   6.481   0.399 -0.8849  0.0296 -0.3001
 1719SOL    HW115071   3.043   6.452   0.334 -1.5165  1.6812 -0.3904
 1719SOL    HW215072   3.083   6.564   0.446  0.2942 -0.1856  0.8780
 1720SOL     OW15073   1.943   5.635   0.347  0.5319  0.3511 -0.0447
 1720SOL    HW115074   1.942   5.545   0.389 -0.7951 -1.1836 -3.2106
 1720SOL    HW215075   1.881   5.636   0.268  0.4940  4.0371 -0.0636
 1721SOL     OW15076   4.596   0.873   1.015 -0.1801  0.2388 -0.3064
 1721SOL    HW115077   4.618   0.777   1.033 -2.6150 -0.0466  1.4207
 1721SOL    HW215078   4.621   0.895   0.921 -1.6551 -2.7767 -1.4952
 1722SOL     OW15079   3.978   2.708   0.499 -0.7305 -0.2477 -0.2197
 1722SOL    HW115080   4.074   2.679   0.497 -0.5033  0.5551 -1.1781
 1722SOL    HW215081   3.958   2.749   0.589  0.2629  1.0035 -0.5480
 1723SOL     OW15082   9.896   4.875   0.528 -0.0063  0.6041 -0.0834
 1723SOL    HW115083   9.832   4.805   0.496  0.0861 -0.2832  1.6219
 1723SOL    HW215084   9.847   4.944   0.581  0.5429 -0.6071  2.0749
 1724SOL     OW15085   2.573   1.551   2.273  0.2846  0.0011  0.3027
 1724SOL    HW115086   2.546   1.489   2.347  0.6705  0.0715  0.5051
 1724SOL    HW215087   2.517   1.634   2.277 -0.6783 -0.6061 -0.3651
 1725SOL     OW15088   1.562   3.367   0.100  0.0564  0.1921  0.2250
 1725SOL    HW115089   1.656   3.375   0.134 -0.9654  1.7020  2.8175
 1725SOL    HW215090   1.526   3.457   0.078 -1.3195 -0.2217  0.7332
 1726SOL     OW15091   2.338   4.732   0.037 -0.4898  0.4860  0.6389
 1726SOL    HW115092   2.360   4.645   0.081  0.2637  0.3613  0.0153
 1726SOL    HW215093   2.410   4.799   0.057 -0.0663  0.3888 -0.5063
 1727SOL     OW15094   4.323   8.345   0.731  0.1408  0.2659 -0.9735
 1727SOL    HW115095   4.262   8.384   0.799  2.4932  2.4683 -0.0266
 1727SOL    HW215096   4.337   8.411   0.657  0.2083 -0.8165 -1.9525
 1728SOL     OW15097   3.750   5.915   2.019 -0.2160  0.0425  0.3457
 1728SOL    HW115098   3.832   5.891   2.070  1.6060  0.0881 -2.4976
 1728SOL    HW215099   3.710   5.832   1.979  1.0947  0.5535 -2.1136
 1729SOL     OW15100   3.578   5.938   1.608  0.2095  0.4863 -0.1967
 1729SOL    HW115101   3.510   5.892   1.664  0.2285  0.9115  0.1743
 1729SOL    HW215102   3.560   6.037   1.607 -0.7109  0.3225 -2.1821
 1730SOL     OW15103   0.869   5.398   0.320 -0.5495  0.2577 -0.5556
 1730SOL    HW115104   0.907   5.452   0.396  0.2701 -0.9699 -0.0782
 1730SOL    HW215105   0.881   5.301   0.339 -0.2369 -0.0600 -2.3356
 1731SOL     OW15106   3.378   4.857   1.638  0.6312  0.1537  0.0014
 1731SOL    HW115107   3.376   4.771   1.587 -0.2471  0.4810 -0.5227
 1731SOL    HW215108   3.321   4.850   1.719 -0.5010  0.6636 -0.7366
 1732SOL     OW15109   2.854   4.792   1.697 -0.8922  0.1092 -0.1293
 1732SOL    HW115110   2.778   4.727   1.695 -0.9522  0.1582  0.4768
 1732SOL    HW215111   2.846   4.849   1.778  0.2506 -0.4373  0.3781
 1733SOL     OW15112   2.509   9.732   1.127 -0.1690  0.0177 -0.7231
 1733SOL    HW115113   2.476   9.637   1.125 -1.3171  0.3699  0.8521
 1733SOL    HW215114   2.575   9.745   1.054 -0.0225 -2.0009 -0.9853
 1734SOL     OW15115   2.808   7.548   2.373 -0.7800 -0.8713  0.1832
 1734SOL    HW115116   2.867   7.574   2.449  0.6264 -1.8912 -0.5455
 1734SOL    HW215117   2.817   7.616   2.300  0.0463 -1.4102 -0.2182
 1735SOL     OW15118   2.012   3.537   0.944 -0.2726 -0.4330  0.6485
 1735SOL    HW115119   2.087   3.564   1.005  0.4852  1.3201 -1.0120
 1735SOL    HW215120   2.037   3.454   0.895  0.5873  0.1375  0.1153
 1736SOL     OW15121   9.695   5.705  -0.017 -0.3060 -0.0149  0.4147
 1736SOL    HW115122   9.603   5.666  -0.011 -0.7604  1.0182  0.3428
 1736SOL    HW215123   9.763   5.632  -0.022 -1.1943 -0.7867 -0.5272
 1737SOL     OW15124   4.314   0.514   0.520 -0.9267 -0.1070  0.4163
 1737SOL    HW115125   4.258   0.446   0.474 -2.2663  0.5083  1.1121
 1737SOL    HW215126   4.308   0.503   0.619  1.2006 -0.8307  0.4968
 1738SOL     OW15127   1.225   5.774   0.918 -0.2809 -0.0826 -0.3228
 1738SOL    HW115128   1.165   5.734   0.849 -1.1625  1.7738 -0.6591
 1738SOL    HW215129   1.193   5.747   1.009 -0.6899 -0.3917 -0.5563
 1739SOL     OW15130   3.302   1.598   2.187 -0.1261 -0.4833  0.4397
 1739SOL    HW115131   3.332   1.604   2.282  2.6687 -0.6818 -0.3940
 1739SOL    HW215132   3.203   1.608   2.183 -0.3702 -1.2394  3.4423
 1740SOL     OW15133   2.946   7.601  -0.013 -0.2796 -0.1669  0.0842
 1740SOL    HW115134   2.888   7.634   0.062  0.3850  1.9205 -0.2923
 1740SOL    HW215135   2.976   7.508   0.008 -2.6474 -0.7961  0.9184
 1741SOL     OW15136   2.744   2.421   0.851  0.9357  0.2297  0.2963
 1741SOL    HW115137   2.690   2.393   0.930  0.9778 -0.6878 -0.0036
 1741SOL    HW215138   2.732   2.356   0.777 -0.2042  1.8247 -0.9547
 1742SOL     OW15139   4.307   2.878   0.793  0.2437  0.4153 -0.1275
 1742SOL    HW115140   4.358   2.903   0.711 -0.4787  0.1279 -0.6662
 1742SOL    HW215141   4.280   2.782   0.788  1.7394 -0.1083  1.2624
 1743SOL     OW15142   3.236   4.174   0.821  0.6192  0.3576  0.1234
 1743SOL    HW115143   3.329   4.185   0.787  1.3971  0.4369  2.1779
 1743SOL    HW215144   3.208   4.258   0.868 -0.8032  0.6334 -1.1953
 1744SOL     OW15145   3.129   6.367   0.659 -0.0416 -0.6627  0.6878
 1744SOL    HW115146   3.044   6.349   0.708  0.2495 -0.9208  1.1026
 1744SOL    HW215147   3.109   6.420   0.576 -0.5797 -0.5447  0.8883
 1745SOL     OW15148   3.121   0.939   1.855  0.0796 -0.1928 -0.3126
 1745SOL    HW115149   3.083   1.030   1.838 -0.0076 -0.3305 -0.8849
 1745SOL    HW215150   3.055   0.884   1.905 -0.2487 -0.2395 -0.7906
 1746SOL     OW15151   1.036   5.136   1.165  0.0398 -0.5492  0.4047
 1746SOL    HW115152   1.076   5.067   1.225  0.0803 -0.7117  0.1899
 1746SOL    HW215153   0.956   5.177   1.210 -0.0840 -0.8547  0.4626
 1747SOL     OW15154   1.111   6.183   1.720 -0.4403 -0.4486 -0.3365
 1747SOL    HW115155   1.094   6.273   1.680  1.1574 -0.6145 -1.4329
 1747SOL    HW215156   1.124   6.192   1.819  1.6150  0.8093 -0.6887
 1748SOL     OW15157   3.152   6.580   2.133 -0.2208  0.0739  0.2559
 1748SOL    HW115158   3.202   6.510   2.185  0.2702 -0.0632 -0.3782
 1748SOL    HW215159   3.168   6.564   2.035  0.1140  1.2383  0.1177
 1749SOL     OW15160   2.603   6.081   2.184 -0.0048  0.5314 -0.1426
 1749SOL    HW115161   2.601   6.018   2.107  0.3410  1.1589 -0.6797
 1749SOL    HW215162   2.695   6.122   2.191 -1.1110  3.4867 -1.8865
 1750SOL     OW15163   0.746   6.301   1.454 -0.2179 -0.8503  0.0908
 1750SOL    HW115164   0.808   6.263   1.385  1.1742 -0.7061  1.2351
 1750SOL    HW215165   0.773   6.395   1.474 -0.5359 -0.9302  0.9049
 1751SOL     OW15166   1.055   4.370   1.336 -0.1649  0.2488 -0.0510
 1751SOL    HW115167   1.082   4.350   1.431  1.1769  0.2760 -0.4148
 1751SOL    HW215168   1.036   4.467   1.327  0.4056  0.3661  0.0212
 1752SOL     OW15169   3.596   1.816   0.025 -0.5213 -0.1721 -0.5968
 1752SOL    HW115170   3.663   1.881  -0.011  0.6879 -0.4484  1.0837
 1752SOL    HW215171   3.612   1.726  -0.016 -1.8366  0.4169 -2.4942
 1753SOL     OW15172   2.108   4.494   0.116  0.1286 -0.0367  0.3005
 1753SOL    HW115173   2.166   4.534   0.187 -0.3948  0.5490  0.3989
 1753SOL    HW215174   2.122   4.395   0.113  0.8733  0.0637  0.5616
 1754SOL     OW15175   4.156   2.511   2.397 -0.4348 -0.4820 -0.2468
 1754SOL    HW115176   4.192   2.495   2.305 -1.4891 -0.6990 -0.6283
 1754SOL    HW215177   4.175   2.431   2.455 -0.5951 -0.7297 -0.5368
 1755SOL     OW15178   0.711   4.985   1.028  0.3657 -0.4550  0.0630
 1755SOL    HW115179   0.802   4.957   1.000  0.9640  0.5352  0.9814
 1755SOL    HW215180   0.713   5.079   1.061 -1.0722 -0.2672 -0.3221
 1756SOL     OW15181   2.871   4.768   0.622  0.1537  0.0996 -0.3845
 1756SOL    HW115182   2.805   4.727   0.558  0.2727  1.6669 -1.5315
 1756SOL    HW215183   2.962   4.765   0.582  0.8242 -2.0706  1.2053
 1757SOL     OW15184   3.409   0.944   1.461  0.3194 -0.2730  0.2296
 1757SOL    HW115185   3.390   1.036   1.493 -0.7401 -0.9632  1.6551
 1757SOL    HW215186   3.467   0.897   1.527 -1.2132 -1.4481  0.7773
 1758SOL     OW15187   1.854   4.825   0.887 -0.3622 -0.0360 -0.1101
 1758SOL    HW115188   1.923   4.884   0.929 -1.3587  0.5907  0.6760
 1758SOL    HW215189   1.874   4.813   0.790  0.9236  0.0276  0.1450
 1759SOL     OW15190   1.820   6.234   2.428  0.3872 -0.2153  0.0770
 1759SOL    HW115191   1.735   6.225   2.376 -1.1804  2.4918  2.0452
 1759SOL    HW215192   1.849   6.144   2.461 -1.0679 -1.3215 -1.6002
 1760SOL     OW15193   0.528   6.291   1.050 -0.4661 -0.5241  0.3772
 1760SOL    HW115194   0.477   6.240   0.981 -2.9219  2.1372  0.1411
 1760SOL    HW215195   0.473   6.299   1.133  0.9724 -0.5562  1.3528
 1761SOL     OW15196   2.971   6.980   0.957 -0.2535  0.1332 -0.4735
 1761SOL    HW115197   3.042   6.917   0.925 -1.0623 -0.3568 -1.3428
 1761SOL    HW215198   2.930   6.944   1.041 -0.4684 -0.3290 -0.7731
 1762SOL     OW15199   2.574   5.341   0.031  0.1330  0.0267 -0.1346
 1762SOL    HW115200   2.670   5.365   0.047  0.6313 -1.9984  0.1057
 1762SOL    HW215201   2.569   5.274  -0.043 -1.3096  1.7026 -1.5924
 1763SOL     OW15202   4.213   8.660   1.584  0.3631 -0.4374 -0.6644
 1763SOL    HW115203   4.183   8.614   1.668 -0.5606  0.4609 -0.4909
 1763SOL    HW215204   4.186   8.606   1.505 -0.4833 -0.3417 -0.4497
 1764SOL     OW15205   4.408   4.642   0.849 -0.2554  0.0186 -0.0957
 1764SOL    HW115206   4.495   4.687   0.870 -0.9656  0.4198  2.0910
 1764SOL    HW215207   4.374   4.676   0.761  0.5853  1.7185  0.2036
 1765SOL     OW15208   5.243   2.834   1.123  0.5294 -0.1102  0.1907
 1765SOL    HW115209   5.311   2.790   1.182  0.7353  0.5019  0.4193
 1765SOL    HW215210   5.172   2.768   1.099 -0.0099 -0.1592  1.8300
 1766SOL     OW15211   3.888   1.351   1.029  0.3140 -0.3778  0.6239
 1766SOL    HW115212   3.823   1.289   0.985  0.3025 -1.3287  1.9705
 1766SOL    HW215213   3.859   1.446   1.013 -0.2961 -0.7356 -0.4694
 1767SOL     OW15214   3.621   0.716   0.195 -0.1555  0.0629  0.0347
 1767SOL    HW115215   3.715   0.708   0.163 -0.4705  2.8437 -1.8270
 1767SOL    HW215216   3.609   0.804   0.242 -1.8611 -0.1241 -0.0045
 1768SOL     OW15217   0.607   4.728   1.064  0.7965 -0.1390  0.1783
 1768SOL    HW115218   0.634   4.816   1.025  1.7511 -0.8307 -0.7628
 1768SOL    HW215219   0.545   4.742   1.141 -1.7242  1.2618 -2.0463
 1769SOL     OW15220   3.941   3.775   1.433 -0.1010 -0.0619 -0.0100
 1769SOL    HW115221   3.938   3.675   1.422  2.1490 -0.1618  0.1695
 1769SOL    HW215222   3.884   3.801   1.511  0.0734 -1.3043  0.5457
 1770SOL     OW15223   3.833   2.338   2.195 -0.3508  0.4048 -0.1166
 1770SOL    HW115224   3.746   2.375   2.161 -0.7637 -1.2436 -0.8935
 1770SOL    HW215225   3.901   2.411   2.198 -1.7460  1.7135  0.4661
 1771SOL     OW15226   2.426   4.651   2.401 -0.5469 -0.1897 -0.0700
 1771SOL    HW115227   2.406   4.661   2.499 -0.0332 -0.7296  0.0933
 1771SOL    HW215228   2.349   4.604   2.357  0.3829 -2.4223  0.5960
 1772SOL     OW15229   3.819   0.384   2.007 -0.0834  0.2293  0.1687
 1772SOL    HW115230   3.851   0.435   1.926 -1.0589 -1.5046 -1.3460
 1772SOL    HW215231   3.895   0.331   2.045  0.2536  0.6462  0.0875
 1773SOL     OW15232   3.032   4.575   2.184 -0.2276 -0.1083  0.1143
 1773SOL    HW115233   2.973   4.572   2.103 -0.7151 -0.4158  0.4792
 1773SOL    HW215234   3.116   4.624   2.162 -0.2809 -0.3426 -0.6337
 1774SOL     OW15235   1.878   5.136   0.031 -0.4201  0.2937  1.0108
 1774SOL    HW115236   1.853   5.044  -0.000  0.3798  1.3569 -3.0988
 1774SOL    HW215237   1.796   5.188   0.052 -1.1154 -0.1156 -0.5776
 1775SOL     OW15238   2.553   1.071   1.140  0.3659 -0.3110  0.2525
 1775SOL    HW115239   2.615   0.995   1.122  0.4862 -0.4213  1.0761
 1775SOL    HW215240   2.506   1.098   1.056  0.8655 -0.8176 -0.1867
 1776SOL     OW15241   3.604   8.549   2.351 -0.0748  0.0463  0.0054
 1776SOL    HW115242   3.532   8.521   2.414 -0.6088  0.5152 -0.3902
 1776SOL    HW215243   3.567   8.554   2.258  0.7584 -0.8357 -0.3760
 1777SOL     OW15244   3.120   8.119   2.150 -0.0026 -0.7792  0.0832
 1777SOL    HW115245   3.068   8.180   2.090  1.5034  0.9985  0.5251
 1777SOL    HW215246   3.059   8.076   2.216 -0.9936  0.8291  0.2384
 1778SOL     OW15247   3.096   2.529   1.986 -0.3582 -0.6310 -0.1573
 1778SOL    HW115248   3.163   2.601   1.968 -1.3415  0.5130  0.6296
 1778SOL    HW215249   3.143   2.441   1.995  1.3211  0.4868  2.6270
 1779SOL     OW15250   1.481   3.180   0.323  0.1787  0.6559  0.2684
 1779SOL    HW115251   1.548   3.108   0.309 -1.3823 -0.6055 -0.9401
 1779SOL    HW215252   1.459   3.223   0.235 -2.3893 -0.6304  0.2152
 1780SOL     OW15253   2.826   5.573   0.814  0.0594  0.1228 -0.3063
 1780SOL    HW115254   2.903   5.519   0.778 -0.4670 -1.4604  0.9027
 1780SOL    HW215255   2.743   5.550   0.763 -0.1713 -0.2448  0.2295
 1781SOL     OW15256   1.654   3.603   1.662 -0.1138  0.0341  0.4524
 1781SOL    HW115257   1.633   3.620   1.758  1.8240  0.4567  0.8218
 1781SOL    HW215258   1.695   3.512   1.652 -0.0760  0.0923  0.0662
 1782SOL     OW15259   3.585   8.604   1.542 -0.2029  0.4177 -0.5493
 1782SOL    HW115260   3.489   8.584   1.525 -0.3669 -0.7848  1.6121
 1782SOL    HW215261   3.642   8.532   1.502 -0.2261  0.7837 -1.2510
 1783SOL     OW15262   2.556   6.274   1.751  0.3871  0.1628  0.0609
 1783SOL    HW115263   2.465   6.241   1.725  0.1585  0.9978 -0.1930
 1783SOL    HW215264   2.590   6.337   1.681  1.6478 -1.0294 -0.4247
 1784SOL     OW15265  10.115   4.748   0.653  0.4569 -0.0146 -0.2302
 1784SOL    HW115266  10.036   4.790   0.607 -0.5539 -0.5523  0.9676
 1784SOL    HW215267  10.172   4.701   0.586 -0.0834  0.6284 -1.1531
 1785SOL     OW15268   3.802   4.575   0.014 -0.0056 -0.0246  0.3549
 1785SOL    HW115269   3.786   4.672   0.030 -0.4747 -0.3059  1.6255
 1785SOL    HW215270   3.780   4.553  -0.081 -1.7128  0.7469  0.5583
 1786SOL     OW15271   3.574   0.559   2.317 -1.4236 -0.3326  0.3953
 1786SOL    HW115272   3.648   0.624   2.299 -0.6217  0.0487  4.6033
 1786SOL    HW215273   3.487   0.609   2.325 -1.2773 -0.1173  0.6630
 1787SOL     OW15274   3.334   8.800   2.029 -0.2526  0.1931 -0.0335
 1787SOL    HW115275   3.261   8.747   1.986  0.0474  0.4578 -0.8771
 1787SOL    HW215276   3.369   8.868   1.964  0.1795  0.6225  0.6401
 1788SOL     OW15277   3.073   8.830   1.298  0.6401 -0.4044 -0.4411
 1788SOL    HW115278   3.101   8.878   1.215 -1.3698  1.1220 -0.2452
 1788SOL    HW215279   3.146   8.837   1.366  2.0670 -1.1815 -1.8348
 1789SOL     OW15280   3.119   5.564   1.416 -0.5033 -0.4065 -0.7287
 1789SOL    HW115281   3.127   5.622   1.335 -1.1475 -0.9525 -1.1950
 1789SOL    HW215282   3.178   5.599   1.489  0.9600 -0.5658 -1.8195
 1790SOL     OW15283   2.706   4.002   0.847  0.1835  0.1493  0.6181
 1790SOL    HW115284   2.635   3.968   0.909 -1.2661  0.7304 -0.7172
 1790SOL    HW215285   2.777   4.047   0.900  0.1397 -1.4254  2.0719
 1791SOL     OW15286   0.788   4.735   2.466  0.5042  0.6957 -0.2820
 1791SOL    HW115287   0.826   4.677   2.538  0.3145  1.6988  0.6362
 1791SOL    HW215288   0.837   4.718   2.380 -0.4049 -1.7638 -0.3546
 1792SOL     OW15289   2.358   3.956   0.268  0.7466 -0.5928  0.0891
 1792SOL    HW115290   2.424   4.028   0.289 -0.3887  0.6628 -0.5631
 1792SOL    HW215291   2.281   3.962   0.332  0.7335 -1.3497  0.1459
 1793SOL     OW15292   4.425   8.806   1.671  0.3611 -0.1891 -0.1037
 1793SOL    HW115293   4.342   8.751   1.663  0.8703 -1.2291  1.5512
 1793SOL    HW215294   4.499   8.761   1.622  0.5570 -0.5360  0.5052
 1794SOL     OW15295   3.392   9.216   2.179  0.1575  0.2525 -0.1193
 1794SOL    HW115296   3.379   9.137   2.238  2.5818 -0.0686  0.0298
 1794SOL    HW215297   3.464   9.197   2.113 -0.2073  1.8279 -0.9885
 1795SOL     OW15298   3.751  10.079   0.629 -0.2454 -0.7988 -0.4419
 1795SOL    HW115299   3.666  10.093   0.681 -0.1015  2.3239 -0.9656
 1795SOL    HW215300   3.746  10.130   0.543  0.9349 -3.1149 -1.9323
 1796SOL     OW15301   1.661   5.919  -0.029 -0.5294 -0.1925  0.4517
 1796SOL    HW115302   1.613   5.860   0.036 -1.4272  0.0880  0.0459
 1796SOL    HW215303   1.679   6.008   0.013  1.1558 -0.8624  1.1953
 1797SOL     OW15304   4.850   4.217   1.802  0.3827  0.1184  0.3884
 1797SOL    HW115305   4.813   4.239   1.712 -0.3399 -0.0088  0.6478
 1797SOL    HW215306   4.905   4.294   1.835  0.9963 -0.0083 -0.3397
 1798SOL     OW15307   4.860   2.834   1.017 -0.1100  0.2054 -0.2257
 1798SOL    HW115308   4.861   2.927   0.981  2.9001  0.7669  1.1704
 1798SOL    HW215309   4.766   2.800   1.019 -1.4735  3.8497  0.8423
 1799SOL     OW15310   0.632   6.210   0.257 -0.2513 -0.0053 -0.1890
 1799SOL    HW115311   0.573   6.253   0.188  0.3723  0.2990 -0.5392
 1799SOL    HW215312   0.687   6.280   0.302 -0.6450 -0.2068  0.6152
 1800SOL     OW15313   1.084   4.855   0.650 -0.3370 -0.1427 -0.0275
 1800SOL    HW115314   1.082   4.787   0.723 -0.0612  0.9635  1.0224
 1800SOL    HW215315   1.003   4.912   0.655  0.6192  1.1886  0.6418
 1801SOL     OW15316   2.020   5.765   1.367 -0.0472 -0.7824  0.0524
 1801SOL    HW115317   2.100   5.817   1.398  1.0111 -1.2644 -1.7889
 1801SOL    HW215318   1.938   5.820   1.380  0.8399  0.6142 -0.1168
 1802SOL     OW15319   4.819   3.527   1.535  0.3122  0.0524 -0.0373
 1802SOL    HW115320   4.908   3.481   1.534  1.0140  1.4074 -0.0895
 1802SOL    HW215321   4.790   3.545   1.441 -0.4874 -1.2478 -0.0624
 1803SOL     OW15322   1.772   4.639   1.105  0.7574 -0.1567  0.0402
 1803SOL    HW115323   1.681   4.604   1.085  0.5630 -0.7560  1.8484
 1803SOL    HW215324   1.797   4.708   1.038 -1.4044  0.6862  0.0688
 1804SOL     OW15325   5.076   3.315   2.051  0.3885 -0.4845 -0.0079
 1804SOL    HW115326   5.115   3.358   1.969  0.4129  0.7323  0.6208
 1804SOL    HW215327   4.978   3.304   2.040  0.3570 -0.1045 -0.1047
 1805SOL     OW15328   2.297   2.753   0.072  0.1297  0.6894 -0.1390
 1805SOL    HW115329   2.261   2.662   0.055 -1.0755  1.0356  0.5051
 1805SOL    HW215330   2.387   2.762   0.029  0.3913 -0.8899  0.0674
 1806SOL     OW15331   3.778   5.332   1.570 -0.0571 -0.0126 -0.1983
 1806SOL    HW115332   3.799   5.423   1.607 -1.3790  0.3128 -0.1982
 1806SOL    HW215333   3.827   5.262   1.622 -1.3378  0.4967  1.7468
 1807SOL     OW15334   4.866   2.418   1.734  0.5298 -0.0676 -0.0542
 1807SOL    HW115335   4.806   2.340   1.753  0.3043  0.1764  0.2491
 1807SOL    HW215336   4.822   2.479   1.668  0.9262 -0.4565 -0.6834
 1808SOL     OW15337   5.078   4.232   2.237  0.2800 -0.3673  0.0788
 1808SOL    HW115338   5.143   4.268   2.304 -0.4045 -0.5516  0.8393
 1808SOL    HW215339   5.076   4.133   2.242  1.2987 -0.4772 -1.2239
 1809SOL     OW15340   2.956   7.046   1.793 -0.5243  0.1049 -0.7147
 1809SOL    HW115341   3.056   7.054   1.785 -0.5355 -0.4613 -1.4830
 1809SOL    HW215342   2.934   6.976   1.860 -0.4026  0.1747 -0.6021
 1810SOL     OW15343   3.711   4.545   1.718  0.2575  0.4033 -0.3984
 1810SOL    HW115344   3.714   4.636   1.760 -1.4849 -0.1146  0.9091
 1810SOL    HW215345   3.805   4.512   1.704  0.8922  1.8222  0.3802
 1811SOL     OW15346   5.585   4.106   2.255  0.0807 -0.4626  0.0595
 1811SOL    HW115347   5.664   4.068   2.207 -0.2100 -2.2279  0.9120
 1811SOL    HW215348   5.501   4.066   2.218 -0.3845  1.0150 -0.4999
 1812SOL     OW15349   3.086   1.228   0.996  0.3340  0.1073 -0.1766
 1812SOL    HW115350   3.083   1.155   1.063  0.5204 -0.4515 -0.7706
 1812SOL    HW215351   3.179   1.264   0.989  0.4552 -0.2755 -0.5950
 1813SOL     OW15352   3.123   3.061   1.238  0.5919 -0.2524 -0.0224
 1813SOL    HW115353   3.153   2.968   1.217 -0.8038 -0.5307 -0.8333
 1813SOL    HW215354   3.026   3.061   1.259  0.5249  1.0675 -0.3108
 1814SOL     OW15355   1.734   5.077   0.670  0.5367  0.1351 -0.1956
 1814SOL    HW115356   1.732   5.107   0.766  1.7603  0.7695 -0.3469
 1814SOL    HW215357   1.771   4.985   0.666 -3.2197 -1.4624  0.2710
 1815SOL     OW15358   0.698   5.951   0.887  0.3474  0.2052  0.6590
 1815SOL    HW115359   0.748   5.926   0.804 -1.8609 -0.7058 -0.4366
 1815SOL    HW215360   0.696   6.051   0.897 -0.4399  0.3712 -1.0762
 1816SOL     OW15361   3.640   3.179   0.640  0.2767  0.6621  0.2313
 1816SOL    HW115362   3.734   3.152   0.620  0.2326  0.3683  0.4151
 1816SOL    HW215363   3.578   3.137   0.573  0.4366  2.1380 -0.8424
 1817SOL     OW15364   4.529   1.875   0.341  0.9130  0.4268 -0.5508
 1817SOL    HW115365   4.469   1.798   0.361  0.8515  1.0998  2.1489
 1817SOL    HW215366   4.613   1.866   0.395  1.5110  1.5203 -1.2883
 1818SOL     OW15367   3.759   8.517   0.532  0.6040  0.1501 -0.9380
 1818SOL    HW115368   3.675   8.490   0.579  1.0254  0.5315  0.0445
 1818SOL    HW215369   3.791   8.441   0.475 -0.4199  0.0185 -1.3328
 1819SOL     OW15370   5.502   2.646   1.183 -0.0962  0.1055 -0.6149
 1819SOL    HW115371   5.500   2.571   1.249 -1.4703  1.7989  1.3406
 1819SOL    HW215372   5.570   2.713   1.211  0.6794 -0.0972 -2.0048
 1820SOL     OW15373   0.960   5.563   0.525 -0.3689  0.2187  0.8283
 1820SOL    HW115374   0.967   5.639   0.590  0.8404 -0.2138  1.2183
 1820SOL    HW215375   1.050   5.522   0.513 -0.2846  1.1685 -2.1942
 1821SOL     OW15376   4.785   2.990   0.153 -0.1356 -0.1396 -0.1678
 1821SOL    HW115377   4.688   2.979   0.175 -0.4577  0.4346 -1.2766
 1821SOL    HW215378   4.802   2.960   0.059  0.2511  2.2293 -0.8916
 1822SOL     OW15379   3.696   3.298   1.299  0.0586  0.4789 -0.0769
 1822SOL    HW115380   3.710   3.391   1.332  0.4452  0.7349 -0.9199
 1822SOL    HW215381   3.686   3.235   1.376 -2.2884  1.5046  0.4924
 1823SOL     OW15382   4.213   0.468   1.864 -0.1883 -0.0155  0.0437
 1823SOL    HW115383   4.243   0.561   1.881  0.3182 -0.2760  0.5766
 1823SOL    HW215384   4.144   0.468   1.792  0.6348  0.6531 -0.7625
 1824SOL     OW15385   2.223   5.974   2.563  0.0964 -0.6833  0.1124
 1824SOL    HW115386   2.231   6.056   2.621  0.3579 -1.7473  1.6057
 1824SOL    HW215387   2.252   5.997   2.470  0.6865  0.7925  0.6344
 1825SOL     OW15388   3.635   9.732   0.708  0.1117 -0.1730 -0.6302
 1825SOL    HW115389   3.582   9.668   0.652  0.1511 -1.1234  0.4071
 1825SOL    HW215390   3.729   9.701   0.714  0.1682  0.0703 -0.2399
 1826SOL     OW15391   3.756   9.205   1.441 -0.5120 -0.3267  0.2811
 1826SOL    HW115392   3.773   9.226   1.537  0.2697 -0.6604  0.2135
 1826SOL    HW215393   3.843   9.194   1.392 -0.8977  0.1806 -0.5403
 1827SOL     OW15394   4.485   2.013   0.074 -0.4737 -0.1571 -0.0428
 1827SOL    HW115395   4.398   2.039   0.115 -1.0227 -1.8818 -0.0394
 1827SOL    HW215396   4.543   1.970   0.144  0.2199  0.6251 -0.1356
 1828SOL     OW15397   1.025   4.637   1.297  0.2243  0.6377  0.0508
 1828SOL    HW115398   0.996   4.719   1.346  2.2042  0.7031  1.1405
 1828SOL    HW215399   1.089   4.662   1.224 -1.2120  0.3309 -1.3450
 1829SOL     OW15400   0.529   3.757   1.551 -0.3418 -0.6055 -0.5930
 1829SOL    HW115401   0.479   3.736   1.635 -0.0585 -1.8417 -0.7183
 1829SOL    HW215402   0.464   3.781   1.479 -0.5539  0.9695  0.1174
 1830SOL     OW15403   4.309   3.345   1.207 -0.2242 -0.3056 -0.2534
 1830SOL    HW115404   4.261   3.402   1.273  1.3152  0.9667 -0.2076
 1830SOL    HW215405   4.273   3.361   1.116 -0.5026 -0.0430 -0.0943
 1831SOL     OW15406   3.447   2.659   0.475 -0.2112  0.0066  0.6119
 1831SOL    HW115407   3.435   2.609   0.561  0.2232 -1.6035 -0.2438
 1831SOL    HW215408   3.542   2.689   0.468  0.2250 -1.5236 -0.1734
 1832SOL     OW15409   0.865   6.616   2.377  0.0755  0.1379 -0.8145
 1832SOL    HW115410   0.876   6.667   2.292  0.2485  2.4163  0.5021
 1832SOL    HW215411   0.955   6.600   2.418 -0.1515  1.1703  0.1073
 1833SOL     OW15412   2.951   9.438   1.226  0.0024 -0.4235 -0.0559
 1833SOL    HW115413   2.894   9.358   1.242  1.0829 -0.6922  2.7399
 1833SOL    HW215414   2.947   9.499   1.306  3.4972 -0.4214  0.2142
 1834SOL     OW15415   4.073   9.912   1.893  0.0897 -0.3504 -0.4900
 1834SOL    HW115416   4.130   9.990   1.867 -0.2660  0.3038  0.6842
 1834SOL    HW215417   3.977   9.936   1.882 -0.0105 -0.7802 -0.5672
 1835SOL     OW15418   2.973   3.530   0.587  0.4980  0.3668  0.0991
 1835SOL    HW115419   3.013   3.591   0.654  0.9167  0.9358 -0.6613
 1835SOL    HW215420   3.044   3.496   0.525  0.4143 -1.5497  1.0146
 1836SOL     OW15421   2.152   3.272   2.002 -0.0041  0.0710  0.6906
 1836SOL    HW115422   2.107   3.287   1.914 -0.2361  1.0122  0.9614
 1836SOL    HW215423   2.223   3.341   2.016 -0.9267  0.8061  1.8588
 1837SOL     OW15424   4.096   9.383   1.017 -0.3576  0.1982 -0.0832
 1837SOL    HW115425   4.171   9.381   1.083  0.9466 -2.0818 -1.5340
 1837SOL    HW215426   4.027   9.449   1.046  1.3014  0.9570  2.2866
 1838SOL     OW15427   4.079   3.256   2.217  0.1883  0.4988 -0.0872
 1838SOL    HW115428   4.080   3.159   2.241  0.7039  0.6162  0.3800
 1838SOL    HW215429   3.992   3.279   2.173  0.7655 -0.5760 -1.8723
 1839SOL     OW15430   3.221   2.119   0.958 -0.4239 -0.1733  0.3418
 1839SOL    HW115431   3.214   2.193   1.026 -0.2217 -0.3445  0.5525
 1839SOL    HW215432   3.272   2.153   0.878  0.5650 -0.3832  0.8719
 1840SOL     OW15433   0.593   5.804   1.487 -0.1756 -0.1081  0.1446
 1840SOL    HW115434   0.532   5.866   1.438  1.0844  0.3153 -0.9149
 1840SOL    HW215435   0.623   5.731   1.425 -1.0674 -1.3838  1.1764
 1841SOL     OW15436   2.024   6.466   2.113  0.1398  0.2837  0.2483
 1841SOL    HW115437   1.933   6.428   2.099  0.2276 -0.0439  0.5352
 1841SOL    HW215438   2.048   6.459   2.210 -0.6375  2.8903  0.6732
 1842SOL     OW15439   1.332   4.209   0.051  0.2049  0.1814  0.1500
 1842SOL    HW115440   1.408   4.258   0.007 -0.0976 -0.1117 -0.7154
 1842SOL    HW215441   1.368   4.153   0.126  1.0992 -1.2561 -1.3110
 1843SOL     OW15442   9.486   5.545   1.000 -0.2146 -0.5560 -0.1111
 1843SOL    HW115443   9.576   5.564   0.960  0.9978 -3.8599  0.8615
 1843SOL    HW215444   9.469   5.607   1.076  2.5349 -1.7067  1.5270
 1844SOL     OW15445   4.816   2.247   0.809  0.3545 -0.2770  0.5003
 1844SOL    HW115446   4.878   2.258   0.886  0.3854 -0.0027  0.4380
 1844SOL    HW215447   4.808   2.334   0.760  1.2929 -0.7672 -0.5342
 1845SOL     OW15448   3.481   0.384   0.661  0.0169 -0.4359 -0.3323
 1845SOL    HW115449   3.448   0.329   0.584 -0.2185 -0.2148 -0.3912
 1845SOL    HW215450   3.532   0.326   0.724 -1.6125 -1.0618  0.4303
 1846SOL     OW15451   0.226   4.623   0.433 -0.1589  0.1442  0.4056
 1846SOL    HW115452   0.221   4.535   0.479 -0.3892  1.0022  2.0739
 1846SOL    HW215453   0.304   4.623   0.369  0.5616 -0.8535  1.2634
 1847SOL     OW15454   9.452   5.252   2.562 -0.5917 -0.6757  0.0250
 1847SOL    HW115455   9.472   5.345   2.531 -0.2198  0.2290  2.8580
 1847SOL    HW215456   9.495   5.186   2.500  1.0916  1.0717 -0.7145
 1848SOL     OW15457   9.839   4.842   1.193 -0.3120 -0.3673  0.0822
 1848SOL    HW115458   9.902   4.848   1.270 -0.2260 -1.6006  0.1225
 1848SOL    HW215459   9.873   4.774   1.128 -1.1274 -0.3768 -0.3389
 1849SOL     OW15460   1.073   6.820   2.273  0.1778 -0.0697 -0.4919
 1849SOL    HW115461   1.006   6.819   2.199 -1.2294  1.3136  0.7076
 1849SOL    HW215462   1.072   6.732   2.320 -1.2308  0.1176 -0.1422
 1850SOL     OW15463   0.575   4.099   1.685  0.5893  0.8223  0.3408
 1850SOL    HW115464   0.573   4.001   1.701 -0.4715  0.2627 -2.8586
 1850SOL    HW215465   0.649   4.122   1.622 -1.0567  1.6311 -1.3544
 1851SOL     OW15466   4.604   1.364   0.617 -0.0878  0.3178 -0.0187
 1851SOL    HW115467   4.562   1.294   0.674  2.8330 -2.3005 -0.9336
 1851SOL    HW215468   4.540   1.393   0.546 -1.4212 -1.2480  0.5207
 1852SOL     OW15469   3.335   2.662   2.289  0.3580  0.4605  0.7147
 1852SOL    HW115470   3.279   2.739   2.258  0.6561  0.5115  0.2899
 1852SOL    HW215471   3.333   2.657   2.389 -0.1060  0.6836  0.7188
 1853SOL     OW15472   3.159   3.213   1.023 -0.1003 -0.1927  0.4573
 1853SOL    HW115473   3.070   3.244   0.991 -0.1863  1.0085  1.8461
 1853SOL    HW215474   3.149   3.165   1.110  0.3982 -1.6293 -0.2557
 1854SOL     OW15475   2.305   6.170   1.654  0.3388 -0.0720  0.6168
 1854SOL    HW115476   2.311   6.137   1.748  3.6704  0.3555  0.6166
 1854SOL    HW215477   2.301   6.091   1.592 -0.5894 -0.3659  1.0446
 1855SOL     OW15478   2.117   3.925   1.509 -0.2360 -0.2853 -0.0770
 1855SOL    HW115479   2.189   3.893   1.447  0.0965 -1.6267  0.9915
 1855SOL    HW215480   2.045   3.855   1.516 -0.8267  0.3405  0.1730
 1856SOL     OW15481   4.732   3.101   0.607  0.5787  0.0188  0.1148
 1856SOL    HW115482   4.755   3.040   0.531  2.6406  1.2082 -0.2547
 1856SOL    HW215483   4.700   3.189   0.571  0.3248  0.1421  0.6300
 1857SOL     OW15484   3.279   3.529   1.191  0.2275  0.1119 -0.3465
 1857SOL    HW115485   3.293   3.434   1.219 -0.3978 -0.2783 -1.3220
 1857SOL    HW215486   3.253   3.584   1.270  1.2086 -0.3970  0.3384
 1858SOL     OW15487   2.467   5.741   0.787  0.8970  0.6300 -0.2300
 1858SOL    HW115488   2.522   5.679   0.732  0.9846  0.5178 -0.0181
 1858SOL    HW215489   2.370   5.729   0.765  1.0291  1.5164 -1.3017
 1859SOL     OW15490   3.522   8.329   0.398  0.2193  0.4032 -0.2261
 1859SOL    HW115491   3.430   8.337   0.435  0.3079 -2.1563  0.6303
 1859SOL    HW215492   3.542   8.409   0.342 -1.8586  1.8299  0.9992
 1860SOL     OW15493   4.447   3.942   2.284 -0.4684 -0.5385  0.0465
 1860SOL    HW115494   4.490   3.924   2.372 -2.5009  2.3872  1.7104
 1860SOL    HW215495   4.408   3.857   2.248  1.0582 -1.9196  1.5546
 1861SOL     OW15496   1.668   6.764   0.263 -0.6210  0.6111  0.4169
 1861SOL    HW115497   1.596   6.788   0.198  0.6282  2.4266 -0.3395
 1861SOL    HW215498   1.627   6.721   0.344 -2.3083 -0.5251 -1.0118
 1862SOL     OW15499   2.153   4.985   0.383 -0.1918  0.2224  0.2808
 1862SOL    HW115500   2.125   4.990   0.478 -1.1913  0.1903 -0.0090
 1862SOL    HW215501   2.236   4.929   0.375 -0.7284 -0.6712  0.9812
 1863SOL     OW15502   3.528   2.639   1.864  0.0660 -0.1345 -0.3774
 1863SOL    HW115503   3.573   2.552   1.885 -1.3334 -0.1871  2.6120
 1863SOL    HW215504   3.523   2.695   1.947 -1.7661  1.5263 -1.5637
 1864SOL     OW15505   4.537   5.077   1.960  0.4212  0.0754 -0.2018
 1864SOL    HW115506   4.510   4.989   1.921 -1.6278  0.3448  0.4936
 1864SOL    HW215507   4.636   5.082   1.968  0.5113 -2.6246  0.7888
 1865SOL     OW15508   0.868   6.496   1.860 -0.0714 -0.1523 -0.3154
 1865SOL    HW115509   0.853   6.400   1.883  0.8532 -0.3941 -0.7039
 1865SOL    HW215510   0.947   6.530   1.910 -0.1773  0.3112 -0.4602
 1866SOL     OW15511   4.171  10.172   1.795 -0.1789  0.1604  0.1066
 1866SOL    HW115512   4.111  10.251   1.782 -0.7080 -0.6185 -2.3275
 1866SOL    HW215513   4.230  10.189   1.874 -1.4764  2.2390  0.6861
 1867SOL     OW15514   3.743   8.950   2.145 -0.3406  0.4285 -0.1657
 1867SOL    HW115515   3.707   8.932   2.236  0.6684  0.4274  0.2446
 1867SOL    HW215516   3.697   8.891   2.078  0.8381 -1.5767  0.7329
 1868SOL     OW15517   3.620   3.768   1.675 -0.0523 -0.3931 -0.2434
 1868SOL    HW115518   3.564   3.733   1.599 -1.0118 -3.3398  1.7231
 1868SOL    HW215519   3.564   3.829   1.731 -0.3173 -0.7712 -0.0937
 1869SOL     OW15520   2.254   4.381   0.736  0.3386  0.0559  0.4438
 1869SOL    HW115521   2.252   4.421   0.828  0.0457 -1.3263  1.0493
 1869SOL    HW215522   2.163   4.386   0.695  0.0923 -0.8039  0.8790
 1870SOL     OW15523   4.863   2.776   0.367  0.3824  0.3260  0.3211
 1870SOL    HW115524   4.803   2.838   0.317  0.3308 -0.2140 -0.2805
 1870SOL    HW215525   4.878   2.693   0.314  0.4486 -0.1850  1.1265
 1871SOL     OW15526   9.807   4.226   2.197 -0.5815 -0.1669 -0.5521
 1871SOL    HW115527   9.709   4.211   2.205 -0.7079 -0.0727 -1.8567
 1871SOL    HW215528   9.836   4.293   2.266 -1.1060 -1.5337  1.0266
 1872SOL     OW15529   2.893   7.987   2.302 -0.5394  0.9404  0.0212
 1872SOL    HW115530   2.888   7.888   2.291 -0.1053  1.1171 -1.9819
 1872SOL    HW215531   2.908   8.009   2.398 -3.5224 -0.8234  0.9630
 1873SOL     OW15532   2.958   5.547   2.135 -0.0242 -0.1942 -0.4402
 1873SOL    HW115533   2.922   5.640   2.143 -0.2409 -0.5331  2.9613
 1873SOL    HW215534   2.884   5.485   2.111 -0.0823  0.3004 -1.6254
 1874SOL     OW15535   4.089   4.280   1.533 -0.0254  0.3771  0.2810
 1874SOL    HW115536   4.020   4.222   1.490  1.6395  0.2993 -2.3449
 1874SOL    HW215537   4.130   4.230   1.610 -0.7037 -0.7814 -0.0904
 1875SOL     OW15538   3.615   6.298   2.164  0.0276  0.1457 -0.4316
 1875SOL    HW115539   3.620   6.315   2.262 -0.7624 -0.4761 -0.2786
 1875SOL    HW215540   3.527   6.332   2.129  0.4245  0.6308 -0.9803
 1876SOL     OW15541   2.578   1.462   0.337 -0.0948  0.2120  0.2680
 1876SOL    HW115542   2.626   1.539   0.380 -0.7284  0.0150  1.3483
 1876SOL    HW215543   2.538   1.492   0.250  1.5412  0.5101 -0.3982
 1877SOL     OW15544   3.604   3.708   1.988  0.2831  0.1824  0.1787
 1877SOL    HW115545   3.547   3.786   1.962  1.5361  1.3912  0.9060
 1877SOL    HW215546   3.649   3.728   2.076  0.1887 -1.6088  0.6615
 1878SOL     OW15547   3.217   1.650   2.550 -0.3289  0.0339 -0.0228
 1878SOL    HW115548   3.157   1.571   2.537 -0.7162  0.3267 -0.0223
 1878SOL    HW215549   3.241   1.658   2.647 -0.3671 -0.0277 -0.0078
 1879SOL     OW15550   0.893   5.962   1.129  0.1198  1.0012 -0.8155
 1879SOL    HW115551   0.980   5.920   1.102 -0.6853 -1.0539 -0.2982
 1879SOL    HW215552   0.823   5.943   1.060 -0.4263  0.9069 -0.2396
 1880SOL     OW15553   2.043   5.516   1.526  0.6130 -0.3256  0.4463
 1880SOL    HW115554   1.980   5.448   1.564  1.0801 -1.2848 -0.4784
 1880SOL    HW215555   1.991   5.586   1.477  0.1675 -0.3195  0.9289
 1881SOL     OW15556   1.160   4.238   1.590 -1.1427 -0.1324  0.6327
 1881SOL    HW115557   1.239   4.285   1.553 -2.3409  0.7141 -0.9126
 1881SOL    HW215558   1.165   4.141   1.566  0.3664 -0.4659  2.1961
 1882SOL     OW15559   2.711   2.935   0.892 -0.4779  0.5557 -0.0676
 1882SOL    HW115560   2.747   2.967   0.805 -1.4650 -0.0318 -0.7026
 1882SOL    HW215561   2.745   2.843   0.911  0.3546  0.9869  0.5437
 1883SOL     OW15562   3.058   0.247   0.399  0.1357  0.4779  0.6478
 1883SOL    HW115563   3.131   0.314   0.398  0.1864  0.4200  0.3945
 1883SOL    HW215564   3.029   0.228   0.305  1.5203 -1.3800  0.5733
 1884SOL     OW15565   2.936   8.179   1.688 -0.4202  0.4196  0.3338
 1884SOL    HW115566   2.863   8.156   1.752  0.0618 -1.2144  0.3357
 1884SOL    HW215567   2.935   8.115   1.611  1.2890  0.0582  0.5801
 1885SOL     OW15568   2.937   3.908   0.053 -0.0797 -0.2333  1.1242
 1885SOL    HW115569   2.931   3.946  -0.039  0.4929 -0.6270  0.9209
 1885SOL    HW215570   3.029   3.923   0.089 -0.7585  1.3369  2.2629
 1886SOL     OW15571   0.793   4.600   2.201  0.4320  0.0101 -0.0067
 1886SOL    HW115572   0.705   4.566   2.168  0.5425 -0.3329  0.0567
 1886SOL    HW215573   0.859   4.602   2.125 -0.0875  1.8323 -0.4529
 1887SOL     OW15574   4.056   2.239   2.064 -0.2286  0.1101  0.9012
 1887SOL    HW115575   3.968   2.280   2.086 -0.5006  0.2332 -0.3757
 1887SOL    HW215576   4.041   2.159   2.006  0.6054  1.4080 -1.1609
 1888SOL     OW15577   1.667   3.162   2.015 -0.7702 -0.0573  0.3525
 1888SOL    HW115578   1.709   3.096   1.952  0.9168  1.0068  0.3464
 1888SOL    HW215579   1.674   3.128   2.108 -0.0889  0.0147  0.3275
 1889SOL     OW15580   4.024   5.916   2.504  0.0039 -0.3061  0.0611
 1889SOL    HW115581   3.984   6.007   2.505  1.6197  0.4349 -0.0374
 1889SOL    HW215582   4.028   5.882   2.410 -1.8943 -1.0948  0.2427
 1890SOL     OW15583   1.390   5.204   1.208  0.3397 -0.0847 -0.2258
 1890SOL    HW115584   1.466   5.174   1.266  1.3566  3.1593  0.2228
 1890SOL    HW215585   1.323   5.251   1.265 -0.4515 -0.1067 -1.1415
 1891SOL     OW15586   1.779   5.559   0.123 -0.6315 -0.0854 -0.0760
 1891SOL    HW115587   1.835   5.585   0.044  1.4007 -1.5331  0.8108
 1891SOL    HW215588   1.684   5.585   0.107  0.6490  4.8046 -0.5586
 1892SOL     OW15589   4.184   1.914   2.166 -0.4212 -0.3441 -0.2659
 1892SOL    HW115590   4.257   1.847   2.183 -0.3500 -0.1984  0.0123
 1892SOL    HW215591   4.193   1.951   2.074 -0.3130 -0.5390 -0.3336
 1893SOL     OW15592   1.823   4.184   2.151 -0.2051  0.3497 -0.4508
 1893SOL    HW115593   1.761   4.241   2.097 -1.0486  1.1276  1.3050
 1893SOL    HW215594   1.827   4.219   2.245  0.7508 -1.3563  0.1580
 1894SOL     OW15595   2.974   5.435   2.393  0.7571  0.5990 -0.3999
 1894SOL    HW115596   2.961   5.475   2.302 -0.5159  0.1240 -0.4485
 1894SOL    HW215597   2.888   5.393   2.423  0.7597  2.0089  1.6460
 1895SOL     OW15598   4.327   3.695   2.198 -0.2702 -0.3540  0.3039
 1895SOL    HW115599   4.358   3.610   2.154 -0.5347 -1.1352  1.6130
 1895SOL    HW215600   4.227   3.696   2.200 -0.2618 -0.1293  0.5425
 1896SOL     OW15601   1.952   3.695   2.567  0.1293 -0.1094  0.6136
 1896SOL    HW115602   1.991   3.603   2.565  0.3254 -0.0166  0.0691
 1896SOL    HW215603   2.018   3.759   2.607  0.5038  0.0332 -0.2361
 1897SOL     OW15604   2.645   5.185   0.724  0.0970  0.0552  0.0515
 1897SOL    HW115605   2.636   5.088   0.747 -1.4119  0.0460 -0.5120
 1897SOL    HW215606   2.687   5.233   0.800 -1.4502 -0.6188  1.3698
 1898SOL     OW15607   3.487   9.425   1.657  0.0341 -0.2990 -0.6294
 1898SOL    HW115608   3.401   9.476   1.656  1.1408  1.5987 -2.5831
 1898SOL    HW215609   3.486   9.358   1.584 -0.3861 -1.3744  0.3401
 1899SOL     OW15610   2.213   4.889   2.223  0.5579 -0.1297 -0.1009
 1899SOL    HW115611   2.275   4.812   2.209  0.2083  0.0930 -3.2497
 1899SOL    HW215612   2.149   4.867   2.297  1.8027 -1.9960  0.4448
 1900SOL     OW15613   4.070   4.891   2.293 -0.0991  0.2678  0.4513
 1900SOL    HW115614   4.057   4.960   2.222 -0.2017 -0.7356 -0.5193
 1900SOL    HW215615   3.981   4.857   2.323 -0.0245 -0.0980  0.2668
 1901SOL     OW15616   0.785   4.179   2.134  0.5364  0.2827  0.0511
 1901SOL    HW115617   0.734   4.202   2.218 -0.0099 -1.7702  0.3208
 1901SOL    HW215618   0.881   4.204   2.146  0.6052 -0.6137  1.5838
 1902SOL     OW15619   4.448   4.832   1.872 -0.2869  0.3048 -0.7604
 1902SOL    HW115620   4.399   4.821   1.959 -0.2650  3.9276 -0.2083
 1902SOL    HW215621   4.405   4.775   1.802 -4.7467  2.6588 -0.0881
 1903SOL     OW15622   3.005   9.823   1.156 -0.1030  0.1344 -0.2245
 1903SOL    HW115623   2.983   9.757   1.229  2.6326 -1.3364 -0.6522
 1903SOL    HW215624   2.935   9.819   1.085  0.3918 -2.9743 -0.6300
 1904SOL     OW15625   3.513   1.690   2.052  0.1052  0.1558  0.0421
 1904SOL    HW115626   3.531   1.774   2.103  0.3982  0.9846 -1.4307
 1904SOL    HW215627   3.431   1.646   2.090 -1.1573  2.0778 -0.3832
 1905SOL     OW15628   0.611   5.455   1.960 -0.3076 -0.5298 -0.3237
 1905SOL    HW115629   0.541   5.526   1.956 -0.5529 -0.7487 -0.0042
 1905SOL    HW215630   0.606   5.408   2.048  0.0605 -0.7310 -0.4070
 1906SOL     OW15631   2.803   7.876   0.158 -0.3924  0.3214  0.2249
 1906SOL    HW115632   2.845   7.900   0.246 -0.1604  2.5574 -0.4521
 1906SOL    HW215633   2.747   7.794   0.168  0.5959 -0.1375  2.1711
 1907SOL     OW15634   4.186   0.498   1.041  0.3966  0.0712  0.5765
 1907SOL    HW115635   4.245   0.423   1.071  0.7240 -0.7201 -1.9288
 1907SOL    HW215636   4.214   0.583   1.086  0.8243 -1.0545  2.4970
 1908SOL     OW15637   4.819   3.531   2.230 -0.1858 -0.1028 -0.1066
 1908SOL    HW115638   4.823   3.487   2.320  0.8003  1.4319  0.6222
 1908SOL    HW215639   4.739   3.498   2.180 -1.4502 -0.0326  1.8258
 1909SOL     OW15640   3.610   2.810  -0.031 -0.3424  0.0458 -0.3625
 1909SOL    HW115641   3.663   2.853  -0.105  2.7566 -0.3731  1.5383
 1909SOL    HW215642   3.618   2.864   0.052 -1.4375 -1.0204  0.4614
 1910SOL     OW15643   2.787   2.643   1.678 -0.7705  0.1814  0.0160
 1910SOL    HW115644   2.836   2.612   1.596  0.2945 -1.6962  1.3114
 1910SOL    HW215645   2.766   2.740   1.670  2.4774  0.8697 -0.9703
 1911SOL     OW15646   3.609   2.372   1.945 -0.1102  0.6851 -0.0187
 1911SOL    HW115647   3.565   2.292   1.904  1.7022 -0.7381  0.7025
 1911SOL    HW215648   3.552   2.407   2.019 -1.8976  1.3385 -1.6917
 1912SOL     OW15649   4.267   1.651   2.545  0.5310  0.2244  0.0891
 1912SOL    HW115650   4.251   1.554   2.563 -0.2120  0.3669  0.2275
 1912SOL    HW215651   4.281   1.665   2.447  1.6827 -0.1603  0.1923
 1913SOL     OW15652   0.366   4.322   2.155 -0.2274 -0.2572  0.3550
 1913SOL    HW115653   0.336   4.272   2.073 -2.1444 -1.1698  1.5857
 1913SOL    HW215654   0.298   4.390   2.179  0.5569  0.3303  0.9395
 1914SOL     OW15655   2.926   8.362   2.573 -0.2486  0.0646 -0.0419
 1914SOL    HW115656   2.992   8.288   2.582 -0.0704  0.3250  0.9366
 1914SOL    HW215657   2.922   8.393   2.478  0.2128 -0.6992 -0.3131
 1915SOL     OW15658   0.577   6.402   1.910  0.2459  0.1900  0.1940
 1915SOL    HW115659   0.664   6.351   1.907  0.7001  0.9418  0.6236
 1915SOL    HW215660   0.528   6.379   1.993 -1.0040 -1.9300 -1.0938
 1916SOL     OW15661   4.103   8.559   0.418  0.7631  1.3209  0.6726
 1916SOL    HW115662   4.081   8.622   0.344  1.0976  1.2297  0.4930
 1916SOL    HW215663   4.052   8.584   0.500  1.2391  2.1025  0.7362
 1917SOL     OW15664   5.666   4.511   0.540  0.3937  0.0366  0.2190
 1917SOL    HW115665   5.590   4.576   0.537  0.8621  0.6450  1.1649
 1917SOL    HW215666   5.738   4.547   0.600  1.9684  0.0484 -1.6509
 1918SOL     OW15667   2.099   3.689   1.271 -0.2190 -0.4189 -0.5938
 1918SOL    HW115668   2.014   3.723   1.309 -0.6813 -0.5378 -1.5004
 1918SOL    HW215669   2.140   3.759   1.212  0.4241 -0.2768  0.0191
 1919SOL     OW15670   4.328   5.530   2.002 -1.0288  0.0421 -0.6143
 1919SOL    HW115671   4.259   5.530   2.075  0.0038  0.4803  0.3707
 1919SOL    HW215672   4.283   5.512   1.914 -2.7520  2.6858 -0.3274
 1920SOL     OW15673   3.147   5.565   1.938 -0.1613 -0.4375  0.8422
 1920SOL    HW115674   3.083   5.571   1.861 -0.3200 -0.5524  0.9666
 1920SOL    HW215675   3.097   5.566   2.024  0.0084 -0.4608  0.9423
 1921SOL     OW15676   4.868   4.008   1.977  0.4781  0.0245  0.0921
 1921SOL    HW115677   4.851   4.091   1.923  0.8997 -0.0767 -0.1945
 1921SOL    HW215678   4.924   4.030   2.056 -0.3792  0.2271  0.6554
 1922SOL     OW15679   3.102   9.566   1.048 -0.3769 -0.4578 -0.0138
 1922SOL    HW115680   3.051   9.501   1.105  0.1763 -0.9344 -0.0567
 1922SOL    HW215681   3.200   9.561   1.071 -0.5109  1.4081  1.0116
 1923SOL     OW15682   2.618   8.070   0.831 -0.9533 -0.4558  0.4553
 1923SOL    HW115683   2.610   7.978   0.870 -0.0021 -0.6427  0.2268
 1923SOL    HW215684   2.579   8.071   0.739  0.5378 -1.0744 -0.2120
 1924SOL     OW15685   1.905   5.296   1.711  0.3332  0.0286 -0.3674
 1924SOL    HW115686   1.879   5.378   1.763 -1.7441 -1.2019  0.5877
 1924SOL    HW215687   1.984   5.253   1.753  0.4668  0.6760  0.0444
 1925SOL     OW15688   3.465   9.377   0.274  0.3591  0.2698  0.1936
 1925SOL    HW115689   3.385   9.361   0.217 -0.0705 -0.2752  0.9358
 1925SOL    HW215690   3.538   9.313   0.250  0.0112 -0.2705  0.5706
 1926SOL     OW15691   2.364   2.037   2.382  0.4878  0.3746  0.2797
 1926SOL    HW115692   2.363   2.069   2.477 -3.2161 -1.0300  0.8173
 1926SOL    HW215693   2.303   2.095   2.328 -0.5418 -1.2582 -0.3309
 1927SOL     OW15694   1.703   4.770   0.364 -0.0624  0.0183 -0.3334
 1927SOL    HW115695   1.741   4.856   0.329  1.1690  0.0013  0.9303
 1927SOL    HW215696   1.608   4.785   0.393  0.7326  1.4269  1.6267
 1928SOL     OW15697   1.105   4.259   0.977 -0.3231 -0.5526 -0.1556
 1928SOL    HW115698   1.043   4.335   0.958  0.6614  0.4011  0.3557
 1928SOL    HW215699   1.193   4.295   1.007  0.0219 -1.9139  0.5140
 1929SOL     OW15700   3.773   3.371   0.123  0.2970  0.1222 -0.0095
 1929SOL    HW115701   3.828   3.288   0.133  0.9119  0.2962 -1.7748
 1929SOL    HW215702   3.810   3.442   0.184  1.9519  0.1768 -1.0300
 1930SOL     OW15703   3.203   2.323   1.127  0.2808  0.0474  0.1083
 1930SOL    HW115704   3.192   2.416   1.092  3.1491  1.7232  3.3521
 1930SOL    HW215705   3.141   2.310   1.205  1.7996  0.2031  1.3582
 1931SOL     OW15706   0.898   6.569   0.538  0.2146 -0.0381 -0.1188
 1931SOL    HW115707   0.885   6.595   0.634 -0.3944  0.1091 -0.2370
 1931SOL    HW215708   0.918   6.650   0.484 -0.6821  0.0519 -0.3208
 1932SOL     OW15709   2.891   8.620   1.373  0.1063  0.1775 -0.3813
 1932SOL    HW115710   2.949   8.694   1.339 -0.1436  0.3421 -0.4532
 1932SOL    HW215711   2.947   8.552   1.420  0.6766 -0.8240 -2.4361
 1933SOL     OW15712   3.573   1.288   1.424  0.5343  0.0224 -0.3857
 1933SOL    HW115713   3.649   1.223   1.425  0.9814  0.5480  0.6699
 1933SOL    HW215714   3.534   1.295   1.516 -1.8193 -1.4183 -1.2199
 1934SOL     OW15715   3.688   9.782   0.987 -0.1060 -0.2455 -0.4043
 1934SOL    HW115716   3.650   9.808   0.899 -1.2425  0.4785  0.2869
 1934SOL    HW215717   3.743   9.699   0.977 -0.1053 -0.0813 -1.8087
 1935SOL     OW15718   3.047   9.181   0.508 -0.6582 -0.1495 -0.0600
 1935SOL    HW115719   2.988   9.136   0.441 -0.3676 -1.5133  0.5868
 1935SOL    HW215720   2.996   9.254   0.554 -1.5758 -0.7556 -0.1079
 1936SOL     OW15721  10.045   5.412   0.300 -0.0985  0.0183 -0.0670
 1936SOL    HW115722  10.043   5.381   0.395 -0.5555 -0.6868 -0.3037
 1936SOL    HW215723  10.114   5.484   0.290 -0.1690  0.2186  0.8327
 1937SOL     OW15724   5.491   2.592   2.477  0.2055 -0.5336 -0.4294
 1937SOL    HW115725   5.528   2.571   2.387 -0.4113  2.2828 -1.3748
 1937SOL    HW215726   5.392   2.606   2.471  0.2578  0.3640  0.5298
 1938SOL     OW15727   3.320   0.836   0.979 -0.0902 -0.1547 -0.6433
 1938SOL    HW115728   3.314   0.759   1.043  0.7702 -0.3598 -0.8069
 1938SOL    HW215729   3.367   0.913   1.024 -0.9484  0.2793 -0.4787
 1939SOL     OW15730   2.189   3.056   0.393 -0.0192 -0.0300 -0.2494
 1939SOL    HW115731   2.248   3.101   0.325 -0.1366  1.2146  0.4431
 1939SOL    HW215732   2.099   3.100   0.392 -0.2361 -0.4672  0.2202
 1940SOL     OW15733   2.765   7.665   1.965 -0.4070  0.4222 -0.6455
 1940SOL    HW115734   2.807   7.577   1.941  0.7692  1.0896 -1.0578
 1940SOL    HW215735   2.671   7.650   1.995 -0.2349 -0.9739 -0.7864
 1941SOL     OW15736   3.571   9.023   1.413 -0.3543 -0.4566  0.2701
 1941SOL    HW115737   3.505   9.078   1.463  1.6290  0.3990  2.0440
 1941SOL    HW215738   3.656   9.075   1.403  0.1468 -1.6267 -1.7168
 1942SOL     OW15739   1.661   3.612   2.407  0.1961  0.3030 -0.1528
 1942SOL    HW115740   1.693   3.594   2.500 -0.5420 -0.7643 -0.0969
 1942SOL    HW215741   1.722   3.678   2.363  0.9944  0.2304  0.8230
 1943SOL     OW15742   3.654   9.584   0.115 -0.4556  0.4714  0.2751
 1943SOL    HW115743   3.752   9.592   0.135 -0.1954 -1.7554  0.0085
 1943SOL    HW215744   3.607   9.544   0.194 -0.1161 -4.2653 -1.7417
 1944SOL     OW15745   1.517   3.662   0.089 -0.1351  0.1411 -0.2694
 1944SOL    HW115746   1.495   3.694  -0.003 -0.7193 -0.8166 -0.4667
 1944SOL    HW215747   1.448   3.696   0.153  0.8520  1.6857 -0.0059
 1945SOL     OW15748   2.342   4.293   2.554  0.0583 -0.6427  0.9901
 1945SOL    HW115749   2.398   4.216   2.524 -1.2135 -1.2757  0.2007
 1945SOL    HW215750   2.283   4.263   2.629 -0.6733 -0.5456  0.4641
 1946SOL     OW15751   0.488   5.622   0.089  0.2286  0.5755 -0.2798
 1946SOL    HW115752   0.431   5.542   0.107 -0.4969  1.0077 -0.6180
 1946SOL    HW215753   0.506   5.629  -0.009  2.7445 -0.8080  0.0559
 1947SOL     OW15754   2.714   5.311   2.372 -0.2015  0.8429  0.5205
 1947SOL    HW115755   2.714   5.344   2.278  2.4232  1.9908  0.9095
 1947SOL    HW215756   2.674   5.219   2.374 -1.9161  1.4928 -1.4255
 1948SOL     OW15757   0.912   6.206   1.248  0.0305 -0.1571  0.3799
 1948SOL    HW115758   0.903   6.121   1.196  1.9108 -0.0035 -0.2651
 1948SOL    HW215759   0.999   6.205   1.297  0.1614  1.4656  0.2070
 1949SOL     OW15760   2.360   3.623   0.790 -0.4407 -0.0079  0.0093
 1949SOL    HW115761   2.305   3.584   0.715 -1.7202 -0.0601  0.9641
 1949SOL    HW215762   2.305   3.627   0.873  0.7196  0.8242  0.7500
 1950SOL     OW15763   3.352   3.877   1.212 -0.4644 -0.4509 -0.0655
 1950SOL    HW115764   3.447   3.902   1.228 -0.7077  1.1311 -1.0279
 1950SOL    HW215765   3.301   3.957   1.181 -1.8705 -1.5365 -0.6120
 1951SOL     OW15766   2.921   6.469   0.182 -0.3742 -0.1190 -0.2549
 1951SOL    HW115767   2.913   6.401   0.108 -1.8530 -1.3050  0.9457
 1951SOL    HW215768   2.830   6.485   0.221  0.1210  1.8475  0.1380
 1952SOL     OW15769   2.598   4.703   0.511 -0.2817 -0.3406  0.2204
 1952SOL    HW115770   2.594   4.678   0.608 -0.6195  0.6576  0.4736
 1952SOL    HW215771   2.615   4.622   0.456  2.4740 -0.5546  1.3184
 1953SOL     OW15772   2.958   9.831   1.748 -0.1510  0.0905 -0.4584
 1953SOL    HW115773   3.021   9.822   1.671 -1.2061  0.9914 -1.4493
 1953SOL    HW215774   2.892   9.756   1.746 -0.3541  0.2724 -0.5999
 1954SOL     OW15775   4.440   3.240   2.487 -0.6196 -0.3090 -0.4805
 1954SOL    HW115776   4.419   3.329   2.447 -1.2441  0.1209  0.7686
 1954SOL    HW215777   4.518   3.249   2.549 -2.4330 -0.0145  1.8255
 1955SOL     OW15778   3.415   7.836   2.497  0.0109 -0.1390  0.7387
 1955SOL    HW115779   3.479   7.768   2.534  0.4525  1.1542  2.4185
 1955SOL    HW215780   3.464   7.895   2.433  0.3763  0.5232  1.6264
 1956SOL     OW15781   3.818   4.840   1.598 -0.0315 -0.4646  0.4626
 1956SOL    HW115782   3.796   4.811   1.691  0.8599  0.7182  1.0646
 1956SOL    HW215783   3.917   4.852   1.589 -0.1927  0.3754 -0.3368
 1957SOL     OW15784   3.048   1.422   0.436 -0.4752  0.7944 -0.0920
 1957SOL    HW115785   3.050   1.473   0.522 -1.6591 -0.4291  0.6825
 1957SOL    HW215786   3.068   1.483   0.360 -0.5718  2.1286  0.9486
 1958SOL     OW15787   3.619   0.845   0.818  0.3143  0.5918 -0.2893
 1958SOL    HW115788   3.706   0.833   0.866 -0.1763 -1.3062  0.1787
 1958SOL    HW215789   3.561   0.766   0.835 -1.3536  1.6496 -0.9422
 1959SOL     OW15790   3.135   3.190   0.144  0.8970  0.4434  0.4164
 1959SOL    HW115791   3.144   3.092   0.165  0.6770  0.6463  1.4623
 1959SOL    HW215792   3.057   3.204   0.083  0.6662  0.0176  0.6128
 1960SOL     OW15793   3.299   5.463   0.253 -0.6312  0.3654  0.5208
 1960SOL    HW115794   3.368   5.438   0.185 -0.4252  2.6845 -0.1614
 1960SOL    HW215795   3.340   5.461   0.344 -0.2995 -0.5495  0.3526
 1961SOL     OW15796   3.121   4.809   1.805  0.5325  0.5063  0.2280
 1961SOL    HW115797   3.038   4.813   1.749  1.0113 -0.1882 -0.5545
 1961SOL    HW215798   3.109   4.741   1.878  1.3941 -1.6412 -1.5734
 1962SOL     OW15799   0.942   4.968   2.412  0.0226  0.5713 -0.1997
 1962SOL    HW115800   0.905   5.057   2.435 -0.8321 -0.1777  1.3688
 1962SOL    HW215801   0.880   4.896   2.443  1.7103 -0.6367  0.4604
 1963SOL     OW15802   4.073   0.909   2.243 -0.3025 -0.2752 -0.7931
 1963SOL    HW115803   4.075   0.909   2.343 -0.4097 -0.4566 -0.7894
 1963SOL    HW215804   3.979   0.921   2.212 -0.6062 -2.4726 -0.8422
 1964SOL     OW15805   1.700   3.648   0.288 -0.5234  0.3079 -0.1021
 1964SOL    HW115806   1.750   3.565   0.264 -1.5634 -0.9213  1.8472
 1964SOL    HW215807   1.625   3.662   0.223  0.1103  0.1400 -0.8731
 1965SOL     OW15808   2.726   5.395   2.070  0.3522  0.2417 -0.2196
 1965SOL    HW115809   2.628   5.377   2.080  0.0269  1.3278 -1.3121
 1965SOL    HW215810   2.767   5.325   2.011  0.0802  0.2373 -0.4049
 1966SOL     OW15811   2.061   6.673   0.777 -0.1748  0.1630 -0.6202
 1966SOL    HW115812   2.128   6.718   0.718  1.8931 -1.0771  0.7214
 1966SOL    HW215813   2.061   6.716   0.867 -1.4775  0.3958 -0.7225
 1967SOL     OW15814   2.364   3.082   2.522 -0.3351 -0.0414 -0.4345
 1967SOL    HW115815   2.371   3.000   2.466 -0.1867 -0.5694  0.3549
 1967SOL    HW215816   2.268   3.101   2.543 -0.5139  1.0299 -2.1461
 1968SOL     OW15817   4.452   1.941   0.998 -0.1264  0.1304  0.6444
 1968SOL    HW115818   4.387   1.990   0.940  0.7234 -0.8627 -1.1781
 1968SOL    HW215819   4.542   1.983   0.991  0.0343 -0.1325  1.0776
 1969SOL     OW15820   2.853   6.662   0.800  0.4349 -0.0684  0.2850
 1969SOL    HW115821   2.928   6.677   0.864  1.1760  0.5213 -0.7001
 1969SOL    HW215822   2.821   6.751   0.765  0.5129 -0.4247 -0.7000
 1970SOL     OW15823   3.636   0.971   1.111 -0.3732  0.1436  0.1082
 1970SOL    HW115824   3.600   0.882   1.139  0.3861 -1.0429 -2.4638
 1970SOL    HW215825   3.735   0.965   1.102 -0.3280  1.2232 -0.1860
 1971SOL     OW15826   3.930   2.863   0.732 -0.0321 -0.7129  0.6946
 1971SOL    HW115827   3.842   2.844   0.774 -0.1901  0.1018  0.7495
 1971SOL    HW215828   3.935   2.960   0.708  0.5774 -0.9011  0.0538
 1972SOL     OW15829   3.242   7.090   1.840 -0.0815  0.1787 -0.8841
 1972SOL    HW115830   3.286   7.137   1.763 -1.8968  4.1469  0.4306
 1972SOL    HW215831   3.300   7.099   1.921 -0.7726  0.7581 -0.4567
 1973SOL     OW15832   3.744   9.992   2.152 -0.1921 -0.4411 -0.7068
 1973SOL    HW115833   3.724  10.089   2.162 -2.5832 -1.0167  0.3714
 1973SOL    HW215834   3.827   9.970   2.203 -0.9942  0.5958  1.1167
 1974SOL     OW15835   4.491   4.821   0.449  0.5570 -0.4643 -0.0750
 1974SOL    HW115836   4.395   4.820   0.421  1.1880  0.7231 -2.4327
 1974SOL    HW215837   4.514   4.910   0.487  1.2271 -0.0225 -1.4737
 1975SOL     OW15838   4.739   2.120   0.414  0.1623 -0.6782 -0.0305
 1975SOL    HW115839   4.815   2.182   0.427  0.3573 -0.8858 -0.1667
 1975SOL    HW215840   4.677   2.126   0.492 -0.7748  1.0200 -0.8801
 1976SOL     OW15841   4.436   4.185   2.404  0.7988 -0.6988  0.3934
 1976SOL    HW115842   4.438   4.098   2.356  1.9385 -0.6122  0.2508
 1976SOL    HW215843   4.348   4.230   2.390  0.6993 -1.2133 -0.6513
 1977SOL     OW15844   3.833   3.701   0.600  0.1837 -0.2643  0.0441
 1977SOL    HW115845   3.747   3.719   0.648 -1.5812 -0.9430 -2.7403
 1977SOL    HW215846   3.834   3.607   0.568  2.5722 -0.6519  1.1283
 1978SOL     OW15847   4.605   4.606   1.684  0.0597 -0.0621  0.1109
 1978SOL    HW115848   4.665   4.654   1.748  0.3832  0.7149 -0.7600
 1978SOL    HW215849   4.622   4.507   1.690 -0.0688 -0.0156  1.3619
 1979SOL     OW15850   4.704   2.770   2.214 -0.2297  0.2075  0.0252
 1979SOL    HW115851   4.643   2.848   2.206 -0.4783 -0.1324 -1.4833
 1979SOL    HW215852   4.785   2.785   2.157 -0.3476 -0.6927 -0.3844
 1980SOL     OW15853   4.284   9.595   1.377 -0.2660  0.3459 -0.0791
 1980SOL    HW115854   4.300   9.689   1.347 -2.2716  0.4150 -1.0214
 1980SOL    HW215855   4.292   9.590   1.477 -1.7793  1.8851  0.1432
 1981SOL     OW15856   1.483   2.828   1.690  0.8546 -0.0071 -0.5066
 1981SOL    HW115857   1.415   2.780   1.635  1.0103  0.8533 -1.4614
 1981SOL    HW215858   1.571   2.781   1.682  1.1771  0.8282 -2.0153
 1982SOL     OW15859   4.466   3.682   1.071  0.0349 -0.2769 -0.0963
 1982SOL    HW115860   4.433   3.720   0.985 -0.2797 -2.0715 -0.7979
 1982SOL    HW215861   4.388   3.668   1.133  0.3471  1.6450  0.7445
 1983SOL     OW15862   2.651   9.629   0.866  0.6393 -0.8137 -0.4372
 1983SOL    HW115863   2.629   9.620   0.769  1.4190  0.0455 -0.6981
 1983SOL    HW215864   2.700   9.547   0.896  1.0393 -0.7629 -0.9488
 1984SOL     OW15865   3.267   7.268   0.942 -0.1311 -0.4414  0.1995
 1984SOL    HW115866   3.289   7.183   0.989 -0.1863 -0.4688  0.1746
 1984SOL    HW215867   3.252   7.251   0.845  1.2034 -0.2009 -0.0612
 1985SOL     OW15868   1.953   3.236   0.398  0.0905 -0.0320  0.1336
 1985SOL    HW115869   1.930   3.160   0.459  0.2582 -0.4172 -0.2764
 1985SOL    HW215870   2.017   3.298   0.444 -0.9383  0.4729  0.8868
 1986SOL     OW15871   0.599   3.976   2.093 -0.3148  0.3591  0.0029
 1986SOL    HW115872   0.671   4.046   2.093  1.3588 -1.3096 -2.5975
 1986SOL    HW215873   0.512   4.017   2.067 -0.0417  2.0786  1.6593
 1987SOL     OW15874   3.427   0.608   1.584  0.0481  0.1377  0.2706
 1987SOL    HW115875   3.434   0.541   1.657 -2.7827 -1.1326 -0.5209
 1987SOL    HW215876   3.475   0.574   1.503 -0.4839 -0.4792  0.2050
 1988SOL     OW15877   3.584   4.687   2.079 -0.4794  0.0276  0.3298
 1988SOL    HW115878   3.540   4.645   2.157 -1.8964  0.7776 -0.0447
 1988SOL    HW215879   3.549   4.647   1.995 -0.6274  0.7689  0.0269
 1989SOL     OW15880   0.977   6.450   0.945 -0.2356  0.2521 -0.4304
 1989SOL    HW115881   0.920   6.445   1.028 -0.5405  2.9004 -0.4440
 1989SOL    HW215882   1.073   6.434   0.969 -0.3376  0.9091  0.4167
 1990SOL     OW15883   3.572   2.529   1.091  0.3107  0.2899 -0.1845
 1990SOL    HW115884   3.662   2.564   1.118  0.8255 -0.1105 -1.3643
 1990SOL    HW215885   3.574   2.499   0.996 -0.7359 -0.8486  0.1249
 1991SOL     OW15886   1.920   4.317   1.607  0.0367 -0.4009  0.5246
 1991SOL    HW115887   1.867   4.349   1.529  2.2583 -0.8641 -1.2258
 1991SOL    HW215888   1.905   4.377   1.685 -0.7929  1.1489 -0.8121
 1992SOL     OW15889   1.549   5.873   1.553 -0.2545 -0.0529 -0.0784
 1992SOL    HW115890   1.620   5.929   1.594 -0.5965 -0.0604  0.5344
 1992SOL    HW215891   1.503   5.820   1.624 -1.6269  0.8116 -0.3085
 1993SOL     OW15892   2.332   6.082   2.273  0.2833 -0.0890  0.5045
 1993SOL    HW115893   2.424   6.071   2.235 -0.8369 -1.5854 -1.9741
 1993SOL    HW215894   2.322   6.173   2.312  2.0523  1.0219 -1.5120
 1994SOL     OW15895   0.621   5.531   0.387  0.8951  0.3892  0.2724
 1994SOL    HW115896   0.572   5.554   0.303  1.8621  1.9049  0.1080
 1994SOL    HW215897   0.703   5.479   0.365  1.4883  1.3368  0.2110
 1995SOL     OW15898   2.844   2.684   0.524  0.2777  0.0569 -0.3834
 1995SOL    HW115899   2.910   2.749   0.562 -1.4468  1.9048 -0.4927
 1995SOL    HW215900   2.769   2.733   0.481 -0.4477 -2.0254 -1.5792
 1996SOL     OW15901   3.766   2.728   1.489  0.1945 -0.8326 -0.2666
 1996SOL    HW115902   3.702   2.769   1.553  0.5593 -0.2488 -0.2677
 1996SOL    HW215903   3.762   2.778   1.402  1.5620  0.0229  0.1455
 1997SOL     OW15904   2.858   4.171   1.400  0.0417 -0.4484 -0.2374
 1997SOL    HW115905   2.872   4.075   1.379  0.6182 -0.7831  1.5931
 1997SOL    HW215906   2.869   4.186   1.499 -0.5274  1.4007 -0.4298
 1998SOL     OW15907   1.698   5.315   2.418 -0.2738  0.1550 -0.1042
 1998SOL    HW115908   1.616   5.335   2.364 -0.6394 -0.9132  0.0430
 1998SOL    HW215909   1.671   5.300   2.513 -0.0655 -1.3346 -0.2633
 1999SOL     OW15910   3.071   6.821   2.168 -0.5621 -0.3186  0.1529
 1999SOL    HW115911   3.108   6.728   2.172 -0.2948 -0.1711  1.0931
 1999SOL    HW215912   3.025   6.843   2.254  0.2777  0.7911  0.3274
 2000SOL     OW15913   3.628   0.520   0.463  0.8519 -0.0518  0.1351
 2000SOL    HW115914   3.596   0.506   0.557  2.1637 -0.2523  0.5611
 2000SOL    HW215915   3.713   0.571   0.464  1.8531 -1.6473 -0.8477
 2001SOL     OW15916   2.408   5.529   0.311 -0.1847  0.5888  0.2599
 2001SOL    HW115917   2.415   5.625   0.336 -0.6921  0.1831  2.0854
 2001SOL    HW215918   2.373   5.520   0.218  0.9534  2.1730 -0.3411
 2002SOL     OW15919   4.438   2.950   1.978  0.6548 -0.3190  0.1988
 2002SOL    HW115920   4.470   2.998   2.060  0.4151  0.0626  0.0734
 2002SOL    HW215921   4.470   2.998   1.896  2.9404 -2.0673  0.0382
 2003SOL     OW15922   3.545   0.592   0.856  0.5056  0.4981  0.8022
 2003SOL    HW115923   3.604   0.557   0.929  1.0174  1.8568  1.0601
 2003SOL    HW215924   3.509   0.516   0.803  3.0144 -0.3390  0.2317
 2004SOL     OW15925   2.050   3.360   1.359  0.8920 -0.1354 -0.2839
 2004SOL    HW115926   1.974   3.412   1.317  0.1290  0.2461  1.5263
 2004SOL    HW215927   2.041   3.263   1.336  0.5216  0.0739 -1.0474
 2005SOL     OW15928   3.249   4.673   2.040 -0.1231 -0.1823  0.0775
 2005SOL    HW115929   3.327   4.612   2.025 -0.0283  0.1248 -0.7060
 2005SOL    HW215930   3.280   4.756   2.086 -0.0988 -0.3420  0.3477
 2006SOL     OW15931   2.216   2.645   1.275  0.6702 -0.1131 -0.4369
 2006SOL    HW115932   2.168   2.581   1.215  1.5098 -0.0324 -1.2065
 2006SOL    HW215933   2.220   2.607   1.367 -0.1585 -0.4822 -0.5427
 2007SOL     OW15934   1.672   5.387   1.094  0.3578 -0.2185  0.4012
 2007SOL    HW115935   1.584   5.403   1.050  0.1074 -0.2542  0.8862
 2007SOL    HW215936   1.659   5.374   1.192  0.8673 -0.5689  0.4261
 2008SOL     OW15937   3.628   9.779   1.823 -0.0593  0.7387 -0.0392
 2008SOL    HW115938   3.712   9.829   1.843  0.8104 -0.6444 -0.2295
 2008SOL    HW215939   3.646   9.681   1.823 -1.3561  0.4859 -1.5170
 2009SOL     OW15940   4.236   1.694   1.052 -0.3998  0.2230  0.1163
 2009SOL    HW115941   4.314   1.706   0.991 -1.0288  0.7102 -0.6140
 2009SOL    HW215942   4.210   1.598   1.055 -0.0816  0.1327 -0.0290
 2010SOL     OW15943   4.342   1.658   0.424 -0.1903 -0.1182 -0.5057
 2010SOL    HW115944   4.365   1.561   0.435  0.0890 -0.0151 -0.1566
 2010SOL    HW215945   4.275   1.669   0.351 -0.8912 -0.6604  0.0510
 2011SOL     OW15946   2.753   1.541   2.057 -0.2765  0.1544  0.3536
 2011SOL    HW115947   2.700   1.536   2.142 -0.7619  0.4640  0.0739
 2011SOL    HW215948   2.737   1.459   2.003  0.2099 -0.1452  0.6640
 2012SOL     OW15949   4.529   9.955   2.306 -0.4256 -0.1771 -0.1547
 2012SOL    HW115950   4.528   9.905   2.392 -3.4799 -0.9539 -0.5680
 2012SOL    HW215951   4.497   9.895   2.232  0.5702  0.9571 -1.5332
 2013SOL     OW15952   1.137   6.242   1.999 -0.7460  0.0908  0.5479
 2013SOL    HW115953   1.190   6.325   1.983 -0.1572 -0.2912  0.4865
 2013SOL    HW215954   1.122   6.230   2.097 -1.1090  0.4361  0.5363
 2014SOL     OW15955   3.001   9.544   0.792 -0.0864 -0.4472  0.5934
 2014SOL    HW115956   3.013   9.598   0.875 -1.1326 -1.3742  1.3684
 2014SOL    HW215957   3.060   9.579   0.720 -0.4045  1.4428  1.2243
 2015SOL     OW15958   9.794   4.508   1.903  0.7477  0.5178 -0.2700
 2015SOL    HW115959   9.856   4.431   1.917  0.8122  0.2846 -1.7814
 2015SOL    HW215960   9.819   4.556   1.819  0.0561  1.5598  0.1108
 2016SOL     OW15961   3.258   6.474   0.886  0.0452 -0.6977  0.2443
 2016SOL    HW115962   3.262   6.389   0.939  2.2521 -0.8140 -0.0681
 2016SOL    HW215963   3.221   6.455   0.795 -0.7642 -1.0586  0.6393
 2017SOL     OW15964   1.433   4.759   1.829  0.1394 -0.0079 -0.1648
 2017SOL    HW115965   1.364   4.695   1.794 -0.6518  1.8084 -1.9810
 2017SOL    HW215966   1.396   4.808   1.908  0.9065 -2.0377  1.5268
 2018SOL     OW15967   2.877   9.381   0.625  0.2559 -0.0184  0.4589
 2018SOL    HW115968   2.777   9.371   0.622  0.2834 -0.9819  2.5219
 2018SOL    HW215969   2.903   9.432   0.706  1.5249 -0.8004  0.5560
 2019SOL     OW15970   2.937   9.931   0.452 -0.3404  0.3367 -0.2608
 2019SOL    HW115971   2.881   9.861   0.407  2.0629 -1.2018 -0.9750
 2019SOL    HW215972   2.999   9.972   0.385 -1.0088  2.4355  0.3878
 2020SOL     OW15973   1.338   4.632   0.232 -0.2002 -0.2894 -0.4872
 2020SOL    HW115974   1.320   4.701   0.302 -1.3721 -1.6263  0.5540
 2020SOL    HW215975   1.333   4.541   0.272 -0.3365 -1.0569 -2.1936
 2021SOL     OW15976   2.881   5.717   1.466 -0.0651  0.6254  0.0721
 2021SOL    HW115977   2.935   5.713   1.382  0.5446  0.9069  0.4403
 2021SOL    HW215978   2.916   5.650   1.532  2.1718  3.1868  1.6258
 2022SOL     OW15979   2.687   1.433   0.700 -0.2685  0.3869  0.0283
 2022SOL    HW115980   2.715   1.488   0.622  3.9767 -0.7094  0.6509
 2022SOL    HW215981   2.737   1.346   0.700 -1.9997 -0.7006  2.6098
 2023SOL     OW15982   4.393  10.191   2.317  0.0864 -0.5190 -0.0126
 2023SOL    HW115983   4.453  10.271   2.321  0.1623 -0.5107 -1.2655
 2023SOL    HW215984   4.448  10.108   2.319  0.0705 -0.5253  0.1796
 2024SOL     OW15985   3.894   0.692   0.956 -0.4607  0.1733  0.0290
 2024SOL    HW115986   3.964   0.635   0.999  0.3299  0.9215 -0.2448
 2024SOL    HW215987   3.864   0.650   0.870  1.0169  0.7757 -0.7954
 2025SOL     OW15988   9.764   5.983   1.990 -1.0540 -0.1907  0.4674
 2025SOL    HW115989   9.818   6.042   1.930 -3.1744  0.9474 -0.3491
 2025SOL    HW215990   9.813   5.973   2.077  1.2391 -0.4957 -0.8009
 2026SOL     OW15991   3.268   1.231   0.094  0.0592  0.2362 -0.1656
 2026SOL    HW115992   3.240   1.327   0.088 -2.3605 -0.4782 -0.9471
 2026SOL    HW215993   3.196   1.173   0.057  1.5378 -1.9011  0.2002
 2027SOL     OW15994   3.188   4.106   2.010  0.1413 -0.1995  0.2121
 2027SOL    HW115995   3.232   4.092   1.921 -1.1952  1.4839 -0.7531
 2027SOL    HW215996   3.089   4.110   1.998 -0.1548 -1.5227  2.0213
 2028SOL     OW15997   3.166   2.643   0.056 -0.5610  0.0460 -0.2145
 2028SOL    HW115998   3.246   2.612   0.004  0.1238  1.1913  0.1156
 2028SOL    HW215999   3.127   2.724   0.013  0.0717  1.0651  1.0699
 2029SOL     OW16000   4.827   2.894   2.493 -0.8357 -0.1588 -0.1013
 2029SOL    HW116001   4.770   2.874   2.413 -1.3087  1.6400 -0.2388
 2029SOL    HW216002   4.916   2.928   2.462 -0.3235 -1.2705  0.1298
 2030SOL     OW16003   4.044   4.814   2.002 -0.3705  0.0325  0.2394
 2030SOL    HW116004   4.032   4.754   2.081 -1.2113  0.1262  0.1867
 2030SOL    HW216005   4.018   4.907   2.027  0.6085  0.3204  0.2246
 2031SOL     OW16006   4.197   4.524   1.476  0.2011  0.5550 -0.0480
 2031SOL    HW116007   4.178   4.427   1.468 -1.2222  0.6590  1.7140
 2031SOL    HW216008   4.294   4.541   1.457  0.6163 -1.2972  0.3485
 2032SOL     OW16009   0.717   6.006   1.920 -0.1242 -0.3197  0.1345
 2032SOL    HW116010   0.736   5.937   1.850  0.4158  0.9156 -0.9387
 2032SOL    HW216011   0.618   6.013   1.932 -0.2082 -0.8365 -0.1936
 2033SOL     OW16012   0.873   4.011   1.844  0.0743 -0.3654  0.2402
 2033SOL    HW116013   0.808   3.935   1.846  0.1908 -0.5355 -1.7800
 2033SOL    HW216014   0.925   4.011   1.929  1.0739 -3.4428 -0.2793
 2034SOL     OW16015  10.061   4.441   0.146 -0.4159  0.1505 -0.4502
 2034SOL    HW116016  10.027   4.531   0.172 -1.5722  0.4735 -2.9019
 2034SOL    HW216017  10.021   4.371   0.205 -1.4323  1.0192 -0.0974
 2035SOL     OW16018   3.826   9.987   1.881  0.7108  0.5544 -0.6489
 2035SOL    HW116019   3.804  10.024   1.971 -0.3161 -1.5113 -0.0295
 2035SOL    HW216020   3.839  10.063   1.817 -2.4466  2.0331  0.3311
 2036SOL     OW16021   2.990   8.726   1.779  0.2254 -0.0101 -0.4939
 2036SOL    HW116022   2.903   8.736   1.731  1.8357  1.2859 -3.3030
 2036SOL    HW216023   3.031   8.816   1.791  1.7195 -0.7136 -0.2498
 2037SOL     OW16024   2.978   6.277   1.049  0.7749  0.1753  0.4552
 2037SOL    HW116025   2.884   6.247   1.062 -0.3237  3.4872  0.3765
 2037SOL    HW216026   3.010   6.324   1.132  2.2199 -0.4834  0.2992
 2038SOL     OW16027   9.828   5.102   0.693  0.6452  0.3115 -0.0182
 2038SOL    HW116028   9.737   5.131   0.661  0.9419  0.9944 -0.2596
 2038SOL    HW216029   9.824   5.085   0.792 -0.0424 -0.8653 -0.2446
 2039SOL     OW16030   3.890   5.166   0.421  0.4836  0.4166 -0.7942
 2039SOL    HW116031   3.927   5.105   0.491  0.9722  2.3642  0.6857
 2039SOL    HW216032   3.844   5.243   0.464  0.6239  1.5607 -2.6098
 2040SOL     OW16033   1.883   6.911  -0.016  0.3608 -0.0144  0.2922
 2040SOL    HW116034   1.801   6.879  -0.062  0.4316  0.8913 -0.4697
 2040SOL    HW216035   1.947   6.948  -0.083  0.2902  1.6862  1.1434
 2041SOL     OW16036   0.631   5.771   0.542  0.5925  0.4726  0.1184
 2041SOL    HW116037   0.595   5.850   0.492  0.0721  0.6560  0.7653
 2041SOL    HW216038   0.630   5.691   0.483  1.0776  0.9407 -0.5274
 2042SOL     OW16039   4.497   9.256   2.338 -0.3475 -0.7417 -0.0777
 2042SOL    HW116040   4.419   9.200   2.367  0.4471 -1.9037 -0.1713
 2042SOL    HW216041   4.577   9.232   2.393 -0.0577  0.4665  0.0289
 2043SOL     OW16042   1.903   3.023   0.551 -0.7007  0.5726  0.2786
 2043SOL    HW116043   1.894   2.946   0.488  0.2518  0.6625  0.0338
 2043SOL    HW216044   1.936   2.991   0.639 -0.2361  0.7042  0.1555
 2044SOL     OW16045   3.302   1.831   0.921  0.6043 -0.1404  0.2817
 2044SOL    HW116046   3.299   1.930   0.938  0.5309 -0.1640  0.4047
 2044SOL    HW216047   3.331   1.784   1.005  0.1913 -0.2630  0.3531
 2045SOL     OW16048   1.567   4.391   2.110 -0.0121  0.6037  0.5530
 2045SOL    HW116049   1.474   4.356   2.119  0.9539 -2.1016  0.3334
 2045SOL    HW216050   1.573   4.450   2.030 -1.3113  0.0334  0.0231
 2046SOL     OW16051   3.530   9.572   1.254 -0.8082  0.6861 -0.2619
 2046SOL    HW116052   3.458   9.571   1.185  0.1410 -1.4659 -1.2593
 2046SOL    HW216053   3.617   9.547   1.212 -0.4872 -2.3033  1.9919
 2047SOL     OW16054   2.221   3.726   1.845 -0.4042 -0.2696 -0.2165
 2047SOL    HW116055   2.152   3.713   1.917  0.6092 -0.2898  0.7770
 2047SOL    HW216056   2.181   3.704   1.756 -2.0411  0.9178  0.1962
 2048SOL     OW16057   4.545   4.121   0.769 -0.4334 -0.1603  0.2961
 2048SOL    HW116058   4.549   4.060   0.848 -0.0009 -2.5603 -1.4995
 2048SOL    HW216059   4.637   4.157   0.750 -0.7775  1.4588  1.6497
 2049SOL     OW16060   4.208   4.339   2.325  0.2059 -0.2585  0.3456
 2049SOL    HW116061   4.164   4.427   2.343 -0.5066 -0.4644 -0.3646
 2049SOL    HW216062   4.224   4.328   2.227  0.7922 -0.6880  0.4816
 2050SOL     OW16063   4.395   9.748   2.189 -0.8306  0.5545  0.2284
 2050SOL    HW116064   4.454   9.674   2.221 -0.2774  1.4073  1.2611
 2050SOL    HW216065   4.324   9.712   2.130 -0.1848 -0.7076  0.2100
 2051SOL     OW16066   3.740   8.406   0.086 -0.0472  0.1645 -0.6018
 2051SOL    HW116067   3.724   8.315   0.048  2.2915  0.3022 -2.0110
 2051SOL    HW216068   3.810   8.402   0.156  0.3913  0.9473 -0.9907
 2052SOL     OW16069   3.942   8.935   0.561  0.6069 -0.3540  0.0051
 2052SOL    HW116070   3.847   8.920   0.533  0.6993 -0.2589 -0.3644
 2052SOL    HW216071   3.969   9.028   0.538  0.7779 -0.3696  0.1451
 2053SOL     OW16072   0.236   4.476   1.815 -0.1910  0.5436 -0.3705
 2053SOL    HW116073   0.230   4.557   1.872 -0.7153 -0.2293  0.6892
 2053SOL    HW216074   0.171   4.407   1.848  0.4519 -0.4144 -1.0724
 2054SOL     OW16075   5.248   2.165   1.078  0.5218 -0.6391 -0.2936
 2054SOL    HW116076   5.249   2.239   1.145 -1.4270 -0.5508 -0.3130
 2054SOL    HW216077   5.292   2.195   0.994  0.5668  0.1867  0.0219
 2055SOL     OW16078   3.442   5.742   2.227 -0.8485  0.3382  0.2195
 2055SOL    HW116079   3.478   5.648   2.230 -2.1547 -0.1533  0.8049
 2055SOL    HW216080   3.512   5.804   2.262 -0.3342 -0.5468  0.8180
 2056SOL     OW16081   3.839   2.386   1.242  0.5160  0.2064  0.5256
 2056SOL    HW116082   3.828   2.288   1.224  0.8025  0.1580  0.6088
 2056SOL    HW216083   3.843   2.401   1.340 -0.4605  0.4062  0.5414
 2057SOL     OW16084   3.463   3.039   0.481 -0.2909 -0.3657 -0.2885
 2057SOL    HW116085   3.444   3.049   0.383  0.6849 -2.2158 -0.7105
 2057SOL    HW216086   3.396   2.976   0.521  0.1890 -0.7696 -0.1075
 2058SOL     OW16087   1.474   5.927   1.287 -0.0240  0.0894  0.2340
 2058SOL    HW116088   1.505   5.923   1.382  0.3881  1.5107  0.1749
 2058SOL    HW216089   1.466   5.835   1.251 -1.1373 -0.5065  1.9554
 2059SOL     OW16090   4.667   1.792   1.526 -0.2559  0.0423 -0.3014
 2059SOL    HW116091   4.666   1.891   1.511 -0.1265  0.0895 -0.0158
 2059SOL    HW216092   4.693   1.745   1.442  1.2945  0.3454 -0.0000
 2060SOL     OW16093   2.946   7.332   0.049  0.5095  0.1660 -0.2605
 2060SOL    HW116094   2.850   7.326   0.023  0.9520  0.0349 -1.9195
 2060SOL    HW216095   3.001   7.280  -0.016  1.9481  2.2560 -0.7528
 2061SOL     OW16096   3.077   3.794   1.163 -0.9021  0.5554 -0.7377
 2061SOL    HW116097   3.176   3.784   1.155 -0.9858 -1.4014  0.2870
 2061SOL    HW216098   3.035   3.794   1.073 -0.0555  0.4471 -1.1301
 2062SOL     OW16099   2.514   1.212   0.473  0.4906 -0.0444  0.8356
 2062SOL    HW116100   2.417   1.223   0.492  0.0474 -1.5290 -0.5004
 2062SOL    HW216101   2.551   1.299   0.439 -1.6462 -0.8647 -4.0282
 2063SOL     OW16102   2.132   6.815   2.020  0.0474  0.7332  0.6154
 2063SOL    HW116103   2.209   6.797   2.082 -1.1306 -0.0889  1.8809
 2063SOL    HW216104   2.095   6.728   1.987  0.0465  1.1463 -0.4685
 2064SOL     OW16105   3.894   2.942   1.801 -0.1066  0.2602  0.4475
 2064SOL    HW116106   3.935   2.858   1.835 -0.6652 -0.0354  0.3962
 2064SOL    HW216107   3.805   2.956   1.845 -1.4952 -0.8742 -1.8899
 2065SOL     OW16108   2.842   8.188   2.124 -0.1412  0.4240  0.1154
 2065SOL    HW116109   2.850   8.265   2.187  0.0374  0.4437  0.0678
 2065SOL    HW216110   2.845   8.103   2.176 -1.9451  0.4751  0.3321
 2066SOL     OW16111   0.860   4.052   1.293  0.4057 -0.3265  0.6984
 2066SOL    HW116112   0.832   3.960   1.318 -1.9514 -0.4619 -2.0862
 2066SOL    HW216113   0.927   4.047   1.218 -0.0061  0.2077  0.2899
 2067SOL     OW16114   5.057   4.468   0.100 -0.1877 -0.2048 -0.2602
 2067SOL    HW116115   5.070   4.514   0.012 -0.6428 -1.1682 -0.8411
 2067SOL    HW216116   4.973   4.414   0.096 -0.2004 -0.2591  0.7699
 2068SOL     OW16117   1.311   4.276   1.952 -0.0335  0.4810 -0.2808
 2068SOL    HW116118   1.265   4.357   1.989  0.9848  0.4555  1.0798
 2068SOL    HW216119   1.253   4.196   1.967 -0.1921  0.6661  0.1000
 2069SOL     OW16120   4.034   5.241   1.277  0.0638 -0.1223 -0.1306
 2069SOL    HW116121   4.010   5.286   1.191 -1.0383 -1.0252 -0.3077
 2069SOL    HW216122   3.961   5.178   1.303  0.5151 -0.0516  1.3318
 2070SOL     OW16123   3.838   5.046   1.347  0.8656 -0.1506  0.4075
 2070SOL    HW116124   3.772   5.101   1.399 -0.2646 -1.7936  0.7521
 2070SOL    HW216125   3.890   4.988   1.410  0.4071 -1.1969 -0.1710
 2071SOL     OW16126   0.275   3.779   1.726  0.2254  0.1095 -0.1216
 2071SOL    HW116127   0.261   3.877   1.739 -1.6149 -0.2516  0.8549
 2071SOL    HW216128   0.232   3.750   1.641 -2.2251 -0.4124  1.2424
 2072SOL     OW16129   3.576   2.064   1.515  0.0103  0.1344  0.0698
 2072SOL    HW116130   3.592   1.982   1.569  1.4152  1.5111  1.8268
 2072SOL    HW216131   3.609   2.144   1.566 -2.0580  1.8820 -1.2246
 2073SOL     OW16132   2.178   1.544   0.328  0.5323 -0.0555 -0.6621
 2073SOL    HW116133   2.106   1.600   0.287  0.9083  2.4339  1.9289
 2073SOL    HW216134   2.144   1.505   0.415  1.1900 -1.6761 -1.1112
 2074SOL     OW16135   2.057   6.934   1.299 -0.1613 -0.2843 -0.4417
 2074SOL    HW116136   2.154   6.945   1.323  0.1567  3.6067 -3.0708
 2074SOL    HW216137   2.026   6.844   1.329  3.4475 -0.5282  3.0931
 2075SOL     OW16138   3.463   2.370   1.285  0.1966 -0.0744  0.6451
 2075SOL    HW116139   3.524   2.403   1.213 -0.8291 -0.4728 -0.4223
 2075SOL    HW216140   3.403   2.299   1.248  1.6216 -2.4175  2.6136
 2076SOL     OW16141  10.013   4.688   0.187  0.2793 -0.0803 -0.0840
 2076SOL    HW116142  10.087   4.720   0.245  0.4714 -0.1841 -0.2726
 2076SOL    HW216143  10.003   4.748   0.107  0.3495 -0.2307 -0.2074
 2077SOL     OW16144   3.710   3.687   2.237 -0.5871 -0.2993 -0.1857
 2077SOL    HW116145   3.749   3.755   2.299 -0.3555 -1.1153  0.5688
 2077SOL    HW216146   3.738   3.595   2.266 -0.2217 -0.6795 -1.6633
 2078SOL     OW16147   3.840   9.531   1.079  0.1255 -0.5779  0.5745
 2078SOL    HW116148   3.781   9.450   1.071  0.1824 -0.6731  1.1023
 2078SOL    HW216149   3.886   9.530   1.168  0.8020 -0.4215  0.2299
 2079SOL     OW16150   3.218   2.041   1.769  0.8001  0.4334 -0.3332
 2079SOL    HW116151   3.188   2.054   1.674  3.7556  1.4583 -1.1664
 2079SOL    HW216152   3.245   1.946   1.783  0.3599  0.2810 -0.5038
 2080SOL     OW16153   0.377   6.169   0.848 -0.7965  0.4270  0.6041
 2080SOL    HW116154   0.426   6.189   0.763 -0.3733 -1.1626  0.4622
 2080SOL    HW216155   0.319   6.088   0.835  0.8372 -1.0675  2.4229
 2081SOL     OW16156   3.011   4.850   0.021  0.6979  0.3213  0.6454
 2081SOL    HW116157   3.084   4.814  -0.038  2.0884 -1.9944  3.6627
 2081SOL    HW216158   2.944   4.899  -0.035  2.7212 -0.5343 -2.6455
 2082SOL     OW16159   3.134   6.325   0.039  0.1691 -0.9303 -0.2749
 2082SOL    HW116160   3.154   6.423   0.048 -2.3330 -0.6074  2.5168
 2082SOL    HW216161   3.206   6.272   0.084  1.0603 -0.3335 -0.9882
 2083SOL     OW16162   4.195  10.090   2.469 -0.1270 -0.1704  0.0356
 2083SOL    HW116163   4.122  10.058   2.408 -1.9855 -0.1315  2.1688
 2083SOL    HW216164   4.271  10.124   2.414 -1.6260 -0.3694 -2.2582
 2084SOL     OW16165   4.281   5.259   0.314 -0.5963  0.2789  0.1560
 2084SOL    HW116166   4.218   5.205   0.259 -0.1844  0.7152 -0.7502
 2084SOL    HW216167   4.363   5.205   0.334 -0.2535  0.5119 -0.6171
 2085SOL     OW16168   4.531   3.824   1.787 -0.2775  0.2134 -0.1127
 2085SOL    HW116169   4.476   3.812   1.870  0.3047 -1.4980  0.0407
 2085SOL    HW216170   4.487   3.893   1.729  0.4691  3.0761  2.5615
 2086SOL     OW16171   4.958   3.662  -0.010  0.0842 -0.4129  0.0713
 2086SOL    HW116172   4.950   3.571   0.031  0.9304 -0.7490 -0.4802
 2086SOL    HW216173   5.001   3.654  -0.100  0.3259  0.5459  0.0947
 2087SOL     OW16174   3.809   4.219   1.043  0.0003  0.2176  0.2533
 2087SOL    HW116175   3.728   4.161   1.054  0.6699 -0.5103  1.5931
 2087SOL    HW216176   3.833   4.259   1.132  2.6213 -1.6658  0.4768
 2088SOL     OW16177   3.228   0.967   2.424 -0.7700 -0.3675 -0.0765
 2088SOL    HW116178   3.163   1.015   2.484  0.0231 -0.3612  0.7800
 2088SOL    HW216179   3.319   1.006   2.436 -0.6674 -0.1481 -1.5431
 2089SOL     OW16180   3.405   2.597   0.762 -0.0667 -0.1504 -0.0841
 2089SOL    HW116181   3.458   2.535   0.820 -0.4407 -0.5247 -0.1427
 2089SOL    HW216182   3.338   2.646   0.818  0.1953  0.1638 -0.0461
 2090SOL     OW16183   3.261   8.064   2.553 -0.1999 -0.4960  0.0844
 2090SOL    HW116184   3.311   7.977   2.553 -1.5402 -1.2940 -2.5088
 2090SOL    HW216185   3.290   8.119   2.475 -0.6023  0.6929  0.7603
 2091SOL     OW16186   3.280   4.883   0.890  0.2318 -0.3477  0.2424
 2091SOL    HW116187   3.243   4.975   0.877  2.3042  0.6154  0.8683
 2091SOL    HW216188   3.228   4.836   0.961 -1.7200 -0.1881 -1.0383
 2092SOL     OW16189   4.212   4.944   0.351 -0.0103  0.6257  0.0026
 2092SOL    HW116190   4.145   4.965   0.280  0.1599  1.2131  0.0109
 2092SOL    HW216191   4.195   5.000   0.432  1.0593  1.4753 -0.3419
 2093SOL     OW16192   2.251   6.424   1.597 -0.0249  0.0440  0.4457
 2093SOL    HW116193   2.290   6.461   1.513  1.9948  1.8540  2.1366
 2093SOL    HW216194   2.285   6.331   1.611  0.2218  0.0134 -0.3243
 2094SOL     OW16195   4.515   2.013   1.858  0.2165 -0.1018  0.5106
 2094SOL    HW116196   4.575   1.962   1.920  0.9517 -0.5877 -0.5766
 2094SOL    HW216197   4.423   1.975   1.863  0.8460 -1.8629 -0.6069
 2095SOL     OW16198   5.029   3.112   0.607  0.5384  0.0749  0.2443
 2095SOL    HW116199   5.093   3.105   0.530  0.0458  1.5465 -0.3178
 2095SOL    HW216200   4.936   3.104   0.573  0.3235  0.5941  0.6939
 2096SOL     OW16201   0.184   4.931   0.850  0.3198  0.1957  0.1294
 2096SOL    HW116202   0.282   4.935   0.870  0.6904  0.2478 -1.5923
 2096SOL    HW216203   0.170   4.879   0.766 -1.1369  0.2249  0.3478
 2097SOL     OW16204   2.611   6.881   0.544 -0.0020 -0.0341 -0.3455
 2097SOL    HW116205   2.659   6.895   0.630 -1.0634  1.1522  0.0759
 2097SOL    HW216206   2.551   6.801   0.551 -0.6397  0.4910  0.2781
 2098SOL     OW16207   0.340   4.542   1.363 -0.0129  0.3776 -0.2230
 2098SOL    HW116208   0.365   4.632   1.327 -0.8327  1.3219  1.5053
 2098SOL    HW216209   0.420   4.498   1.403 -0.1598  1.4663  1.2798
 2099SOL     OW16210   3.482   3.844   0.446  0.2058  0.2201  0.2353
 2099SOL    HW116211   3.466   3.781   0.522 -0.4863  0.4521  0.2864
 2099SOL    HW216212   3.565   3.897   0.464  0.4411 -0.2326  0.4860
 2100SOL     OW16213   3.390   8.461   1.213 -0.0781 -0.4136 -0.4974
 2100SOL    HW116214   3.322   8.508   1.156 -0.6521 -1.7361 -0.9070
 2100SOL    HW216215   3.464   8.525   1.235 -1.2871  0.9333 -0.3162
 2101SOL     OW16216   4.397   4.142   1.880 -0.2334 -0.0382  0.4126
 2101SOL    HW116217   4.471   4.105   1.937  0.6089 -2.6798 -2.3093
 2101SOL    HW216218   4.435   4.209   1.817 -0.7713  1.1031  1.2827
 2102SOL     OW16219   2.971   4.908   1.027 -0.3683  0.0668 -0.2019
 2102SOL    HW116220   2.873   4.892   1.033 -0.2865 -0.1743  0.4468
 2102SOL    HW216221   3.017   4.871   1.107  0.6280 -2.6341 -1.9503
 2103SOL     OW16222   3.345   1.498   1.531  0.9633 -0.7278  0.0801
 2103SOL    HW116223   3.373   1.526   1.439  0.1861  0.1020  0.0851
 2103SOL    HW216224   3.425   1.475   1.585  1.6707  1.6831  0.1232
 2104SOL     OW16225   3.185   3.311   0.575  0.1309 -0.5542  0.3056
 2104SOL    HW116226   3.143   3.375   0.640  3.0503  0.7675  0.9777
 2104SOL    HW216227   3.227   3.236   0.625  1.0605 -0.3425 -0.1564
 2105SOL     OW16228   2.154   5.518   0.560 -0.0114  0.0088  0.8768
 2105SOL    HW116229   2.133   5.587   0.490 -0.5509  0.3899  1.4035
 2105SOL    HW216230   2.201   5.562   0.636 -0.6007 -0.1436  1.3383
 2106SOL     OW16231   1.672   6.782   2.435 -0.5214 -0.3162  0.4152
 2106SOL    HW116232   1.727   6.809   2.356  0.2609 -0.5435  0.8788
 2106SOL    HW216233   1.678   6.683   2.448 -0.5834 -0.2686  0.8127
 2107SOL     OW16234   0.971   6.311   0.123  0.3868 -0.3213  0.4170
 2107SOL    HW116235   0.954   6.356   0.211 -1.6318  0.8096 -0.5213
 2107SOL    HW216236   0.885   6.277   0.086  1.4968 -2.5140 -0.2331
 2108SOL     OW16237   9.931   5.876   2.194 -0.2962 -0.0984  0.4583
 2108SOL    HW116238  10.024   5.912   2.193 -0.2866 -0.1226 -0.1951
 2108SOL    HW216239   9.931   5.785   2.236  0.4721 -1.3450 -2.1009
 2109SOL     OW16240   2.890   5.011   2.445 -0.6109 -0.0126  0.1841
 2109SOL    HW116241   2.805   5.063   2.455  0.3951  1.3775  1.9067
 2109SOL    HW216242   2.964   5.072   2.416  0.2779 -0.7584  0.8218
 2110SOL     OW16243   0.840   6.165   0.582  0.3321  0.0381 -0.5730
 2110SOL    HW116244   0.792   6.077   0.581  1.3432 -0.5293 -2.4649
 2110SOL    HW216245   0.874   6.184   0.674 -0.7632 -1.0553  0.0730
 2111SOL     OW16246   2.030   2.850   2.393  0.8949  0.5495  0.1037
 2111SOL    HW116247   2.032   2.904   2.477 -1.0865  1.6308 -0.5187
 2111SOL    HW216248   2.035   2.912   2.314 -0.1302 -0.2626 -0.6004
 2112SOL     OW16249   3.266   2.711   1.847  0.8535 -0.0515 -0.3833
 2112SOL    HW116250   3.363   2.691   1.858  1.2094  1.0137 -1.4865
 2112SOL    HW216251   3.228   2.653   1.775  0.7874 -0.0746 -0.3305
 2113SOL     OW16252   2.723   9.597   1.799 -0.0405 -0.2236 -0.3685
 2113SOL    HW116253   2.624   9.604   1.804 -0.0521 -0.7922  0.2262
 2113SOL    HW216254   2.759   9.571   1.889  0.8470  2.4578  0.0918
 2114SOL     OW16255   2.410   5.792   0.337  0.9379 -0.6061 -0.1256
 2114SOL    HW116256   2.458   5.768   0.253  0.6921 -0.1518 -0.3964
 2114SOL    HW216257   2.318   5.825   0.315  0.5152 -1.4124  0.3846
 2115SOL     OW16258   9.997   5.012   0.308 -0.1364  0.2495 -0.1665
 2115SOL    HW116259   9.972   4.969   0.221 -1.0474  1.0785 -0.3261
 2115SOL    HW216260   9.938   4.976   0.381 -0.2433  0.5070 -0.1263
 2116SOL     OW16261   4.541   1.911   2.439  0.7297  0.1072 -0.2700
 2116SOL    HW116262   4.636   1.931   2.412  0.4869  1.7087 -0.0240
 2116SOL    HW216263   4.527   1.943   2.533  0.3278 -1.4057  0.2030
 2117SOL     OW16264   4.759   5.014   1.670 -0.6393  0.6064 -0.1468
 2117SOL    HW116265   4.755   5.097   1.614 -0.3084  1.2667  0.7896
 2117SOL    HW216266   4.847   4.969   1.656 -1.0579  0.0780 -1.1177
 2118SOL     OW16267   4.813   1.973   2.581  0.2916  0.8901  0.0877
 2118SOL    HW116268   4.839   1.901   2.517 -0.7699  0.7844 -0.2350
 2118SOL    HW216269   4.836   1.945   2.674  0.4743  0.4086 -0.1036
 2119SOL     OW16270   3.277   0.449   0.368 -0.0401  0.1151 -0.3870
 2119SOL    HW116271   3.339   0.373   0.388 -1.3792 -0.9551 -0.2474
 2119SOL    HW216272   3.246   0.489   0.455 -1.2017 -0.7278 -0.3968
 2120SOL     OW16273  10.121   4.432   2.493 -0.3501 -0.3418  0.1197
 2120SOL    HW116274  10.086   4.434   2.587 -0.1731 -2.5160  0.2513
 2120SOL    HW216275  10.218   4.410   2.495 -0.8057 -2.5541 -0.6547
 2121SOL     OW16276   3.768   4.392   2.143  0.0312  0.0567  0.1285
 2121SOL    HW116277   3.722   4.342   2.217  0.7240  0.7659  1.0438
 2121SOL    HW216278   3.781   4.488   2.170  1.5711 -0.0078 -0.3340
 2122SOL     OW16279   1.950   3.626   0.560 -0.0000 -0.6026  0.1521
 2122SOL    HW116280   1.942   3.706   0.618 -0.8036 -0.4416 -0.1790
 2122SOL    HW216281   1.870   3.567   0.572  1.1076 -1.9116  1.2282
 2123SOL     OW16282   4.202   3.121   2.541 -0.1432 -0.9765  0.1051
 2123SOL    HW116283   4.183   3.035   2.495  0.1955 -0.1170 -1.6880
 2123SOL    HW216284   4.296   3.150   2.521 -1.1378  1.2044 -1.6573
 2124SOL     OW16285   1.085   5.673   1.423 -0.3317  0.0829 -0.4346
 2124SOL    HW116286   1.019   5.748   1.420  1.5086  1.7085 -0.6869
 2124SOL    HW216287   1.140   5.680   1.506  0.1357 -0.7495 -0.6702
 2125SOL     OW16288   2.687   3.535   0.574 -0.0486  0.1917 -0.3122
 2125SOL    HW116289   2.781   3.501   0.567 -0.7157 -2.4730  2.3751
 2125SOL    HW216290   2.625   3.468   0.534 -1.1211 -0.1642  1.8698
 2126SOL     OW16291   3.988   1.758   2.299  0.4116 -0.2191  0.0169
 2126SOL    HW116292   4.028   1.756   2.391 -1.5246 -0.7073  0.8724
 2126SOL    HW216293   4.047   1.811   2.238  0.9913  1.3416  1.8949
 2127SOL     OW16294   2.877   6.865   1.978  0.6229  0.3897 -0.1296
 2127SOL    HW116295   2.804   6.901   2.037  0.6175 -0.4861  0.4035
 2127SOL    HW216296   2.960   6.854   2.031  0.9969  0.8654 -0.6123
 2128SOL     OW16297   3.214   1.891   0.680  0.2140 -0.3106 -0.1274
 2128SOL    HW116298   3.298   1.924   0.636  0.0519 -0.9105 -0.8915
 2128SOL    HW216299   3.234   1.868   0.776  1.1498 -1.3278 -0.5470
 2129SOL     OW16300   2.404   4.888   0.836 -0.2990  0.0937  0.2795
 2129SOL    HW116301   2.403   4.809   0.897  0.1450 -0.2514 -0.1533
 2129SOL    HW216302   2.494   4.896   0.794 -0.4396  0.6452  0.0769
 2130SOL     OW16303   3.663   3.486   0.562 -0.1619 -0.2465  0.3104
 2130SOL    HW116304   3.581   3.472   0.618 -0.3242 -1.8617 -0.3162
 2130SOL    HW216305   3.719   3.404   0.563 -0.1302 -0.2984 -1.8288
 2131SOL     OW16306   3.901   9.294   1.839  0.6364 -0.4246 -0.1138
 2131SOL    HW116307   3.966   9.293   1.915  0.7327  1.5374 -0.1510
 2131SOL    HW216308   3.940   9.243   1.762  1.6727 -0.1738  0.2319
 2132SOL     OW16309   3.508   4.153   1.431  0.2300  0.9680  0.9114
 2132SOL    HW116310   3.532   4.245   1.463 -0.5239  1.8494 -1.0107
 2132SOL    HW216311   3.588   4.093   1.441  0.6540  1.7374  2.4122
 2133SOL     OW16312   3.224   0.254   0.106  0.8929  0.6377 -0.1050
 2133SOL    HW116313   3.265   0.338   0.143  1.8738  0.4702 -0.8183
 2133SOL    HW216314   3.295   0.188   0.085  0.2424  0.2298 -1.0745
 2134SOL     OW16315   2.707   1.050   2.156 -0.4180 -0.1571 -0.1094
 2134SOL    HW116316   2.719   1.134   2.210 -0.4268 -0.4467  0.3435
 2134SOL    HW216317   2.714   0.971   2.216  0.0523 -0.5031 -0.6132
 2135SOL     OW16318   3.143   5.722   0.849 -0.6900  0.2398 -0.4366
 2135SOL    HW116319   3.219   5.753   0.907 -0.0192 -1.7258 -0.2343
 2135SOL    HW216320   3.120   5.628   0.872 -0.8705 -0.3408 -2.9156
 2136SOL     OW16321   1.229   4.466   0.614 -0.6135  0.0270  0.0940
 2136SOL    HW116322   1.214   4.369   0.599  0.3364 -0.1037 -0.0819
 2136SOL    HW216323   1.293   4.501   0.545  0.6956  0.3032  1.4016
 2137SOL     OW16324   4.064   5.279   1.916 -0.6429 -0.1211 -0.1250
 2137SOL    HW116325   4.084   5.365   1.870 -0.1159  0.7654  1.7081
 2137SOL    HW216326   4.150   5.235   1.942 -0.9374 -0.5420  0.1438
 2138SOL     OW16327   4.644   3.359   0.550 -0.4812 -0.2443  0.0772
 2138SOL    HW116328   4.602   3.339   0.462  1.5757 -0.2301 -0.9474
 2138SOL    HW216329   4.676   3.454   0.551 -0.9456 -0.0934  1.0274
 2139SOL     OW16330  10.150   4.102   1.068 -0.4467 -0.0385  0.3245
 2139SOL    HW116331  10.064   4.116   1.019 -1.0651 -0.2535  1.3524
 2139SOL    HW216332  10.133   4.099   1.166  0.7047 -0.3260  0.5212
 2140SOL     OW16333   2.808   6.156   1.737 -0.3604 -0.1576  0.1844
 2140SOL    HW116334   2.810   6.091   1.661 -2.1874 -1.8331  1.5157
 2140SOL    HW216335   2.716   6.194   1.747  0.0041  0.4824  1.1998
 2141SOL     OW16336   2.400   4.246   0.558  0.4096 -0.5085 -0.2475
 2141SOL    HW116337   2.356   4.289   0.637  1.1023 -0.4953  0.1357
 2141SOL    HW216338   2.453   4.167   0.589 -0.4793 -1.3630 -0.8894
 2142SOL     OW16339   3.767   8.739   0.225  0.1304  0.2090 -0.5509
 2142SOL    HW116340   3.692   8.673   0.228 -0.8220  1.2736 -0.7364
 2142SOL    HW216341   3.753   8.802   0.149  0.5456  1.1882  0.1747
 2143SOL     OW16342   0.225   5.354  -0.031  0.2219 -0.0488  0.4890
 2143SOL    HW116343   0.306   5.340   0.025  0.1015 -2.7816  0.0476
 2143SOL    HW216344   0.143   5.331   0.022 -0.2322  1.9868  0.6972
 2144SOL     OW16345   3.379   1.978   2.056 -0.0654  0.7139  0.0784
 2144SOL    HW116346   3.400   2.075   2.045  1.9390  0.3149  0.2447
 2144SOL    HW216347   3.379   1.933   1.967 -0.6878  0.7994  0.0331
 2145SOL     OW16348   4.217   1.937   2.577  0.0541  0.0057  0.2510
 2145SOL    HW116349   4.302   1.984   2.553  0.1812 -0.8005 -0.9349
 2145SOL    HW216350   4.206   1.936   2.677  0.6403  1.4812  0.3427
 2146SOL     OW16351   1.980   6.031   0.398 -0.3508  0.4845 -0.3430
 2146SOL    HW116352   1.973   5.968   0.475  2.1134  0.8235  0.2135
 2146SOL    HW216353   2.010   5.982   0.316  0.6778  0.7405 -0.1335
 2147SOL     OW16354   3.561   3.350   2.581 -0.0804  0.2121  0.3566
 2147SOL    HW116355   3.654   3.358   2.616 -0.2591 -0.6390  1.0462
 2147SOL    HW216356   3.496   3.371   2.654 -0.4378 -0.4338  0.2310
 2148SOL     OW16357   3.961  10.103   1.198 -0.1407  0.3396 -0.4568
 2148SOL    HW116358   3.895  10.029   1.203 -0.5528  0.6524 -1.1708
 2148SOL    HW216359   3.966  10.137   1.104  1.2139  0.1535 -0.4604
 2149SOL     OW16360   4.452   3.771   0.233 -0.3299 -0.0103 -0.2587
 2149SOL    HW116361   4.407   3.859   0.220 -1.4382 -0.5346 -0.0178
 2149SOL    HW216362   4.551   3.783   0.227 -0.4084  1.4733  0.9533
 2150SOL     OW16363   4.693   3.906   0.239  0.0923  0.5210  0.4228
 2150SOL    HW116364   4.697   4.006   0.250 -2.3961  0.5193  1.7143
 2150SOL    HW216365   4.777   3.866   0.274  2.2323  2.3190 -2.4343
 2151SOL     OW16366   3.649   2.806   0.802  0.2167 -0.0972  0.0521
 2151SOL    HW116367   3.592   2.733   0.839 -0.4407  0.2929 -0.1845
 2151SOL    HW216368   3.598   2.892   0.804  0.6153  0.1569 -0.6294
 2152SOL     OW16369   3.933   9.603   0.162  0.5022 -0.3564 -0.5990
 2152SOL    HW116370   3.904   9.574   0.253  0.0151 -0.4900 -0.7931
 2152SOL    HW216371   4.025   9.568   0.143  0.2311 -1.1054 -0.5239
 2153SOL     OW16372   4.596   3.530   0.041  0.3892  0.4569  0.1142
 2153SOL    HW116373   4.540   3.529   0.123  2.2098 -0.5877  1.3789
 2153SOL    HW216374   4.537   3.536  -0.040 -1.4973 -0.1447  1.4275
 2154SOL     OW16375   2.229   6.862   0.662 -0.3947 -0.2760  0.1427
 2154SOL    HW116376   2.156   6.923   0.694 -1.0305 -1.3461  0.7528
 2154SOL    HW216377   2.304   6.917   0.627 -0.1273  0.9296  2.4983
 2155SOL     OW16378   2.534   8.339   0.289  0.5203 -0.4862 -1.0067
 2155SOL    HW116379   2.530   8.239   0.286 -0.4952 -0.4698 -0.3249
 2155SOL    HW216380   2.484   8.373   0.368  1.7640  0.5249 -0.6240
 2156SOL     OW16381   4.609   5.194   0.035  0.2330 -0.0112 -0.0369
 2156SOL    HW116382   4.580   5.210  -0.059 -1.1891 -0.4353  0.3174
 2156SOL    HW216383   4.555   5.121   0.075  0.5731  0.4156  1.2318
 2157SOL     OW16384   2.660   9.651   0.595  0.5602 -0.2286 -0.2378
 2157SOL    HW116385   2.658   9.751   0.603 -1.6321 -0.1280 -1.6420
 2157SOL    HW216386   2.679   9.626   0.500  1.2519 -1.1722  0.1398
 2158SOL     OW16387   1.074   4.021   1.090  0.0301  0.3452  0.0410
 2158SOL    HW116388   1.073   4.093   1.020 -0.6027  1.6166  1.3270
 2158SOL    HW216389   1.151   3.959   1.073 -0.6165  0.1360 -2.2581
 2159SOL     OW16390   2.790   3.149   1.053 -0.1023 -0.2871 -0.3854
 2159SOL    HW116391   2.731   3.090   0.998 -0.1458  0.3057 -0.9807
 2159SOL    HW216392   2.813   3.231   1.001  2.0149 -0.9377 -0.5244
 2160SOL     OW16393   2.622   4.501   1.888 -0.0691  0.1167  0.7135
 2160SOL    HW116394   2.596   4.465   1.798  0.2364 -0.4775  0.8620
 2160SOL    HW216395   2.547   4.484   1.953  0.4789 -1.1689  1.0261
 2161SOL     OW16396   4.698   2.479   0.336  0.2337 -0.3044  0.4613
 2161SOL    HW116397   4.677   2.413   0.264 -0.1480 -0.7184  0.9444
 2161SOL    HW216398   4.625   2.548   0.341  0.9103  0.4700 -0.4096
 2162SOL     OW16399   1.678   5.056   1.926  0.1107  0.2742 -0.4646
 2162SOL    HW116400   1.770   5.019   1.938 -0.6857 -0.9898  1.9382
 2162SOL    HW216401   1.638   5.017   1.843  1.6365  0.6616 -1.4035
 2163SOL     OW16402   4.443   1.506   1.886  0.0606 -0.1705  0.2346
 2163SOL    HW116403   4.503   1.427   1.873  0.2602  0.1062 -0.5247
 2163SOL    HW216404   4.362   1.478   1.937  0.8045 -0.5606  1.2211
 2164SOL     OW16405   1.604   3.976   0.831 -0.1886 -0.1052 -0.0042
 2164SOL    HW116406   1.652   3.904   0.881 -0.6623  0.4344  1.2459
 2164SOL    HW216407   1.655   3.999   0.748  0.5670 -1.0668  0.1912
 2165SOL     OW16408   0.867   6.009   2.144 -0.1349  0.5147  0.5577
 2165SOL    HW116409   0.863   6.105   2.171 -0.2652  0.4363  0.8182
 2165SOL    HW216410   0.812   5.995   2.061  0.0330  0.6988  0.4148
 2166SOL     OW16411   3.107   1.170   0.518  0.2105  0.1206  0.3258
 2166SOL    HW116412   3.020   1.122   0.508 -0.3083  0.8408  1.3480
 2166SOL    HW216413   3.095   1.267   0.499  1.1179 -0.0326 -1.0519
 2167SOL     OW16414   3.654   8.108   0.331 -0.4355 -0.2124  0.3436
 2167SOL    HW116415   3.730   8.118   0.266  0.0955 -0.9709  0.8422
 2167SOL    HW216416   3.596   8.189   0.326  0.8081  0.7094  0.4673
 2168SOL     OW16417   1.831   6.412   0.654  0.0173  0.2152  0.1669
 2168SOL    HW116418   1.838   6.376   0.562  0.4201  0.6636  0.0166
 2168SOL    HW216419   1.823   6.512   0.650 -0.2892  0.2085  0.5997
 2169SOL     OW16420   2.727   2.655   0.218 -0.1534  0.0849  0.1673
 2169SOL    HW116421   2.663   2.677   0.291 -0.2100  2.3585 -0.5258
 2169SOL    HW216422   2.806   2.606   0.256 -1.3487 -0.9831  1.3266
 2170SOL     OW16423   4.003   2.661   0.908 -0.1217 -0.5669  0.3912
 2170SOL    HW116424   4.087   2.616   0.878 -1.4287 -3.4947  0.9009
 2170SOL    HW216425   3.991   2.746   0.857  2.0254 -1.1829 -1.2313
 2171SOL     OW16426   4.761   4.563   2.385 -0.5414 -0.6385 -0.2844
 2171SOL    HW116427   4.760   4.575   2.286 -1.2303 -1.8118 -0.4338
 2171SOL    HW216428   4.817   4.484   2.409 -1.4271 -1.1492  0.1524
 2172SOL     OW16429   0.184   4.531   2.240 -0.3983  0.0261  0.0713
 2172SOL    HW116430   0.092   4.544   2.203 -0.6459  0.9060  0.9779
 2172SOL    HW216431   0.178   4.514   2.338  0.3008 -1.5590 -0.1530
 2173SOL     OW16432   3.771   1.445   0.694 -0.1227  0.1677  0.7262
 2173SOL    HW116433   3.719   1.408   0.771 -0.6881  0.4993  0.5001
 2173SOL    HW216434   3.823   1.525   0.725 -1.6709  1.3332  0.3664
 2174SOL     OW16435   3.565   3.678   0.249  0.6746 -0.1463  0.5606
 2174SOL    HW116436   3.512   3.747   0.299  1.9883  0.7439  0.7317
 2174SOL    HW216437   3.535   3.586   0.278 -0.9761  0.3296  0.4331
 2175SOL     OW16438   2.663   1.872   0.661 -0.6210 -0.8411  0.2156
 2175SOL    HW116439   2.595   1.841   0.728 -0.3353 -0.9756  0.4467
 2175SOL    HW216440   2.749   1.823   0.676 -0.7195 -1.2846 -0.6123
 2176SOL     OW16441   2.926   9.318   1.557 -0.0940  0.0486 -0.5090
 2176SOL    HW116442   2.981   9.241   1.524  0.8279 -0.3137  1.7147
 2176SOL    HW216443   2.947   9.400   1.503  1.3617 -0.5006 -0.8096
 2177SOL     OW16444   3.706   4.003   1.518  0.1163 -0.2061  0.1088
 2177SOL    HW116445   3.685   3.924   1.576  1.2532  0.0119  0.8531
 2177SOL    HW216446   3.752   4.073   1.573  0.9236  0.1433 -0.9789
 2178SOL     OW16447   4.149   3.791   1.663  0.0195 -0.2672  0.0763
 2178SOL    HW116448   4.187   3.699   1.678  0.2672 -0.0824  0.5885
 2178SOL    HW216449   4.086   3.788   1.586 -1.6170 -1.3527  1.4120
 2179SOL     OW16450   3.011   8.096   1.209 -0.0175  1.0475 -0.7164
 2179SOL    HW116451   3.044   8.112   1.116 -1.9548 -0.4013 -1.6859
 2179SOL    HW216452   2.920   8.137   1.220 -0.4729 -0.1262  0.0244
 2180SOL     OW16453   0.859   5.635   1.985  0.9138 -0.0767  0.1327
 2180SOL    HW116454   0.773   5.585   1.978  0.9756 -0.0081 -1.3132
 2180SOL    HW216455   0.871   5.668   2.078 -0.6902  0.0322  0.3201
 2181SOL     OW16456   0.989   5.622   2.471 -0.6901 -0.3972  0.7510
 2181SOL    HW116457   1.014   5.529   2.444 -0.4155 -0.2611  0.5401
 2181SOL    HW216458   0.938   5.619   2.557  0.2652 -0.6428  1.3078
 2182SOL     OW16459   2.147   5.918   2.150  0.2245  0.4076 -0.2882
 2182SOL    HW116460   2.204   5.979   2.205  0.1094  0.0190  0.2747
 2182SOL    HW216461   2.095   5.971   2.083 -0.0726  0.9542  0.3682
 2183SOL     OW16462   2.581   5.890   1.999 -0.1314  0.2128 -0.5169
 2183SOL    HW116463   2.573   5.860   1.904 -0.1872  1.0324 -0.7768
 2183SOL    HW216464   2.509   5.847   2.054 -1.1740  1.0439 -1.1880
 2184SOL     OW16465   4.772   3.385   2.483  0.0436  0.7720 -0.3362
 2184SOL    HW116466   4.692   3.439   2.509  0.3837 -0.0493  2.6136
 2184SOL    HW216467   4.853   3.423   2.527  0.8039 -0.2164 -0.8636
 2185SOL     OW16468   3.606   5.141   2.529  0.2294 -0.7737 -0.1348
 2185SOL    HW116469   3.642   5.186   2.448 -1.4207  2.6605  0.9781
 2185SOL    HW216470   3.513   5.108   2.511  0.5351 -1.6499 -0.1711
 2186SOL     OW16471   1.974   2.521   1.189  0.0968  0.5438  0.4254
 2186SOL    HW116472   1.962   2.576   1.272 -0.9346  1.0135 -0.0297
 2186SOL    HW216473   1.961   2.424   1.210 -3.1172  0.8957  0.2494
 2187SOL     OW16474   1.517   3.259   2.472 -0.4673 -0.4483  0.0336
 2187SOL    HW116475   1.475   3.331   2.417 -0.1009 -0.7859 -0.6802
 2187SOL    HW216476   1.523   3.290   2.567  1.6615  1.3463 -0.6356
 2188SOL     OW16477  10.159   4.941   2.235 -0.2646 -0.3533 -0.9465
 2188SOL    HW116478  10.258   4.931   2.245 -0.1843 -0.2733 -1.6602
 2188SOL    HW216479  10.135   4.941   2.138 -0.8885  0.3950 -0.7968
 2189SOL     OW16480   2.517   3.957   1.862  0.0546 -0.3651 -0.5041
 2189SOL    HW116481   2.566   4.000   1.938 -0.5987 -0.8492  0.1909
 2189SOL    HW216482   2.516   3.858   1.875  0.4537 -0.5009 -1.4497
 2190SOL     OW16483   2.627   7.212   2.102  0.1277 -0.2447  0.8878
 2190SOL    HW116484   2.599   7.124   2.063 -0.1213  0.2176  0.0184
 2190SOL    HW216485   2.591   7.286   2.046  0.8392  0.4051  1.2835
 2191SOL     OW16486   2.679   4.042   2.057  0.1501 -0.1268  0.4906
 2191SOL    HW116487   2.684   4.133   2.099  1.7355 -0.2595  0.6124
 2191SOL    HW216488   2.737   3.979   2.108 -0.4632 -1.0732  0.0319
 2192SOL     OW16489   0.169   4.629   0.911  0.1598  0.1750  0.7958
 2192SOL    HW116490   0.156   4.683   0.828  1.7268 -0.2584  0.2638
 2192SOL    HW216491   0.141   4.684   0.990  1.0899  1.5314  0.2104
 2193SOL     OW16492   3.901   9.536   1.539 -0.4881  0.2700 -0.3862
 2193SOL    HW116493   3.802   9.530   1.526 -0.7163  1.5119  0.6606
 2193SOL    HW216494   3.923   9.517   1.635  0.3299 -0.4155 -0.7039
 2194SOL     OW16495   4.812   3.840   1.774  0.6659 -0.2341 -0.4427
 2194SOL    HW116496   4.715   3.855   1.755  1.0098  0.6443 -1.5421
 2194SOL    HW216497   4.838   3.889   1.857  0.3206  0.0730 -0.5148
 2195SOL     OW16498   1.228   5.672   0.413 -0.0477 -0.0192 -0.0371
 2195SOL    HW116499   1.229   5.575   0.437 -0.0193  0.0268  0.1495
 2195SOL    HW216500   1.321   5.705   0.405 -0.0232  0.4576  1.8046
 2196SOL     OW16501   3.576   8.655   1.227  0.6591 -0.1034 -0.0357
 2196SOL    HW116502   3.601   8.730   1.166 -1.3542  2.2045  1.8773
 2196SOL    HW216503   3.620   8.668   1.316 -1.9937  0.4385  1.2423
 2197SOL     OW16504   5.133   2.799   2.210  0.0368  0.0146  0.1375
 2197SOL    HW116505   5.079   2.816   2.128 -0.8479 -0.3586  0.6296
 2197SOL    HW216506   5.100   2.857   2.285  0.7011  0.2048  0.2897
 2198SOL     OW16507   3.776   3.791   0.122  0.0009 -0.1144 -0.4866
 2198SOL    HW116508   3.745   3.882   0.098 -0.7510 -0.3636 -0.4787
 2198SOL    HW216509   3.701   3.741   0.166  0.7107 -0.3847  0.4370
 2199SOL     OW16510   1.043   4.026   2.037 -0.0842  0.2242  0.0706
 2199SOL    HW116511   1.119   3.998   2.097  1.5125  1.7027 -1.2172
 2199SOL    HW216512   1.025   4.124   2.051 -0.7111  0.2262 -0.7600
 2200SOL     OW16513   0.573   3.818   1.158  0.0617  0.4374  0.0297
 2200SOL    HW116514   0.625   3.893   1.118 -0.7392  0.1975 -1.4717
 2200SOL    HW216515   0.623   3.732   1.145  1.1190  0.7319  2.0068
 2201SOL     OW16516   2.537   4.887   2.322  0.0025 -0.5839  0.3000
 2201SOL    HW116517   2.625   4.842   2.306 -0.4245 -1.2286 -0.2531
 2201SOL    HW216518   2.467   4.818   2.340 -0.9787 -0.2381 -2.0956
 2202SOL     OW16519   3.467   3.900   1.887 -0.8978  0.7181  0.2076
 2202SOL    HW116520   3.406   3.822   1.870  0.1303  0.3842 -2.1701
 2202SOL    HW216521   3.424   3.984   1.855 -0.5121  0.6111 -0.6042
 2203SOL     OW16522   3.108   2.332   2.547  0.0179 -0.1416  0.1131
 2203SOL    HW116523   3.093   2.356   2.643 -0.1295  0.6952 -0.1148
 2203SOL    HW216524   3.056   2.395   2.489  0.2288 -0.5521 -0.5176
 2204SOL     OW16525   2.846   4.598   1.996  0.0415  0.3260 -0.0226
 2204SOL    HW116526   2.764   4.550   1.964  0.2313 -0.2675  0.3696
 2204SOL    HW216527   2.832   4.697   1.991 -1.3466  0.2248  1.7432
 2205SOL     OW16528   3.430   7.584   0.197 -0.2427  0.5930 -0.8723
 2205SOL    HW116529   3.452   7.594   0.295  1.0748  2.3536 -1.3133
 2205SOL    HW216530   3.334   7.606   0.182 -0.6447 -0.4189  0.1289
 2206SOL     OW16531   3.249   5.200   1.054  0.0164  0.0824  0.2716
 2206SOL    HW116532   3.224   5.149   1.136 -0.3240  0.7017  0.5620
 2206SOL    HW216533   3.179   5.188   0.984  0.0248  0.0093  0.2756
 2207SOL     OW16534   1.752   2.728   1.620 -0.0301  0.0291  0.0884
 2207SOL    HW116535   1.804   2.789   1.560  0.5815  0.2183  0.8222
 2207SOL    HW216536   1.796   2.722   1.709 -1.6819  0.8148  0.9779
 2208SOL     OW16537   2.523   4.972   1.609 -0.2064 -0.2624 -0.5698
 2208SOL    HW116538   2.609   5.023   1.611 -1.3120  1.6164 -0.5247
 2208SOL    HW216539   2.530   4.893   1.670  1.1112  0.4801  0.2626
 2209SOL     OW16540   1.327   5.842   2.580  0.1608 -0.1752 -0.3832
 2209SOL    HW116541   1.253   5.802   2.527  1.5262 -0.0756 -2.4027
 2209SOL    HW216542   1.415   5.811   2.543  1.1701  1.3779  0.6578
 2210SOL     OW16543   3.253   9.614   0.657 -0.5985 -0.1180  0.8870
 2210SOL    HW116544   3.269   9.612   0.559 -1.5129  0.7977  0.7124
 2210SOL    HW216545   3.290   9.531   0.699 -1.6122 -1.2596 -0.4407
 2211SOL     OW16546  10.108   5.229   1.102 -0.1068  0.7726  0.4789
 2211SOL    HW116547  10.089   5.327   1.098  1.3931  1.1617  2.2326
 2211SOL    HW216548  10.168   5.203   1.026 -2.4075  0.7249 -1.3822
 2212SOL     OW16549   3.653   8.841   1.020 -0.1277  0.4829  0.2440
 2212SOL    HW116550   3.666   8.838   0.921 -1.9452  2.9030 -0.1236
 2212SOL    HW216551   3.742   8.839   1.065  0.7131 -0.9031 -1.4088
 2213SOL     OW16552   3.073   9.121   2.514  0.2793 -0.0953  0.0035
 2213SOL    HW116553   2.998   9.162   2.566  0.6881  0.4956  0.1267
 2213SOL    HW216554   3.147   9.095   2.577 -0.2834 -1.7040  0.0190
 2214SOL     OW16555   0.731   5.845   1.701  0.0914 -0.6544  0.1380
 2214SOL    HW116556   0.792   5.768   1.715  1.2748  0.1217 -0.5873
 2214SOL    HW216557   0.686   5.836   1.612 -1.2405 -1.4714  0.8780
 2215SOL     OW16558   4.243   4.352   2.038  0.2985  0.1767  0.3684
 2215SOL    HW116559   4.263   4.273   1.979  0.3864 -0.6078  1.4279
 2215SOL    HW216560   4.188   4.418   1.987 -0.0754 -0.7267 -0.4353
 2216SOL     OW16561   4.083   0.985   0.805 -0.8069 -0.3860  0.3513
 2216SOL    HW116562   4.097   0.898   0.758  0.6648  0.4347 -0.7685
 2216SOL    HW216563   3.992   1.021   0.783 -0.3337 -0.2566 -1.4954
 2217SOL     OW16564   2.041   7.003   2.396 -0.0703 -0.3871  0.1588
 2217SOL    HW116565   2.128   6.987   2.350 -0.2509 -2.0372  0.3493
 2217SOL    HW216566   2.031   7.100   2.417  0.6180  0.1747 -2.0557
 2218SOL     OW16567   0.430   4.936   2.284 -0.7445 -0.0046  0.4062
 2218SOL    HW116568   0.439   4.836   2.282 -1.7009 -0.1305  1.5131
 2218SOL    HW216569   0.478   4.972   2.364 -0.5148  0.4136  0.0825
 2219SOL     OW16570   3.485   8.982   1.896  0.3671  0.1621  0.3328
 2219SOL    HW116571   3.562   8.919   1.904  1.9578  1.9966 -0.3184
 2219SOL    HW216572   3.511   9.072   1.931 -1.9987  0.4054  1.5950
 2220SOL     OW16573   3.480   2.310   2.435  0.1999 -0.6699  0.2693
 2220SOL    HW116574   3.573   2.273   2.439  1.0712  1.5019  0.7695
 2220SOL    HW216575   3.467   2.359   2.349 -0.1257 -0.1100  0.6315
 2221SOL     OW16576   0.997   5.704   0.803  0.1824 -0.1219  0.4100
 2221SOL    HW116577   0.954   5.788   0.770  0.3537 -0.1359  0.1570
 2221SOL    HW216578   0.939   5.663   0.873  0.4515  0.5964  1.0681
 2222SOL     OW16579   3.441   9.784   0.239 -0.3253  0.5167  0.3448
 2222SOL    HW116580   3.430   9.794   0.140 -0.4711 -1.0171  0.1840
 2222SOL    HW216581   3.529   9.823   0.267  0.9085 -1.3216 -0.8091
 2223SOL     OW16582   2.883   6.885   1.195 -0.1343 -0.0408 -0.3533
 2223SOL    HW116583   2.943   6.951   1.240  1.8412 -1.2402 -1.1821
 2223SOL    HW216584   2.792   6.889   1.237  0.7270  1.2477  1.4539
 2224SOL     OW16585   3.074   8.532   0.150  0.3299  0.2550  0.2518
 2224SOL    HW116586   3.021   8.580   0.220  0.7844  0.9619  0.1085
 2224SOL    HW216587   3.019   8.457   0.113  0.1333 -0.1947  1.4405
 2225SOL     OW16588   2.864   5.798   2.138 -0.9316  0.2660 -0.2323
 2225SOL    HW116589   2.885   5.878   2.083  0.0156 -0.7006 -1.3194
 2225SOL    HW216590   2.768   5.799   2.164 -0.8752  1.8483 -0.0509
 2226SOL     OW16591   3.168   6.470   1.838  0.2022  0.1492 -0.1059
 2226SOL    HW116592   3.210   6.545   1.787 -1.3244  0.9597 -0.1871
 2226SOL    HW216593   3.146   6.395   1.776  0.9085 -0.0233 -0.1625
 2227SOL     OW16594   3.895   8.370   0.337 -0.2745 -0.2176  0.0585
 2227SOL    HW116595   3.913   8.277   0.368 -0.0415 -0.5829 -1.1382
 2227SOL    HW216596   3.980   8.411   0.305 -0.4875  0.1994  0.0308
 2228SOL     OW16597   4.282   3.846   1.920  0.0921  0.1469  0.1323
 2228SOL    HW116598   4.237   3.842   1.832  0.1458  0.6487  0.0787
 2228SOL    HW216599   4.214   3.845   1.993  0.0692 -0.7337  0.0987
 2229SOL     OW16600   1.761   2.995   0.986  0.2829 -0.0441 -0.5111
 2229SOL    HW116601   1.686   3.055   0.959  0.1185 -0.0311 -0.0357
 2229SOL    HW216602   1.811   2.964   0.905 -0.7162 -0.6760 -0.8889
 2230SOL     OW16603   3.542   4.924   0.509 -0.2700 -0.0868 -0.0564
 2230SOL    HW116604   3.517   4.961   0.599 -1.1662 -0.1401 -0.2796
 2230SOL    HW216605   3.522   4.993   0.439  1.2848  0.3055 -0.1282
 2231SOL     OW16606   4.166   3.439   2.376 -0.9925 -0.0041  0.0989
 2231SOL    HW116607   4.111   3.517   2.345 -1.1095 -1.0650 -2.5102
 2231SOL    HW216608   4.142   3.358   2.322  1.7237 -0.9679  0.2838
 2232SOL     OW16609   3.540   1.924   2.293  0.1979  0.3051  0.5043
 2232SOL    HW116610   3.481   1.914   2.373  1.5695 -0.9811  1.3728
 2232SOL    HW216611   3.491   1.975   2.222 -1.6684 -0.0728  1.4860
 2233SOL     OW16612   3.118   5.998   0.849 -0.0583  0.8326 -0.1070
 2233SOL    HW116613   3.030   6.005   0.803  0.2064  2.3529 -0.4373
 2233SOL    HW216614   3.143   5.902   0.861 -2.1090  0.3860  0.6885
 2234SOL     OW16615   4.149   2.143   2.292  0.4911  0.0219 -0.0846
 2234SOL    HW116616   4.121   2.194   2.210 -0.5262  0.4690  0.5321
 2234SOL    HW216617   4.166   2.048   2.267 -0.7704 -0.0667 -0.6433
 2235SOL     OW16618   2.350   6.974   1.404 -0.2025  0.2189  0.0712
 2235SOL    HW116619   2.424   6.961   1.338 -0.1017 -1.8071  0.5490
 2235SOL    HW216620   2.383   6.952   1.496 -1.4698 -0.9784  0.2513
 2236SOL     OW16621   3.271   9.979   1.674 -0.0980  0.1942  0.0957
 2236SOL    HW116622   3.349  10.041   1.667  0.4736 -0.3498  1.4056
 2236SOL    HW216623   3.297   9.899   1.729 -1.4099 -0.2667  0.0672
 2237SOL     OW16624   3.526   9.925   1.333 -0.2816  0.5418 -0.2300
 2237SOL    HW116625   3.441   9.880   1.307 -0.1853 -0.3253  0.9034
 2237SOL    HW216626   3.525   9.944   1.431  1.4756 -0.9289  0.1138
 2238SOL     OW16627   4.297   2.843   0.434  0.6268 -0.0961  0.2495
 2238SOL    HW116628   4.371   2.866   0.497  1.6806  0.7385 -1.2535
 2238SOL    HW216629   4.236   2.922   0.424 -0.4681 -0.7680  1.4529
 2239SOL     OW16630   3.761   2.827   1.244  0.7658 -0.6271  0.0839
 2239SOL    HW116631   3.776   2.922   1.218 -0.6238 -0.3847  0.1020
 2239SOL    HW216632   3.803   2.767   1.176 -2.0854  0.0110 -2.3637
 2240SOL     OW16633   2.997   8.205   0.299  0.3649 -0.2080  0.1868
 2240SOL    HW116634   3.091   8.183   0.324  0.0840 -1.8825 -0.1418
 2240SOL    HW216635   2.943   8.121   0.295 -0.8521  0.5959 -0.8314
 2241SOL     OW16636   9.455   5.579   0.005 -0.3472 -0.1266 -0.0439
 2241SOL    HW116637   9.404   5.614  -0.073 -0.0290  1.5665  0.4866
 2241SOL    HW216638   9.398   5.516   0.057 -0.7412 -0.8395 -1.3203
 2242SOL     OW16639   3.202   7.662   1.212  0.2039 -0.1946  0.0400
 2242SOL    HW116640   3.174   7.750   1.251 -0.2163 -0.9613  1.5372
 2242SOL    HW216641   3.296   7.643   1.237  0.0077 -0.5812  0.4950
 2243SOL     OW16642  10.093   4.634   1.192 -0.0258 -0.3947  0.3181
 2243SOL    HW116643  10.174   4.578   1.207 -0.7878 -1.4702  0.4358
 2243SOL    HW216644  10.013   4.589   1.231 -0.5795  0.9880  0.8302
 2244SOL     OW16645   2.334   5.474   1.377 -0.0963  0.7225  0.0008
 2244SOL    HW116646   2.368   5.381   1.363  2.1196  1.3457  0.9626
 2244SOL    HW216647   2.246   5.471   1.425 -0.1693 -0.8693 -0.2069
 2245SOL     OW16648   2.019   3.230   0.938 -0.0384  0.1708  0.3664
 2245SOL    HW116649   2.114   3.254   0.955 -0.4212  0.5071  2.0773
 2245SOL    HW216650   1.974   3.207   1.024 -1.5593  0.1867 -0.4082
 2246SOL     OW16651   4.081   0.369   1.609  0.0867 -0.4860 -0.3695
 2246SOL    HW116652   4.080   0.292   1.545 -2.7163 -0.5320 -0.3170
 2246SOL    HW216653   3.997   0.421   1.600  0.8820  1.1563  1.3417
 2247SOL     OW16654   4.237   4.690   0.616  0.7061  0.4562  0.6086
 2247SOL    HW116655   4.280   4.658   0.531 -1.3452 -0.2069 -0.2086
 2247SOL    HW216656   4.198   4.613   0.665  0.1029  1.0816  1.1252
 2248SOL     OW16657   2.612   2.881   1.642 -0.4288  0.0865 -0.2851
 2248SOL    HW116658   2.569   2.830   1.717  0.7547  1.2331  1.1955
 2248SOL    HW216659   2.666   2.956   1.680 -0.6502  1.3118 -2.3495
 2249SOL     OW16660   1.553   4.817   0.904  0.1207 -0.3645  0.1134
 2249SOL    HW116661   1.640   4.800   0.859 -0.0740 -2.3639  0.4458
 2249SOL    HW216662   1.567   4.877   0.983  1.3655 -1.4185  0.7048
 2250SOL     OW16663   2.979  10.019   0.122 -0.1394  0.6327 -0.1060
 2250SOL    HW116664   3.073  10.004   0.151  0.9772  0.2566 -3.6897
 2250SOL    HW216665   2.959  10.117   0.122  0.5385  0.7726 -0.1728
 2251SOL     OW16666   3.435   5.433   0.039 -0.1235 -0.3232  0.1920
 2251SOL    HW116667   3.472   5.354  -0.009 -0.4093  0.5101 -1.4171
 2251SOL    HW216668   3.344   5.455   0.004 -0.2884  0.3843  1.0139
 2252SOL     OW16669   3.378   1.089   0.328 -0.1968 -0.1023  0.3109
 2252SOL    HW116670   3.303   1.055   0.384 -0.5252  1.5365  0.9239
 2252SOL    HW216671   3.344   1.114   0.238 -0.7537  2.1393  1.1046
 2253SOL     OW16672   3.907   1.526  -0.011  0.5197 -0.5393 -0.7173
 2253SOL    HW116673   3.809   1.509   0.006  0.8411 -0.7501  1.0855
 2253SOL    HW216674   3.923   1.624  -0.017  0.3597 -0.4451  0.2109
 2254SOL     OW16675   3.139   9.991   0.951  0.2163  0.1680 -0.0069
 2254SOL    HW116676   3.052   9.969   0.996 -0.4575 -0.5048 -1.6094
 2254SOL    HW216677   3.210   9.930   0.986 -0.3314 -0.4596  0.0279
 2255SOL     OW16678   3.330   1.338   0.966  0.3854 -0.0869  0.7900
 2255SOL    HW116679   3.340   1.280   0.885 -0.1898 -0.1767  0.7824
 2255SOL    HW216680   3.409   1.323   1.027  0.5044 -0.4879  0.5442
 2256SOL     OW16681   3.560   9.499   0.520  0.2158 -0.7854  0.1469
 2256SOL    HW116682   3.524   9.436   0.589  0.9353 -0.6420  0.6717
 2256SOL    HW216683   3.543   9.463   0.429 -0.8330 -0.9325  0.4016
 2257SOL     OW16684   2.541   0.715   1.284  0.7535 -0.0883  0.4154
 2257SOL    HW116685   2.471   0.657   1.242 -0.4315  0.8802  1.0284
 2257SOL    HW216686   2.614   0.734   1.217  0.3530 -0.9589 -0.2734
 2258SOL     OW16687   1.957   6.462   1.598 -0.1176  0.2183  0.0632
 2258SOL    HW116688   1.897   6.483   1.520  0.6566  0.9798 -0.3418
 2258SOL    HW216689   1.977   6.364   1.599  0.1620  0.2536 -0.9308
 2259SOL     OW16690   3.782   0.918   2.293  0.0626  0.3160 -0.2167
 2259SOL    HW116691   3.707   0.917   2.226  0.2621 -0.2516 -0.4340
 2259SOL    HW216692   3.749   0.957   2.379 -0.4316  0.2553 -0.3775
 2260SOL     OW16693   3.585   9.507   2.467  0.1791 -0.2757  0.2815
 2260SOL    HW116694   3.491   9.490   2.495 -0.0872 -1.1549 -1.0963
 2260SOL    HW216695   3.638   9.542   2.545 -0.6273 -2.2417  1.7575
 2261SOL     OW16696   3.994   1.784   2.582 -0.2251 -0.0874 -0.4828
 2261SOL    HW116697   3.914   1.844   2.586  0.5020  0.8518  0.2062
 2261SOL    HW216698   4.072   1.836   2.548  0.7927 -0.2096  1.6226
 2262SOL     OW16699   2.937   2.577   2.238  0.4547  0.5646 -0.0754
 2262SOL    HW116700   2.898   2.508   2.299  0.2862  0.1880 -0.6039
 2262SOL    HW216701   2.977   2.531   2.158 -1.8991  1.2245 -1.6975
 2263SOL     OW16702   2.711   2.165   0.725  0.3819  0.3971 -0.5840
 2263SOL    HW116703   2.787   2.101   0.733  1.1165  1.3985  0.5033
 2263SOL    HW216704   2.629   2.123   0.765  0.6146 -0.2449 -0.7636
 2264SOL     OW16705   0.646   5.214   2.186  0.1576 -0.0484  0.0161
 2264SOL    HW116706   0.569   5.273   2.211  1.1271  0.3211  2.3365
 2264SOL    HW216707   0.613   5.136   2.133 -2.3515 -1.6339  3.6493
 2265SOL     OW16708   1.649   3.653   1.936  0.4530  0.3502 -0.0201
 2265SOL    HW116709   1.603   3.742   1.939 -0.1129  0.0288  0.7562
 2265SOL    HW216710   1.587   3.582   1.969  0.7771 -0.3920 -0.9911
 2266SOL     OW16711   2.336   5.750   1.352 -0.0406 -0.3732  0.0944
 2266SOL    HW116712   2.338   5.650   1.350  1.1240 -0.3726  0.7347
 2266SOL    HW216713   2.323   5.785   1.259 -2.0999 -1.1371  0.0741
 2267SOL     OW16714   4.036   8.948   0.803  0.3588 -0.0708 -0.3104
 2267SOL    HW116715   4.019   8.919   0.709 -1.3917  0.9052 -0.3171
 2267SOL    HW216716   4.097   9.027   0.803 -0.2426  0.3980 -0.6768
 2268SOL     OW16717   3.743   9.760   2.539 -0.6504  0.0543  0.5593
 2268SOL    HW116718   3.718   9.711   2.623 -1.6762  0.3035  0.3970
 2268SOL    HW216719   3.663   9.769   2.480 -0.1979  0.8946  0.0672
 2269SOL     OW16720   3.022   8.728   2.097  0.0366 -0.5876 -0.0990
 2269SOL    HW116721   3.031   8.727   1.997 -1.7450 -0.2029 -0.2896
 2269SOL    HW216722   3.008   8.822   2.128 -0.0412 -0.7808  0.4546
 2270SOL     OW16723   2.814   1.293   0.332  0.2816 -0.2602 -0.1123
 2270SOL    HW116724   2.732   1.350   0.327 -0.5027 -1.0598  2.3605
 2270SOL    HW216725   2.892   1.348   0.362 -0.1780 -0.1813  0.9865
 2271SOL     OW16726   4.734   4.073   2.458  0.4952 -0.0383 -0.4805
 2271SOL    HW116727   4.668   4.104   2.390 -0.9070  0.0516  0.8984
 2271SOL    HW216728   4.710   3.980   2.488  0.5477  0.2798  0.5636
 2272SOL     OW16729   4.528   4.799   1.294 -0.1872 -0.1223  0.0152
 2272SOL    HW116730   4.515   4.859   1.215 -0.6531 -0.6521 -0.3170
 2272SOL    HW216731   4.512   4.850   1.378  0.0516  0.3795 -0.2427
 2273SOL     OW16732   3.180   5.106   1.300 -0.1978 -0.0375 -0.3929
 2273SOL    HW116733   3.257   5.086   1.360  0.2522  0.5596 -0.7660
 2273SOL    HW216734   3.122   5.176   1.343 -0.5537 -0.5059 -0.1003
 2274SOL     OW16735   4.476   0.489   2.147  0.4789 -0.6417 -0.2971
 2274SOL    HW116736   4.541   0.552   2.190 -0.1171 -0.1294 -0.1408
 2274SOL    HW216737   4.384   0.530   2.147  0.7363  0.0724 -3.5127
 2275SOL     OW16738   0.469   4.955   0.887 -0.4618 -0.1940  0.0475
 2275SOL    HW116739   0.545   4.974   0.949  0.2334  1.1232 -1.1797
 2275SOL    HW216740   0.498   4.888   0.819 -0.5861 -0.1337 -0.0641
 2276SOL     OW16741   4.745   1.645   1.303  0.1017 -0.4014  0.0478
 2276SOL    HW116742   4.777   1.625   1.211  0.7754 -0.0846  0.2091
 2276SOL    HW216743   4.687   1.571   1.335 -0.5190 -0.2932 -0.8098
 2277SOL     OW16744   3.863   3.820   2.449  0.2823  0.6844  0.4727
 2277SOL    HW116745   3.945   3.867   2.483  0.6866 -0.0031  0.4628
 2277SOL    HW216746   3.806   3.792   2.527  0.5284  0.3260  0.5264
 2278SOL     OW16747   2.427   3.633   0.335  0.3993  0.4201  0.1740
 2278SOL    HW116748   2.489   3.675   0.401  1.0102 -0.8723  0.4350
 2278SOL    HW216749   2.349   3.695   0.319  0.2942  0.8085  2.0093
 2279SOL     OW16750   2.851   1.026   0.477  0.0675  0.2652 -0.4546
 2279SOL    HW116751   2.840   1.103   0.414 -2.1963  2.2577  2.2638
 2279SOL    HW216752   2.780   0.959   0.460  0.1466  0.2580 -0.7600
 2280SOL     OW16753   9.635   5.203   2.152 -0.4631  0.5876  0.3426
 2280SOL    HW116754   9.664   5.242   2.065  2.2897 -1.5498  0.2238
 2280SOL    HW216755   9.682   5.251   2.227 -0.4565  0.4152  0.4500
 2281SOL     OW16756   2.988   4.460   2.512 -0.3899 -0.1809 -0.0874
 2281SOL    HW116757   3.021   4.425   2.424  0.5574  2.7145 -0.9327
 2281SOL    HW216758   3.041   4.418   2.586 -0.1710 -1.5042 -0.9775
 2282SOL     OW16759   4.009   9.959   2.267  0.0284 -0.3160  0.7514
 2282SOL    HW116760   3.986   9.867   2.299 -0.6117 -0.3300  0.2657
 2282SOL    HW216761   4.101   9.958   2.228  0.3094 -0.5857  1.4092
 2283SOL     OW16762   4.466   2.225   2.045  0.2009 -0.2622  0.4506
 2283SOL    HW116763   4.517   2.152   1.999  1.4747  1.0615 -0.2792
 2283SOL    HW216764   4.455   2.201   2.142  0.0053 -1.7256  0.0854
 2284SOL     OW16765   3.159   1.688   0.249 -0.4617 -0.5351  0.0762
 2284SOL    HW116766   3.148   1.698   0.348  0.5451 -1.2303  0.2583
 2284SOL    HW216767   3.253   1.712   0.223  0.4519 -4.1755 -0.1915
 2285SOL     OW16768   5.139   3.173   0.068 -0.2180 -0.8429 -0.4283
 2285SOL    HW116769   5.217   3.173   0.005  0.5663 -2.1123  0.5185
 2285SOL    HW216770   5.099   3.082   0.072 -0.2452 -0.7871  0.9265
 2286SOL     OW16771   3.387   8.244   1.037 -0.5065  0.0298 -0.2896
 2286SOL    HW116772   3.373   8.340   1.057 -0.8244  0.1207 -0.9105
 2286SOL    HW216773   3.464   8.209   1.090 -0.6419  0.5227  0.2320
 2287SOL     OW16774   2.930   1.424   1.087 -0.1805 -0.2328  0.1651
 2287SOL    HW116775   2.848   1.370   1.108 -0.0094 -0.4885  0.1779
 2287SOL    HW216776   2.999   1.364   1.046 -0.1001  0.0370 -0.0923
 2288SOL     OW16777   2.110   2.309   1.303 -0.4118 -0.2762  0.3599
 2288SOL    HW116778   2.137   2.292   1.397 -1.0236 -1.1604  0.3901
 2288SOL    HW216779   2.191   2.327   1.247 -0.0131 -0.1798  0.9703
 2289SOL     OW16780   3.474   7.904   1.054 -0.4362  0.4210  0.0599
 2289SOL    HW116781   3.381   7.879   1.080 -0.4301  0.9981  0.6421
 2289SOL    HW216782   3.520   7.947   1.132  0.6176 -0.6835  0.0637
 2290SOL     OW16783   3.168   2.320   0.645  0.0330  0.6664 -0.0465
 2290SOL    HW116784   3.117   2.398   0.682 -0.9214  1.4388 -2.9179
 2290SOL    HW216785   3.157   2.317   0.546  1.8992 -1.8337 -0.2065
 2291SOL     OW16786   1.526   3.880   2.174 -0.0606  0.2696  0.6358
 2291SOL    HW116787   1.552   3.884   2.078  1.2367  2.1431  1.0352
 2291SOL    HW216788   1.597   3.924   2.230 -0.6931 -0.9942  2.4677
 2292SOL     OW16789   3.798   4.763   1.866  1.1600  0.3486  0.2215
 2292SOL    HW116790   3.892   4.783   1.892  0.5226  1.2505  1.9288
 2292SOL    HW216791   3.736   4.813   1.926 -0.4163 -0.7755 -0.4490
 2293SOL     OW16792   3.342   4.295   0.218  0.2306 -0.7087 -0.3019
 2293SOL    HW116793   3.407   4.348   0.164 -0.4720  0.3782 -0.1076
 2293SOL    HW216794   3.370   4.199   0.220  0.4365 -0.6967 -2.3043
 2294SOL     OW16795   3.694   2.751   0.411  0.2137 -0.7192  0.2737
 2294SOL    HW116796   3.667   2.825   0.473  1.5910  1.2593 -1.4166
 2294SOL    HW216797   3.788   2.724   0.429  0.7161  0.0511 -1.0805
 2295SOL     OW16798   0.569   6.567   2.379  0.1650  0.1601  0.5413
 2295SOL    HW116799   0.554   6.631   2.303 -0.0860 -2.6376 -1.8232
 2295SOL    HW216800   0.662   6.579   2.414  0.9329  0.1590 -1.4684
 2296SOL     OW16801   3.937   9.494   2.128 -0.3584  0.1048 -0.5528
 2296SOL    HW116802   3.853   9.451   2.163  0.4773  0.0419  1.4069
 2296SOL    HW216803   3.996   9.424   2.089 -1.3758  0.2011 -2.3244
 2297SOL     OW16804   1.140   4.501   2.006 -0.2790 -0.5127  0.0433
 2297SOL    HW116805   1.061   4.524   1.950 -0.7273  2.5252  1.7795
 2297SOL    HW216806   1.165   4.581   2.061  3.2463 -1.7972  0.4256
 2298SOL     OW16807   1.391   3.059   1.313  0.1799  0.2768 -0.8988
 2298SOL    HW116808   1.356   2.966   1.316  1.1386 -0.0795 -0.4719
 2298SOL    HW216809   1.356   3.105   1.232  1.2977 -1.1213 -2.2129
 2299SOL     OW16810   3.411   8.432   2.507 -0.7794 -0.4405 -0.1908
 2299SOL    HW116811   3.363   8.378   2.438  0.9345 -1.6801 -0.4226
 2299SOL    HW216812   3.344   8.486   2.558 -2.5104 -2.6986 -0.0055
 2300SOL     OW16813   4.768   1.192   0.856 -0.0828 -0.1285  0.3263
 2300SOL    HW116814   4.673   1.203   0.826 -0.0279 -0.6002 -0.0211
 2300SOL    HW216815   4.824   1.163   0.779  0.6072  1.5031  0.1959
 2301SOL     OW16816   2.798   3.056   0.644 -0.4911  0.1907 -0.0859
 2301SOL    HW116817   2.776   3.139   0.593  0.6801  2.2126  2.6543
 2301SOL    HW216818   2.895   3.035   0.632 -0.1390  0.8628  1.5758
 2302SOL     OW16819   4.036   9.569   0.809 -0.2179  0.4999 -0.0987
 2302SOL    HW116820   4.113   9.626   0.836  1.3152 -0.7794 -1.6506
 2302SOL    HW216821   4.044   9.479   0.851 -0.1098 -0.0913 -1.3659
 2303SOL     OW16822   3.975   2.404   0.611  0.7465 -0.6439  0.6326
 2303SOL    HW116823   3.989   2.503   0.598 -1.5611 -0.2922  0.5950
 2303SOL    HW216824   4.022   2.354   0.538 -1.7917  0.6916 -2.0270
 2304SOL     OW16825   4.173   9.528   2.402 -0.0272 -0.1509  0.4332
 2304SOL    HW116826   4.193   9.585   2.482 -0.8653 -1.0095  1.2775
 2304SOL    HW216827   4.103   9.571   2.346  0.8314  0.6355 -0.0454
 2305SOL     OW16828   2.476   8.077   0.267 -0.0587 -0.4979  0.5175
 2305SOL    HW116829   2.389   8.033   0.250  0.4838 -1.1754 -0.5510
 2305SOL    HW216830   2.541   8.052   0.195  0.9163  0.2580  1.1186
 2306SOL     OW16831   4.224   3.426   0.042 -0.0473 -0.4332  0.1669
 2306SOL    HW116832   4.231   3.458  -0.052 -1.9254 -0.1102  0.1211
 2306SOL    HW216833   4.274   3.341   0.052  0.2658 -0.4059 -1.0919
 2307SOL     OW16834  10.152   4.549   1.547 -0.1199  0.2195 -0.0268
 2307SOL    HW116835  10.221   4.550   1.475  0.1324  1.3628  0.2307
 2307SOL    HW216836  10.189   4.504   1.629  0.7871  2.0285  0.5701
 2308SOL     OW16837   1.662   6.331   1.840  0.3020 -0.0691  0.0063
 2308SOL    HW116838   1.582   6.274   1.826  1.4824 -1.3647 -1.7060
 2308SOL    HW216839   1.642   6.424   1.810 -1.1801  0.0962  1.4661
 2309SOL     OW16840   2.901   3.837   0.685 -0.7365 -0.4747 -0.0235
 2309SOL    HW116841   2.985   3.797   0.722  0.1874  1.9989  0.6723
 2309SOL    HW216842   2.823   3.812   0.744  0.3428  1.4231  2.2773
 2310SOL     OW16843   2.675   8.442   0.076 -0.2059  0.1816  0.3807
 2310SOL    HW116844   2.622   8.376   0.130 -3.1816  1.9480 -0.2463
 2310SOL    HW216845   2.749   8.395   0.028 -1.9779 -2.6374  0.2957
 2311SOL     OW16846   2.932   3.801   1.787 -0.2965 -0.2900 -0.5969
 2311SOL    HW116847   2.906   3.893   1.814 -0.6384 -0.7639  0.7382
 2311SOL    HW216848   2.912   3.737   1.862 -2.1721 -1.8051 -2.3287
 2312SOL     OW16849   1.872   4.748   1.704 -0.0431 -0.0208  0.1340
 2312SOL    HW116850   1.846   4.652   1.692  0.3985 -0.4737  2.5443
 2312SOL    HW216851   1.793   4.806   1.683 -0.4180 -0.9063 -0.9950
 2313SOL     OW16852   4.040   2.992   2.190  0.5385 -0.0121 -0.0582
 2313SOL    HW116853   4.044   2.907   2.242  2.8958  1.2413  1.9178
 2313SOL    HW216854   4.093   2.983   2.106  0.3624 -0.6533 -0.1022
 2314SOL     OW16855   3.017   7.113   1.274  0.6176  0.0852 -0.8923
 2314SOL    HW116856   3.071   7.084   1.353  1.1394  0.6203 -1.0489
 2314SOL    HW216857   3.012   7.213   1.271  0.1709  0.0549 -1.2463
 2315SOL     OW16858   3.666   2.297   1.669 -0.4973  0.3815 -0.4502
 2315SOL    HW116859   3.729   2.362   1.628 -0.9663  1.0119 -0.1784
 2315SOL    HW216860   3.675   2.299   1.768 -1.4343  0.9895 -0.3688
 2316SOL     OW16861   1.062   6.414   1.582  0.1845 -0.5306  0.1014
 2316SOL    HW116862   0.970   6.450   1.564  0.5395  1.0687  1.3509
 2316SOL    HW216863   1.129   6.466   1.527  0.2540 -2.4701 -1.7135
 2317SOL     OW16864   3.391   7.852   0.630  0.1562 -0.1078 -0.1087
 2317SOL    HW116865   3.306   7.870   0.681  0.4936  0.1093  0.3817
 2317SOL    HW216866   3.467   7.845   0.695  0.4189 -0.8859 -0.5028
 2318SOL     OW16867   2.102   2.871   0.225  0.3793  0.0246 -0.4897
 2318SOL    HW116868   2.164   2.808   0.179 -0.0503 -0.0291 -1.0080
 2318SOL    HW216869   2.151   2.920   0.297  0.4168 -1.7567  0.7196
 2319SOL     OW16870   3.457   6.461   1.961 -0.2510 -0.1334  0.3158
 2319SOL    HW116871   3.369   6.423   1.932  0.3896 -1.2041 -0.2664
 2319SOL    HW216872   3.491   6.525   1.892 -0.3418 -0.0872  0.3146
 2320SOL     OW16873   2.566   6.638   0.761  0.1286 -0.2585  0.6436
 2320SOL    HW116874   2.559   6.559   0.700  1.1407 -0.7457  1.1327
 2320SOL    HW216875   2.659   6.642   0.799  0.5882  2.0787 -0.6076
 2321SOL     OW16876   2.700   7.136   1.065 -0.3433  0.1210  0.1649
 2321SOL    HW116877   2.684   7.233   1.047 -0.5945 -0.1220 -0.9110
 2321SOL    HW216878   2.795   7.122   1.095 -0.3452  0.7064  0.4493
 2322SOL     OW16879   4.111   1.038   2.494 -0.9891  0.7227 -0.3364
 2322SOL    HW116880   4.150   1.114   2.442  0.4617 -0.0801 -0.4320
 2322SOL    HW216881   4.126   1.053   2.591 -1.3013  0.8837 -0.3113
 2323SOL     OW16882   4.358   1.191   1.869  0.3749  0.6317 -0.1479
 2323SOL    HW116883   4.326   1.164   1.960 -0.5675  1.8266 -0.1223
 2323SOL    HW216884   4.281   1.224   1.815  0.9659  0.0943 -1.3308
 2324SOL     OW16885   3.768   2.121   1.259  0.4288 -0.2600 -0.5700
 2324SOL    HW116886   3.826   2.049   1.296  0.2450  0.4080  1.0520
 2324SOL    HW216887   3.682   2.124   1.310 -0.3020 -0.0785 -1.8024
 2325SOL     OW16888   2.593   3.494   2.572 -0.0133  0.6842  0.8233
 2325SOL    HW116889   2.579   3.570   2.635  0.9163  0.3344  1.4564
 2325SOL    HW216890   2.670   3.513   2.511  1.0174 -0.2681  1.8045
 2326SOL     OW16891   4.318   3.795   0.775 -0.1744 -0.3301 -0.1110
 2326SOL    HW116892   4.313   3.835   0.683 -1.1551 -1.7335 -0.6918
 2326SOL    HW216893   4.245   3.834   0.832  0.5172  0.6389  0.1237
 2327SOL     OW16894   3.080   0.542   0.019 -0.2137  0.4834  0.1281
 2327SOL    HW116895   3.096   0.500  -0.070 -1.5488 -0.0768  0.1431
 2327SOL    HW216896   3.161   0.593   0.047  0.9078 -0.9113 -0.5395
 2328SOL     OW16897   0.423   5.403   1.028  0.1175  0.2089  0.3857
 2328SOL    HW116898   0.450   5.454   0.946  0.6100 -1.5028 -0.5503
 2328SOL    HW216899   0.372   5.321   1.001 -0.3171 -0.0113  1.8294
 2329SOL     OW16900   4.390   0.708   2.457 -0.0077  0.3844 -0.1279
 2329SOL    HW116901   4.368   0.663   2.370  0.1287 -0.2800  0.1781
 2329SOL    HW216902   4.312   0.700   2.519  0.3370 -0.1875  0.2332
 2330SOL     OW16903   2.673   6.316   1.275  0.6340 -0.5349 -0.1292
 2330SOL    HW116904   2.658   6.244   1.207 -0.2296 -0.6914  0.2321
 2330SOL    HW216905   2.767   6.350   1.265  1.4942 -2.6057  0.5522
 2331SOL     OW16906   3.143   1.517   1.909  0.1593  0.6511  0.0559
 2331SOL    HW116907   3.187   1.434   1.943  0.8429  1.0166  0.0754
 2331SOL    HW216908   3.128   1.580   1.985  0.4411  0.9045 -0.0949
 2332SOL     OW16909   1.355   4.347   1.013 -0.2534  0.1540 -0.6614
 2332SOL    HW116910   1.343   4.298   1.100  0.6239 -0.3916 -0.8505
 2332SOL    HW216911   1.431   4.308   0.962 -2.0327 -0.8910 -2.6251
 2333SOL     OW16912   3.634   1.534   0.012  0.6155 -0.3431  0.7865
 2333SOL    HW116913   3.552   1.540   0.069  0.7335 -0.6799  0.9900
 2333SOL    HW216914   3.614   1.479  -0.069  0.9338 -1.2929  1.3473
 2334SOL     OW16915   4.235   2.911   2.372  0.4688  0.1871 -0.1828
 2334SOL    HW116916   4.285   2.894   2.287  0.7191 -0.2210  0.0469
 2334SOL    HW216917   4.193   2.827   2.403 -0.2839  0.5108 -0.3204
 2335SOL     OW16918   0.770   6.425   1.133  0.2089 -0.1026 -0.3793
 2335SOL    HW116919   0.810   6.349   1.184 -2.4109  0.2582  2.4135
 2335SOL    HW216920   0.694   6.391   1.077 -0.8073  0.3761  0.6822
 2336SOL     OW16921   2.921   4.072   2.471 -0.1855  0.3556 -0.2881
 2336SOL    HW116922   2.847   4.140   2.470 -1.5243 -1.0636 -0.4734
 2336SOL    HW216923   2.980   4.086   2.392 -0.7725  0.9718 -0.6241
 2337SOL     OW16924   3.760   3.511   0.945  0.1246  0.6648 -0.4229
 2337SOL    HW116925   3.760   3.560   0.858 -1.1743 -1.5918 -1.7585
 2337SOL    HW216926   3.666   3.501   0.978  0.3419 -0.9801 -0.2373
 2338SOL     OW16927   1.592   5.074   1.384 -0.2953  0.3769 -0.2459
 2338SOL    HW116928   1.669   5.081   1.448 -0.0595  0.0455 -0.4869
 2338SOL    HW216929   1.531   5.001   1.413 -0.2764  0.3371 -0.3044
 2339SOL     OW16930   1.650   5.298   0.078  0.0495  0.2057  0.1125
 2339SOL    HW116931   1.554   5.292   0.108 -0.2600  0.3766 -0.8229
 2339SOL    HW216932   1.688   5.386   0.107 -0.2116  0.3169  0.1249
 2340SOL     OW16933   9.618   5.776   0.248 -0.2942 -0.0420  0.1305
 2340SOL    HW116934   9.518   5.777   0.256 -0.4172 -2.2249 -0.7817
 2340SOL    HW216935   9.644   5.785   0.152  0.3746  0.2742  0.3401
 2341SOL     OW16936   3.041   3.829   0.441  0.2459  0.0213  0.9083
 2341SOL    HW116937   3.093   3.746   0.421 -1.1033 -0.6149 -0.0285
 2341SOL    HW216938   2.993   3.818   0.528  1.2289  0.3994  1.5068
 2342SOL     OW16939   5.356   3.440   0.778  0.3617  0.2100  0.2382
 2342SOL    HW116940   5.364   3.458   0.877  0.3077 -0.5814  0.3872
 2342SOL    HW216941   5.329   3.345   0.763 -1.2755  0.7783 -0.5052
 2343SOL     OW16942   0.207   5.605   1.512  0.1159  0.1626 -0.0620
 2343SOL    HW116943   0.199   5.511   1.543  2.2634  0.2186  0.7252
 2343SOL    HW216944   0.179   5.611   1.416 -0.8267 -1.1071  0.1208
 2344SOL     OW16945   0.908   5.616   0.131 -0.3731 -0.3059 -0.0188
 2344SOL    HW116946   0.994   5.664   0.150 -0.1582 -0.7804  0.2308
 2344SOL    HW216947   0.908   5.528   0.179 -1.5091  0.2142  0.9695
 2345SOL     OW16948   3.679   4.370   2.434 -0.3413 -0.1106  0.6606
 2345SOL    HW116949   3.770   4.329   2.424 -0.9035 -1.5879  1.4279
 2345SOL    HW216950   3.616   4.301   2.468 -2.2364  0.3214 -1.8195
 2346SOL     OW16951   2.305   6.311   2.444 -0.3069 -0.7189 -0.1293
 2346SOL    HW116952   2.267   6.280   2.531  0.7941 -0.3866  0.4799
 2346SOL    HW216953   2.389   6.363   2.460 -0.8763  0.6060 -1.2959
 2347SOL     OW16954   4.726   4.745   1.912  0.3844 -0.0092 -0.1497
 2347SOL    HW116955   4.725   4.708   2.005 -1.2496 -0.9857 -0.5323
 2347SOL    HW216956   4.638   4.788   1.892  1.3723  1.8346 -0.6203
 2348SOL     OW16957   1.926   5.597   2.535 -0.0935 -0.4394  0.2707
 2348SOL    HW116958   1.997   5.662   2.510  0.1921 -0.6454  0.5606
 2348SOL    HW216959   1.931   5.517   2.475 -1.9177  0.8286 -1.6561
 2349SOL     OW16960   4.553   4.840   0.070 -0.6423 -0.4000 -0.0352
 2349SOL    HW116961   4.623   4.874   0.133 -0.6101 -2.0280  0.8535
 2349SOL    HW216962   4.577   4.747   0.042 -2.0449 -0.6653 -0.3726
 2350SOL     OW16963   1.890   3.023   1.883  0.1522  0.3146 -0.2251
 2350SOL    HW116964   1.919   3.116   1.859 -0.1106  0.5899  0.5212
 2350SOL    HW216965   1.936   2.957   1.823  0.3798  0.9197 -0.7217
 2351SOL     OW16966   3.247   4.261   2.428 -0.4159  0.1341 -0.0274
 2351SOL    HW116967   3.197   4.285   2.511 -1.4006  0.8080 -0.7991
 2351SOL    HW216968   3.196   4.192   2.377  0.0545 -0.0769 -0.2215
 2352SOL     OW16969   0.455   4.986   2.013  0.0011 -0.0466 -0.7833
 2352SOL    HW116970   0.465   4.975   2.112  1.5246 -0.0114 -0.9339
 2352SOL    HW216971   0.359   5.007   1.992 -0.3515 -0.1453  0.6722
 2353SOL     OW16972   1.349   6.700   0.493 -0.8114  0.0950 -0.5750
 2353SOL    HW116973   1.323   6.660   0.581 -0.8909  0.3087 -0.5024
 2353SOL    HW216974   1.423   6.765   0.506 -0.9645  0.2821 -0.6389
 2354SOL     OW16975   4.197   9.969   1.577 -0.2765 -0.0844  0.2976
 2354SOL    HW116976   4.195  10.020   1.664 -1.1456  2.2176 -1.0405
 2354SOL    HW216977   4.115   9.913   1.570 -0.8449  0.7247  0.3811
 2355SOL     OW16978   2.615   5.475   1.418  0.0023  0.2561 -0.2825
 2355SOL    HW116979   2.651   5.504   1.330  0.9041 -0.6608 -0.2236
 2355SOL    HW216980   2.517   5.495   1.423 -0.2637 -0.6143 -1.8837
 2356SOL     OW16981   2.390   4.401   2.013  0.3937  0.1650 -0.4503
 2356SOL    HW116982   2.346   4.342   1.945 -0.4175  1.4041 -1.0308
 2356SOL    HW216983   2.398   4.352   2.100 -0.1650 -0.8311 -0.9499
 2357SOL     OW16984   4.258   9.030   1.609  0.3590 -0.0150  0.2480
 2357SOL    HW116985   4.270   9.126   1.634 -0.0693  0.1091 -0.0078
 2357SOL    HW216986   4.313   8.973   1.669 -0.7213  0.2644  1.5445
 2358SOL     OW16987   2.589   3.889   2.405 -0.0048  0.1545  0.3668
 2358SOL    HW116988   2.572   3.859   2.311  2.3753  1.5689 -0.5620
 2358SOL    HW216989   2.682   3.862   2.432  0.1365  1.7068  1.4902
 2359SOL     OW16990   2.082   5.473   0.881  0.0049 -0.0631 -0.1705
 2359SOL    HW116991   1.987   5.496   0.864  0.3262  0.8710 -0.7469
 2359SOL    HW216992   2.099   5.470   0.980 -1.7508 -5.0404  0.0974
 2360SOL     OW16993   2.701   4.287   2.219  0.2323 -0.2149 -0.0597
 2360SOL    HW116994   2.604   4.264   2.227  0.3960 -0.5337  1.1350
 2360SOL    HW216995   2.716   4.382   2.249  0.4551 -0.5571  0.9561
 2361SOL     OW16996   0.216   4.149   1.973 -0.1842  0.4009  0.3986
 2361SOL    HW116997   0.218   4.093   1.891 -0.3680  1.1069 -0.0917
 2361SOL    HW216998   0.127   4.195   1.980  0.7461  2.3816 -0.4006
 2362SOL     OW16999   1.959   5.179   0.289 -0.4084  0.5488  0.0990
 2362SOL    HW117000   1.953   5.163   0.191  0.5847  0.5192  0.0326
 2362SOL    HW217001   2.014   5.107   0.331 -1.8411 -0.1022  0.8569
 2363SOL     OW17002   3.441   3.433   0.730 -0.1930 -0.6308  0.3208
 2363SOL    HW117003   3.384   3.351   0.727 -0.7810 -0.3588  3.1221
 2363SOL    HW217004   3.490   3.437   0.817  2.0310  0.5432 -0.9371
 2364SOL     OW17005   4.578   5.057   0.519 -0.2147 -0.0885  0.2502
 2364SOL    HW117006   4.516   5.128   0.552  1.1367  0.7214  1.1260
 2364SOL    HW217007   4.646   5.098   0.458 -0.6689 -1.0052 -0.8873
 2365SOL     OW17008   2.307   3.587   2.287  0.0151 -0.2842  0.1780
 2365SOL    HW117009   2.276   3.511   2.344 -0.4850 -0.0065  0.2792
 2365SOL    HW217010   2.230   3.622   2.233  0.4092 -0.3192 -0.4079
 2366SOL     OW17011   3.974   3.867   2.037  0.0574 -0.0158  0.0633
 2366SOL    HW117012   3.899   3.927   2.065  0.1345  0.8568 -1.5488
 2366SOL    HW217013   3.943   3.810   1.961  0.5174 -0.8284  0.4857
 2367SOL     OW17014   0.838   5.899   0.637  0.2264  0.3441 -0.0129
 2367SOL    HW117015   0.920   5.896   0.579  0.3638 -1.5715  0.2413
 2367SOL    HW217016   0.770   5.834   0.602 -0.9010  1.3835  0.2132
 2368SOL     OW17017   1.786   7.495   2.162  0.4753  0.5842  0.0714
 2368SOL    HW117018   1.732   7.504   2.078  0.7899 -0.1305 -0.2160
 2368SOL    HW217019   1.730   7.518   2.241 -0.8995 -2.1618 -0.0381
 2369SOL     OW17020   3.628   8.115   1.673  0.2544 -0.0213  0.0937
 2369SOL    HW117021   3.638   8.193   1.735  0.8960 -0.0573  0.0404
 2369SOL    HW217022   3.599   8.035   1.724  0.4281  0.0386  0.2843
 2370SOL     OW17023   2.142   2.503   2.128 -0.7713  0.1203 -0.4275
 2370SOL    HW117024   2.162   2.563   2.051 -1.1135  0.4886 -0.2325
 2370SOL    HW217025   2.173   2.547   2.213  1.5136 -1.1799 -0.5546
 2371SOL     OW17026   4.284   3.575   1.677  0.0089  0.4293  0.4494
 2371SOL    HW117027   4.265   3.496   1.735 -2.5331  0.3179 -0.4969
 2371SOL    HW217028   4.382   3.596   1.681  0.7012 -2.6168  0.9159
 2372SOL     OW17029   2.949   0.285   0.122 -0.6164 -0.3938  0.1848
 2372SOL    HW117030   3.042   0.312   0.100 -1.5015  0.6347 -2.3819
 2372SOL    HW217031   2.886   0.359   0.100 -2.5738 -2.8217 -2.7351
 2373SOL     OW17032   9.667   5.136   0.115 -0.4835  0.1461 -0.3871
 2373SOL    HW117033   9.596   5.207   0.112  0.1179  0.7009 -2.3582
 2373SOL    HW217034   9.754   5.176   0.087 -0.1210 -1.3421 -1.4281
 2374SOL     OW17035   2.060   6.431   2.386  0.7023  0.1870  0.3065
 2374SOL    HW117036   1.974   6.383   2.403  0.8596 -1.1703 -2.5992
 2374SOL    HW217037   2.137   6.372   2.411  0.8479  0.4667  0.5283
 2375SOL     OW17038   2.854   3.390   0.914 -0.2996 -0.2605  0.3980
 2375SOL    HW117039   2.939   3.443   0.914 -0.0819 -0.6028  1.1271
 2375SOL    HW217040   2.776   3.452   0.905  0.0039  0.0889  0.1505
 2376SOL     OW17041   4.183   8.481   1.356  0.0932 -0.1122 -0.1401
 2376SOL    HW117042   4.198   8.478   1.257 -0.4806 -0.0539 -0.2315
 2376SOL    HW217043   4.213   8.394   1.397 -0.5617 -0.5036 -0.4934
 2377SOL     OW17044   3.905   4.221   2.369  0.1026  0.4040 -0.2668
 2377SOL    HW117045   3.978   4.278   2.330  0.7064  0.2953  0.6758
 2377SOL    HW217046   3.939   4.177   2.452 -0.9918  0.2142  0.0825
 2378SOL     OW17047   2.489   3.667   1.912 -0.2238  0.6159 -0.3684
 2378SOL    HW117048   2.555   3.615   1.858 -1.0227 -0.0284 -0.7372
 2378SOL    HW217049   2.403   3.675   1.861 -0.4153  1.5030  0.0782
 2379SOL     OW17050   0.590   4.927   0.446  0.0055 -0.5779 -0.2531
 2379SOL    HW117051   0.539   4.890   0.524  0.9370 -1.0512  0.1316
 2379SOL    HW217052   0.628   5.016   0.471 -0.0518 -0.5383 -0.3077
 2380SOL     OW17053   3.010   4.035   0.894  0.0365 -0.1023 -0.1899
 2380SOL    HW117054   3.101   4.068   0.868  0.5327 -1.7455 -0.6224
 2380SOL    HW217055   2.969   3.987   0.816 -0.9960  0.1864  0.1674
 2381SOL     OW17056   4.014   4.380   0.613 -0.3828  0.0674 -0.0321
 2381SOL    HW117057   4.028   4.454   0.679  0.6402 -1.6412  1.7079
 2381SOL    HW217058   4.073   4.393   0.534 -1.4478  2.0077 -0.5461
 2382SOL     OW17059   3.758   5.404   0.582  0.5336 -0.0239  0.2279
 2382SOL    HW117060   3.675   5.422   0.635 -0.4986  0.7102 -1.5985
 2382SOL    HW217061   3.802   5.491   0.558  0.3883 -0.2918 -1.0520
 2383SOL     OW17062   0.615   4.272   1.913 -0.2219 -0.0705  0.2025
 2383SOL    HW117063   0.603   4.218   1.830 -0.2619  0.2443  0.0025
 2383SOL    HW217064   0.683   4.227   1.973 -1.2236 -1.0260  0.6350
 2384SOL     OW17065   3.182   7.158   0.145  0.0156  0.1996 -0.5733
 2384SOL    HW117066   3.194   7.244   0.095  1.2817 -0.3508 -1.2185
 2384SOL    HW217067   3.250   7.091   0.115 -1.0322 -1.0809 -0.1716
 2385SOL     OW17068   3.126   0.335   2.461 -0.8686 -0.5825  0.2604
 2385SOL    HW117069   3.172   0.288   2.385 -0.6125  1.1534 -0.6875
 2385SOL    HW217070   3.167   0.306   2.548  3.5296  2.3628 -0.6179
 2386SOL     OW17071   3.565   5.657   0.621 -1.3170  0.1492 -0.2333
 2386SOL    HW117072   3.571   5.709   0.705  0.8419 -1.5394  0.7094
 2386SOL    HW217073   3.533   5.564   0.641  3.7135 -1.7897 -0.4987
 2387SOL     OW17074   0.213   5.878   1.884 -0.9113  0.1903  0.2402
 2387SOL    HW117075   0.295   5.839   1.843 -1.0429  0.2382 -0.0678
 2387SOL    HW217076   0.133   5.853   1.829 -1.3068 -1.2649  1.4318
 2388SOL     OW17077   3.269   7.347   1.760 -0.5109 -0.0290 -0.3324
 2388SOL    HW117078   3.347   7.384   1.710  0.8496 -0.2316  1.5613
 2388SOL    HW217079   3.254   7.402   1.842 -0.0437 -2.1225  1.2049
 2389SOL     OW17080   3.275   7.150   2.438 -0.5513  0.2438 -0.2122
 2389SOL    HW117081   3.320   7.081   2.495  0.6553  1.1195 -0.0887
 2389SOL    HW217082   3.275   7.118   2.343  1.6233  0.8248 -0.4500
 2390SOL     OW17083   3.266   3.154   0.775  0.6844  0.0831  0.2455
 2390SOL    HW117084   3.303   3.061   0.782 -1.1781 -0.6664  0.5572
 2390SOL    HW217085   3.244   3.188   0.867 -1.3795 -0.3485 -0.0587
 2391SOL     OW17086   4.257   8.774   1.338 -0.1802  0.5745 -0.1062
 2391SOL    HW117087   4.268   8.742   1.432  1.6033  2.0441  0.2091
 2391SOL    HW217088   4.162   8.802   1.324 -0.0543  2.0993  1.8542
 2392SOL     OW17089   3.456   1.563   1.015  0.0523 -0.0241  0.5627
 2392SOL    HW117090   3.389   1.490   1.005  0.2315 -0.1679  0.4155
 2392SOL    HW217091   3.486   1.594   0.925 -0.0818  0.2853  0.6233
 2393SOL     OW17092   1.768   5.912   1.964  0.3765 -0.3764  0.0491
 2393SOL    HW117093   1.715   5.899   2.048 -0.5681 -1.0059 -0.6318
 2393SOL    HW217094   1.844   5.974   1.982 -0.4037  0.2928  1.1189
 2394SOL     OW17095   2.097   5.132   1.825 -0.0577 -0.3598 -0.4251
 2394SOL    HW117096   2.113   5.220   1.869 -0.9190 -0.5818  0.3656
 2394SOL    HW217097   2.175   5.109   1.766  1.5942 -0.4803  1.7203
 2395SOL     OW17098   2.012   3.054   2.154 -0.3226  0.7866  0.2559
 2395SOL    HW117099   2.061   3.129   2.109 -0.2432  1.7869  1.9624
 2395SOL    HW217100   1.954   3.007   2.087  0.0337  2.0246 -0.9484
 2396SOL     OW17101   3.855   8.517   2.476 -0.6607  0.1430  0.1134
 2396SOL    HW117102   3.834   8.486   2.569 -1.4179 -2.3483 -0.8574
 2396SOL    HW217103   3.771   8.518   2.421 -0.0745  0.7875 -0.7830
 2397SOL     OW17104   3.174   2.638   0.925 -0.1676 -0.0212 -0.5057
 2397SOL    HW117105   3.116   2.671   1.000 -1.1626 -1.5887 -0.5544
 2397SOL    HW217106   3.115   2.602   0.852  0.8915 -2.4851 -0.1670
 2398SOL     OW17107   2.699   0.626   0.516 -0.0605  0.1626 -0.5493
 2398SOL    HW117108   2.617   0.677   0.542 -0.4356 -0.1897 -1.0155
 2398SOL    HW217109   2.675   0.530   0.500  0.5621 -0.0749 -0.0780
 2399SOL     OW17110   4.437   9.475   0.925 -0.3474  0.0503  0.4338
 2399SOL    HW117111   4.519   9.529   0.911 -0.0088 -0.2970  1.0843
 2399SOL    HW217112   4.413   9.472   1.022 -1.3078  0.4105  0.2165
 2400SOL     OW17113   2.044   6.495   0.350 -0.3110 -0.0873 -0.1162
 2400SOL    HW117114   1.988   6.571   0.382  0.6623 -0.3668  2.3192
 2400SOL    HW217115   1.988   6.413   0.344 -0.8461  0.3074 -0.5992
 2401SOL     OW17116   2.736   1.817   1.860 -0.1169  0.2782  0.2458
 2401SOL    HW117117   2.754   1.840   1.956 -0.2196 -1.4284  0.6933
 2401SOL    HW217118   2.757   1.720   1.845  0.6595  0.7204 -1.6537
 2402SOL     OW17119   4.672   9.448   0.306 -0.1177  0.5573  0.3230
 2402SOL    HW117120   4.669   9.398   0.220  1.1432 -0.9368  1.1105
 2402SOL    HW217121   4.620   9.533   0.298 -3.2556 -1.3924 -0.7079
 2403SOL     OW17122   4.293   0.268   2.019 -0.3592  0.2483 -0.2749
 2403SOL    HW117123   4.366   0.281   2.086 -1.4326 -0.6927  1.1148
 2403SOL    HW217124   4.269   0.357   1.979  0.8034  0.7168  0.0569
 2404SOL     OW17125   1.108   6.743   0.889  0.5204 -0.1799  0.1797
 2404SOL    HW117126   1.038   6.672   0.899  0.9645 -0.2400  3.3046
 2404SOL    HW217127   1.063   6.832   0.883  0.1082 -0.3701  0.3675
 2405SOL     OW17128   3.121   6.139   2.112 -0.2968  0.4534 -0.5663
 2405SOL    HW117129   3.055   6.112   2.042 -1.1384  0.3174  0.2698
 2405SOL    HW217130   3.194   6.072   2.116 -1.7744 -1.1179  0.7045
 2406SOL     OW17131   4.296   8.749   0.907 -0.2067  0.4921 -0.0050
 2406SOL    HW117132   4.273   8.837   0.865  0.6638  0.5128 -0.4563
 2406SOL    HW217133   4.239   8.677   0.867 -0.6686  0.7908  0.1062
 2407SOL     OW17134   2.506   6.310   0.955 -0.2179 -0.8702 -0.0016
 2407SOL    HW117135   2.416   6.302   0.998 -0.5127  1.0712 -0.2144
 2407SOL    HW217136   2.494   6.341   0.861  0.7340  0.7866  0.4082
 2408SOL     OW17137   2.581   0.852   0.686 -0.4307 -0.2559  0.5102
 2408SOL    HW117138   2.609   0.934   0.736 -0.1928 -0.9909  1.5769
 2408SOL    HW217139   2.558   0.779   0.750  1.2760 -1.6866 -0.4738
 2409SOL     OW17140   2.775   3.042   2.316  0.2771  0.5229 -0.0857
 2409SOL    HW117141   2.710   3.039   2.393  1.5824  2.0424  1.0942
 2409SOL    HW217142   2.799   3.137   2.296  0.0441  0.1374 -2.3359
 2410SOL     OW17143   5.072   1.948   1.078 -0.3608 -0.6655 -0.0901
 2410SOL    HW117144   5.013   1.930   1.157  0.0845 -1.3983  0.0828
 2410SOL    HW217145   5.129   2.028   1.097  1.3729 -2.1954  1.2647
 2411SOL     OW17146   3.877   3.091   0.523 -0.0091 -0.5421  0.2041
 2411SOL    HW117147   3.946   3.114   0.592 -1.1827 -0.8644  1.5134
 2411SOL    HW217148   3.909   3.012   0.470  1.0407 -0.1016  0.1574
 2412SOL     OW17149   3.352   8.605   2.216 -0.0768  0.5086  0.0934
 2412SOL    HW117150   3.360   8.686   2.157 -2.7356  1.1198  0.4707
 2412SOL    HW217151   3.316   8.633   2.305 -2.1214 -1.1902 -0.1534
 2413SOL     OW17152   3.140   1.928   2.192  0.2586  0.2993 -0.1530
 2413SOL    HW117153   3.203   1.922   2.269 -0.2923 -1.5722  0.1826
 2413SOL    HW217154   3.191   1.925   2.106  0.7189  0.1932  0.1266
  10.00000  10.00000   2.84200
